Title
82350
    1SAPS     N    1   3.687   3.785   9.464  0.1353 -0.5724 -0.3689
    1SAPS   HN1    2   3.608   3.795   9.397 -0.2996 -0.4846  0.1503
    1SAPS   HN2    3   3.742   3.874   9.465 -1.0897  0.2153  0.1282
    1SAPS   HN3    4   3.751   3.721   9.413  0.8245  0.0439 -0.2994
    1SAPS   C12    5   3.655   3.744   9.605  0.3764 -0.4776  0.4727
    1SAPS  H12A    6   3.665   3.637   9.618  0.2774 -0.4567  0.7297
    1SAPS   C13    7   3.739   3.802   9.722  0.3338  0.4249  0.1165
    1SAPS  O13A    8   3.833   3.870   9.691 -0.2537 -0.3834 -0.1098
    1SAPS  O13B    9   3.708   3.779   9.843  0.7231 -0.8689 -0.7699
    1SAPS   C11   10   3.506   3.776   9.634  0.0988  1.3574  0.4568
    1SAPS  H11A   11   3.488   3.884   9.618 -0.9156  1.2931  1.0738
    1SAPS  H11B   12   3.490   3.761   9.743  0.8766  3.8360  0.9791
    1SAPS     P   13   3.326   3.719   9.438 -0.1043  0.0471  0.4635
    1SAPS   O13   14   3.229   3.608   9.424  0.1527 -0.2280 -0.5275
    1SAPS   O14   15   3.272   3.861   9.435 -0.1628 -0.1585  0.2738
    1SAPS   O12   16   3.411   3.697   9.564 -0.0209 -0.3764 -1.0292
    1SAPS   O11   17   3.437   3.701   9.325 -0.1335  0.4430 -0.3587
    1SAPS    C1   18   3.449   3.606   9.218  0.0923  0.3306  0.4607
    1SAPS    HA   19   3.512   3.518   9.243  0.9570  1.0763  0.9402
    1SAPS    HB   20   3.342   3.585   9.198  0.2795 -2.1998  1.6976
    1SAPS    C2   21   3.529   3.665   9.094  0.3234  0.3721  0.1816
    1SAPS    HS   22   3.632   3.684   9.130  0.5459  0.0774 -0.2857
    1SAPS   O21   23   3.468   3.786   9.048 -0.5052  0.5470  0.4650
    1SAPS   C21   24   3.505   3.890   9.113  0.2726 -0.4012 -0.5542
    1SAPS   O22   25   3.577   3.891   9.213 -0.3371 -0.6152 -0.1935
    1SAPS   C22   26   3.457   4.012   9.047  0.7343 -1.3435 -0.0073
    1SAPS   H2R   27   3.346   4.013   9.040  0.7681 -2.7039 -1.4204
    1SAPS   H2S   28   3.476   4.103   9.108 -1.0674 -2.1231  1.8287
    1SAPS    C3   29   3.526   3.558   8.979  0.0574  0.0217 -0.2627
    1SAPS    HX   30   3.596   3.477   9.008 -1.0178 -1.3577 -1.3623
    1SAPS    HY   31   3.567   3.611   8.890 -1.0316  0.7357 -0.3577
    1SAPS   O31   32   3.395   3.504   8.944  0.2008 -0.4856 -0.0915
    1SAPS   C31   33   3.385   3.375   8.948 -0.0365 -0.2576  0.1702
    1SAPS   O32   34   3.476   3.294   8.963 -0.2516  0.0407  0.0626
    1SAPS   C32   35   3.234   3.344   8.926  0.5324 -0.6409 -0.1852
    1SAPS   H2X   36   3.159   3.419   8.959  1.0614  0.2532 -0.9695
    1SAPS   H2Y   37   3.225   3.251   8.987  2.9673 -1.0874 -0.4274
    1SAPS   C23   38   3.521   4.035   8.907  0.7082 -0.3924 -0.0908
    1SAPS   H3R   39   3.473   4.118   8.852 -0.3537  0.2461  1.7325
    1SAPS   H3S   40   3.506   3.953   8.834 -0.7107  1.3213 -1.8193
    1SAPS   C24   41   3.670   4.081   8.916  0.4226  0.0172 -1.0973
    1SAPS   H4R   42   3.687   4.140   9.009  0.3611  0.7675 -1.5571
    1SAPS   H4S   43   3.691   4.128   8.818 -0.3098 -0.0708 -1.2982
    1SAPS   C25   44   3.762   3.956   8.919 -0.2894 -0.0351 -0.5139
    1SAPS   H5R   45   3.784   3.912   9.018  4.3488  0.0418 -1.2799
    1SAPS   C26   46   3.820   3.902   8.810  0.6774  0.1113 -0.2252
    1SAPS   H6R   47   3.883   3.814   8.830  0.1662  0.0779  1.3440
    1SAPS   C27   48   3.808   3.942   8.661 -0.4365  0.0161 -0.1856
    1SAPS   H7R   49   3.861   4.040   8.659 -0.4110 -0.0025 -0.8098
    1SAPS   H7S   50   3.701   3.962   8.640 -0.9285 -2.0288  0.1883
    1SAPS   C28   51   3.871   3.840   8.569  0.0744 -0.0101 -0.8486
    1SAPS   H8R   52   3.960   3.786   8.605  0.3989 -0.7316 -2.6390
    1SAPS   C29   53   3.847   3.834   8.441 -0.2911  0.0858 -0.2244
    1SAPS   H9R   54   3.918   3.767   8.389 -0.3104 -1.2175  1.3293
    1SAPS  C210   55   3.748   3.919   8.361  0.1274  0.1045  0.0343
    1SAPS  H10R   56   3.677   3.965   8.432  0.6910 -0.3353  0.8953
    1SAPS  H10S   57   3.694   3.856   8.286  1.7747  1.1510 -2.1629
    1SAPS  C211   58   3.828   4.021   8.288  0.3109 -1.0037  0.3965
    1SAPS  H11R   59   3.876   4.092   8.357 -0.2696  1.7548 -1.8450
    1SAPS  C212   60   3.840   4.041   8.154 -0.0871  0.6252  0.3419
    1SAPS  H12R   61   3.903   4.118   8.107 -0.1340 -0.1539 -1.0501
    1SAPS  C213   62   3.771   3.954   8.049  0.2600 -0.4548 -0.2108
    1SAPS  H13R   63   3.667   3.946   8.087  0.5419  0.0764  0.7185
    1SAPS  H13S   64   3.819   3.855   8.067  0.2438 -0.4819 -0.3182
    1SAPS  C214   65   3.765   3.999   7.909  0.9738  0.7178 -0.3089
    1SAPS  H14R   66   3.662   4.030   7.887 -0.5761 -2.6887  1.4055
    1SAPS  C215   67   3.869   4.004   7.823 -0.0287  0.6448  0.0954
    1SAPS  H15R   68   3.844   4.039   7.722  2.6869  0.8733 -0.5763
    1SAPS  C216   69   4.013   3.967   7.844  0.3229  0.1810 -0.4315
    1SAPS  H16R   70   4.040   3.882   7.777  0.2508 -0.4311  0.3011
    1SAPS  H16S   71   4.032   3.927   7.946  1.0630 -0.7064 -0.8905
    1SAPS  C217   72   4.100   4.086   7.811  0.1111 -0.0947  0.6815
    1SAPS  H17R   73   4.034   4.175   7.827 -1.9509 -1.7531  1.9166
    1SAPS  H17S   74   4.112   4.090   7.701 -1.1527  0.9711  0.5442
    1SAPS  C218   75   4.235   4.094   7.879  0.1669 -0.4660  0.5241
    1SAPS  H18R   76   4.212   4.086   7.987  0.0493 -1.0346  0.4621
    1SAPS  H18S   77   4.277   4.195   7.863  0.1061 -0.3435  1.1040
    1SAPS  C219   78   4.334   3.972   7.851  0.3956  0.6208  0.5417
    1SAPS  H19R   79   4.348   3.956   7.742  0.7608  3.4517  0.1117
    1SAPS  H19S   80   4.314   3.884   7.916  4.4982  0.0254  1.2878
    1SAPS  C220   81   4.467   4.002   7.903 -0.3911 -0.7825  0.3737
    1SAPS  H20R   82   4.461   4.001   8.014  1.2225 -2.1644  0.4896
    1SAPS  H20S   83   4.509   4.099   7.869  1.3649 -1.0412  1.6658
    1SAPS  H20T   84   4.537   3.922   7.872 -1.0876 -1.4338  0.4611
    1SAPS   C33   85   3.207   3.310   8.778 -0.5340 -0.8869 -0.0618
    1SAPS   H3X   86   3.291   3.250   8.735  0.2636 -0.7585  1.2627
    1SAPS   H3Y   87   3.212   3.402   8.715 -0.5420  0.5561  1.9523
    1SAPS   C34   88   3.085   3.222   8.759  0.4531 -0.2338 -0.2338
    1SAPS   H4X   89   3.002   3.254   8.825  1.8762 -0.7452  1.9135
    1SAPS   H4Y   90   3.107   3.120   8.799 -0.7651  0.0494  1.3057
    1SAPS   C35   91   3.037   3.203   8.620 -0.2082  0.1807  0.0788
    1SAPS   H5X   92   3.118   3.176   8.549 -1.6630  0.4119 -1.7428
    1SAPS   H5Y   93   3.006   3.305   8.592 -0.2074 -0.2369 -1.5488
    1SAPS   C36   94   2.922   3.097   8.603 -0.4396 -0.5110 -1.1430
    1SAPS   H6X   95   2.844   3.120   8.679 -0.5333  0.2576 -1.4660
    1SAPS   H6Y   96   2.971   2.999   8.624 -1.0697 -0.1903  2.6518
    1SAPS   C37   97   2.858   3.106   8.465  0.2266 -0.3901 -0.0025
    1SAPS   H7X   98   2.941   3.085   8.394  1.0099 -0.4449  0.9120
    1SAPS   H7Y   99   2.815   3.208   8.455  0.6628 -0.1217  0.8212
    1SAPS   C38  100   2.751   3.004   8.445  0.6133  0.6463  0.3601
    1SAPS   H8X  101   2.661   3.011   8.510  0.2434  0.7533 -0.1517
    1SAPS   H8Y  102   2.799   2.905   8.458  0.0559 -0.0299 -2.1604
    1SAPS   C39  103   2.681   3.005   8.306 -0.2150  0.4233  0.6737
    1SAPS   H9X  104   2.747   2.953   8.234 -1.3112 -1.1850  0.7767
    1SAPS   H9Y  105   2.664   3.107   8.266  0.2048  0.4548  0.5681
    1SAPS  C310  106   2.564   2.906   8.317  0.5125  0.1596  1.2647
    1SAPS  H10X  107   2.477   2.952   8.368 -0.3633  2.0721 -1.7051
    1SAPS  H10Y  108   2.608   2.822   8.375  1.2688  0.9474  1.8555
    1SAPS  C311  109   2.517   2.871   8.174  0.1346  0.1011  1.2554
    1SAPS  H11X  110   2.444   2.790   8.193 -0.6616  0.4326 -0.2849
    1SAPS  H11Y  111   2.605   2.833   8.118  1.4764  3.5060  0.8240
    1SAPS  C312  112   2.461   3.000   8.104  0.7805  0.1382  0.0687
    1SAPS  H12X  113   2.544   3.073   8.103  0.8808  0.0405 -2.0236
    1SAPS  H12Y  114   2.377   3.048   8.158 -0.7002  1.1650 -2.9209
    1SAPS  C313  115   2.419   2.978   7.956  0.3420  0.1064  0.2096
    1SAPS  H13X  116   2.348   2.893   7.957 -0.5564  0.6941 -3.2040
    1SAPS  H13Y  117   2.510   2.954   7.897 -1.3977 -0.8684 -2.2197
    1SAPS  C314  118   2.342   3.096   7.891 -0.1575  0.5266 -0.0015
    1SAPS  H14X  119   2.399   3.191   7.880  1.7625 -0.6324 -0.5557
    1SAPS  H14Y  120   2.269   3.109   7.974 -0.1189  0.3266  0.0656
    1SAPS  C315  121   2.276   3.061   7.764 -0.2480 -0.0253 -0.5711
    1SAPS  H15X  122   2.198   3.139   7.752  0.2980  0.7907  0.8620
    1SAPS  H15Y  123   2.228   2.961   7.767 -0.4418  0.0799  0.0308
    1SAPS  C316  124   2.384   3.058   7.654 -0.1808  0.1372  0.0512
    1SAPS  H16X  125   2.464   2.986   7.680 -1.1629 -1.9128 -2.2393
    1SAPS  H16Y  126   2.429   3.160   7.646  1.4632 -0.3820  1.9124
    1SAPS  C317  127   2.329   3.000   7.521  0.2138 -0.1611  0.6446
    1SAPS  H17X  128   2.313   2.890   7.528  0.4333 -0.3217 -0.9674
    1SAPS  H17Y  129   2.398   3.011   7.434 -1.7108 -0.5184 -1.0067
    1SAPS  C318  130   2.194   3.054   7.485 -0.8341  0.0133 -0.7631
    1SAPS  H18X  131   2.143   3.010   7.396  0.7798 -0.1907 -1.6310
    1SAPS  H18Y  132   2.205   3.163   7.467  2.5789  0.1063  1.0393
    1SAPS  H18Z  133   2.123   3.046   7.570  0.1596  1.0281  0.1912
    2SAPS     N  134   1.411   3.482   9.938 -0.1743 -0.1044  0.1625
    2SAPS   HN1  135   1.419   3.573   9.988 -0.0710 -0.1391  0.2074
    2SAPS   HN2  136   1.360   3.413   9.997  1.7968 -1.7702  0.0407
    2SAPS   HN3  137   1.502   3.434   9.925 -2.2788 -4.1759 -1.5231
    2SAPS   C12  138   1.350   3.500   9.804  0.4424 -0.5593  0.4872
    2SAPS  H12A  139   1.266   3.433   9.797  0.2792 -0.1930 -2.3397
    2SAPS   C13  140   1.296   3.643   9.762 -0.3494  0.6179 -0.5127
    2SAPS  O13A  141   1.313   3.728   9.852  0.1611 -0.9947  0.9768
    2SAPS  O13B  142   1.244   3.662   9.653  0.0753  0.1908 -0.2399
    2SAPS   C11  143   1.451   3.456   9.687 -0.8894 -0.0503  1.0790
    2SAPS  H11A  144   1.543   3.519   9.685  1.2216 -2.9186 -0.4002
    2SAPS  H11B  145   1.410   3.480   9.587  2.3750  0.3781 -0.2740
    2SAPS     P  146   1.622   3.262   9.767  0.0570  0.0661 -0.3167
    2SAPS   O13  147   1.617   3.302   9.911 -0.2211 -0.1516  0.4208
    2SAPS   O14  148   1.638   3.120   9.728 -0.3307 -0.0663 -0.4865
    2SAPS   O12  149   1.496   3.318   9.694 -0.6475  0.6205 -0.4827
    2SAPS   O11  150   1.743   3.339   9.702 -0.8224 -0.3932  0.1067
    2SAPS    C1  151   1.770   3.367   9.567  0.3850  1.0796  0.3410
    2SAPS    HA  152   1.810   3.282   9.507 -2.1433  0.8795 -1.2157
    2SAPS    HB  153   1.676   3.395   9.515 -0.5783 -0.7459  1.0068
    2SAPS    C2  154   1.872   3.484   9.564  0.1458  0.7732  0.1618
    2SAPS    HS  155   1.829   3.572   9.617  0.9078  0.7956  0.7525
    2SAPS   O21  156   1.879   3.523   9.429 -0.2030  0.3325  0.3450
    2SAPS   C21  157   1.937   3.647   9.414 -0.3306 -0.1106  0.6940
    2SAPS   O22  158   1.949   3.727   9.502 -0.5445  0.2693  0.3085
    2SAPS   C22  159   1.979   3.660   9.272  0.2588  0.0962 -0.2698
    2SAPS   H2R  160   2.011   3.563   9.227 -0.9751 -0.2822 -0.3629
    2SAPS   H2S  161   1.897   3.705   9.213  1.0955  0.4458 -1.2021
    2SAPS    C3  162   2.007   3.435   9.627  0.2021 -0.2872 -0.6255
    2SAPS    HX  163   1.983   3.409   9.732 -0.1658  0.1931 -0.5842
    2SAPS    HY  164   2.087   3.512   9.626  0.8306 -0.9311 -0.3525
    2SAPS   O31  165   2.054   3.320   9.551 -0.3207 -0.7215 -0.0297
    2SAPS   C31  166   2.124   3.337   9.439  0.4122  0.1712 -0.1580
    2SAPS   O32  167   2.159   3.441   9.392 -0.2557 -0.8750 -0.1293
    2SAPS   C32  168   2.176   3.205   9.380  0.1269 -0.2663  1.1372
    2SAPS   H2X  169   2.094   3.130   9.385 -0.6979  0.2256 -2.5616
    2SAPS   H2Y  170   2.267   3.178   9.438 -1.8061 -1.8170  3.6692
    2SAPS   C23  171   2.099   3.757   9.262 -0.2424  0.4367 -0.7064
    2SAPS   H3R  172   2.170   3.737   9.344  0.1971 -0.1156 -1.2200
    2SAPS   H3S  173   2.061   3.862   9.264  1.7973  1.2102 -0.0092
    2SAPS   C24  174   2.190   3.733   9.143  0.1284 -0.7429 -0.1666
    2SAPS   H4R  175   2.251   3.644   9.173  2.8896  1.1381  0.2062
    2SAPS   H4S  176   2.269   3.812   9.140 -0.0413 -0.6026 -1.5680
    2SAPS   C25  177   2.136   3.705   9.011 -1.3087 -0.2622  0.3142
    2SAPS   H5R  178   2.076   3.613   9.009 -0.6155 -0.7246 -1.3052
    2SAPS   C26  179   2.163   3.760   8.888 -0.3356  0.7722 -0.2194
    2SAPS   H6R  180   2.107   3.724   8.801 -0.0014 -0.9327  0.2409
    2SAPS   C27  181   2.249   3.881   8.855 -0.4899 -0.1280 -0.2703
    2SAPS   H7R  182   2.234   3.956   8.936  0.5939 -0.1389 -0.0482
    2SAPS   H7S  183   2.200   3.925   8.765 -0.4753 -1.5419 -0.9936
    2SAPS   C28  184   2.400   3.871   8.838  1.0010 -0.5659  0.0784
    2SAPS   H8R  185   2.460   3.895   8.927  0.2291  1.2774  0.1528
    2SAPS   C29  186   2.462   3.838   8.724  0.5839  0.2333  0.5388
    2SAPS   H9R  187   2.570   3.838   8.706  0.4014 -0.0258 -0.5997
    2SAPS  C210  188   2.378   3.812   8.603 -0.6860 -0.2818 -1.0113
    2SAPS  H10R  189   2.290   3.748   8.627 -1.3260  1.6079  2.2893
    2SAPS  H10S  190   2.428   3.739   8.536  0.5503 -0.5876  0.2151
    2SAPS  C211  191   2.319   3.933   8.540  0.2202 -0.9385  0.0328
    2SAPS  H11R  192   2.298   4.019   8.605  1.5798  0.3261 -1.1187
    2SAPS  C212  193   2.302   3.959   8.411 -0.0161 -0.3027 -0.2669
    2SAPS  H12R  194   2.254   4.057   8.390 -1.9585 -0.8873  1.1414
    2SAPS  C213  195   2.326   3.866   8.298  0.5004  0.5638 -0.1389
    2SAPS  H13R  196   2.252   3.888   8.218 -0.1297  1.3720  0.6504
    2SAPS  H13S  197   2.307   3.763   8.336  0.9430  0.6137  0.2116
    2SAPS  C214  198   2.466   3.878   8.245 -0.0348 -0.3858 -0.5103
    2SAPS  H14R  199   2.547   3.883   8.318 -0.5014  0.6566 -0.0341
    2SAPS  C215  200   2.489   3.917   8.118 -0.0869  0.5835  0.5468
    2SAPS  H15R  201   2.595   3.925   8.090  0.0504  1.1339  1.1854
    2SAPS  C216  202   2.388   3.935   8.005  0.0708  0.3227 -0.3779
    2SAPS  H16R  203   2.301   4.000   8.028 -1.3051 -1.0040 -1.6436
    2SAPS  H16S  204   2.370   3.830   7.975  2.0729  0.1927 -1.3166
    2SAPS  C217  205   2.458   4.001   7.885 -0.1272 -0.1420  0.3247
    2SAPS  H17R  206   2.481   4.100   7.930 -3.0006  0.1833  1.3138
    2SAPS  H17S  207   2.388   4.030   7.804  0.3742 -0.7120 -0.3212
    2SAPS  C218  208   2.566   3.920   7.822  0.1036 -0.2810 -0.1579
    2SAPS  H18R  209   2.517   3.877   7.732  1.2299  0.6498 -1.2614
    2SAPS  H18S  210   2.601   3.833   7.882  0.0352  0.9065  1.6458
    2SAPS  C219  211   2.699   3.997   7.781  0.2723  0.4425 -0.2363
    2SAPS  H19R  212   2.721   4.052   7.875  0.3665 -0.4717  0.2898
    2SAPS  H19S  213   2.695   4.079   7.707  1.2042  2.3792  1.7554
    2SAPS  C220  214   2.817   3.900   7.749 -0.5672 -0.9825 -0.7081
    2SAPS  H20R  215   2.898   3.955   7.697 -0.2726 -1.0259 -0.2997
    2SAPS  H20S  216   2.784   3.820   7.680 -0.2607 -2.8293  1.1999
    2SAPS  H20T  217   2.849   3.846   7.840 -2.5213  0.6408  1.0774
    2SAPS   C33  218   2.210   3.214   9.225 -0.4150 -0.2707 -0.8539
    2SAPS   H3X  219   2.255   3.116   9.198 -1.7277 -1.3229  0.6063
    2SAPS   H3Y  220   2.284   3.297   9.228  0.0500 -0.7030  0.0950
    2SAPS   C34  221   2.097   3.238   9.128 -0.2308  0.1645  0.1469
    2SAPS   H4X  222   2.036   3.317   9.176 -0.3631  0.6337 -0.7887
    2SAPS   H4Y  223   2.033   3.150   9.106 -0.7632  0.8126 -0.9266
    2SAPS   C35  224   2.133   3.282   8.980  0.0022  0.0543 -0.2532
    2SAPS   H5X  225   2.189   3.200   8.930 -1.1523 -0.4891 -0.6980
    2SAPS   H5Y  226   2.201   3.365   9.006  0.8528 -0.8669  0.5047
    2SAPS   C36  227   2.014   3.334   8.894  0.3465 -0.3258 -0.4014
    2SAPS   H6X  228   2.009   3.444   8.905  1.5153 -0.4138  1.5517
    2SAPS   H6Y  229   1.918   3.284   8.920 -1.1188  3.0138  1.2178
    2SAPS   C37  230   2.031   3.313   8.745  0.5549 -0.2146 -0.8606
    2SAPS   H7X  231   1.934   3.344   8.702 -0.1377 -0.6991  0.2909
    2SAPS   H7Y  232   2.057   3.207   8.726  2.8205  0.7443 -3.7914
    2SAPS   C38  233   2.143   3.395   8.683  0.2513 -0.1977  0.0501
    2SAPS   H8X  234   2.243   3.371   8.726  0.6108 -0.2107 -0.7818
    2SAPS   H8Y  235   2.118   3.501   8.707  2.0547 -0.0184  1.4250
    2SAPS   C39  236   2.150   3.377   8.530  0.4178 -0.0647  0.1438
    2SAPS   H9X  237   2.060   3.416   8.476 -1.2590 -0.5930  2.4152
    2SAPS   H9Y  238   2.153   3.267   8.515  1.6357 -0.0577  0.2704
    2SAPS  C310  239   2.280   3.436   8.461  0.7040  0.6273  0.2488
    2SAPS  H10X  240   2.369   3.398   8.516  0.0723 -0.1953  0.7185
    2SAPS  H10Y  241   2.277   3.545   8.482 -3.1649  1.2280 -2.4122
    2SAPS  C311  242   2.305   3.409   8.313  0.3086  0.0026  0.1231
    2SAPS  H11X  243   2.228   3.453   8.246 -1.8089 -2.7944  0.5003
    2SAPS  H11Y  244   2.291   3.301   8.289 -0.6813  0.5643 -2.0800
    2SAPS  C312  245   2.447   3.440   8.269 -0.4794  0.7204  0.3293
    2SAPS  H12X  246   2.513   3.362   8.313  0.9584  1.2423 -0.8223
    2SAPS  H12Y  247   2.478   3.539   8.309  1.0136  0.8128 -0.9639
    2SAPS  C313  248   2.457   3.439   8.120  0.1480 -0.0992  0.2798
    2SAPS  H13X  249   2.383   3.501   8.064  0.5126  0.7653  0.7470
    2SAPS  H13Y  250   2.441   3.333   8.089 -1.3996 -0.2575  1.4900
    2SAPS  C314  251   2.604   3.465   8.076  0.1640 -0.7549  0.5782
    2SAPS  H14X  252   2.667   3.436   8.162  1.0418  3.2512  1.4871
    2SAPS  H14Y  253   2.613   3.576   8.070 -1.7753 -0.5827  0.3021
    2SAPS  C315  254   2.647   3.388   7.949 -0.2614  0.1337  0.2439
    2SAPS  H15X  255   2.605   3.286   7.944 -1.7326  0.7882 -1.6902
    2SAPS  H15Y  256   2.757   3.371   7.961 -0.2962  0.8071  1.7355
    2SAPS  C316  257   2.603   3.457   7.821  0.1249  0.1064  0.8253
    2SAPS  H16X  258   2.635   3.564   7.821  1.0503 -0.0341 -3.1415
    2SAPS  H16Y  259   2.492   3.450   7.815  0.0776 -0.9099  2.2891
    2SAPS  C317  260   2.666   3.408   7.694 -0.1035  0.6926  0.0073
    2SAPS  H17X  261   2.613   3.446   7.603  0.5170  0.4730 -0.4528
    2SAPS  H17Y  262   2.665   3.297   7.689  0.3174  0.7391 -2.3567
    2SAPS  C318  263   2.817   3.446   7.674 -0.5757  0.4254 -0.4817
    2SAPS  H18X  264   2.873   3.400   7.758 -0.6573 -1.3058 -1.3272
    2SAPS  H18Y  265   2.833   3.556   7.674 -2.1069  0.6780 -1.2667
    2SAPS  H18Z  266   2.850   3.403   7.577  0.5692 -0.1918  0.1582
    3SAPS     N  267   1.896   5.584   9.679  0.3656 -0.2729  0.5294
    3SAPS   HN1  268   1.953   5.497   9.686 -0.4740 -0.7080  2.9205
    3SAPS   HN2  269   1.827   5.589   9.601 -1.6341  1.4335  2.2919
    3SAPS   HN3  270   1.959   5.666   9.685 -3.4633  2.9293  1.2214
    3SAPS   C12  271   1.804   5.579   9.792  0.0128 -0.9957  0.4335
    3SAPS  H12A  272   1.872   5.562   9.874  1.5821  2.5603  0.0415
    3SAPS   C13  273   1.725   5.706   9.819  0.5021 -0.2155 -0.0509
    3SAPS  O13A  274   1.748   5.813   9.753  0.2645  0.0285  0.2063
    3SAPS  O13B  275   1.667   5.704   9.930 -0.6687 -0.4183  0.4921
    3SAPS   C11  276   1.714   5.466   9.746 -0.5219  0.1023 -0.1704
    3SAPS  H11A  277   1.669   5.478   9.645 -0.8113 -2.6244 -0.4395
    3SAPS  H11B  278   1.629   5.454   9.816 -1.7728  3.0228 -1.0254
    3SAPS     P  279   1.777   5.222   9.834  0.1803 -0.3066 -0.5315
    3SAPS   O13  280   1.910   5.171   9.866 -0.0322 -0.4437 -0.3241
    3SAPS   O14  281   1.686   5.257   9.948  0.5257 -0.2633 -0.0566
    3SAPS   O12  282   1.782   5.340   9.730  0.1327 -0.2889 -0.2256
    3SAPS   O11  283   1.692   5.125   9.744  0.0547 -0.2276  0.2779
    3SAPS    C1  284   1.737   5.089   9.610 -0.8607 -0.0473 -0.5975
    3SAPS    HA  285   1.758   5.181   9.551 -0.8041  0.9740  0.9422
    3SAPS    HB  286   1.834   5.036   9.617 -0.4923  0.5524 -1.0278
    3SAPS    C2  287   1.649   4.996   9.535 -0.5003  0.6546 -0.5055
    3SAPS    HS  288   1.624   4.910   9.600  0.9129  1.1746  0.7979
    3SAPS   O21  289   1.727   4.951   9.421 -0.3833  0.0919 -0.4236
    3SAPS   C21  290   1.681   4.855   9.343 -0.3717 -0.2846 -0.4857
    3SAPS   O22  291   1.589   4.780   9.367 -0.3730  0.6535 -0.1799
    3SAPS   C22  292   1.749   4.863   9.218 -0.3600 -0.3076 -0.1988
    3SAPS   H2R  293   1.848   4.913   9.221 -1.2860  1.5779 -0.1010
    3SAPS   H2S  294   1.772   4.757   9.191 -0.7793 -0.5516  0.3743
    3SAPS    C3  295   1.514   5.065   9.487 -0.1019 -0.0400  0.0664
    3SAPS    HX  296   1.458   5.093   9.580  0.9602 -0.4614  0.8510
    3SAPS    HY  297   1.462   4.980   9.438  0.0247  0.0104 -0.1522
    3SAPS   O31  298   1.541   5.182   9.401  0.7075  0.5714 -0.1229
    3SAPS   C31  299   1.426   5.245   9.369 -0.1455 -1.1081  0.2843
    3SAPS   O32  300   1.316   5.209   9.402  0.3271  0.5512  0.0773
    3SAPS   C32  301   1.460   5.360   9.276  0.0405  0.5796  0.8246
    3SAPS   H2X  302   1.560   5.403   9.300  1.9914 -2.7945 -0.5074
    3SAPS   H2Y  303   1.391   5.445   9.289  0.6281  1.0523  0.8986
    3SAPS   C23  304   1.666   4.929   9.106 -0.1111 -0.4251 -0.3609
    3SAPS   H3R  305   1.728   4.959   9.019  0.0227  1.2797  0.2758
    3SAPS   H3S  306   1.642   5.031   9.143  1.0868 -0.0626 -0.5219
    3SAPS   C24  307   1.545   4.854   9.048 -0.0532 -0.4574 -0.3906
    3SAPS   H4R  308   1.480   4.924   8.991 -0.4707 -0.0035  0.6248
    3SAPS   H4S  309   1.483   4.814   9.131  0.3815  0.8261  0.5805
    3SAPS   C25  310   1.595   4.733   8.961  0.1396 -0.7067 -0.2227
    3SAPS   H5R  311   1.651   4.654   9.014 -2.3722 -3.4088 -1.2723
    3SAPS   C26  312   1.571   4.719   8.831  1.4310  0.3755  0.1014
    3SAPS   H6R  313   1.599   4.627   8.778 -4.6681 -1.4439 -0.6604
    3SAPS   C27  314   1.489   4.812   8.744  0.0524  0.2132 -0.5059
    3SAPS   H7R  315   1.420   4.861   8.816 -1.5726 -2.5819 -0.0108
    3SAPS   H7S  316   1.428   4.746   8.678 -1.4244 -2.4031  3.1916
    3SAPS   C28  317   1.573   4.919   8.675  0.9397 -0.6957 -0.8626
    3SAPS   H8R  318   1.621   4.989   8.745 -1.6038  0.9873 -0.6646
    3SAPS   C29  319   1.588   4.935   8.545 -0.3699  0.0387  0.5103
    3SAPS   H9R  320   1.657   5.009   8.500 -0.3599  0.4329  1.1521
    3SAPS  C210  321   1.537   4.844   8.433  0.2389  0.1773 -0.1642
    3SAPS  H10R  322   1.493   4.921   8.366  0.2696 -0.7220 -1.2481
    3SAPS  H10S  323   1.454   4.776   8.465  0.2451 -0.4104 -1.3227
    3SAPS  C211  324   1.654   4.765   8.381 -0.1588 -0.0284  0.5535
    3SAPS  H11R  325   1.699   4.687   8.445  7.5765  2.5993 -0.6441
    3SAPS  C212  326   1.716   4.789   8.264  0.2683 -0.2891 -0.2250
    3SAPS  H12R  327   1.800   4.722   8.241  1.1075  0.4663  0.5564
    3SAPS  C213  328   1.683   4.894   8.162 -0.5771  0.2338 -0.7674
    3SAPS  H13R  329   1.766   4.968   8.167  0.1964 -0.7014  1.3828
    3SAPS  H13S  330   1.592   4.952   8.190 -0.4290 -0.3635  1.0729
    3SAPS  C214  331   1.660   4.845   8.025  0.8888 -0.0703 -0.0512
    3SAPS  H14R  332   1.754   4.818   7.976 -0.2812 -2.6643 -1.0687
    3SAPS  C215  333   1.539   4.812   7.964 -0.2485  0.1512  0.1273
    3SAPS  H15R  334   1.546   4.773   7.861 -0.5735 -2.6342  1.0614
    3SAPS  C216  335   1.402   4.833   8.016 -0.2247 -0.2941  0.3230
    3SAPS  H16R  336   1.342   4.859   7.926 -0.0151 -1.3449 -0.1323
    3SAPS  H16S  337   1.392   4.922   8.082  1.8769  0.9398 -0.8860
    3SAPS  C217  338   1.354   4.701   8.085 -0.2373 -0.5633  0.4108
    3SAPS  H17R  339   1.437   4.670   8.152 -0.4924  1.2761  1.6458
    3SAPS  H17S  340   1.351   4.635   7.996  0.9533  1.1000 -0.9285
    3SAPS  C218  341   1.218   4.719   8.148 -0.2056  0.5125 -0.1427
    3SAPS  H18R  342   1.214   4.819   8.197  0.9203  0.3303  0.3442
    3SAPS  H18S  343   1.212   4.635   8.221 -3.5570 -1.1299 -2.0812
    3SAPS  C219  344   1.094   4.712   8.053 -0.5171 -0.0315 -0.2217
    3SAPS  H19R  345   1.103   4.620   7.991 -1.9540 -0.7011  0.5069
    3SAPS  H19S  346   1.098   4.806   7.994  1.4806  0.5418  0.7473
    3SAPS  C220  347   0.962   4.710   8.121 -0.6177 -0.2371 -0.1118
    3SAPS  H20R  348   0.941   4.805   8.174  4.3222 -0.3379  2.5344
    3SAPS  H20S  349   0.955   4.635   8.203 -1.0504 -0.2082 -0.1188
    3SAPS  H20T  350   0.872   4.691   8.058 -0.5527  1.5817 -0.8103
    3SAPS   C33  351   1.467   5.322   9.127 -0.6546  0.1249 -0.3790
    3SAPS   H3X  352   1.533   5.233   9.131 -0.6144 -0.1834 -4.2505
    3SAPS   H3Y  353   1.516   5.408   9.075  0.6120  0.0216  0.5917
    3SAPS   C34  354   1.326   5.288   9.070  0.2870 -0.0230  0.4914
    3SAPS   H4X  355   1.266   5.378   9.096  2.4117  0.6961  3.4501
    3SAPS   H4Y  356   1.280   5.198   9.116  1.5754 -1.2122 -0.4461
    3SAPS   C35  357   1.311   5.258   8.916  0.3280 -0.0577  0.1129
    3SAPS   H5X  358   1.204   5.249   8.888  0.6917 -0.4036 -1.2756
    3SAPS   H5Y  359   1.347   5.154   8.899 -1.9335 -0.5970 -1.8845
    3SAPS   C36  360   1.376   5.362   8.822 -0.0925  0.3992 -0.2416
    3SAPS   H6X  361   1.487   5.366   8.834  0.0317 -0.3675 -1.0521
    3SAPS   H6Y  362   1.328   5.459   8.849 -0.8046 -0.0361  0.0751
    3SAPS   C37  363   1.344   5.347   8.673  0.2166 -0.0199 -0.0998
    3SAPS   H7X  364   1.389   5.430   8.614  3.2985  0.1016  2.1899
    3SAPS   H7Y  365   1.235   5.354   8.654  0.4849  0.7754 -1.4963
    3SAPS   C38  366   1.382   5.206   8.614 -0.2053 -0.1068 -0.5311
    3SAPS   H8X  367   1.312   5.141   8.671  0.1774  0.8564  1.1211
    3SAPS   H8Y  368   1.482   5.170   8.646 -0.4348 -0.0195  0.3067
    3SAPS   C39  369   1.351   5.186   8.463  0.5709 -0.0725 -0.2916
    3SAPS   H9X  370   1.241   5.172   8.462  0.8768 -3.3824 -0.0599
    3SAPS   H9Y  371   1.394   5.085   8.449 -0.7311 -0.7352  0.2912
    3SAPS  C310  372   1.405   5.299   8.372 -0.3863  0.2174 -0.4661
    3SAPS  H10X  373   1.513   5.289   8.394 -0.9396  1.1239  3.1217
    3SAPS  H10Y  374   1.365   5.394   8.413 -1.5457 -1.0600  1.5352
    3SAPS  C311  375   1.375   5.276   8.226 -0.5713 -0.5979 -0.0343
    3SAPS  H11X  376   1.267   5.249   8.231 -0.3419 -1.4464  0.4561
    3SAPS  H11Y  377   1.427   5.184   8.194 -0.9333 -1.7673  2.5155
    3SAPS  C312  378   1.408   5.388   8.133 -0.0427 -0.5121  0.2890
    3SAPS  H12X  379   1.512   5.411   8.163 -0.3478 -1.5058  2.3039
    3SAPS  H12Y  380   1.341   5.475   8.148  1.3077  0.6325 -0.1757
    3SAPS  C313  381   1.405   5.352   7.981 -0.0507  0.1599  0.8330
    3SAPS  H13X  382   1.481   5.274   7.959  0.1035  0.8024 -1.0089
    3SAPS  H13Y  383   1.434   5.450   7.937  1.1675  0.1812  1.6114
    3SAPS  C314  384   1.270   5.302   7.919 -0.3256  0.0158 -0.8237
    3SAPS  H14X  385   1.190   5.368   7.959  0.9851  2.3433 -1.8675
    3SAPS  H14Y  386   1.250   5.197   7.951 -1.5363  0.4588 -0.0283
    3SAPS  C315  387   1.274   5.313   7.767  0.6187 -0.6671 -0.3943
    3SAPS  H15X  388   1.357   5.246   7.733  0.3675 -0.8559 -0.6381
    3SAPS  H15Y  389   1.297   5.419   7.746  1.7923 -0.7419  0.3984
    3SAPS  C316  390   1.144   5.274   7.690  0.2073 -0.3084  0.1648
    3SAPS  H16X  391   1.066   5.353   7.698 -1.5592 -1.9884  0.3205
    3SAPS  H16Y  392   1.104   5.176   7.724 -0.6805 -0.0016  0.0404
    3SAPS  C317  393   1.171   5.259   7.541 -0.6102 -0.0482  0.0543
    3SAPS  H17X  394   1.075   5.222   7.500 -0.2348 -0.7410 -0.2290
    3SAPS  H17Y  395   1.246   5.178   7.529 -1.6405 -1.1259  0.6847
    3SAPS  C318  396   1.224   5.386   7.470  1.0906 -1.2713  0.0207
    3SAPS  H18X  397   1.171   5.479   7.502  0.2347 -0.7712 -2.6095
    3SAPS  H18Y  398   1.209   5.387   7.360 -0.7036  0.0008  0.2253
    3SAPS  H18Z  399   1.331   5.414   7.480  0.8308 -0.1989 -0.0933
    4SAPS     N  400   3.729   6.108   9.988  0.1285 -0.3339 -0.2331
    4SAPS   HN1  401   3.668   6.028  10.014 -0.2804  0.2728  0.7295
    4SAPS   HN2  402   3.819   6.078   9.946  0.2917  0.2653 -0.3214
    4SAPS   HN3  403   3.744   6.165  10.074 -0.8170  0.2824 -0.4501
    4SAPS   C12  404   3.646   6.183   9.891  0.6268 -0.2209  0.0661
    4SAPS  H12A  405   3.613   6.117   9.812  0.9896  0.2624 -0.5017
    4SAPS   C13  406   3.512   6.232   9.954  0.4929  0.2753 -0.1541
    4SAPS  O13A  407   3.458   6.169  10.049  0.1433 -0.4579 -0.7649
    4SAPS  O13B  408   3.440   6.312   9.885  0.0424  0.2994 -0.5318
    4SAPS   C11  409   3.716   6.312   9.844  0.1760 -0.7359  0.5473
    4SAPS  H11A  410   3.719   6.393   9.920  1.9156  0.9942 -1.2414
    4SAPS  H11B  411   3.647   6.367   9.776 -2.0151 -1.2303  2.2313
    4SAPS     P  412   3.921   6.403   9.711 -0.0781 -0.0904  0.4974
    4SAPS   O13  413   3.846   6.532   9.709 -0.2020 -0.3281  0.4856
    4SAPS   O14  414   4.060   6.412   9.756 -0.0485  0.2165 -0.1980
    4SAPS   O12  415   3.849   6.291   9.797  0.5249 -0.1811 -0.1273
    4SAPS   O11  416   3.921   6.332   9.568 -0.2111 -0.0883  0.0039
    4SAPS    C1  417   3.940   6.201   9.524 -0.4144 -0.1071 -0.3419
    4SAPS    HA  418   4.047   6.176   9.539  0.6389  2.9533 -1.9125
    4SAPS    HB  419   3.879   6.132   9.586 -1.2746  0.8366 -0.1101
    4SAPS    C2  420   3.890   6.187   9.368 -0.4956  1.0989 -0.2288
    4SAPS    HS  421   3.920   6.084   9.338  2.3146  0.8945  2.7064
    4SAPS   O21  422   3.951   6.287   9.297 -0.3652  0.0961  0.3024
    4SAPS   C21  423   4.081   6.283   9.305  0.1363  0.1930 -0.1107
    4SAPS   O22  424   4.143   6.180   9.319 -0.2922  0.5239 -0.3171
    4SAPS   C22  425   4.143   6.416   9.275 -0.9055  0.5110  0.8051
    4SAPS   H2R  426   4.093   6.457   9.186 -2.1223  0.5950  1.5086
    4SAPS   H2S  427   4.131   6.494   9.353 -1.3324  0.9461  0.3090
    4SAPS    C3  428   3.735   6.189   9.373 -0.1946 -0.1840 -0.5501
    4SAPS    HX  429   3.711   6.289   9.415 -1.2229 -0.0644 -1.3846
    4SAPS    HY  430   3.697   6.119   9.450 -1.5522  3.0948  2.0115
    4SAPS   O31  431   3.679   6.183   9.238 -0.2140 -0.0045 -0.0949
    4SAPS   C31  432   3.586   6.103   9.213 -0.0104 -0.2900  0.5265
    4SAPS   O32  433   3.533   6.020   9.285 -0.8102 -0.7678  0.4635
    4SAPS   C32  434   3.546   6.119   9.065 -0.7112  0.0396  1.1048
    4SAPS   H2X  435   3.638   6.106   9.004 -2.2973 -0.3198 -1.3516
    4SAPS   H2Y  436   3.515   6.225   9.051  2.8890  1.0139 -0.8022
    4SAPS   C23  437   4.304   6.413   9.254  0.3660  0.4371  0.2323
    4SAPS   H3R  438   4.336   6.333   9.184  1.7950  1.0486  0.1463
    4SAPS   H3S  439   4.340   6.411   9.360  0.6685  2.3013  0.1887
    4SAPS   C24  440   4.340   6.540   9.182  0.4830 -0.1566 -0.1547
    4SAPS   H4R  441   4.303   6.623   9.245  0.1436 -0.7776  0.4825
    4SAPS   H4S  442   4.285   6.539   9.085 -2.4342  0.1548  1.3857
    4SAPS   C25  443   4.487   6.554   9.178  0.5986 -0.0434 -0.3179
    4SAPS   H5R  444   4.531   6.550   9.279 -1.6118 -2.1872  0.6744
    4SAPS   C26  445   4.558   6.567   9.066  0.2480  0.1426  0.5264
    4SAPS   H6R  446   4.665   6.591   9.078 -0.1006  1.2153  1.6536
    4SAPS   C27  447   4.513   6.567   8.924  0.0042  0.3351 -0.1411
    4SAPS   H7R  448   4.416   6.621   8.914  1.0451  2.5239  0.9169
    4SAPS   H7S  449   4.475   6.464   8.909 -1.7399  0.7095  1.3229
    4SAPS   C28  450   4.628   6.581   8.822 -0.3863 -1.0594  0.2186
    4SAPS   H8R  451   4.726   6.614   8.859  0.4850  1.6201 -3.8332
    4SAPS   C29  452   4.615   6.588   8.689 -0.7547  0.4789  0.4704
    4SAPS   H9R  453   4.709   6.609   8.635 -0.5436 -0.3656  0.5074
    4SAPS  C210  454   4.492   6.557   8.609  0.4105 -0.7053  0.5072
    4SAPS  H10R  455   4.428   6.648   8.601  2.3251  0.6055 -0.7188
    4SAPS  H10S  456   4.431   6.480   8.660  0.5993 -1.5419 -0.5041
    4SAPS  C211  457   4.524   6.500   8.475 -0.2058  0.3731 -0.0625
    4SAPS  H11R  458   4.513   6.391   8.464  1.4175  0.3657 -2.4232
    4SAPS  C212  459   4.567   6.574   8.371  0.3975  0.6347  0.1672
    4SAPS  H12R  460   4.596   6.521   8.279 -1.3392  0.1329 -0.1360
    4SAPS  C213  461   4.588   6.721   8.369  0.2543  0.1299  0.0472
    4SAPS  H13R  462   4.676   6.751   8.430  0.0616  0.4713  0.1616
    4SAPS  H13S  463   4.501   6.773   8.413  0.5942  0.9833 -0.2599
    4SAPS  C214  464   4.605   6.772   8.224 -0.0074  0.1307  0.0765
    4SAPS  H14R  465   4.511   6.792   8.171 -0.2295 -3.0747 -0.9621
    4SAPS  C215  466   4.722   6.773   8.152  0.1401 -0.2468 -0.6639
    4SAPS  H15R  467   4.708   6.809   8.049  0.4136 -1.4215 -1.1196
    4SAPS  C216  468   4.858   6.737   8.217 -0.3226  0.0484  0.2802
    4SAPS  H16R  469   4.904   6.665   8.146 -3.1267 -2.6375  0.9300
    4SAPS  H16S  470   4.852   6.690   8.318 -2.5753 -0.1036  0.1325
    4SAPS  C217  471   4.946   6.866   8.236  0.2885 -0.5905 -0.9692
    4SAPS  H17R  472   5.021   6.835   8.312  1.9259  0.0711 -2.2490
    4SAPS  H17S  473   4.887   6.946   8.286 -2.5282 -2.7034 -0.6384
    4SAPS  C218  474   5.035   6.908   8.119  0.4836  0.0434  0.0106
    4SAPS  H18R  475   5.089   6.815   8.091  1.5677 -0.3246  2.8771
    4SAPS  H18S  476   5.099   6.994   8.151 -0.0551  0.5372 -0.2367
    4SAPS  C219  477   4.953   6.979   8.010 -0.1374  0.2465 -0.5332
    4SAPS  H19R  478   4.891   7.063   8.049 -1.6674 -0.5484 -1.1509
    4SAPS  H19S  479   4.877   6.903   7.983  0.5032 -0.2226 -1.0607
    4SAPS  C220  480   5.039   7.024   7.892 -0.1144  0.2883 -0.5768
    4SAPS  H20R  481   5.073   6.936   7.834 -2.6486 -1.3437  0.2752
    4SAPS  H20S  482   5.122   7.095   7.915 -0.2543  0.1576  0.3409
    4SAPS  H20T  483   4.977   7.084   7.822 -0.4845 -0.2977 -0.7587
    4SAPS   C33  484   3.448   6.005   9.017  0.2865  0.0771  0.2973
    4SAPS   H3X  485   3.358   6.013   9.081  0.8814  1.2385  1.0154
    4SAPS   H3Y  486   3.503   5.911   9.041  0.1616  0.3481  1.7007
    4SAPS   C34  487   3.404   6.039   8.875 -1.3741  0.0279 -0.7848
    4SAPS   H4X  488   3.353   6.136   8.897 -1.4054  0.2084 -1.6269
    4SAPS   H4Y  489   3.347   5.958   8.824  0.5385  0.3717 -3.6191
    4SAPS   C35  490   3.516   6.072   8.779  0.4623  0.6654  0.0967
    4SAPS   H5X  491   3.589   5.988   8.775  0.1639  0.3276  1.2096
    4SAPS   H5Y  492   3.564   6.165   8.816  0.3785  1.0816 -0.8167
    4SAPS   C36  493   3.474   6.086   8.636 -0.3215 -0.0945 -0.2119
    4SAPS   H6X  494   3.407   6.174   8.630  0.2476  0.4356  0.7987
    4SAPS   H6Y  495   3.421   5.994   8.602 -0.9014  0.6414 -1.3434
    4SAPS   C37  496   3.584   6.129   8.533 -0.0333  0.5613  0.5148
    4SAPS   H7X  497   3.628   6.225   8.565  0.8286  0.3195  0.0856
    4SAPS   H7Y  498   3.545   6.137   8.430  0.3145  1.5868  0.4547
    4SAPS   C38  499   3.689   6.020   8.532 -0.2127  1.0345  0.3206
    4SAPS   H8X  500   3.643   5.920   8.514 -2.9361  1.9008  1.8404
    4SAPS   H8Y  501   3.746   6.014   8.626  1.1772 -1.6716 -0.5852
    4SAPS   C39  502   3.790   6.037   8.411 -0.7324  0.3941 -0.6237
    4SAPS   H9X  503   3.866   5.958   8.424  0.8960  2.2586  2.3507
    4SAPS   H9Y  504   3.837   6.137   8.422  2.7812 -1.0755 -1.2233
    4SAPS  C310  505   3.730   6.012   8.276 -0.1165 -0.1886 -0.2346
    4SAPS  H10X  506   3.693   6.111   8.241 -2.4645 -0.3717  1.5175
    4SAPS  H10Y  507   3.636   5.953   8.276 -1.0793  1.2134 -2.7104
    4SAPS  C311  508   3.834   5.973   8.170 -0.1392 -0.5364 -0.4285
    4SAPS  H11X  509   3.912   6.052   8.175 -0.8604  0.1856 -0.5036
    4SAPS  H11Y  510   3.788   5.973   8.068  1.0223 -2.3840 -1.0160
    4SAPS  C312  511   3.894   5.829   8.193  0.4206  0.1770  0.3321
    4SAPS  H12X  512   3.952   5.810   8.286  3.5184 -0.7088 -1.6585
    4SAPS  H12Y  513   3.965   5.810   8.111  0.9152 -0.4144  0.8801
    4SAPS  C313  514   3.789   5.714   8.187 -0.2928 -0.7063 -0.5659
    4SAPS  H13X  515   3.757   5.715   8.081 -0.2307  0.5254 -0.5873
    4SAPS  H13Y  516   3.707   5.747   8.254 -0.1642  4.4815 -2.4608
    4SAPS  C314  517   3.844   5.579   8.226  0.2627 -0.7961  0.9707
    4SAPS  H14X  518   3.872   5.594   8.332 -0.6149  1.2307  0.9500
    4SAPS  H14Y  519   3.933   5.558   8.162 -0.7584  1.8547 -1.5587
    4SAPS  C315  520   3.747   5.464   8.204 -0.1549  0.4069 -0.1871
    4SAPS  H15X  521   3.720   5.443   8.098  1.5773 -1.0219 -0.4057
    4SAPS  H15Y  522   3.657   5.496   8.259 -0.5979  1.2569 -1.3752
    4SAPS  C316  523   3.801   5.328   8.254  0.0361  0.2495 -0.7330
    4SAPS  H16X  524   3.714   5.259   8.261 -2.0321  2.7934  1.0377
    4SAPS  H16Y  525   3.836   5.335   8.359  1.4823 -1.4121 -1.0635
    4SAPS  C317  526   3.906   5.269   8.163  0.0733 -0.4157  0.1781
    4SAPS  H17X  527   3.960   5.186   8.214 -0.6462 -2.0569 -1.6065
    4SAPS  H17Y  528   3.979   5.348   8.134  0.6426 -1.0260 -0.0695
    4SAPS  C318  529   3.838   5.212   8.039 -0.3605 -0.0757 -0.3596
    4SAPS  H18X  530   3.910   5.142   7.991 -0.9791  0.0740 -1.5535
    4SAPS  H18Y  531   3.802   5.290   7.969 -0.9115 -0.2156 -0.2304
    4SAPS  H18Z  532   3.745   5.163   8.074  0.0134 -0.6275 -0.1206
    5SAPS     N  533   6.788   4.279   9.947 -0.3319 -0.3957 -0.0089
    5SAPS   HN1  534   6.802   4.253   9.847 -0.7230 -0.7375  0.0261
    5SAPS   HN2  535   6.862   4.350   9.965 -1.6723  1.0087  0.1363
    5SAPS   HN3  536   6.812   4.193  10.000 -1.6916 -1.8779 -1.6769
    5SAPS   C12  537   6.658   4.346   9.964  0.2888  0.2581 -0.4287
    5SAPS  H12A  538   6.589   4.266   9.939 -1.5241  2.0866 -1.5558
    5SAPS   C13  539   6.631   4.404  10.106  0.0758  0.0485  0.2570
    5SAPS  O13A  540   6.723   4.407  10.197 -0.1767  0.0296 -0.4404
    5SAPS  O13B  541   6.525   4.467  10.130 -0.1308  0.4201  0.4642
    5SAPS   C11  542   6.639   4.459   9.865  0.1541 -1.1994 -0.0274
    5SAPS  H11A  543   6.538   4.500   9.888  0.4515  0.6983 -1.7452
    5SAPS  H11B  544   6.629   4.423   9.760  1.1862 -0.5219 -0.3656
    5SAPS     P  545   6.814   4.643   9.778 -0.0483 -0.0022  0.4218
    5SAPS   O13  546   6.807   4.781   9.821 -0.0257  0.1143  0.2162
    5SAPS   O14  547   6.954   4.592   9.763 -0.1428 -0.2727 -0.0543
    5SAPS   O12  548   6.735   4.563   9.885  0.1353 -0.4540 -0.3471
    5SAPS   O11  549   6.728   4.621   9.649 -0.1238  0.3870  0.1069
    5SAPS    C1  550   6.673   4.720   9.561 -0.1139  0.0316 -0.4578
    5SAPS    HA  551   6.593   4.671   9.501  2.2253 -2.7279 -1.5296
    5SAPS    HB  552   6.631   4.802   9.624  0.0633 -1.5043  1.7677
    5SAPS    C2  553   6.777   4.775   9.461 -0.1002  0.3933 -0.3725
    5SAPS    HS  554   6.855   4.828   9.520  1.1370  0.1349 -1.7325
    5SAPS   O21  555   6.713   4.860   9.366 -0.3831 -0.0216  0.3343
    5SAPS   C21  556   6.670   4.979   9.401  0.1649 -0.1041  0.0248
    5SAPS   O22  557   6.681   5.017   9.515  0.1592  0.0382  0.3480
    5SAPS   C22  558   6.622   5.067   9.280  0.6564  0.8001  0.0619
    5SAPS   H2R  559   6.693   5.043   9.197 -1.5852 -0.1195 -1.7050
    5SAPS   H2S  560   6.521   5.041   9.241 -0.6279 -0.3420  3.7347
    5SAPS    C3  561   6.848   4.663   9.381  0.3779  0.1945  0.1832
    5SAPS    HX  562   6.777   4.591   9.334  1.7318 -1.6298  0.8141
    5SAPS    HY  563   6.899   4.601   9.458  0.5719 -2.1624 -1.7297
    5SAPS   O31  564   6.934   4.710   9.279 -0.8830  0.1631  0.3699
    5SAPS   C31  565   7.061   4.664   9.282  0.7715 -0.7178  0.2376
    5SAPS   O32  566   7.122   4.607   9.376  0.3130 -0.1479  0.0732
    5SAPS   C32  567   7.131   4.702   9.154  0.0890 -0.8649  0.8749
    5SAPS   H2X  568   7.241   4.706   9.171  0.4581 -1.3921 -1.1042
    5SAPS   H2Y  569   7.105   4.807   9.128  0.4745 -0.6586  1.3109
    5SAPS   C23  570   6.619   5.223   9.322 -0.2584  0.7390 -0.0890
    5SAPS   H3R  571   6.721   5.242   9.360  0.0164 -1.5406  0.4917
    5SAPS   H3S  572   6.538   5.246   9.395  0.5241  0.1341  0.9931
    5SAPS   C24  573   6.606   5.314   9.197  0.6522  0.3984 -0.0508
    5SAPS   H4R  574   6.683   5.286   9.122 -0.7973  2.2902 -2.4090
    5SAPS   H4S  575   6.607   5.417   9.240  0.2786 -0.3439  1.7998
    5SAPS   C25  576   6.468   5.287   9.140  0.2717  0.2429 -0.2047
    5SAPS   H5R  577   6.393   5.291   9.221  1.1476  0.6557  0.6119
    5SAPS   C26  578   6.424   5.257   9.018  0.5509 -0.4660 -0.2420
    5SAPS   H6R  579   6.316   5.238   9.007  0.4911  0.2677 -1.0045
    5SAPS   C27  580   6.499   5.244   8.890  0.8833 -0.5200  0.0254
    5SAPS   H7R  581   6.570   5.330   8.883 -0.0931  0.3259  0.1275
    5SAPS   H7S  582   6.424   5.254   8.808 -0.0455 -1.5760  0.7194
    5SAPS   C28  583   6.578   5.115   8.852  0.6953 -0.8014  0.3139
    5SAPS   H8R  584   6.668   5.098   8.914 -0.4290  1.5932  2.8229
    5SAPS   C29  585   6.555   5.038   8.744 -0.4070  0.6799 -0.3321
    5SAPS   H9R  586   6.638   4.966   8.739  0.5186  1.6625  0.3567
    5SAPS  C210  587   6.454   5.034   8.631 -0.1784  0.1137 -0.2252
    5SAPS  H10R  588   6.511   5.060   8.539  2.1933 -0.8538  0.8745
    5SAPS  H10S  589   6.384   5.116   8.657  1.9752  2.4244 -1.2357
    5SAPS  C211  590   6.382   4.906   8.622  0.0293  0.1753 -0.6435
    5SAPS  H11R  591   6.290   4.906   8.682 -3.3765  0.4612 -5.2943
    5SAPS  C212  592   6.413   4.797   8.554  0.1802 -0.1202  0.1975
    5SAPS  H12R  593   6.350   4.707   8.561 -0.6622  0.5224  1.2565
    5SAPS  C213  594   6.537   4.769   8.467 -0.0934 -1.2154  0.0147
    5SAPS  H13R  595   6.580   4.862   8.424  2.0139 -2.6022 -1.0322
    5SAPS  H13S  596   6.501   4.713   8.379 -0.5968 -0.0552 -0.5411
    5SAPS  C214  597   6.655   4.708   8.537  0.1331 -0.4086 -0.6034
    5SAPS  H14R  598   6.646   4.722   8.645 -1.1290  2.6933 -0.9909
    5SAPS  C215  599   6.746   4.629   8.477 -0.0093 -1.0295  0.1956
    5SAPS  H15R  600   6.827   4.591   8.541 -0.7146 -1.5474  0.7890
    5SAPS  C216  601   6.759   4.599   8.333 -0.6970  0.2392 -0.0659
    5SAPS  H16R  602   6.673   4.636   8.273 -2.4568 -1.5926  1.1780
    5SAPS  H16S  603   6.756   4.488   8.331 -2.3247  0.2181  1.2603
    5SAPS  C217  604   6.889   4.645   8.266  0.4876  0.1448  0.0028
    5SAPS  H17R  605   6.978   4.624   8.329  0.2984 -2.1316 -0.4115
    5SAPS  H17S  606   6.900   4.755   8.258  0.6495  0.0526 -1.3309
    5SAPS  C218  607   6.912   4.578   8.127  0.0485  0.0932  0.3155
    5SAPS  H18R  608   6.901   4.467   8.137 -0.1392  0.2166  1.7387
    5SAPS  H18S  609   6.822   4.601   8.065 -0.6034 -1.7727  0.4965
    5SAPS  C219  610   7.038   4.631   8.066 -0.9975  0.5376  0.2781
    5SAPS  H19R  611   7.122   4.601   8.133 -0.2894  0.7141 -0.5057
    5SAPS  H19S  612   7.040   4.742   8.074  3.2056  0.5668  1.5610
    5SAPS  C220  613   7.058   4.589   7.917 -0.1885 -0.4457 -0.1529
    5SAPS  H20R  614   7.086   4.483   7.901 -1.7852 -0.8602 -0.3553
    5SAPS  H20S  615   7.139   4.646   7.867 -0.1358  0.3917  0.8479
    5SAPS  H20T  616   6.962   4.610   7.866 -0.2612  0.4065  0.3209
    5SAPS   C33  617   7.092   4.622   9.023 -0.0175 -0.1556  0.1778
    5SAPS   H3X  618   6.982   4.606   9.024 -0.1242 -0.2440 -2.9796
    5SAPS   H3Y  619   7.138   4.521   9.027 -0.5843 -0.4775 -0.9494
    5SAPS   C34  620   7.126   4.696   8.894 -0.0339 -0.5689  0.6791
    5SAPS   H4X  621   7.077   4.795   8.906  1.2003  0.1308  0.1692
    5SAPS   H4Y  622   7.100   4.658   8.793 -0.1785 -1.5671  1.0808
    5SAPS   C35  623   7.274   4.737   8.878 -0.1627  0.5125  0.0357
    5SAPS   H5X  624   7.304   4.767   8.981 -3.3518  0.3999  1.0861
    5SAPS   H5Y  625   7.301   4.822   8.812  2.7248 -0.4511 -0.1707
    5SAPS   C36  626   7.354   4.617   8.823  0.0724 -0.0582 -0.0070
    5SAPS   H6X  627   7.332   4.529   8.887  2.6577 -1.3766 -0.7597
    5SAPS   H6Y  628   7.464   4.635   8.830  0.1784 -0.9106  0.6223
    5SAPS   C37  629   7.332   4.576   8.673 -0.5213  0.5775 -1.1157
    5SAPS   H7X  630   7.228   4.537   8.664 -0.8012  1.4766 -1.9559
    5SAPS   H7Y  631   7.398   4.488   8.662  3.4520  3.4104 -2.2197
    5SAPS   C38  632   7.356   4.685   8.572 -0.2837  0.0935 -0.8148
    5SAPS   H8X  633   7.460   4.722   8.577 -0.1946 -0.2637  0.3483
    5SAPS   H8Y  634   7.301   4.777   8.598  0.7694  0.0774  1.7710
    5SAPS   C39  635   7.324   4.633   8.432  0.0214 -0.3486 -0.0975
    5SAPS   H9X  636   7.219   4.599   8.440 -1.0698  2.9773  1.8220
    5SAPS   H9Y  637   7.395   4.548   8.420 -0.1473 -0.5012 -0.0127
    5SAPS  C310  638   7.341   4.738   8.323 -0.0544 -0.1131  0.1175
    5SAPS  H10X  639   7.323   4.840   8.361 -1.6225 -0.5534  0.6001
    5SAPS  H10Y  640   7.265   4.713   8.246 -2.6641  0.3308  2.4314
    5SAPS  C311  641   7.478   4.742   8.260 -0.3916  0.6268 -0.6653
    5SAPS  H11X  642   7.494   4.641   8.217 -3.2768 -0.3724  0.4127
    5SAPS  H11Y  643   7.557   4.764   8.336 -0.5313 -0.2294 -0.2596
    5SAPS  C312  644   7.479   4.853   8.153 -0.7371 -0.2936  0.1398
    5SAPS  H12X  645   7.452   4.943   8.213 -2.0475  0.3852 -1.4209
    5SAPS  H12Y  646   7.395   4.836   8.083  0.2851  0.7099 -1.4012
    5SAPS  C313  647   7.612   4.866   8.072  0.4605  0.6923  0.1101
    5SAPS  H13X  648   7.622   4.774   8.011  1.7318  1.4444 -0.8839
    5SAPS  H13Y  649   7.704   4.870   8.134 -0.1046  1.4199  0.9282
    5SAPS  C314  650   7.617   4.985   7.972 -0.7101  0.5385  0.3683
    5SAPS  H14X  651   7.719   4.986   7.928  0.1614 -1.5695  2.1257
    5SAPS  H14Y  652   7.602   5.077   8.033 -1.3539  2.1550 -2.0993
    5SAPS  C315  653   7.513   4.980   7.860  0.6373  0.0121  0.3965
    5SAPS  H15X  654   7.420   4.956   7.915  0.2905  1.0114  0.2637
    5SAPS  H15Y  655   7.535   4.899   7.787  0.3428 -1.6158  2.0582
    5SAPS  C316  656   7.519   5.111   7.783 -0.7254 -0.3704 -0.2662
    5SAPS  H16X  657   7.624   5.133   7.755 -1.0047  1.5497  0.0130
    5SAPS  H16Y  658   7.485   5.188   7.856 -0.5918  0.9939 -1.5853
    5SAPS  C317  659   7.427   5.120   7.660 -0.2826  0.0653 -0.4707
    5SAPS  H17X  660   7.327   5.123   7.708  0.2524  1.3761  0.6355
    5SAPS  H17Y  661   7.436   5.025   7.602 -2.4989 -2.2943  2.6898
    5SAPS  C318  662   7.437   5.244   7.573  0.4407  0.4598 -0.4157
    5SAPS  H18X  663   7.363   5.244   7.491 -2.4570 -0.0584  2.0375
    5SAPS  H18Y  664   7.542   5.233   7.536  0.7534  0.4192  0.4640
    5SAPS  H18Z  665   7.439   5.338   7.631 -0.6742  0.8207 -0.9320
    6SAPS     N  666   6.863   3.814  10.048 -0.1341 -0.4652  0.4366
    6SAPS   HN1  667   6.855   3.710  10.041 -3.3394 -0.3458  0.7182
    6SAPS   HN2  668   6.901   3.830  10.144 -2.4640  0.0482  1.3512
    6SAPS   HN3  669   6.768   3.856  10.046  0.3517  0.6724  0.7648
    6SAPS   C12  670   6.947   3.881   9.951 -0.4490  0.8311  0.4101
    6SAPS  H12A  671   6.907   3.872   9.851  0.8772  1.6988 -0.2177
    6SAPS   C13  672   6.973   4.035   9.970  0.1341  0.2839  0.3791
    6SAPS  O13A  673   6.921   4.082  10.070  0.7417 -0.4038 -0.2462
    6SAPS  O13B  674   7.005   4.106   9.872  0.1102 -0.5382  0.1180
    6SAPS   C11  675   7.088   3.804   9.953  0.7119 -0.0347  0.5481
    6SAPS  H11A  676   7.137   3.824  10.051  0.2335  2.5506  0.3244
    6SAPS  H11B  677   7.150   3.864   9.882 -2.1054  1.5807 -0.7291
    6SAPS     P  678   7.060   3.598   9.785  0.5144 -0.3102  0.1805
    6SAPS   O13  679   7.189   3.558   9.729 -0.1012  0.3356 -0.2644
    6SAPS   O14  680   6.959   3.495   9.797 -0.1615  0.0578 -0.2823
    6SAPS   O12  681   7.079   3.658   9.925 -0.0910  0.4920 -0.4467
    6SAPS   O11  682   6.996   3.722   9.708 -0.7489  0.3747 -0.3166
    6SAPS    C1  683   6.953   3.713   9.575  0.3894 -0.0166  0.1138
    6SAPS    HA  684   7.013   3.636   9.523  3.7229  2.9747 -0.9184
    6SAPS    HB  685   6.843   3.696   9.573  0.4231 -0.1824 -0.7196
    6SAPS    C2  686   6.990   3.842   9.489  0.4033  0.3616 -0.4890
    6SAPS    HS  687   6.891   3.892   9.484 -0.4554 -1.2483 -0.2900
    6SAPS   O21  688   7.040   3.811   9.358 -0.0191 -0.5132 -0.9075
    6SAPS   C21  689   6.970   3.720   9.287  0.4224  0.2803  0.0217
    6SAPS   O22  690   6.860   3.680   9.318 -0.0826  0.2831 -0.5671
    6SAPS   C22  691   7.050   3.683   9.162 -0.4973 -0.2698  0.5422
    6SAPS   H2R  692   6.977   3.682   9.078  0.1446 -0.5718 -0.0139
    6SAPS   H2S  693   7.119   3.768   9.142 -0.1449 -0.8468 -0.8227
    6SAPS    C3  694   7.082   3.947   9.556  0.0430  0.5949 -0.8075
    6SAPS    HX  695   7.183   3.903   9.574 -1.3143 -1.7497  2.0774
    6SAPS    HY  696   7.036   3.970   9.655 -2.9171  0.8182 -2.1228
    6SAPS   O31  697   7.073   4.069   9.480  0.6873 -0.4604 -0.0433
    6SAPS   C31  698   7.186   4.094   9.410 -0.4348  0.2553  0.7392
    6SAPS   O32  699   7.288   4.022   9.401  0.5901  0.4185 -0.2379
    6SAPS   C32  700   7.174   4.236   9.348 -1.0258 -0.1046  0.1548
    6SAPS   H2X  701   7.250   4.300   9.397 -0.7568 -0.2274 -0.1045
    6SAPS   H2Y  702   7.070   4.276   9.361 -0.7696  0.4335  0.6267
    6SAPS   C23  703   7.132   3.554   9.167 -0.0593  0.0534  0.0346
    6SAPS   H3R  704   7.073   3.471   9.212  0.7235  0.2087  1.4074
    6SAPS   H3S  705   7.209   3.567   9.246 -1.1005 -0.0768  1.1000
    6SAPS   C24  706   7.190   3.493   9.040  0.3209  0.1558  0.5927
    6SAPS   H4R  707   7.096   3.479   8.982 -0.6333  1.4005  1.7840
    6SAPS   H4S  708   7.221   3.387   9.055  1.2602 -0.1401 -2.6584
    6SAPS   C25  709   7.303   3.577   8.979  0.0649  0.3128 -0.3376
    6SAPS   H5R  710   7.381   3.603   9.052 -1.3592  0.0133  1.3561
    6SAPS   C26  711   7.290   3.645   8.862 -0.1592 -0.5357 -0.3641
    6SAPS   H6R  712   7.377   3.706   8.836  1.3107 -2.3109  0.2123
    6SAPS   C27  713   7.171   3.646   8.768  0.1734  0.4626  0.4021
    6SAPS   H7R  714   7.081   3.620   8.828  1.0095 -3.4309  0.2392
    6SAPS   H7S  715   7.177   3.575   8.683  1.8459 -1.2317  1.8342
    6SAPS   C28  716   7.142   3.789   8.723  0.0514 -0.5046  1.0155
    6SAPS   H8R  717   7.126   3.863   8.803  1.6285  0.5795  0.3768
    6SAPS   C29  718   7.133   3.838   8.599  0.0048  0.6761 -0.2714
    6SAPS   H9R  719   7.100   3.942   8.583 -0.3121  0.7669  0.8822
    6SAPS  C210  720   7.145   3.741   8.483 -0.2942  0.3904 -0.3468
    6SAPS  H10R  721   7.059   3.672   8.472  0.0593 -0.0234 -0.5529
    6SAPS  H10S  722   7.230   3.672   8.505 -0.3903  0.6594  1.0078
    6SAPS  C211  723   7.173   3.826   8.362  0.4540 -0.4331 -0.0325
    6SAPS  H11R  724   7.246   3.909   8.372  0.0072 -0.1502  0.9917
    6SAPS  C212  725   7.119   3.805   8.238 -0.2624 -0.2236 -0.7394
    6SAPS  H12R  726   7.131   3.878   8.157  2.4830 -1.1545 -1.2787
    6SAPS  C213  727   7.034   3.687   8.198  0.4685  0.3040  0.2205
    6SAPS  H13R  728   7.028   3.608   8.277  0.2966 -2.1173 -2.0627
    6SAPS  H13S  729   7.073   3.632   8.110  1.0578 -2.7267  2.2167
    6SAPS  C214  730   6.896   3.740   8.179  0.5413  0.2800 -0.1069
    6SAPS  H14R  731   6.872   3.832   8.234 -0.2763  0.2247 -0.3540
    6SAPS  C215  732   6.801   3.702   8.084 -0.7113  0.3973 -0.1574
    6SAPS  H15R  733   6.705   3.755   8.092 -0.1634  1.2926  0.7268
    6SAPS  C216  734   6.817   3.592   7.983  0.4461 -0.1829 -0.0760
    6SAPS  H16R  735   6.805   3.493   8.031 -0.4659 -0.4076 -0.7452
    6SAPS  H16S  736   6.921   3.597   7.945  0.6786  0.5684  0.6491
    6SAPS  C217  737   6.719   3.594   7.870  0.8307 -0.3070 -0.8208
    6SAPS  H17R  738   6.724   3.693   7.820 -1.1575  0.7193  0.8648
    6SAPS  H17S  739   6.619   3.602   7.919  0.7783 -1.5205 -0.6870
    6SAPS  C218  740   6.720   3.478   7.779  0.3962  0.3814 -0.1306
    6SAPS  H18R  741   6.645   3.469   7.697  2.0269 -2.6167 -1.4465
    6SAPS  H18S  742   6.708   3.379   7.827  0.1528 -0.6787 -2.2595
    6SAPS  C219  743   6.859   3.431   7.715 -0.1176  0.2608 -0.1769
    6SAPS  H19R  744   6.837   3.343   7.650 -1.5778 -0.1109  0.7703
    6SAPS  H19S  745   6.935   3.414   7.794  1.1787  2.1106 -0.9253
    6SAPS  C220  746   6.923   3.543   7.626  0.1458 -0.2165 -0.2373
    6SAPS  H20R  747   6.928   3.647   7.667 -0.8606 -0.1231 -0.3456
    6SAPS  H20S  748   6.863   3.559   7.534 -1.4193 -1.7144  0.4757
    6SAPS  H20T  749   7.029   3.521   7.602  0.4009  1.3277 -0.6837
    6SAPS   C33  750   7.190   4.242   9.193  0.0917  0.4673  0.5307
    6SAPS   H3X  751   7.147   4.337   9.155 -0.5504  0.0912  0.2933
    6SAPS   H3Y  752   7.129   4.162   9.144  0.0340  1.3403 -0.8860
    6SAPS   C34  753   7.330   4.241   9.138 -0.6353  0.0721  0.6811
    6SAPS   H4X  754   7.393   4.278   9.221  0.9236  2.5910 -1.4639
    6SAPS   H4Y  755   7.352   4.315   9.058  0.1584 -0.9756 -0.0954
    6SAPS   C35  756   7.372   4.098   9.092 -0.2790  0.4694  0.3753
    6SAPS   H5X  757   7.310   4.017   9.137 -2.1023  1.6703  0.1570
    6SAPS   H5Y  758   7.476   4.064   9.110 -0.7622 -1.9138 -0.8542
    6SAPS   C36  759   7.348   4.075   8.945  0.1553  0.1056 -0.3209
    6SAPS   H6X  760   7.246   4.116   8.935  0.1578  0.6140  1.4370
    6SAPS   H6Y  761   7.340   3.966   8.926 -1.6515  0.3825 -1.3277
    6SAPS   C37  762   7.445   4.138   8.846  0.3205 -0.0198 -0.4667
    6SAPS   H7X  763   7.546   4.093   8.859  0.2207 -0.4816 -1.2858
    6SAPS   H7Y  764   7.447   4.249   8.859 -2.6480  0.1857 -1.0557
    6SAPS   C38  765   7.396   4.104   8.706  0.0468  0.7799  0.5407
    6SAPS   H8X  766   7.289   4.125   8.687 -0.3866 -2.1723 -0.7902
    6SAPS   H8Y  767   7.412   3.995   8.693  0.0090  0.9023 -0.5865
    6SAPS   C39  768   7.476   4.168   8.590 -0.2355 -0.0275 -0.5724
    6SAPS   H9X  769   7.579   4.128   8.584 -0.0948 -0.1582  1.9508
    6SAPS   H9Y  770   7.484   4.272   8.627 -0.8816 -0.2604  0.2522
    6SAPS  C310  771   7.429   4.173   8.441  0.3341  0.1234  0.3909
    6SAPS  H10X  772   7.413   4.069   8.406 -1.2018 -0.0591  1.5411
    6SAPS  H10Y  773   7.506   4.231   8.385  0.3694 -1.2660 -1.0664
    6SAPS  C311  774   7.297   4.244   8.412 -0.2135  0.3991 -0.3303
    6SAPS  H11X  775   7.278   4.331   8.478  0.1915 -0.1558  0.5365
    6SAPS  H11Y  776   7.213   4.178   8.442  1.8348 -2.1373  0.1448
    6SAPS  C312  777   7.285   4.281   8.262 -0.7019 -0.2103 -0.1893
    6SAPS  H12X  778   7.374   4.341   8.235  0.3933 -1.1452  1.2170
    6SAPS  H12Y  779   7.190   4.337   8.247 -0.0526  0.1879 -3.5346
    6SAPS  C313  780   7.288   4.156   8.171  0.2306 -0.0703  0.0226
    6SAPS  H13X  781   7.206   4.082   8.183  1.5833 -2.0914 -2.3181
    6SAPS  H13Y  782   7.387   4.105   8.169  1.5105  2.3048 -0.8404
    6SAPS  C314  783   7.276   4.203   8.025 -0.2322  0.7418  0.1235
    6SAPS  H14X  784   7.347   4.288   8.020  0.0884  0.5169  0.7175
    6SAPS  H14Y  785   7.181   4.255   8.003  0.0816  0.8571 -1.0445
    6SAPS  C315  786   7.325   4.095   7.915 -0.1746  0.5946 -0.5755
    6SAPS  H15X  787   7.412   4.038   7.952 -1.0785  0.0271  0.7595
    6SAPS  H15Y  788   7.344   4.154   7.822 -1.8577 -0.7216 -1.8137
    6SAPS  C316  789   7.223   3.986   7.893  0.2659  0.2210  0.5013
    6SAPS  H16X  790   7.147   4.024   7.822  0.5551 -0.9734 -0.4987
    6SAPS  H16Y  791   7.159   3.946   7.975  0.4695 -1.7382 -0.2329
    6SAPS  C317  792   7.286   3.859   7.829  0.0849 -0.2183 -0.0419
    6SAPS  H17X  793   7.341   3.816   7.915  1.2837  2.5067  0.6368
    6SAPS  H17Y  794   7.356   3.887   7.747 -0.7351 -3.9246 -2.2598
    6SAPS  C318  795   7.178   3.772   7.780 -0.1403 -0.4648  0.0449
    6SAPS  H18X  796   7.218   3.671   7.756 -1.0492 -0.3500 -2.2188
    6SAPS  H18Y  797   7.122   3.821   7.697 -1.6792 -1.8287  0.2226
    6SAPS  H18Z  798   7.099   3.763   7.857 -1.8189  1.4780 -1.3218
    7SAPS     N  799   2.281   6.982   9.881 -0.3247 -0.7627  0.1069
    7SAPS   HN1  800   2.253   6.968   9.980 -2.1343 -1.9376 -0.5347
    7SAPS   HN2  801   2.360   7.050   9.889 -1.7317  0.9835 -0.0710
    7SAPS   HN3  802   2.203   7.025   9.827 -0.0988 -0.3142  0.1301
    7SAPS   C12  803   2.323   6.852   9.822 -0.2560  0.7541  0.2617
    7SAPS  H12A  804   2.317   6.862   9.715 -0.3237 -1.6911  0.0000
    7SAPS   C13  805   2.463   6.799   9.874 -0.2794 -0.1036  0.0817
    7SAPS  O13A  806   2.538   6.882   9.929  0.0068  0.0781 -0.2858
    7SAPS  O13B  807   2.502   6.682   9.843 -0.8088  0.6636 -0.1025
    7SAPS   C11  808   2.219   6.741   9.852  0.2372  0.5256  0.0937
    7SAPS  H11A  809   2.213   6.720   9.961 -2.2156  2.3877  0.4379
    7SAPS  H11B  810   2.253   6.641   9.820 -0.4094 -0.5670  2.5821
    7SAPS     P  811   1.960   6.690   9.818  0.0557 -0.3052 -0.2310
    7SAPS   O13  812   1.963   6.637   9.958 -0.1975 -0.3878  0.3316
    7SAPS   O14  813   1.848   6.781   9.784 -0.7986 -0.3572 -0.3290
    7SAPS   O12  814   2.092   6.776   9.796  0.0587  0.5119  0.0163
    7SAPS   O11  815   1.977   6.577   9.711  1.0092 -0.0027 -0.1398
    7SAPS    C1  816   2.042   6.592   9.587 -0.3541 -0.8516 -0.3351
    7SAPS    HA  817   2.102   6.685   9.583 -1.3783 -0.1783 -0.3307
    7SAPS    HB  818   2.118   6.511   9.593  0.1146 -0.3301  1.2107
    7SAPS    C2  819   1.953   6.574   9.459  0.0475 -0.1396 -0.5129
    7SAPS    HS  820   1.886   6.488   9.481 -0.1816  0.2413  0.3264
    7SAPS   O21  821   2.040   6.556   9.345  0.3921  0.4685 -0.0307
    7SAPS   C21  822   1.995   6.473   9.255  0.1616  0.0301 -0.6150
    7SAPS   O22  823   1.900   6.399   9.272 -0.9756 -1.1615 -0.3136
    7SAPS   C22  824   2.084   6.481   9.135 -0.5716  0.8780 -0.2137
    7SAPS   H2R  825   2.181   6.517   9.175  0.4234 -2.1626  0.3915
    7SAPS   H2S  826   2.094   6.371   9.117 -0.6522  0.8279  0.0501
    7SAPS    C3  827   1.879   6.708   9.442 -0.0442 -0.0854 -0.2802
    7SAPS    HX  828   1.955   6.788   9.434 -1.0465  0.8990 -0.1099
    7SAPS    HY  829   1.810   6.733   9.526 -1.0775  0.2161 -1.1982
    7SAPS   O31  830   1.802   6.698   9.327 -0.0171  0.1329  0.2917
    7SAPS   C31  831   1.691   6.627   9.331 -0.0445 -0.7407 -0.4092
    7SAPS   O32  832   1.638   6.579   9.428 -0.5448  0.1622 -0.3210
    7SAPS   C32  833   1.621   6.633   9.195  0.1782  0.3849  0.2310
    7SAPS   H2X  834   1.698   6.671   9.124  0.1115 -0.0235 -0.0668
    7SAPS   H2Y  835   1.542   6.711   9.203 -0.5686 -0.3863  0.5541
    7SAPS   C23  836   2.031   6.552   9.011 -0.1960  0.9988 -0.0462
    7SAPS   H3R  837   1.928   6.519   8.983 -0.1094  1.8681 -1.5286
    7SAPS   H3S  838   2.106   6.549   8.929  2.5569  0.6974  2.3593
    7SAPS   C24  839   2.017   6.702   9.037 -0.7117  0.0941 -0.3396
    7SAPS   H4R  840   2.124   6.729   9.054  0.0121 -2.6807  0.0737
    7SAPS   H4S  841   1.950   6.721   9.124 -0.0724  1.3566 -0.0969
    7SAPS   C25  842   1.963   6.773   8.914 -0.1445 -0.4877 -0.5800
    7SAPS   H5R  843   1.854   6.775   8.902 -0.2667  0.6496  0.4694
    7SAPS   C26  844   2.041   6.824   8.812 -0.4122 -0.6367 -0.2452
    7SAPS   H6R  845   1.997   6.879   8.728 -0.4390 -1.1373 -0.5633
    7SAPS   C27  846   2.191   6.827   8.800 -0.6015  0.6959  0.1113
    7SAPS   H7R  847   2.212   6.791   8.697  0.9648  0.5631  0.4483
    7SAPS   H7S  848   2.232   6.753   8.873  1.8920  0.0043 -1.8511
    7SAPS   C28  849   2.256   6.960   8.823 -0.4697 -0.1304 -0.6921
    7SAPS   H8R  850   2.289   6.971   8.927 -0.1198 -0.3233 -0.7806
    7SAPS   C29  851   2.265   7.060   8.730  0.3763  0.0588  0.1129
    7SAPS   H9R  852   2.330   7.143   8.760  2.7427 -2.1456  1.4515
    7SAPS  C210  853   2.188   7.061   8.606  0.3907  0.4680 -0.4201
    7SAPS  H10R  854   2.124   7.150   8.617  1.4559  1.1105  0.8872
    7SAPS  H10S  855   2.132   6.967   8.590  0.1287  0.5401  0.0864
    7SAPS  C211  856   2.279   7.083   8.488  0.3099  0.4314  0.0768
    7SAPS  H11R  857   2.377   7.126   8.513  1.1837 -1.5471  0.2405
    7SAPS  C212  858   2.252   7.054   8.359 -0.2572 -0.1771  0.3552
    7SAPS  H12R  859   2.338   7.071   8.293  0.5280 -1.6136  0.9807
    7SAPS  C213  860   2.126   7.004   8.295  0.3791  0.7418 -0.1896
    7SAPS  H13R  861   2.042   6.988   8.365  0.3607 -0.1728 -0.4064
    7SAPS  H13S  862   2.142   6.916   8.229  1.2144  0.4147  0.4253
    7SAPS  C214  863   2.065   7.115   8.228  0.0707 -0.0990  0.2760
    7SAPS  H14R  864   2.053   7.207   8.289  0.4516 -0.5803  1.0933
    7SAPS  C215  865   2.006   7.118   8.105  0.2810 -0.4581  0.1696
    7SAPS  H15R  866   1.965   7.212   8.067  2.3629  0.2921 -0.3896
    7SAPS  C216  867   2.002   7.002   8.007  0.3132 -0.5271  0.2003
    7SAPS  H16R  868   2.091   6.936   8.014 -0.7450 -2.1086 -0.6242
    7SAPS  H16S  869   2.007   7.039   7.902  0.6400 -1.9355 -0.3111
    7SAPS  C217  870   1.861   6.936   8.015 -0.2535 -0.0991 -0.1240
    7SAPS  H17R  871   1.783   7.014   8.016  2.0367  2.3608  2.4152
    7SAPS  H17S  872   1.862   6.884   8.113  1.6209 -0.5431 -0.3274
    7SAPS  C218  873   1.834   6.821   7.916  0.4000  0.3308 -0.4119
    7SAPS  H18R  874   1.728   6.790   7.922  0.1989  1.1592  0.4761
    7SAPS  H18S  875   1.897   6.731   7.933  0.2039  0.1768 -0.5029
    7SAPS  C219  876   1.857   6.851   7.766  0.0502 -0.5303  0.3321
    7SAPS  H19R  877   1.840   6.752   7.719 -0.9654 -0.4750  0.5677
    7SAPS  H19S  878   1.963   6.875   7.745 -0.2033 -0.8803 -1.4864
    7SAPS  C220  879   1.768   6.955   7.706 -0.1195 -0.3237 -0.4282
    7SAPS  H20R  880   1.807   6.975   7.604  1.0904 -1.4660 -0.2125
    7SAPS  H20S  881   1.777   7.049   7.765  2.4788  0.5663 -2.0439
    7SAPS  H20T  882   1.666   6.911   7.711 -0.4791  0.5047 -0.3785
    7SAPS   C33  883   1.566   6.497   9.159  0.7272  0.2704  0.4906
    7SAPS   H3X  884   1.476   6.481   9.223  0.8271 -0.9225  0.3672
    7SAPS   H3Y  885   1.642   6.419   9.183 -0.5907 -1.4078 -0.5360
    7SAPS   C34  886   1.533   6.471   9.008  0.0618  0.2636  0.4349
    7SAPS   H4X  887   1.452   6.533   8.965 -1.1780 -1.1177  0.7128
    7SAPS   H4Y  888   1.504   6.364   9.008  3.2881 -0.8176 -2.8560
    7SAPS   C35  889   1.664   6.493   8.924 -0.5500 -0.0868 -0.0096
    7SAPS   H5X  890   1.745   6.449   8.985  0.8736  1.6976 -0.5478
    7SAPS   H5Y  891   1.692   6.600   8.917 -0.8549 -0.0866 -1.8414
    7SAPS   C36  892   1.660   6.410   8.792  0.3346 -0.4835 -0.0782
    7SAPS   H6X  893   1.564   6.417   8.737 -0.3518 -0.5855  1.0995
    7SAPS   H6Y  894   1.680   6.305   8.820 -2.4233 -1.3110 -0.9382
    7SAPS   C37  895   1.767   6.445   8.690 -0.4248  0.2932 -0.3477
    7SAPS   H7X  896   1.764   6.361   8.617 -0.5678  1.7583 -2.1086
    7SAPS   H7Y  897   1.865   6.446   8.742 -0.5169  0.4488 -0.1756
    7SAPS   C38  898   1.737   6.581   8.619 -0.2229 -0.6565  0.2025
    7SAPS   H8X  899   1.704   6.651   8.699  2.8900  1.2199  0.0317
    7SAPS   H8Y  900   1.659   6.570   8.540  0.9029 -1.0271 -0.8822
    7SAPS   C39  901   1.852   6.646   8.540  0.3026  0.0706  0.1791
    7SAPS   H9X  902   1.936   6.667   8.609  0.5220 -1.5740  0.4658
    7SAPS   H9Y  903   1.807   6.743   8.510 -3.8281 -1.1447  1.7095
    7SAPS  C310  904   1.888   6.573   8.409 -0.2551  0.0971  0.0158
    7SAPS  H10X  905   1.800   6.560   8.343 -0.5338  4.1554 -0.7087
    7SAPS  H10Y  906   1.935   6.478   8.440 -0.4133  0.1090  0.2927
    7SAPS  C311  907   2.015   6.625   8.343  0.2270  0.3809 -0.0441
    7SAPS  H11X  908   2.097   6.620   8.417  1.2573 -0.9096 -1.2296
    7SAPS  H11Y  909   1.997   6.733   8.327 -1.7666  0.0408 -0.3767
    7SAPS  C312  910   2.049   6.540   8.212 -0.1779  0.0348 -0.4400
    7SAPS  H12X  911   1.960   6.539   8.146  0.5862  0.2486 -1.4988
    7SAPS  H12Y  912   2.085   6.438   8.239 -0.0433  0.0579 -0.5254
    7SAPS  C313  913   2.169   6.609   8.143 -0.0812  0.7161  0.3941
    7SAPS  H13X  914   2.262   6.609   8.204  0.0518 -2.2148  0.3176
    7SAPS  H13Y  915   2.141   6.713   8.115  1.7951  0.3467 -3.6506
    7SAPS  C314  916   2.213   6.534   8.014  0.5113  0.5743 -0.2809
    7SAPS  H14X  917   2.119   6.496   7.969 -0.6821  0.9161  1.8021
    7SAPS  H14Y  918   2.275   6.446   8.042 -1.1750 -0.9328 -1.1259
    7SAPS  C315  919   2.299   6.623   7.919 -0.3228 -0.0473  0.7441
    7SAPS  H15X  920   2.390   6.652   7.976  1.0759  0.4102 -1.6095
    7SAPS  H15Y  921   2.234   6.711   7.897 -1.6173 -1.4537 -1.5550
    7SAPS  C316  922   2.341   6.567   7.785  0.0669  0.0449 -0.8257
    7SAPS  H16X  923   2.254   6.526   7.730 -0.7076  1.0911 -0.4026
    7SAPS  H16Y  924   2.402   6.480   7.818  1.9306  1.5493 -0.1150
    7SAPS  C317  925   2.425   6.655   7.702 -0.4890  0.4973 -0.7022
    7SAPS  H17X  926   2.505   6.711   7.753  0.1634 -0.7219 -0.3604
    7SAPS  H17Y  927   2.356   6.733   7.662 -0.3148  0.5046 -0.9858
    7SAPS  C318  928   2.499   6.580   7.582  0.4823  0.6430  0.6788
    7SAPS  H18X  929   2.431   6.506   7.535 -0.8501  3.7953 -2.7381
    7SAPS  H18Y  930   2.590   6.528   7.620  1.8727  3.0441  0.8117
    7SAPS  H18Z  931   2.537   6.655   7.510  1.0539  0.6140  0.9382
    8SAPS     N  932   6.352   6.446   9.323 -0.0071 -0.0616  0.2020
    8SAPS   HN1  933   6.437   6.494   9.287 -0.1747 -0.7750 -1.2365
    8SAPS   HN2  934   6.333   6.354   9.278 -0.8665 -0.4245  1.2705
    8SAPS   HN3  935   6.266   6.503   9.309  0.6013  0.4845 -1.6334
    8SAPS   C12  936   6.388   6.416   9.465  0.7884 -0.4354  0.4030
    8SAPS  H12A  937   6.481   6.361   9.457  0.5845 -0.7381  0.0964
    8SAPS   C13  938   6.405   6.552   9.544  0.1276  0.5974  0.6199
    8SAPS  O13A  939   6.368   6.662   9.489  0.2828  0.1739  0.0937
    8SAPS  O13B  940   6.458   6.550   9.656  0.4707  0.2471 -0.7650
    8SAPS   C11  941   6.273   6.342   9.536 -0.6800  0.3051 -0.1536
    8SAPS  H11A  942   6.182   6.405   9.526  1.2186  3.2138 -0.3689
    8SAPS  H11B  943   6.295   6.350   9.644 -0.5740  2.0950 -0.2776
    8SAPS     P  944   6.166   6.112   9.570  0.2769  0.1934  0.0727
    8SAPS   O13  945   6.263   6.014   9.625 -0.2629 -0.0495  0.2218
    8SAPS   O14  946   6.080   6.181   9.665 -0.4541 -0.0240  0.2764
    8SAPS   O12  947   6.258   6.215   9.480  0.4033  0.3884 -0.5496
    8SAPS   O11  948   6.073   6.034   9.461  0.4376  0.0339 -0.0669
    8SAPS    C1  949   6.047   6.100   9.338 -0.1760 -0.6744  0.0501
    8SAPS    HA  950   5.939   6.082   9.317 -0.0471 -1.4021 -0.0452
    8SAPS    HB  951   6.052   6.210   9.342  0.8502 -0.6066 -1.8396
    8SAPS    C2  952   6.135   6.048   9.225 -0.1086 -0.4754 -0.0539
    8SAPS    HS  953   6.241   6.066   9.253 -0.6486  2.8972  0.2816
    8SAPS   O21  954   6.085   6.102   9.100  0.1684  0.1202 -0.6914
    8SAPS   C21  955   6.159   6.201   9.064 -0.6519  0.7435  0.1719
    8SAPS   O22  956   6.249   6.257   9.123 -0.5578 -0.3031 -0.3050
    8SAPS   C22  957   6.137   6.220   8.917 -0.1978  0.1840  0.2738
    8SAPS   H2R  958   6.054   6.294   8.907 -1.4450 -1.3299 -1.2115
    8SAPS   H2S  959   6.225   6.275   8.875 -0.5011 -0.2808 -1.0165
    8SAPS    C3  960   6.105   5.893   9.219 -0.0890 -0.8156 -0.7947
    8SAPS    HX  961   5.997   5.884   9.196 -0.4944  1.0412  0.1688
    8SAPS    HY  962   6.115   5.851   9.321  0.1400 -0.5935 -0.7253
    8SAPS   O31  963   6.191   5.832   9.123  0.1586  0.1748 -0.9445
    8SAPS   C31  964   6.301   5.787   9.176  0.9141  0.1423 -0.0818
    8SAPS   O32  965   6.335   5.787   9.294  1.1076  0.3365 -0.0924
    8SAPS   C32  966   6.395   5.755   9.065 -0.0274  0.2440 -0.0803
    8SAPS   H2X  967   6.412   5.850   9.010 -1.6707  1.2916  1.1574
    8SAPS   H2Y  968   6.347   5.682   8.997  1.0201  0.3951 -1.0111
    8SAPS   C23  969   6.120   6.090   8.835  0.3676 -0.2872  0.1224
    8SAPS   H3R  970   6.014   6.057   8.831 -0.1457  1.1341  1.2572
    8SAPS   H3S  971   6.182   6.004   8.867 -0.8697 -1.6258 -0.8995
    8SAPS   C24  972   6.163   6.135   8.696 -1.0965  0.2086  0.1274
    8SAPS   H4R  973   6.265   6.177   8.705 -0.6902 -0.5064 -0.9080
    8SAPS   H4S  974   6.099   6.222   8.672 -0.2293  0.7107 -0.4242
    8SAPS   C25  975   6.156   6.014   8.604  0.5968  0.0271 -0.6069
    8SAPS   H5R  976   6.102   5.927   8.642 -0.0027 -0.6765 -2.9115
    8SAPS   C26  977   6.206   6.002   8.484  0.0548 -0.0281 -0.3152
    8SAPS   H6R  978   6.172   5.918   8.422 -2.1027 -0.2506  1.0600
    8SAPS   C27  979   6.286   6.109   8.413  0.5056  0.4610  0.1270
    8SAPS   H7R  980   6.388   6.095   8.456  1.3774 -0.0671 -1.9837
    8SAPS   H7S  981   6.257   6.210   8.450 -0.8671 -0.4359  1.5970
    8SAPS   C28  982   6.289   6.106   8.266 -0.3729 -0.3124  0.3982
    8SAPS   H8R  983   6.203   6.133   8.204  0.0485  1.0829  0.3739
    8SAPS   C29  984   6.398   6.079   8.190  0.4572 -0.1272  0.0247
    8SAPS   H9R  985   6.373   6.072   8.083 -0.9021  0.4475  0.2905
    8SAPS  C210  986   6.534   6.045   8.222 -0.2574  0.0614 -1.0076
    8SAPS  H10R  987   6.549   5.936   8.205  1.4412  0.3836 -1.7186
    8SAPS  H10S  988   6.566   6.064   8.327 -0.4990 -2.3249 -0.4290
    8SAPS  C211  989   6.639   6.125   8.143 -0.3870  0.1503 -0.8386
    8SAPS  H11R  990   6.687   6.199   8.208 -0.1844 -0.2251 -0.5613
    8SAPS  C212  991   6.700   6.108   8.026  0.8024  0.2372  0.2040
    8SAPS  H12R  992   6.774   6.180   7.988  0.2590  0.2351 -0.9065
    8SAPS  C213  993   6.677   5.990   7.924  0.0063  0.2416  0.0799
    8SAPS  H13R  994   6.644   5.906   7.989 -2.2744  2.4930  2.0709
    8SAPS  H13S  995   6.777   5.955   7.891 -0.1854 -0.6531  0.4040
    8SAPS  C214  996   6.583   6.021   7.809  0.2562 -0.6508  0.0227
    8SAPS  H14R  997   6.578   6.129   7.793 -2.6011 -0.6527  0.5320
    8SAPS  C215  998   6.502   5.928   7.755 -0.0761  0.1238  0.1615
    8SAPS  H15R  999   6.449   5.953   7.662  1.0776 -0.9646 -0.8317
    8SAPS  C216 1000   6.492   5.781   7.794 -0.1533 -0.1041  0.7056
    8SAPS  H16R 1001   6.567   5.761   7.874 -1.7117 -0.0509  2.2340
    8SAPS  H16S 1002   6.519   5.712   7.711 -1.4339 -1.1030  1.0775
    8SAPS  C217 1003   6.348   5.734   7.829  0.3727  0.8101  0.2664
    8SAPS  H17R 1004   6.298   5.823   7.873  0.8994  0.2494  2.0624
    8SAPS  H17S 1005   6.353   5.645   7.895 -0.7021  0.6189  0.0960
    8SAPS  C218 1006   6.265   5.684   7.707  0.3834  0.2066 -0.1505
    8SAPS  H18R 1007   6.314   5.597   7.659  2.7318  0.4362  1.6333
    8SAPS  H18S 1008   6.273   5.763   7.629  0.5021 -1.2442 -1.6635
    8SAPS  C219 1009   6.114   5.667   7.747 -0.7479 -0.3096  0.3813
    8SAPS  H19R 1010   6.077   5.752   7.810  0.3131  1.5757 -1.4185
    8SAPS  H19S 1011   6.098   5.575   7.807 -2.5160 -0.2192  0.1026
    8SAPS  C220 1012   6.030   5.643   7.619 -0.6437  0.5253  0.2775
    8SAPS  H20R 1013   6.052   5.539   7.586 -0.1613  0.4302  0.8865
    8SAPS  H20S 1014   6.065   5.719   7.545  2.2445  0.4148  1.4160
    8SAPS  H20T 1015   5.919   5.639   7.629 -0.5661 -0.7150  0.8054
    8SAPS   C33 1016   6.534   5.694   9.113  0.2249  0.0890  0.6607
    8SAPS   H3X 1017   6.534   5.616   9.192 -1.6727 -0.4768  0.1610
    8SAPS   H3Y 1018   6.586   5.784   9.151 -0.3377  0.9827 -0.6140
    8SAPS   C34 1019   6.616   5.629   9.008  0.3982  0.7553  0.0990
    8SAPS   H4X 1020   6.575   5.528   8.984  0.4123  0.7330  0.1678
    8SAPS   H4Y 1021   6.719   5.621   9.049  0.5142 -0.0683 -0.3302
    8SAPS   C35 1022   6.631   5.708   8.878  1.0446  0.6968 -0.6791
    8SAPS   H5X 1023   6.641   5.818   8.895  1.4358  0.8022 -1.5162
    8SAPS   H5Y 1024   6.541   5.701   8.813 -0.0120 -3.0606  0.9369
    8SAPS   C36 1025   6.738   5.669   8.788 -0.1879  0.1788  0.4470
    8SAPS   H6X 1026   6.709   5.573   8.739 -0.2612  0.1433  0.5592
    8SAPS   H6Y 1027   6.837   5.654   8.837 -0.4757 -1.4028  0.6199
    8SAPS   C37 1028   6.741   5.764   8.662 -0.0075 -0.8625 -0.5077
    8SAPS   H7X 1029   6.819   5.837   8.691  0.0461 -0.6042 -1.2765
    8SAPS   H7Y 1030   6.650   5.822   8.635  0.5010  0.7283  1.0435
    8SAPS   C38 1031   6.782   5.696   8.535 -0.2275  0.1191 -0.0830
    8SAPS   H8X 1032   6.716   5.611   8.507 -0.2385  0.1261 -0.0793
    8SAPS   H8Y 1033   6.884   5.657   8.556 -0.0063  0.6960 -0.0748
    8SAPS   C39 1034   6.777   5.787   8.416 -0.7011 -0.1070  0.0103
    8SAPS   H9X 1035   6.810   5.885   8.456  4.0227 -1.5219  0.1121
    8SAPS   H9Y 1036   6.671   5.799   8.384 -0.4266  0.2305 -0.7993
    8SAPS  C310 1037   6.870   5.745   8.287  0.6306 -0.1094 -1.0075
    8SAPS  H10X 1038   6.964   5.701   8.325 -0.1054  0.4903  1.7464
    8SAPS  H10Y 1039   6.879   5.847   8.244  1.5898  0.0143 -0.5267
    8SAPS  C311 1040   6.790   5.662   8.183  0.0373  0.0092  0.2619
    8SAPS  H11X 1041   6.694   5.712   8.157 -1.0437 -1.9278  0.3453
    8SAPS  H11Y 1042   6.762   5.564   8.227  0.2181 -0.8850 -1.5126
    8SAPS  C312 1043   6.868   5.647   8.055 -0.0550  0.8837  0.0897
    8SAPS  H12X 1044   6.978   5.648   8.072  0.2479  0.9402 -1.6525
    8SAPS  H12Y 1045   6.852   5.728   7.980 -1.7162 -0.8092 -1.4766
    8SAPS  C313 1046   6.845   5.516   7.965  0.5076 -0.1551 -0.4027
    8SAPS  H13X 1047   6.838   5.426   8.030 -1.6813  0.8690  0.8916
    8SAPS  H13Y 1048   6.943   5.515   7.913  1.0896  1.5853  0.5875
    8SAPS  C314 1049   6.722   5.526   7.867 -0.5806  0.6906 -0.4545
    8SAPS  H14X 1050   6.740   5.618   7.806  1.2309  1.0524  0.5516
    8SAPS  H14Y 1051   6.652   5.551   7.949 -0.3964 -2.0712  0.6394
    8SAPS  C315 1052   6.692   5.400   7.792  0.1828  0.3432  0.5483
    8SAPS  H15X 1053   6.734   5.311   7.844 -0.6158 -1.2325 -1.4147
    8SAPS  H15Y 1054   6.751   5.407   7.698  0.3535  2.1945  0.7458
    8SAPS  C316 1055   6.540   5.386   7.754 -0.2140 -0.1544  0.5554
    8SAPS  H16X 1056   6.513   5.462   7.678  3.1624 -2.0253 -2.8883
    8SAPS  H16Y 1057   6.485   5.402   7.849  2.5256 -0.2311  2.2951
    8SAPS  C317 1058   6.511   5.248   7.692 -0.0949  1.2352 -0.4469
    8SAPS  H17X 1059   6.401   5.234   7.699 -0.3471  3.1778  0.0727
    8SAPS  H17Y 1060   6.558   5.169   7.753  0.6245  2.1930  0.2626
    8SAPS  C318 1061   6.542   5.235   7.547 -0.6181 -0.3353  0.4829
    8SAPS  H18X 1062   6.554   5.331   7.493 -0.3012 -0.5170  0.2306
    8SAPS  H18Y 1063   6.469   5.169   7.497 -0.8223  0.4524 -0.2834
    8SAPS  H18Z 1064   6.645   5.194   7.550 -0.1384  0.8251  0.7770
    9SAPS     N 1065   4.205   3.857   5.563 -0.2364  0.6989  0.2761
    9SAPS   HN1 1066   4.184   3.782   5.632  0.0863 -2.6852 -3.0318
    9SAPS   HN2 1067   4.301   3.885   5.591  0.2783 -1.3220  0.6859
    9SAPS   HN3 1068   4.146   3.943   5.569 -0.3745  0.5479  1.2956
    9SAPS   C12 1069   4.205   3.797   5.425  0.2495  0.5473 -0.8248
    9SAPS  H12A 1070   4.112   3.742   5.424 -0.0780  0.9891 -3.7006
    9SAPS   C13 1071   4.227   3.898   5.306  0.9636 -0.2822  0.0089
    9SAPS  O13A 1072   4.274   4.012   5.333  0.2004 -0.2905 -0.2093
    9SAPS  O13B 1073   4.192   3.860   5.191  0.0786 -0.8333  0.2039
    9SAPS   C11 1074   4.308   3.685   5.412  0.3125  0.3148 -0.2339
    9SAPS  H11A 1075   4.405   3.737   5.394 -1.2789  3.7511  0.1625
    9SAPS  H11B 1076   4.292   3.622   5.322 -0.1213 -0.9929  0.7343
    9SAPS     P 1077   4.221   3.477   5.557  0.2961 -0.1991  0.0528
    9SAPS   O13 1078   4.090   3.528   5.598 -0.1185 -0.8360  0.4963
    9SAPS   O14 1079   4.222   3.384   5.440  0.0419  0.6500  0.1465
    9SAPS   O12 1080   4.319   3.603   5.525 -0.0519  0.7065  0.4228
    9SAPS   O11 1081   4.285   3.395   5.679  0.1120 -0.0132  0.0938
    9SAPS    C1 1082   4.423   3.350   5.653  0.4813 -0.7220  1.0464
    9SAPS    HA 1083   4.426   3.241   5.633 -2.9441 -0.3394 -2.9727
    9SAPS    HB 1084   4.466   3.393   5.560 -0.7533 -0.9393  0.3539
    9SAPS    C2 1085   4.515   3.401   5.770  0.2240  0.0848  0.7325
    9SAPS    HS 1086   4.622   3.373   5.762  0.6564  1.1320  2.3268
    9SAPS   O21 1087   4.471   3.368   5.903 -0.1078  0.4601  0.2446
    9SAPS   C21 1088   4.420   3.251   5.929  0.0940  1.1054  0.1156
    9SAPS   O22 1089   4.436   3.148   5.865 -0.2123  0.6023  0.0321
    9SAPS   C22 1090   4.370   3.251   6.077 -0.3060  0.6472  0.3381
    9SAPS   H2R 1091   4.461   3.282   6.134  1.1988 -0.7396 -1.1905
    9SAPS   H2S 1092   4.303   3.338   6.086  0.6814  1.3488  1.1345
    9SAPS    C3 1093   4.535   3.557   5.756  0.4971  0.3006  0.2531
    9SAPS    HX 1094   4.434   3.599   5.737 -0.5826 -2.5171 -0.7415
    9SAPS    HY 1095   4.595   3.583   5.665 -0.3046 -0.1575 -0.4215
    9SAPS   O31 1096   4.603   3.614   5.868  0.2780 -0.2591  0.1242
    9SAPS   C31 1097   4.536   3.646   5.976  0.0002 -0.3160 -0.0025
    9SAPS   O32 1098   4.419   3.623   5.994  0.1505 -0.8701 -0.2431
    9SAPS   C32 1099   4.637   3.709   6.079  0.1074  0.3468 -0.2838
    9SAPS   H2X 1100   4.653   3.815   6.052 -0.0469  0.5701  0.4824
    9SAPS   H2Y 1101   4.730   3.649   6.066 -0.3459 -0.3002 -0.6192
    9SAPS   C23 1102   4.338   3.108   6.131 -0.0383  0.3186  0.1449
    9SAPS   H3R 1103   4.427   3.042   6.132 -1.1627 -1.2464  0.7556
    9SAPS   H3S 1104   4.263   3.059   6.066 -1.1082  3.5535 -1.2479
    9SAPS   C24 1105   4.279   3.131   6.272  0.8776 -0.0483  1.1023
    9SAPS   H4R 1106   4.257   3.029   6.308 -0.6873 -1.2352 -2.6816
    9SAPS   H4S 1107   4.184   3.184   6.247  2.1140  1.3295 -1.0420
    9SAPS   C25 1108   4.361   3.212   6.374 -0.1555  0.2304  0.4395
    9SAPS   H5R 1109   4.425   3.288   6.327 -2.5185  1.1086 -1.6239
    9SAPS   C26 1110   4.365   3.191   6.506  0.2160 -0.1398  0.4518
    9SAPS   H6R 1111   4.442   3.237   6.571 -0.2241  0.4347  0.5806
    9SAPS   C27 1112   4.282   3.085   6.578  0.8129  0.5953  0.4510
    9SAPS   H7R 1113   4.347   3.001   6.610 -1.4533 -1.5045 -0.2044
    9SAPS   H7S 1114   4.205   3.039   6.513  1.7793 -1.5598  0.7509
    9SAPS   C28 1115   4.228   3.122   6.712 -0.2871  0.0237  1.0056
    9SAPS   H8R 1116   4.303   3.111   6.791  2.2223  0.6501 -1.1523
    9SAPS   C29 1117   4.105   3.180   6.731 -0.5956  0.7872  0.5573
    9SAPS   H9R 1118   4.086   3.194   6.838  1.5863  1.2629  0.9272
    9SAPS  C210 1119   3.992   3.204   6.624 -0.1646  0.2997 -0.0781
    9SAPS  H10R 1120   3.920   3.119   6.621  1.3723 -1.0110 -0.7253
    9SAPS  H10S 1121   4.041   3.203   6.525 -0.1104  2.1604 -0.1095
    9SAPS  C211 1122   3.922   3.340   6.643  0.3049  0.3047  0.2645
    9SAPS  H11R 1123   3.988   3.428   6.648  0.3586  0.5964 -3.1084
    9SAPS  C212 1124   3.786   3.364   6.638  0.9350  0.5418  0.7878
    9SAPS  H12R 1125   3.750   3.468   6.638 -0.5899  0.0494  0.7756
    9SAPS  C213 1126   3.678   3.265   6.590  0.2407 -0.7797  0.4038
    9SAPS  H13R 1127   3.713   3.159   6.583 -0.8236 -1.0647 -0.7979
    9SAPS  H13S 1128   3.645   3.292   6.488  1.7344  0.0322  0.1010
    9SAPS  C214 1129   3.563   3.273   6.675 -0.0490  0.5846  0.7908
    9SAPS  H14R 1130   3.559   3.194   6.752 -0.2271 -0.8224 -0.6077
    9SAPS  C215 1131   3.454   3.349   6.655  0.0155 -0.0120  0.3455
    9SAPS  H15R 1132   3.373   3.327   6.726 -0.0928 -0.3736  0.1147
    9SAPS  C216 1133   3.414   3.449   6.548  0.4245  0.0031  1.0551
    9SAPS  H16R 1134   3.508   3.482   6.498 -0.0967  1.0712  0.7583
    9SAPS  H16S 1135   3.369   3.537   6.597  1.8717  0.3999  1.7233
    9SAPS  C217 1136   3.322   3.406   6.432 -0.6983  0.5378  0.4942
    9SAPS  H17R 1137   3.367   3.312   6.395  2.7164  2.2325 -0.0562
    9SAPS  H17S 1138   3.329   3.469   6.340  2.0276 -2.3418 -1.4945
    9SAPS  C218 1139   3.171   3.397   6.477  0.0001 -0.1059  0.4097
    9SAPS  H18R 1140   3.133   3.498   6.504  1.5625  0.6156  0.0197
    9SAPS  H18S 1141   3.157   3.349   6.577  2.1055 -1.0482  0.3020
    9SAPS  C219 1142   3.094   3.326   6.364  0.3143  0.2904  0.0473
    9SAPS  H19R 1143   3.116   3.217   6.363  0.4905  0.3256  0.1146
    9SAPS  H19S 1144   3.129   3.375   6.271 -1.0192  1.2490  0.0136
    9SAPS  C220 1145   2.939   3.344   6.366  0.3311 -0.3118 -0.0981
    9SAPS  H20R 1146   2.917   3.453   6.368 -0.3243 -0.4428  0.0507
    9SAPS  H20S 1147   2.917   3.307   6.468 -1.0013 -0.2650 -0.3491
    9SAPS  H20T 1148   2.877   3.295   6.288  0.0565 -0.3469  0.1441
    9SAPS   C33 1149   4.592   3.684   6.231 -0.0044  0.5837 -0.0190
    9SAPS   H3X 1150   4.672   3.629   6.284  1.7653  4.0918  1.2931
    9SAPS   H3Y 1151   4.504   3.616   6.229 -0.1769  0.7746  0.7076
    9SAPS   C34 1152   4.574   3.818   6.310 -0.0637  0.2435  0.1895
    9SAPS   H4X 1153   4.490   3.879   6.269  0.1274  0.0387 -0.5112
    9SAPS   H4Y 1154   4.666   3.875   6.287 -0.9224  1.4383 -0.4296
    9SAPS   C35 1155   4.557   3.793   6.469  0.0106  0.3905  0.8082
    9SAPS   H5X 1156   4.557   3.891   6.522 -1.7965  0.2446  1.1247
    9SAPS   H5Y 1157   4.633   3.731   6.521 -1.1125 -0.2224  1.7621
    9SAPS   C36 1158   4.414   3.730   6.497 -0.2800 -0.2225  0.2430
    9SAPS   H6X 1159   4.413   3.632   6.446  0.5982  0.9663 -2.1898
    9SAPS   H6Y 1160   4.341   3.799   6.449  1.3472  0.7359 -0.9477
    9SAPS   C37 1161   4.393   3.716   6.647 -0.1545 -0.3062  0.2112
    9SAPS   H7X 1162   4.402   3.820   6.686 -1.3664  0.2028 -0.7869
    9SAPS   H7Y 1163   4.468   3.647   6.691  1.5413  1.5923  0.4646
    9SAPS   C38 1164   4.252   3.664   6.680 -0.3623  0.3375  1.0954
    9SAPS   H8X 1165   4.235   3.563   6.638 -1.6163  0.7257  0.6198
    9SAPS   H8Y 1166   4.177   3.727   6.629 -0.5907 -0.2474  0.7011
    9SAPS   C39 1167   4.243   3.665   6.834  0.3962  0.9617  0.0655
    9SAPS   H9X 1168   4.257   3.763   6.884  0.8635  0.6678  0.5218
    9SAPS   H9Y 1169   4.315   3.594   6.879  1.3419  1.3264 -0.8475
    9SAPS  C310 1170   4.099   3.628   6.869  0.2468 -0.2371 -0.3941
    9SAPS  H10X 1171   4.073   3.531   6.822  1.1966  0.4568 -2.4686
    9SAPS  H10Y 1172   4.041   3.706   6.815  0.8278 -0.2004 -0.9797
    9SAPS  C311 1173   4.061   3.644   7.022 -0.0082  0.3595  0.2053
    9SAPS  H11X 1174   4.080   3.740   7.075  1.7376  0.5365 -0.6690
    9SAPS  H11Y 1175   4.127   3.579   7.084 -0.8748 -0.4866  0.2529
    9SAPS  C312 1176   3.913   3.604   7.045  0.3064 -0.1348 -0.2378
    9SAPS  H12X 1177   3.849   3.675   6.989 -1.5065 -1.5032  0.0325
    9SAPS  H12Y 1178   3.892   3.609   7.154  1.9771  1.2204  0.0832
    9SAPS  C313 1179   3.882   3.465   7.000  0.5022  0.0897  0.1893
    9SAPS  H13X 1180   3.972   3.402   7.017  0.5112  0.3700  1.2611
    9SAPS  H13Y 1181   3.853   3.480   6.893 -2.2565  1.8755  1.0797
    9SAPS  C314 1182   3.771   3.397   7.084  0.4844  0.6905  0.4196
    9SAPS  H14X 1183   3.675   3.448   7.061 -0.3202  0.0460  2.1063
    9SAPS  H14Y 1184   3.789   3.413   7.193 -2.5351 -0.3129  1.1610
    9SAPS  C315 1185   3.738   3.248   7.071  0.0953  0.2029 -0.2659
    9SAPS  H15X 1186   3.819   3.183   7.111 -0.7971 -1.9994 -1.7721
    9SAPS  H15Y 1187   3.711   3.213   6.969 -1.1368 -0.4949  0.2669
    9SAPS  C316 1188   3.604   3.209   7.141  0.3141 -0.8784 -0.3027
    9SAPS  H16X 1189   3.579   3.103   7.120 -3.0548  0.0380 -1.5489
    9SAPS  H16Y 1190   3.523   3.265   7.091  2.5431  0.9372 -2.1539
    9SAPS  C317 1191   3.597   3.243   7.290 -0.5001  0.3971  0.8242
    9SAPS  H17X 1192   3.614   3.349   7.316 -1.1509 -0.2735  4.4031
    9SAPS  H17Y 1193   3.671   3.191   7.355  0.5997  2.4359  1.2738
    9SAPS  C318 1194   3.447   3.219   7.325  0.1276 -0.7726  0.5973
    9SAPS  H18X 1195   3.413   3.114   7.314  1.7672 -1.2735  0.0138
    9SAPS  H18Y 1196   3.386   3.286   7.261  2.7166  0.9211 -0.2601
    9SAPS  H18Z 1197   3.436   3.258   7.428  0.2837  2.3830 -0.4550
   10SAPS     N 1198   6.193   2.469   5.314 -0.6263 -0.8120  0.0200
   10SAPS   HN1 1199   6.201   2.492   5.213  0.1160  0.6238  0.3728
   10SAPS   HN2 1200   6.249   2.548   5.352 -0.4094  0.4873 -2.8078
   10SAPS   HN3 1201   6.228   2.376   5.343  1.4117  0.6989  2.9310
   10SAPS   C12 1202   6.050   2.491   5.353 -0.1577 -0.2352  0.5460
   10SAPS  H12A 1203   6.031   2.595   5.329 -0.5274 -0.5627 -0.6619
   10SAPS   C13 1204   5.937   2.398   5.291  0.0468 -0.2053 -0.2791
   10SAPS  O13A 1205   5.954   2.329   5.191 -0.0656 -0.5865  0.1098
   10SAPS  O13B 1206   5.821   2.420   5.344 -0.2882 -0.4543 -0.2344
   10SAPS   C11 1207   6.038   2.480   5.509  0.9874 -0.3993 -0.0981
   10SAPS  H11A 1208   6.067   2.374   5.527  2.5780 -0.0542 -0.4625
   10SAPS  H11B 1209   5.931   2.482   5.538  0.9688 -0.6148 -0.1424
   10SAPS     P 1210   6.077   2.712   5.631 -0.2862 -0.3926  0.2080
   10SAPS   O13 1211   6.195   2.761   5.708  0.2827  0.1182  0.1856
   10SAPS   O14 1212   6.051   2.781   5.502  0.0286  0.3023 -0.1681
   10SAPS   O12 1213   6.118   2.564   5.594  0.1720 -0.1472  0.2775
   10SAPS   O11 1214   5.946   2.699   5.716  0.0793  0.0990 -0.2105
   10SAPS    C1 1215   5.959   2.613   5.833 -0.1395  0.2546  0.0998
   10SAPS    HA 1216   6.046   2.545   5.817  0.5700  1.9620 -5.0409
   10SAPS    HB 1217   5.992   2.671   5.922 -1.5059 -0.2013  0.9250
   10SAPS    C2 1218   5.836   2.533   5.856  0.5264 -0.2348 -0.4616
   10SAPS    HS 1219   5.816   2.471   5.766 -1.3412  0.5373 -0.6239
   10SAPS   O21 1220   5.727   2.630   5.866  0.4422  0.2801 -0.1836
   10SAPS   C21 1221   5.602   2.580   5.862 -0.0113  0.3468 -0.0001
   10SAPS   O22 1222   5.570   2.463   5.848 -0.1281  0.3362  0.1930
   10SAPS   C22 1223   5.509   2.696   5.849 -0.3042  0.1869  0.2255
   10SAPS   H2R 1224   5.548   2.784   5.905 -0.4964  2.1853 -2.5533
   10SAPS   H2S 1225   5.504   2.735   5.745 -3.1426 -2.3863 -0.7536
   10SAPS    C3 1226   5.839   2.444   5.982 -0.2016  0.3279 -0.7222
   10SAPS    HX 1227   5.920   2.371   5.961  1.4232  1.5132  1.0474
   10SAPS    HY 1228   5.748   2.385   6.004 -0.4264  0.2543 -1.7579
   10SAPS   O31 1229   5.868   2.526   6.095 -0.6261 -0.2239 -0.6103
   10SAPS   C31 1230   5.857   2.469   6.214  0.6564 -0.0780 -0.5212
   10SAPS   O32 1231   5.826   2.355   6.227 -0.2457  0.4063  0.2515
   10SAPS   C32 1232   5.876   2.575   6.321  0.2440  0.4505  0.2173
   10SAPS   H2X 1233   5.981   2.610   6.310 -0.0266  1.2570  0.1447
   10SAPS   H2Y 1234   5.855   2.527   6.419 -0.8633 -0.8965 -0.6469
   10SAPS   C23 1235   5.361   2.656   5.898  0.4360 -0.0663  0.3015
   10SAPS   H3R 1236   5.365   2.618   6.002  0.1009 -1.4138 -0.1577
   10SAPS   H3S 1237   5.332   2.573   5.831 -0.6590  0.6406 -0.1277
   10SAPS   C24 1238   5.260   2.773   5.874 -0.1719  0.5071  0.4139
   10SAPS   H4R 1239   5.161   2.727   5.892 -0.0184  0.1983  0.4990
   10SAPS   H4S 1240   5.249   2.803   5.768  0.2402  0.6483  0.4092
   10SAPS   C25 1241   5.281   2.893   5.967 -0.2071  0.0770  1.2236
   10SAPS   H5R 1242   5.329   2.979   5.919 -0.9104 -1.6704 -3.0471
   10SAPS   C26 1243   5.228   2.898   6.093 -0.5355 -0.4775  0.2772
   10SAPS   H6R 1244   5.242   2.986   6.158 -2.4809 -1.3621  1.9950
   10SAPS   C27 1245   5.163   2.784   6.165 -0.3412 -0.4105  0.1357
   10SAPS   H7R 1246   5.228   2.755   6.250  0.0841  1.7673  0.6226
   10SAPS   H7S 1247   5.144   2.695   6.101 -2.8466  1.1230 -1.4272
   10SAPS   C28 1248   5.027   2.826   6.227 -0.1223 -0.0054  0.4057
   10SAPS   H8R 1249   4.947   2.860   6.160  1.0336 -0.1285 -1.1068
   10SAPS   C29 1250   4.991   2.801   6.351  0.3882 -0.5307 -0.8721
   10SAPS   H9R 1251   4.893   2.842   6.380  0.5725 -0.5819 -0.1616
   10SAPS  C210 1252   5.072   2.733   6.462  0.4932 -0.1000  0.0114
   10SAPS  H10R 1253   5.173   2.778   6.472 -0.1629  1.0985  1.5201
   10SAPS  H10S 1254   5.101   2.632   6.425  2.1771  0.4288 -0.2110
   10SAPS  C211 1255   4.999   2.725   6.594 -0.1085  0.6303  0.4303
   10SAPS  H11R 1256   4.890   2.743   6.597 -0.8513 -3.1502  1.2870
   10SAPS  C212 1257   5.056   2.697   6.708 -0.3413  0.8812 -0.0473
   10SAPS  H12R 1258   4.997   2.709   6.800 -1.4603  0.1575 -0.6491
   10SAPS  C213 1259   5.206   2.686   6.742 -0.4848  0.1218  0.7765
   10SAPS  H13R 1260   5.218   2.744   6.836  1.5080  0.0786  0.5929
   10SAPS  H13S 1261   5.267   2.729   6.660 -2.0913 -2.0405 -1.6979
   10SAPS  C214 1262   5.235   2.539   6.757 -0.4325 -0.0868  0.3090
   10SAPS  H14R 1263   5.152   2.471   6.732 -0.9490  0.7304 -0.2306
   10SAPS  C215 1264   5.360   2.492   6.789  0.7618  0.6882 -0.0575
   10SAPS  H15R 1265   5.372   2.384   6.771 -2.2543  0.2846 -0.2811
   10SAPS  C216 1266   5.479   2.579   6.824  0.2611 -0.8327  0.4828
   10SAPS  H16R 1267   5.519   2.551   6.924 -0.1594 -1.3628  0.5099
   10SAPS  H16S 1268   5.464   2.689   6.817  1.4164 -0.7057 -0.2546
   10SAPS  C217 1269   5.601   2.570   6.720 -0.4115  0.7891  0.1092
   10SAPS  H17R 1270   5.558   2.579   6.618 -0.9760  0.8969  0.3573
   10SAPS  H17S 1271   5.635   2.464   6.718  1.5269  1.3709 -0.2620
   10SAPS  C218 1272   5.710   2.674   6.735  0.0184  0.3231  0.6926
   10SAPS  H18R 1273   5.666   2.776   6.733 -2.7247 -0.7828  0.8487
   10SAPS  H18S 1274   5.772   2.653   6.645 -0.4612  3.2468 -0.4162
   10SAPS  C219 1275   5.793   2.662   6.861  0.1577 -0.0476 -0.3546
   10SAPS  H19R 1276   5.728   2.695   6.946 -0.2482 -0.0772 -0.6489
   10SAPS  H19S 1277   5.876   2.735   6.864 -1.9559  2.4539  0.4503
   10SAPS  C220 1278   5.848   2.524   6.899 -0.0286  0.4228 -0.0297
   10SAPS  H20R 1279   5.759   2.466   6.931 -1.3050  3.3671  2.2045
   10SAPS  H20S 1280   5.916   2.531   6.987 -1.2735  2.0707  0.8519
   10SAPS  H20T 1281   5.897   2.478   6.811 -1.3245  0.3747 -0.7536
   10SAPS   C33 1282   5.794   2.708   6.299  0.5023  0.2243  0.3170
   10SAPS   H3X 1283   5.813   2.754   6.200  0.3485  1.0549  0.6643
   10SAPS   H3Y 1284   5.805   2.780   6.383  2.8341  0.6872 -0.2851
   10SAPS   C34 1285   5.641   2.691   6.319 -0.0410  0.6817 -0.2194
   10SAPS   H4X 1286   5.622   2.615   6.399  0.4905  1.7702  0.9908
   10SAPS   H4Y 1287   5.614   2.652   6.219 -0.6806  0.7883 -0.0895
   10SAPS   C35 1288   5.570   2.824   6.351 -0.4983  0.1805  0.0515
   10SAPS   H5X 1289   5.468   2.809   6.310  0.1101 -0.1534 -1.4244
   10SAPS   H5Y 1290   5.618   2.911   6.300 -0.0772  1.4462  2.4490
   10SAPS   C36 1291   5.567   2.866   6.495  0.1569 -0.6043 -0.2813
   10SAPS   H6X 1292   5.667   2.900   6.529 -0.2803  1.2362 -0.7217
   10SAPS   H6Y 1293   5.534   2.778   6.555  1.3207 -0.7908  0.1126
   10SAPS   C37 1294   5.474   2.988   6.510 -0.0592 -0.1707  0.5356
   10SAPS   H7X 1295   5.372   2.958   6.479 -0.6296 -0.7413  2.8025
   10SAPS   H7Y 1296   5.512   3.056   6.431 -0.4293 -1.6154 -0.9430
   10SAPS   C38 1297   5.485   3.055   6.646  0.2776 -0.5162 -0.2674
   10SAPS   H8X 1298   5.439   3.155   6.639  0.4626 -0.5554 -2.7775
   10SAPS   H8Y 1299   5.589   3.089   6.663 -0.1043 -0.1351  1.5447
   10SAPS   C39 1300   5.431   2.989   6.774  0.5683  0.1361 -0.1399
   10SAPS   H9X 1301   5.495   2.905   6.804  0.3392  0.4877  1.3880
   10SAPS   H9Y 1302   5.331   2.952   6.741  0.6532  0.4671 -0.7985
   10SAPS  C310 1303   5.426   3.086   6.892 -0.0681  0.4126 -0.4180
   10SAPS  H10X 1304   5.359   3.173   6.873 -2.5939 -0.9332  1.7119
   10SAPS  H10Y 1305   5.533   3.112   6.902  0.0375 -0.3138  0.4392
   10SAPS  C311 1306   5.379   3.006   7.010  0.0791 -0.4551 -0.5690
   10SAPS  H11X 1307   5.457   2.926   7.009  0.5073 -0.0331 -1.4102
   10SAPS  H11Y 1308   5.284   2.958   6.978  1.2996 -0.6682 -4.4149
   10SAPS  C312 1309   5.390   3.078   7.140 -0.0623 -0.0997 -0.2974
   10SAPS  H12X 1310   5.311   3.147   7.177  1.6178  1.8803 -0.1679
   10SAPS  H12Y 1311   5.475   3.150   7.136 -0.8887  1.0007  1.2104
   10SAPS  C313 1312   5.447   2.978   7.248  0.4062 -0.0196 -0.0702
   10SAPS  H13X 1313   5.546   2.936   7.221  0.6296  0.4654 -0.0190
   10SAPS  H13Y 1314   5.374   2.895   7.254  0.1517  0.2554  0.6927
   10SAPS  C314 1315   5.464   3.033   7.389  0.2115 -0.5422 -0.4350
   10SAPS  H14X 1316   5.365   3.074   7.421 -0.4959 -1.2132 -1.6875
   10SAPS  H14Y 1317   5.538   3.115   7.395  1.8160 -1.8557 -1.6260
   10SAPS  C315 1318   5.507   2.929   7.497 -0.0603  0.2756 -0.2095
   10SAPS  H15X 1319   5.601   2.878   7.466 -0.0277 -0.4314  0.9695
   10SAPS  H15Y 1320   5.424   2.855   7.500 -0.9797  1.2824 -0.2365
   10SAPS  C316 1321   5.525   2.979   7.640  0.1830 -0.2031  0.0266
   10SAPS  H16X 1322   5.613   3.044   7.664 -1.2313  1.8416 -0.0487
   10SAPS  H16Y 1323   5.537   2.889   7.704 -1.2013  0.4504  1.2477
   10SAPS  C317 1324   5.405   3.058   7.701 -0.6047  0.2717  0.4053
   10SAPS  H17X 1325   5.396   3.158   7.653  1.3548  1.4779  2.3485
   10SAPS  H17Y 1326   5.426   3.073   7.809 -2.1495 -2.0165  1.0866
   10SAPS  C318 1327   5.263   2.988   7.699 -1.0883 -0.2604  0.8428
   10SAPS  H18X 1328   5.257   2.917   7.784  0.1676 -0.9816  0.3513
   10SAPS  H18Y 1329   5.245   2.938   7.602  0.8483  0.0970  0.2508
   10SAPS  H18Z 1330   5.188   3.069   7.705  0.8926  1.6425  1.3320
   11SAPS     N 1331   6.369   4.322   5.329 -0.1963 -0.3591 -0.1780
   11SAPS   HN1 1332   6.324   4.236   5.367 -1.6730  0.1687 -0.6478
   11SAPS   HN2 1333   6.301   4.400   5.329  1.0889  0.7963  0.6046
   11SAPS   HN3 1334   6.398   4.300   5.231 -2.2272 -1.8426 -0.5189
   11SAPS   C12 1335   6.474   4.357   5.425  0.1929  0.3655 -0.6910
   11SAPS  H12A 1336   6.550   4.282   5.413  0.1198 -0.3320  2.3360
   11SAPS   C13 1337   6.550   4.491   5.398  1.1957 -0.1229 -0.2909
   11SAPS  O13A 1338   6.534   4.563   5.297 -0.1889 -0.1453 -0.7428
   11SAPS  O13B 1339   6.654   4.509   5.467 -0.7057 -0.2759  0.1720
   11SAPS   C11 1340   6.427   4.361   5.575 -0.6332  0.1171 -0.0312
   11SAPS  H11A 1341   6.354   4.443   5.592  1.8594  1.9668  2.6542
   11SAPS  H11B 1342   6.518   4.377   5.637  1.9132 -0.4128 -3.2936
   11SAPS     P 1343   6.427   4.135   5.708 -0.3585  0.2898  0.2940
   11SAPS   O13 1344   6.376   4.000   5.679  0.0489  0.1631 -0.6331
   11SAPS   O14 1345   6.574   4.153   5.713 -0.2295 -0.3953  0.3935
   11SAPS   O12 1346   6.366   4.236   5.604  0.0245  0.1278 -0.3443
   11SAPS   O11 1347   6.376   4.184   5.851  0.0422  0.3963  1.1226
   11SAPS    C1 1348   6.256   4.243   5.882  0.2635 -0.3373  0.0369
   11SAPS    HA 1349   6.176   4.189   5.827 -1.0725  1.8720 -0.2885
   11SAPS    HB 1350   6.234   4.218   5.988 -0.4706 -0.6929 -0.1911
   11SAPS    C2 1351   6.240   4.393   5.865 -0.6623 -0.1987 -0.1307
   11SAPS    HS 1352   6.234   4.402   5.755  2.0068 -0.1807 -0.3243
   11SAPS   O21 1353   6.357   4.461   5.928  0.4548 -0.2776  0.6792
   11SAPS   C21 1354   6.381   4.587   5.888  0.6900  0.9966 -0.0775
   11SAPS   O22 1355   6.340   4.632   5.783 -0.3489 -0.0376  0.1305
   11SAPS   C22 1356   6.484   4.658   5.981 -0.0223  0.0930  0.6355
   11SAPS   H2R 1357   6.463   4.619   6.084 -4.2553  1.2168  0.3991
   11SAPS   H2S 1358   6.582   4.622   5.944 -0.8895 -0.7042 -1.0403
   11SAPS    C3 1359   6.102   4.447   5.918 -1.1785  0.1522 -0.6672
   11SAPS    HX 1360   6.028   4.366   5.900  0.5385 -1.9490  1.1029
   11SAPS    HY 1361   6.072   4.539   5.864  1.4887  1.2978 -0.3480
   11SAPS   O31 1362   6.117   4.458   6.061  0.0339  0.3409  0.1966
   11SAPS   C31 1363   6.064   4.570   6.119  0.5591  0.1182 -1.1073
   11SAPS   O32 1364   6.012   4.659   6.050 -0.7382 -0.7186 -0.2065
   11SAPS   C32 1365   6.080   4.568   6.262  0.1089 -0.3734 -0.7011
   11SAPS   H2X 1366   6.024   4.486   6.311 -0.1937  0.2235 -0.0244
   11SAPS   H2Y 1367   6.044   4.669   6.290 -1.3279 -0.4948 -1.9836
   11SAPS   C23 1368   6.458   4.811   5.973 -0.3798 -0.2454 -0.7422
   11SAPS   H3R 1369   6.460   4.852   5.869  1.2456  0.4279 -0.4807
   11SAPS   H3S 1370   6.549   4.861   6.011 -0.9210  0.7915 -0.7895
   11SAPS   C24 1371   6.335   4.864   6.052 -0.2763  0.0058  0.1463
   11SAPS   H4R 1372   6.333   4.821   6.155  1.0069  0.0737  0.2076
   11SAPS   H4S 1373   6.242   4.821   6.008  0.3179  0.3834 -1.5621
   11SAPS   C25 1374   6.327   5.008   6.062  0.1707  0.1890  0.1255
   11SAPS   H5R 1375   6.310   5.057   5.965 -1.4005 -1.4795 -0.5096
   11SAPS   C26 1376   6.346   5.085   6.167 -0.1472  0.7174  0.4214
   11SAPS   H6R 1377   6.331   5.193   6.150  3.3069  0.9684 -2.0475
   11SAPS   C27 1378   6.364   5.032   6.308  0.0576 -0.4607 -0.1011
   11SAPS   H7R 1379   6.436   5.098   6.360 -1.9549  1.0604  0.9151
   11SAPS   H7S 1380   6.410   4.931   6.306 -0.6180 -0.7723 -2.3986
   11SAPS   C28 1381   6.235   5.023   6.377 -0.9150 -0.1918 -0.0983
   11SAPS   H8R 1382   6.167   4.955   6.323 -0.0792 -0.6882 -0.5476
   11SAPS   C29 1383   6.189   5.080   6.492 -0.3003  0.2423  0.4174
   11SAPS   H9R 1384   6.089   5.046   6.524 -1.8414  1.6926 -2.4398
   11SAPS  C210 1385   6.260   5.168   6.584 -0.8579  0.5463  0.1749
   11SAPS  H10R 1386   6.195   5.253   6.613 -0.0980  1.7723 -1.4804
   11SAPS  H10S 1387   6.353   5.211   6.541  1.8908 -0.7368  4.2335
   11SAPS  C211 1388   6.310   5.088   6.699 -0.3150 -0.2266 -0.2442
   11SAPS  H11R 1389   6.392   5.017   6.677 -0.8256 -0.7274 -0.5464
   11SAPS  C212 1390   6.267   5.105   6.827 -0.4999 -0.1622 -1.0653
   11SAPS  H12R 1391   6.328   5.048   6.899  3.3964  1.9914 -2.3864
   11SAPS  C213 1392   6.163   5.204   6.887 -0.2228 -0.1339  0.2775
   11SAPS  H13R 1393   6.166   5.303   6.837 -1.5487 -0.3424 -0.2742
   11SAPS  H13S 1394   6.188   5.225   6.993 -2.4565 -0.1752  0.8711
   11SAPS  C214 1395   6.017   5.153   6.879 -0.1377  0.1002  0.0636
   11SAPS  H14R 1396   5.953   5.178   6.793 -2.6494  0.0769  1.8028
   11SAPS  C215 1397   5.958   5.068   6.965  0.2472 -0.0321 -0.5599
   11SAPS  H15R 1398   5.849   5.054   6.968  0.3945 -1.4933  2.7499
   11SAPS  C216 1399   6.022   5.006   7.086  0.4762  0.5216  1.0704
   11SAPS  H16R 1400   6.100   5.075   7.123  1.6491 -1.5231  2.6653
   11SAPS  H16S 1401   6.077   4.914   7.059  0.6252  0.1439  2.5548
   11SAPS  C217 1402   5.924   4.989   7.209  0.9215 -0.0781 -0.0994
   11SAPS  H17R 1403   5.875   5.083   7.241  0.4478 -0.7144  1.1413
   11SAPS  H17S 1404   5.979   4.947   7.296 -0.4053  2.9720  2.4223
   11SAPS  C218 1405   5.811   4.888   7.188 -0.4125 -0.2133  0.1229
   11SAPS  H18R 1406   5.865   4.795   7.161 -0.1002 -0.1226  0.4200
   11SAPS  H18S 1407   5.746   4.927   7.107  0.8876  0.6815 -0.5415
   11SAPS  C219 1408   5.730   4.854   7.313 -0.2620 -0.5700  0.1128
   11SAPS  H19R 1409   5.701   4.946   7.367 -0.2906 -0.0893 -0.7144
   11SAPS  H19S 1410   5.791   4.798   7.388  0.8795  1.2796  0.6174
   11SAPS  C220 1411   5.606   4.765   7.291  0.1538  0.6239 -0.1522
   11SAPS  H20R 1412   5.614   4.679   7.222  0.5080  0.0639  0.5662
   11SAPS  H20S 1413   5.529   4.829   7.244 -0.7253  0.0942  0.5442
   11SAPS  H20T 1414   5.564   4.720   7.384 -0.8977  0.9817 -0.4397
   11SAPS   C33 1415   6.232   4.562   6.299 -0.2664 -0.2895 -0.5920
   11SAPS   H3X 1416   6.250   4.637   6.378 -1.8629 -0.1710 -0.3038
   11SAPS   H3Y 1417   6.301   4.602   6.222  1.3911  0.0230  0.9933
   11SAPS   C34 1418   6.277   4.424   6.325  0.0032  0.2779 -0.0354
   11SAPS   H4X 1419   6.387   4.424   6.313 -0.1047  2.0356 -1.3080
   11SAPS   H4Y 1420   6.237   4.350   6.252  0.7651  1.2371 -1.4728
   11SAPS   C35 1421   6.249   4.386   6.467 -0.2261  0.0942 -0.1664
   11SAPS   H5X 1422   6.139   4.366   6.469 -0.1401 -1.0297 -2.6482
   11SAPS   H5Y 1423   6.274   4.467   6.538  0.5905  0.3615 -0.7440
   11SAPS   C36 1424   6.326   4.250   6.503 -0.2528 -0.2354 -0.2787
   11SAPS   H6X 1425   6.436   4.258   6.491 -0.3436  0.2336 -0.8773
   11SAPS   H6Y 1426   6.286   4.163   6.446  0.1191 -0.9873  0.5967
   11SAPS   C37 1427   6.302   4.203   6.644 -0.1793 -1.0183 -0.4126
   11SAPS   H7X 1428   6.330   4.287   6.711 -0.2560  0.5511 -2.2408
   11SAPS   H7Y 1429   6.366   4.114   6.662  1.7757  0.2767 -0.6225
   11SAPS   C38 1430   6.153   4.168   6.667  0.0135  0.0497  1.0971
   11SAPS   H8X 1431   6.113   4.080   6.612 -0.3590  0.8662  0.0471
   11SAPS   H8Y 1432   6.085   4.248   6.632 -1.2266 -1.4710 -0.1206
   11SAPS   C39 1433   6.112   4.135   6.810  0.3240 -0.5394  0.1141
   11SAPS   H9X 1434   6.002   4.119   6.815  0.3728 -1.0143 -0.3246
   11SAPS   H9Y 1435   6.151   4.215   6.877  1.5957 -1.7230  0.8449
   11SAPS  C310 1436   6.175   4.002   6.855 -1.0683  0.4426 -0.3548
   11SAPS  H10X 1437   6.282   4.020   6.829 -0.8021 -0.7449 -0.1349
   11SAPS  H10Y 1438   6.139   3.930   6.779  1.1884 -0.3728 -0.7201
   11SAPS  C311 1439   6.145   3.971   6.999  0.1756  0.5192 -0.2049
   11SAPS  H11X 1440   6.162   3.863   7.019 -0.0525  0.8874  2.1937
   11SAPS  H11Y 1441   6.042   4.001   7.027  0.3412  2.0675 -1.1173
   11SAPS  C312 1442   6.246   4.049   7.086  0.0176  0.0646  0.3911
   11SAPS  H12X 1443   6.208   4.152   7.105 -2.3994 -0.2719 -2.0450
   11SAPS  H12Y 1444   6.345   4.053   7.036 -0.3567 -0.8732 -0.4550
   11SAPS  C313 1445   6.280   3.965   7.215 -0.1969 -0.4820 -0.3755
   11SAPS  H13X 1446   6.357   4.019   7.274 -0.6134  0.7994 -0.9704
   11SAPS  H13Y 1447   6.323   3.866   7.188  1.0868  0.5772 -2.5310
   11SAPS  C314 1448   6.152   3.952   7.305  0.0824  0.0804  0.0435
   11SAPS  H14X 1449   6.105   3.864   7.256  2.6833 -1.2309 -0.2584
   11SAPS  H14Y 1450   6.082   4.038   7.297 -0.6871 -0.7145 -2.9994
   11SAPS  C315 1451   6.180   3.920   7.452 -0.4614  0.0547 -0.1018
   11SAPS  H15X 1452   6.252   3.996   7.490  1.8116 -0.9386 -2.1453
   11SAPS  H15Y 1453   6.230   3.820   7.449 -1.5768 -0.5332  0.2991
   11SAPS  C316 1454   6.054   3.909   7.539  0.8423 -0.0881  0.2641
   11SAPS  H16X 1455   6.004   3.816   7.504 -1.1063  0.6641  0.9111
   11SAPS  H16Y 1456   5.983   3.992   7.515  2.6653  1.3455 -0.4031
   11SAPS  C317 1457   6.092   3.895   7.686 -0.2033 -0.0678  1.0904
   11SAPS  H17X 1458   6.153   3.988   7.690  0.1009 -0.0231 -2.1320
   11SAPS  H17Y 1459   6.156   3.804   7.682 -1.0398 -0.6468  0.5758
   11SAPS  C318 1460   5.986   3.877   7.795  0.3286  0.4766 -0.1055
   11SAPS  H18X 1461   5.905   3.807   7.767  1.1721 -1.4081  1.9032
   11SAPS  H18Y 1462   5.941   3.979   7.789 -0.9846 -0.1601 -1.8686
   11SAPS  H18Z 1463   6.032   3.867   7.896  0.0448  0.3650  0.0141
   12SAPS     N 1464   4.379   6.954   5.396 -0.0856  0.5556 -0.2110
   12SAPS   HN1 1465   4.357   6.883   5.468  1.1174 -0.8441 -1.1716
   12SAPS   HN2 1466   4.460   6.924   5.338 -1.8686 -1.5224 -1.8028
   12SAPS   HN3 1467   4.393   7.050   5.434 -0.9157 -0.1569  2.0633
   12SAPS   C12 1468   4.256   6.951   5.304 -0.1098  0.3426  0.3132
   12SAPS  H12A 1469   4.188   7.030   5.330  0.7856  0.8595  1.1735
   12SAPS   C13 1470   4.312   6.985   5.161  0.3678 -0.4207 -0.2746
   12SAPS  O13A 1471   4.431   6.959   5.133 -0.6264  0.4852 -0.6588
   12SAPS  O13B 1472   4.223   7.001   5.072 -0.1197 -0.3478 -1.0101
   12SAPS   C11 1473   4.177   6.813   5.306 -0.5394  0.1133  0.1272
   12SAPS  H11A 1474   4.250   6.732   5.288 -0.5779 -0.0267  0.5884
   12SAPS  H11B 1475   4.107   6.825   5.220 -1.1923 -1.3451  0.4184
   12SAPS     P 1476   4.007   6.661   5.437  0.3281  0.1297  0.0379
   12SAPS   O13 1477   3.914   6.674   5.546 -0.0705 -0.6927  0.8074
   12SAPS   O14 1478   3.948   6.628   5.309  0.0857 -0.1933 -0.0516
   12SAPS   O12 1479   4.100   6.790   5.422  0.5680 -0.0881 -0.2919
   12SAPS   O11 1480   4.102   6.540   5.477  0.1177  0.3907  0.0182
   12SAPS    C1 1481   4.175   6.536   5.600 -0.6068 -0.1136  0.5099
   12SAPS    HA 1482   4.204   6.636   5.639  2.6511 -1.5492  2.1783
   12SAPS    HB 1483   4.109   6.486   5.674  0.3714  0.3554  1.7399
   12SAPS    C2 1484   4.309   6.450   5.576  0.0078 -0.2742 -0.0804
   12SAPS    HS 1485   4.285   6.366   5.506 -0.2950  3.2644 -4.7080
   12SAPS   O21 1486   4.364   6.421   5.703  0.1872  0.2286  0.3489
   12SAPS   C21 1487   4.461   6.325   5.711  0.1735 -0.1660 -0.6583
   12SAPS   O22 1488   4.528   6.277   5.620  0.0895 -0.6086 -0.2496
   12SAPS   C22 1489   4.486   6.285   5.857  0.3150  0.0123 -0.1496
   12SAPS   H2R 1490   4.386   6.253   5.893  0.5980 -1.2310 -0.4204
   12SAPS   H2S 1491   4.561   6.204   5.869 -1.8999 -2.0187  0.7361
   12SAPS    C3 1492   4.416   6.533   5.494 -0.0122 -0.0565 -1.0932
   12SAPS    HX 1493   4.377   6.570   5.396 -1.5391  0.9643 -0.1494
   12SAPS    HY 1494   4.498   6.465   5.462 -0.4113 -1.0383 -0.0989
   12SAPS   O31 1495   4.457   6.652   5.560 -0.4514  0.1343  0.1329
   12SAPS   C31 1496   4.590   6.678   5.583  0.3161 -0.2287 -0.1901
   12SAPS   O32 1497   4.678   6.606   5.543  0.2921 -0.0634 -0.5844
   12SAPS   C32 1498   4.610   6.799   5.670  0.1927 -0.1796 -0.2516
   12SAPS   H2X 1499   4.546   6.784   5.759  1.1206 -0.4817  0.3852
   12SAPS   H2Y 1500   4.580   6.895   5.622 -0.6862 -0.8002 -0.9584
   12SAPS   C23 1501   4.527   6.406   5.955 -1.1823 -0.1188 -0.0467
   12SAPS   H3R 1502   4.452   6.483   5.985  0.4126  0.5106  2.6624
   12SAPS   H3S 1503   4.589   6.471   5.891 -0.7992  2.5532  2.7677
   12SAPS   C24 1504   4.611   6.364   6.081  0.2246 -0.4745  0.0022
   12SAPS   H4R 1505   4.686   6.444   6.099 -1.2892  1.1229 -0.5352
   12SAPS   H4S 1506   4.656   6.270   6.042 -0.9431  0.2017 -3.2728
   12SAPS   C25 1507   4.536   6.333   6.209  0.7506 -0.3751  0.9184
   12SAPS   H5R 1508   4.522   6.413   6.283  0.2100 -0.3314  0.7734
   12SAPS   C26 1509   4.499   6.212   6.249  0.2472 -0.5077  0.2299
   12SAPS   H6R 1510   4.449   6.205   6.347 -1.4939 -1.5218 -0.6836
   12SAPS   C27 1511   4.514   6.072   6.186 -0.4257  0.6526  0.3619
   12SAPS   H7R 1512   4.598   6.009   6.221 -0.5009 -0.4468 -1.3293
   12SAPS   H7S 1513   4.539   6.068   6.077  1.1205 -0.0479  0.7156
   12SAPS   C28 1514   4.387   5.994   6.222 -0.3960  0.0178 -1.0926
   12SAPS   H8R 1515   4.306   6.013   6.150 -0.1345  0.2676 -1.3256
   12SAPS   C29 1516   4.378   5.923   6.332  0.5853 -0.5080 -0.4948
   12SAPS   H9R 1517   4.283   5.875   6.358 -0.4972  2.2103  0.9712
   12SAPS  C210 1518   4.484   5.909   6.444 -0.7467 -0.3482 -0.0755
   12SAPS  H10R 1519   4.552   5.996   6.451  0.0744 -0.8935 -1.0141
   12SAPS  H10S 1520   4.563   5.833   6.425  2.5906  2.5718  1.0099
   12SAPS  C211 1521   4.417   5.875   6.572 -0.1210 -0.0825  0.4224
   12SAPS  H11R 1522   4.387   5.771   6.592  1.0740 -0.4081  0.5810
   12SAPS  C212 1523   4.402   5.965   6.664 -0.1432  0.1103  0.2315
   12SAPS  H12R 1524   4.366   5.930   6.762 -1.8077 -0.8920 -0.6799
   12SAPS  C213 1525   4.456   6.107   6.664  1.1318 -0.3360 -0.5278
   12SAPS  H13R 1526   4.387   6.166   6.728  0.3899 -3.2257  1.5537
   12SAPS  H13S 1527   4.444   6.154   6.564  1.1077 -0.6664 -0.6792
   12SAPS  C214 1528   4.596   6.129   6.711  0.2973 -0.0163 -0.4677
   12SAPS  H14R 1529   4.640   6.054   6.777 -1.9749 -2.4138 -1.4720
   12SAPS  C215 1530   4.667   6.237   6.689 -0.6865  0.3959  0.4026
   12SAPS  H15R 1531   4.760   6.236   6.748 -1.4707 -0.7906  1.6671
   12SAPS  C216 1532   4.632   6.361   6.610  0.0764  0.1472  0.3331
   12SAPS  H16R 1533   4.524   6.382   6.592  0.4103  1.3789 -0.3209
   12SAPS  H16S 1534   4.693   6.362   6.517  0.2101  2.3462  0.3951
   12SAPS  C217 1535   4.690   6.482   6.688  0.1326  0.2613 -0.9220
   12SAPS  H17R 1536   4.664   6.477   6.796  0.1596  1.6181 -0.8344
   12SAPS  H17S 1537   4.651   6.580   6.653 -0.7771  0.0907 -0.4126
   12SAPS  C218 1538   4.837   6.487   6.679 -1.4042  0.7346  0.4083
   12SAPS  H18R 1539   4.879   6.455   6.581  0.3909 -1.1890  1.7300
   12SAPS  H18S 1540   4.891   6.408   6.734  0.8258  1.9280  0.0530
   12SAPS  C219 1541   4.894   6.625   6.731  0.1033  0.1976 -0.4843
   12SAPS  H19R 1542   4.868   6.629   6.839  0.9265 -1.8203 -0.1620
   12SAPS  H19S 1543   4.851   6.709   6.672 -1.1952 -0.2608 -0.2333
   12SAPS  C220 1544   5.048   6.625   6.721  0.2827  0.2456 -0.2454
   12SAPS  H20R 1545   5.080   6.609   6.615 -0.9831 -0.6635 -0.5171
   12SAPS  H20S 1546   5.093   6.542   6.780 -0.6921  0.4974  0.8806
   12SAPS  H20T 1547   5.087   6.721   6.760 -0.9554  1.2443 -1.3535
   12SAPS   C33 1548   4.753   6.825   5.721  1.1622 -0.2130 -0.5011
   12SAPS   H3X 1549   4.801   6.870   5.632  0.5409 -0.7884 -1.1330
   12SAPS   H3Y 1550   4.813   6.735   5.746  0.0970 -0.6909  0.4571
   12SAPS   C34 1551   4.750   6.912   5.851  0.4823 -0.2979  0.4796
   12SAPS   H4X 1552   4.857   6.935   5.869  0.0972  1.5397  0.5821
   12SAPS   H4Y 1553   4.700   6.859   5.935 -0.9385 -0.2813 -0.3280
   12SAPS   C35 1554   4.669   7.048   5.829  0.0393  0.3298 -0.2105
   12SAPS   H5X 1555   4.559   7.044   5.840  0.2105  1.0887  2.8386
   12SAPS   H5Y 1556   4.698   7.080   5.727 -0.9248  0.3719 -0.4776
   12SAPS   C36 1557   4.719   7.152   5.927 -0.0992 -1.1809  0.1865
   12SAPS   H6X 1558   4.674   7.246   5.889  1.9718 -0.2312 -0.0544
   12SAPS   H6Y 1559   4.829   7.163   5.914 -0.0632  0.1576  1.4058
   12SAPS   C37 1560   4.678   7.117   6.071 -0.4482 -1.0686 -0.4570
   12SAPS   H7X 1561   4.737   7.036   6.119 -1.6645 -0.2349  2.6678
   12SAPS   H7Y 1562   4.569   7.095   6.069 -0.4045 -1.3124 -0.2840
   12SAPS   C38 1563   4.688   7.240   6.159  0.3525 -0.4807 -0.5921
   12SAPS   H8X 1564   4.632   7.326   6.115  0.3161  0.0614  0.4759
   12SAPS   H8Y 1565   4.797   7.266   6.164 -0.0972  1.4738  0.1061
   12SAPS   C39 1566   4.630   7.217   6.301 -0.7074 -0.4760 -0.5139
   12SAPS   H9X 1567   4.698   7.147   6.354 -0.0582 -0.6989 -1.5905
   12SAPS   H9Y 1568   4.531   7.166   6.294  0.0301 -1.8820 -1.3531
   12SAPS  C310 1569   4.628   7.355   6.373 -0.4254 -0.3696 -0.3680
   12SAPS  H10X 1570   4.568   7.423   6.308 -0.9574 -1.7203 -1.3418
   12SAPS  H10Y 1571   4.730   7.398   6.379 -1.3520  1.6940  2.1991
   12SAPS  C311 1572   4.555   7.368   6.509 -0.0667  0.1276  0.3485
   12SAPS  H11X 1573   4.626   7.329   6.586  2.4171  1.1540 -1.2993
   12SAPS  H11Y 1574   4.458   7.313   6.516  0.7116 -1.1635  1.5966
   12SAPS  C312 1575   4.525   7.515   6.532 -0.4167 -0.4101 -0.4643
   12SAPS  H12X 1576   4.448   7.550   6.461 -2.0132  0.3478  1.5607
   12SAPS  H12Y 1577   4.619   7.574   6.531 -0.0141 -1.0388 -0.5624
   12SAPS  C313 1578   4.473   7.542   6.675  0.1777 -0.2876  0.4454
   12SAPS  H13X 1579   4.543   7.499   6.750 -0.1118 -0.3910  0.6577
   12SAPS  H13Y 1580   4.378   7.484   6.679 -0.5943  0.7030 -1.5613
   12SAPS  C314 1581   4.454   7.689   6.688 -0.0282 -0.4864 -0.1656
   12SAPS  H14X 1582   4.347   7.709   6.663 -0.5382 -2.9297 -0.1554
   12SAPS  H14Y 1583   4.511   7.756   6.620  1.4243  0.4993  1.8843
   12SAPS  C315 1584   4.491   7.744   6.831 -0.5947 -0.0050  0.9182
   12SAPS  H15X 1585   4.437   7.841   6.841 -2.9796 -1.0821 -0.5506
   12SAPS  H15Y 1586   4.597   7.747   6.863 -0.7263  0.0482  1.3597
   12SAPS  C316 1587   4.428   7.670   6.951  0.6892 -0.3516  0.2000
   12SAPS  H16X 1588   4.467   7.699   7.050 -1.1970  0.7353  0.6731
   12SAPS  H16Y 1589   4.431   7.560   6.935 -2.3479 -0.2882 -1.6895
   12SAPS  C317 1590   4.277   7.699   6.981  0.5402 -0.1555  0.0756
   12SAPS  H17X 1591   4.215   7.656   6.899  2.7726  0.7025 -2.1803
   12SAPS  H17Y 1592   4.264   7.809   6.980  0.8188 -0.1241 -0.6131
   12SAPS  C318 1593   4.228   7.649   7.118  0.3387 -0.1274 -0.0488
   12SAPS  H18X 1594   4.121   7.621   7.130  0.9671 -2.2280  1.3944
   12SAPS  H18Y 1595   4.253   7.716   7.203 -1.1545 -1.7849  1.7885
   12SAPS  H18Z 1596   4.293   7.560   7.135  2.5704  1.5706  0.7905
   13SAPS     N 1597   6.692   1.996   5.266  0.1568  0.0530 -0.0660
   13SAPS   HN1 1598   6.602   1.982   5.215  0.4444 -1.9955 -0.1033
   13SAPS   HN2 1599   6.701   2.092   5.304  0.5754  0.3576 -0.9238
   13SAPS   HN3 1600   6.772   1.964   5.208 -0.7758 -4.7468  0.8135
   13SAPS   C12 1601   6.680   1.894   5.377 -0.5564  0.1487  0.0725
   13SAPS  H12A 1602   6.578   1.862   5.365  0.0212 -0.6305 -3.9550
   13SAPS   C13 1603   6.765   1.773   5.347 -0.4485 -0.4601  0.2409
   13SAPS  O13A 1604   6.845   1.774   5.250 -0.3453  0.2497 -0.0147
   13SAPS  O13B 1605   6.738   1.674   5.423  0.1088  0.1690  0.1216
   13SAPS   C11 1606   6.712   1.954   5.520 -0.3010 -0.1370  0.6291
   13SAPS  H11A 1607   6.818   1.984   5.524 -0.1305 -0.7239  0.6005
   13SAPS  H11B 1608   6.710   1.876   5.600 -2.6598  1.9426  2.7878
   13SAPS     P 1609   6.476   2.032   5.610  0.2104  0.0181  0.0761
   13SAPS   O13 1610   6.405   2.161   5.599  0.0188  0.4710  0.0335
   13SAPS   O14 1611   6.415   1.913   5.552  0.4914  0.3219  0.0335
   13SAPS   O12 1612   6.621   2.060   5.552  0.4766 -0.2539 -0.3923
   13SAPS   O11 1613   6.500   1.994   5.765  0.2022 -0.1485  0.0483
   13SAPS    C1 1614   6.539   2.084   5.868 -0.6170  0.5407  0.5031
   13SAPS    HA 1615   6.492   2.182   5.846  1.1002  0.7712 -2.6892
   13SAPS    HB 1616   6.502   2.032   5.960 -0.2110 -0.6560  0.0096
   13SAPS    C2 1617   6.693   2.100   5.880 -0.1287  0.2833  0.5276
   13SAPS    HS 1618   6.748   2.098   5.783  1.4013  0.7600  1.3511
   13SAPS   O21 1619   6.743   1.998   5.971 -0.9836 -0.0960 -0.6968
   13SAPS   C21 1620   6.874   1.977   5.961 -0.1451  0.9809  0.4160
   13SAPS   O22 1621   6.947   2.013   5.872  0.5487  0.3466  0.0750
   13SAPS   C22 1622   6.922   1.896   6.087  0.0503 -0.3106 -0.6899
   13SAPS   H2R 1623   6.835   1.890   6.156  2.3781 -0.8589  2.4866
   13SAPS   H2S 1624   6.961   1.799   6.049  1.4594  0.2771 -0.8275
   13SAPS    C3 1625   6.726   2.244   5.929 -1.1857 -0.4060  0.4352
   13SAPS    HX 1626   6.677   2.307   5.852 -1.2647 -0.9313  0.0474
   13SAPS    HY 1627   6.829   2.287   5.927 -1.3171 -0.1043 -0.2536
   13SAPS   O31 1628   6.668   2.261   6.059 -0.2976  0.1684  0.8333
   13SAPS   C31 1629   6.672   2.380   6.115 -0.4320  0.0143  0.8294
   13SAPS   O32 1630   6.707   2.481   6.057  0.3767 -0.5411 -0.2643
   13SAPS   C32 1631   6.628   2.376   6.258 -0.4254 -0.2118 -0.0228
   13SAPS   H2X 1632   6.641   2.271   6.294  0.1088 -0.4358 -0.8366
   13SAPS   H2Y 1633   6.521   2.406   6.260 -0.6800 -0.7455 -2.4631
   13SAPS   C23 1634   7.033   1.978   6.165 -0.0912  0.4237 -0.3002
   13SAPS   H3R 1635   7.113   2.012   6.095  2.2898 -0.9650  1.5656
   13SAPS   H3S 1636   7.080   1.903   6.232 -2.2342 -0.0635  0.7183
   13SAPS   C24 1637   6.980   2.107   6.227  0.7437 -0.1140  0.3115
   13SAPS   H4R 1638   6.938   2.165   6.142  1.3912 -0.4862 -0.2800
   13SAPS   H4S 1639   7.073   2.158   6.260  0.7552  0.5449 -0.6846
   13SAPS   C25 1640   6.880   2.078   6.337 -1.0588  0.0244 -0.0600
   13SAPS   H5R 1641   6.808   2.006   6.295  0.0022 -1.1712  0.0647
   13SAPS   C26 1642   6.893   2.117   6.464 -0.6917  0.1111  0.4067
   13SAPS   H6R 1643   6.819   2.076   6.534 -0.8036 -0.0301  0.2066
   13SAPS   C27 1644   6.994   2.210   6.527  0.0001 -0.1870 -0.3263
   13SAPS   H7R 1645   6.947   2.301   6.573  0.3820 -1.1946  2.2521
   13SAPS   H7S 1646   7.073   2.250   6.460  2.3494 -1.5662  1.4415
   13SAPS   C28 1647   7.045   2.141   6.648  0.0740  1.1636  0.2635
   13SAPS   H8R 1648   7.139   2.088   6.633 -0.6011  0.5428 -2.1820
   13SAPS   C29 1649   7.004   2.138   6.779 -0.0797 -0.4364 -0.0709
   13SAPS   H9R 1650   7.069   2.082   6.846  1.0618 -0.3108 -1.0355
   13SAPS  C210 1651   6.880   2.207   6.841 -1.1733  0.0227 -0.2615
   13SAPS  H10R 1652   6.871   2.305   6.790  1.7308  0.1796 -0.6417
   13SAPS  H10S 1653   6.896   2.219   6.950 -0.0219  1.4958 -0.5527
   13SAPS  C211 1654   6.761   2.120   6.809  0.2572  0.4464 -0.0298
   13SAPS  H11R 1655   6.776   2.040   6.736 -0.8861 -0.8262  1.0603
   13SAPS  C212 1656   6.633   2.132   6.855  0.0634 -0.6345 -0.3095
   13SAPS  H12R 1657   6.553   2.069   6.813 -0.4936 -1.1844  1.4802
   13SAPS  C213 1658   6.585   2.238   6.961 -0.2687 -0.1951 -0.5606
   13SAPS  H13R 1659   6.558   2.330   6.905  0.3792 -1.1494 -2.5467
   13SAPS  H13S 1660   6.673   2.274   7.019 -0.7140  0.9326 -0.5586
   13SAPS  C214 1661   6.470   2.209   7.056 -0.8437 -0.0180 -0.6317
   13SAPS  H14R 1662   6.380   2.269   7.036  0.4828  1.8118 -1.3801
   13SAPS  C215 1663   6.463   2.119   7.157  0.5189  0.3793 -0.0890
   13SAPS  H15R 1664   6.361   2.090   7.184  0.5066  1.5672  1.2409
   13SAPS  C216 1665   6.585   2.032   7.198 -0.2559 -0.2531 -0.5338
   13SAPS  H16R 1666   6.682   2.066   7.155 -0.0034  1.4764  1.2944
   13SAPS  H16S 1667   6.587   1.924   7.170  0.7146 -0.1776 -0.8054
   13SAPS  C217 1668   6.596   2.028   7.354  0.1553  0.0051 -0.2475
   13SAPS  H17R 1669   6.633   2.120   7.404 -2.0039  0.0543  1.4224
   13SAPS  H17S 1670   6.677   1.955   7.376 -0.4719 -0.2484  1.3219
   13SAPS  C218 1671   6.476   1.982   7.429  0.3784 -0.3369 -0.5171
   13SAPS  H18R 1672   6.520   1.931   7.518 -0.8259 -2.2719 -0.9594
   13SAPS  H18S 1673   6.409   1.919   7.367 -2.8609 -1.3111  3.5127
   13SAPS  C219 1674   6.395   2.096   7.493 -0.0917 -0.4972 -0.2557
   13SAPS  H19R 1675   6.332   2.153   7.422 -0.4446 -0.5440  0.0159
   13SAPS  H19S 1676   6.461   2.171   7.541 -0.0245 -0.5259 -0.3053
   13SAPS  C220 1677   6.297   2.036   7.596  0.3483  0.2878 -0.1278
   13SAPS  H20R 1678   6.342   1.970   7.673  2.7003  1.0146 -0.7823
   13SAPS  H20S 1679   6.228   1.971   7.539 -2.9886  0.7805  2.9796
   13SAPS  H20T 1680   6.236   2.113   7.647 -1.6386 -1.9699  1.1220
   13SAPS   C33 1681   6.720   2.459   6.352  0.7747 -0.4980 -0.5441
   13SAPS   H3X 1682   6.711   2.562   6.311  1.0581 -0.4745 -0.5475
   13SAPS   H3Y 1683   6.828   2.436   6.340  0.7772 -1.0279  0.3728
   13SAPS   C34 1684   6.682   2.471   6.503 -0.0506  0.6397 -0.3662
   13SAPS   H4X 1685   6.706   2.369   6.541 -1.5434  1.0445  1.8556
   13SAPS   H4Y 1686   6.571   2.468   6.510 -0.1388  0.4075 -1.6796
   13SAPS   C35 1687   6.742   2.599   6.565  0.3838  0.1553  0.5196
   13SAPS   H5X 1688   6.710   2.685   6.501 -0.4590 -0.7382 -0.3015
   13SAPS   H5Y 1689   6.851   2.587   6.547  0.6225  1.1617  1.2149
   13SAPS   C36 1690   6.716   2.627   6.712 -0.3770  0.8072  0.4281
   13SAPS   H6X 1691   6.751   2.537   6.767 -1.4977 -0.6570 -1.1811
   13SAPS   H6Y 1692   6.608   2.633   6.738  0.1023  0.1796  2.8664
   13SAPS   C37 1693   6.787   2.755   6.758 -0.6143  0.0890 -0.4273
   13SAPS   H7X 1694   6.725   2.839   6.718 -2.3611 -0.3342  1.2774
   13SAPS   H7Y 1695   6.890   2.773   6.720 -0.4842  0.8216  0.2464
   13SAPS   C38 1696   6.791   2.780   6.913  0.3914  0.4684 -0.4608
   13SAPS   H8X 1697   6.817   2.691   6.974 -0.9460  2.4079  3.2176
   13SAPS   H8Y 1698   6.696   2.820   6.954  1.5736  1.6499  1.2579
   13SAPS   C39 1699   6.891   2.890   6.959  0.1941 -0.3170  0.4737
   13SAPS   H9X 1700   6.853   2.985   6.916  1.0361 -1.0063 -2.0081
   13SAPS   H9Y 1701   6.987   2.870   6.906 -1.1762  0.3446 -2.4894
   13SAPS  C310 1702   6.919   2.866   7.105 -0.0775 -0.5046 -0.5090
   13SAPS  H10X 1703   6.942   2.763   7.137 -0.2620 -0.5259 -0.4419
   13SAPS  H10Y 1704   6.826   2.907   7.151 -0.5801 -0.6009 -1.4180
   13SAPS  C311 1705   7.032   2.958   7.176  0.3587  0.4100  0.0933
   13SAPS  H11X 1706   7.126   2.933   7.121  0.2707  0.1390  0.0618
   13SAPS  H11Y 1707   7.046   2.913   7.276 -1.0249 -0.3659 -0.0372
   13SAPS  C312 1708   7.001   3.105   7.171 -0.5679  0.3072 -0.4553
   13SAPS  H12X 1709   6.893   3.122   7.192 -0.3197  1.3720  0.0739
   13SAPS  H12Y 1710   7.023   3.153   7.074  1.3136  0.8631  0.1966
   13SAPS  C313 1711   7.090   3.195   7.273  0.6091  0.5337  0.8580
   13SAPS  H13X 1712   7.069   3.304   7.261  0.1510  0.3413 -0.2441
   13SAPS  H13Y 1713   7.198   3.181   7.254  0.8150  0.4917  1.9732
   13SAPS  C314 1714   7.067   3.149   7.423 -0.5290 -0.1375 -0.1786
   13SAPS  H14X 1715   7.122   3.053   7.424  0.4533  0.4041 -0.5235
   13SAPS  H14Y 1716   6.963   3.119   7.447  0.5605 -3.6069  0.7191
   13SAPS  C315 1717   7.135   3.238   7.530 -0.4358  0.1333  0.0300
   13SAPS  H15X 1718   7.087   3.338   7.524  1.1453  0.8590 -1.2327
   13SAPS  H15Y 1719   7.240   3.248   7.495 -0.2692 -0.5846  0.3205
   13SAPS  C316 1720   7.124   3.179   7.662 -0.9417 -0.0071 -0.5140
   13SAPS  H16X 1721   7.143   3.070   7.648  0.4695  0.0551  0.6394
   13SAPS  H16Y 1722   7.027   3.197   7.714  0.3865  1.3546  1.6549
   13SAPS  C317 1723   7.230   3.235   7.761  0.2953  0.2391 -0.1658
   13SAPS  H17X 1724   7.323   3.186   7.726  1.7083  3.1274 -0.7652
   13SAPS  H17Y 1725   7.206   3.206   7.866  2.2993 -0.5014  0.1273
   13SAPS  C318 1726   7.259   3.388   7.762 -0.8806  0.2309 -0.0476
   13SAPS  H18X 1727   7.267   3.435   7.662  0.1039 -0.2957 -0.2215
   13SAPS  H18Y 1728   7.347   3.405   7.827 -2.7325  1.3332  2.3584
   13SAPS  H18Z 1729   7.175   3.440   7.814  0.1421  2.3723 -0.4619
   14SAPS     N 1730   6.671   6.105   5.077  0.5060  0.1254  0.0415
   14SAPS   HN1 1731   6.640   6.071   5.171 -0.5634 -0.9443 -0.6584
   14SAPS   HN2 1732   6.728   6.191   5.086  0.9543 -0.2447  0.8643
   14SAPS   HN3 1733   6.585   6.117   5.020 -0.1874  0.7064  1.1780
   14SAPS   C12 1734   6.753   6.001   5.023  0.7457 -0.0020 -0.1881
   14SAPS  H12A 1735   6.741   6.002   4.916 -0.4000 -0.6538 -0.0770
   14SAPS   C13 1736   6.908   6.006   5.040  0.2436 -0.0284 -0.5925
   14SAPS  O13A 1737   6.963   6.097   5.106  0.6066  0.1046  0.1372
   14SAPS  O13B 1738   6.975   5.905   5.011  0.3858  0.3160  0.0901
   14SAPS   C11 1739   6.700   5.863   5.070 -0.1141  0.2988 -0.2257
   14SAPS  H11A 1740   6.736   5.787   4.998 -4.2030 -1.3523 -0.7948
   14SAPS  H11B 1741   6.590   5.869   5.058 -0.1125  0.4486 -0.1638
   14SAPS     P 1742   6.669   5.884   5.327  0.2326 -0.1456 -0.0386
   14SAPS   O13 1743   6.768   5.960   5.406 -0.5864  0.0389  0.2282
   14SAPS   O14 1744   6.554   5.963   5.282 -0.0157 -0.2724 -0.1936
   14SAPS   O12 1745   6.741   5.819   5.197 -0.3697 -0.1105 -0.4448
   14SAPS   O11 1746   6.626   5.749   5.406  0.1551 -0.9714  0.2004
   14SAPS    C1 1747   6.492   5.719   5.443 -0.2618 -0.7653  0.3897
   14SAPS    HA 1748   6.426   5.744   5.357  0.7695  0.2355 -0.1366
   14SAPS    HB 1749   6.480   5.610   5.460  0.3312 -1.0481 -0.8810
   14SAPS    C2 1750   6.447   5.797   5.566 -0.5863 -0.4879 -1.3974
   14SAPS    HS 1751   6.428   5.905   5.549 -1.3901 -0.0554  1.5629
   14SAPS   O21 1752   6.540   5.790   5.678 -0.4795  0.0395  0.0233
   14SAPS   C21 1753   6.557   5.909   5.747 -0.2543  0.0275  0.1090
   14SAPS   O22 1754   6.497   6.011   5.728  0.0170 -0.4639  0.5780
   14SAPS   C22 1755   6.650   5.888   5.857  0.0497 -0.5429  0.8490
   14SAPS   H2R 1756   6.748   5.847   5.823  0.9400  1.4411  0.8739
   14SAPS   H2S 1757   6.677   5.983   5.909 -0.6970 -0.0653  0.3855
   14SAPS    C3 1758   6.310   5.756   5.623 -0.1779  0.8433  0.4347
   14SAPS    HX 1759   6.324   5.654   5.664 -0.4007  0.3551 -0.6781
   14SAPS    HY 1760   6.243   5.748   5.535  0.7791 -0.0715 -0.2360
   14SAPS   O31 1761   6.264   5.839   5.728 -0.1662 -0.0686 -0.2011
   14SAPS   C31 1762   6.198   5.953   5.691 -0.2790  0.2189  0.7058
   14SAPS   O32 1763   6.164   5.973   5.572 -0.0974 -0.7516  0.0260
   14SAPS   C32 1764   6.188   6.048   5.809 -0.1262 -0.4846 -0.4414
   14SAPS   H2X 1765   6.288   6.076   5.847 -0.2800  0.1385 -0.4904
   14SAPS   H2Y 1766   6.134   5.993   5.890  0.3355 -0.0060  0.1965
   14SAPS   C23 1767   6.603   5.796   5.974  0.5212 -0.5908 -0.3745
   14SAPS   H3R 1768   6.683   5.769   6.046  1.3223 -1.1460 -1.4425
   14SAPS   H3S 1769   6.579   5.698   5.928  1.2315 -0.9088 -0.0906
   14SAPS   C24 1770   6.480   5.847   6.045  0.1360  0.3082  0.7243
   14SAPS   H4R 1771   6.444   5.771   6.118  1.2631 -0.6968  0.2653
   14SAPS   H4S 1772   6.388   5.852   5.983 -0.3705 -2.3440  1.1414
   14SAPS   C25 1773   6.498   5.981   6.103 -1.2807 -0.6083  0.1487
   14SAPS   H5R 1774   6.483   6.067   6.036 -0.4014  1.5054  2.5091
   14SAPS   C26 1775   6.525   6.017   6.231  0.2960  0.2426 -0.0242
   14SAPS   H6R 1776   6.553   6.122   6.247 -0.4285  0.8764 -2.5100
   14SAPS   C27 1777   6.542   5.922   6.352  0.5631  0.4395 -0.2586
   14SAPS   H7R 1778   6.533   5.816   6.321  0.2242  0.9677 -2.1413
   14SAPS   H7S 1779   6.457   5.950   6.418  0.4891 -0.8298  0.2002
   14SAPS   C28 1780   6.664   5.931   6.440  1.0933 -0.5285 -0.4492
   14SAPS   H8R 1781   6.760   5.944   6.387  1.5210 -0.5788  0.2930
   14SAPS   C29 1782   6.668   5.927   6.574  0.3827  0.4460 -0.2547
   14SAPS   H9R 1783   6.767   5.943   6.619  0.7770 -2.6425  0.2296
   14SAPS  C210 1784   6.542   5.914   6.657 -0.0702 -0.5928 -0.3615
   14SAPS  H10R 1785   6.524   5.804   6.650 -0.4486 -0.6965  1.7204
   14SAPS  H10S 1786   6.455   5.977   6.627 -0.0008  1.0544  2.5682
   14SAPS  C211 1787   6.570   5.959   6.798  0.6599  0.2276 -0.1583
   14SAPS  H11R 1788   6.675   5.973   6.825  0.8519  1.3323 -1.3678
   14SAPS  C212 1789   6.483   6.012   6.894 -0.1167  0.5197  0.0496
   14SAPS  H12R 1790   6.521   6.043   6.992 -0.1673  0.3906  0.1107
   14SAPS  C213 1791   6.333   6.035   6.885  0.2971  0.0927 -0.2409
   14SAPS  H13R 1792   6.279   5.982   6.967  1.7647  0.1725  0.8078
   14SAPS  H13S 1793   6.300   5.985   6.792 -0.1998 -2.0360  1.0291
   14SAPS  C214 1794   6.277   6.178   6.882 -0.2335  0.2095 -0.5075
   14SAPS  H14R 1795   6.337   6.258   6.835 -1.7706  1.7541  0.0383
   14SAPS  C215 1796   6.155   6.209   6.919  0.8903 -0.2426  0.0289
   14SAPS  H15R 1797   6.123   6.314   6.908  0.5269 -0.5255 -2.0039
   14SAPS  C216 1798   6.038   6.117   6.981 -0.6689 -0.4445  0.1666
   14SAPS  H16R 1799   6.046   6.007   6.970 -2.0640 -0.8061  2.2070
   14SAPS  H16S 1800   5.937   6.152   6.950 -0.2585 -0.3214 -1.0609
   14SAPS  C217 1801   6.058   6.123   7.130  0.3456  0.0552  0.5406
   14SAPS  H17R 1802   6.057   6.230   7.158 -1.3342 -0.3970  2.4675
   14SAPS  H17S 1803   6.147   6.066   7.162  0.7838  1.4113  1.8244
   14SAPS  C218 1804   5.930   6.071   7.203 -0.2948  0.1953 -0.7031
   14SAPS  H18R 1805   5.905   5.972   7.160  2.2945 -1.6584  1.7273
   14SAPS  H18S 1806   5.840   6.137   7.194 -0.5989 -0.0629  0.3195
   14SAPS  C219 1807   5.943   6.055   7.359 -0.2521  0.3078 -0.4066
   14SAPS  H19R 1808   5.844   6.019   7.394  0.8555 -2.3717  0.2034
   14SAPS  H19S 1809   5.961   6.158   7.396  0.9471  0.2830 -0.8724
   14SAPS  C220 1810   6.054   5.956   7.399 -0.6510  0.0475  0.0206
   14SAPS  H20R 1811   6.034   5.929   7.505  0.0595 -0.9007 -0.0796
   14SAPS  H20S 1812   6.153   6.001   7.378 -0.7293 -0.1343 -0.7553
   14SAPS  H20T 1813   6.058   5.857   7.348 -0.5934 -0.2038  0.5026
   14SAPS   C33 1814   6.103   6.171   5.780  0.2586 -0.1205  0.4273
   14SAPS   H3X 1815   6.026   6.148   5.703  0.2266  0.0747  0.3999
   14SAPS   H3Y 1816   6.162   6.253   5.733  1.1594 -0.0435  1.6340
   14SAPS   C34 1817   6.038   6.233   5.907 -0.4020  0.5718 -0.0500
   14SAPS   H4X 1818   5.983   6.153   5.959  0.5232  0.1650  0.3199
   14SAPS   H4Y 1819   5.963   6.310   5.878 -2.1444 -0.6677  0.9824
   14SAPS   C35 1820   6.138   6.287   6.014 -0.3847  0.3841  0.7864
   14SAPS   H5X 1821   6.206   6.362   5.969 -1.5414  1.7082  1.1827
   14SAPS   H5Y 1822   6.200   6.198   6.040 -2.8647 -0.9614  2.4549
   14SAPS   C36 1823   6.076   6.367   6.129  0.3760  0.5054 -0.6193
   14SAPS   H6X 1824   5.994   6.309   6.179  0.8949  1.3701  1.3253
   14SAPS   H6Y 1825   6.023   6.457   6.091 -1.3682  0.0072  0.4749
   14SAPS   C37 1826   6.173   6.384   6.242  0.2519  0.0432  0.2355
   14SAPS   H7X 1827   6.248   6.459   6.210  0.7075 -0.4110  0.2366
   14SAPS   H7Y 1828   6.217   6.285   6.263 -0.3088 -0.2347  0.1293
   14SAPS   C38 1829   6.098   6.438   6.365 -0.1943 -0.4875  0.3224
   14SAPS   H8X 1830   5.998   6.393   6.376 -1.4429  1.6019 -1.5414
   14SAPS   H8Y 1831   6.083   6.548   6.356 -3.2566 -0.7461  1.1719
   14SAPS   C39 1832   6.185   6.421   6.492 -0.0396  0.6519 -0.4746
   14SAPS   H9X 1833   6.285   6.469   6.489  0.2516  0.1202  0.2299
   14SAPS   H9Y 1834   6.205   6.312   6.496  0.8224  0.8162 -0.1859
   14SAPS  C310 1835   6.116   6.460   6.622  0.1055  0.1307 -1.2489
   14SAPS  H10X 1836   6.133   6.393   6.710 -0.6219 -0.7229 -1.7393
   14SAPS  H10Y 1837   6.007   6.460   6.601  0.0702  0.6428 -1.0610
   14SAPS  C311 1838   6.157   6.595   6.674 -0.8786 -0.2377  0.2158
   14SAPS  H11X 1839   6.084   6.666   6.631  0.6783  1.0873 -0.3532
   14SAPS  H11Y 1840   6.259   6.629   6.644 -0.7117  0.3781  1.4087
   14SAPS  C312 1841   6.149   6.610   6.827  0.5530 -0.0119  0.0330
   14SAPS  H12X 1842   6.227   6.544   6.870 -0.9371 -2.6245 -1.0340
   14SAPS  H12Y 1843   6.049   6.583   6.868  0.9083  1.5110  2.0728
   14SAPS  C313 1844   6.164   6.750   6.869 -0.0754 -0.0656  0.6177
   14SAPS  H13X 1845   6.108   6.802   6.789 -0.6335 -0.4463  0.7464
   14SAPS  H13Y 1846   6.270   6.782   6.872  0.0714 -0.3631  4.4017
   14SAPS  C314 1847   6.104   6.787   7.000  0.5925 -0.0463  0.0315
   14SAPS  H14X 1848   5.996   6.761   7.002  0.5482 -0.0659 -1.4436
   14SAPS  H14Y 1849   6.120   6.896   7.016 -0.1231  0.0105  0.4169
   14SAPS  C315 1850   6.162   6.704   7.114  0.0311  0.4553 -0.0659
   14SAPS  H15X 1851   6.159   6.764   7.208 -2.4912  1.8330 -0.9115
   14SAPS  H15Y 1852   6.268   6.691   7.082 -0.3098 -0.8251 -0.7355
   14SAPS  C316 1853   6.091   6.574   7.153 -0.3679 -0.5141 -0.0616
   14SAPS  H16X 1854   6.145   6.529   7.239  1.4761  0.8503 -0.4439
   14SAPS  H16Y 1855   6.091   6.497   7.072 -0.7782  0.1721 -0.7228
   14SAPS  C317 1856   5.950   6.591   7.207 -0.1512 -0.2895 -0.9038
   14SAPS  H17X 1857   5.892   6.630   7.121 -1.1865 -1.8033 -0.9256
   14SAPS  H17Y 1858   5.935   6.663   7.290  0.1779 -2.0798  0.7941
   14SAPS  C318 1859   5.882   6.458   7.234  0.6406 -0.5273  0.6584
   14SAPS  H18X 1860   5.776   6.473   7.263  0.8263 -0.5935  1.3947
   14SAPS  H18Y 1861   5.937   6.411   7.318  0.9001  0.9191  1.3201
   14SAPS  H18Z 1862   5.884   6.393   7.144 -1.3289  0.2963 -0.0459
   15SAPS     N 1863   7.039   5.850   5.272  0.0355 -0.0773 -0.4302
   15SAPS   HN1 1864   6.960   5.819   5.332  0.7602 -0.1105  0.5287
   15SAPS   HN2 1865   7.081   5.916   5.341 -0.4756 -0.5146  0.3202
   15SAPS   HN3 1866   7.007   5.894   5.183 -0.5694  0.1715 -0.0999
   15SAPS   C12 1867   7.139   5.742   5.249  0.1473 -0.2049 -0.4963
   15SAPS  H12A 1868   7.084   5.682   5.179  0.9091 -0.9597 -0.4677
   15SAPS   C13 1869   7.277   5.793   5.200 -0.2891  0.1732  0.3475
   15SAPS  O13A 1870   7.293   5.917   5.175  0.1181  0.1799  0.4012
   15SAPS  O13B 1871   7.368   5.708   5.185 -0.2453 -1.0796  0.4075
   15SAPS   C11 1872   7.146   5.662   5.390 -0.5854 -0.0630  0.1235
   15SAPS  H11A 1873   7.206   5.718   5.464  0.0886 -1.3231  0.5609
   15SAPS  H11B 1874   7.208   5.571   5.373 -0.7430  0.0205 -0.9901
   15SAPS     P 1875   6.998   5.572   5.595  0.2605  0.3824 -0.2622
   15SAPS   O13 1876   6.906   5.669   5.658 -0.2479  0.7949 -0.3092
   15SAPS   O14 1877   6.958   5.429   5.584 -0.1300  0.7809 -0.7187
   15SAPS   O12 1878   7.016   5.630   5.447  0.5559 -0.5335 -0.2951
   15SAPS   O11 1879   7.140   5.594   5.670  0.2150 -0.7094 -0.1740
   15SAPS    C1 1880   7.242   5.507   5.645 -0.3773  0.2922 -0.7857
   15SAPS    HA 1881   7.211   5.406   5.610 -0.2677  0.2825 -0.8545
   15SAPS    HB 1882   7.323   5.550   5.582  2.3866 -2.6698  0.4284
   15SAPS    C2 1883   7.315   5.469   5.784  0.7684  0.1328 -0.5138
   15SAPS    HS 1884   7.416   5.433   5.755  1.6814  2.3548 -0.3083
   15SAPS   O21 1885   7.229   5.381   5.869 -0.5887 -0.6123 -0.1204
   15SAPS   C21 1886   7.232   5.263   5.817  0.1288  0.1518 -0.0059
   15SAPS   O22 1887   7.315   5.219   5.738 -0.4181  0.0176 -0.5826
   15SAPS   C22 1888   7.122   5.181   5.874  0.0911  0.4706  0.7093
   15SAPS   H2R 1889   7.028   5.187   5.814  0.8245 -3.8518 -1.2342
   15SAPS   H2S 1890   7.155   5.076   5.860 -1.0577  0.0017  1.3368
   15SAPS    C3 1891   7.349   5.602   5.857 -1.1756  0.3243  0.2769
   15SAPS    HX 1892   7.263   5.671   5.873  0.4788  2.1109  2.0751
   15SAPS    HY 1893   7.414   5.653   5.783  1.5926 -1.9373  0.9575
   15SAPS   O31 1894   7.428   5.580   5.976  0.4290 -0.2221 -0.3173
   15SAPS   C31 1895   7.497   5.688   6.012  0.1928  0.1140 -0.6187
   15SAPS   O32 1896   7.533   5.781   5.940  0.4963 -0.2106  0.4062
   15SAPS   C32 1897   7.525   5.675   6.160  0.5068  0.6687 -1.2453
   15SAPS   H2X 1898   7.628   5.711   6.181 -0.1472  1.5848  0.7255
   15SAPS   H2Y 1899   7.524   5.565   6.175 -0.7988  1.0000  1.9971
   15SAPS   C23 1900   7.079   5.198   6.020 -0.0141  0.2476 -0.3479
   15SAPS   H3R 1901   6.983   5.143   6.027 -1.7877  3.0430 -1.0114
   15SAPS   H3S 1902   7.046   5.304   6.030  0.9355  0.4031  1.6364
   15SAPS   C24 1903   7.176   5.153   6.123 -0.8928  0.5046 -0.6121
   15SAPS   H4R 1904   7.273   5.204   6.109 -0.3570 -0.7399 -1.6339
   15SAPS   H4S 1905   7.200   5.047   6.100 -1.9435  0.1530 -0.1488
   15SAPS   C25 1906   7.123   5.170   6.261  0.1147  0.3473  0.9481
   15SAPS   H5R 1907   7.091   5.082   6.318  0.6650  0.2678  1.1498
   15SAPS   C26 1908   7.119   5.284   6.330  0.5964 -0.5014  0.3656
   15SAPS   H6R 1909   7.082   5.280   6.433 -0.5311 -0.2199 -0.0003
   15SAPS   C27 1910   7.157   5.424   6.287  0.6160  0.0900  0.2803
   15SAPS   H7R 1911   7.182   5.421   6.179 -1.4846 -1.9334 -0.2267
   15SAPS   H7S 1912   7.253   5.457   6.333  1.6692  0.3254 -1.9512
   15SAPS   C28 1913   7.058   5.538   6.313 -0.2353  0.6795  0.0744
   15SAPS   H8R 1914   7.045   5.564   6.419  0.8861 -2.7272  1.1856
   15SAPS   C29 1915   6.994   5.616   6.217 -0.3396  0.5047  0.2159
   15SAPS   H9R 1916   6.932   5.704   6.239 -0.5787  0.8645 -1.7271
   15SAPS  C210 1917   7.015   5.596   6.073 -0.1455  0.1635  0.1674
   15SAPS  H10R 1918   6.975   5.499   6.037  0.3242  0.2402 -0.5663
   15SAPS  H10S 1919   7.126   5.590   6.063  0.0464 -1.0724  2.3774
   15SAPS  C211 1920   6.971   5.711   5.980  0.2873  0.0495  0.2522
   15SAPS  H11R 1921   6.899   5.671   5.907 -1.1103 -0.5283  1.9074
   15SAPS  C212 1922   7.001   5.840   5.997 -0.5388 -0.0966 -0.6868
   15SAPS  H12R 1923   6.975   5.904   5.912 -0.7533 -0.4566 -0.8904
   15SAPS  C213 1924   7.091   5.900   6.109  0.2076  0.1708 -0.9651
   15SAPS  H13R 1925   7.162   5.821   6.142 -0.4794 -0.3620 -0.7233
   15SAPS  H13S 1926   7.016   5.917   6.188 -1.3772 -0.1487 -2.3309
   15SAPS  C214 1927   7.165   6.025   6.080 -0.0963  0.0657  0.2587
   15SAPS  H14R 1928   7.264   6.018   6.034  0.6745  2.3658  1.4223
   15SAPS  C215 1929   7.134   6.155   6.102 -0.0329 -0.3664  0.3401
   15SAPS  H15R 1930   7.207   6.235   6.082 -0.1521 -0.1371  0.8232
   15SAPS  C216 1931   7.009   6.211   6.157  0.4855 -0.0239 -0.1277
   15SAPS  H16R 1932   6.931   6.133   6.157  0.2859  0.1738 -0.1122
   15SAPS  H16S 1933   6.963   6.294   6.099 -0.4628  2.3041  3.5984
   15SAPS  C217 1934   7.034   6.257   6.305  0.3166 -0.1786 -0.2195
   15SAPS  H17R 1935   6.933   6.296   6.329  0.8784  0.9560  0.3674
   15SAPS  H17S 1936   7.113   6.336   6.302 -0.2015  0.3142 -2.9735
   15SAPS  C218 1937   7.061   6.138   6.400 -0.5066 -0.0618  0.6048
   15SAPS  H18R 1938   7.154   6.093   6.358  0.8600  1.6223  1.6772
   15SAPS  H18S 1939   6.985   6.058   6.390 -0.3474 -0.4813  2.3432
   15SAPS  C219 1940   7.096   6.186   6.540  0.1253 -0.7278 -0.5960
   15SAPS  H19R 1941   7.191   6.244   6.529  0.4113 -1.5869 -3.4682
   15SAPS  H19S 1942   7.124   6.113   6.619  2.2170  2.1227  1.5305
   15SAPS  C220 1943   6.985   6.264   6.608  0.5366 -0.6207  0.1748
   15SAPS  H20R 1944   7.021   6.316   6.699  2.5166  0.8440 -1.3660
   15SAPS  H20S 1945   6.907   6.198   6.651 -0.7066  1.4518  1.2817
   15SAPS  H20T 1946   6.933   6.332   6.536  0.6382  0.7900  1.3845
   15SAPS   C33 1947   7.410   5.729   6.244  0.1546 -0.3657 -0.1541
   15SAPS   H3X 1948   7.318   5.669   6.226 -1.3050  1.3780  1.1289
   15SAPS   H3Y 1949   7.381   5.827   6.200 -1.0352 -1.0429 -0.9394
   15SAPS   C34 1950   7.444   5.729   6.387  0.2029 -0.1503  0.0182
   15SAPS   H4X 1951   7.539   5.781   6.413 -0.1358 -0.7407  2.7066
   15SAPS   H4Y 1952   7.460   5.622   6.409 -0.2735 -0.7478 -2.2521
   15SAPS   C35 1953   7.327   5.782   6.473  0.2853  0.1115 -0.3646
   15SAPS   H5X 1954   7.260   5.695   6.489  0.7787 -0.7516 -2.5354
   15SAPS   H5Y 1955   7.281   5.872   6.427  1.8885  1.1614  0.0234
   15SAPS   C36 1956   7.379   5.828   6.608  0.5390 -0.2250 -0.1131
   15SAPS   H6X 1957   7.293   5.862   6.669  1.5885 -0.5826  1.6268
   15SAPS   H6Y 1958   7.441   5.918   6.592  1.1373 -0.8723 -1.6478
   15SAPS   C37 1959   7.477   5.730   6.678 -0.4284  0.2110  0.5022
   15SAPS   H7X 1960   7.569   5.735   6.616 -0.9175  0.0072 -0.2532
   15SAPS   H7Y 1961   7.441   5.625   6.671  1.8795 -0.7236  1.3924
   15SAPS   C38 1962   7.513   5.757   6.823  0.0646 -0.1473 -0.0636
   15SAPS   H8X 1963   7.535   5.865   6.837  0.6811 -0.3157  0.3104
   15SAPS   H8Y 1964   7.605   5.701   6.851  0.3875  0.3811 -0.0683
   15SAPS   C39 1965   7.404   5.697   6.909 -0.0201  0.2388  0.2308
   15SAPS   H9X 1966   7.374   5.600   6.865  1.2731  0.3324 -0.9411
   15SAPS   H9Y 1967   7.321   5.771   6.907 -0.8558 -0.6934 -1.5974
   15SAPS  C310 1968   7.435   5.664   7.055 -0.0867  0.0863  0.1596
   15SAPS  H10X 1969   7.492   5.750   7.097  2.5874  0.0745 -2.9995
   15SAPS  H10Y 1970   7.510   5.581   7.052 -0.2217 -0.0162 -0.8179
   15SAPS  C311 1971   7.310   5.631   7.146 -0.7773  0.1271  0.1419
   15SAPS  H11X 1972   7.259   5.541   7.107  1.7143 -1.4426  0.3306
   15SAPS  H11Y 1973   7.241   5.718   7.133 -1.2480 -0.4695 -1.5939
   15SAPS  C312 1974   7.352   5.630   7.295 -0.2601  0.8940 -0.3153
   15SAPS  H12X 1975   7.444   5.691   7.309  1.4031 -0.9858 -2.3638
   15SAPS  H12Y 1976   7.387   5.527   7.318  2.4717  1.3856 -1.7724
   15SAPS  C313 1977   7.237   5.662   7.393  0.4886 -0.4561 -0.5373
   15SAPS  H13X 1978   7.179   5.751   7.361 -0.5924 -0.7311  0.5887
   15SAPS  H13Y 1979   7.272   5.672   7.498  1.2417 -1.1522 -0.7026
   15SAPS  C314 1980   7.144   5.539   7.390 -0.0280 -0.3196 -0.6243
   15SAPS  H14X 1981   7.210   5.457   7.426 -1.3967 -0.8640  0.7463
   15SAPS  H14Y 1982   7.121   5.508   7.286 -0.8308 -1.2527 -0.1880
   15SAPS  C315 1983   7.022   5.550   7.481  0.3462 -0.5546 -0.8208
   15SAPS  H15X 1984   7.055   5.598   7.575 -1.1276  0.7934 -0.9434
   15SAPS  H15Y 1985   6.975   5.450   7.494 -0.2839 -0.1719 -0.0953
   15SAPS  C316 1986   6.908   5.645   7.438 -0.0075  0.1094  0.6544
   15SAPS  H16X 1987   6.816   5.584   7.427 -0.0976  0.0549  1.6262
   15SAPS  H16Y 1988   6.921   5.699   7.342  0.3490 -0.0562  0.6080
   15SAPS  C317 1989   6.874   5.747   7.549 -0.6285  0.1956 -0.9394
   15SAPS  H17X 1990   6.964   5.803   7.582 -0.1267 -0.5208 -1.0924
   15SAPS  H17Y 1991   6.847   5.690   7.640  1.5458 -1.0173 -0.9949
   15SAPS  C318 1992   6.763   5.840   7.521  0.3895 -0.4811  0.4564
   15SAPS  H18X 1993   6.664   5.794   7.500 -0.6874  2.3264 -1.2142
   15SAPS  H18Y 1994   6.790   5.894   7.428 -1.4220  1.2995  0.9111
   15SAPS  H18Z 1995   6.743   5.915   7.600  0.0428 -0.8225  0.6988
   16SAPS     N 1996   7.144   0.409   5.510  0.4099  0.5776  0.0697
   16SAPS   HN1 1997   7.221   0.478   5.501  0.8039  0.0646 -0.6418
   16SAPS   HN2 1998   7.064   0.441   5.568 -2.0289 -1.0221 -2.1939
   16SAPS   HN3 1999   7.188   0.326   5.555  0.1689  1.1952  1.4927
   16SAPS   C12 2000   7.103   0.361   5.371 -0.4090  0.9417  0.8426
   16SAPS  H12A 2001   7.055   0.438   5.312 -1.5251  0.0641  0.5868
   16SAPS   C13 2002   7.224   0.316   5.279  0.0270 -0.2390 -0.1438
   16SAPS  O13A 2003   7.336   0.325   5.323 -0.3965  0.3353  0.0530
   16SAPS  O13B 2004   7.211   0.260   5.168 -0.1946  0.4269  0.5061
   16SAPS   C11 2005   6.995   0.246   5.376  0.3247 -0.1376 -0.7058
   16SAPS  H11A 2006   7.049   0.159   5.419  0.7522  0.1706 -0.6208
   16SAPS  H11B 2007   6.957   0.211   5.277 -1.1290 -0.6031 -0.0193
   16SAPS     P 2008   6.782   0.162   5.496 -0.3149 -0.1691 -0.2879
   16SAPS   O13 2009   6.647   0.225   5.474 -0.0738 -0.7157 -0.1494
   16SAPS   O14 2010   6.816   0.056   5.394 -0.1852  0.0606 -0.5470
   16SAPS   O12 2011   6.886   0.280   5.467  0.2008  0.3974 -0.3960
   16SAPS   O11 2012   6.804   0.123   5.644  0.0749  0.1430  0.0427
   16SAPS    C1 2013   6.932   0.083   5.700 -0.6126 -0.7225  0.4374
   16SAPS    HA 2014   6.979  -0.002   5.645  5.0126  0.2277  3.0031
   16SAPS    HB 2015   6.999   0.170   5.682 -1.8796  0.5632  1.7443
   16SAPS    C2 2016   6.913   0.073   5.852  0.4092 -0.0668  0.2194
   16SAPS    HS 2017   7.007   0.055   5.908 -0.0918 -1.8447  0.5548
   16SAPS   O21 2018   6.830  -0.046   5.872 -0.1118  0.3313 -0.2348
   16SAPS   C21 2019   6.893  -0.162   5.864 -0.7115  0.0628 -0.2571
   16SAPS   O22 2020   7.017  -0.168   5.857  0.2040  0.0575 -0.1835
   16SAPS   C22 2021   6.804  -0.281   5.879 -0.5292 -0.0067 -0.9131
   16SAPS   H2R 2022   6.751  -0.306   5.785  0.5593 -2.3689 -0.9711
   16SAPS   H2S 2023   6.872  -0.364   5.906  0.1019  0.1175 -2.0503
   16SAPS    C3 2024   6.850   0.208   5.911  0.0820  0.4259  0.0320
   16SAPS    HX 2025   6.747   0.204   5.868  0.1132 -0.9325  0.0531
   16SAPS    HY 2026   6.906   0.299   5.879  2.1484 -0.9730 -0.5196
   16SAPS   O31 2027   6.836   0.207   6.052 -0.3034  0.7421 -0.7021
   16SAPS   C31 2028   6.946   0.222   6.128  0.2425 -0.4399 -0.4596
   16SAPS   O32 2029   7.056   0.250   6.082 -0.4575 -0.2917 -0.3687
   16SAPS   C32 2030   6.905   0.218   6.278  0.2256  0.2312  0.8027
   16SAPS   H2X 2031   6.876   0.113   6.300 -0.8235  0.0093 -1.3645
   16SAPS   H2Y 2032   6.824   0.293   6.289  0.6162  0.7360  0.2612
   16SAPS   C23 2033   6.701  -0.262   6.001 -0.7552 -0.1676 -0.5291
   16SAPS   H3R 2034   6.643  -0.352   6.032 -0.7776  0.7685  2.5578
   16SAPS   H3S 2035   6.626  -0.185   5.973 -0.1874  1.2428  1.5616
   16SAPS   C24 2036   6.761  -0.211   6.135 -0.1145 -0.4848  0.1825
   16SAPS   H4R 2037   6.686  -0.166   6.204  0.9363 -0.6518  1.4676
   16SAPS   H4S 2038   6.831  -0.128   6.112 -0.2060 -0.3268  0.4712
   16SAPS   C25 2039   6.825  -0.330   6.200  0.4248 -0.0674  0.1208
   16SAPS   H5R 2040   6.789  -0.431   6.176  1.0588 -0.4049  0.5412
   16SAPS   C26 2041   6.922  -0.322   6.290 -0.6486 -0.0829 -0.3799
   16SAPS   H6R 2042   6.966  -0.417   6.322  0.0712  0.6965  1.0435
   16SAPS   C27 2043   6.986  -0.190   6.343  0.2922  0.6076 -0.3830
   16SAPS   H7R 2044   7.014  -0.219   6.447  0.1677 -0.3838 -0.6125
   16SAPS   H7S 2045   6.920  -0.101   6.347 -1.1020 -0.4118  0.2818
   16SAPS   C28 2046   7.117  -0.152   6.276 -0.4704 -0.2032 -0.0460
   16SAPS   H8R 2047   7.125  -0.171   6.168  1.2295 -0.4660  0.1097
   16SAPS   C29 2048   7.214  -0.086   6.343 -1.2975 -0.6159  0.1565
   16SAPS   H9R 2049   7.308  -0.062   6.291 -0.9738 -1.0809  0.5167
   16SAPS  C210 2050   7.203  -0.044   6.490  0.2858 -0.4420  0.0539
   16SAPS  H10R 2051   7.099  -0.029   6.525  0.3520 -2.9267  1.5065
   16SAPS  H10S 2052   7.241   0.061   6.494 -0.1026 -0.1425 -2.5736
   16SAPS  C211 2053   7.268  -0.133   6.594  0.4385  0.3604 -0.5559
   16SAPS  H11R 2054   7.203  -0.209   6.639 -0.7236  1.8727  0.4162
   16SAPS  C212 2055   7.403  -0.116   6.618  0.5280 -0.3574 -0.2534
   16SAPS  H12R 2056   7.454  -0.202   6.665 -1.5091 -0.4278  2.0155
   16SAPS  C213 2057   7.496  -0.010   6.567  0.0949 -0.2679 -0.0313
   16SAPS  H13R 2058   7.453   0.086   6.601 -2.8354 -0.9572 -1.4371
   16SAPS  H13S 2059   7.499  -0.007   6.456 -0.2231 -1.5873 -0.0947
   16SAPS  C214 2060   7.631  -0.029   6.619  0.1896  0.3063 -0.3234
   16SAPS  H14R 2061   7.688  -0.105   6.562  0.6170  0.8672 -0.6542
   16SAPS  C215 2062   7.689   0.034   6.721 -0.5716 -0.0777 -0.2999
   16SAPS  H15R 2063   7.794   0.006   6.737  0.0954  2.3997  0.0098
   16SAPS  C216 2064   7.624   0.146   6.804  0.0719 -0.5769 -0.0931
   16SAPS  H16R 2065   7.610   0.108   6.907  1.6582 -2.9274 -0.6769
   16SAPS  H16S 2066   7.523   0.163   6.759 -0.0518  0.5631  0.5797
   16SAPS  C217 2067   7.691   0.289   6.799 -0.8813  0.5349 -0.3912
   16SAPS  H17R 2068   7.614   0.353   6.847  0.1148  0.4358  1.4589
   16SAPS  H17S 2069   7.693   0.325   6.694 -1.7932  0.8327 -0.3102
   16SAPS  C218 2070   7.838   0.312   6.839  0.0421 -0.3287 -0.6784
   16SAPS  H18R 2071   7.872   0.411   6.801  0.7156  0.0923  0.9118
   16SAPS  H18S 2072   7.891   0.230   6.787 -0.3827  0.0007 -1.6642
   16SAPS  C219 2073   7.851   0.306   6.997 -0.2409  0.1315  0.0422
   16SAPS  H19R 2074   7.812   0.207   7.028 -0.0977  0.0607 -0.0017
   16SAPS  H19S 2075   7.777   0.366   7.054 -0.8181 -0.6646  0.1544
   16SAPS  C220 2076   7.997   0.322   7.037  0.2077  0.0997 -0.1049
   16SAPS  H20R 2077   8.014   0.318   7.146 -2.7472  0.2899  0.4535
   16SAPS  H20S 2078   8.029   0.421   6.998 -0.1532  0.2072 -0.1372
   16SAPS  H20T 2079   8.060   0.244   6.988  1.9522 -0.1705  2.4015
   16SAPS   C33 2080   7.027   0.255   6.366  0.0082 -0.0257 -0.1571
   16SAPS   H3X 2081   7.056   0.359   6.340 -3.4700  1.0818 -0.0826
   16SAPS   H3Y 2082   7.112   0.191   6.333  0.1253  0.5991 -1.0957
   16SAPS   C34 2083   7.002   0.251   6.522 -0.3570 -0.7717 -0.4835
   16SAPS   H4X 2084   6.986   0.145   6.551 -0.0774 -0.6978 -0.0499
   16SAPS   H4Y 2085   6.911   0.315   6.535  0.7193  1.0450 -1.4878
   16SAPS   C35 2086   7.108   0.314   6.602  0.4628 -0.4799  0.0544
   16SAPS   H5X 2087   7.135   0.410   6.553 -1.1500 -0.2465 -0.4342
   16SAPS   H5Y 2088   7.205   0.263   6.619  0.1730 -0.8172  0.7655
   16SAPS   C36 2089   7.050   0.339   6.741  0.0282  0.9339 -0.7401
   16SAPS   H6X 2090   7.007   0.243   6.777 -0.5612  1.5164  0.1466
   16SAPS   H6Y 2091   6.967   0.414   6.738 -1.9937 -1.1980 -1.7567
   16SAPS   C37 2092   7.150   0.380   6.851  0.1221 -0.2710  0.3141
   16SAPS   H7X 2093   7.101   0.425   6.940  2.5085  0.9336  1.0873
   16SAPS   H7Y 2094   7.219   0.458   6.813  0.2138 -0.2285  0.5659
   16SAPS   C38 2095   7.218   0.249   6.913 -0.4486 -0.1666  0.1641
   16SAPS   H8X 2096   7.248   0.179   6.833 -0.6073  0.8696 -0.8234
   16SAPS   H8Y 2097   7.145   0.187   6.969 -0.9901  0.9852  0.7650
   16SAPS   C39 2098   7.347   0.283   6.993 -0.2091  0.6152 -0.2250
   16SAPS   H9X 2099   7.328   0.378   7.047 -1.1076  0.0733  0.4439
   16SAPS   H9Y 2100   7.427   0.295   6.917  0.7452  0.1758  0.6715
   16SAPS  C310 2101   7.389   0.182   7.100 -0.0590 -0.0256 -0.4868
   16SAPS  H10X 2102   7.486   0.201   7.149 -1.4777  1.6897  1.8690
   16SAPS  H10Y 2103   7.385   0.081   7.052 -0.1935 -0.5864  0.6834
   16SAPS  C311 2104   7.279   0.178   7.205 -0.6913 -0.4027  0.1452
   16SAPS  H11X 2105   7.198   0.118   7.159  1.0928 -2.9197  0.0788
   16SAPS  H11Y 2106   7.246   0.281   7.233  0.2391  0.5354 -1.9694
   16SAPS  C312 2107   7.318   0.108   7.333 -0.1549  0.1562  0.5466
   16SAPS  H12X 2108   7.365   0.012   7.305  1.4612  1.1964 -0.4809
   16SAPS  H12Y 2109   7.228   0.103   7.397 -0.7487  0.9949 -0.2045
   16SAPS  C313 2110   7.411   0.183   7.424  0.8063  0.1363 -0.6569
   16SAPS  H13X 2111   7.356   0.275   7.454 -0.0287 -0.3057 -0.8263
   16SAPS  H13Y 2112   7.498   0.217   7.364  1.4763 -0.0600  0.1763
   16SAPS  C314 2113   7.449   0.094   7.538 -0.5319 -0.2891 -0.4965
   16SAPS  H14X 2114   7.493   0.000   7.497 -1.3804 -0.4122 -1.1743
   16SAPS  H14Y 2115   7.358   0.078   7.600  0.2204  2.8209  1.6235
   16SAPS  C315 2116   7.549   0.161   7.633 -0.0318  0.2146 -0.0018
   16SAPS  H15X 2117   7.503   0.259   7.661 -0.2642  0.2132 -0.3684
   16SAPS  H15Y 2118   7.649   0.173   7.586  0.9109 -0.1673  1.8317
   16SAPS  C316 2119   7.573   0.079   7.761 -0.4101  0.1055  0.2163
   16SAPS  H16X 2120   7.611  -0.024   7.746 -2.5745 -0.6382 -0.5232
   16SAPS  H16Y 2121   7.480   0.067   7.820 -0.2946  1.8168  0.7962
   16SAPS  C317 2122   7.681   0.134   7.854  0.1369  0.2710 -0.1088
   16SAPS  H17X 2123   7.787   0.123   7.823  0.1369 -2.2866  0.5628
   16SAPS  H17Y 2124   7.677   0.063   7.940 -0.0001  0.5216  0.0950
   16SAPS  C318 2125   7.644   0.274   7.910 -0.1706  0.5437  0.1319
   16SAPS  H18X 2126   7.533   0.280   7.916 -0.0652  1.1919  2.5789
   16SAPS  H18Y 2127   7.686   0.342   7.834 -1.1497 -0.0932 -1.0070
   16SAPS  H18Z 2128   7.688   0.289   8.011 -2.3052 -1.0361  1.4004
   17SAPC     N 2129   4.076   3.445   9.739 -0.6931 -0.5448 -0.1896
   17SAPC   C12 2130   4.113   3.460   9.595 -0.4237  0.1702  0.0503
   17SAPC  H12A 2131   4.182   3.540   9.575  0.7803 -0.8559  0.0039
   17SAPC  H12B 2132   4.020   3.486   9.546  0.0181  0.4320 -0.6710
   17SAPC   C13 2133   4.204   3.415   9.820  0.2058 -0.4244 -0.0042
   17SAPC  H13A 2134   4.167   3.409   9.922 -2.5967  0.7461 -0.8562
   17SAPC  H13B 2135   4.248   3.327   9.775  0.8858  0.9078 -2.0910
   17SAPC  H13C 2136   4.277   3.494   9.825  0.7963 -0.9679  0.0546
   17SAPC   C14 2137   4.007   3.567   9.777 -0.2266  0.0534 -0.1118
   17SAPC  H14A 2138   3.967   3.561   9.877  1.5984  1.4622  0.7830
   17SAPC  H14B 2139   4.065   3.657   9.760 -1.3849  0.3204 -3.0541
   17SAPC  H14C 2140   3.919   3.573   9.716  1.8327 -0.6402 -3.4255
   17SAPC   C15 2141   3.972   3.337   9.762 -0.2049  0.8571 -0.0418
   17SAPC  H15A 2142   3.923   3.334   9.859  0.2792 -0.8731  0.1827
   17SAPC  H15B 2143   3.893   3.348   9.689  0.7096  2.1162 -0.8876
   17SAPC  H15C 2144   4.018   3.240   9.749 -0.8324  0.5244  0.1871
   17SAPC   C11 2145   4.162   3.323   9.530 -0.2510 -0.3597  0.6282
   17SAPC  H11A 2146   4.197   3.348   9.427 -1.8999 -0.7948 -0.0603
   17SAPC  H11B 2147   4.068   3.267   9.510  0.9537 -1.8252 -1.3592
   17SAPC     P 2148   4.260   3.096   9.627  0.1803 -0.1880 -0.1801
   17SAPC   O13 2149   4.375   3.061   9.713  0.1924  0.2738  0.5360
   17SAPC   O14 2150   4.128   3.062   9.673  0.5979  0.0972 -0.2952
   17SAPC   O12 2151   4.267   3.252   9.597  0.3641 -0.1179  1.1623
   17SAPC   O11 2152   4.278   3.024   9.486 -0.3581  0.0228 -0.1263
   17SAPC    C1 2153   4.376   3.071   9.387  0.3240  0.6951 -0.4293
   17SAPC    HA 2154   4.360   3.177   9.357  1.4468  1.5261  1.6622
   17SAPC    HB 2155   4.476   3.056   9.432 -1.0306 -2.4519  1.9413
   17SAPC    C2 2156   4.363   3.002   9.253 -0.2427  0.5378  0.0541
   17SAPC    HS 2157   4.406   2.900   9.256 -0.2254  0.1205 -4.9755
   17SAPC   O21 2158   4.439   3.074   9.149  0.2291 -0.7144  0.0233
   17SAPC   C21 2159   4.573   3.073   9.165  0.0520  0.3596  0.2881
   17SAPC   O22 2160   4.635   3.006   9.249  0.2560  0.3851 -0.0173
   17SAPC   C22 2161   4.633   3.178   9.076 -0.4957 -0.4573  0.5520
   17SAPC   H2R 2162   4.679   3.126   8.989  1.7296  0.3348  1.2166
   17SAPC   H2S 2163   4.553   3.246   9.038  0.1398  0.7242  1.2721
   17SAPC    C3 2164   4.218   2.987   9.203  0.0158 -0.3336  0.0008
   17SAPC    HX 2165   4.181   3.090   9.185  0.4838 -0.3783 -1.3572
   17SAPC    HY 2166   4.168   2.936   9.287 -0.1262  1.0426  0.7783
   17SAPC   O31 2167   4.205   2.902   9.079  0.0827  0.2772 -0.0511
   17SAPC   C31 2168   4.084   2.896   9.041 -0.2970 -0.9360 -0.6153
   17SAPC   O32 2169   3.981   2.930   9.101  0.0926 -0.7423  0.3266
   17SAPC   C32 2170   4.083   2.799   8.917 -0.8841 -0.0401  0.0586
   17SAPC   H2X 2171   4.086   2.696   8.959  1.5301  0.0763  0.3014
   17SAPC   H2Y 2172   4.177   2.802   8.859  1.1765  1.0906  3.1656
   17SAPC   C23 2173   4.734   3.269   9.145 -0.0736  0.4915  0.2416
   17SAPC   H3R 2174   4.792   3.313   9.061 -1.6283 -2.0970 -2.3618
   17SAPC   H3S 2175   4.795   3.208   9.214 -2.2286  0.2051  1.9891
   17SAPC   C24 2176   4.660   3.374   9.233 -0.2037 -0.7768 -0.1569
   17SAPC   H4R 2177   4.592   3.316   9.299 -1.2419  0.6613  0.1116
   17SAPC   H4S 2178   4.593   3.434   9.168  0.6107  1.6658  1.1265
   17SAPC   C25 2179   4.740   3.466   9.334 -0.1834  0.0307 -0.2211
   17SAPC   H5R 2180   4.799   3.403   9.402 -1.0440 -0.2078  0.3269
   17SAPC   C26 2181   4.745   3.604   9.337  0.1350  0.1304 -0.2302
   17SAPC   H6R 2182   4.810   3.662   9.404 -1.2551  0.7394  0.6414
   17SAPC   C27 2183   4.676   3.705   9.247  0.5613  0.3334  0.8142
   17SAPC   H7R 2184   4.606   3.650   9.180  2.2387  0.1486 -0.8825
   17SAPC   H7S 2185   4.759   3.747   9.186 -0.1605 -1.3443 -1.4876
   17SAPC   C28 2186   4.602   3.808   9.325 -0.4253 -0.2918 -0.6421
   17SAPC   H8R 2187   4.610   3.805   9.435 -1.8983 -1.5648 -0.5278
   17SAPC   C29 2188   4.503   3.891   9.280 -0.2437 -0.2345 -0.1250
   17SAPC   H9R 2189   4.454   3.959   9.351  0.2444 -0.4103  0.3844
   17SAPC  C210 2190   4.455   3.895   9.137 -0.2038 -0.1517 -0.6942
   17SAPC  H10R 2191   4.518   3.841   9.063  0.9170  0.0417  0.0940
   17SAPC  H10S 2192   4.460   3.999   9.100  0.5448  0.3248  0.6529
   17SAPC  C211 2193   4.308   3.868   9.134 -0.1150  0.5697  0.0770
   17SAPC  H11R 2194   4.259   3.848   9.231  1.7432 -2.1900  0.5591
   17SAPC  C212 2195   4.233   3.856   9.022  0.1429 -0.5139  0.1495
   17SAPC  H12R 2196   4.125   3.838   9.025  0.0762 -0.1180  0.1017
   17SAPC  C213 2197   4.278   3.877   8.880 -0.2234  0.1289  0.8454
   17SAPC  H13R 2198   4.331   3.973   8.866  1.5403 -1.0626 -1.3353
   17SAPC  H13S 2199   4.192   3.890   8.811  1.1677 -2.0790 -1.5103
   17SAPC  C214 2200   4.371   3.770   8.828  0.3134 -0.2190 -0.3523
   17SAPC  H14R 2201   4.459   3.757   8.892  0.8791 -0.6482 -1.2041
   17SAPC  C215 2202   4.357   3.677   8.734  0.4300 -0.6159  0.0170
   17SAPC  H15R 2203   4.435   3.601   8.723 -0.9322 -1.9875 -0.5114
   17SAPC  C216 2204   4.236   3.661   8.651  0.7922  0.5124 -0.1869
   17SAPC  H16R 2205   4.155   3.726   8.690  0.7397 -0.1547  0.8550
   17SAPC  H16S 2206   4.201   3.556   8.658  0.7582  0.4244 -1.4677
   17SAPC  C217 2207   4.235   3.701   8.507 -0.4668  0.1553 -0.7236
   17SAPC  H17R 2208   4.137   3.684   8.458 -1.0728 -0.2952  0.5921
   17SAPC  H17S 2209   4.315   3.643   8.458 -1.0548 -1.4520  0.1430
   17SAPC  C218 2210   4.264   3.860   8.488 -0.8686  0.2999  0.3032
   17SAPC  H18R 2211   4.369   3.890   8.512 -0.2181 -1.3517 -0.3745
   17SAPC  H18S 2212   4.191   3.915   8.551 -2.3517  0.9547 -1.8488
   17SAPC  C219 2213   4.232   3.909   8.344  0.2551  0.0376 -0.5700
   17SAPC  H19R 2214   4.127   3.881   8.319  0.4550 -0.5812 -0.7252
   17SAPC  H19S 2215   4.278   3.850   8.262 -1.2898 -1.8045 -0.1762
   17SAPC  C220 2216   4.261   4.057   8.321  0.4032 -0.1931 -0.4815
   17SAPC  H20R 2217   4.222   4.124   8.400  0.2510 -0.0584 -0.6681
   17SAPC  H20S 2218   4.214   4.085   8.224 -0.9889 -0.0870  0.2104
   17SAPC  H20T 2219   4.371   4.070   8.305  0.9570 -1.4255  1.9026
   17SAPC   C33 2220   3.956   2.818   8.838  0.6651  0.4921  0.6401
   17SAPC   H3X 2221   3.865   2.824   8.901  1.3820  0.1732  1.7268
   17SAPC   H3Y 2222   3.951   2.738   8.761 -0.9696  0.3690  0.8446
   17SAPC   C34 2223   3.967   2.954   8.762  0.4833 -0.4569 -0.0933
   17SAPC   H4X 2224   3.971   3.040   8.832 -0.1820 -1.3229  1.0464
   17SAPC   H4Y 2225   3.875   2.977   8.704 -0.3678 -2.1344  0.5228
   17SAPC   C35 2226   4.078   2.965   8.658  0.3307  0.6544  0.3248
   17SAPC   H5X 2227   4.070   2.873   8.596 -1.5282  1.3138 -0.4796
   17SAPC   H5Y 2228   4.180   2.963   8.703  0.6896 -0.6021 -0.5119
   17SAPC   C36 2229   4.066   3.090   8.565 -0.2960 -0.0494 -0.0891
   17SAPC   H6X 2230   4.068   3.184   8.625 -0.2225 -0.0037 -0.1618
   17SAPC   H6Y 2231   3.968   3.087   8.513 -0.3220 -0.8744 -0.0055
   17SAPC   C37 2232   4.175   3.091   8.453  0.8433  0.3873  0.3281
   17SAPC   H7X 2233   4.157   2.992   8.408 -0.6319 -0.2338  2.1311
   17SAPC   H7Y 2234   4.270   3.095   8.510 -0.6158  0.3663  2.9312
   17SAPC   C38 2235   4.169   3.212   8.365  0.5277  0.7560  0.2461
   17SAPC   H8X 2236   4.255   3.196   8.296 -0.8142 -0.9046 -1.1123
   17SAPC   H8Y 2237   4.186   3.305   8.424 -2.9816  1.2442  0.6833
   17SAPC   C39 2238   4.034   3.217   8.289  0.2920  0.7792 -0.1087
   17SAPC   H9X 2239   3.954   3.246   8.360  0.2902  3.0368 -0.9550
   17SAPC   H9Y 2240   4.004   3.124   8.236  0.1787  1.6070 -1.5365
   17SAPC  C310 2241   4.028   3.315   8.168  0.3813 -0.2237  0.1666
   17SAPC  H10X 2242   3.941   3.287   8.103 -0.3106 -0.3309  1.1252
   17SAPC  H10Y 2243   4.115   3.295   8.102  0.5766 -2.0143  0.9266
   17SAPC  C311 2244   4.018   3.462   8.205  0.1761 -0.5153  0.0517
   17SAPC  H11X 2245   4.039   3.524   8.116 -2.2916 -0.4685 -0.5619
   17SAPC  H11Y 2246   4.094   3.490   8.282 -0.6129  1.3631  0.1994
   17SAPC  C312 2247   3.883   3.506   8.257 -0.9426  0.0465 -0.0121
   17SAPC  H12X 2248   3.888   3.614   8.285  1.1161  0.2399 -1.0147
   17SAPC  H12Y 2249   3.855   3.459   8.354  2.2237  0.7164  1.3246
   17SAPC  C313 2250   3.766   3.488   8.158  0.2256 -0.0919  0.1453
   17SAPC  H13X 2251   3.677   3.542   8.198  0.2011  0.6694 -0.8892
   17SAPC  H13Y 2252   3.738   3.380   8.151 -0.7124  0.1237  0.3582
   17SAPC  C314 2253   3.779   3.532   8.007  0.3134 -0.4627  0.3068
   17SAPC  H14X 2254   3.864   3.482   7.956 -1.0987 -0.9429 -1.7118
   17SAPC  H14Y 2255   3.799   3.641   8.006  0.1881 -0.4351  0.6658
   17SAPC  C315 2256   3.662   3.491   7.917 -0.0577  0.3523 -0.4184
   17SAPC  H15X 2257   3.672   3.535   7.815 -0.7665 -0.0389 -0.6602
   17SAPC  H15Y 2258   3.569   3.519   7.971  1.5540 -0.2771  2.9555
   17SAPC  C316 2259   3.657   3.340   7.883  0.4419  0.3843 -0.0077
   17SAPC  H16X 2260   3.672   3.274   7.971 -0.6204 -1.0817 -0.8899
   17SAPC  H16Y 2261   3.755   3.315   7.837  1.2067  0.7924  1.3516
   17SAPC  C317 2262   3.530   3.297   7.802 -0.7453  0.2540 -0.6972
   17SAPC  H17X 2263   3.552   3.213   7.732 -0.3153  0.2428 -0.5503
   17SAPC  H17Y 2264   3.507   3.388   7.743 -0.9441  0.6920  0.0535
   17SAPC  C318 2265   3.416   3.258   7.890  0.6897  0.3756  0.4304
   17SAPC  H18X 2266   3.354   3.341   7.930 -0.1431  1.1385 -2.2495
   17SAPC  H18Y 2267   3.339   3.201   7.833 -0.1555 -2.7503  4.1983
   17SAPC  H18Z 2268   3.445   3.186   7.970 -1.6826 -1.1421  0.0239
   18SAPC     N 2269   4.378   2.633   9.705 -0.3837  0.5083  0.7022
   18SAPC   C12 2270   4.486   2.688   9.611  1.0501  0.2121  0.5218
   18SAPC  H12A 2271   4.588   2.657   9.633  0.5553 -1.7996  0.2129
   18SAPC  H12B 2272   4.500   2.793   9.631 -2.7481  1.4389 -2.2327
   18SAPC   C13 2273   4.401   2.678   9.845 -0.0097 -0.0770  0.0301
   18SAPC  H13A 2274   4.409   2.784   9.862  1.2150 -0.4016  1.8810
   18SAPC  H13B 2275   4.317   2.654   9.909  0.3386 -0.7380  0.2592
   18SAPC  H13C 2276   4.496   2.638   9.879  0.8033  0.0857 -1.9417
   18SAPC   C14 2277   4.248   2.682   9.653  0.3086 -0.1899  0.3199
   18SAPC  H14A 2278   4.231   2.655   9.550  2.1781 -2.0825  0.4564
   18SAPC  H14B 2279   4.167   2.629   9.701  0.9510 -4.2362 -2.5960
   18SAPC  H14C 2280   4.218   2.786   9.665 -3.0129 -0.9409 -0.3845
   18SAPC   C15 2281   4.383   2.486   9.701 -0.3082 -0.3197  0.6383
   18SAPC  H15A 2282   4.385   2.450   9.599  0.1123  1.2453  0.0728
   18SAPC  H15B 2283   4.475   2.457   9.749 -0.8468  0.6045  2.3195
   18SAPC  H15C 2284   4.298   2.442   9.752  0.6481 -1.7601  1.0451
   18SAPC   C11 2285   4.468   2.675   9.454 -0.1799 -0.0134  0.1285
   18SAPC  H11A 2286   4.541   2.752   9.420  0.9891 -0.2266  1.9934
   18SAPC  H11B 2287   4.368   2.710   9.421  0.7023  1.3599 -1.2178
   18SAPC     P 2288   4.653   2.502   9.368  0.2546  0.0193 -0.6849
   18SAPC   O13 2289   4.734   2.505   9.492  0.1401  0.7173 -0.4907
   18SAPC   O14 2290   4.630   2.373   9.298 -0.6528 -0.1956 -0.2900
   18SAPC   O12 2291   4.510   2.549   9.410  0.0554 -0.4478 -0.9807
   18SAPC   O11 2292   4.717   2.617   9.270 -0.3420 -0.0730  0.0527
   18SAPC    C1 2293   4.630   2.645   9.155  0.2617  0.7027 -0.4403
   18SAPC    HA 2294   4.539   2.585   9.136  0.6622 -0.3087  0.7458
   18SAPC    HB 2295   4.601   2.752   9.165 -0.8546  0.2139  2.6287
   18SAPC    C2 2296   4.710   2.630   9.024 -0.4212 -0.3077  0.6714
   18SAPC    HS 2297   4.787   2.709   9.027  0.2269 -0.9560  1.5842
   18SAPC   O21 2298   4.629   2.642   8.909  0.1974  0.4084  0.6908
   18SAPC   C21 2299   4.572   2.761   8.881 -1.0945  0.9683 -0.1271
   18SAPC   O22 2300   4.605   2.863   8.933  0.8022  0.2906 -0.3746
   18SAPC   C22 2301   4.461   2.743   8.784  0.2697 -0.1353 -0.0773
   18SAPC   H2R 2302   4.376   2.691   8.833  0.6955  1.3717  2.4609
   18SAPC   H2S 2303   4.412   2.840   8.760 -2.5210 -0.9454  1.8146
   18SAPC    C3 2304   4.788   2.494   9.023 -0.1292 -0.3742 -0.7164
   18SAPC    HX 2305   4.705   2.421   9.013 -0.8954  0.4917 -0.8847
   18SAPC    HY 2306   4.831   2.475   9.123  1.5082  0.9985 -1.1243
   18SAPC   O31 2307   4.885   2.484   8.919  0.1432 -0.0850 -0.0484
   18SAPC   C31 2308   4.995   2.555   8.920  0.4771  0.1364  0.2676
   18SAPC   O32 2309   5.034   2.622   9.011  0.5753  0.0074  0.3325
   18SAPC   C32 2310   5.063   2.547   8.777  0.0877 -0.0086 -0.0579
   18SAPC   H2X 2311   5.008   2.470   8.719  3.0561 -0.9318 -1.8889
   18SAPC   H2Y 2312   5.170   2.523   8.795  0.1404 -0.6055 -1.0668
   18SAPC   C23 2313   4.497   2.657   8.656  0.8855 -0.0204 -1.0571
   18SAPC   H3R 2314   4.404   2.632   8.600  0.9178  2.0892 -2.1293
   18SAPC   H3S 2315   4.538   2.557   8.683 -1.9772 -1.6924 -2.3252
   18SAPC   C24 2316   4.594   2.714   8.553  0.2122  0.3423  0.3736
   18SAPC   H4R 2317   4.689   2.740   8.606  0.6195  0.2750 -0.3154
   18SAPC   H4S 2318   4.561   2.813   8.515  0.2550  0.9360  1.7979
   18SAPC   C25 2319   4.637   2.621   8.433  0.2916  0.2335 -0.4896
   18SAPC   H5R 2320   4.671   2.521   8.464  0.6810  1.0624  1.9604
   18SAPC   C26 2321   4.635   2.647   8.307 -0.1790  0.0026 -0.0380
   18SAPC   H6R 2322   4.669   2.559   8.251  0.8296 -0.4579  1.2536
   18SAPC   C27 2323   4.602   2.783   8.249  0.3212  0.6167 -0.2147
   18SAPC   H7R 2324   4.613   2.867   8.320  3.0901  0.3292 -0.1852
   18SAPC   H7S 2325   4.492   2.776   8.232  0.4536  0.1159 -0.8932
   18SAPC   C28 2326   4.661   2.838   8.122  0.0845  0.4501 -0.2322
   18SAPC   H8R 2327   4.742   2.775   8.082  1.3835  1.2832  0.9848
   18SAPC   C29 2328   4.614   2.938   8.050  0.0434  0.5738 -0.0611
   18SAPC   H9R 2329   4.646   2.956   7.947  0.6333  1.7058  0.3045
   18SAPC  C210 2330   4.500   3.022   8.086 -0.2843  0.5726  0.1504
   18SAPC  H10R 2331   4.513   3.072   8.184 -2.0059  1.4936 -0.0560
   18SAPC  H10S 2332   4.411   2.958   8.105  0.3201 -0.0979  0.7597
   18SAPC  C211 2333   4.450   3.121   7.988 -0.2250 -0.2747 -0.3871
   18SAPC  H11R 2334   4.471   3.221   8.029  2.3698 -1.2114  0.8242
   18SAPC  C212 2335   4.375   3.106   7.876 -0.5754  0.9468 -0.1943
   18SAPC  H12R 2336   4.338   3.196   7.824  1.7584  0.9818 -1.9991
   18SAPC  C213 2337   4.322   2.968   7.821  0.0263 -0.5948  0.0131
   18SAPC  H13R 2338   4.216   2.981   7.793  0.4319 -0.0322 -1.3489
   18SAPC  H13S 2339   4.328   2.881   7.889  1.7472  0.8214  1.8004
   18SAPC  C214 2340   4.399   2.942   7.699 -0.0792 -0.3375 -0.2095
   18SAPC  H14R 2341   4.501   2.904   7.717  0.0557  0.6178  1.2026
   18SAPC  C215 2342   4.364   2.971   7.572  0.3822 -0.6158 -0.1091
   18SAPC  H15R 2343   4.441   2.948   7.497  0.2286 -1.9608  0.1103
   18SAPC  C216 2344   4.245   3.036   7.509 -0.6840  0.4169  0.5360
   18SAPC  H16R 2345   4.175   3.059   7.592 -1.0959 -0.4708  0.4406
   18SAPC  H16S 2346   4.204   2.953   7.448 -1.1214  1.2354 -0.3213
   18SAPC  C217 2347   4.277   3.146   7.409  0.8253 -0.3575 -0.1439
   18SAPC  H17R 2348   4.346   3.094   7.340  0.4967 -2.8056  1.2935
   18SAPC  H17S 2349   4.338   3.224   7.459  0.3362 -1.0864  1.6817
   18SAPC  C218 2350   4.149   3.207   7.349  0.1927  0.4197  0.2231
   18SAPC  H18R 2351   4.070   3.223   7.427  1.6211 -2.5855  2.5387
   18SAPC  H18S 2352   4.101   3.121   7.297  0.5130  0.3866 -0.0131
   18SAPC  C219 2353   4.166   3.322   7.258 -0.1227  0.0692 -0.8939
   18SAPC  H19R 2354   4.214   3.415   7.295  1.9594 -0.8055 -1.2335
   18SAPC  H19S 2355   4.060   3.336   7.228 -0.2895  0.5384 -0.1014
   18SAPC  C220 2356   4.256   3.297   7.142 -0.2017  0.1462  0.5390
   18SAPC  H20R 2357   4.239   3.384   7.076 -1.3726  0.6201  1.4277
   18SAPC  H20S 2358   4.222   3.205   7.090  2.3320 -0.1170 -0.7931
   18SAPC  H20T 2359   4.362   3.289   7.171 -0.0369  1.1279  0.2386
   18SAPC   C33 2360   5.068   2.682   8.699  0.1739 -0.5815 -0.2586
   18SAPC   H3X 2361   5.130   2.763   8.745  1.2571 -0.8044 -1.2673
   18SAPC   H3Y 2362   4.966   2.726   8.695  0.1617 -0.6890 -1.5012
   18SAPC   C34 2363   5.123   2.657   8.559 -0.2445 -0.3866  0.0024
   18SAPC   H4X 2364   5.072   2.569   8.513  1.6238 -2.2667  1.3330
   18SAPC   H4Y 2365   5.229   2.625   8.557  0.5878  2.1145  0.9494
   18SAPC   C35 2366   5.101   2.776   8.455 -0.8228  0.6884 -0.3666
   18SAPC   H5X 2367   5.138   2.870   8.501 -0.2670 -0.5993  1.9832
   18SAPC   H5Y 2368   4.993   2.791   8.434 -0.9871  1.6991  1.0910
   18SAPC   C36 2369   5.193   2.752   8.324  0.5661 -0.2217 -0.4609
   18SAPC   H6X 2370   5.164   2.656   8.277 -0.3727 -0.6556  0.9347
   18SAPC   H6Y 2371   5.302   2.753   8.346  0.8742  1.6038 -1.7645
   18SAPC   C37 2372   5.178   2.851   8.202 -0.1640 -0.3762 -0.0628
   18SAPC   H7X 2373   5.228   2.819   8.108 -0.2344  0.5708 -0.4373
   18SAPC   H7Y 2374   5.222   2.949   8.230  0.4727 -0.8416  0.6151
   18SAPC   C38 2375   5.036   2.885   8.165  0.1209  0.4093  0.4526
   18SAPC   H8X 2376   4.978   2.924   8.251 -1.1621  0.8104 -0.5682
   18SAPC   H8Y 2377   4.981   2.792   8.140  0.4868  0.3114 -0.0045
   18SAPC   C39 2378   5.023   2.988   8.041 -0.0846  0.3161 -0.4116
   18SAPC   H9X 2379   4.920   2.982   7.999 -0.6024 -1.2586  1.0185
   18SAPC   H9Y 2380   5.094   2.956   7.962  0.1866 -1.1557  0.4006
   18SAPC  C310 2381   5.052   3.135   8.081 -0.1684 -0.3172  0.0811
   18SAPC  H10X 2382   5.161   3.151   8.091 -0.2180 -0.0019  0.1350
   18SAPC  H10Y 2383   5.003   3.164   8.177  2.1078 -0.2494  1.2704
   18SAPC  C311 2384   5.009   3.244   7.977  0.3640  0.4630 -0.1107
   18SAPC  H11X 2385   4.903   3.220   7.956  0.5937 -0.4355 -0.3068
   18SAPC  H11Y 2386   5.058   3.228   7.878 -1.2372 -0.5973 -0.7725
   18SAPC  C312 2387   5.041   3.388   8.032  0.2829  0.3181 -0.5318
   18SAPC  H12X 2388   5.152   3.391   8.038  0.4806 -3.5937  0.4154
   18SAPC  H12Y 2389   4.998   3.396   8.134 -0.4008 -1.2765 -0.6613
   18SAPC  C313 2390   4.976   3.489   7.932 -0.8325 -0.3029  0.0468
   18SAPC  H13X 2391   4.896   3.430   7.883 -0.5604 -0.0067 -0.7599
   18SAPC  H13Y 2392   5.046   3.508   7.848 -0.0145 -1.0439  0.5444
   18SAPC  C314 2393   4.939   3.619   8.007  0.2245  0.3603 -0.1449
   18SAPC  H14X 2394   4.907   3.600   8.112 -1.1572  1.4530 -0.3371
   18SAPC  H14Y 2395   4.852   3.670   7.961  0.4109  0.0232 -0.8792
   18SAPC  C315 2396   5.056   3.723   8.033 -0.4660 -0.0578 -0.2717
   18SAPC  H15X 2397   5.154   3.673   8.045  0.2552  0.9477 -1.5671
   18SAPC  H15Y 2398   5.035   3.788   8.121  0.8953 -0.0792  0.0876
   18SAPC  C316 2399   5.068   3.820   7.916 -0.7364  0.6325  0.0293
   18SAPC  H16X 2400   4.968   3.866   7.900 -1.3602 -0.9437 -0.7951
   18SAPC  H16Y 2401   5.077   3.752   7.829  2.6036  0.1563  0.6310
   18SAPC  C317 2402   5.186   3.925   7.919  0.9209 -0.2002 -0.0515
   18SAPC  H17X 2403   5.171   3.979   8.015 -1.3199 -1.8872  0.6204
   18SAPC  H17Y 2404   5.151   3.998   7.843 -1.8811 -0.4803  0.8572
   18SAPC  C318 2405   5.322   3.864   7.889 -0.1001 -0.1415  0.6408
   18SAPC  H18X 2406   5.321   3.810   7.792  1.6725  0.9656 -0.0413
   18SAPC  H18Y 2407   5.360   3.799   7.971  1.6203 -1.2906 -0.9766
   18SAPC  H18Z 2408   5.400   3.942   7.886 -0.9491  1.1543  4.7252
   19SAPC     N 2409   4.199   6.745   9.895  0.0985 -0.1928  0.0669
   19SAPC   C12 2410   4.249   6.683   9.764 -0.2045 -0.6372 -0.1416
   19SAPC  H12A 2411   4.212   6.582   9.760 -1.3665 -0.5181  3.6393
   19SAPC  H12B 2412   4.357   6.680   9.771 -0.0695  1.5732 -0.6824
   19SAPC   C13 2413   4.261   6.873   9.928  0.3486  0.1222  0.1455
   19SAPC  H13A 2414   4.366   6.862   9.949  0.4333  0.4095 -0.1249
   19SAPC  H13B 2415   4.245   6.935   9.841  0.0851 -1.1255 -0.7295
   19SAPC  H13C 2416   4.219   6.900  10.024  1.9563 -1.7973  1.4838
   19SAPC   C14 2417   4.046   6.754   9.886 -0.7251  0.3372  0.2239
   19SAPC  H14A 2418   4.009   6.807   9.973  1.2779  2.8173 -0.3256
   19SAPC  H14B 2419   4.027   6.829   9.811 -0.5475  0.8842  0.7192
   19SAPC  H14C 2420   3.999   6.661   9.856 -0.5021 -0.0737  1.1004
   19SAPC   C15 2421   4.225   6.651  10.009 -0.4825  0.2258 -0.6066
   19SAPC  H15A 2422   4.317   6.595   9.999  0.8993  2.3283 -0.2647
   19SAPC  H15B 2423   4.229   6.701  10.105 -2.9238 -1.4445  0.4481
   19SAPC  H15C 2424   4.143   6.581  10.004  0.4880 -0.8779 -1.8928
   19SAPC   C11 2425   4.216   6.763   9.635 -0.2460 -0.1632 -0.1337
   19SAPC  H11A 2426   4.106   6.772   9.646 -0.6229 -4.5227  1.6862
   19SAPC  H11B 2427   4.222   6.710   9.537 -2.9318  0.2871 -0.6246
   19SAPC     P 2428   4.436   6.906   9.609  0.1573 -0.1271 -0.3571
   19SAPC   O13 2429   4.468   7.054   9.601  0.6581 -0.0199 -0.1046
   19SAPC   O14 2430   4.513   6.821   9.702 -0.7086 -0.2709 -0.0474
   19SAPC   O12 2431   4.280   6.893   9.645  0.0637  0.3353 -0.1476
   19SAPC   O11 2432   4.434   6.848   9.460 -0.9090 -0.0510  0.4095
   19SAPC    C1 2433   4.391   6.927   9.345 -0.1009  0.9335 -0.1546
   19SAPC    HA 2434   4.453   7.019   9.332 -0.2488  0.8314 -1.8617
   19SAPC    HB 2435   4.412   6.880   9.246 -1.8587  0.0616 -0.1455
   19SAPC    C2 2436   4.243   6.970   9.339 -0.2352  0.3796  0.0460
   19SAPC    HS 2437   4.205   6.971   9.443 -0.2302 -0.4016  0.0587
   19SAPC   O21 2438   4.166   6.872   9.260 -0.0012  0.3911 -0.3015
   19SAPC   C21 2439   4.039   6.877   9.285  0.1826 -0.5818 -0.1995
   19SAPC   O22 2440   3.982   6.961   9.354  0.1251  0.3666  0.5204
   19SAPC   C22 2441   3.967   6.748   9.234  0.1662 -0.1448 -0.3921
   19SAPC   H2R 2442   3.984   6.750   9.124 -2.3392  0.3366 -0.8484
   19SAPC   H2S 2443   4.016   6.663   9.286  2.1759  1.4184  0.3804
   19SAPC    C3 2444   4.232   7.109   9.286  0.0579 -0.7279 -0.0004
   19SAPC    HX 2445   4.296   7.173   9.350 -0.9150  0.0140  0.2534
   19SAPC    HY 2446   4.132   7.149   9.311 -0.5322 -1.1054 -1.6481
   19SAPC   O31 2447   4.266   7.129   9.149 -0.3577 -0.3477 -0.3204
   19SAPC   C31 2448   4.174   7.171   9.059  0.1930 -0.0884 -0.5053
   19SAPC   O32 2449   4.058   7.197   9.085  0.5533  0.2697 -0.1026
   19SAPC   C32 2450   4.239   7.182   8.922  0.0267  0.0412 -0.5181
   19SAPC   H2X 2451   4.330   7.120   8.918  0.4093  0.5519  0.0682
   19SAPC   H2Y 2452   4.254   7.290   8.902 -0.8251  0.2657 -0.0244
   19SAPC   C23 2453   3.812   6.757   9.247 -0.0427 -0.0323  0.4991
   19SAPC   H3R 2454   3.772   6.846   9.194 -3.3329 -1.4396  0.3688
   19SAPC   H3S 2455   3.773   6.756   9.351 -1.6648  0.7374 -0.0638
   19SAPC   C24 2456   3.749   6.638   9.176 -0.1939  0.6749 -1.0396
   19SAPC   H4R 2457   3.641   6.630   9.199 -0.5923  1.0728 -2.6662
   19SAPC   H4S 2458   3.807   6.552   9.217  0.9882  1.2325 -1.4851
   19SAPC   C25 2459   3.757   6.637   9.030 -0.3440 -0.1866 -0.3316
   19SAPC   H5R 2460   3.697   6.721   8.992  0.3178  1.1915  1.5297
   19SAPC   C26 2461   3.798   6.539   8.947  0.0497 -0.5997 -0.2559
   19SAPC   H6R 2462   3.789   6.543   8.838 -0.2613 -1.7049 -0.2825
   19SAPC   C27 2463   3.860   6.411   8.993  0.4754  0.6865  0.4929
   19SAPC   H7R 2464   3.821   6.374   9.090  0.4298 -2.6415 -0.6710
   19SAPC   H7S 2465   3.966   6.434   9.014  0.4826  2.8416 -1.4836
   19SAPC   C28 2466   3.854   6.292   8.895 -0.1125 -0.4074 -0.1687
   19SAPC   H8R 2467   3.791   6.204   8.917  3.0426 -2.2546  2.5077
   19SAPC   C29 2468   3.930   6.278   8.783  0.3861 -0.0301  0.1875
   19SAPC   H9R 2469   3.923   6.183   8.727 -0.5816  0.0661  0.1351
   19SAPC  C210 2470   4.016   6.387   8.721 -0.4835  0.1711 -0.9579
   19SAPC  H10R 2471   4.115   6.338   8.728 -1.0838 -0.9907 -0.3660
   19SAPC  H10S 2472   4.038   6.478   8.782 -0.2550 -1.0923  0.9198
   19SAPC  C211 2473   3.980   6.419   8.575  0.1966 -0.2579 -0.8552
   19SAPC  H11R 2474   3.894   6.488   8.574  0.3763  0.0123  0.4355
   19SAPC  C212 2475   4.025   6.360   8.460 -0.8444 -0.1598  0.1632
   19SAPC  H12R 2476   3.994   6.405   8.365 -3.6162 -1.3957  0.3946
   19SAPC  C213 2477   4.121   6.244   8.460  0.2610  0.0744  0.3132
   19SAPC  H13R 2478   4.092   6.167   8.535 -1.9976 -0.7230 -1.2747
   19SAPC  H13S 2479   4.224   6.277   8.487 -0.1526  0.6098  1.2839
   19SAPC  C214 2480   4.130   6.150   8.345 -0.2841  0.2010 -0.5633
   19SAPC  H14R 2481   4.096   6.048   8.367 -0.3028  0.6144  1.5909
   19SAPC  C215 2482   4.201   6.168   8.235 -1.0916  0.0047 -0.2037
   19SAPC  H15R 2483   4.191   6.084   8.165  0.0207 -0.1637 -0.1660
   19SAPC  C216 2484   4.286   6.287   8.186  0.0016 -0.0006 -0.1459
   19SAPC  H16R 2485   4.392   6.273   8.216  0.2701 -2.7070 -1.9345
   19SAPC  H16S 2486   4.239   6.376   8.233 -0.5612 -1.2255  1.7329
   19SAPC  C217 2487   4.282   6.299   8.028 -0.2622 -0.4640 -0.0046
   19SAPC  H17R 2488   4.178   6.316   7.993  0.0037 -0.4645 -0.7992
   19SAPC  H17S 2489   4.326   6.205   7.987 -1.3839 -1.0821  0.1611
   19SAPC  C218 2490   4.379   6.411   7.976 -0.1905  0.5596  0.0351
   19SAPC  H18R 2491   4.340   6.514   7.996  0.7311  0.9046  0.0775
   19SAPC  H18S 2492   4.370   6.393   7.866 -1.6322  1.9265 -0.1192
   19SAPC  C219 2493   4.527   6.391   8.015  0.2607  0.2599  0.4993
   19SAPC  H19R 2494   4.551   6.283   8.005  1.5127  0.4552  1.1014
   19SAPC  H19S 2495   4.555   6.405   8.122  0.3865 -0.9282  0.6456
   19SAPC  C220 2496   4.626   6.482   7.935  0.1929  0.3231  0.3105
   19SAPC  H20R 2497   4.730   6.473   7.975  0.1118 -1.7084  0.1357
   19SAPC  H20S 2498   4.575   6.580   7.920 -1.1683 -0.5018 -0.5623
   19SAPC  H20T 2499   4.643   6.436   7.836  0.2446 -0.6754  0.7681
   19SAPC   C33 2500   4.151   7.122   8.810  0.1070 -0.1377  0.1693
   19SAPC   H3X 2501   4.220   7.116   8.723  1.1799  1.1175  0.8974
   19SAPC   H3Y 2502   4.062   7.180   8.779 -0.8178 -0.9197  1.2873
   19SAPC   C34 2503   4.107   6.970   8.834  0.4765 -0.2358 -0.3650
   19SAPC   H4X 2504   4.034   6.961   8.917  0.6944 -0.8242 -0.2344
   19SAPC   H4Y 2505   4.196   6.912   8.868 -0.3201 -1.6188 -0.5914
   19SAPC   C35 2506   4.059   6.911   8.702  1.0508 -0.0143 -0.0389
   19SAPC   H5X 2507   3.990   6.979   8.648  0.8216 -1.4708 -1.6925
   19SAPC   H5Y 2508   3.991   6.823   8.715 -1.1744  1.7138  0.6163
   19SAPC   C36 2509   4.167   6.871   8.597  0.0993  0.0071 -0.1957
   19SAPC   H6X 2510   4.255   6.818   8.639 -0.1238  0.2421  0.5884
   19SAPC   H6Y 2511   4.213   6.961   8.550 -0.0079 -1.5777 -3.6478
   19SAPC   C37 2512   4.103   6.788   8.486 -0.5468 -0.1247 -0.0113
   19SAPC   H7X 2513   3.996   6.818   8.490 -0.4672  0.1062  0.6260
   19SAPC   H7Y 2514   4.111   6.683   8.521 -0.2269 -0.1131 -0.0495
   19SAPC   C38 2515   4.166   6.813   8.352  0.0026  0.1461  0.3329
   19SAPC   H8X 2516   4.264   6.761   8.350  0.2926  0.6885  0.2201
   19SAPC   H8Y 2517   4.168   6.922   8.328 -0.5150  0.0798 -0.0511
   19SAPC   C39 2518   4.092   6.762   8.221 -1.1130 -0.2221 -0.0807
   19SAPC   H9X 2519   3.994   6.814   8.217 -0.5672  1.0656  1.8843
   19SAPC   H9Y 2520   4.053   6.658   8.231  0.0674 -0.7736 -0.9364
   19SAPC  C310 2521   4.179   6.781   8.086 -0.7576 -0.2249  0.0504
   19SAPC  H10X 2522   4.128   6.738   7.997  1.2567  0.5684 -1.5761
   19SAPC  H10Y 2523   4.278   6.729   8.086 -0.7927 -0.3882  2.5380
   19SAPC  C311 2524   4.192   6.931   8.063 -0.0145 -0.3918 -0.0355
   19SAPC  H11X 2525   4.257   6.960   8.148  1.1751 -0.7963 -0.7890
   19SAPC  H11Y 2526   4.098   6.991   8.066  0.3036  0.1880 -1.2454
   19SAPC  C312 2527   4.260   6.980   7.935  0.0684 -0.8502 -0.4241
   19SAPC  H12X 2528   4.276   7.090   7.936 -0.1948 -0.8070 -0.7646
   19SAPC  H12Y 2529   4.191   6.965   7.849  0.3348  0.5187 -0.9130
   19SAPC  C313 2530   4.396   6.907   7.899  0.2360  0.4975  0.0611
   19SAPC  H13X 2531   4.383   6.798   7.915 -0.9427  0.4218 -1.2368
   19SAPC  H13Y 2532   4.479   6.944   7.964 -0.6563  0.9614  0.9721
   19SAPC  C314 2533   4.427   6.923   7.753 -0.1672  0.4729 -0.0930
   19SAPC  H14X 2534   4.428   7.031   7.729 -0.6613  0.0880 -2.0367
   19SAPC  H14Y 2535   4.354   6.871   7.686  0.2358  0.2998 -0.4038
   19SAPC  C315 2536   4.567   6.873   7.712 -0.8176  0.1450 -0.4658
   19SAPC  H15X 2537   4.586   6.764   7.719 -0.2771  0.2309 -0.4956
   19SAPC  H15Y 2538   4.642   6.922   7.778  1.1746 -0.8539 -1.8722
   19SAPC  C316 2539   4.603   6.907   7.560  0.1833  0.1182  0.6726
   19SAPC  H16X 2540   4.580   7.013   7.535 -1.5491 -0.0651  1.2872
   19SAPC  H16Y 2541   4.549   6.839   7.491  0.1137  0.6797  0.1625
   19SAPC  C317 2542   4.750   6.864   7.528 -0.3595  0.4703  0.0814
   19SAPC  H17X 2543   4.769   6.890   7.422  1.1116 -0.2707  0.1447
   19SAPC  H17Y 2544   4.771   6.758   7.553 -0.7864 -0.0800 -1.7547
   19SAPC  C318 2545   4.846   6.951   7.610 -0.2262 -0.5997  0.2136
   19SAPC  H18X 2546   4.841   6.912   7.714 -0.2963 -0.7230  0.1640
   19SAPC  H18Y 2547   4.826   7.060   7.606  1.3763 -0.2670  0.3953
   19SAPC  H18Z 2548   4.951   6.945   7.574 -0.6783  0.1898 -1.3235
   20SAPC     N 2549   4.282   0.746   9.714 -0.2398 -0.3642 -0.1442
   20SAPC   C12 2550   4.311   0.785   9.566 -0.1193  0.4698 -0.0581
   20SAPC  H12A 2551   4.413   0.816   9.551  0.1241 -0.1292  0.2946
   20SAPC  H12B 2552   4.258   0.875   9.541  0.5499  0.3911 -1.9073
   20SAPC   C13 2553   4.300   0.601   9.747 -0.3336 -0.6221 -0.2868
   20SAPC  H13A 2554   4.403   0.569   9.745 -0.4696 -1.0087 -1.3363
   20SAPC  H13B 2555   4.266   0.587   9.849  4.0420  0.3989  1.5014
   20SAPC  H13C 2556   4.254   0.540   9.671  1.5550  0.0523 -2.0326
   20SAPC   C14 2557   4.378   0.817   9.808  1.0674  0.0343  0.5695
   20SAPC  H14A 2558   4.363   0.924   9.803  2.2022  0.2093  0.6940
   20SAPC  H14B 2559   4.358   0.803   9.913  0.4119  0.6112  0.5325
   20SAPC  H14C 2560   4.477   0.792   9.774  1.8542  1.2483  1.8508
   20SAPC   C15 2561   4.149   0.793   9.748  0.4794 -0.5637 -0.2154
   20SAPC  H15A 2562   4.151   0.901   9.745  2.4670 -0.5474  0.4114
   20SAPC  H15B 2563   4.075   0.762   9.675  1.3976 -1.5590 -0.7638
   20SAPC  H15C 2564   4.114   0.768   9.847  0.4189  1.0729  0.2007
   20SAPC   C11 2565   4.278   0.683   9.462  0.1587  0.1451  0.2057
   20SAPC  H11A 2566   4.341   0.592   9.475 -1.2160 -1.1238 -1.5197
   20SAPC  H11B 2567   4.302   0.736   9.367  0.5415  1.2266  0.8888
   20SAPC     P 2568   4.097   0.506   9.439 -0.1301 -0.2445  0.0512
   20SAPC   O13 2569   4.177   0.415   9.527  0.0324  0.5676  0.1026
   20SAPC   O14 2570   3.953   0.500   9.456  0.2276 -0.3472  0.3012
   20SAPC   O12 2571   4.137   0.649   9.465 -0.4645 -0.4054 -0.2141
   20SAPC   O11 2572   4.125   0.478   9.284 -0.4849  0.3652 -0.1297
   20SAPC    C1 2573   4.076   0.571   9.189  0.2076  0.3700 -0.4796
   20SAPC    HA 2574   4.061   0.675   9.225 -1.4060  0.2494 -0.7091
   20SAPC    HB 2575   4.145   0.573   9.102  0.5491 -0.2160 -0.2252
   20SAPC    C2 2576   3.940   0.514   9.136 -0.0082  0.3102 -0.6500
   20SAPC    HS 2577   3.879   0.491   9.225 -0.8757 -0.5276 -1.4436
   20SAPC   O21 2578   3.971   0.399   9.057  0.1382 -0.0097  0.3504
   20SAPC   C21 2579   3.867   0.315   9.045 -0.0643 -0.3359  0.3844
   20SAPC   O22 2580   3.755   0.332   9.090 -0.0969 -0.3352  0.0240
   20SAPC   C22 2581   3.914   0.208   8.955  0.0075 -0.4787  0.9759
   20SAPC   H2R 2582   4.025   0.195   8.951  0.1957  1.2061 -0.7067
   20SAPC   H2S 2583   3.866   0.114   8.991 -1.1630 -0.0162  0.6603
   20SAPC    C3 2584   3.861   0.625   9.051  0.5590  0.3549  0.1904
   20SAPC    HX 2585   3.845   0.717   9.110 -0.0162  0.7417 -0.5575
   20SAPC    HY 2586   3.757   0.589   9.037  0.5310  0.4595  0.1321
   20SAPC   O31 2587   3.923   0.661   8.925  0.1487  0.6542  0.1450
   20SAPC   C31 2588   4.017   0.758   8.926  0.6715  0.1060  0.0016
   20SAPC   O32 2589   4.022   0.849   9.005  0.3354 -0.1624 -0.0423
   20SAPC   C32 2590   4.119   0.737   8.814  0.4363  0.1125 -1.1578
   20SAPC   H2X 2591   4.172   0.642   8.834 -0.4535 -0.3083 -0.7243
   20SAPC   H2Y 2592   4.189   0.823   8.817  2.0281 -1.1485 -0.7884
   20SAPC   C23 2593   3.865   0.221   8.808 -0.2027 -0.7562 -0.5742
   20SAPC   H3R 2594   3.757   0.242   8.824 -0.4845 -1.7817 -1.0599
   20SAPC   H3S 2595   3.884   0.132   8.745 -1.5565 -1.9947  0.6996
   20SAPC   C24 2596   3.925   0.350   8.736  0.3044  0.3776  0.3006
   20SAPC   H4R 2597   3.908   0.443   8.794  2.4460  0.8049  0.3104
   20SAPC   H4S 2598   3.872   0.373   8.641 -1.8771  0.0657  1.3866
   20SAPC   C25 2599   4.072   0.334   8.715  0.8457 -0.5361 -0.1984
   20SAPC   H5R 2600   4.125   0.351   8.810 -0.5418  0.4136  0.4430
   20SAPC   C26 2601   4.140   0.316   8.597  0.1208  0.8571  0.3515
   20SAPC   H6R 2602   4.248   0.298   8.603 -0.0036  0.3648  1.2126
   20SAPC   C27 2603   4.084   0.305   8.463  0.1705  0.3242 -0.5660
   20SAPC   H7R 2604   4.149   0.354   8.388  1.4509  0.9443  0.8946
   20SAPC   H7S 2605   3.992   0.367   8.449 -0.4420 -0.8837 -2.2304
   20SAPC   C28 2606   4.047   0.162   8.413  0.0943 -0.9574 -0.5497
   20SAPC   H8R 2607   3.941   0.156   8.382 -0.4713  1.5051  0.6529
   20SAPC   C29 2608   4.120   0.044   8.422 -0.6324 -0.2772 -0.4353
   20SAPC   H9R 2609   4.073  -0.050   8.388  1.8987 -2.3549  1.4195
   20SAPC  C210 2610   4.267   0.034   8.451  0.9324 -0.2223 -0.6162
   20SAPC  H10R 2611   4.272   0.003   8.558 -3.3765 -1.1874 -0.5328
   20SAPC  H10S 2612   4.324   0.127   8.427  0.6794 -0.2218 -1.2082
   20SAPC  C211 2613   4.332  -0.073   8.364  1.0375 -0.2488 -0.4548
   20SAPC  H11R 2614   4.271  -0.109   8.280  1.5404 -1.3976 -0.3397
   20SAPC  C212 2615   4.456  -0.126   8.376 -0.6691  0.2620  0.2788
   20SAPC  H12R 2616   4.474  -0.212   8.309 -3.8070  0.0764 -0.4729
   20SAPC  C213 2617   4.568  -0.094   8.471  0.3642 -0.3801 -0.6441
   20SAPC  H13R 2618   4.546   0.005   8.519 -0.7201  0.0280 -1.9167
   20SAPC  H13S 2619   4.667  -0.091   8.421 -0.7227 -1.0853 -2.9921
   20SAPC  C214 2620   4.570  -0.203   8.577 -0.6282 -0.0971  0.3280
   20SAPC  H14R 2621   4.553  -0.307   8.547 -3.0253  0.2663  0.2850
   20SAPC  C215 2622   4.579  -0.190   8.711 -1.2535  0.3182  0.1862
   20SAPC  H15R 2623   4.564  -0.277   8.776 -1.5264  0.1282 -0.1244
   20SAPC  C216 2624   4.595  -0.065   8.786 -0.4629 -0.2211  0.0636
   20SAPC  H16R 2625   4.502  -0.043   8.843  0.1798 -0.4587  1.2375
   20SAPC  H16S 2626   4.589   0.029   8.727 -0.2105 -0.6196 -0.5986
   20SAPC  C217 2627   4.716  -0.049   8.868 -0.1696 -0.3306 -0.4958
   20SAPC  H17R 2628   4.811  -0.045   8.811 -0.9470  0.4638 -1.7864
   20SAPC  H17S 2629   4.722  -0.141   8.931  0.2783 -0.3613 -0.5835
   20SAPC  C218 2630   4.715   0.076   8.956  0.0384  0.8530 -0.2299
   20SAPC  H18R 2631   4.713   0.160   8.884 -1.1786 -0.7906 -2.2465
   20SAPC  H18S 2632   4.806   0.071   9.020 -0.6777 -0.0241  0.7650
   20SAPC  C219 2633   4.600   0.083   9.060 -0.2450 -0.5151 -0.2257
   20SAPC  H19R 2634   4.503   0.109   9.012 -1.4205 -1.1984  1.6700
   20SAPC  H19S 2635   4.615   0.176   9.119 -0.0857  0.0074 -1.0608
   20SAPC  C220 2636   4.580  -0.035   9.148  0.0544  0.6010  0.3995
   20SAPC  H20R 2637   4.665  -0.058   9.216 -0.5744 -1.7592  0.4921
   20SAPC  H20S 2638   4.575  -0.127   9.085 -1.0601  1.0197 -0.1492
   20SAPC  H20T 2639   4.488  -0.022   9.210 -0.6395 -1.1007 -0.2108
   20SAPC   C33 2640   4.058   0.751   8.669 -0.7555 -0.5051  0.0482
   20SAPC   H3X 2641   4.007   0.849   8.665 -0.2340 -0.2111  0.4469
   20SAPC   H3Y 2642   3.990   0.665   8.654 -0.8874 -0.5872  1.0379
   20SAPC   C34 2643   4.167   0.743   8.563  0.6089 -1.5012 -0.3863
   20SAPC   H4X 2644   4.230   0.654   8.587  0.4242 -1.6008 -0.2685
   20SAPC   H4Y 2645   4.223   0.839   8.557  0.7511 -1.6555 -1.9944
   20SAPC   C35 2646   4.110   0.726   8.425 -0.0761 -0.3329  0.5156
   20SAPC   H5X 2647   4.032   0.802   8.400 -1.4083 -0.9015  2.6487
   20SAPC   H5Y 2648   4.055   0.629   8.429 -3.3569  1.1097 -2.6909
   20SAPC   C36 2649   4.223   0.723   8.317  0.2099  0.0758  0.2475
   20SAPC   H6X 2650   4.318   0.676   8.352 -1.4469 -3.2649  0.6951
   20SAPC   H6Y 2651   4.248   0.824   8.278 -2.2954  0.1671 -1.2946
   20SAPC   C37 2652   4.188   0.630   8.195  0.2015  0.1000 -0.1001
   20SAPC   H7X 2653   4.088   0.640   8.149 -0.1608 -1.1677  0.3520
   20SAPC   H7Y 2654   4.164   0.536   8.250 -0.9377 -0.4422 -1.4746
   20SAPC   C38 2655   4.302   0.621   8.092 -0.1545 -0.2932 -0.2154
   20SAPC   H8X 2656   4.288   0.527   8.035 -0.1474 -0.2011 -0.3721
   20SAPC   H8Y 2657   4.403   0.632   8.137  0.0789  2.5531 -1.2216
   20SAPC   C39 2658   4.295   0.743   7.999 -0.0820 -0.2214  0.9732
   20SAPC   H9X 2659   4.312   0.836   8.056 -1.0833 -0.5137  1.7810
   20SAPC   H9Y 2660   4.192   0.755   7.959  0.5919 -0.5349 -0.9944
   20SAPC  C310 2661   4.402   0.743   7.883 -0.8859  0.6213 -0.1403
   20SAPC  H10X 2662   4.497   0.713   7.930 -1.2461 -0.4399 -0.0745
   20SAPC  H10Y 2663   4.409   0.849   7.849 -0.3939  1.3758  2.1817
   20SAPC  C311 2664   4.375   0.643   7.774 -0.1863 -0.1966 -0.4778
   20SAPC  H11X 2665   4.265   0.650   7.754 -0.1619  1.5168 -0.1695
   20SAPC  H11Y 2666   4.401   0.539   7.804  2.1856  0.2044 -0.9499
   20SAPC  C312 2667   4.445   0.688   7.646 -0.5488  0.2173 -0.5546
   20SAPC  H12X 2668   4.553   0.669   7.659 -0.8975 -3.6845 -2.0290
   20SAPC  H12Y 2669   4.435   0.798   7.630  0.6589  0.4243 -0.0041
   20SAPC  C313 2670   4.403   0.637   7.520 -0.1975 -0.5133 -0.3741
   20SAPC  H13X 2671   4.315   0.695   7.487  2.3303  2.9125 -1.7465
   20SAPC  H13Y 2672   4.374   0.530   7.513  0.4152 -0.7273  0.2257
   20SAPC  C314 2673   4.510   0.672   7.409  0.1371 -0.6275 -0.1924
   20SAPC  H14X 2674   4.511   0.593   7.331 -1.3894 -0.1869 -0.6814
   20SAPC  H14Y 2675   4.614   0.670   7.448  1.1692  0.2902 -2.7314
   20SAPC  C315 2676   4.480   0.810   7.347 -0.0691 -0.0029 -0.5286
   20SAPC  H15X 2677   4.484   0.894   7.419 -0.2294  0.8876 -1.5286
   20SAPC  H15Y 2678   4.378   0.812   7.305 -0.5430  2.4506  0.5626
   20SAPC  C316 2679   4.583   0.843   7.238  0.2919 -0.4316  0.2337
   20SAPC  H16X 2680   4.688   0.819   7.266  0.2514 -1.1610 -0.2071
   20SAPC  H16Y 2681   4.584   0.952   7.218  0.6488 -0.3282  0.7886
   20SAPC  C317 2682   4.544   0.779   7.099  0.4827 -0.5841 -0.1909
   20SAPC  H17X 2683   4.447   0.825   7.072  0.2228 -1.7468 -1.4221
   20SAPC  H17Y 2684   4.523   0.670   7.112  1.3830 -0.5921  1.3683
   20SAPC  C318 2685   4.649   0.798   6.985 -0.3369  0.3636 -0.0793
   20SAPC  H18X 2686   4.639   0.725   6.902 -0.3058 -0.8770  0.9749
   20SAPC  H18Y 2687   4.749   0.791   7.032 -0.4014  0.1876  0.0358
   20SAPC  H18Z 2688   4.644   0.898   6.936  0.7768  1.0256  1.1077
   21SAPC     N 2689   3.707   0.258   9.551  0.2966 -0.1331 -0.1712
   21SAPC   C12 2690   3.641   0.126   9.563 -0.4114  0.0241 -0.0469
   21SAPC  H12A 2691   3.595   0.112   9.659 -0.7571  1.1423 -0.0286
   21SAPC  H12B 2692   3.709   0.044   9.548 -1.0396 -0.5270  0.0505
   21SAPC   C13 2693   3.835   0.269   9.631 -0.0543  0.3907  0.1646
   21SAPC  H13A 2694   3.804   0.270   9.734  2.3145 -0.0482  0.9531
   21SAPC  H13B 2695   3.894   0.183   9.603 -0.4311  0.2182 -0.1074
   21SAPC  H13C 2696   3.893   0.357   9.608  1.8318 -0.8061  0.1010
   21SAPC   C14 2697   3.743   0.296   9.410 -0.3132  0.8993  0.0554
   21SAPC  H14A 2698   3.649   0.301   9.356 -0.8414 -0.8031  0.7621
   21SAPC  H14B 2699   3.807   0.382   9.399  0.7149 -0.1566 -3.9824
   21SAPC  H14C 2700   3.796   0.218   9.358 -2.4213 -0.0214 -0.8267
   21SAPC   C15 2701   3.620   0.364   9.614 -0.2224 -0.1033 -0.7814
   21SAPC  H15A 2702   3.608   0.352   9.720  1.8762  0.5567 -0.4080
   21SAPC  H15B 2703   3.658   0.463   9.590  1.3623 -0.2865  0.7319
   21SAPC  H15C 2704   3.520   0.357   9.575  0.8194 -0.8331 -3.5495
   21SAPC   C11 2705   3.525   0.112   9.469  0.0909 -0.0137 -0.5827
   21SAPC  H11A 2706   3.491   0.006   9.471 -0.0180  0.0187  1.4085
   21SAPC  H11B 2707   3.557   0.131   9.364  1.5630  2.3832  0.2257
   21SAPC     P 2708   3.299   0.162   9.609  0.3969 -0.1466  0.3825
   21SAPC   O13 2709   3.348   0.152   9.750 -0.2293 -0.2266  0.3261
   21SAPC   O14 2710   3.185   0.248   9.586 -0.2897 -0.6148 -0.3192
   21SAPC   O12 2711   3.414   0.198   9.510  0.3151  0.4631  0.0930
   21SAPC   O11 2712   3.259   0.019   9.561  0.8101 -0.5667 -0.1185
   21SAPC    C1 2713   3.194   0.015   9.426 -0.3972 -0.4082 -0.2969
   21SAPC    HA 2714   3.096   0.068   9.425  1.3688  3.1172 -1.9380
   21SAPC    HB 2715   3.260   0.042   9.341  0.7950  1.4211  1.1339
   21SAPC    C2 2716   3.165  -0.138   9.398 -0.5257 -0.4928  0.7104
   21SAPC    HS 2717   3.136  -0.185   9.494 -0.1606 -0.5460  0.7923
   21SAPC   O21 2718   3.290  -0.192   9.344  0.2495  0.6268  0.2050
   21SAPC   C21 2719   3.282  -0.328   9.330  0.5921  0.7564  0.2852
   21SAPC   O22 2720   3.189  -0.390   9.365 -0.1855  0.1894  0.3054
   21SAPC   C22 2721   3.412  -0.390   9.279  0.1096 -0.3788 -0.4302
   21SAPC   H2R 2722   3.499  -0.331   9.314 -0.0142  1.9184 -3.5879
   21SAPC   H2S 2723   3.426  -0.492   9.321 -0.3284 -1.2837 -2.4026
   21SAPC    C3 2724   3.040  -0.151   9.305  0.1034 -0.1039 -0.6394
   21SAPC    HX 2725   2.954  -0.117   9.367 -1.5002 -2.3370 -1.4718
   21SAPC    HY 2726   3.008  -0.257   9.290  0.1904 -0.6008  2.2117
   21SAPC   O31 2727   3.055  -0.078   9.180  0.4845  0.1779  0.0278
   21SAPC   C31 2728   3.084  -0.138   9.074 -0.5281 -0.0052 -0.9423
   21SAPC   O32 2729   3.086  -0.259   9.063 -0.1935  0.3462 -0.0394
   21SAPC   C32 2730   3.073  -0.033   8.960  0.1304  0.0179 -0.0118
   21SAPC   H2X 2731   3.100   0.066   9.003  0.1802  0.7433 -1.6164
   21SAPC   H2Y 2732   2.965  -0.028   8.932 -0.7429 -0.5070  2.9630
   21SAPC   C23 2733   3.415  -0.381   9.128 -0.5351 -0.3279 -0.3312
   21SAPC   H3R 2734   3.325  -0.415   9.073  0.2109 -1.0246 -1.1448
   21SAPC   H3S 2735   3.483  -0.457   9.085  0.5001 -1.1969  2.5956
   21SAPC   C24 2736   3.440  -0.243   9.064  0.2068  0.2055  0.0138
   21SAPC   H4R 2737   3.376  -0.168   9.115  0.0415  0.1856 -0.1669
   21SAPC   H4S 2738   3.414  -0.249   8.956 -0.4651 -0.7911  0.2179
   21SAPC   C25 2739   3.586  -0.211   9.084  0.5759 -0.7881  0.2481
   21SAPC   H5R 2740   3.632  -0.220   9.183  3.2027  1.6193 -0.5934
   21SAPC   C26 2741   3.664  -0.160   8.986 -0.1267 -1.0667  0.4794
   21SAPC   H6R 2742   3.766  -0.131   9.017 -0.7965  2.2095 -0.0106
   21SAPC   C27 2743   3.627  -0.124   8.845  0.0669 -0.2066  0.3821
   21SAPC   H7R 2744   3.657  -0.020   8.821 -2.2917  0.4870  0.2579
   21SAPC   H7S 2745   3.518  -0.103   8.840  0.4158  1.6912  0.2112
   21SAPC   C28 2746   3.658  -0.231   8.743 -0.7898 -0.0413  0.2951
   21SAPC   H8R 2747   3.640  -0.332   8.782 -2.2979  0.2319  0.3879
   21SAPC   C29 2748   3.674  -0.219   8.615  0.0496 -0.1157  0.0003
   21SAPC   H9R 2749   3.708  -0.311   8.565 -0.1430 -0.3106  0.2250
   21SAPC  C210 2750   3.667  -0.098   8.523 -0.4899  0.1083 -0.0548
   21SAPC  H10R 2751   3.755  -0.094   8.455 -0.6728 -0.3415 -0.3251
   21SAPC  H10S 2752   3.673  -0.009   8.589 -1.5078  0.8065 -0.8714
   21SAPC  C211 2753   3.538  -0.088   8.444  0.1962 -0.0880 -0.2157
   21SAPC  H11R 2754   3.454  -0.094   8.515  1.8502 -3.0866  1.7024
   21SAPC  C212 2755   3.522  -0.078   8.308 -0.7784  0.3640 -0.8876
   21SAPC  H12R 2756   3.418  -0.069   8.274 -1.3337 -0.4358  0.5067
   21SAPC  C213 2757   3.632  -0.078   8.202  0.0279 -0.4364  0.2470
   21SAPC  H13R 2758   3.701   0.002   8.236 -0.8075 -0.8552  3.2833
   21SAPC  H13S 2759   3.586  -0.032   8.112 -0.3222  0.9851  1.1166
   21SAPC  C214 2760   3.702  -0.205   8.177 -0.1297 -0.1765  0.5677
   21SAPC  H14R 2761   3.723  -0.276   8.258  1.7902 -2.6049 -1.8152
   21SAPC  C215 2762   3.758  -0.237   8.055  0.3906 -0.1395 -0.1740
   21SAPC  H15R 2763   3.818  -0.330   8.056  0.2820 -0.2246  2.0187
   21SAPC  C216 2764   3.755  -0.152   7.929 -0.9503 -0.1999  0.3202
   21SAPC  H16R 2765   3.725  -0.048   7.952 -0.7037 -0.1282  0.3186
   21SAPC  H16S 2766   3.682  -0.196   7.857 -0.2644  1.0280 -1.1749
   21SAPC  C217 2767   3.896  -0.150   7.864 -0.3002 -0.2599 -0.2588
   21SAPC  H17R 2768   3.915  -0.255   7.833 -3.7895 -1.2771  0.5686
   21SAPC  H17S 2769   3.974  -0.117   7.935 -2.4854  1.6183  1.4343
   21SAPC  C218 2770   3.883  -0.065   7.745 -0.3037  0.8685  0.5278
   21SAPC  H18R 2771   3.841   0.032   7.778 -0.8473  0.4118  1.2191
   21SAPC  H18S 2772   3.813  -0.112   7.672 -0.7329 -2.4262  2.8245
   21SAPC  C219 2773   4.009  -0.036   7.665 -0.1773 -0.6492 -0.5585
   21SAPC  H19R 2774   4.082   0.005   7.738  0.2819  1.2867 -2.0201
   21SAPC  H19S 2775   3.999   0.040   7.585  1.8596 -0.5128 -0.7312
   21SAPC  C220 2776   4.084  -0.162   7.608  0.2978  0.0561  0.8806
   21SAPC  H20R 2777   4.190  -0.130   7.603  0.4650 -0.4193  1.2408
   21SAPC  H20S 2778   4.032  -0.157   7.510 -0.7297  0.3419  1.4202
   21SAPC  H20T 2779   4.079  -0.259   7.663 -0.2932 -0.1563  0.4566
   21SAPC   C33 2780   3.159  -0.069   8.839  0.2030 -0.1893 -0.4530
   21SAPC   H3X 2781   3.265  -0.068   8.870 -0.7431  1.5978  3.2665
   21SAPC   H3Y 2782   3.140   0.026   8.783  0.4476 -0.5541 -1.1626
   21SAPC   C34 2783   3.116  -0.179   8.748 -0.1486 -0.4761  0.1990
   21SAPC   H4X 2784   3.017  -0.159   8.701  1.1397 -0.5936 -2.8122
   21SAPC   H4Y 2785   3.112  -0.271   8.810 -2.2020  0.2620  1.2759
   21SAPC   C35 2786   3.203  -0.195   8.620 -0.8516  0.3295  0.1624
   21SAPC   H5X 2787   3.306  -0.212   8.657 -0.5600  2.2405  0.3444
   21SAPC   H5Y 2788   3.197  -0.099   8.564  0.5782  1.7627  2.3066
   21SAPC   C36 2789   3.161  -0.309   8.528 -0.1855  0.3516  0.3195
   21SAPC   H6X 2790   3.055  -0.294   8.496  0.1933  1.7949 -0.3366
   21SAPC   H6Y 2791   3.169  -0.408   8.578  1.4015  0.5863  0.5623
   21SAPC   C37 2792   3.255  -0.310   8.405  0.0692  0.2319 -0.6405
   21SAPC   H7X 2793   3.353  -0.346   8.443 -0.8008 -1.3056  0.2123
   21SAPC   H7Y 2794   3.257  -0.214   8.349  0.0149  0.0224 -1.0043
   21SAPC   C38 2795   3.208  -0.418   8.306  0.8688  0.6300 -0.0530
   21SAPC   H8X 2796   3.102  -0.392   8.287  0.5539 -0.5585  0.0158
   21SAPC   H8Y 2797   3.211  -0.517   8.355  0.4001  0.3863 -0.5056
   21SAPC   C39 2798   3.288  -0.434   8.174 -0.0602 -0.5837  0.6184
   21SAPC   H9X 2799   3.268  -0.532   8.127  0.0899 -0.2684 -0.1152
   21SAPC   H9Y 2800   3.395  -0.422   8.200  0.4940  1.9244 -2.2402
   21SAPC  C310 2801   3.263  -0.327   8.083 -0.6215 -0.5412 -0.3257
   21SAPC  H10X 2802   3.336  -0.245   8.097 -1.1963 -0.5162  3.9969
   21SAPC  H10Y 2803   3.162  -0.282   8.097 -0.1535  1.3739 -2.4834
   21SAPC  C311 2804   3.269  -0.385   7.937 -0.2152  0.6283 -0.4044
   21SAPC  H11X 2805   3.180  -0.448   7.916  0.8520 -0.6379 -1.3077
   21SAPC  H11Y 2806   3.361  -0.448   7.933 -0.7940 -0.4416  1.8026
   21SAPC  C312 2807   3.284  -0.278   7.825 -0.3811  0.4490  0.1419
   21SAPC  H12X 2808   3.262  -0.327   7.728  0.1724  0.5144 -0.0191
   21SAPC  H12Y 2809   3.387  -0.237   7.828 -1.0934  2.2934  0.8557
   21SAPC  C313 2810   3.185  -0.159   7.848  0.0761  0.0900 -0.2488
   21SAPC  H13X 2811   3.236  -0.104   7.930 -0.4429 -2.2445  1.7526
   21SAPC  H13Y 2812   3.086  -0.193   7.885  0.6506 -1.4202 -0.0383
   21SAPC  C314 2813   3.180  -0.068   7.721 -0.2518 -0.2061  0.1014
   21SAPC  H14X 2814   3.284  -0.073   7.682 -0.5810 -0.6392 -0.7299
   21SAPC  H14Y 2815   3.140   0.033   7.744  0.8834  0.3740 -0.3987
   21SAPC  C315 2816   3.105  -0.133   7.604  0.2395  0.7023  0.9473
   21SAPC  H15X 2817   3.086  -0.242   7.616 -1.9814  0.8623 -0.4412
   21SAPC  H15Y 2818   3.163  -0.107   7.512  1.7636  0.3872  1.7870
   21SAPC  C316 2819   2.967  -0.073   7.587  0.7886  0.0738  1.0997
   21SAPC  H16X 2820   2.969   0.038   7.596 -1.2660  0.2772 -0.4464
   21SAPC  H16Y 2821   2.901  -0.114   7.666 -0.1661  1.0345  0.8233
   21SAPC  C317 2822   2.891  -0.121   7.459  0.0444 -0.3612  0.2565
   21SAPC  H17X 2823   2.954  -0.131   7.368 -2.1241  2.5372 -1.7566
   21SAPC  H17Y 2824   2.815  -0.049   7.422  0.4447 -0.9406 -1.8293
   21SAPC  C318 2825   2.808  -0.246   7.492 -0.4233  0.1044  0.8041
   21SAPC  H18X 2826   2.723  -0.275   7.427 -0.6211 -1.7191  1.8161
   21SAPC  H18Y 2827   2.771  -0.237   7.596 -1.4928  0.2492  0.4162
   21SAPC  H18Z 2828   2.877  -0.331   7.473 -0.9469  0.2031 -1.9276
   22SAPC     N 2829   0.073   6.286   9.865 -0.4296 -0.3443  0.5536
   22SAPC   C12 2830   0.137   6.423   9.842 -0.7817  0.3671  0.1268
   22SAPC  H12A 2831   0.239   6.413   9.875 -0.4220 -1.9163 -1.4708
   22SAPC  H12B 2832   0.091   6.500   9.903 -0.2171  0.0896  0.9114
   22SAPC   C13 2833  -0.060   6.276   9.795 -0.1199  0.3894  0.3074
   22SAPC  H13A 2834  -0.118   6.192   9.831 -1.3273  1.7403  1.6840
   22SAPC  H13B 2835  -0.119   6.358   9.832 -0.4263 -0.7661  2.4929
   22SAPC  H13C 2836  -0.051   6.275   9.687  3.4134 -1.4068  0.4797
   22SAPC   C14 2837   0.160   6.171   9.815  0.0479  0.3141  0.2177
   22SAPC  H14A 2838   0.240   6.157   9.886  0.1489  1.7631  0.4187
   22SAPC  H14B 2839   0.112   6.075   9.805  0.0197  0.4149 -0.7320
   22SAPC  H14C 2840   0.197   6.199   9.717  0.4510 -0.8306  0.0218
   22SAPC   C15 2841   0.049   6.269  10.013  0.7505 -0.3486 -0.8039
   22SAPC  H15A 2842  -0.016   6.186  10.034  1.2084 -0.3780  0.6021
   22SAPC  H15B 2843   0.143   6.261  10.066  0.0298  2.3535  1.0851
   22SAPC  H15C 2844  -0.008   6.346  10.063 -0.3933 -0.6502 -1.6232
   22SAPC   C11 2845   0.154   6.485   9.698  0.1396 -0.1140 -0.1481
   22SAPC  H11A 2846   0.175   6.594   9.707 -1.7071  0.1334  2.4941
   22SAPC  H11B 2847   0.056   6.472   9.646 -0.1289 -0.7422  0.4913
   22SAPC     P 2848   0.405   6.452   9.648 -0.0650  0.2674 -0.2334
   22SAPC   O13 2849   0.419   6.599   9.626  0.4100  0.6350  0.1620
   22SAPC   O14 2850   0.444   6.394   9.778  0.3480 -0.8847  0.2266
   22SAPC   O12 2851   0.258   6.420   9.624 -0.0686 -0.2627 -0.0890
   22SAPC   O11 2852   0.470   6.371   9.532 -0.5518  0.1476  0.2957
   22SAPC    C1 2853   0.436   6.388   9.392 -0.4537 -0.1525  0.0405
   22SAPC    HA 2854   0.329   6.365   9.372 -0.2854 -0.3229 -0.6679
   22SAPC    HB 2855   0.463   6.491   9.362  1.6885 -0.5807  0.3782
   22SAPC    C2 2856   0.526   6.304   9.292  0.3586 -0.2959  0.4850
   22SAPC    HS 2857   0.515   6.354   9.194 -1.3224  0.7661  1.1693
   22SAPC   O21 2858   0.498   6.165   9.290  0.3204  0.5244 -0.7055
   22SAPC   C21 2859   0.387   6.147   9.219 -0.0739  0.3121 -0.4318
   22SAPC   O22 2860   0.335   6.240   9.154 -0.1812  0.1031 -0.8319
   22SAPC   C22 2861   0.344   6.003   9.232  0.1683 -0.0339  0.4600
   22SAPC   H2R 2862   0.430   5.939   9.203 -0.5183 -0.1448 -1.4548
   22SAPC   H2S 2863   0.310   5.988   9.337  0.2658 -0.0392  0.4917
   22SAPC    C3 2864   0.677   6.324   9.323 -0.4519  0.3625 -0.4231
   22SAPC    HX 2865   0.678   6.322   9.434 -1.5378 -0.9365 -0.4081
   22SAPC    HY 2866   0.708   6.423   9.285  1.8571 -0.2674 -0.3412
   22SAPC   O31 2867   0.756   6.218   9.272 -0.8415  0.2276  0.0119
   22SAPC   C31 2868   0.884   6.221   9.301 -0.0355 -0.2568  0.0111
   22SAPC   O32 2869   0.929   6.320   9.360  0.1794 -0.2204 -0.0618
   22SAPC   C32 2870   0.954   6.091   9.267  0.2509  0.3448  0.1018
   22SAPC   H2X 2871   0.879   6.025   9.218  0.1865 -0.5854  1.3941
   22SAPC   H2Y 2872   0.976   6.041   9.363  0.6568  0.3514  0.0160
   22SAPC   C23 2873   0.223   5.976   9.137  0.3992 -0.6003 -0.2319
   22SAPC   H3R 2874   0.150   6.058   9.155 -1.4997 -1.9855 -1.2943
   22SAPC   H3S 2875   0.181   5.879   9.170  1.9440 -0.8186  1.2748
   22SAPC   C24 2876   0.260   5.982   8.985  0.4584  0.1255  0.4798
   22SAPC   H4R 2877   0.298   6.084   8.961  0.5445 -0.1086 -0.4255
   22SAPC   H4S 2878   0.164   5.990   8.930  0.8811  1.6881 -0.0814
   22SAPC   C25 2879   0.331   5.864   8.930 -0.6412 -0.4614 -0.1693
   22SAPC   H5R 2880   0.290   5.763   8.947 -1.9391  0.3503  1.7787
   22SAPC   C26 2881   0.442   5.881   8.864 -0.2441  0.5957  0.1335
   22SAPC   H6R 2882   0.501   5.790   8.848  0.9045  1.1603  1.0666
   22SAPC   C27 2883   0.509   6.006   8.813  0.7058 -1.0431  0.2029
   22SAPC   H7R 2884   0.442   6.075   8.758 -0.1672 -1.6401  0.4985
   22SAPC   H7S 2885   0.582   5.975   8.736  0.5737  0.3868 -0.5342
   22SAPC   C28 2886   0.593   6.076   8.916  0.1376 -0.3445  0.4327
   22SAPC   H8R 2887   0.653   6.007   8.977  0.0346 -0.8631 -0.0497
   22SAPC   C29 2888   0.632   6.208   8.926 -1.3553 -0.6491  0.0360
   22SAPC   H9R 2889   0.711   6.240   8.996 -0.4593  0.5948 -1.4846
   22SAPC  C210 2890   0.587   6.326   8.841 -0.1542  0.3652 -0.1473
   22SAPC  H10R 2891   0.521   6.277   8.767 -0.4255  0.6697 -0.1079
   22SAPC  H10S 2892   0.679   6.363   8.790 -1.6756  2.9811 -1.1351
   22SAPC  C211 2893   0.533   6.447   8.921  0.7902 -0.4582  0.7693
   22SAPC  H11R 2894   0.435   6.423   8.964 -0.5040  2.0769 -0.5579
   22SAPC  C212 2895   0.592   6.567   8.944 -0.1705 -0.7480  0.2194
   22SAPC  H12R 2896   0.533   6.654   8.975  0.8145  0.3748 -0.9678
   22SAPC  C213 2897   0.733   6.601   8.902  0.2458  0.0898  0.1606
   22SAPC  H13R 2898   0.730   6.711   8.883 -1.4121  0.3107  1.5269
   22SAPC  H13S 2899   0.754   6.552   8.805 -1.2637  2.6293 -1.5836
   22SAPC  C214 2900   0.833   6.583   9.020  0.1938  0.8570  0.1669
   22SAPC  H14R 2901   0.781   6.586   9.118 -1.9627 -1.2611 -0.7976
   22SAPC  C215 2902   0.965   6.556   9.013  0.1107 -0.5294  0.6030
   22SAPC  H15R 2903   1.026   6.530   9.101 -1.4821 -3.6709  0.8847
   22SAPC  C216 2904   1.031   6.539   8.879 -0.2858  0.4548  0.2341
   22SAPC  H16R 2905   0.990   6.612   8.806 -1.9927 -0.0508  0.6454
   22SAPC  H16S 2906   0.997   6.453   8.818 -0.8222  0.7323  0.1342
   22SAPC  C217 2907   1.180   6.544   8.889  0.1077  0.0999  0.3749
   22SAPC  H17R 2908   1.223   6.486   8.973  0.6754 -0.4416 -0.2814
   22SAPC  H17S 2909   1.206   6.649   8.914  1.7545  0.0902 -1.1137
   22SAPC  C218 2910   1.252   6.495   8.760  0.0348 -0.2037 -0.3402
   22SAPC  H18R 2911   1.247   6.384   8.748 -0.2289 -0.1262 -1.0446
   22SAPC  H18S 2912   1.357   6.526   8.780 -0.5048  2.0786 -0.7271
   22SAPC  C219 2913   1.212   6.567   8.625 -0.0242  0.4336  0.7705
   22SAPC  H19R 2914   1.234   6.676   8.634  1.7734  0.2461 -0.6896
   22SAPC  H19S 2915   1.107   6.533   8.615  0.2525 -0.5898  1.2259
   22SAPC  C220 2916   1.309   6.506   8.514 -0.3281  0.2931 -0.0656
   22SAPC  H20R 2917   1.414   6.541   8.513  0.3199 -1.5083 -0.1862
   22SAPC  H20S 2918   1.265   6.512   8.412 -0.5346 -2.3894 -0.2194
   22SAPC  H20T 2919   1.307   6.395   8.529 -1.3437  0.1741 -0.9621
   22SAPC   C33 2920   1.100   6.103   9.205  0.4608  0.1525 -0.0904
   22SAPC   H3X 2921   1.128   5.996   9.206 -3.0476 -0.9106  0.9307
   22SAPC   H3Y 2922   1.163   6.161   9.275 -0.4788  0.1837  0.7411
   22SAPC   C34 2923   1.095   6.153   9.055 -0.1456 -0.2094  0.3441
   22SAPC   H4X 2924   1.197   6.177   9.017 -0.8395  1.2915 -0.7032
   22SAPC   H4Y 2925   1.040   6.250   9.058 -0.2989 -0.3014  0.5133
   22SAPC   C35 2926   1.032   6.054   8.955 -0.0473 -0.1379 -0.0523
   22SAPC   H5X 2927   0.923   6.055   8.973 -0.4237  1.0396 -2.0126
   22SAPC   H5Y 2928   1.077   5.953   8.964  1.6756  0.5655 -0.3836
   22SAPC   C36 2929   1.054   6.090   8.803  0.5069 -0.0593  0.7113
   22SAPC   H6X 2930   1.094   5.996   8.758 -2.7694 -1.1788 -0.1054
   22SAPC   H6Y 2931   1.135   6.166   8.806  0.3070  0.5750 -3.4978
   22SAPC   C37 2932   0.934   6.141   8.727 -0.0894  0.3615  0.1103
   22SAPC   H7X 2933   0.907   6.246   8.753 -0.3265  0.7880 -1.6817
   22SAPC   H7Y 2934   0.846   6.080   8.754 -0.2555 -0.1048 -1.3873
   22SAPC   C38 2935   0.947   6.131   8.574 -0.6332  0.4868 -0.4585
   22SAPC   H8X 2936   0.984   6.029   8.548  2.3934  1.2187  0.5344
   22SAPC   H8Y 2937   1.045   6.178   8.552  0.3238 -0.7974  0.8536
   22SAPC   C39 2938   0.834   6.186   8.491  0.1692 -0.5674 -0.1391
   22SAPC   H9X 2939   0.833   6.296   8.508  0.5645 -0.7872  1.5692
   22SAPC   H9Y 2940   0.738   6.146   8.532 -1.9346  1.3558 -2.8835
   22SAPC  C310 2941   0.863   6.167   8.339  0.3519  0.1957  0.4161
   22SAPC  H10X 2942   0.961   6.214   8.313 -1.5828  4.1929 -0.3946
   22SAPC  H10Y 2943   0.784   6.214   8.278  2.0247  0.2837 -1.8114
   22SAPC  C311 2944   0.864   6.020   8.301 -0.1651 -0.4100 -0.0297
   22SAPC  H11X 2945   0.774   5.968   8.341 -0.9826  0.4838 -0.6703
   22SAPC  H11Y 2946   0.953   5.965   8.339  2.1131  1.9089 -1.6689
   22SAPC  C312 2947   0.846   6.007   8.151  0.2267 -0.0164  0.0068
   22SAPC  H12X 2948   0.759   6.066   8.115  0.6510  0.1428 -0.8002
   22SAPC  H12Y 2949   0.818   5.901   8.132 -0.3960  0.4382 -1.8765
   22SAPC  C313 2950   0.978   6.043   8.075  0.5517 -0.1593  0.1130
   22SAPC  H13X 2951   1.059   5.982   8.121  0.7819 -0.5086 -0.7456
   22SAPC  H13Y 2952   1.002   6.151   8.086  3.3606 -0.7139  0.2914
   22SAPC  C314 2953   0.965   6.028   7.921  0.0949 -0.3275  0.0308
   22SAPC  H14X 2954   0.953   5.919   7.904 -1.5119 -0.2651  0.5439
   22SAPC  H14Y 2955   1.057   6.069   7.874 -0.0908 -0.1659 -0.1975
   22SAPC  C315 2956   0.836   6.088   7.861  0.3915 -0.4006 -1.0618
   22SAPC  H15X 2957   0.750   6.031   7.901 -0.6346  1.7268 -0.0627
   22SAPC  H15Y 2958   0.845   6.083   7.751 -1.6645  0.0679 -1.2866
   22SAPC  C316 2959   0.803   6.240   7.901  0.2489 -0.0963 -0.0858
   22SAPC  H16X 2960   0.869   6.277   7.982 -1.8025  1.4642  0.9906
   22SAPC  H16Y 2961   0.698   6.237   7.937  0.2528 -0.9445 -0.1254
   22SAPC  C317 2962   0.816   6.335   7.776  0.6809 -0.9862 -0.3234
   22SAPC  H17X 2963   0.753   6.295   7.693 -1.1249 -0.7449  0.8627
   22SAPC  H17Y 2964   0.924   6.333   7.751  0.7853  0.0849  0.0283
   22SAPC  C318 2965   0.775   6.477   7.809 -0.2927  0.0895  0.4310
   22SAPC  H18X 2966   0.684   6.475   7.872  1.2925  0.5760  2.8403
   22SAPC  H18Y 2967   0.765   6.531   7.712  3.5055  0.6637  0.2265
   22SAPC  H18Z 2968   0.859   6.524   7.864  1.4733 -0.3573 -1.7051
   23SAPC     N 2969   4.909   6.938   9.778  0.2104  0.0075 -0.4552
   23SAPC   C12 2970   5.050   6.962   9.836 -0.6709  0.3002 -0.0103
   23SAPC  H12A 2971   5.069   6.887   9.911 -0.3344 -1.0222 -1.3523
   23SAPC  H12B 2972   5.054   7.058   9.884  1.0465  1.1974 -1.8181
   23SAPC   C13 2973   4.883   7.030   9.669  0.3154  0.7667  0.9240
   23SAPC  H13A 2974   4.916   7.132   9.686  0.2622  0.7912  0.8785
   23SAPC  H13B 2975   4.939   7.000   9.582  1.9002 -0.1366  2.1940
   23SAPC  H13C 2976   4.779   7.030   9.641  0.8019 -1.0769 -1.1041
   23SAPC   C14 2977   4.894   6.793   9.746 -0.2628 -0.0572  0.0447
   23SAPC  H14A 2978   4.909   6.735   9.836  2.3581  0.8435  0.2825
   23SAPC  H14B 2979   4.801   6.757   9.706  0.6187 -0.3769 -1.8028
   23SAPC  H14C 2980   4.976   6.770   9.681  0.2050  1.5918  0.0029
   23SAPC   C15 2981   4.799   6.963   9.880 -0.5148 -0.7246  0.0595
   23SAPC  H15A 2982   4.808   6.907   9.971  0.6615  0.4396  0.7003
   23SAPC  H15B 2983   4.804   7.068   9.905 -0.4524 -0.5070 -0.8260
   23SAPC  H15C 2984   4.700   6.946   9.842 -0.1804  0.3809 -1.4267
   23SAPC   C11 2985   5.169   6.966   9.737 -0.6738  0.2143  0.3319
   23SAPC  H11A 2986   5.151   6.901   9.648  1.7777 -1.9207  1.2829
   23SAPC  H11B 2987   5.258   6.917   9.781 -1.8750 -2.8273 -0.3566
   23SAPC     P 2988   5.226   7.157   9.556 -0.4951  0.1831 -0.0869
   23SAPC   O13 2989   5.093   7.196   9.507 -0.7836 -0.0883 -0.1495
   23SAPC   O14 2990   5.326   7.263   9.549  0.3101 -0.3018  0.0480
   23SAPC   O12 2991   5.212   7.102   9.705  0.0368  0.9284  0.2887
   23SAPC   O11 2992   5.294   7.032   9.485 -0.0851 -0.2600 -0.1100
   23SAPC    C1 2993   5.430   7.001   9.490 -0.0070 -0.1100 -0.0223
   23SAPC    HA 2994   5.484   7.057   9.569 -1.4366  1.3007  0.0031
   23SAPC    HB 2995   5.439   6.899   9.532 -0.9185 -0.8215 -1.4922
   23SAPC    C2 2996   5.490   7.014   9.348 -0.9420 -0.9964  0.5078
   23SAPC    HS 2997   5.448   7.113   9.319 -1.6976 -1.2553  0.6688
   23SAPC   O21 2998   5.434   6.905   9.278 -0.5500 -0.4329 -0.0340
   23SAPC   C21 2999   5.387   6.939   9.163 -0.3579 -0.1526 -0.4989
   23SAPC   O22 3000   5.403   7.046   9.105  0.3963  0.3236 -0.0944
   23SAPC   C22 3001   5.304   6.832   9.107 -1.0384 -0.3890  0.2228
   23SAPC   H2R 3002   5.284   6.758   9.187  0.3414 -1.2871 -0.2345
   23SAPC   H2S 3003   5.204   6.874   9.081 -0.0775  1.7827 -0.1823
   23SAPC    C3 3004   5.651   7.017   9.342 -0.5164  0.0240 -0.4457
   23SAPC    HX 3005   5.675   6.945   9.423 -0.6636  1.5872  1.0329
   23SAPC    HY 3006   5.686   7.117   9.374  1.7322 -0.7775 -0.2093
   23SAPC   O31 3007   5.694   6.978   9.213 -0.0422  0.1891  0.4084
   23SAPC   C31 3008   5.706   7.076   9.127  0.1135 -0.0416 -0.0382
   23SAPC   O32 3009   5.679   7.191   9.146  0.1673 -0.7011 -0.0827
   23SAPC   C32 3010   5.741   7.016   8.990  0.6025  0.7015 -0.4646
   23SAPC   H2X 3011   5.650   6.960   8.959  1.5240  0.1148 -2.2371
   23SAPC   H2Y 3012   5.820   6.943   9.015 -1.7932 -1.2351  2.1234
   23SAPC   C23 3013   5.384   6.767   8.997 -0.3604 -0.4308  0.6370
   23SAPC   H3R 3014   5.486   6.738   9.031 -1.4058 -1.8531  2.7963
   23SAPC   H3S 3015   5.386   6.839   8.912 -2.7010 -0.0996  0.7821
   23SAPC   C24 3016   5.326   6.638   8.939 -0.2941 -1.1445  0.7312
   23SAPC   H4R 3017   5.224   6.664   8.902 -0.3845 -1.4819  0.7403
   23SAPC   H4S 3018   5.306   6.578   9.030 -0.1244 -1.9476  0.2519
   23SAPC   C25 3019   5.397   6.567   8.834 -0.0160 -0.5148  0.1357
   23SAPC   H5R 3020   5.459   6.480   8.860 -0.1333 -1.2797 -1.9113
   23SAPC   C26 3021   5.419   6.611   8.708 -0.0042 -0.3749 -0.1256
   23SAPC   H6R 3022   5.480   6.553   8.637 -1.7400 -0.7866 -1.3397
   23SAPC   C27 3023   5.364   6.736   8.646 -0.2093 -0.7080  0.1245
   23SAPC   H7R 3024   5.305   6.793   8.720 -1.9220 -0.4685 -1.3710
   23SAPC   H7S 3025   5.297   6.711   8.561  1.0809  0.1052 -1.1840
   23SAPC   C28 3026   5.485   6.809   8.592 -0.0292 -0.3490  0.9136
   23SAPC   H8R 3027   5.568   6.832   8.661  0.3683 -0.7799  0.5839
   23SAPC   C29 3028   5.502   6.852   8.465 -0.7906  0.1043 -0.1339
   23SAPC   H9R 3029   5.601   6.895   8.443 -1.6944  1.3225 -2.1323
   23SAPC  C210 3030   5.417   6.830   8.336  0.0921 -0.2703 -0.6368
   23SAPC  H10R 3031   5.330   6.899   8.339  0.7230  0.5175  0.7506
   23SAPC  H10S 3032   5.374   6.727   8.343  1.8624 -0.9490  2.0855
   23SAPC  C211 3033   5.475   6.851   8.201 -0.1686  0.5113 -0.2707
   23SAPC  H11R 3034   5.498   6.759   8.146  0.6232  0.0148  0.8611
   23SAPC  C212 3035   5.510   6.967   8.151  0.2594  0.5456  0.5002
   23SAPC  H12R 3036   5.549   6.972   8.048 -0.3031 -0.9686  0.1875
   23SAPC  C213 3037   5.484   7.102   8.210  0.4847 -0.7912 -0.0010
   23SAPC  H13R 3038   5.581   7.155   8.217 -0.4200  0.9130 -0.0328
   23SAPC  H13S 3039   5.449   7.097   8.316 -0.5533 -0.6200 -0.3277
   23SAPC  C214 3040   5.400   7.179   8.113 -0.1126 -0.8100  0.0821
   23SAPC  H14R 3041   5.297   7.205   8.140 -0.3591 -0.7648 -0.8696
   23SAPC  C215 3042   5.426   7.222   7.990 -0.5157 -0.6061 -0.0763
   23SAPC  H15R 3043   5.345   7.268   7.932  0.2351 -1.3061 -1.7250
   23SAPC  C216 3044   5.553   7.204   7.909  0.2239 -0.0312  0.6030
   23SAPC  H16R 3045   5.636   7.162   7.970  1.4674  0.5039 -0.6434
   23SAPC  H16S 3046   5.603   7.294   7.867  0.6794 -0.5922 -0.0880
   23SAPC  C217 3047   5.519   7.098   7.798 -0.8310 -0.6551  0.3358
   23SAPC  H17R 3048   5.494   7.000   7.845 -1.2544 -1.4674 -1.4949
   23SAPC  H17S 3049   5.616   7.074   7.750 -0.5511  0.4251  0.3351
   23SAPC  C218 3050   5.418   7.129   7.683 -0.3168 -0.0228 -0.1761
   23SAPC  H18R 3051   5.424   7.236   7.653 -1.3329 -0.6652 -2.8532
   23SAPC  H18S 3052   5.318   7.122   7.731  0.6473  0.5592  2.0641
   23SAPC  C219 3053   5.421   7.044   7.562  0.7149 -0.9445  0.3289
   23SAPC  H19R 3054   5.410   6.937   7.589 -0.0028 -0.5805  1.5280
   23SAPC  H19S 3055   5.524   7.063   7.523 -0.4083  1.7866 -1.6526
   23SAPC  C220 3056   5.311   7.098   7.462 -0.2239  0.1607 -0.2095
   23SAPC  H20R 3057   5.212   7.065   7.500  0.1861 -1.0974 -0.1706
   23SAPC  H20S 3058   5.333   7.052   7.363  0.3051 -1.7747  0.7567
   23SAPC  H20T 3059   5.311   7.208   7.451 -0.6579  0.2229  0.3882
   23SAPC   C33 3060   5.791   7.115   8.884 -0.1738  0.1194 -0.0972
   23SAPC   H3X 3061   5.888   7.164   8.905 -0.4221  0.0192  1.3980
   23SAPC   H3Y 3062   5.723   7.202   8.885  0.5133  0.6729  1.2719
   23SAPC   C34 3063   5.796   7.047   8.750  0.8320  0.2676 -0.8154
   23SAPC   H4X 3064   5.694   7.019   8.716  0.8888  0.9754 -1.5956
   23SAPC   H4Y 3065   5.860   6.956   8.760  2.0820  1.3371  2.1077
   23SAPC   C35 3066   5.854   7.129   8.636 -0.2793  0.4261  0.3528
   23SAPC   H5X 3067   5.958   7.159   8.664 -0.2943 -0.6704  1.7015
   23SAPC   H5Y 3068   5.806   7.227   8.617 -0.5731  0.1367 -0.4154
   23SAPC   C36 3069   5.856   7.045   8.504 -0.8280  0.0051  0.3797
   23SAPC   H6X 3070   5.754   7.023   8.465 -0.2158  0.5635 -1.6827
   23SAPC   H6Y 3071   5.901   6.944   8.516  1.4577  0.9092 -0.1223
   23SAPC   C37 3072   5.934   7.125   8.396  0.3004 -0.2226  0.3297
   23SAPC   H7X 3073   6.043   7.131   8.411  0.5612 -1.2485 -0.9696
   23SAPC   H7Y 3074   5.889   7.227   8.393  0.0019 -0.3453  0.6050
   23SAPC   C38 3075   5.913   7.038   8.265  0.2615  0.1911  0.5218
   23SAPC   H8X 3076   5.806   7.015   8.244 -0.0639 -0.2877  2.4873
   23SAPC   H8Y 3077   5.956   6.941   8.297 -0.6415  0.4129  2.5766
   23SAPC   C39 3078   5.968   7.101   8.140  0.4316 -0.0074  0.7665
   23SAPC   H9X 3079   6.079   7.103   8.137  0.4683 -1.2362  0.8441
   23SAPC   H9Y 3080   5.929   7.205   8.142  0.4603  0.0265  0.0613
   23SAPC  C310 3081   5.914   7.033   8.015  0.3429  0.1519  0.3182
   23SAPC  H10X 3082   5.804   7.020   8.011  0.3311  0.5158 -1.3361
   23SAPC  H10Y 3083   5.952   6.929   8.001  0.3537  0.0181  1.2900
   23SAPC  C311 3084   5.944   7.114   7.885  0.2537  0.0540 -0.1489
   23SAPC  H11X 3085   6.051   7.145   7.893  0.1645  1.2673 -2.7764
   23SAPC  H11Y 3086   5.885   7.208   7.892  0.3734  0.0436  1.3117
   23SAPC  C312 3087   5.927   7.022   7.764 -0.2588 -0.5024 -0.0049
   23SAPC  H12X 3088   5.827   6.974   7.774 -1.0093  1.0377  0.1771
   23SAPC  H12Y 3089   6.011   6.952   7.780  0.9371  0.5771 -1.3575
   23SAPC  C313 3090   5.945   7.097   7.632  0.3647  0.6056 -0.4531
   23SAPC  H13X 3091   6.048   7.137   7.623  0.0123  1.1255 -2.8920
   23SAPC  H13Y 3092   5.876   7.183   7.622  0.0264  0.4121  0.1404
   23SAPC  C314 3093   5.927   6.991   7.518 -0.3249  0.2244  0.7146
   23SAPC  H14X 3094   5.826   6.946   7.507  0.1778 -1.3768  2.1664
   23SAPC  H14Y 3095   5.993   6.906   7.547  0.8133  0.7863 -0.1681
   23SAPC  C315 3096   5.983   7.060   7.394  0.1703 -0.2118  0.7742
   23SAPC  H15X 3097   6.094   7.060   7.394  0.2154 -2.4102 -0.7290
   23SAPC  H15Y 3098   5.939   7.162   7.386 -0.2725 -0.5147 -1.0677
   23SAPC  C316 3099   5.954   7.010   7.252 -0.1706 -0.3052  0.4814
   23SAPC  H16X 3100   5.981   6.903   7.241  0.2991 -0.0795 -0.7064
   23SAPC  H16Y 3101   6.013   7.073   7.182 -1.8302  1.4120  0.5530
   23SAPC  C317 3102   5.809   7.033   7.197 -1.0646 -0.0120 -0.4552
   23SAPC  H17X 3103   5.806   7.002   7.090  0.9468 -0.7334 -0.3585
   23SAPC  H17Y 3104   5.782   7.140   7.201 -1.7548 -0.2033  0.1168
   23SAPC  C318 3105   5.697   6.956   7.271 -0.4382  0.1770  0.2832
   23SAPC  H18X 3106   5.699   7.000   7.373 -0.5122  1.8733 -0.4151
   23SAPC  H18Y 3107   5.721   6.848   7.277 -2.7598 -0.5468 -2.1313
   23SAPC  H18Z 3108   5.595   6.966   7.230 -0.8852  0.7113  1.4765
   24SAPC     N 3109   6.938   6.934   9.937 -0.3595 -0.4895 -0.3337
   24SAPC   C12 3110   6.834   6.832   9.969  0.1181 -0.1076 -0.1721
   24SAPC  H12A 3111   6.745   6.868   9.918  0.9012 -0.2191 -1.6718
   24SAPC  H12B 3112   6.816   6.834  10.075 -2.0651  2.2374 -0.4895
   24SAPC   C13 3113   6.960   6.944   9.793  0.1770 -0.2473  0.1440
   24SAPC  H13A 3114   7.043   7.009   9.767 -0.0585  1.0547  2.4348
   24SAPC  H13B 3115   6.979   6.846   9.751 -0.9584 -1.7572  2.9284
   24SAPC  H13C 3116   6.877   6.986   9.738  0.6290 -1.2961 -1.4287
   24SAPC   C14 3117   6.903   7.078   9.989  0.5059  0.5287  0.2664
   24SAPC  H14A 3118   6.834   7.132   9.926 -1.9282 -0.8921  1.5587
   24SAPC  H14B 3119   6.846   7.071  10.080  0.7115  0.7310  0.4119
   24SAPC  H14C 3120   6.996   7.133  10.000  2.1645 -1.9467 -0.5229
   24SAPC   C15 3121   7.070   6.885   9.995 -0.3457  0.0823  0.3699
   24SAPC  H15A 3122   7.085   6.793   9.941  2.2287 -0.1218  1.2562
   24SAPC  H15B 3123   7.146   6.959   9.972 -0.6572 -0.0133 -1.0409
   24SAPC  H15C 3124   7.073   6.870  10.102  2.1567  1.2510  0.5399
   24SAPC   C11 3125   6.863   6.689   9.930 -0.1108 -0.7782  0.4917
   24SAPC  H11A 3126   6.787   6.633   9.988  0.0012 -1.5152 -0.0614
   24SAPC  H11B 3127   6.963   6.652   9.963  1.6085  2.3582 -0.6954
   24SAPC     P 3128   6.928   6.549   9.726  0.3038  0.2224  0.3349
   24SAPC   O13 3129   7.072   6.573   9.755 -0.1165  0.2379 -0.3848
   24SAPC   O14 3130   6.864   6.421   9.767  0.3193 -0.2285  0.7212
   24SAPC   O12 3131   6.842   6.664   9.789 -0.3206 -0.7999 -0.0214
   24SAPC   O11 3132   6.895   6.559   9.579  0.0252 -0.6157 -0.1209
   24SAPC    C1 3133   6.851   6.675   9.510  0.0221  0.6467 -0.6004
   24SAPC    HA 3134   6.814   6.755   9.577  0.6186  0.4616 -0.0389
   24SAPC    HB 3135   6.937   6.716   9.452  0.2774  0.0661 -0.6428
   24SAPC    C2 3136   6.739   6.641   9.401  0.2223  0.2520 -0.2490
   24SAPC    HS 3137   6.669   6.572   9.452  1.2046  0.8744  2.0652
   24SAPC   O21 3138   6.802   6.592   9.283 -0.3265 -0.5960  0.3775
   24SAPC   C21 3139   6.720   6.515   9.198 -0.2974 -0.3979  0.4437
   24SAPC   O22 3140   6.607   6.480   9.220  0.4487 -0.2604  0.0583
   24SAPC   C22 3141   6.799   6.478   9.068 -0.1876 -0.9434 -0.0519
   24SAPC   H2R 3142   6.843   6.376   9.077 -0.4826 -1.0662  0.0154
   24SAPC   H2S 3143   6.723   6.473   8.986  0.2246 -1.5687 -0.4054
   24SAPC    C3 3144   6.665   6.773   9.372 -0.0675  0.2424 -0.4174
   24SAPC    HX 3145   6.619   6.808   9.467 -0.3230 -0.8194 -0.1340
   24SAPC    HY 3146   6.577   6.754   9.308 -0.4117 -0.4493  0.2458
   24SAPC   O31 3147   6.754   6.872   9.307 -0.3305 -0.0469  0.0294
   24SAPC   C31 3148   6.772   6.987   9.377 -0.3005 -0.3708  0.2257
   24SAPC   O32 3149   6.727   7.013   9.487 -0.1092 -0.4559  0.1333
   24SAPC   C32 3150   6.861   7.082   9.296  0.0578 -0.6138 -0.5980
   24SAPC   H2X 3151   6.961   7.034   9.299 -0.5292 -1.8560  0.1179
   24SAPC   H2Y 3152   6.862   7.182   9.345  2.5373 -0.7530 -0.2467
   24SAPC   C23 3153   6.913   6.571   9.027  0.2710  0.2372 -0.0273
   24SAPC   H3R 3154   6.982   6.524   8.954  0.1324 -0.5336  0.3262
   24SAPC   H3S 3155   6.976   6.589   9.117  2.0056  1.3077 -1.3780
   24SAPC   C24 3156   6.869   6.703   8.973  0.6706  0.3955  0.2973
   24SAPC   H4R 3157   6.809   6.760   9.047  1.0136  0.1932  0.7378
   24SAPC   H4S 3158   6.799   6.679   8.890 -0.8893 -2.3294  2.2123
   24SAPC   C25 3159   6.982   6.803   8.932  0.2174 -0.0364 -0.1712
   24SAPC   H5R 3160   7.024   6.873   9.006  1.5274  0.5064 -1.3855
   24SAPC   C26 3161   7.035   6.815   8.812 -0.0538  0.2530  0.3623
   24SAPC   H6R 3162   7.122   6.880   8.794 -1.8617  2.8359  0.3982
   24SAPC   C27 3163   6.992   6.725   8.693 -1.1325 -0.1227  0.1940
   24SAPC   H7R 3164   6.940   6.786   8.615  3.0223  2.7312 -0.6523
   24SAPC   H7S 3165   6.919   6.648   8.725  0.8136 -1.7437  0.8712
   24SAPC   C28 3166   7.104   6.649   8.628 -0.2307  0.4468  0.3226
   24SAPC   H8R 3167   7.177   6.604   8.697 -0.3244  1.1687  0.9067
   24SAPC   C29 3168   7.110   6.605   8.502 -0.4083  0.0819 -0.5697
   24SAPC   H9R 3169   7.202   6.563   8.458  1.1445  1.2722  1.3894
   24SAPC  C210 3170   7.017   6.632   8.389 -0.2587  0.2490 -0.0484
   24SAPC  H10R 3171   7.084   6.663   8.305  1.2260  0.5021  1.1797
   24SAPC  H10S 3172   6.960   6.727   8.395 -1.3813 -0.3564 -0.8003
   24SAPC  C211 3173   6.920   6.515   8.355 -0.3778  0.7673  0.6811
   24SAPC  H11R 3174   6.845   6.493   8.433 -0.9302 -2.3131 -0.5579
   24SAPC  C212 3175   6.925   6.439   8.241 -0.4077  0.0069 -0.1109
   24SAPC  H12R 3176   6.848   6.361   8.231  1.0680 -1.5225  0.1305
   24SAPC  C213 3177   7.019   6.451   8.121  0.0125 -0.7996 -0.3210
   24SAPC  H13R 3178   7.061   6.355   8.085  0.9113  0.3238 -2.4856
   24SAPC  H13S 3179   7.111   6.496   8.164 -0.5800 -1.1438  1.3954
   24SAPC  C214 3180   6.960   6.526   7.997  0.1352  0.1091  0.4843
   24SAPC  H14R 3181   6.850   6.527   7.993  0.0031  1.0461  2.8630
   24SAPC  C215 3182   7.037   6.564   7.894  0.2665 -0.1917  0.3663
   24SAPC  H15R 3183   6.982   6.583   7.800  1.8526 -0.3713 -0.6359
   24SAPC  C216 3184   7.191   6.554   7.894 -0.1427  0.1462 -0.0497
   24SAPC  H16R 3185   7.217   6.491   7.806  1.2506  0.4466  0.1355
   24SAPC  H16S 3186   7.231   6.501   7.982  1.2564 -0.3421 -0.9454
   24SAPC  C217 3187   7.247   6.694   7.870 -0.2431 -0.6501 -0.5342
   24SAPC  H17R 3188   7.215   6.760   7.954 -1.0215 -0.0971 -1.2468
   24SAPC  H17S 3189   7.205   6.740   7.778  0.0670 -1.1489 -0.9270
   24SAPC  C218 3190   7.398   6.701   7.848  0.0284 -0.0256  0.8321
   24SAPC  H18R 3191   7.422   6.796   7.796 -0.8053 -0.7129 -0.9037
   24SAPC  H18S 3192   7.417   6.633   7.762 -0.0644  1.7224 -0.6461
   24SAPC  C219 3193   7.485   6.666   7.962  0.5469 -1.0013 -0.6924
   24SAPC  H19R 3194   7.443   6.596   8.038 -0.7141  1.1354  0.6970
   24SAPC  H19S 3195   7.485   6.768   8.008 -1.0615 -1.2398 -0.0994
   24SAPC  C220 3196   7.623   6.618   7.926  1.0324 -0.2218 -0.2619
   24SAPC  H20R 3197   7.684   6.693   7.871  1.3682 -0.1832  0.1568
   24SAPC  H20S 3198   7.617   6.528   7.861  0.2560  1.1494 -2.1894
   24SAPC  H20T 3199   7.688   6.608   8.016 -0.1231  0.8866  0.7405
   24SAPC   C33 3200   6.826   7.101   9.144 -0.0382 -0.7942 -0.6960
   24SAPC   H3X 3201   6.716   7.113   9.146  0.0045 -0.4239  1.6361
   24SAPC   H3Y 3202   6.852   7.005   9.095 -1.1783 -0.2240 -2.5098
   24SAPC   C34 3203   6.907   7.218   9.089 -0.0118 -0.3188 -0.5353
   24SAPC   H4X 3204   7.015   7.196   9.101  0.4781  2.0805 -0.0575
   24SAPC   H4Y 3205   6.876   7.295   9.163  0.9071 -1.2599  0.8639
   24SAPC   C35 3206   6.867   7.255   8.950 -0.1000 -0.6480  0.1997
   24SAPC   H5X 3207   6.926   7.347   8.930  0.1044 -0.7604  0.2757
   24SAPC   H5Y 3208   6.762   7.289   8.955  0.2201  0.4105  0.0544
   24SAPC   C36 3209   6.894   7.150   8.839 -0.0131 -0.4509  0.7525
   24SAPC   H6X 3210   6.873   7.048   8.878  1.3454 -0.3742  1.7347
   24SAPC   H6Y 3211   7.003   7.163   8.821 -0.1198 -1.5658 -0.9091
   24SAPC   C37 3212   6.811   7.185   8.706  0.0480 -0.3173 -0.1687
   24SAPC   H7X 3213   6.839   7.285   8.667 -3.4536  0.6256 -0.6097
   24SAPC   H7Y 3214   6.709   7.183   8.751  0.2743 -1.3505  0.3412
   24SAPC   C38 3215   6.837   7.085   8.597  0.2040  0.5351  0.4801
   24SAPC   H8X 3216   6.837   6.990   8.654 -0.6432  0.7859  0.9230
   24SAPC   H8Y 3217   6.936   7.101   8.550  0.8551  4.0159  2.6971
   24SAPC   C39 3218   6.731   7.082   8.478 -0.4957 -0.7752 -0.6348
   24SAPC   H9X 3219   6.743   7.185   8.437 -0.1008 -0.1393  1.0219
   24SAPC   H9Y 3220   6.629   7.070   8.521 -0.7839  0.2579 -1.0050
   24SAPC  C310 3221   6.772   6.979   8.371 -0.3744  0.7387  0.3120
   24SAPC  H10X 3222   6.759   6.877   8.413 -0.7842  0.7837  0.2940
   24SAPC  H10Y 3223   6.880   6.988   8.346 -0.6410 -1.2488 -1.9195
   24SAPC  C311 3224   6.710   6.975   8.236 -0.1076 -0.1286  0.8566
   24SAPC  H11X 3225   6.732   7.063   8.173  0.2570  0.2377  1.4862
   24SAPC  H11Y 3226   6.600   6.960   8.249 -0.1823 -1.1748 -0.7305
   24SAPC  C312 3227   6.760   6.851   8.156  0.7462 -0.5166 -0.9345
   24SAPC  H12X 3228   6.749   6.762   8.222 -0.4209  0.1264 -0.2177
   24SAPC  H12Y 3229   6.867   6.856   8.126  0.8693  0.5639 -0.3926
   24SAPC  C313 3230   6.670   6.820   8.029 -0.8284 -0.6784  0.3461
   24SAPC  H13X 3231   6.560   6.826   8.043 -0.9439 -1.1471 -0.2865
   24SAPC  H13Y 3232   6.701   6.714   8.011  1.4205 -0.0370  0.0592
   24SAPC  C314 3233   6.715   6.913   7.925  0.4499  0.0754 -0.2633
   24SAPC  H14X 3234   6.704   7.009   7.981 -1.5014  0.0902 -0.6265
   24SAPC  H14Y 3235   6.641   6.910   7.842  0.2858 -0.2779 -0.1080
   24SAPC  C315 3236   6.863   6.892   7.869 -0.1604  0.3977 -0.9417
   24SAPC  H15X 3237   6.876   6.784   7.844 -0.0098  0.3789 -0.7795
   24SAPC  H15Y 3238   6.945   6.929   7.935 -0.9629  0.6404 -0.0661
   24SAPC  C316 3239   6.881   6.956   7.737  0.1416  0.1756  0.0233
   24SAPC  H16X 3240   6.830   7.054   7.729 -0.6134 -0.2597 -0.7318
   24SAPC  H16Y 3241   6.825   6.905   7.655 -1.2304  0.2186  0.9130
   24SAPC  C317 3242   7.027   6.974   7.686 -0.3108 -0.4709 -0.6373
   24SAPC  H17X 3243   7.078   6.877   7.669 -0.5077 -0.6406 -0.2950
   24SAPC  H17Y 3244   7.086   7.023   7.766  1.1111  1.7145 -2.8840
   24SAPC  C318 3245   7.042   7.053   7.557 -0.3545 -0.6007  0.6152
   24SAPC  H18X 3246   7.009   6.984   7.477 -1.5534 -0.8317  1.2888
   24SAPC  H18Y 3247   7.147   7.086   7.546 -1.0369  1.0146 -1.6886
   24SAPC  H18Z 3248   6.975   7.141   7.562  1.6411  0.9557  1.2117
   25SAPC     N 3249   4.956   3.843   5.648 -0.0936  0.0707  0.3687
   25SAPC   C12 3250   4.877   3.846   5.776 -0.1868 -0.2235 -0.3660
   25SAPC  H12A 3251   4.903   3.753   5.825 -2.8562 -2.2195 -2.3788
   25SAPC  H12B 3252   4.771   3.836   5.759 -0.1050 -1.1208 -0.4031
   25SAPC   C13 3253   4.918   3.716   5.583  0.1481  0.4387  0.0970
   25SAPC  H13A 3254   4.939   3.636   5.652  1.0015  0.6135  0.0450
   25SAPC  H13B 3255   4.813   3.708   5.558  0.4201  1.8321 -1.6798
   25SAPC  H13C 3256   4.973   3.698   5.492  0.1296  0.7085  0.0312
   25SAPC   C14 3257   4.925   3.957   5.556  0.8291  0.1811  0.1811
   25SAPC  H14A 3258   4.819   3.974   5.548  1.2170  2.0688 -2.3851
   25SAPC  H14B 3259   4.968   4.049   5.593 -0.3640  0.1255  1.7691
   25SAPC  H14C 3260   4.966   3.939   5.457  2.5238 -0.5759  0.9784
   25SAPC   C15 3261   5.104   3.836   5.663  0.6123 -0.0522  0.3053
   25SAPC  H15A 3262   5.153   3.823   5.568 -1.4386  0.0890 -0.8243
   25SAPC  H15B 3263   5.143   3.931   5.695 -0.9978  1.5868 -2.2607
   25SAPC  H15C 3264   5.134   3.757   5.731  1.0171 -0.9018 -0.8291
   25SAPC   C11 3265   4.923   3.953   5.878  0.4968  0.7895  0.2050
   25SAPC  H11A 3266   4.960   4.044   5.827  0.6585  1.5502  1.6332
   25SAPC  H11B 3267   5.009   3.909   5.933  1.1365  1.2428 -0.4110
   25SAPC     P 3268   4.691   4.070   5.917  0.3803 -0.2175 -0.4449
   25SAPC   O13 3269   4.744   4.193   5.854 -0.6467  0.3687 -0.0101
   25SAPC   O14 3270   4.606   3.991   5.826  0.2856 -0.3894 -0.1060
   25SAPC   O12 3271   4.819   3.987   5.971 -0.0634 -0.0205  0.6970
   25SAPC   O11 3272   4.614   4.107   6.046  0.0317 -0.1638  0.1283
   25SAPC    C1 3273   4.660   4.204   6.138 -0.3250 -0.0568 -0.1540
   25SAPC    HA 3274   4.693   4.155   6.232  0.2407  1.9493  0.7595
   25SAPC    HB 3275   4.741   4.270   6.099 -0.6142  1.1720  1.2387
   25SAPC    C2 3276   4.553   4.299   6.177  0.6896 -0.4858  0.4964
   25SAPC    HS 3277   4.602   4.381   6.234  1.1215  0.8961 -1.7670
   25SAPC   O21 3278   4.445   4.240   6.248  0.2537  0.6176 -0.4690
   25SAPC   C21 3279   4.450   4.239   6.378  0.0717 -0.2696 -0.1833
   25SAPC   O22 3280   4.543   4.283   6.443 -0.1248 -0.0789 -0.6229
   25SAPC   C22 3281   4.332   4.150   6.429 -0.0225  0.1766 -0.2711
   25SAPC   H2R 3282   4.245   4.219   6.421  0.7673  1.0543 -1.6899
   25SAPC   H2S 3283   4.332   4.069   6.354 -3.4754  0.3545 -0.6227
   25SAPC    C3 3284   4.500   4.370   6.044  0.0376  0.0696  0.5426
   25SAPC    HX 3285   4.465   4.290   5.975  0.1162 -0.9573  1.6490
   25SAPC    HY 3286   4.588   4.414   5.992  0.7733 -2.2936 -0.3674
   25SAPC   O31 3287   4.395   4.465   6.065 -0.2836 -0.3320  0.1387
   25SAPC   C31 3288   4.441   4.584   6.116  0.5420  0.1755 -0.0955
   25SAPC   O32 3289   4.561   4.614   6.108 -0.0983  0.1427  0.1022
   25SAPC   C32 3290   4.325   4.668   6.166  0.1711 -0.5932  0.0919
   25SAPC   H2X 3291   4.235   4.659   6.101  0.8502  3.6504 -1.7649
   25SAPC   H2Y 3292   4.354   4.775   6.157 -1.2626 -0.1879 -0.0471
   25SAPC   C23 3293   4.346   4.116   6.578  0.2994 -0.2520  0.3002
   25SAPC   H3R 3294   4.367   4.202   6.645  1.0375  0.2642 -0.5663
   25SAPC   H3S 3295   4.440   4.057   6.578  1.0227  0.8428 -1.0601
   25SAPC   C24 3296   4.225   4.037   6.647 -0.4240 -0.3226  1.2258
   25SAPC   H4R 3297   4.268   3.992   6.739  2.0933 -2.3573 -0.7711
   25SAPC   H4S 3298   4.215   3.948   6.581  1.2289  0.3561  0.0080
   25SAPC   C25 3299   4.090   4.106   6.665  0.4205 -0.1961  0.4894
   25SAPC   H5R 3300   4.069   4.177   6.583  2.9495 -0.5885 -0.5854
   25SAPC   C26 3301   4.001   4.102   6.775 -0.2570  0.0233  0.2122
   25SAPC   H6R 3302   3.904   4.153   6.768 -0.2168  0.2384  1.1610
   25SAPC   C27 3303   4.014   4.009   6.891  0.2260 -1.0511  0.5744
   25SAPC   H7R 3304   4.085   3.926   6.871  0.7158 -0.1604 -1.6648
   25SAPC   H7S 3305   3.914   3.963   6.907 -0.2025 -0.0369  0.9390
   25SAPC   C28 3306   4.053   4.078   7.020 -0.2675  0.1223  0.4293
   25SAPC   H8R 3307   4.147   4.134   7.012  0.2030 -0.7264 -0.1423
   25SAPC   C29 3308   3.996   4.070   7.145 -0.1663 -0.0137  0.0424
   25SAPC   H9R 3309   4.046   4.123   7.228 -2.4476  0.9987  0.8770
   25SAPC  C210 3310   3.884   3.984   7.185 -0.6775  0.0233  0.9210
   25SAPC  H10R 3311   3.883   3.968   7.295 -1.7337  0.9914  1.0665
   25SAPC  H10S 3312   3.909   3.885   7.141  0.7076 -0.0268  1.7421
   25SAPC  C211 3313   3.750   4.027   7.134  0.8040 -0.2447  0.3304
   25SAPC  H11R 3314   3.750   4.079   7.037 -0.9614 -0.4175  0.2017
   25SAPC  C212 3315   3.634   4.024   7.200 -0.5071  0.6661  0.0278
   25SAPC  H12R 3316   3.543   4.071   7.159 -0.6091  0.6165  0.1931
   25SAPC  C213 3317   3.618   3.953   7.331 -0.0269 -0.2896 -0.7214
   25SAPC  H13R 3318   3.691   3.986   7.408  1.0413  0.8271 -2.1659
   25SAPC  H13S 3319   3.647   3.846   7.314 -0.3254 -0.4633 -0.1353
   25SAPC  C214 3320   3.481   3.984   7.381  0.1601 -0.4300 -0.1897
   25SAPC  H14R 3321   3.426   4.073   7.346  0.0590 -0.6436 -0.5865
   25SAPC  C215 3322   3.431   3.930   7.491  0.1486 -0.2332 -0.4162
   25SAPC  H15R 3323   3.325   3.958   7.503  0.1455 -0.5817  0.4249
   25SAPC  C216 3324   3.475   3.824   7.587  0.6243  0.1138  0.2588
   25SAPC  H16R 3325   3.480   3.859   7.692  0.3562  1.3115 -0.1117
   25SAPC  H16S 3326   3.583   3.806   7.565  0.9759  0.2732  1.7654
   25SAPC  C217 3327   3.404   3.684   7.580  0.1385  0.3724 -0.1610
   25SAPC  H17R 3328   3.465   3.608   7.634 -0.8683  1.0748  2.0857
   25SAPC  H17S 3329   3.397   3.658   7.472  1.4645  0.0707 -0.1868
   25SAPC  C218 3330   3.269   3.661   7.640 -0.5185 -0.8749  0.5106
   25SAPC  H18R 3331   3.228   3.568   7.596  1.3333 -1.7072  0.4434
   25SAPC  H18S 3332   3.193   3.737   7.611 -0.1023 -0.1179  1.3373
   25SAPC  C219 3333   3.278   3.634   7.789 -0.2051  0.0453  0.6536
   25SAPC  H19R 3334   3.299   3.731   7.838 -0.2466  0.6639 -0.5144
   25SAPC  H19S 3335   3.366   3.573   7.818 -0.2518  0.0218  0.7479
   25SAPC  C220 3336   3.158   3.559   7.835 -0.6291  0.0968  0.0527
   25SAPC  H20R 3337   3.162   3.452   7.804 -1.7130  0.1632 -0.3460
   25SAPC  H20S 3338   3.063   3.606   7.803  0.0349  0.5213 -1.3840
   25SAPC  H20T 3339   3.162   3.554   7.946 -1.0941 -3.3671  0.0446
   25SAPC   C33 3340   4.290   4.640   6.318  0.2204  0.5309 -0.1771
   25SAPC   H3X 3341   4.224   4.718   6.360 -1.0116 -0.6596  0.1861
   25SAPC   H3Y 3342   4.383   4.651   6.378  0.2268  0.9783 -0.2647
   25SAPC   C34 3343   4.207   4.513   6.344  0.2758  0.0825  0.6066
   25SAPC   H4X 3344   4.264   4.423   6.312 -1.0927 -1.3250  1.9742
   25SAPC   H4Y 3345   4.117   4.516   6.280 -0.9935 -1.4793  2.2147
   25SAPC   C35 3346   4.155   4.493   6.489  0.2031 -0.1447  0.5418
   25SAPC   H5X 3347   4.135   4.383   6.490  1.0332 -0.3587 -1.4883
   25SAPC   H5Y 3348   4.062   4.552   6.502 -1.0456 -2.3083  2.3428
   25SAPC   C36 3349   4.250   4.519   6.604 -0.4369 -0.4034 -0.4402
   25SAPC   H6X 3350   4.285   4.623   6.613  0.0146 -0.5137 -0.8510
   25SAPC   H6Y 3351   4.333   4.447   6.588 -0.8335 -0.8798 -0.3803
   25SAPC   C37 3352   4.181   4.475   6.730  0.0234 -0.4024 -0.1250
   25SAPC   H7X 3353   4.175   4.364   6.739  0.0376 -0.6618 -2.6149
   25SAPC   H7Y 3354   4.077   4.511   6.714  0.1673  0.1743  0.2282
   25SAPC   C38 3355   4.233   4.533   6.861 -0.8497 -0.9080 -0.6213
   25SAPC   H8X 3356   4.252   4.643   6.865  1.7592 -1.3103 -0.1422
   25SAPC   H8Y 3357   4.335   4.491   6.874 -0.4755  0.1187 -0.0697
   25SAPC   C39 3358   4.159   4.497   6.989 -0.0977  0.0004  0.1997
   25SAPC   H9X 3359   4.227   4.470   7.072 -0.8851 -2.4031  0.1586
   25SAPC   H9Y 3360   4.090   4.413   6.966  0.0455  0.3076 -1.5373
   25SAPC  C310 3361   4.092   4.621   7.046 -0.9013  0.5017  0.6254
   25SAPC  H10X 3362   4.009   4.658   6.982 -1.5149 -0.1242  1.0481
   25SAPC  H10Y 3363   4.171   4.698   7.058 -0.7788  0.4519  0.1258
   25SAPC  C311 3364   4.039   4.599   7.187 -0.2650 -0.1024 -0.1288
   25SAPC  H11X 3365   4.112   4.572   7.267 -2.7223  1.9848  3.0681
   25SAPC  H11Y 3366   3.976   4.507   7.190  0.8285 -0.8517  0.9190
   25SAPC  C312 3367   3.968   4.721   7.246  0.1809  0.0031 -0.0267
   25SAPC  H12X 3368   3.868   4.734   7.201 -0.5147  1.1336  1.7689
   25SAPC  H12Y 3369   4.032   4.810   7.225  3.2835 -1.9495  0.4374
   25SAPC  C313 3370   3.940   4.701   7.393 -0.9439 -0.3282 -0.9043
   25SAPC  H13X 3371   4.017   4.638   7.444 -1.2042  0.1955  0.1746
   25SAPC  H13Y 3372   3.841   4.651   7.397 -0.7055 -0.7629  0.9503
   25SAPC  C314 3373   3.935   4.833   7.468  0.2636 -0.1164 -0.3385
   25SAPC  H14X 3374   3.864   4.908   7.427 -0.2796  1.1703  2.6657
   25SAPC  H14Y 3375   4.041   4.864   7.479  0.6971 -1.7023  0.1497
   25SAPC  C315 3376   3.869   4.829   7.615 -0.6567 -0.2223  0.1937
   25SAPC  H15X 3377   3.903   4.927   7.656 -0.9543 -0.4795  1.0825
   25SAPC  H15Y 3378   3.927   4.748   7.665  1.0485  1.8350  1.7444
   25SAPC  C316 3379   3.716   4.805   7.615  0.1326 -0.3767  0.5245
   25SAPC  H16X 3380   3.706   4.696   7.594 -0.2755 -0.0238 -1.2651
   25SAPC  H16Y 3381   3.664   4.860   7.534  0.0750 -0.1381  0.7229
   25SAPC  C317 3382   3.654   4.818   7.754  0.1034  0.2609  0.0314
   25SAPC  H17X 3383   3.728   4.786   7.830 -0.2081  0.4110  0.4049
   25SAPC  H17Y 3384   3.563   4.754   7.761  0.0417  0.3847  0.3819
   25SAPC  C318 3385   3.602   4.959   7.781  0.0493 -0.2057 -0.4314
   25SAPC  H18X 3386   3.542   4.953   7.874 -2.4510  0.3629 -1.9219
   25SAPC  H18Y 3387   3.537   4.983   7.695  2.6536  1.5658 -2.0717
   25SAPC  H18Z 3388   3.682   5.034   7.803  1.0916 -1.6336  0.8486
   26SAPC     N 3389   4.188   4.599   5.289 -0.4359 -0.3264 -0.1675
   26SAPC   C12 3390   4.292   4.676   5.377  0.3749 -0.4862 -0.3391
   26SAPC  H12A 3391   4.368   4.715   5.312  0.9091 -1.6425 -0.4409
   26SAPC  H12B 3392   4.350   4.611   5.441 -0.1480  0.5906  1.2940
   26SAPC   C13 3393   4.090   4.520   5.366  0.5073  0.1072  0.5926
   26SAPC  H13A 3394   4.029   4.594   5.416  2.8226  1.6973  1.2136
   26SAPC  H13B 3395   4.036   4.444   5.310  0.0171 -0.4908  1.8453
   26SAPC  H13C 3396   4.140   4.476   5.451  0.3946  0.7626  1.0077
   26SAPC   C14 3397   4.129   4.697   5.195 -0.7073  0.0895 -0.2560
   26SAPC  H14A 3398   4.063   4.659   5.119 -0.9136  3.8376 -2.1784
   26SAPC  H14B 3399   4.068   4.765   5.254  0.3505 -0.7680  1.9663
   26SAPC  H14C 3400   4.205   4.750   5.140 -0.2911  0.8401  0.9753
   26SAPC   C15 3401   4.257   4.498   5.201 -0.2542  0.7827 -0.6500
   26SAPC  H15A 3402   4.184   4.435   5.152 -1.1545 -0.1216  1.7445
   26SAPC  H15B 3403   4.324   4.546   5.131  1.1695  0.9815  0.7894
   26SAPC  H15C 3404   4.309   4.425   5.261  2.7629  1.4243 -2.2475
   26SAPC   C11 3405   4.242   4.777   5.476 -0.7095  0.5066 -0.4476
   26SAPC  H11A 3406   4.322   4.794   5.552  0.9461  0.7763 -2.1537
   26SAPC  H11B 3407   4.158   4.722   5.524 -1.1545  0.9328 -0.7281
   26SAPC     P 3408   4.308   5.006   5.374  0.0192  0.0755 -0.0217
   26SAPC   O13 3409   4.424   4.942   5.305  0.0570 -0.3001  0.8016
   26SAPC   O14 3410   4.241   5.117   5.298 -0.0577  0.0473 -0.1272
   26SAPC   O12 3411   4.197   4.901   5.415 -0.3941  0.2809  0.1824
   26SAPC   O11 3412   4.368   5.058   5.508 -0.6130 -0.0438 -0.4266
   26SAPC    C1 3413   4.274   5.079   5.620 -0.3946  0.0696  0.2960
   26SAPC    HA 3414   4.167   5.063   5.598 -0.4495 -2.8837  2.1477
   26SAPC    HB 3415   4.290   5.007   5.703  1.0093 -0.2362 -0.2004
   26SAPC    C2 3416   4.292   5.225   5.674  0.3209  0.2588 -1.0542
   26SAPC    HS 3417   4.295   5.286   5.581 -1.0638  0.7555 -0.7924
   26SAPC   O21 3418   4.415   5.232   5.747  0.4423 -0.4808  0.3056
   26SAPC   C21 3419   4.447   5.363   5.765 -0.0239 -0.2096 -0.2386
   26SAPC   O22 3420   4.381   5.454   5.715 -0.3778 -0.1573 -0.3037
   26SAPC   C22 3421   4.591   5.361   5.829  0.0693  0.2998 -0.2535
   26SAPC   H2R 3422   4.571   5.317   5.929 -0.0118  2.6802  0.8644
   26SAPC   H2S 3423   4.644   5.279   5.778 -2.8724 -1.6479 -0.4449
   26SAPC    C3 3424   4.158   5.265   5.752  0.0015  0.0448  0.0625
   26SAPC    HX 3425   4.077   5.255   5.676  0.5306  2.1053 -0.8645
   26SAPC    HY 3426   4.146   5.372   5.782 -2.2371 -0.4088  0.9959
   26SAPC   O31 3427   4.131   5.176   5.863 -0.0067 -0.6802 -0.1860
   26SAPC   C31 3428   4.183   5.208   5.985 -0.0372 -0.4880  0.1848
   26SAPC   O32 3429   4.254   5.308   6.010 -0.5672  1.0241 -0.4233
   26SAPC   C32 3430   4.149   5.097   6.081 -0.2381 -0.5588  0.0235
   26SAPC   H2X 3431   4.192   5.006   6.033 -0.8133 -0.6696 -0.2966
   26SAPC   H2Y 3432   4.039   5.087   6.092 -0.2642  0.2215  0.5241
   26SAPC   C23 3433   4.673   5.489   5.846  0.4802 -0.9373 -0.2532
   26SAPC   H3R 3434   4.635   5.566   5.775  1.9693  0.9679  0.9009
   26SAPC   H3S 3435   4.781   5.472   5.829  0.6896 -0.3095  0.3825
   26SAPC   C24 3436   4.655   5.528   5.998 -0.1190  0.6496  0.3805
   26SAPC   H4R 3437   4.745   5.586   6.028 -0.7969  2.5716 -1.0978
   26SAPC   H4S 3438   4.654   5.437   6.061  0.6826 -0.0174 -0.5380
   26SAPC   C25 3439   4.527   5.600   6.030 -0.3311 -0.2853 -0.8439
   26SAPC   H5R 3440   4.504   5.666   5.945 -1.3957 -0.8952 -1.0429
   26SAPC   C26 3441   4.438   5.591   6.132  0.6664 -0.4446 -0.3363
   26SAPC   H6R 3442   4.360   5.667   6.143 -0.4309 -1.3114 -1.7560
   26SAPC   C27 3443   4.452   5.496   6.248  0.0166  0.1686  0.8877
   26SAPC   H7R 3444   4.503   5.404   6.213 -1.2141 -0.9337  1.9002
   26SAPC   H7S 3445   4.354   5.462   6.288  0.1054  0.0947  1.0429
   26SAPC   C28 3446   4.539   5.538   6.365 -0.0249  0.0662 -0.2507
   26SAPC   H8R 3447   4.584   5.637   6.346 -3.4492  1.4705 -1.9985
   26SAPC   C29 3448   4.555   5.493   6.491  0.7546  0.0797 -0.1673
   26SAPC   H9R 3449   4.634   5.529   6.559 -0.9419 -2.5074  3.5014
   26SAPC  C210 3450   4.481   5.383   6.558  0.6771  0.7317 -0.3508
   26SAPC  H10R 3451   4.460   5.308   6.479  0.0512  3.2768 -2.7672
   26SAPC  H10S 3452   4.375   5.407   6.580  0.1809 -2.1656  0.9328
   26SAPC  C211 3453   4.546   5.319   6.676 -0.1250  0.2136 -0.3908
   26SAPC  H11R 3454   4.643   5.275   6.647  0.4426  1.3825 -0.2867
   26SAPC  C212 3455   4.514   5.336   6.804 -0.9313  0.1166 -0.0903
   26SAPC  H12R 3456   4.569   5.280   6.880 -0.3617 -2.6437 -2.3499
   26SAPC  C213 3457   4.398   5.415   6.861 -0.1276 -0.6681 -0.5874
   26SAPC  H13R 3458   4.298   5.366   6.867  1.0926 -3.1551  1.7163
   26SAPC  H13S 3459   4.381   5.497   6.789  0.4415 -0.4850 -0.5190
   26SAPC  C214 3460   4.433   5.453   7.004 -0.2351  0.3519  0.0023
   26SAPC  H14R 3461   4.376   5.409   7.088  2.0855  0.4070  1.6817
   26SAPC  C215 3462   4.510   5.556   7.036 -0.7009  0.2924 -0.2714
   26SAPC  H15R 3463   4.527   5.584   7.141 -1.0108  0.6355 -0.3086
   26SAPC  C216 3464   4.578   5.651   6.939 -0.2254 -0.0415  0.0503
   26SAPC  H16R 3465   4.576   5.620   6.832  1.8985  1.5435 -0.5236
   26SAPC  H16S 3466   4.688   5.643   6.952 -0.3883  0.0034  1.6201
   26SAPC  C217 3467   4.535   5.805   6.949  0.3987  0.2234  0.4017
   26SAPC  H17R 3468   4.426   5.818   6.932  0.5441 -1.5827 -2.4740
   26SAPC  H17S 3469   4.588   5.857   6.866 -1.4000  1.0078 -0.3095
   26SAPC  C218 3470   4.578   5.874   7.076 -0.3700 -0.3304 -0.1332
   26SAPC  H18R 3471   4.685   5.847   7.086 -0.5848 -0.5562  2.0109
   26SAPC  H18S 3472   4.528   5.832   7.165 -1.9411 -0.2369 -0.9276
   26SAPC  C219 3473   4.551   6.025   7.086  0.0046 -0.1793  0.2115
   26SAPC  H19R 3474   4.446   6.038   7.050  0.4408 -2.1685 -2.0608
   26SAPC  H19S 3475   4.610   6.085   7.012  0.5351 -0.0667  0.7250
   26SAPC  C220 3476   4.568   6.091   7.220 -0.0163 -1.0040  0.0512
   26SAPC  H20R 3477   4.674   6.081   7.251  0.3178  3.2323  0.9472
   26SAPC  H20S 3478   4.515   6.048   7.307  1.4143 -0.1564  1.3978
   26SAPC  H20T 3479   4.543   6.199   7.205 -0.3263 -1.1187 -0.2793
   26SAPC   C33 3480   4.205   5.116   6.222  0.1493  0.3313 -0.2949
   26SAPC   H3X 3481   4.311   5.147   6.211  0.1542 -0.0101 -1.3490
   26SAPC   H3Y 3482   4.199   5.011   6.258  0.1231  0.2534 -0.5236
   26SAPC   C34 3483   4.126   5.222   6.301  0.3813 -0.1438 -0.2849
   26SAPC   H4X 3484   4.018   5.212   6.280  0.0600 -0.7209  1.4595
   26SAPC   H4Y 3485   4.159   5.315   6.251 -0.5513  0.8203  0.8456
   26SAPC   C35 3486   4.150   5.225   6.456  0.4730  0.0580 -0.1958
   26SAPC   H5X 3487   4.225   5.302   6.483 -0.2515  1.1241 -1.1348
   26SAPC   H5Y 3488   4.170   5.125   6.500  1.2090  0.8247  1.2751
   26SAPC   C36 3489   4.011   5.255   6.532  1.2185  0.1383  0.1682
   26SAPC   H6X 3490   3.921   5.196   6.506  0.6482  0.8633  0.4584
   26SAPC   H6Y 3491   3.980   5.354   6.491  1.5160 -0.3386 -1.2604
   26SAPC   C37 3492   4.020   5.267   6.684 -0.2431  0.7328  0.1455
   26SAPC   H7X 3493   4.098   5.342   6.707  0.1758 -0.6571  3.9477
   26SAPC   H7Y 3494   4.067   5.178   6.730 -0.5189  1.5306  2.0823
   26SAPC   C38 3495   3.881   5.301   6.746 -0.7314  0.0970  0.4150
   26SAPC   H8X 3496   3.819   5.209   6.743  0.2824 -0.8281  3.5457
   26SAPC   H8Y 3497   3.836   5.381   6.683  0.7323  1.1512  0.6353
   26SAPC   C39 3498   3.890   5.346   6.897  0.1442  0.0292  0.2786
   26SAPC   H9X 3499   3.787   5.372   6.929 -0.5747 -1.4659 -0.7126
   26SAPC   H9Y 3500   3.963   5.429   6.890  0.4237 -0.3186 -1.5332
   26SAPC  C310 3501   3.957   5.245   6.993 -0.2943 -0.2394 -0.5514
   26SAPC  H10X 3502   4.064   5.236   6.965 -0.1580 -1.8951  0.3860
   26SAPC  H10Y 3503   3.897   5.152   6.977  0.4995 -1.3938  2.5083
   26SAPC  C311 3504   3.955   5.286   7.138  0.0462 -0.3055  0.2677
   26SAPC  H11X 3505   3.934   5.196   7.200 -0.0398 -0.6090 -0.2013
   26SAPC  H11Y 3506   3.874   5.360   7.156 -0.2130 -0.6262  0.4184
   26SAPC  C312 3507   4.072   5.369   7.189  0.2060  0.4185 -0.0842
   26SAPC  H12X 3508   4.084   5.447   7.111  0.1432 -0.3671 -0.8919
   26SAPC  H12Y 3509   4.159   5.301   7.192  0.1301  0.3372  2.2047
   26SAPC  C313 3510   4.057   5.417   7.326  0.3546 -0.2169 -0.7225
   26SAPC  H13X 3511   4.054   5.332   7.398  0.2123  1.7861  1.7871
   26SAPC  H13Y 3512   3.964   5.478   7.327  0.2975 -0.2552  1.3714
   26SAPC  C314 3513   4.167   5.521   7.365 -0.1012 -0.3530 -0.1837
   26SAPC  H14X 3514   4.106   5.598   7.418 -1.1564 -1.2881 -0.0235
   26SAPC  H14Y 3515   4.223   5.566   7.280 -1.6891  0.4568 -0.8610
   26SAPC  C315 3516   4.265   5.460   7.467  0.5383 -0.6293  0.4075
   26SAPC  H15X 3517   4.323   5.374   7.428 -1.2147 -1.5274 -0.3334
   26SAPC  H15Y 3518   4.210   5.419   7.555 -0.8485  0.0454 -0.1130
   26SAPC  C316 3519   4.356   5.566   7.523 -0.4171 -0.6366 -0.8099
   26SAPC  H16X 3520   4.384   5.547   7.629  1.7261  0.8467 -1.0470
   26SAPC  H16Y 3521   4.295   5.658   7.534 -1.3533 -1.2795 -0.5404
   26SAPC  C317 3522   4.476   5.597   7.428 -0.4960 -0.2996  0.1455
   26SAPC  H17X 3523   4.423   5.638   7.340 -2.0227 -0.8559  0.7669
   26SAPC  H17Y 3524   4.534   5.506   7.401  1.3783  0.9326 -0.1224
   26SAPC  C318 3525   4.565   5.698   7.493 -0.2214  0.4813 -0.3131
   26SAPC  H18X 3526   4.619   5.756   7.415 -1.2562  0.8477 -0.7747
   26SAPC  H18Y 3527   4.636   5.647   7.562  0.9831  1.5429 -0.7178
   26SAPC  H18Z 3528   4.512   5.765   7.564 -0.0007 -0.6015  0.9056
   27SAPC     N 3529   3.265   0.844   5.444  0.1747 -0.4745 -0.1706
   27SAPC   C12 3530   3.158   0.884   5.546  0.0955 -0.8112 -0.4341
   27SAPC  H12A 3531   3.210   0.929   5.629 -2.8863 -1.1043  1.7772
   27SAPC  H12B 3532   3.097   0.800   5.578 -1.6338  0.3543 -0.5127
   27SAPC   C13 3533   3.363   0.748   5.505  0.7129 -0.5933 -0.1091
   27SAPC  H13A 3534   3.311   0.661   5.542 -0.1450 -0.3444 -0.7171
   27SAPC  H13B 3535   3.445   0.716   5.442  1.7893 -0.6013  1.2281
   27SAPC  H13C 3536   3.428   0.795   5.578  1.6725 -0.7042 -0.8729
   27SAPC   C14 3537   3.201   0.785   5.325 -0.4155 -0.5938  0.1423
   27SAPC  H14A 3538   3.165   0.684   5.338  0.4954 -0.8744  0.5526
   27SAPC  H14B 3539   3.113   0.845   5.305  0.6846  1.7729  1.9139
   27SAPC  H14C 3540   3.266   0.800   5.241  3.4636 -1.0358  2.7931
   27SAPC   C15 3541   3.345   0.965   5.405  0.0078 -0.0531 -0.1174
   27SAPC  H15A 3542   3.402   1.003   5.488  0.5044 -2.0035  0.4938
   27SAPC  H15B 3543   3.413   0.944   5.324  0.0017 -0.0466 -0.1243
   27SAPC  H15C 3544   3.286   1.049   5.372 -1.0441  0.3270  2.4984
   27SAPC   C11 3545   3.054   0.990   5.504 -0.0064 -0.1438  0.0643
   27SAPC  H11A 3546   3.107   1.085   5.482 -1.9366  1.0477  0.3827
   27SAPC  H11B 3547   2.991   1.007   5.593 -1.3492  0.4643 -0.9660
   27SAPC     P 3548   2.851   0.856   5.399  0.1627  0.2540 -0.3062
   27SAPC   O13 3549   2.738   0.924   5.456  0.3973  0.0786 -0.1910
   27SAPC   O14 3550   2.833   0.802   5.263  0.2293 -0.3393  0.2418
   27SAPC   O12 3551   2.970   0.960   5.384 -0.2276  0.0858 -0.0960
   27SAPC   O11 3552   2.904   0.742   5.491  0.0540 -0.3522  0.1159
   27SAPC    C1 3553   2.855   0.608   5.473  0.5860 -0.3606  0.0147
   27SAPC    HA 3554   2.744   0.599   5.481  0.6775 -0.3774  1.5649
   27SAPC    HB 3555   2.872   0.565   5.372  0.5755 -1.1285  0.3296
   27SAPC    C2 3556   2.906   0.517   5.584  0.3928  0.9950 -0.1684
   27SAPC    HS 3557   2.844   0.425   5.585  2.0136 -0.1490  1.4517
   27SAPC   O21 3558   2.887   0.593   5.710 -0.0771  0.2358 -0.0319
   27SAPC   C21 3559   2.770   0.579   5.765  0.3574  0.2214  0.4764
   27SAPC   O22 3560   2.668   0.536   5.709  0.1954 -0.3441  0.2876
   27SAPC   C22 3561   2.785   0.612   5.916 -0.4487 -0.0191  0.6528
   27SAPC   H2R 3562   2.874   0.551   5.943  1.4084  1.1417 -2.3460
   27SAPC   H2S 3563   2.801   0.722   5.925  1.2360 -0.3828  3.1750
   27SAPC    C3 3564   3.052   0.481   5.573 -0.2508 -0.1551  0.0217
   27SAPC    HX 3565   3.105   0.567   5.619  0.4918 -0.5189 -0.1462
   27SAPC    HY 3566   3.082   0.472   5.467  0.1077  2.7232 -0.1950
   27SAPC   O31 3567   3.077   0.359   5.649 -0.2773 -0.6811  0.0272
   27SAPC   C31 3568   3.212   0.337   5.671  0.6142  0.2664  0.4141
   27SAPC   O32 3569   3.306   0.393   5.615  0.0169  0.2116  0.4080
   27SAPC   C32 3570   3.215   0.224   5.774 -0.2259 -0.1653  0.1537
   27SAPC   H2X 3571   3.316   0.178   5.771 -0.9974 -1.8753 -0.9084
   27SAPC   H2Y 3572   3.141   0.156   5.727  0.5493  0.3965 -2.0109
   27SAPC   C23 3573   2.658   0.582   5.997 -0.0078 -0.2585 -0.3452
   27SAPC   H3R 3574   2.614   0.483   5.972  0.1254 -0.5402  0.5237
   27SAPC   H3S 3575   2.581   0.660   5.979  1.4150  1.4524  0.6600
   27SAPC   C24 3576   2.686   0.602   6.151  0.3102 -0.5626 -0.3718
   27SAPC   H4R 3577   2.585   0.609   6.197  0.3104 -0.3033 -0.4131
   27SAPC   H4S 3578   2.720   0.705   6.172 -1.9631  0.1757 -0.1222
   27SAPC   C25 3579   2.754   0.498   6.233 -0.7878  0.1933  0.3546
   27SAPC   H5R 3580   2.809   0.423   6.173 -0.1147  1.1082 -0.1952
   27SAPC   C26 3581   2.754   0.488   6.365 -0.5269 -0.1308 -0.2370
   27SAPC   H6R 3582   2.811   0.405   6.410  0.0011 -0.4303 -1.4257
   27SAPC   C27 3583   2.682   0.580   6.457  0.3217  0.2132 -0.2109
   27SAPC   H7R 3584   2.618   0.649   6.398  0.0139 -1.9858 -2.6786
   27SAPC   H7S 3585   2.759   0.637   6.513 -0.9509  1.8243 -0.0360
   27SAPC   C28 3586   2.597   0.511   6.559  0.8467  0.0854  0.0740
   27SAPC   H8R 3587   2.490   0.501   6.535  0.9125  0.6561 -0.4997
   27SAPC   C29 3588   2.643   0.458   6.674  0.2832 -0.7488  0.0368
   27SAPC   H9R 3589   2.566   0.402   6.730  0.5372 -1.6144 -0.4642
   27SAPC  C210 3590   2.775   0.457   6.738 -0.3558 -0.6082  0.1936
   27SAPC  H10R 3591   2.774   0.482   6.847  0.6210 -2.4416  0.6703
   27SAPC  H10S 3592   2.833   0.536   6.687 -1.1436  0.4210  0.8539
   27SAPC  C211 3593   2.849   0.328   6.715  0.1139  0.0079  0.6199
   27SAPC  H11R 3594   2.908   0.335   6.623 -0.5526 -0.0740  0.1787
   27SAPC  C212 3595   2.833   0.207   6.771 -0.3535  0.2727  0.0194
   27SAPC  H12R 3596   2.883   0.123   6.720 -0.7527  0.6497 -1.0160
   27SAPC  C213 3597   2.736   0.175   6.883 -0.6806  0.3766  0.3585
   27SAPC  H13R 3598   2.650   0.115   6.846 -0.6228  0.2509  0.4263
   27SAPC  H13S 3599   2.690   0.267   6.925 -0.8323  0.7156 -0.5377
   27SAPC  C214 3600   2.801   0.107   7.000 -0.0424  0.0786 -0.3193
   27SAPC  H14R 3601   2.901   0.066   6.980  0.2730  0.6315  0.0950
   27SAPC  C215 3602   2.751   0.108   7.125 -0.3129 -1.2325 -0.1095
   27SAPC  H15R 3603   2.814   0.053   7.197 -0.6788 -1.1139  0.3073
   27SAPC  C216 3604   2.623   0.171   7.172  0.2846 -0.3031 -0.1421
   27SAPC  H16R 3605   2.563   0.097   7.231  0.6621 -0.9502 -0.5518
   27SAPC  H16S 3606   2.562   0.200   7.084  0.0729  0.0461  0.1196
   27SAPC  C217 3607   2.643   0.297   7.258 -0.1504 -0.5996 -0.7874
   27SAPC  H17R 3608   2.686   0.374   7.192  2.5459 -2.5808 -1.5238
   27SAPC  H17S 3609   2.720   0.276   7.337  0.6767  1.1578 -1.0897
   27SAPC  C218 3610   2.520   0.362   7.326  0.2674  0.0948 -0.3041
   27SAPC  H18R 3611   2.443   0.381   7.247  0.9283  2.1527 -0.4930
   27SAPC  H18S 3612   2.552   0.461   7.363  1.6737 -0.2501 -0.5368
   27SAPC  C219 3613   2.456   0.273   7.442 -0.3933  0.5824  0.6995
   27SAPC  H19R 3614   2.425   0.173   7.403  2.8694  0.7589 -2.9951
   27SAPC  H19S 3615   2.370   0.328   7.484 -0.4403  0.7400  0.3942
   27SAPC  C220 3616   2.551   0.242   7.554  0.3492  0.3662  0.5250
   27SAPC  H20R 3617   2.639   0.181   7.526 -0.3977  0.1007 -1.3556
   27SAPC  H20S 3618   2.495   0.177   7.624 -1.2787  0.1303 -0.9323
   27SAPC  H20T 3619   2.589   0.336   7.600  1.2789 -0.2163  0.9586
   27SAPC   C33 3620   3.175   0.266   5.923 -0.2446  0.4337  0.5011
   27SAPC   H3X 3621   3.092   0.339   5.915  0.7690  1.4946 -0.8984
   27SAPC   H3Y 3622   3.263   0.310   5.975 -0.1473 -0.0059  0.7150
   27SAPC   C34 3623   3.130   0.146   6.002 -0.2485  0.9683  0.0566
   27SAPC   H4X 3624   3.215   0.078   6.024  0.4745  0.7918 -2.8022
   27SAPC   H4Y 3625   3.068   0.076   5.942 -0.8812 -0.0422  1.8058
   27SAPC   C35 3626   3.064   0.165   6.134  0.2433  0.6844 -0.2500
   27SAPC   H5X 3627   2.979   0.234   6.118  0.7285  1.2334 -0.4790
   27SAPC   H5Y 3628   3.129   0.219   6.205  0.2230 -0.2372  0.4859
   27SAPC   C36 3629   3.018   0.032   6.204  0.5121  0.1196  0.3962
   27SAPC   H6X 3630   3.101  -0.030   6.243  2.7053  1.4364 -1.8180
   27SAPC   H6Y 3631   2.965  -0.030   6.129 -1.8294  0.2429  1.8641
   27SAPC   C37 3632   2.920   0.064   6.316  0.1122  0.5514 -0.1426
   27SAPC   H7X 3633   2.831   0.121   6.279 -0.7534  0.0115  1.0381
   27SAPC   H7Y 3634   2.977   0.124   6.390  0.7595  0.3698 -0.4960
   27SAPC   C38 3635   2.857  -0.063   6.380  0.0419 -0.4169 -0.1261
   27SAPC   H8X 3636   2.941  -0.122   6.422  0.7464  0.0313 -0.8642
   27SAPC   H8Y 3637   2.818  -0.120   6.293  0.9915  3.1440 -3.1410
   27SAPC   C39 3638   2.753  -0.026   6.488  0.0563 -0.1309  0.2216
   27SAPC   H9X 3639   2.717   0.073   6.453 -0.0878 -0.2287  0.0944
   27SAPC   H9Y 3640   2.795  -0.017   6.590  0.5866  2.3975 -0.1396
   27SAPC  C310 3641   2.638  -0.125   6.508 -0.8525  1.0730  0.1251
   27SAPC  H10X 3642   2.568  -0.107   6.424 -0.6059  1.9769  0.1060
   27SAPC  H10Y 3643   2.593  -0.098   6.606 -2.3911 -0.8105  0.0120
   27SAPC  C311 3644   2.676  -0.273   6.527 -0.9816 -0.7175  0.2432
   27SAPC  H11X 3645   2.770  -0.263   6.586 -2.0689  1.0959  1.7598
   27SAPC  H11Y 3646   2.714  -0.310   6.429 -0.3734  0.2774  0.0876
   27SAPC  C312 3647   2.580  -0.373   6.584 -0.2237 -0.1726 -0.1340
   27SAPC  H12X 3648   2.635  -0.470   6.583  1.7791  0.8723  1.1764
   27SAPC  H12Y 3649   2.495  -0.378   6.514 -1.1871  0.9352  0.9167
   27SAPC  C313 3650   2.537  -0.330   6.730 -0.0494 -0.3903 -0.0488
   27SAPC  H13X 3651   2.461  -0.403   6.766  0.4442 -0.7005  0.3868
   27SAPC  H13Y 3652   2.478  -0.237   6.729 -1.4196 -1.2355 -0.4051
   27SAPC  C314 3653   2.646  -0.307   6.834  0.2103 -0.6013 -0.0133
   27SAPC  H14X 3654   2.721  -0.236   6.794  0.7770 -1.2132 -0.0688
   27SAPC  H14Y 3655   2.704  -0.401   6.853  1.7127  0.5182  1.2404
   27SAPC  C315 3656   2.597  -0.259   6.971 -0.6494 -0.0189  0.0647
   27SAPC  H15X 3657   2.532  -0.171   6.951  0.9240  0.7949 -1.8744
   27SAPC  H15Y 3658   2.682  -0.230   7.038  0.9944 -1.0511 -1.4822
   27SAPC  C316 3659   2.522  -0.372   7.051  0.3283 -0.0656  0.2537
   27SAPC  H16X 3660   2.568  -0.473   7.039  0.5061  0.0757 -0.2530
   27SAPC  H16Y 3661   2.415  -0.376   7.021 -0.3744  0.9804  2.3977
   27SAPC  C317 3662   2.521  -0.340   7.202 -0.7130 -0.4570 -0.1317
   27SAPC  H17X 3663   2.451  -0.255   7.216 -0.5537 -0.4832  0.9245
   27SAPC  H17Y 3664   2.626  -0.309   7.220 -0.3026 -1.1833 -1.1720
   27SAPC  C318 3665   2.490  -0.460   7.283  0.0742 -0.9597  0.0471
   27SAPC  H18X 3666   2.471  -0.429   7.388  2.7143  0.9800  0.0359
   27SAPC  H18Y 3667   2.572  -0.535   7.287  1.5257  0.4790 -1.3347
   27SAPC  H18Z 3668   2.402  -0.506   7.232  1.7613 -3.5389 -0.7441
   28SAPC     N 3669   0.073   4.048   5.427  1.0109  0.2321 -0.2179
   28SAPC   C12 3670   0.020   4.053   5.567 -0.2589 -0.0878  0.1327
   28SAPC  H12A 3671  -0.068   3.990   5.564  0.9015 -1.8051  0.6444
   28SAPC  H12B 3672  -0.007   4.155   5.588  2.7918  1.0604 -0.9449
   28SAPC   C13 3673   0.087   3.906   5.386 -0.6012 -0.5183  0.8320
   28SAPC  H13A 3674  -0.005   3.848   5.381 -0.7677 -0.2161  0.4100
   28SAPC  H13B 3675   0.139   3.901   5.292  0.4734 -0.0988  1.3973
   28SAPC  H13C 3676   0.161   3.867   5.454 -0.7830  0.5970  1.6853
   28SAPC   C14 3677  -0.017   4.114   5.331  0.0772  0.5871  0.5850
   28SAPC  H14A 3678  -0.119   4.079   5.321  0.0716  0.7197  0.1635
   28SAPC  H14B 3679  -0.021   4.221   5.344 -2.3970  0.3341  2.5411
   28SAPC  H14C 3680   0.013   4.103   5.228 -1.6363  1.6346 -0.0624
   28SAPC   C15 3681   0.208   4.113   5.424 -0.3216 -0.1161 -0.2390
   28SAPC  H15A 3682   0.244   4.111   5.322 -0.1362  0.2342 -0.1790
   28SAPC  H15B 3683   0.185   4.217   5.439 -0.2491 -0.2596  0.9555
   28SAPC  H15C 3684   0.272   4.072   5.501 -1.4193 -0.5778  0.4446
   28SAPC   C11 3685   0.101   4.002   5.690 -0.3446  0.2972  0.7139
   28SAPC  H11A 3686   0.053   4.022   5.788 -0.4140  1.4748  0.4569
   28SAPC  H11B 3687   0.191   4.066   5.691 -1.0441  1.3517 -0.3986
   28SAPC     P 3688   0.074   3.754   5.772  0.4338 -0.0681 -0.5089
   28SAPC   O13 3689  -0.066   3.786   5.776  0.4439  0.2891  0.0207
   28SAPC   O14 3690   0.119   3.626   5.711  0.0868  0.6905  0.2503
   28SAPC   O12 3691   0.145   3.863   5.686 -0.0656 -0.0790 -0.1744
   28SAPC   O11 3692   0.128   3.772   5.919 -0.9683 -0.4060  0.1858
   28SAPC    C1 3693   0.271   3.782   5.931 -0.6120 -0.2073  0.1971
   28SAPC    HA 3694   0.317   3.852   5.857  0.3315 -0.6568  0.3479
   28SAPC    HB 3695   0.288   3.835   6.027 -0.4758 -1.4904  0.8955
   28SAPC    C2 3696   0.356   3.654   5.920  0.4959  0.3049 -0.4311
   28SAPC    HS 3697   0.343   3.600   5.824  0.9130  1.6913 -1.2925
   28SAPC   O21 3698   0.334   3.568   6.027 -0.1469 -0.4696  0.2189
   28SAPC   C21 3699   0.383   3.453   6.016 -0.3031  0.0547  0.4705
   28SAPC   O22 3700   0.446   3.410   5.923 -0.2905 -0.6163 -0.0365
   28SAPC   C22 3701   0.330   3.376   6.134  0.5759  0.5633  0.5254
   28SAPC   H2R 3702   0.334   3.429   6.231  0.3370 -0.6825  1.2350
   28SAPC   H2S 3703   0.225   3.350   6.109  0.6624  0.4739  0.2433
   28SAPC    C3 3704   0.503   3.713   5.922 -0.1607  0.3685 -0.1300
   28SAPC    HX 3705   0.517   3.771   5.828  1.3178  0.3064  0.0239
   28SAPC    HY 3706   0.570   3.624   5.926 -0.9483 -0.2691 -0.6739
   28SAPC   O31 3707   0.525   3.814   6.023 -0.3002  0.6523  0.5818
   28SAPC   C31 3708   0.656   3.832   6.041 -0.2477  0.0296  0.0767
   28SAPC   O32 3709   0.746   3.775   5.981 -0.7424  0.2148 -0.1173
   28SAPC   C32 3710   0.681   3.932   6.153  0.9512  0.2559 -0.4409
   28SAPC   H2X 3711   0.666   4.033   6.110 -3.1105 -0.0471 -0.0506
   28SAPC   H2Y 3712   0.782   3.911   6.195  1.3694 -0.0834 -1.5670
   28SAPC   C23 3713   0.406   3.243   6.156  0.1820 -0.8028 -0.2479
   28SAPC   H3R 3714   0.513   3.265   6.171 -0.3506  1.4409  0.6648
   28SAPC   H3S 3715   0.398   3.182   6.063 -0.8506  2.7711 -2.7192
   28SAPC   C24 3716   0.341   3.170   6.279 -0.1481 -0.6880 -0.0965
   28SAPC   H4R 3717   0.231   3.167   6.264 -0.6287  1.5501  2.2443
   28SAPC   H4S 3718   0.371   3.063   6.275 -3.8287 -1.8599  0.1275
   28SAPC   C25 3719   0.360   3.242   6.413 -0.5274  0.1759  0.3944
   28SAPC   H5R 3720   0.294   3.329   6.425  0.4277  0.6617  2.4837
   28SAPC   C26 3721   0.450   3.206   6.501  0.6234  0.4554 -0.6193
   28SAPC   H6R 3722   0.470   3.272   6.587  0.9246  0.1791 -0.4747
   28SAPC   C27 3723   0.540   3.088   6.484 -0.2615  0.1788  0.0494
   28SAPC   H7R 3724   0.581   3.078   6.382  0.9801 -0.0384  0.5480
   28SAPC   H7S 3725   0.475   2.998   6.496 -0.7017  0.3882 -0.6788
   28SAPC   C28 3726   0.668   3.087   6.571  0.5700  0.3232 -0.2565
   28SAPC   H8R 3727   0.758   3.041   6.527  1.1181  2.2001 -1.1837
   28SAPC   C29 3728   0.672   3.113   6.701 -0.6637 -0.0415  0.0741
   28SAPC   H9R 3729   0.771   3.114   6.748  0.2350  0.2832 -1.7233
   28SAPC  C210 3730   0.565   3.157   6.805  0.1109  0.3322  1.2740
   28SAPC  H10R 3731   0.480   3.088   6.782  1.1389 -0.2324 -1.2846
   28SAPC  H10S 3732   0.517   3.255   6.787 -2.2419 -0.7866  0.9373
   28SAPC  C211 3733   0.612   3.143   6.949  0.3959  0.1561  0.7507
   28SAPC  H11R 3734   0.629   3.039   6.981  1.1626  0.1051  0.1937
   28SAPC  C212 3735   0.651   3.249   7.026 -0.8703  0.6512  0.4396
   28SAPC  H12R 3736   0.691   3.220   7.124 -0.8628  1.2011  0.6016
   28SAPC  C213 3737   0.641   3.393   7.000 -0.2263 -0.2169  0.3929
   28SAPC  H13R 3738   0.563   3.416   6.924 -0.1899  0.0574  0.4356
   28SAPC  H13S 3739   0.732   3.414   6.939 -0.2071 -2.0241 -0.2508
   28SAPC  C214 3740   0.651   3.480   7.120 -0.1555 -0.3163  1.2275
   28SAPC  H14R 3741   0.685   3.436   7.216  0.4917  1.2673  1.7552
   28SAPC  C215 3742   0.627   3.613   7.120  0.4729  0.4617  0.5292
   28SAPC  H15R 3743   0.637   3.679   7.207  0.7619 -0.0982  0.9265
   28SAPC  C216 3744   0.600   3.692   6.990  0.2616 -0.8445 -0.4333
   28SAPC  H16R 3745   0.611   3.626   6.902 -1.7778 -0.7976 -0.7749
   28SAPC  H16S 3746   0.675   3.774   6.980  1.8983 -2.1607  0.4873
   28SAPC  C217 3747   0.461   3.751   6.980 -0.0593 -0.4434 -0.9472
   28SAPC  H17R 3748   0.373   3.684   6.986 -0.0138 -0.5160 -1.0747
   28SAPC  H17S 3749   0.453   3.797   6.879  1.0976 -1.1194 -1.3745
   28SAPC  C218 3750   0.425   3.867   7.078  0.0514  0.6808 -0.3730
   28SAPC  H18R 3751   0.512   3.934   7.062  1.6785 -1.1538  0.2495
   28SAPC  H18S 3752   0.426   3.844   7.187 -2.5907  2.4343  0.0866
   28SAPC  C219 3753   0.301   3.942   7.033 -0.0192 -0.8426  0.0451
   28SAPC  H19R 3754   0.327   4.008   6.948 -1.5092 -0.8745 -0.4620
   28SAPC  H19S 3755   0.269   3.995   7.125 -0.3173 -1.9990  0.6225
   28SAPC  C220 3756   0.180   3.858   6.990 -0.1527 -0.6026 -0.2932
   28SAPC  H20R 3757   0.195   3.831   6.883  0.3978 -0.2082 -0.3136
   28SAPC  H20S 3758   0.089   3.919   6.972  0.3282  0.0564 -0.5176
   28SAPC  H20T 3759   0.169   3.774   7.062 -0.0128  1.9618  2.9069
   28SAPC   C33 3760   0.569   3.909   6.265 -0.2537 -0.1775  0.0370
   28SAPC   H3X 3761   0.563   3.800   6.284 -3.4975 -0.3759 -1.4402
   28SAPC   H3Y 3762   0.469   3.935   6.225 -0.3729 -0.4970  0.1230
   28SAPC   C34 3763   0.585   3.986   6.397 -0.6721 -0.1475  0.0218
   28SAPC   H4X 3764   0.496   3.971   6.462  0.1673 -0.4885  1.1285
   28SAPC   H4Y 3765   0.582   4.096   6.381  0.2410  0.1683  1.7066
   28SAPC   C35 3766   0.717   3.965   6.472  0.2028  0.7061  0.4273
   28SAPC   H5X 3767   0.800   4.030   6.436  1.6179 -2.0782 -1.8616
   28SAPC   H5Y 3768   0.769   3.878   6.426  1.0862  1.5208 -0.1620
   28SAPC   C36 3769   0.699   3.944   6.624  0.2806 -0.2658  0.3949
   28SAPC   H6X 3770   0.800   3.912   6.658 -0.4678 -1.5193  1.5479
   28SAPC   H6Y 3771   0.623   3.864   6.642 -1.1222  0.9449  0.0550
   28SAPC   C37 3772   0.663   4.071   6.690  0.4007 -0.4628  0.1691
   28SAPC   H7X 3773   0.555   4.094   6.674  0.3320 -0.9475 -0.0682
   28SAPC   H7Y 3774   0.727   4.154   6.652 -0.9904  0.0724 -1.1541
   28SAPC   C38 3775   0.698   4.059   6.846 -0.4388 -0.0131  0.2210
   28SAPC   H8X 3776   0.786   3.993   6.862  0.6271  0.9537 -1.2876
   28SAPC   H8Y 3777   0.611   4.009   6.891 -0.5473 -0.2265 -0.2169
   28SAPC   C39 3778   0.726   4.187   6.924  0.3620 -0.4816  0.7660
   28SAPC   H9X 3779   0.650   4.267   6.907  1.7890  0.6825 -0.3766
   28SAPC   H9Y 3780   0.817   4.239   6.889 -0.8760  0.3810 -1.3653
   28SAPC  C310 3781   0.725   4.161   7.075  0.5497 -0.2749 -0.3383
   28SAPC  H10X 3782   0.820   4.112   7.104  0.7301  0.0189 -0.4245
   28SAPC  H10Y 3783   0.632   4.111   7.110 -0.1010  0.5595 -0.8389
   28SAPC  C311 3784   0.725   4.294   7.144  0.3566 -0.2775 -0.1866
   28SAPC  H11X 3785   0.635   4.353   7.116  1.2947  0.9945 -0.6071
   28SAPC  H11Y 3786   0.807   4.361   7.112 -0.4416  0.2207 -1.2359
   28SAPC  C312 3787   0.730   4.270   7.305  0.2916  0.2414  0.4262
   28SAPC  H12X 3788   0.832   4.233   7.330  1.1885  2.8170  0.8725
   28SAPC  H12Y 3789   0.656   4.192   7.330  0.3111  0.5174  1.4007
   28SAPC  C313 3790   0.701   4.396   7.383 -0.0986  0.4236 -0.2580
   28SAPC  H13X 3791   0.591   4.415   7.390 -0.6089 -2.2813 -0.0660
   28SAPC  H13Y 3792   0.744   4.484   7.331  0.1122  2.3734  2.9235
   28SAPC  C314 3793   0.752   4.392   7.522  0.6331  0.4457  0.3441
   28SAPC  H14X 3794   0.863   4.397   7.520  0.6992 -0.5802 -2.1223
   28SAPC  H14Y 3795   0.718   4.296   7.569  3.4802 -0.9378 -0.1840
   28SAPC  C315 3796   0.699   4.507   7.603 -0.4103 -0.4272 -0.6091
   28SAPC  H15X 3797   0.590   4.530   7.598 -0.0520  1.9565  0.8845
   28SAPC  H15Y 3798   0.754   4.591   7.558  0.1407  0.8579  2.2288
   28SAPC  C316 3799   0.745   4.497   7.752  0.2457  0.1716  0.3402
   28SAPC  H16X 3800   0.845   4.544   7.757  1.4095 -1.8288 -2.1346
   28SAPC  H16Y 3801   0.762   4.393   7.787 -0.2598 -0.1637 -0.4011
   28SAPC  C317 3802   0.651   4.569   7.849  0.3325 -0.4682 -0.1380
   28SAPC  H17X 3803   0.688   4.543   7.951  2.1743 -0.7593 -0.8593
   28SAPC  H17Y 3804   0.549   4.524   7.843  1.1142 -2.3666  0.2815
   28SAPC  C318 3805   0.644   4.723   7.823  0.3230 -0.2214  0.2667
   28SAPC  H18X 3806   0.607   4.776   7.914 -1.2418 -0.7735 -0.0202
   28SAPC  H18Y 3807   0.588   4.739   7.729  0.1246  0.2037  0.4549
   28SAPC  H18Z 3808   0.750   4.756   7.826  0.5155 -0.8924  1.7296
   29SAPC     N 3809   3.548   6.800   5.523  0.4421 -0.5382  0.3519
   29SAPC   C12 3810   3.576   6.859   5.662 -0.3650 -0.2173 -0.2426
   29SAPC  H12A 3811   3.682   6.843   5.671  0.6290  3.1122 -3.4607
   29SAPC  H12B 3812   3.517   6.818   5.743  2.3236 -0.1848  1.8395
   29SAPC   C13 3813   3.634   6.868   5.415  0.6056  0.5773  0.0637
   29SAPC  H13A 3814   3.606   6.972   5.407  0.9384  0.9046  2.5164
   29SAPC  H13B 3815   3.740   6.854   5.428  0.4616  0.1775  0.8569
   29SAPC  H13C 3816   3.601   6.843   5.315  1.6413 -0.5125 -0.0234
   29SAPC   C14 3817   3.581   6.657   5.520 -0.6001  0.0893 -1.3178
   29SAPC  H14A 3818   3.517   6.599   5.585  2.6927 -1.0936  1.1258
   29SAPC  H14B 3819   3.580   6.615   5.421 -0.2938 -2.0345 -0.4618
   29SAPC  H14C 3820   3.683   6.644   5.554 -0.6349  0.8104 -0.9141
   29SAPC   C15 3821   3.416   6.814   5.477  0.8023  0.1119  0.9773
   29SAPC  H15A 3822   3.404   6.790   5.372 -1.4896  0.9606  0.9802
   29SAPC  H15B 3823   3.344   6.745   5.519  1.6398 -1.7391 -0.4466
   29SAPC  H15C 3824   3.375   6.914   5.478 -0.3963 -0.3278 -0.4547
   29SAPC   C11 3825   3.548   7.013   5.688  0.3396 -0.3435  0.0235
   29SAPC  H11A 3826   3.569   7.022   5.796 -2.4632 -1.6897  0.7885
   29SAPC  H11B 3827   3.439   7.017   5.666  0.4125 -0.8815 -0.4614
   29SAPC     P 3828   3.728   7.180   5.631 -0.0052  0.0520  0.2748
   29SAPC   O13 3829   3.824   7.072   5.663 -0.2639 -0.1425 -0.4247
   29SAPC   O14 3830   3.769   7.282   5.533 -0.2024  0.7179  0.0743
   29SAPC   O12 3831   3.592   7.114   5.594 -0.4385  0.2495  0.2326
   29SAPC   O11 3832   3.692   7.251   5.770  0.0042 -0.2512  0.3158
   29SAPC    C1 3833   3.583   7.339   5.807  0.0190 -0.2810  0.5561
   29SAPC    HA 3834   3.609   7.447   5.796 -2.1357  0.3385  1.0149
   29SAPC    HB 3835   3.495   7.328   5.739  0.1319  0.1532  0.3323
   29SAPC    C2 3836   3.555   7.334   5.961 -0.2341  0.1322 -0.1300
   29SAPC    HS 3837   3.509   7.427   6.003  2.2365  1.2129  0.3786
   29SAPC   O21 3838   3.675   7.327   6.046  0.2168 -0.3012  0.1647
   29SAPC   C21 3839   3.741   7.439   6.056 -0.3481  0.1049  0.4304
   29SAPC   O22 3840   3.714   7.547   6.000  1.0330  0.4755  0.7807
   29SAPC   C22 3841   3.848   7.416   6.162  0.2822  0.3255 -0.8085
   29SAPC   H2R 3842   3.839   7.312   6.200 -1.0616  0.4769 -0.6485
   29SAPC   H2S 3843   3.949   7.424   6.117  0.0899 -1.5765 -1.6960
   29SAPC    C3 3844   3.461   7.221   6.001 -0.1422 -0.6924  0.5174
   29SAPC    HX 3845   3.510   7.124   5.975 -1.1630 -1.6302  1.9582
   29SAPC    HY 3846   3.365   7.222   5.946  0.6625  0.7584 -0.9647
   29SAPC   O31 3847   3.441   7.222   6.145  0.4543  0.1300 -0.4169
   29SAPC   C31 3848   3.367   7.108   6.178  0.2696  0.3393 -0.0023
   29SAPC   O32 3849   3.317   7.032   6.099 -0.1851 -0.0264  0.0004
   29SAPC   C32 3850   3.369   7.093   6.330  0.6857 -0.0681 -0.2261
   29SAPC   H2X 3851   3.460   7.036   6.360  0.1667 -0.7284  0.1204
   29SAPC   H2Y 3852   3.278   7.031   6.347  0.8232 -0.3512 -0.5043
   29SAPC   C23 3853   3.826   7.532   6.273  0.1202 -0.3186  0.2785
   29SAPC   H3R 3854   3.845   7.628   6.222  0.1637  0.5347  1.8314
   29SAPC   H3S 3855   3.901   7.517   6.354  0.7419 -2.9505 -0.6582
   29SAPC   C24 3856   3.686   7.537   6.329 -1.0728  0.2752  0.1594
   29SAPC   H4R 3857   3.670   7.441   6.383 -2.2812  0.8393  0.8706
   29SAPC   H4S 3858   3.603   7.541   6.255 -0.9224  0.6656  0.0111
   29SAPC   C25 3859   3.668   7.651   6.431 -0.0165  0.0308  0.5798
   29SAPC   H5R 3860   3.635   7.745   6.385 -0.7443 -0.8436 -0.7310
   29SAPC   C26 3861   3.697   7.639   6.565 -0.0299  0.3779 -0.1942
   29SAPC   H6R 3862   3.677   7.720   6.636 -1.7183 -0.7295  0.6513
   29SAPC   C27 3863   3.738   7.504   6.628 -0.1181 -0.6344  0.5932
   29SAPC   H7R 3864   3.799   7.448   6.553 -0.4578 -0.4283  0.1603
   29SAPC   H7S 3865   3.644   7.446   6.642  0.0726 -0.8210  1.1262
   29SAPC   C28 3866   3.807   7.537   6.753 -0.5072  0.3627  0.4666
   29SAPC   H8R 3867   3.903   7.591   6.747 -0.1245 -0.4549 -1.8632
   29SAPC   C29 3868   3.762   7.518   6.877  0.0759 -0.1244  0.4182
   29SAPC   H9R 3869   3.833   7.541   6.958 -0.5549  1.6692  0.5169
   29SAPC  C210 3870   3.630   7.461   6.920  0.2514  0.1195  0.2685
   29SAPC  H10R 3871   3.636   7.350   6.921  3.4498  0.2093  0.7597
   29SAPC  H10S 3872   3.561   7.487   6.837  1.7694 -0.1199 -1.1227
   29SAPC  C211 3873   3.579   7.532   7.042 -0.1474  0.2191  0.7000
   29SAPC  H11R 3874   3.643   7.606   7.093  1.7714 -1.3061  0.6257
   29SAPC  C212 3875   3.459   7.513   7.092  0.9606  0.5601  0.0247
   29SAPC  H12R 3876   3.441   7.564   7.188  2.5806 -1.0235  1.2406
   29SAPC  C213 3877   3.367   7.396   7.055  0.0697 -0.5819 -0.7360
   29SAPC  H13R 3878   3.373   7.315   7.131 -0.3854  0.7965  0.8185
   29SAPC  H13S 3879   3.384   7.348   6.956  1.1138 -0.5559 -0.5723
   29SAPC  C214 3880   3.232   7.459   7.038 -0.0322 -0.4818  0.4528
   29SAPC  H14R 3881   3.205   7.489   6.935  0.3440  0.5266  0.6414
   29SAPC  C215 3882   3.144   7.474   7.135  0.4769 -0.5722 -0.0486
   29SAPC  H15R 3883   3.044   7.514   7.112  0.6900 -1.3880 -2.8063
   29SAPC  C216 3884   3.164   7.440   7.279  0.1621 -0.0193 -0.0410
   29SAPC  H16R 3885   3.249   7.370   7.294 -0.3322 -0.5966  0.0861
   29SAPC  H16S 3886   3.074   7.398   7.328 -0.3483 -0.3723 -1.2265
   29SAPC  C217 3887   3.201   7.559   7.358  0.1793  0.3418  0.1542
   29SAPC  H17R 3888   3.292   7.609   7.321 -0.2207  0.7071 -0.3440
   29SAPC  H17S 3889   3.219   7.536   7.465 -0.4537  1.0836  0.4342
   29SAPC  C218 3890   3.086   7.664   7.370  0.2283  0.2593  0.2037
   29SAPC  H18R 3891   3.017   7.682   7.285 -0.9228  2.5947  1.5511
   29SAPC  H18S 3892   3.133   7.763   7.387 -2.9621  1.8872  0.2774
   29SAPC  C219 3893   2.991   7.622   7.481 -0.4720 -0.0212  0.3210
   29SAPC  H19R 3894   3.055   7.632   7.571  0.3775  0.7326 -0.3496
   29SAPC  H19S 3895   2.961   7.515   7.486  0.3935 -0.2230  1.4978
   29SAPC  C220 3896   2.872   7.710   7.524 -0.4886 -0.7970  0.2705
   29SAPC  H20R 3897   2.847   7.679   7.628 -1.4736 -0.4787  0.1370
   29SAPC  H20S 3898   2.788   7.688   7.455 -0.9926  2.0673 -0.1283
   29SAPC  H20T 3899   2.890   7.819   7.532 -3.5841 -0.1313 -0.7218
   29SAPC   C33 3900   3.373   7.230   6.405  0.7963 -0.4092 -0.7006
   29SAPC   H3X 3901   3.307   7.301   6.349 -0.7346 -1.5075 -0.3712
   29SAPC   H3Y 3902   3.480   7.260   6.405  0.5789  0.4326  0.6045
   29SAPC   C34 3903   3.340   7.225   6.554 -0.5392 -0.6613 -0.2287
   29SAPC   H4X 3904   3.348   7.324   6.605  2.5253 -0.9578  0.0254
   29SAPC   H4Y 3905   3.411   7.150   6.594  0.7577 -0.6510 -2.3671
   29SAPC   C35 3906   3.208   7.153   6.564 -0.1324 -0.1920  0.1155
   29SAPC   H5X 3907   3.221   7.044   6.548 -1.0773 -0.2655 -0.2117
   29SAPC   H5Y 3908   3.133   7.193   6.492  0.1909 -1.4225 -0.9342
   29SAPC   C36 3909   3.161   7.171   6.705 -0.3795 -0.7242 -0.2921
   29SAPC   H6X 3910   3.051   7.158   6.701 -0.9858  2.6928  1.1872
   29SAPC   H6Y 3911   3.183   7.270   6.751 -0.0948 -1.3288  0.9150
   29SAPC   C37 3912   3.215   7.074   6.808  0.0957  0.0730 -0.1639
   29SAPC   H7X 3913   3.325   7.073   6.824 -0.0902 -1.6004  1.2767
   29SAPC   H7Y 3914   3.193   6.967   6.792 -2.2698  0.5378 -0.4461
   29SAPC   C38 3915   3.155   7.095   6.951 -0.0982  0.2669  0.0857
   29SAPC   H8X 3916   3.046   7.099   6.928  0.0319 -1.9734 -1.2722
   29SAPC   H8Y 3917   3.208   7.181   6.996  0.5509  1.1686 -2.2424
   29SAPC   C39 3918   3.185   6.975   7.049  0.3307 -0.4165  0.0953
   29SAPC   H9X 3919   3.290   6.951   7.019  1.3020  2.0382  1.2364
   29SAPC   H9Y 3920   3.119   6.886   7.036 -3.2594  1.9172  1.0837
   29SAPC  C310 3921   3.161   7.017   7.198 -0.1573 -0.2428  0.5652
   29SAPC  H10X 3922   3.053   7.046   7.200 -0.5516 -1.6545  0.8373
   29SAPC  H10Y 3923   3.224   7.104   7.225 -1.1609  0.1792  1.6938
   29SAPC  C311 3924   3.215   6.917   7.300  0.2985 -0.2729  0.1711
   29SAPC  H11X 3925   3.172   6.816   7.284  0.4403 -0.0598 -1.6753
   29SAPC  H11Y 3926   3.188   6.941   7.405 -0.8920 -0.4345 -0.0922
   29SAPC  C312 3927   3.365   6.892   7.291  0.2792 -0.1497 -0.0792
   29SAPC  H12X 3928   3.377   6.831   7.198 -0.0756  0.1803 -0.3462
   29SAPC  H12Y 3929   3.397   6.815   7.364 -0.3741 -0.3433  0.0098
   29SAPC  C313 3930   3.459   7.012   7.314  0.4165 -0.7064 -0.3619
   29SAPC  H13X 3931   3.456   7.078   7.225  1.8331 -2.6942 -1.9914
   29SAPC  H13Y 3932   3.559   6.965   7.304  0.1250 -1.5156  0.3591
   29SAPC  C314 3933   3.447   7.096   7.439  0.5239 -0.5053  0.0329
   29SAPC  H14X 3934   3.426   7.018   7.515 -2.5658 -2.1493 -2.2977
   29SAPC  H14Y 3935   3.354   7.156   7.431  1.0638  1.0241  3.3843
   29SAPC  C315 3936   3.577   7.179   7.462 -0.4919 -0.1054 -0.3529
   29SAPC  H15X 3937   3.667   7.113   7.459 -0.5137 -0.2436  1.2809
   29SAPC  H15Y 3938   3.564   7.216   7.566  0.4841  2.4859 -1.0804
   29SAPC  C316 3939   3.609   7.301   7.382  0.4846 -0.8428  0.2274
   29SAPC  H16X 3940   3.526   7.375   7.390  1.0921 -0.1419  0.0837
   29SAPC  H16Y 3941   3.623   7.278   7.274  0.3149 -0.7495  0.1844
   29SAPC  C317 3942   3.733   7.365   7.451  0.4722 -0.1730  0.0519
   29SAPC  H17X 3943   3.812   7.287   7.447 -1.1168 -1.9277  1.0539
   29SAPC  H17Y 3944   3.722   7.393   7.558  0.6927 -1.7001  0.4945
   29SAPC  C318 3945   3.801   7.481   7.376 -0.0414 -0.5138 -0.3252
   29SAPC  H18X 3946   3.826   7.446   7.274 -0.2537 -0.3453 -0.4369
   29SAPC  H18Y 3947   3.895   7.513   7.425  0.3148 -1.8056 -0.1426
   29SAPC  H18Z 3948   3.729   7.563   7.353  0.8849  0.9577  1.7691
   30SAPC     N 3949   5.583   6.737   5.186  0.3096 -0.5186 -0.5141
   30SAPC   C12 3950   5.443   6.688   5.223 -0.0126 -0.9292  0.5589
   30SAPC  H12A 3951   5.449   6.581   5.215  2.5523 -0.6886 -2.1379
   30SAPC  H12B 3952   5.383   6.725   5.141 -0.2271  0.9295  1.4964
   30SAPC   C13 3953   5.698   6.690   5.272 -0.0848  0.6971  0.0626
   30SAPC  H13A 3954   5.778   6.762   5.278 -1.7124  2.5152  1.1692
   30SAPC  H13B 3955   5.669   6.685   5.376 -0.7800  0.9735 -0.1132
   30SAPC  H13C 3956   5.735   6.598   5.230 -3.9221 -1.2502  0.4581
   30SAPC   C14 3957   5.620   6.692   5.048  0.0687  0.0388 -0.0337
   30SAPC  H14A 3958   5.726   6.696   5.032  0.3642 -6.1537 -2.2859
   30SAPC  H14B 3959   5.598   6.590   5.020  1.2505 -0.3819  0.5137
   30SAPC  H14C 3960   5.579   6.757   4.973 -2.6393 -3.1655 -1.5727
   30SAPC   C15 3961   5.577   6.890   5.182  0.5631  0.6858 -0.2653
   30SAPC  H15A 3962   5.678   6.926   5.188  1.2904 -1.1098 -1.2428
   30SAPC  H15B 3963   5.533   6.928   5.091 -0.6976  0.3403  0.1745
   30SAPC  H15C 3964   5.522   6.925   5.268 -0.4120 -1.3716  0.0104
   30SAPC   C11 3965   5.367   6.735   5.348  0.0377  0.0361  0.6549
   30SAPC  H11A 3966   5.435   6.699   5.429  1.6389  0.3529 -0.5114
   30SAPC  H11B 3967   5.286   6.665   5.378 -1.0265  0.7163 -0.5600
   30SAPC     P 3968   5.199   6.916   5.292 -0.3406 -0.0861  0.1401
   30SAPC   O13 3969   5.176   7.063   5.296  0.0702  0.3101  0.0755
   30SAPC   O14 3970   5.193   6.855   5.159 -0.2927  0.1617  0.3278
   30SAPC   O12 3971   5.335   6.874   5.353  0.0201 -1.0273 -0.2193
   30SAPC   O11 3972   5.094   6.838   5.382  0.2011  0.3989  0.2401
   30SAPC    C1 3973   5.069   6.864   5.518  0.2379  0.0308  0.2440
   30SAPC    HA 3974   5.106   6.966   5.542  0.0706  0.3743 -0.8874
   30SAPC    HB 3975   4.959   6.852   5.529  0.1655 -1.0877 -1.3533
   30SAPC    C2 3976   5.144   6.769   5.613  0.3132 -0.2663  0.2741
   30SAPC    HS 3977   5.250   6.784   5.584  0.5659  1.7027  1.9484
   30SAPC   O21 3978   5.096   6.636   5.580  0.6799  0.5580  0.3025
   30SAPC   C21 3979   5.188   6.543   5.605  0.1871  0.0373 -0.6698
   30SAPC   O22 3980   5.303   6.561   5.634  0.1361 -0.6881  0.3725
   30SAPC   C22 3981   5.122   6.408   5.583  0.0469  0.5424 -0.0152
   30SAPC   H2R 3982   5.020   6.410   5.539 -0.2774 -1.0524  0.6011
   30SAPC   H2S 3983   5.196   6.367   5.511  1.0147  0.1776  1.1614
   30SAPC    C3 3984   5.117   6.791   5.762  0.4181 -0.0367 -1.0238
   30SAPC    HX 3985   5.189   6.728   5.819 -0.5321 -1.2238 -1.0752
   30SAPC    HY 3986   5.020   6.742   5.785  0.1331  0.9041 -0.1564
   30SAPC   O31 3987   5.116   6.930   5.789 -0.2984 -0.3872  0.3750
   30SAPC   C31 3988   5.138   6.963   5.916  0.0998 -0.4500  0.3219
   30SAPC   O32 3989   5.146   6.886   6.008  0.5915  0.3816 -0.5870
   30SAPC   C32 3990   5.135   7.116   5.927  0.1350  0.0555 -0.2997
   30SAPC   H2X 3991   5.033   7.153   5.904  1.4408  4.5883  0.2847
   30SAPC   H2Y 3992   5.207   7.157   5.853 -0.1234  0.1765 -0.4831
   30SAPC   C23 3993   5.123   6.323   5.708  0.8540 -0.3855  0.2664
   30SAPC   H3R 3994   5.211   6.339   5.773  0.8918 -1.6041  0.5337
   30SAPC   H3S 3995   5.147   6.219   5.676  2.8357  0.8370 -2.7115
   30SAPC   C24 3996   4.985   6.330   5.780  0.1979  0.1211  0.1928
   30SAPC   H4R 3997   4.971   6.265   5.869 -1.9706 -1.4503 -1.2005
   30SAPC   H4S 3998   4.913   6.270   5.720 -0.1389 -0.7467  1.4181
   30SAPC   C25 3999   4.930   6.467   5.812  0.6686 -0.6230 -0.6810
   30SAPC   H5R 4000   4.876   6.522   5.733 -0.6296 -1.6486 -0.5555
   30SAPC   C26 4001   4.947   6.535   5.929  0.1033  0.2180 -0.4882
   30SAPC   H6R 4002   4.906   6.635   5.950 -0.4083 -0.4938  2.2597
   30SAPC   C27 4003   5.014   6.472   6.047  0.3921  0.0418 -0.1262
   30SAPC   H7R 4004   5.092   6.538   6.092  1.0596 -0.2613 -0.8162
   30SAPC   H7S 4005   5.061   6.380   6.008  0.2545 -0.0634 -0.0455
   30SAPC   C28 4006   4.923   6.439   6.158  0.0892  0.4029  0.0208
   30SAPC   H8R 4007   4.851   6.358   6.140  1.4382 -0.7394 -0.4320
   30SAPC   C29 4008   4.919   6.498   6.278  0.2691 -0.0638  0.0075
   30SAPC   H9R 4009   4.838   6.460   6.342 -0.5282  1.0620 -0.3074
   30SAPC  C210 4010   4.999   6.610   6.329  0.0059  0.4422  0.3705
   30SAPC  H10R 4011   5.107   6.586   6.324 -0.1987 -0.5041  0.3753
   30SAPC  H10S 4012   4.971   6.632   6.435 -1.4068  1.4003 -0.1787
   30SAPC  C211 4013   4.983   6.737   6.253 -0.0388 -0.5775  0.0210
   30SAPC  H11R 4014   4.973   6.728   6.144  2.0010 -1.5738 -0.1418
   30SAPC  C212 4015   4.989   6.863   6.301 -0.6224 -0.3704 -0.1136
   30SAPC  H12R 4016   4.976   6.953   6.240 -1.4553 -0.1852  0.3318
   30SAPC  C213 4017   5.005   6.903   6.445 -0.2231  0.1839  0.5994
   30SAPC  H13R 4018   5.107   6.873   6.478 -1.5121 -2.7296  2.3580
   30SAPC  H13S 4019   4.923   6.844   6.491 -0.0866 -0.7882 -0.3628
   30SAPC  C214 4020   4.977   7.039   6.494 -0.1021  0.1652 -0.2238
   30SAPC  H14R 4021   4.900   7.090   6.435 -0.6343 -2.0480 -1.5471
   30SAPC  C215 4022   5.014   7.101   6.609  0.1814  0.2121  0.0715
   30SAPC  H15R 4023   4.983   7.205   6.624  0.8397  0.6394 -1.3840
   30SAPC  C216 4024   5.096   7.051   6.724  0.3018 -0.2010  0.0955
   30SAPC  H16R 4025   5.192   7.108   6.716  1.6640 -2.5867 -1.6543
   30SAPC  H16S 4026   5.125   6.945   6.711  0.4599  0.0280 -1.5694
   30SAPC  C217 4027   5.057   7.091   6.873 -0.3422  0.6864  0.3814
   30SAPC  H17R 4028   4.978   7.016   6.894  0.4054 -0.5920 -1.0928
   30SAPC  H17S 4029   5.019   7.195   6.880 -0.3736  0.7170 -0.1919
   30SAPC  C218 4030   5.175   7.056   6.967  0.5667  0.3250 -0.2585
   30SAPC  H18R 4031   5.213   6.955   6.940  0.0675  0.3148 -0.9341
   30SAPC  H18S 4032   5.132   7.050   7.069  0.4680 -0.7209 -0.3509
   30SAPC  C219 4033   5.290   7.155   6.966  0.1398  0.5072  0.0396
   30SAPC  H19R 4034   5.248   7.258   6.973 -0.6932  0.0839  2.3897
   30SAPC  H19S 4035   5.349   7.146   6.873  1.9980  2.6843  0.9224
   30SAPC  C220 4036   5.395   7.138   7.076  0.1218 -0.6603 -0.0910
   30SAPC  H20R 4037   5.457   7.230   7.079 -2.4822  1.1857  0.7035
   30SAPC  H20S 4038   5.461   7.050   7.060  0.3359 -0.6600  0.7743
   30SAPC  H20T 4039   5.353   7.126   7.177  2.2407  0.3714  0.9826
   30SAPC   C33 4040   5.164   7.168   6.069 -0.4243 -0.5467 -0.6717
   30SAPC   H3X 4041   5.115   7.109   6.149  3.0390 -1.8331  0.7161
   30SAPC   H3Y 4042   5.121   7.270   6.063  1.0053  0.0071 -2.3509
   30SAPC   C34 4043   5.319   7.167   6.081 -0.0522  0.1590 -0.5694
   30SAPC   H4X 4044   5.365   7.230   6.002  2.1690 -1.2163 -0.4716
   30SAPC   H4Y 4045   5.363   7.065   6.073  0.1343  0.3040 -1.5113
   30SAPC   C35 4046   5.374   7.232   6.216  0.0533  0.1293  0.0416
   30SAPC   H5X 4047   5.330   7.333   6.230  0.0457  0.1168  0.1051
   30SAPC   H5Y 4048   5.480   7.248   6.188 -0.3394  0.3039 -1.4470
   30SAPC   C36 4049   5.345   7.142   6.337 -0.5700 -0.1399  0.1922
   30SAPC   H6X 4050   5.370   7.038   6.307  1.3442  0.3562 -0.1086
   30SAPC   H6Y 4051   5.239   7.139   6.369  0.0832  1.0011  2.6901
   30SAPC   C37 4052   5.428   7.178   6.459  0.5454 -0.0926 -0.1781
   30SAPC   H7X 4053   5.530   7.189   6.416  0.3739 -0.6585 -0.7492
   30SAPC   H7Y 4054   5.436   7.096   6.533 -1.9581 -1.4270 -1.2509
   30SAPC   C38 4055   5.393   7.311   6.530  0.6009 -0.4718  0.0266
   30SAPC   H8X 4056   5.288   7.310   6.567  0.4896  1.7030 -0.1262
   30SAPC   H8Y 4057   5.406   7.393   6.457 -0.9083  1.3414  1.6768
   30SAPC   C39 4058   5.485   7.340   6.642  0.2886 -0.7089  0.2465
   30SAPC   H9X 4059   5.582   7.370   6.597  0.2337  0.0657  0.6280
   30SAPC   H9Y 4060   5.484   7.245   6.699  1.6089 -2.1066 -1.9175
   30SAPC  C310 4061   5.446   7.462   6.731 -0.1050  0.8086 -0.1270
   30SAPC  H10X 4062   5.342   7.442   6.766 -0.4463 -0.4240 -1.7035
   30SAPC  H10Y 4063   5.461   7.551   6.666  0.2139  0.1862 -0.9213
   30SAPC  C311 4064   5.542   7.454   6.855 -0.7344 -0.0557 -0.2337
   30SAPC  H11X 4065   5.642   7.438   6.811 -0.2458  1.0361  0.4493
   30SAPC  H11Y 4066   5.527   7.357   6.907  0.9962 -0.5529 -0.5975
   30SAPC  C312 4067   5.532   7.576   6.947 -0.2987  0.4039  0.0801
   30SAPC  H12X 4068   5.438   7.581   7.006 -0.7604  0.3547 -0.6405
   30SAPC  H12Y 4069   5.549   7.667   6.886  0.7021  0.5593  0.5572
   30SAPC  C313 4070   5.652   7.573   7.052 -0.2160  0.2674  0.1510
   30SAPC  H13X 4071   5.653   7.669   7.108  0.7963  1.1117 -1.2498
   30SAPC  H13Y 4072   5.747   7.560   6.996 -0.4795  0.3731 -0.3187
   30SAPC  C314 4073   5.655   7.462   7.156 -0.4510  0.5752  0.0811
   30SAPC  H14X 4074   5.749   7.462   7.215 -0.6573  1.8940  0.4280
   30SAPC  H14Y 4075   5.655   7.365   7.100  0.7601 -0.3189  1.5711
   30SAPC  C315 4076   5.550   7.460   7.262 -0.1215  0.2431  0.3769
   30SAPC  H15X 4077   5.572   7.369   7.322  1.0154 -0.9828 -1.7865
   30SAPC  H15Y 4078   5.446   7.449   7.223  0.1711 -0.9887 -0.1119
   30SAPC  C316 4079   5.558   7.590   7.353  0.8988  0.4225 -0.1369
   30SAPC  H16X 4080   5.508   7.674   7.301  1.1878  0.6522 -0.0482
   30SAPC  H16Y 4081   5.668   7.604   7.361  1.1987 -1.3562 -0.5799
   30SAPC  C317 4082   5.511   7.573   7.508 -0.0866  1.0937 -0.4091
   30SAPC  H17X 4083   5.408   7.532   7.520 -0.5447  2.7602  2.2672
   30SAPC  H17Y 4084   5.516   7.673   7.556 -0.5243  1.5003 -1.1981
   30SAPC  C318 4085   5.605   7.483   7.588 -0.3013  0.4292  0.1119
   30SAPC  H18X 4086   5.705   7.528   7.601 -0.8049  2.0606 -1.2569
   30SAPC  H18Y 4087   5.628   7.386   7.538  2.0378 -0.0073  1.8494
   30SAPC  H18Z 4088   5.570   7.462   7.692 -1.1875  0.0762 -0.2462
   31SAPC     N 4089   0.335   1.608   5.366 -1.0276 -0.0102  0.2222
   31SAPC   C12 4090   0.251   1.616   5.488  0.1190  0.0046  0.0003
   31SAPC  H12A 4091   0.174   1.688   5.466  1.9197  1.9489 -0.3709
   31SAPC  H12B 4092   0.303   1.673   5.564 -1.7012 -0.9433  2.0502
   31SAPC   C13 4093   0.339   1.751   5.311 -0.7437  0.2491  0.2492
   31SAPC  H13A 4094   0.424   1.761   5.246  0.0728  0.3572  1.2997
   31SAPC  H13B 4095   0.243   1.774   5.267 -0.0650  0.3541 -1.2094
   31SAPC  H13C 4096   0.366   1.808   5.399  0.0969 -3.3468  2.5799
   31SAPC   C14 4097   0.481   1.566   5.387  0.4429  0.1328  0.1972
   31SAPC  H14A 4098   0.524   1.640   5.453 -0.9184 -1.8380  3.6224
   31SAPC  H14B 4099   0.484   1.471   5.438  0.6170  0.5329  0.9551
   31SAPC  H14C 4100   0.530   1.572   5.291  2.2403 -0.8199  0.9993
   31SAPC   C15 4101   0.285   1.510   5.267 -0.2416 -0.1447 -0.1219
   31SAPC  H15A 4102   0.227   1.450   5.336  0.9144  1.3013  2.2592
   31SAPC  H15B 4103   0.221   1.560   5.197 -0.0633 -2.1194 -1.8106
   31SAPC  H15C 4104   0.360   1.462   5.206 -0.3643 -0.6482  0.1117
   31SAPC   C11 4105   0.204   1.487   5.550 -0.1271  0.2991 -0.1104
   31SAPC  H11A 4106   0.181   1.514   5.655  0.6957 -1.4114  0.5425
   31SAPC  H11B 4107   0.281   1.408   5.562  0.5552  1.0692  0.7312
   31SAPC     P 4108  -0.056   1.485   5.504  0.1250 -0.1626 -0.2614
   31SAPC   O13 4109  -0.079   1.621   5.450  0.0680 -0.4890 -0.1644
   31SAPC   O14 4110  -0.146   1.386   5.442  0.5060 -0.2872 -0.1254
   31SAPC   O12 4111   0.093   1.430   5.484 -0.0283  0.1821 -0.7011
   31SAPC   O11 4112  -0.068   1.472   5.662 -0.9556  0.2132  0.7177
   31SAPC    C1 4113  -0.042   1.340   5.724 -0.2259  0.3154  0.7995
   31SAPC    HA 4114  -0.136   1.284   5.743  0.3494 -0.7892  0.4711
   31SAPC    HB 4115   0.030   1.279   5.665 -0.4789  1.8496 -1.2055
   31SAPC    C2 4116   0.017   1.354   5.870  0.5840 -0.8149  0.3957
   31SAPC    HS 4117   0.126   1.374   5.867  0.6847 -1.3452  0.4533
   31SAPC   O21 4118  -0.005   1.230   5.939 -0.2317 -0.0200 -0.0224
   31SAPC   C21 4119   0.070   1.125   5.905 -0.0226 -0.1153  0.2963
   31SAPC   O22 4120   0.162   1.128   5.824 -0.2428 -0.2301  0.3599
   31SAPC   C22 4121   0.033   1.007   5.979  0.4640  0.3695  0.2534
   31SAPC   H2R 4122  -0.069   0.968   5.956  1.2278 -0.9065 -1.1882
   31SAPC   H2S 4123   0.095   0.931   5.926 -0.7154 -1.3642  1.2672
   31SAPC    C3 4124  -0.042   1.479   5.942  0.5972 -0.3368  0.7228
   31SAPC    HX 4125  -0.021   1.574   5.888 -2.6693  0.2832  0.3416
   31SAPC    HY 4126   0.014   1.486   6.037  0.6359 -2.2014  0.8694
   31SAPC   O31 4127  -0.188   1.477   5.957  0.4697  0.6532  0.1932
   31SAPC   C31 4128  -0.228   1.401   6.055 -0.6738  0.6640  1.1868
   31SAPC   O32 4129  -0.169   1.378   6.156 -0.3043  0.5264  0.2121
   31SAPC   C32 4130  -0.346   1.320   6.014  0.8017  0.1579 -0.2450
   31SAPC   H2X 4131  -0.316   1.269   5.920 -0.1859  1.7426 -1.4652
   31SAPC   H2Y 4132  -0.423   1.397   5.993  1.2985  0.9516  0.7460
   31SAPC   C23 4133   0.052   1.008   6.135  0.4270 -0.0497 -0.2689
   31SAPC   H3R 4134  -0.010   0.923   6.169  1.3212  0.6057  3.4009
   31SAPC   H3S 4135   0.011   1.100   6.180  1.6006  0.0408  0.6581
   31SAPC   C24 4136   0.194   0.986   6.183 -0.4913 -0.5943  0.3684
   31SAPC   H4R 4137   0.227   0.896   6.126  1.6279 -0.1043  0.7610
   31SAPC   H4S 4138   0.185   0.951   6.289 -1.1191 -1.8938 -0.0844
   31SAPC   C25 4139   0.287   1.104   6.170  0.2705 -0.2347  0.0242
   31SAPC   H5R 4140   0.326   1.106   6.067  0.3402  1.2761  0.0480
   31SAPC   C26 4141   0.320   1.199   6.264 -0.2424  0.7931  0.3792
   31SAPC   H6R 4142   0.401   1.267   6.231 -1.7224  2.0358 -0.8139
   31SAPC   C27 4143   0.268   1.201   6.408  1.3848 -0.1814  0.7336
   31SAPC   H7R 4144   0.337   1.137   6.467  0.5162 -2.1348 -0.2949
   31SAPC   H7S 4145   0.168   1.155   6.425  0.4071  1.5435 -0.0101
   31SAPC   C28 4146   0.258   1.342   6.461 -0.2735 -0.6499 -0.1619
   31SAPC   H8R 4147   0.260   1.426   6.390  0.4650 -2.4054 -2.3364
   31SAPC   C29 4148   0.247   1.374   6.588 -0.9168  0.3975 -0.2918
   31SAPC   H9R 4149   0.239   1.481   6.613 -1.0751  0.5696 -1.0395
   31SAPC  C210 4150   0.247   1.262   6.689  0.4506  0.2418  0.8656
   31SAPC  H10R 4151   0.344   1.207   6.685  0.7016  0.7539 -1.8853
   31SAPC  H10S 4152   0.160   1.197   6.667  0.5846 -0.2046  1.6095
   31SAPC  C211 4153   0.244   1.307   6.830  0.3693 -0.4045  0.0139
   31SAPC  H11R 4154   0.317   1.386   6.854  0.9062 -0.9389  0.1479
   31SAPC  C212 4155   0.179   1.247   6.927 -0.5128 -0.6127 -0.1427
   31SAPC  H12R 4156   0.175   1.306   7.020  0.1274  0.8818 -1.0152
   31SAPC  C213 4157   0.096   1.125   6.929  0.0013 -0.0815 -0.2250
   31SAPC  H13R 4158   0.148   1.044   6.985  1.1136  0.4310 -0.4805
   31SAPC  H13S 4159   0.090   1.078   6.828  1.3755  0.2279 -0.4699
   31SAPC  C214 4160  -0.038   1.159   7.001  0.4331 -0.1873  0.8688
   31SAPC  H14R 4161  -0.042   1.153   7.111 -0.6251 -2.0477  0.7706
   31SAPC  C215 4162  -0.154   1.202   6.943 -0.2802 -0.1944 -0.0128
   31SAPC  H15R 4163  -0.242   1.225   7.005 -0.6232  4.9878 -1.9308
   31SAPC  C216 4164  -0.174   1.218   6.796  0.0999 -1.0151 -0.1216
   31SAPC  H16R 4165  -0.265   1.167   6.757 -2.2343  2.4580  0.2989
   31SAPC  H16S 4166  -0.090   1.178   6.736 -1.0333 -3.1936 -0.3555
   31SAPC  C217 4167  -0.203   1.370   6.764  0.4896  0.0023  0.3652
   31SAPC  H17R 4168  -0.113   1.427   6.794  3.3509 -2.5174 -2.6581
   31SAPC  H17S 4169  -0.294   1.400   6.820 -0.6415 -0.8895 -0.9414
   31SAPC  C218 4170  -0.235   1.409   6.617 -0.4008 -0.2917  0.4562
   31SAPC  H18R 4171  -0.277   1.512   6.611 -3.1152 -1.3401  0.4683
   31SAPC  H18S 4172  -0.314   1.345   6.574  0.8732 -0.5456 -1.7046
   31SAPC  C219 4173  -0.119   1.408   6.509  0.4075 -0.2272 -0.6495
   31SAPC  H19R 4174  -0.030   1.446   6.563  0.5455 -1.2233 -0.1593
   31SAPC  H19S 4175  -0.136   1.481   6.427  1.9919  0.5016 -0.3603
   31SAPC  C220 4176  -0.113   1.269   6.438 -0.4320  0.2522 -0.0940
   31SAPC  H20R 4177  -0.023   1.273   6.372 -0.0701  0.1643  0.3838
   31SAPC  H20S 4178  -0.205   1.250   6.379 -0.8744 -2.0201  1.1937
   31SAPC  H20T 4179  -0.085   1.192   6.514  1.3086  0.4613 -0.4747
   31SAPC   C33 4180  -0.407   1.234   6.131 -0.5874  0.2459  0.8002
   31SAPC   H3X 4181  -0.331   1.169   6.181 -0.6259 -1.6089 -1.3689
   31SAPC   H3Y 4182  -0.491   1.176   6.087 -1.1437  1.6134 -0.0110
   31SAPC   C34 4183  -0.479   1.313   6.240 -0.1141 -0.3230  0.2875
   31SAPC   H4X 4184  -0.392   1.363   6.288 -0.2086  1.3878 -1.2232
   31SAPC   H4Y 4185  -0.534   1.249   6.313 -0.5954  2.1876  2.2742
   31SAPC   C35 4186  -0.568   1.429   6.184  0.5372  0.1259  0.2734
   31SAPC   H5X 4187  -0.637   1.381   6.112  0.0942 -0.5792  1.1522
   31SAPC   H5Y 4188  -0.505   1.510   6.141 -0.0040 -0.3105 -1.3921
   31SAPC   C36 4189  -0.645   1.499   6.294  0.2497 -0.2817 -0.6235
   31SAPC   H6X 4190  -0.688   1.413   6.351 -0.9761 -0.7505 -2.1629
   31SAPC   H6Y 4191  -0.728   1.564   6.259  1.9583  2.6389  0.3773
   31SAPC   C37 4192  -0.570   1.596   6.386  0.2313  0.2360  0.1034
   31SAPC   H7X 4193  -0.583   1.699   6.344 -0.7319  0.9550  2.0514
   31SAPC   H7Y 4194  -0.467   1.558   6.398  0.0364 -0.0918  0.7920
   31SAPC   C38 4195  -0.647   1.603   6.524  0.3007  0.0318 -0.4493
   31SAPC   H8X 4196  -0.646   1.502   6.570 -2.0344  0.8367  1.6200
   31SAPC   H8Y 4197  -0.751   1.634   6.500 -0.2980  0.4153  2.2627
   31SAPC   C39 4198  -0.585   1.700   6.627 -0.3707  0.2535  0.8040
   31SAPC   H9X 4199  -0.629   1.797   6.598  0.2292  0.4765  0.6324
   31SAPC   H9Y 4200  -0.477   1.694   6.603 -0.6793  0.0904 -0.6231
   31SAPC  C310 4201  -0.629   1.668   6.772 -0.3768  0.6486  0.2891
   31SAPC  H10X 4202  -0.617   1.566   6.812 -2.2928  1.2254  2.5819
   31SAPC  H10Y 4203  -0.739   1.686   6.770 -0.1984  1.8252 -0.9157
   31SAPC  C311 4204  -0.562   1.756   6.884 -0.2303  0.2141  0.5046
   31SAPC  H11X 4205  -0.616   1.737   6.979 -0.6249 -0.3471  0.1758
   31SAPC  H11Y 4206  -0.576   1.866   6.877  1.4701  0.4332  0.0103
   31SAPC  C312 4207  -0.412   1.720   6.895  0.4263  0.1653 -0.4020
   31SAPC  H12X 4208  -0.357   1.772   6.814 -0.4093 -1.7141 -2.2758
   31SAPC  H12Y 4209  -0.399   1.610   6.882 -0.0295 -0.2196  2.0191
   31SAPC  C313 4210  -0.347   1.742   7.032  0.5130 -0.7744  0.1037
   31SAPC  H13X 4211  -0.259   1.680   7.059  1.5737  1.1803  1.4012
   31SAPC  H13Y 4212  -0.420   1.711   7.109 -0.1893 -1.7311 -0.9277
   31SAPC  C314 4213  -0.317   1.885   7.056  0.3552  0.5525  0.3503
   31SAPC  H14X 4214  -0.406   1.946   7.028  0.1550 -0.6539 -1.8483
   31SAPC  H14Y 4215  -0.225   1.918   7.003  0.1155 -2.1492 -1.9736
   31SAPC  C315 4216  -0.292   1.924   7.203  0.4387  0.2519  0.3950
   31SAPC  H15X 4217  -0.207   1.863   7.237 -1.3138 -3.2606 -0.9611
   31SAPC  H15Y 4218  -0.386   1.902   7.257 -0.7630  2.4093 -0.6333
   31SAPC  C316 4219  -0.251   2.066   7.220 -0.0917  0.6565  0.4439
   31SAPC  H16X 4220  -0.345   2.125   7.215 -0.9354 -0.7162 -2.2415
   31SAPC  H16Y 4221  -0.184   2.096   7.136 -0.5376 -1.7445 -0.8565
   31SAPC  C317 4222  -0.165   2.097   7.343  0.2031  0.6134 -0.4090
   31SAPC  H17X 4223  -0.215   2.051   7.431  2.8864  1.0304  1.4763
   31SAPC  H17Y 4224  -0.166   2.207   7.359  2.6444  0.5393  0.7470
   31SAPC  C318 4225  -0.016   2.053   7.337  1.1711 -0.1730  0.6777
   31SAPC  H18X 4226   0.035   2.068   7.434 -0.0075  1.3724  1.1058
   31SAPC  H18Y 4227   0.035   2.116   7.261  2.1549 -0.8118  0.8043
   31SAPC  H18Z 4228  -0.007   1.947   7.307  2.8006  0.4008 -1.0403
   32SAPC     N 4229   0.097   1.075   5.337  0.2105  0.1533 -0.4168
   32SAPC   C12 4230   0.089   1.051   5.491  0.5531  0.3637  0.5100
   32SAPC  H12A 4231  -0.007   1.009   5.520  0.6584 -1.2236 -1.2695
   32SAPC  H12B 4232   0.093   1.146   5.542 -1.3446  1.1088 -0.6155
   32SAPC   C13 4233  -0.025   1.157   5.292  0.1151  0.8616 -0.3788
   32SAPC  H13A 4234  -0.041   1.251   5.344  0.3421 -0.1654  1.6279
   32SAPC  H13B 4235  -0.032   1.169   5.184 -1.3171  0.3603 -0.3606
   32SAPC  H13C 4236  -0.115   1.100   5.307 -0.1483  0.6878 -2.3325
   32SAPC   C14 4237   0.214   1.166   5.309  0.0954  0.0323 -0.4099
   32SAPC  H14A 4238   0.306   1.130   5.354  0.6959  0.9536 -0.8495
   32SAPC  H14B 4239   0.251   1.190   5.210  1.3647  1.5765  0.3892
   32SAPC  H14C 4240   0.194   1.263   5.353  0.7231  0.9232 -1.9571
   32SAPC   C15 4241   0.117   0.950   5.258  0.1734 -0.3588 -0.3366
   32SAPC  H15A 4242   0.197   0.899   5.310  1.1646 -0.0534 -1.5321
   32SAPC  H15B 4243   0.029   0.886   5.252  0.0378 -0.3337  1.0922
   32SAPC  H15C 4244   0.141   0.966   5.154  0.9342  0.3658 -0.0516
   32SAPC   C11 4245   0.194   0.958   5.553  0.3435 -0.2406  0.2226
   32SAPC  H11A 4246   0.174   0.977   5.660 -0.9150  0.5541 -0.1308
   32SAPC  H11B 4247   0.301   0.988   5.547  0.9280 -1.8591  1.7191
   32SAPC     P 4248   0.059   0.743   5.578 -0.1619 -0.0620 -0.1022
   32SAPC   O13 4249  -0.066   0.804   5.544 -0.0841  0.5980 -0.0066
   32SAPC   O14 4250   0.080   0.603   5.528  0.2657  0.0898 -0.0545
   32SAPC   O12 4251   0.181   0.825   5.516 -0.4542  0.0972  0.0650
   32SAPC   O11 4252   0.081   0.761   5.731  0.0895 -0.4020  0.3431
   32SAPC    C1 4253   0.182   0.688   5.796  0.0036 -0.3567  0.1736
   32SAPC    HA 4254   0.265   0.661   5.727  0.5437  0.0229  0.6628
   32SAPC    HB 4255   0.234   0.755   5.867 -0.0228 -1.5253  1.3319
   32SAPC    C2 4256   0.138   0.562   5.862  0.1301 -0.0955 -0.4330
   32SAPC    HS 4257   0.108   0.483   5.790  1.3067  0.4252 -1.5381
   32SAPC   O21 4258   0.044   0.600   5.965  0.0968 -0.2673 -0.1361
   32SAPC   C21 4259  -0.077   0.611   5.921  0.3059  0.1141 -0.3953
   32SAPC   O22 4260  -0.123   0.567   5.816 -0.5206  0.2450 -0.7226
   32SAPC   C22 4261  -0.173   0.653   6.042  0.9061 -0.8288 -0.8664
   32SAPC   H2R 4262  -0.117   0.630   6.135 -0.9071  1.1450  0.8301
   32SAPC   H2S 4263  -0.185   0.762   6.025 -0.7214 -0.6160  1.1052
   32SAPC    C3 4264   0.260   0.503   5.941 -0.2732  0.1628  0.1836
   32SAPC    HX 4265   0.320   0.444   5.869 -0.4781 -0.8503  0.8110
   32SAPC    HY 4266   0.226   0.428   6.016 -0.2014  0.1754  0.2288
   32SAPC   O31 4267   0.330   0.612   6.015 -0.4818 -0.0317  0.2158
   32SAPC   C31 4268   0.431   0.563   6.091 -0.7594  0.0436 -0.2963
   32SAPC   O32 4269   0.464   0.443   6.095 -0.7722 -0.0214  0.0496
   32SAPC   C32 4270   0.506   0.677   6.169 -0.0164 -0.1390 -0.2760
   32SAPC   H2X 4271   0.539   0.749   6.091  1.0369 -0.0977  0.1953
   32SAPC   H2Y 4272   0.601   0.627   6.196 -0.4133 -0.6583  0.1772
   32SAPC   C23 4273  -0.310   0.582   6.056 -0.3748  0.2484 -0.1209
   32SAPC   H3R 4274  -0.289   0.480   6.097  0.1623 -0.0616 -1.1373
   32SAPC   H3S 4275  -0.347   0.561   5.954 -1.0011 -1.1536  0.3665
   32SAPC   C24 4276  -0.399   0.658   6.154 -0.3638 -0.0461 -0.2076
   32SAPC   H4R 4277  -0.405   0.760   6.110  0.9579  0.3613  0.4813
   32SAPC   H4S 4278  -0.341   0.666   6.249  0.0936  1.9041 -0.5951
   32SAPC   C25 4279  -0.530   0.598   6.180 -0.4519  0.3480 -1.3192
   32SAPC   H5R 4280  -0.587   0.611   6.087 -2.0855  0.3371 -0.3600
   32SAPC   C26 4281  -0.581   0.536   6.291  0.0719 -0.3077  0.6374
   32SAPC   H6R 4282  -0.680   0.488   6.287 -0.4796  0.8582 -0.7203
   32SAPC   C27 4283  -0.530   0.533   6.430  0.0440  0.3997  0.5111
   32SAPC   H7R 4284  -0.420   0.519   6.429 -0.0114 -1.1889 -3.8281
   32SAPC   H7S 4285  -0.574   0.438   6.468  1.4779 -1.2818 -1.8188
   32SAPC   C28 4286  -0.568   0.658   6.507  0.9529  0.6551  0.2738
   32SAPC   H8R 4287  -0.676   0.664   6.521  0.8550  1.3622 -0.6686
   32SAPC   C29 4288  -0.487   0.741   6.583  0.3206 -0.2915 -0.5648
   32SAPC   H9R 4289  -0.531   0.823   6.643  1.5893  1.3932 -1.8293
   32SAPC  C210 4290  -0.339   0.738   6.604  0.2716  0.3036 -0.2807
   32SAPC  H10R 4291  -0.288   0.729   6.506  0.9490 -0.6393  0.1455
   32SAPC  H10S 4292  -0.321   0.646   6.664 -2.2017  0.8573  1.4719
   32SAPC  C211 4293  -0.283   0.859   6.677 -0.4466  0.4297  0.2154
   32SAPC  H11R 4294  -0.338   0.954   6.681  1.5491  1.6214  0.8433
   32SAPC  C212 4295  -0.164   0.860   6.736  0.1080 -0.8218  0.5998
   32SAPC  H12R 4296  -0.124   0.958   6.765  0.4710 -0.2954 -1.5163
   32SAPC  C213 4297  -0.078   0.742   6.762 -0.9107  0.9651 -0.3988
   32SAPC  H13R 4298  -0.098   0.656   6.694  2.6814 -0.2692 -0.1189
   32SAPC  H13S 4299  -0.089   0.700   6.865 -0.2428 -1.9411 -1.4209
   32SAPC  C214 4300   0.061   0.792   6.737  0.5184 -0.6405  0.6481
   32SAPC  H14R 4301   0.103   0.850   6.821 -0.6979 -0.2935  1.0436
   32SAPC  C215 4302   0.133   0.782   6.620 -0.4674 -0.1556  0.6944
   32SAPC  H15R 4303   0.229   0.837   6.615 -1.1789  1.0380 -0.3998
   32SAPC  C216 4304   0.090   0.702   6.500  0.2494 -0.0416 -0.1323
   32SAPC  H16R 4305   0.138   0.757   6.416 -0.3897  2.0646  0.8232
   32SAPC  H16S 4306  -0.021   0.699   6.487  0.4157  0.4405 -1.9111
   32SAPC  C217 4307   0.152   0.572   6.502 -0.3012  0.1456  0.0996
   32SAPC  H17R 4308   0.115   0.526   6.596 -1.5524  0.8827 -0.0112
   32SAPC  H17S 4309   0.261   0.590   6.513 -0.4350  1.4065 -0.5283
   32SAPC  C218 4310   0.108   0.513   6.373  0.8195  0.0705  0.3831
   32SAPC  H18R 4311   0.152   0.572   6.290 -1.5885  0.0536 -1.0188
   32SAPC  H18S 4312  -0.001   0.535   6.362  0.6328 -1.5031 -1.3790
   32SAPC  C219 4313   0.138   0.362   6.351 -1.0052 -0.1843 -0.0451
   32SAPC  H19R 4314   0.115   0.339   6.245 -3.1626 -1.2445  0.5901
   32SAPC  H19S 4315   0.072   0.305   6.421 -0.5466  0.0426  0.5831
   32SAPC  C220 4316   0.280   0.321   6.383 -0.3374  0.6726  0.2126
   32SAPC  H20R 4317   0.356   0.365   6.314  0.7070  0.9259  1.4942
   32SAPC  H20S 4318   0.283   0.210   6.379 -3.8068  0.4560  0.1736
   32SAPC  H20T 4319   0.305   0.355   6.486 -0.4184  0.2857  0.3613
   32SAPC   C33 4320   0.418   0.728   6.280  0.8078 -0.3406  0.1800
   32SAPC   H3X 4321   0.396   0.646   6.352  0.5066 -0.0079  0.4692
   32SAPC   H3Y 4322   0.321   0.759   6.236  1.7276  1.5575 -0.5956
   32SAPC   C34 4323   0.476   0.837   6.362  0.4294 -0.0119  0.9428
   32SAPC   H4X 4324   0.387   0.890   6.402 -0.5877  1.6381 -3.0586
   32SAPC   H4Y 4325   0.518   0.908   6.288  1.3407 -0.0916  1.3710
   32SAPC   C35 4326   0.569   0.789   6.476 -0.3054 -0.0712 -0.7705
   32SAPC   H5X 4327   0.641   0.870   6.501 -0.8569 -0.3965  2.1760
   32SAPC   H5Y 4328   0.629   0.703   6.442  0.5795  0.4543 -0.5742
   32SAPC   C36 4329   0.495   0.763   6.611  0.0873  0.6158  0.2834
   32SAPC   H6X 4330   0.402   0.703   6.603  0.4707 -0.2848  2.0681
   32SAPC   H6Y 4331   0.463   0.860   6.655  1.3998  1.0792  0.2693
   32SAPC   C37 4332   0.584   0.687   6.711 -0.6703  0.0645 -0.6304
   32SAPC   H7X 4333   0.692   0.713   6.700 -0.1969 -1.1140  0.9519
   32SAPC   H7Y 4334   0.580   0.579   6.688  0.3116 -0.1525  0.1450
   32SAPC   C38 4335   0.553   0.710   6.859 -0.7306 -0.4199  0.4446
   32SAPC   H8X 4336   0.578   0.817   6.879 -1.2988  0.0363 -1.1371
   32SAPC   H8Y 4337   0.623   0.649   6.920 -1.2613 -0.3981  1.0811
   32SAPC   C39 4338   0.409   0.676   6.890 -0.1145  0.0179  0.2577
   32SAPC   H9X 4339   0.392   0.566   6.889 -0.8077  0.0874  1.7123
   32SAPC   H9Y 4340   0.332   0.732   6.832 -0.1084  1.5995  1.6773
   32SAPC  C310 4341   0.386   0.710   7.038  0.1330  0.5757 -0.2127
   32SAPC  H10X 4342   0.373   0.821   7.040 -0.1174  0.5359  0.4039
   32SAPC  H10Y 4343   0.469   0.691   7.109  0.5627  1.0322 -0.5867
   32SAPC  C311 4344   0.246   0.653   7.076  0.1506  0.6166 -0.2013
   32SAPC  H11X 4345   0.260   0.542   7.076  1.8245  0.7977 -1.2411
   32SAPC  H11Y 4346   0.180   0.670   6.989  0.6432 -0.8026 -0.8908
   32SAPC  C312 4347   0.196   0.702   7.207  0.2808 -0.2212 -0.1611
   32SAPC  H12X 4348   0.158   0.805   7.189 -2.5058 -1.4551 -2.1116
   32SAPC  H12Y 4349   0.280   0.708   7.279 -0.0223  0.3302  0.1485
   32SAPC  C313 4350   0.082   0.631   7.281  0.3308 -0.3653  0.4560
   32SAPC  H13X 4351   0.066   0.680   7.379 -0.1000  1.9654 -0.7130
   32SAPC  H13Y 4352   0.106   0.524   7.302  1.1757 -0.3371 -0.3173
   32SAPC  C314 4353  -0.049   0.632   7.206  0.2074 -0.4977  0.3907
   32SAPC  H14X 4354  -0.123   0.556   7.240 -3.7882  3.4742  1.5549
   32SAPC  H14Y 4355  -0.025   0.605   7.101  1.0192 -3.1383  1.1831
   32SAPC  C315 4356  -0.117   0.773   7.225  0.2415  0.1593  0.2015
   32SAPC  H15X 4357  -0.059   0.866   7.204 -0.1479  0.5135  0.6769
   32SAPC  H15Y 4358  -0.161   0.798   7.323  0.7036  1.4033  0.1094
   32SAPC  C316 4359  -0.231   0.781   7.116 -0.4036  0.6554  0.1913
   32SAPC  H16X 4360  -0.294   0.691   7.128 -0.6786  0.9841  1.3248
   32SAPC  H16Y 4361  -0.179   0.779   7.018 -1.2189  2.8343 -0.3480
   32SAPC  C317 4362  -0.323   0.903   7.132  0.3141 -0.2728  0.1099
   32SAPC  H17X 4363  -0.257   0.992   7.142 -0.6487  0.2664  2.0624
   32SAPC  H17Y 4364  -0.372   0.895   7.231 -3.0662 -0.1072 -1.4327
   32SAPC  C318 4365  -0.428   0.922   7.018  0.0993  0.2653  0.5565
   32SAPC  H18X 4366  -0.400   0.962   6.918  0.0003 -0.8501  0.0754
   32SAPC  H18Y 4367  -0.503   0.990   7.065  0.9671 -0.2235  2.7673
   32SAPC  H18Z 4368  -0.486   0.830   6.998 -0.0435  0.0547  1.8497
   33POPC     N 4369   3.643   3.080   9.279  0.7237 -0.1361 -0.5997
   33POPC   C12 4370   3.669   3.227   9.285  0.5158  0.2378 -0.1560
   33POPC  H12A 4371   3.708   3.247   9.384  0.4550  2.7560 -0.5615
   33POPC  H12B 4372   3.570   3.270   9.284 -0.5943 -2.0410  2.2650
   33POPC   C13 4373   3.769   3.010   9.320  0.0902 -0.6778  0.5983
   33POPC  H13A 4374   3.787   3.030   9.424  1.5069 -2.3246  0.7093
   33POPC  H13B 4375   3.760   2.905   9.296 -3.6094 -1.5629  4.7004
   33POPC  H13C 4376   3.857   3.055   9.275 -1.6546  1.9184 -0.5168
   33POPC   C14 4377   3.540   3.038   9.383 -0.2315 -0.1338 -0.2626
   33POPC  H14A 4378   3.569   3.042   9.487  0.7394 -3.3997 -0.3060
   33POPC  H14B 4379   3.452   3.099   9.368 -0.5632 -0.5444 -0.0267
   33POPC  H14C 4380   3.514   2.934   9.371 -2.3518  0.1886  1.0562
   33POPC   C15 4381   3.601   3.043   9.139  0.3532  0.8652  0.3728
   33POPC  H15A 4382   3.512   3.094   9.107 -0.8746 -1.1541  0.3599
   33POPC  H15B 4383   3.570   2.940   9.130 -2.7100  1.4588  2.4235
   33POPC  H15C 4384   3.683   3.067   9.073  0.7821  0.3984  0.7192
   33POPC   C11 4385   3.763   3.286   9.168 -0.2253  0.6943 -0.5709
   33POPC  H11A 4386   3.696   3.269   9.081 -1.7790 -2.0422  1.0263
   33POPC  H11B 4387   3.865   3.243   9.153 -0.2552  0.5230 -0.2905
   33POPC     P 4388   3.874   3.475   9.310 -0.1474  0.0095 -0.4861
   33POPC   O13 4389   3.863   3.385   9.429 -0.8499  0.3666 -0.1915
   33POPC   O14 4390   3.852   3.621   9.334 -0.5185  0.9219 -0.0585
   33POPC   O12 4391   3.779   3.431   9.185  0.1578 -0.2997  0.5166
   33POPC   O11 4392   4.014   3.447   9.236 -0.7003 -0.5097  0.5536
   33POPC    C1 4393   4.074   3.539   9.149  0.0355 -1.0594  0.2396
   33POPC    HA 4394   4.001   3.613   9.112  1.4443  0.4384  0.3524
   33POPC    HB 4395   4.148   3.594   9.211 -0.8147  0.6162 -0.1828
   33POPC    C2 4396   4.132   3.469   9.022  0.5832  0.5969 -0.1036
   33POPC    HS 4397   4.183   3.544   8.958  1.3321 -0.8008 -1.2016
   33POPC   O21 4398   4.027   3.392   8.957  0.1571 -0.0311 -0.1032
   33POPC   C21 4399   3.948   3.459   8.883 -0.2071  0.0501  0.0837
   33POPC   O22 4400   3.946   3.581   8.868 -0.2801 -0.0797 -0.5053
   33POPC   C22 4401   3.849   3.367   8.813  0.4380 -0.5188 -0.1489
   33POPC   H2R 4402   3.761   3.345   8.877  0.4129 -0.7148 -0.2483
   33POPC   H2S 4403   3.906   3.279   8.775  0.9790 -0.1025 -0.3021
   33POPC    C3 4404   4.246   3.372   9.058 -0.4089  0.2654 -0.2052
   33POPC    HX 4405   4.201   3.308   9.137 -1.1352 -0.2264 -1.0004
   33POPC    HY 4406   4.336   3.425   9.096 -0.4138  0.4470 -0.4528
   33POPC   O31 4407   4.276   3.281   8.951  0.2727 -0.0139  0.3196
   33POPC   C31 4408   4.362   3.319   8.864 -0.7458  0.7325  0.1213
   33POPC   O32 4409   4.433   3.416   8.882  1.1159 -0.5946 -0.1500
   33POPC   C32 4410   4.384   3.210   8.753  0.3439 -0.6323  0.3711
   33POPC   H2X 4411   4.307   3.237   8.677  0.6596 -0.8952 -0.0441
   33POPC   H2Y 4412   4.360   3.116   8.807  0.5958 -0.6246  0.4959
   33POPC   C23 4413   3.790   3.432   8.680 -0.2564  0.1151 -0.6032
   33POPC   H3R 4414   3.884   3.437   8.622  0.4710  0.2766  0.5512
   33POPC   H3S 4415   3.754   3.533   8.707  0.3074  0.1335  0.1224
   33POPC   C24 4416   3.668   3.355   8.625 -0.1879  0.1387  0.2698
   33POPC   H4R 4417   3.633   3.402   8.530 -0.4902 -1.5896 -0.5037
   33POPC   H4S 4418   3.581   3.361   8.693 -0.2507  0.1754  0.1884
   33POPC   C25 4419   3.690   3.212   8.577 -0.1861  0.1975 -0.9067
   33POPC   H5R 4420   3.705   3.148   8.666  0.2817 -0.9113 -1.7735
   33POPC   H5S 4421   3.777   3.203   8.509  0.0792 -0.7821 -0.4533
   33POPC   C26 4422   3.571   3.150   8.506  0.2583  0.3135  0.6276
   33POPC   H6R 4423   3.469   3.186   8.531  0.0004 -0.4476  0.6874
   33POPC   H6S 4424   3.579   3.039   8.512  1.1645  0.2548 -1.0759
   33POPC   C27 4425   3.563   3.172   8.351  0.3954  0.3501  0.4871
   33POPC   H7R 4426   3.646   3.111   8.307  1.3183  1.9155 -0.0318
   33POPC   H7S 4427   3.573   3.282   8.340  2.5433  0.2382  0.8503
   33POPC   C28 4428   3.424   3.124   8.297 -0.3660  0.3268 -0.0081
   33POPC   H8R 4429   3.424   3.145   8.188  0.1319 -0.6479 -0.2085
   33POPC   H8S 4430   3.347   3.187   8.345 -1.5948 -1.9088  1.1244
   33POPC   C29 4431   3.403   2.975   8.313 -0.6203  0.3932  0.3440
   33POPC   H91 4432   3.378   2.951   8.418 -2.3459  4.6096  1.0868
   33POPC  C210 4433   3.435   2.883   8.221 -0.1999 -0.2404  0.7483
   33POPC  H101 4434   3.413   2.776   8.237  0.6190 -0.6893 -0.8564
   33POPC  C211 4435   3.487   2.896   8.080  0.2401  0.0549  0.0982
   33POPC  H11R 4436   3.571   2.823   8.075  0.8552  0.7706 -0.1841
   33POPC  H11S 4437   3.522   3.000   8.063  0.7720  0.2798  2.2849
   33POPC  C212 4438   3.380   2.851   7.977  0.0888  0.7788 -0.0076
   33POPC  H12R 4439   3.287   2.909   7.991 -2.0958 -1.8503 -2.4959
   33POPC  H12S 4440   3.364   2.744   8.001  0.9424  0.9764  1.5586
   33POPC  C213 4441   3.420   2.864   7.824 -0.8133 -0.5381  0.4844
   33POPC  H13R 4442   3.481   2.777   7.792 -1.3005 -1.0015  0.7975
   33POPC  H13S 4443   3.486   2.953   7.819 -1.5781 -0.0054 -0.5513
   33POPC  C214 4444   3.299   2.865   7.725  0.3841  0.2917 -0.7919
   33POPC  H14R 4445   3.333   2.911   7.630  1.3539  0.6435 -0.2883
   33POPC  H14S 4446   3.220   2.925   7.776 -0.2244  1.0000 -2.4966
   33POPC  C215 4447   3.260   2.723   7.688  0.3493  0.2745  0.2301
   33POPC  H15R 4448   3.289   2.658   7.774  1.6189  0.3440 -0.1316
   33POPC  H15S 4449   3.321   2.691   7.601  2.6626  2.6150  0.8534
   33POPC  C216 4450   3.119   2.730   7.629 -0.6342 -0.0359 -0.1449
   33POPC  H16R 4451   3.119   2.813   7.555  0.5239 -0.4433 -0.6358
   33POPC  H16S 4452   3.053   2.761   7.712  1.0120  0.4979  1.0181
   33POPC  C217 4453   3.080   2.602   7.558  0.8746 -0.2027  0.0424
   33POPC  H17R 4454   3.092   2.530   7.643  1.0824  2.1189  2.0838
   33POPC  H17S 4455   3.148   2.566   7.478  0.2827  2.5066 -1.7850
   33POPC  C218 4456   2.932   2.599   7.509  0.3475  0.3791 -0.1500
   33POPC  H18R 4457   2.866   2.663   7.572  0.8667  0.2159  0.5759
   33POPC  H18S 4458   2.882   2.500   7.512  2.0881 -0.5262  1.8989
   33POPC  H18T 4459   2.929   2.650   7.411 -0.1240  0.7024  0.0316
   33POPC   C33 4460   4.526   3.203   8.699 -0.1694 -0.5292  0.1824
   33POPC   H3X 4461   4.589   3.195   8.790 -1.3296  1.1891  1.2038
   33POPC   H3Y 4462   4.556   3.301   8.655  0.1988  0.3345  2.2167
   33POPC   C34 4463   4.550   3.086   8.594 -0.4759 -0.6451  0.1919
   33POPC   H4X 4464   4.488   3.107   8.503  1.2031  2.8322 -0.2929
   33POPC   H4Y 4465   4.526   2.985   8.633  0.8017 -0.8454  0.4887
   33POPC   C35 4466   4.701   3.091   8.548 -0.3086 -0.3687 -0.1550
   33POPC   H5X 4467   4.719   3.188   8.497 -1.7304 -1.2670 -2.5488
   33POPC   H5Y 4468   4.725   3.010   8.475  1.2524 -2.0342  2.0669
   33POPC   C36 4469   4.790   3.084   8.673 -0.7241 -0.0312  0.0628
   33POPC   H6X 4470   4.731   3.019   8.742 -2.4210  1.9381  0.5742
   33POPC   H6Y 4471   4.797   3.184   8.721 -1.2211 -0.0258  0.1328
   33POPC   C37 4472   4.928   3.023   8.661  0.1741 -0.1614  0.2358
   33POPC   H7X 4473   4.982   3.071   8.577  1.4068 -3.5517 -1.0700
   33POPC   H7Y 4474   4.917   2.917   8.633  1.6730 -0.2801  0.0004
   33POPC   C38 4475   5.021   3.041   8.791  0.5634  0.0534 -0.2764
   33POPC   H8X 4476   5.122   3.001   8.769 -0.5861 -1.2688 -3.8970
   33POPC   H8Y 4477   4.977   2.972   8.866  1.3304 -0.8415 -0.6344
   33POPC   C39 4478   5.028   3.178   8.855  0.5085 -0.2908 -0.0869
   33POPC   H9X 4479   5.108   3.160   8.929 -0.5039 -1.5480  0.7340
   33POPC   H9Y 4480   4.929   3.199   8.901 -0.9199 -0.6906 -2.7718
   33POPC  C310 4481   5.059   3.297   8.759  0.3211  0.8853 -0.1030
   33POPC  H10X 4482   5.054   3.396   8.808  0.1797  0.9346 -0.2178
   33POPC  H10Y 4483   4.971   3.305   8.693 -1.2235  1.1625  1.9013
   33POPC  C311 4484   5.193   3.295   8.682 -0.4227  0.4120  0.2645
   33POPC  H11X 4485   5.195   3.197   8.630  3.4664 -0.9000  2.4628
   33POPC  H11Y 4486   5.281   3.286   8.750 -0.2287  1.1112  0.1097
   33POPC  C312 4487   5.198   3.400   8.568 -0.5956  0.0599 -0.2644
   33POPC  H12X 4488   5.095   3.410   8.528 -0.9983 -1.9152  0.1728
   33POPC  H12Y 4489   5.261   3.352   8.489  1.3874 -0.2350  1.4118
   33POPC  C313 4490   5.282   3.525   8.599 -0.2848  0.1529  0.1259
   33POPC  H13X 4491   5.384   3.489   8.626  0.0424  0.6854 -0.3573
   33POPC  H13Y 4492   5.233   3.577   8.684  1.2891 -0.0168  1.1827
   33POPC  C314 4493   5.290   3.624   8.481 -0.2844  0.3319  0.3823
   33POPC  H14X 4494   5.339   3.721   8.507 -1.0748  1.3379 -1.6166
   33POPC  H14Y 4495   5.185   3.649   8.455  0.0279  0.1900 -1.0616
   33POPC  C315 4496   5.352   3.576   8.348 -0.3455  1.0431 -0.0160
   33POPC  H15X 4497   5.297   3.633   8.271 -0.1854  1.4028  0.1294
   33POPC  H15Y 4498   5.325   3.470   8.332  0.2153  0.9962 -0.6766
   33POPC  C316 4499   5.502   3.611   8.344  0.2262 -0.3249  0.4112
   33POPC  H16X 4500   5.508   3.718   8.371  0.7563 -0.3340  0.3413
   33POPC  H16Y 4501   5.542   3.614   8.241 -1.9269 -2.1448 -0.5757
   33POPC  H16Z 4502   5.560   3.543   8.410  1.8294 -0.9604 -1.5671
   34POPC     N 4503   3.761   4.457   9.913  0.2555  0.5682 -0.7186
   34POPC   C12 4504   3.621   4.517   9.943 -0.1444 -0.0374 -0.4517
   34POPC  H12A 4505   3.609   4.547  10.046 -0.9566  0.3348 -0.6427
   34POPC  H12B 4506   3.564   4.427   9.926  0.9683 -1.1054  1.1518
   34POPC   C13 4507   3.792   4.357  10.024 -0.6226  0.4298  0.4065
   34POPC  H13A 4508   3.740   4.266   9.998 -0.7183  0.7494 -0.5512
   34POPC  H13B 4509   3.895   4.327  10.028  0.1179  2.8010  1.0854
   34POPC  H13C 4510   3.776   4.399  10.123  0.1295  0.8632  0.3449
   34POPC   C14 4511   3.769   4.386   9.787 -0.0849 -0.3366 -0.1008
   34POPC  H14A 4512   3.867   4.342   9.784 -0.3356 -0.9067 -0.0724
   34POPC  H14B 4513   3.689   4.315   9.776 -0.4091 -0.7573  3.5849
   34POPC  H14C 4514   3.769   4.461   9.710 -0.0235  2.5285  2.4887
   34POPC   C15 4515   3.871   4.553   9.925  0.0605  0.2225  0.0821
   34POPC  H15A 4516   3.871   4.622  10.008  0.6306  1.9789 -1.3056
   34POPC  H15B 4517   3.880   4.617   9.838  4.1834  0.6275  0.6525
   34POPC  H15C 4518   3.960   4.493   9.931 -1.3344 -2.0687 -0.8538
   34POPC   C11 4519   3.571   4.636   9.862 -0.2599 -0.8198 -0.0411
   34POPC  H11A 4520   3.648   4.717   9.868  1.4264 -2.4207  0.9912
   34POPC  H11B 4521   3.483   4.680   9.914  0.7380 -0.1127  1.1147
   34POPC     P 4522   3.425   4.520   9.695 -0.1185 -0.2204  0.0518
   34POPC   O13 4523   3.313   4.599   9.736  0.4805 -0.6579  0.3340
   34POPC   O14 4524   3.433   4.389   9.755  0.2841  0.1139 -0.3885
   34POPC   O12 4525   3.553   4.607   9.722 -0.1539  0.0267  0.1320
   34POPC   O11 4526   3.422   4.506   9.541 -0.0955 -0.0070  0.0636
   34POPC    C1 4527   3.405   4.624   9.458 -0.0613 -0.8180 -0.4345
   34POPC    HA 4528   3.393   4.719   9.516 -1.8143 -2.1442  1.5024
   34POPC    HB 4529   3.313   4.614   9.397 -0.0805  1.8452 -1.0005
   34POPC    C2 4530   3.529   4.640   9.363 -0.1664 -1.1793  0.1297
   34POPC    HS 4531   3.615   4.608   9.425  0.4360 -0.9771 -0.5972
   34POPC   O21 4532   3.538   4.777   9.319 -0.0617 -0.2056 -0.6046
   34POPC   C21 4533   3.661   4.818   9.281 -0.3240  0.0552 -0.4202
   34POPC   O22 4534   3.757   4.750   9.279  0.0199 -0.0174  0.2563
   34POPC   C22 4535   3.654   4.967   9.245 -0.0215  0.8810 -0.7511
   34POPC   H2R 4536   3.659   5.022   9.341 -0.6488 -0.6972  0.2182
   34POPC   H2S 4537   3.562   4.979   9.184  0.5141  2.3632 -1.3358
   34POPC    C3 4538   3.522   4.538   9.251  0.2184 -0.2042  0.3021
   34POPC    HX 4539   3.510   4.451   9.319  1.0507 -1.4230 -1.0407
   34POPC    HY 4540   3.620   4.541   9.198 -1.0347  0.8372 -2.0935
   34POPC   O31 4541   3.421   4.565   9.158  0.0325 -0.7447 -0.3410
   34POPC   C31 4542   3.377   4.458   9.086  0.2952  1.2464 -0.9364
   34POPC   O32 4543   3.423   4.344   9.109  0.0710 -0.0051 -0.4252
   34POPC   C32 4544   3.260   4.502   8.992 -0.5023  0.7840  0.2250
   34POPC   H2X 4545   3.251   4.611   9.009  0.0387  0.8845 -0.1169
   34POPC   H2Y 4546   3.178   4.434   9.022  0.5363 -0.9916 -0.7970
   34POPC   C23 4547   3.766   5.025   9.158  0.1827 -0.1594 -0.1446
   34POPC   H3R 4548   3.863   5.015   9.213 -1.2534  0.9291  2.7903
   34POPC   H3S 4549   3.758   5.136   9.153  3.8515  0.4816  3.0516
   34POPC   C24 4550   3.782   4.966   9.014  0.3824  0.3803  0.6837
   34POPC   H4R 4551   3.806   4.858   9.025 -0.8788  0.1149  0.9141
   34POPC   H4S 4552   3.869   5.012   8.961  0.7166  0.0070  0.8989
   34POPC   C25 4553   3.654   4.970   8.921 -0.1525  0.1055  0.0109
   34POPC   H5R 4554   3.605   5.066   8.949  1.3632  1.2907 -1.2330
   34POPC   H5S 4555   3.600   4.879   8.954  1.3954 -0.2511  1.8016
   34POPC   C26 4556   3.690   4.967   8.775 -0.0693  0.0535  0.4838
   34POPC   H6R 4557   3.782   4.909   8.756  0.5381  0.8908  0.8397
   34POPC   H6S 4558   3.712   5.074   8.755 -3.1999  0.8136  0.5679
   34POPC   C27 4559   3.580   4.924   8.685 -0.0031 -0.4690 -0.1995
   34POPC   H7R 4560   3.492   4.991   8.696 -1.0149 -1.6809 -0.7617
   34POPC   H7S 4561   3.548   4.824   8.719  0.1173  0.1412  1.8312
   34POPC   C28 4562   3.630   4.921   8.542 -0.5040 -0.2088 -0.0766
   34POPC   H8R 4563   3.726   4.867   8.537  0.2446  1.0743 -0.0936
   34POPC   H8S 4564   3.665   5.024   8.515  0.9018  0.7106  4.4468
   34POPC   C29 4565   3.521   4.872   8.457 -0.3905 -0.0389 -0.1190
   34POPC   H91 4566   3.519   4.763   8.450  1.8828 -0.1424  0.1593
   34POPC  C210 4567   3.451   4.954   8.374  0.3080  0.5012 -0.2887
   34POPC  H101 4568   3.374   4.901   8.315  0.6049 -1.4828  1.0261
   34POPC  C211 4569   3.477   5.104   8.366 -0.0173  1.2930  0.3822
   34POPC  H11R 4570   3.568   5.101   8.301  0.5511 -3.3464  1.0458
   34POPC  H11S 4571   3.490   5.156   8.463 -0.0699  0.2857  0.9361
   34POPC  C212 4572   3.377   5.187   8.285  0.4352  0.0286  0.8794
   34POPC  H12R 4573   3.409   5.293   8.285 -0.2406  0.2629 -0.4887
   34POPC  H12S 4574   3.277   5.182   8.333  1.7071 -2.6228  3.6131
   34POPC  C213 4575   3.378   5.156   8.128  0.1133  0.5435 -0.8907
   34POPC  H13R 4576   3.372   5.045   8.130  0.8127  0.5037  0.4615
   34POPC  H13S 4577   3.479   5.182   8.090  0.0691 -1.0258 -2.1769
   34POPC  C214 4578   3.273   5.233   8.057 -0.7787  0.6184  0.0523
   34POPC  H14R 4579   3.175   5.196   8.092 -1.1471 -0.5018 -2.0301
   34POPC  H14S 4580   3.271   5.195   7.953 -1.4701 -0.8786  0.5838
   34POPC  C215 4581   3.267   5.383   8.057  0.6951  0.0930  0.1351
   34POPC  H15R 4582   3.262   5.418   8.162  1.2671 -1.1162  0.5803
   34POPC  H15S 4583   3.183   5.431   8.002  0.3124  2.6026  2.6451
   34POPC  C216 4584   3.390   5.447   7.999 -0.4319 -0.2098  0.1221
   34POPC  H16R 4585   3.396   5.416   7.893  0.6164 -0.0993  0.1387
   34POPC  H16S 4586   3.480   5.417   8.058  0.3336  1.2939 -0.2430
   34POPC  C217 4587   3.393   5.602   8.001  0.0707  0.0992  0.1077
   34POPC  H17R 4588   3.431   5.636   8.100  2.3952 -1.3197 -0.2004
   34POPC  H17S 4589   3.289   5.631   7.975 -0.5705  0.1934  2.5690
   34POPC  C218 4590   3.479   5.654   7.892  0.0609 -0.9160  0.2951
   34POPC  H18R 4591   3.447   5.755   7.859 -1.4919 -1.4607  0.0328
   34POPC  H18S 4592   3.453   5.580   7.813 -0.4760 -2.9496  2.2537
   34POPC  H18T 4593   3.588   5.666   7.907 -0.0753 -1.4100  1.8501
   34POPC   C33 4594   3.292   4.463   8.846  0.1351  0.0241  0.4514
   34POPC   H3X 4595   3.206   4.488   8.780 -0.7441 -2.1476  0.7032
   34POPC   H3Y 4596   3.306   4.353   8.835  2.2173  0.4365 -1.8718
   34POPC   C34 4597   3.410   4.542   8.800  0.2858  0.0721 -0.0475
   34POPC   H4X 4598   3.507   4.512   8.844  1.2272  0.8241 -1.5345
   34POPC   H4Y 4599   3.381   4.644   8.833  0.2144 -0.2977  1.1109
   34POPC   C35 4600   3.430   4.537   8.644  0.2985 -0.1510 -0.6730
   34POPC   H5X 4601   3.503   4.617   8.616  1.1422 -1.0195 -1.0197
   34POPC   H5Y 4602   3.336   4.567   8.592  0.4788 -0.1549 -1.0098
   34POPC   C36 4603   3.484   4.418   8.574 -0.3824  0.0048 -0.3479
   34POPC   H6X 4604   3.414   4.336   8.601 -2.4611  0.6606 -3.2758
   34POPC   H6Y 4605   3.583   4.386   8.613 -0.8454 -1.0525 -0.0127
   34POPC   C37 4606   3.487   4.436   8.423  0.2318 -0.5723 -0.2983
   34POPC   H7X 4607   3.563   4.512   8.393 -0.7403  0.2003 -0.8415
   34POPC   H7Y 4608   3.395   4.485   8.386  0.0117 -0.3103  0.5769
   34POPC   C38 4609   3.520   4.313   8.341  0.1562  0.0059 -0.2444
   34POPC   H8X 4610   3.495   4.222   8.399 -4.3131  1.0249 -0.2484
   34POPC   H8Y 4611   3.630   4.308   8.325  0.0704  0.7810 -1.1968
   34POPC   C39 4612   3.456   4.302   8.207 -0.2390  0.0299  0.2616
   34POPC   H9X 4613   3.350   4.325   8.230 -0.4457  0.1239 -0.7702
   34POPC   H9Y 4614   3.461   4.197   8.172 -3.2280 -0.7276  1.7551
   34POPC  C310 4615   3.501   4.399   8.090 -0.1169  0.4436 -0.5797
   34POPC  H10X 4616   3.530   4.494   8.141  0.8432  1.2583 -2.5221
   34POPC  H10Y 4617   3.403   4.405   8.038 -2.1729  0.1204  2.9666
   34POPC  C311 4618   3.614   4.350   8.009  0.4700 -0.0574  0.7740
   34POPC  H11X 4619   3.615   4.239   8.010  1.8841 -0.0578  1.0284
   34POPC  H11Y 4620   3.711   4.379   8.055  0.3860 -0.4141  1.1812
   34POPC  C312 4621   3.609   4.406   7.861  0.1303 -0.3084 -0.1250
   34POPC  H12X 4622   3.640   4.513   7.856 -0.3818 -0.2166 -3.2880
   34POPC  H12Y 4623   3.509   4.396   7.815 -0.4077 -0.7815  1.1043
   34POPC  C313 4624   3.703   4.318   7.769 -0.0698 -0.5260  0.2040
   34POPC  H13X 4625   3.648   4.225   7.745  0.8778 -1.6278  2.0818
   34POPC  H13Y 4626   3.796   4.295   7.825 -0.4335  0.2450  1.1640
   34POPC  C314 4627   3.745   4.387   7.636  0.4915  0.8562  0.6566
   34POPC  H14X 4628   3.807   4.476   7.660  0.5184  0.8152  0.7413
   34POPC  H14Y 4629   3.653   4.424   7.587 -0.4384 -1.4749  0.5195
   34POPC  C315 4630   3.829   4.291   7.540  0.0990 -0.1221 -0.5413
   34POPC  H15X 4631   3.758   4.209   7.517  1.0201 -1.0469 -0.1554
   34POPC  H15Y 4632   3.912   4.256   7.605 -0.3243  1.5651  0.9828
   34POPC  C316 4633   3.880   4.365   7.418  0.3987 -0.1634 -0.1594
   34POPC  H16X 4634   3.938   4.301   7.348  0.8205  0.4049 -0.3403
   34POPC  H16Y 4635   3.932   4.457   7.453 -0.6277  0.4395 -0.1639
   34POPC  H16Z 4636   3.792   4.403   7.362 -1.1742 -0.5259  1.9713
   35POPC     N 4637   1.402   1.815   9.417 -0.5844  0.2519  0.1548
   35POPC   C12 4638   1.354   1.743   9.287  0.7182 -0.0422  0.1595
   35POPC  H12A 4639   1.314   1.819   9.222 -0.3529 -2.2129 -1.8610
   35POPC  H12B 4640   1.266   1.692   9.324  0.9725 -0.6539 -0.0581
   35POPC   C13 4641   1.288   1.891   9.471  0.4134 -0.2138  0.4371
   35POPC  H13A 4642   1.206   1.827   9.500 -0.2705 -0.5889 -2.0583
   35POPC  H13B 4643   1.315   1.943   9.562  0.7122  0.6310 -0.1205
   35POPC  H13C 4644   1.242   1.968   9.411  2.5185  3.1844  2.7962
   35POPC   C14 4645   1.448   1.712   9.516 -0.0072  0.0839 -0.8745
   35POPC  H14A 4646   1.529   1.651   9.478 -2.2515 -0.7506 -4.9112
   35POPC  H14B 4647   1.492   1.761   9.602  2.9610 -0.3176 -2.0283
   35POPC  H14C 4648   1.378   1.635   9.545 -1.7286  1.1535 -2.0108
   35POPC   C15 4649   1.511   1.909   9.372  0.5543 -0.1352 -0.5569
   35POPC  H15A 4650   1.537   1.969   9.458  0.1451  0.7937 -1.0604
   35POPC  H15B 4651   1.475   1.985   9.304 -0.7384  1.4119  1.7231
   35POPC  H15C 4652   1.593   1.853   9.330 -0.3759 -1.5384 -0.5631
   35POPC   C11 4653   1.439   1.650   9.196 -0.0393  0.9960  0.3033
   35POPC  H11A 4654   1.512   1.717   9.147 -1.2860  2.1227 -0.0753
   35POPC  H11B 4655   1.364   1.613   9.123 -0.3715  1.1989  0.5377
   35POPC     P 4656   1.649   1.527   9.283 -0.3451 -0.2055  0.1595
   35POPC   O13 4657   1.676   1.392   9.332 -0.2843  0.1770 -0.0304
   35POPC   O14 4658   1.702   1.645   9.352 -0.4152 -0.2113  0.2874
   35POPC   O12 4659   1.496   1.542   9.269  0.3378 -0.0076 -0.1257
   35POPC   O11 4660   1.703   1.541   9.132  0.0234  0.1272 -0.0518
   35POPC    C1 4661   1.702   1.422   9.050  0.1791 -0.2398  0.4039
   35POPC    HA 4662   1.704   1.471   8.950  1.8983  4.1081  2.3046
   35POPC    HB 4663   1.617   1.351   9.060  0.8904 -1.1576  0.0945
   35POPC    C2 4664   1.836   1.352   9.074 -0.5845 -0.0460 -0.6962
   35POPC    HS 4665   1.846   1.326   9.182  1.7494  2.2923 -0.2435
   35POPC   O21 4666   1.946   1.434   9.028  0.1366  0.0688  0.7533
   35POPC   C21 4667   2.064   1.391   9.071 -0.4305  0.2393  0.0080
   35POPC   O22 4668   2.073   1.298   9.153 -0.2797 -0.4966  0.1118
   35POPC   C22 4669   2.176   1.465   9.005  0.2288 -0.5232 -0.0877
   35POPC   H2R 4670   2.192   1.557   9.066  0.0668 -1.1059  0.8593
   35POPC   H2S 4671   2.145   1.488   8.901 -2.1479  1.0357  0.8790
   35POPC    C3 4672   1.837   1.218   8.986  0.2647 -0.5016  0.0657
   35POPC    HX 4673   1.769   1.141   9.028  1.5894 -1.9323 -0.3169
   35POPC    HY 4674   1.938   1.173   9.000 -0.2565 -1.4906  0.7865
   35POPC   O31 4675   1.803   1.241   8.849 -0.2547  0.0891 -0.6156
   35POPC   C31 4676   1.910   1.249   8.770 -1.1941 -0.1822 -0.6238
   35POPC   O32 4677   2.025   1.260   8.805  0.5346  0.9844  0.0481
   35POPC   C32 4678   1.865   1.264   8.619  0.0854  0.1765 -0.6757
   35POPC   H2X 4679   1.956   1.291   8.563  1.0745 -1.6886 -0.0539
   35POPC   H2Y 4680   1.812   1.362   8.620 -0.7986 -0.2029  2.6629
   35POPC   C23 4681   2.312   1.389   8.998 -0.2854  0.5546  0.2371
   35POPC   H3R 4682   2.320   1.321   9.085  1.9458  0.1105 -0.2453
   35POPC   H3S 4683   2.395   1.463   9.006  0.8033 -0.6756  0.7673
   35POPC   C24 4684   2.341   1.313   8.871 -0.9332  0.4486 -0.4413
   35POPC   H4R 4685   2.260   1.245   8.839 -1.5531  0.7547  0.4385
   35POPC   H4S 4686   2.421   1.236   8.876 -1.5227 -0.4058 -2.8226
   35POPC   C25 4687   2.361   1.395   8.745  0.2309  0.2859 -0.3671
   35POPC   H5R 4688   2.438   1.352   8.677 -0.0766 -0.9934  0.0662
   35POPC   H5S 4689   2.384   1.496   8.785 -2.6794  0.0449  2.3307
   35POPC   C26 4690   2.246   1.426   8.654 -0.7585 -0.1572 -0.2955
   35POPC   H6R 4691   2.147   1.459   8.694 -0.6923 -0.0007 -0.2599
   35POPC   H6S 4692   2.223   1.331   8.601  1.7771 -0.8758 -0.2268
   35POPC   C27 4693   2.285   1.548   8.569 -0.4665  0.1759  0.5030
   35POPC   H7R 4694   2.349   1.520   8.483 -0.4269 -0.3214  0.6940
   35POPC   H7S 4695   2.346   1.625   8.622 -0.0672 -0.2677  0.6984
   35POPC   C28 4696   2.168   1.618   8.502  1.0227 -0.7237 -0.4362
   35POPC   H8R 4697   2.095   1.540   8.470 -0.2014 -0.0676  0.6844
   35POPC   H8S 4698   2.194   1.673   8.409 -2.2386  1.7985 -0.0141
   35POPC   C29 4699   2.107   1.734   8.582 -0.2044 -0.1943 -0.5375
   35POPC   H91 4700   2.162   1.829   8.576  0.8081 -0.7623 -0.5556
   35POPC  C210 4701   1.981   1.740   8.642 -0.5924  0.1658 -0.2706
   35POPC  H101 4702   1.941   1.833   8.686 -2.1284 -0.0889 -1.0537
   35POPC  C211 4703   1.875   1.634   8.644 -0.3890  0.3347 -0.1030
   35POPC  H11R 4704   1.834   1.622   8.747 -0.4945  0.5710 -0.1155
   35POPC  H11S 4705   1.923   1.547   8.595 -1.1510  0.4250 -1.0338
   35POPC  C212 4706   1.767   1.687   8.549  0.4192  0.3472 -0.0080
   35POPC  H12R 4707   1.723   1.600   8.494 -0.4373 -0.3635  1.7337
   35POPC  H12S 4708   1.805   1.761   8.476  1.9650 -1.5580 -1.2462
   35POPC  C213 4709   1.635   1.729   8.626 -0.1162 -0.5925 -0.2938
   35POPC  H13R 4710   1.607   1.667   8.714 -2.1897  1.2957  0.4854
   35POPC  H13S 4711   1.560   1.732   8.544 -0.6925  3.4371  0.1972
   35POPC  C214 4712   1.657   1.869   8.685  0.2815 -0.0940 -0.5188
   35POPC  H14R 4713   1.707   1.937   8.613 -1.1559  0.6530 -0.8406
   35POPC  H14S 4714   1.725   1.872   8.774 -0.0279  4.8048 -0.1622
   35POPC  C215 4715   1.524   1.936   8.744  0.4572  0.3651 -0.6927
   35POPC  H15R 4716   1.448   1.931   8.663 -0.7610 -0.7592  0.4666
   35POPC  H15S 4717   1.550   2.039   8.776 -0.8188  1.4483 -2.8735
   35POPC  C216 4718   1.471   1.853   8.858  0.2066  0.1543 -0.3888
   35POPC  H16R 4719   1.552   1.829   8.930  0.9184 -1.0551 -1.5387
   35POPC  H16S 4720   1.435   1.754   8.823 -0.2963 -0.2023  1.0539
   35POPC  C217 4721   1.346   1.922   8.923 -0.8448  0.6251 -0.3432
   35POPC  H17R 4722   1.279   1.840   8.957 -0.9800  1.0162  0.3694
   35POPC  H17S 4723   1.285   1.988   8.858 -3.3344  2.3842  3.4131
   35POPC  C218 4724   1.390   2.008   9.040 -0.0258 -0.2447 -0.0220
   35POPC  H18R 4725   1.423   2.111   9.017 -2.5284  0.6548  0.1177
   35POPC  H18S 4726   1.470   1.955   9.097  0.5479  0.3576 -0.2548
   35POPC  H18T 4727   1.294   2.026   9.093 -0.5781 -4.4114  0.7239
   35POPC   C33 4728   1.777   1.154   8.552 -0.3116  0.3636 -0.0927
   35POPC   H3X 4729   1.672   1.160   8.590 -0.3325 -0.7702  0.0537
   35POPC   H3Y 4730   1.810   1.054   8.587 -3.2568 -1.2274 -1.4424
   35POPC   C34 4731   1.789   1.149   8.403 -0.0753  0.4812  0.3018
   35POPC   H4X 4732   1.892   1.162   8.365 -0.3386  0.2669 -0.5219
   35POPC   H4Y 4733   1.731   1.230   8.353 -1.1887  0.4283  1.4539
   35POPC   C35 4734   1.727   1.013   8.347 -0.4456 -0.3879 -0.3117
   35POPC   H5X 4735   1.622   1.030   8.315 -0.2328  2.0820  0.1524
   35POPC   H5Y 4736   1.732   0.935   8.426  0.0390  1.8968  2.0183
   35POPC   C36 4737   1.799   0.970   8.214  0.2173 -0.9429  0.3471
   35POPC   H6X 4738   1.759   0.867   8.200 -2.1113 -0.0587  0.0515
   35POPC   H6Y 4739   1.908   0.974   8.236  0.3854 -1.7299 -0.3160
   35POPC   C37 4740   1.766   1.053   8.087 -0.8065  0.3356 -0.8734
   35POPC   H7X 4741   1.657   1.057   8.065 -0.9534 -1.0897 -0.4999
   35POPC   H7Y 4742   1.795   0.986   8.004 -0.1412  1.1792 -1.3257
   35POPC   C38 4743   1.841   1.178   8.072  0.1166 -0.8899 -0.2813
   35POPC   H8X 4744   1.952   1.165   8.073  0.2496  0.0689  1.3167
   35POPC   H8Y 4745   1.819   1.246   8.157 -0.1853 -1.3101 -0.0219
   35POPC   C39 4746   1.793   1.250   7.947  0.2934 -0.5322 -0.0961
   35POPC   H9X 4747   1.735   1.173   7.892 -2.5230  0.5636  1.1287
   35POPC   H9Y 4748   1.874   1.290   7.881  0.8904  0.2747  1.0886
   35POPC  C310 4749   1.698   1.361   7.985 -0.2491  0.2676  0.9289
   35POPC  H10X 4750   1.612   1.324   8.045  0.5460  0.6702  2.3583
   35POPC  H10Y 4751   1.634   1.403   7.905 -1.7002  0.6541  2.2505
   35POPC  C311 4752   1.760   1.486   8.044 -0.1109  0.6181  0.7605
   35POPC  H11X 4753   1.772   1.566   7.967  1.5000  0.1282  0.4626
   35POPC  H11Y 4754   1.860   1.451   8.076 -1.0904 -0.7664  2.5021
   35POPC  C312 4755   1.685   1.537   8.162 -0.2626  0.3284 -0.2861
   35POPC  H12X 4756   1.696   1.473   8.252 -2.6598  0.6356  0.2908
   35POPC  H12Y 4757   1.576   1.518   8.153 -0.0336 -3.3800  2.4095
   35POPC  C313 4758   1.728   1.677   8.201  0.3872 -0.5548  0.0758
   35POPC  H13X 4759   1.835   1.696   8.225  0.5858 -0.1924 -1.0405
   35POPC  H13Y 4760   1.668   1.681   8.294 -1.6184 -1.5078 -1.1303
   35POPC  C314 4761   1.676   1.796   8.118 -0.5620  0.6677 -0.0213
   35POPC  H14X 4762   1.602   1.762   8.041 -2.7786  1.2557  1.7346
   35POPC  H14Y 4763   1.762   1.845   8.068 -0.4872 -0.1805 -0.7616
   35POPC  C315 4764   1.616   1.903   8.205 -0.1476 -0.3215 -0.2128
   35POPC  H15X 4765   1.703   1.945   8.260 -0.2504  1.3291 -1.2684
   35POPC  H15Y 4766   1.544   1.848   8.270  0.8941  2.2050  3.4004
   35POPC  C316 4767   1.542   2.015   8.141 -0.2426 -1.1553  0.5082
   35POPC  H16X 4768   1.546   2.099   8.213  0.8019 -0.7401 -0.0144
   35POPC  H16Y 4769   1.437   1.990   8.114 -0.4138 -1.3866  1.3536
   35POPC  H16Z 4770   1.592   2.047   8.047 -0.0957 -2.6143  0.0583
   36POPC     N 4771   1.036   6.522   9.629 -0.2502  0.5179 -0.6815
   36POPC   C12 4772   0.999   6.571   9.494  0.4093 -0.7524  0.4613
   36POPC  H12A 4773   0.942   6.662   9.497  1.6777  0.2436 -2.4013
   36POPC  H12B 4774   0.931   6.498   9.453  0.4674 -0.5188 -0.0602
   36POPC   C13 4775   1.113   6.390   9.616  0.5766  0.7409  0.2352
   36POPC  H13A 4776   1.114   6.345   9.714 -1.5500  0.3772  0.1461
   36POPC  H13B 4777   1.079   6.320   9.540  1.6853  1.4738 -0.9745
   36POPC  H13C 4778   1.216   6.414   9.594  0.1405  1.4918 -1.1177
   36POPC   C14 4779   1.122   6.611   9.713 -0.0338  0.0724 -0.1660
   36POPC  H14A 4780   1.156   6.549   9.794 -1.5096  1.1166  1.3217
   36POPC  H14B 4781   1.214   6.641   9.666 -1.1410  0.8058 -2.0010
   36POPC  H14C 4782   1.063   6.693   9.752 -1.3906 -0.7548 -0.3973
   36POPC   C15 4783   0.915   6.479   9.708 -0.0850  0.7908  0.2008
   36POPC  H15A 4784   0.947   6.435   9.801 -0.0996  0.9500  0.2805
   36POPC  H15B 4785   0.867   6.394   9.661 -0.1198  1.2747 -0.6648
   36POPC  H15C 4786   0.844   6.561   9.717  0.3693  1.2632 -0.4216
   36POPC   C11 4787   1.113   6.604   9.388  0.2748  0.7267 -0.0112
   36POPC  H11A 4788   1.066   6.631   9.291  2.3995 -0.1397 -1.3541
   36POPC  H11B 4789   1.165   6.512   9.353 -1.7741 -0.8098  0.7738
   36POPC     P 4790   1.170   6.848   9.452  0.1138 -0.3595  0.1689
   36POPC   O13 4791   1.285   6.913   9.524  0.2010 -0.4110 -0.0100
   36POPC   O14 4792   1.039   6.871   9.523 -0.1300  0.4494 -0.0910
   36POPC   O12 4793   1.206   6.696   9.437 -0.9900  0.3320  0.0450
   36POPC   O11 4794   1.160   6.900   9.304  0.4436 -0.5442 -0.1183
   36POPC    C1 4795   1.275   6.898   9.219  0.2376 -0.0490  0.3914
   36POPC    HA 4796   1.252   6.830   9.133  3.1116  0.4621 -0.9349
   36POPC    HB 4797   1.368   6.859   9.266  0.7212 -0.7124 -1.0239
   36POPC    C2 4798   1.307   7.043   9.163  0.3402 -0.3629  0.0951
   36POPC    HS 4799   1.302   7.114   9.249  2.5204  0.2969 -0.2781
   36POPC   O21 4800   1.210   7.074   9.065  0.0517 -0.6523  0.1856
   36POPC   C21 4801   1.210   7.206   9.027  0.5522 -0.0810  0.3267
   36POPC   O22 4802   1.279   7.289   9.078  0.2049 -0.4008 -0.1118
   36POPC   C22 4803   1.126   7.215   8.898  0.2018  0.4413 -0.2681
   36POPC   H2R 4804   1.022   7.240   8.929  1.8320  2.7195  4.1325
   36POPC   H2S 4805   1.125   7.113   8.852  2.0497  1.1926 -2.1119
   36POPC    C3 4806   1.453   7.054   9.100  0.1774  0.4015 -0.0674
   36POPC    HX 4807   1.531   7.041   9.178 -0.7955  1.9700  1.2344
   36POPC    HY 4808   1.467   7.156   9.059 -1.8494  1.6284  2.0366
   36POPC   O31 4809   1.463   6.952   8.996 -0.4194 -0.4633  0.2494
   36POPC   C31 4810   1.583   6.944   8.947  0.2030  0.0483  0.5065
   36POPC   O32 4811   1.682   7.000   8.990 -0.4749 -0.0325 -0.1459
   36POPC   C32 4812   1.576   6.868   8.817 -0.1822  0.2922  0.4691
   36POPC   H2X 4813   1.555   6.762   8.845  0.4778  0.1653  0.4818
   36POPC   H2Y 4814   1.682   6.861   8.788  0.4998  1.3631  2.4952
   36POPC   C23 4815   1.185   7.312   8.794 -0.3844  0.3034 -0.3523
   36POPC   H3R 4816   1.210   7.404   8.850  1.6444 -0.3675 -0.1044
   36POPC   H3S 4817   1.112   7.325   8.711 -0.9617 -0.7406 -0.0254
   36POPC   C24 4818   1.314   7.261   8.732 -0.6426  0.4631  0.2280
   36POPC   H4R 4819   1.324   7.150   8.734 -0.7499  0.4424 -0.1937
   36POPC   H4S 4820   1.401   7.307   8.783 -0.3124  0.0189  0.0760
   36POPC   C25 4821   1.325   7.303   8.586 -0.4037 -0.3385 -1.3928
   36POPC   H5R 4822   1.255   7.247   8.521 -0.0748  0.5903 -2.5891
   36POPC   H5S 4823   1.425   7.269   8.553  1.8077  1.3854  2.6784
   36POPC   C26 4824   1.328   7.459   8.573 -0.5861 -0.8587  0.1240
   36POPC   H6R 4825   1.432   7.492   8.593 -0.4298 -2.0095  1.2969
   36POPC   H6S 4826   1.250   7.503   8.638  0.3964  0.1805  0.6263
   36POPC   C27 4827   1.299   7.507   8.432 -0.3648  0.6589 -0.5025
   36POPC   H7R 4828   1.199   7.465   8.407 -1.2638  1.7026  1.1795
   36POPC   H7S 4829   1.372   7.474   8.355 -0.2321  0.8739 -0.4688
   36POPC   C28 4830   1.282   7.662   8.418 -0.0938 -0.9937  0.4700
   36POPC   H8R 4831   1.378   7.717   8.431  0.3471 -0.9666 -2.3532
   36POPC   H8S 4832   1.210   7.703   8.492  0.4965  0.8408  0.0931
   36POPC   C29 4833   1.210   7.690   8.289 -0.0721 -0.7835  0.0416
   36POPC   H91 4834   1.109   7.646   8.287 -1.7415  2.7299 -0.2661
   36POPC  C210 4835   1.251   7.769   8.188 -0.7589  0.3806  1.0329
   36POPC  H101 4836   1.195   7.770   8.093  1.6800 -0.8289 -0.5447
   36POPC  C211 4837   1.388   7.824   8.171  0.6834  0.4961 -0.2570
   36POPC  H11R 4838   1.411   7.810   8.063  1.9126 -0.3718  0.0953
   36POPC  H11S 4839   1.462   7.754   8.217  1.9100  0.7919 -1.6752
   36POPC  C212 4840   1.418   7.969   8.220 -0.0447 -0.6001 -1.0221
   36POPC  H12R 4841   1.527   7.990   8.213 -0.0505 -0.2657 -0.1920
   36POPC  H12S 4842   1.401   7.972   8.330  2.6976 -1.9351 -0.4559
   36POPC  C213 4843   1.352   8.085   8.140 -0.1255 -0.8596 -0.2460
   36POPC  H13R 4844   1.356   8.182   8.194 -2.5579 -0.9644  0.2129
   36POPC  H13S 4845   1.241   8.083   8.146 -0.1311  1.3857  1.6165
   36POPC  C214 4846   1.410   8.127   8.004 -0.6982 -0.3163  0.9341
   36POPC  H14R 4847   1.395   8.046   7.929  0.6996  0.0835  0.1969
   36POPC  H14S 4848   1.517   8.129   8.032 -0.0271  5.7159 -0.7001
   36POPC  C215 4849   1.368   8.260   7.948  0.3488  1.1158 -0.1653
   36POPC  H15R 4850   1.388   8.343   8.020 -4.0190  2.5196 -0.2819
   36POPC  H15S 4851   1.257   8.268   7.948  0.2906  0.5193  0.6706
   36POPC  C216 4852   1.430   8.277   7.806 -0.3573 -0.1506 -0.4430
   36POPC  H16R 4853   1.395   8.192   7.742 -3.7763  0.7240  0.0755
   36POPC  H16S 4854   1.541   8.277   7.812 -0.3020 -2.4112 -0.5740
   36POPC  C217 4855   1.384   8.405   7.740 -0.1063 -0.5746 -0.3465
   36POPC  H17R 4856   1.431   8.485   7.801 -1.3960 -0.8710  1.0984
   36POPC  H17S 4857   1.277   8.430   7.757  0.8828  2.2326  2.6592
   36POPC  C218 4858   1.427   8.425   7.598 -0.7285  0.1077 -0.1335
   36POPC  H18R 4859   1.535   8.438   7.580 -0.5403  1.0050  1.4347
   36POPC  H18S 4860   1.383   8.514   7.549 -2.4861 -1.5532 -1.7483
   36POPC  H18T 4861   1.391   8.342   7.533  1.4360  1.2453 -2.9771
   36POPC   C33 4862   1.473   6.919   8.708 -0.5278  0.1676  0.2514
   36POPC   H3X 4863   1.488   7.027   8.686  1.1509 -0.3349 -1.3059
   36POPC   H3Y 4864   1.371   6.914   8.752 -0.7658  1.9465 -0.0502
   36POPC   C34 4865   1.480   6.831   8.580  0.4419 -0.1363  0.2032
   36POPC   H4X 4866   1.462   6.721   8.589  0.6080 -0.2794 -1.0825
   36POPC   H4Y 4867   1.586   6.848   8.553  1.3854 -1.0267  2.9729
   36POPC   C35 4868   1.399   6.887   8.459 -0.1725  0.1479  0.2505
   36POPC   H5X 4869   1.433   6.992   8.446  2.2041 -0.6282 -0.3421
   36POPC   H5Y 4870   1.289   6.893   8.473 -0.5672  0.3900 -2.3836
   36POPC   C36 4871   1.428   6.817   8.326 -0.1045 -0.3171 -0.5670
   36POPC   H6X 4872   1.383   6.715   8.330  0.7915 -0.6915  0.2884
   36POPC   H6Y 4873   1.538   6.814   8.311  0.2867  1.0585  1.5334
   36POPC   C37 4874   1.358   6.895   8.218 -0.0640 -0.0802  0.4973
   36POPC   H7X 4875   1.382   7.003   8.234  0.1710 -0.0104 -0.3259
   36POPC   H7Y 4876   1.248   6.892   8.225 -0.4201  3.7067 -1.1541
   36POPC   C38 4877   1.394   6.865   8.068  0.5885  0.9478  0.0465
   36POPC   H8X 4878   1.385   6.756   8.049 -0.3300  1.0634 -0.2158
   36POPC   H8Y 4879   1.500   6.892   8.051  0.4454  0.7104 -1.3003
   36POPC   C39 4880   1.311   6.944   7.960  0.2572  0.3863  0.4770
   36POPC   H9X 4881   1.330   6.907   7.857 -1.6619  0.5730  0.0068
   36POPC   H9Y 4882   1.323   7.054   7.958 -2.9977  0.8444 -0.3488
   36POPC  C310 4883   1.157   6.927   7.975 -0.1333 -0.0197  0.0816
   36POPC  H10X 4884   1.119   6.944   8.078 -1.9349 -0.9747 -0.3892
   36POPC  H10Y 4885   1.132   6.819   7.962 -0.0849  0.0592 -0.7495
   36POPC  C311 4886   1.070   7.005   7.874 -0.1305 -0.5985 -0.3572
   36POPC  H11X 4887   1.107   7.109   7.875  0.6175 -0.8663  0.4877
   36POPC  H11Y 4888   0.965   7.004   7.911 -0.2660  1.6550 -0.5318
   36POPC  C312 4889   1.069   6.947   7.730 -0.8025  0.0885  0.0866
   36POPC  H12X 4890   1.009   6.853   7.724 -2.2594  1.0377 -0.8562
   36POPC  H12Y 4891   1.171   6.916   7.700 -0.2091  2.2141 -0.2146
   36POPC  C313 4892   1.003   7.042   7.629 -0.4581 -0.2549 -0.2904
   36POPC  H13X 4893   0.997   6.986   7.533  0.5298  0.2677 -0.6722
   36POPC  H13Y 4894   1.070   7.123   7.594  2.1398 -1.9514  0.4126
   36POPC  C314 4895   0.860   7.104   7.651  0.2063 -0.2962  0.2492
   36POPC  H14X 4896   0.857   7.130   7.759 -0.3945  0.1657  0.1301
   36POPC  H14Y 4897   0.790   7.018   7.640 -1.0266  0.8541 -1.5043
   36POPC  C315 4898   0.808   7.215   7.559  0.7633 -0.5131 -0.7462
   36POPC  H15X 4899   0.790   7.168   7.460 -1.1741 -1.8554  0.1797
   36POPC  H15Y 4900   0.879   7.300   7.551 -1.5961  1.7420  0.8340
   36POPC  C316 4901   0.671   7.269   7.604  0.7110  1.1999  0.0047
   36POPC  H16X 4902   0.630   7.352   7.544 -0.9424  0.6577  0.3229
   36POPC  H16Y 4903   0.668   7.306   7.709 -0.4903 -0.7701  0.7150
   36POPC  H16Z 4904   0.599   7.185   7.599 -0.0663  1.8408  0.3140
   37POPC     N 4905   3.119   3.365   5.378 -0.2446  0.3464 -0.2279
   37POPC   C12 4906   3.006   3.290   5.439  0.2391  0.8223 -0.0220
   37POPC  H12A 4907   2.969   3.215   5.370  2.8337 -2.7237  2.0787
   37POPC  H12B 4908   2.928   3.361   5.458 -0.8655 -0.4161  0.2244
   37POPC   C13 4909   3.225   3.270   5.346  0.4792  0.4549  0.1011
   37POPC  H13A 4910   3.261   3.216   5.433 -1.2498  2.0223  1.8794
   37POPC  H13B 4911   3.190   3.189   5.284  0.8841 -0.0629  0.5361
   37POPC  H13C 4912   3.301   3.324   5.292 -0.2989 -0.2190 -1.7833
   37POPC   C14 4913   3.067   3.415   5.243  0.4213 -0.9443 -0.2972
   37POPC  H14A 4914   3.123   3.502   5.212 -2.2038  1.5902  1.6379
   37POPC  H14B 4915   3.084   3.339   5.168  2.1136 -0.9043 -0.0012
   37POPC  H14C 4916   2.971   3.461   5.256  2.2997  3.1237  0.7851
   37POPC   C15 4917   3.160   3.478   5.462  0.1541  0.2881  0.4041
   37POPC  H15A 4918   3.245   3.535   5.427  0.7247 -0.1381  1.0584
   37POPC  H15B 4919   3.193   3.446   5.560  1.0423  0.2937  0.1217
   37POPC  H15C 4920   3.068   3.534   5.471  0.2102  0.3901  0.3418
   37POPC   C11 4921   3.032   3.209   5.577 -0.0518 -0.2569  0.7598
   37POPC  H11A 4922   3.057   3.292   5.647 -2.1618  1.2417 -0.1424
   37POPC  H11B 4923   3.116   3.137   5.573 -1.2708 -1.6906 -0.6843
   37POPC     P 4924   2.889   2.994   5.574  0.4279  0.1142  0.4667
   37POPC   O13 4925   2.992   2.937   5.490 -0.1185  0.5975 -0.3038
   37POPC   O14 4926   2.750   2.990   5.529 -0.9364  0.5734 -0.0868
   37POPC   O12 4927   2.917   3.139   5.619 -0.3598  0.0977 -0.3458
   37POPC   O11 4928   2.891   2.914   5.717 -0.3502  0.1618  0.0821
   37POPC    C1 4929   2.813   2.965   5.830  0.7906 -0.2855  0.1323
   37POPC    HA 4930   2.710   2.923   5.825  0.8318 -0.2814 -0.8643
   37POPC    HB 4931   2.793   3.074   5.829  1.1882 -0.1905  1.0074
   37POPC    C2 4932   2.882   2.929   5.962  0.4919 -0.1133 -0.3966
   37POPC    HS 4933   2.987   2.962   5.976  0.6859 -1.1620  0.7697
   37POPC   O21 4934   2.878   2.783   5.961 -0.5230 -0.0347  0.2801
   37POPC   C21 4935   2.993   2.721   5.996 -0.5168 -0.9443  0.2487
   37POPC   O22 4936   3.104   2.774   5.994 -0.2013  0.3331  0.3820
   37POPC   C22 4937   2.964   2.575   6.023  0.4221 -0.8224 -0.0783
   37POPC   H2R 4938   2.983   2.524   5.927  0.2644  1.1729 -1.2380
   37POPC   H2S 4939   2.855   2.556   6.031  0.3762 -1.2032 -1.3748
   37POPC    C3 4940   2.802   2.978   6.084 -0.1418 -0.0693 -0.1098
   37POPC    HX 4941   2.694   2.953   6.078 -0.1153 -0.4292  0.7485
   37POPC    HY 4942   2.824   3.087   6.083 -0.2257 -0.0303  0.8732
   37POPC   O31 4943   2.844   2.928   6.214 -0.0092 -0.4060  0.1347
   37POPC   C31 4944   2.784   2.986   6.319  0.4983  0.4420  0.5737
   37POPC   O32 4945   2.682   3.053   6.315  0.4725  0.4759 -0.6751
   37POPC   C32 4946   2.859   2.953   6.451  0.5225 -0.4938  0.4841
   37POPC   H2X 4947   2.865   3.050   6.504  2.5471 -1.0308  1.3277
   37POPC   H2Y 4948   2.961   2.917   6.424  1.5848  1.3886  1.8029
   37POPC   C23 4949   3.036   2.531   6.146 -0.1784 -0.1788 -0.3755
   37POPC   H3R 4950   3.142   2.561   6.143 -0.5612  1.4047  0.9574
   37POPC   H3S 4951   3.028   2.420   6.138 -0.9097 -0.1169 -0.6737
   37POPC   C24 4952   2.956   2.580   6.268 -0.7887  0.0812  0.1194
   37POPC   H4R 4953   2.850   2.549   6.262 -1.0143 -0.0065  2.9671
   37POPC   H4S 4954   2.952   2.688   6.292 -0.5382 -0.3392  2.2485
   37POPC   C25 4955   3.009   2.531   6.401 -0.2538 -0.6671 -0.7927
   37POPC   H5R 4956   2.957   2.577   6.488 -0.4723 -0.1338 -1.2000
   37POPC   H5S 4957   3.104   2.585   6.416 -1.5746  2.1201 -1.7476
   37POPC   C26 4958   3.019   2.380   6.416  0.3076 -0.5981 -0.1860
   37POPC   H6R 4959   3.109   2.340   6.365  0.9194 -0.2643  0.6162
   37POPC   H6S 4960   2.935   2.325   6.368  0.0176  1.2523 -1.9189
   37POPC   C27 4961   3.044   2.330   6.554  0.4359 -0.3686  0.5287
   37POPC   H7R 4962   3.117   2.394   6.608  1.9710 -0.0479 -1.7695
   37POPC   H7S 4963   3.089   2.229   6.547  0.8816 -0.2997  2.0514
   37POPC   C28 4964   2.912   2.313   6.633 -0.2037  0.3029 -0.0411
   37POPC   H8R 4965   2.835   2.279   6.560  0.9615 -0.1092 -1.1221
   37POPC   H8S 4966   2.889   2.420   6.654 -0.6115 -0.0248  1.2378
   37POPC   C29 4967   2.916   2.233   6.754  0.1885  0.3362  0.0407
   37POPC   H91 4968   2.936   2.282   6.851 -2.0498  0.6194  0.4188
   37POPC  C210 4969   2.875   2.103   6.760 -0.3124 -0.8934  0.2255
   37POPC  H101 4970   2.862   2.047   6.854  3.0834 -2.8343 -0.2969
   37POPC  C211 4971   2.835   2.022   6.646 -0.2347 -0.4530  0.3472
   37POPC  H11R 4972   2.934   1.981   6.617  0.8898  1.0862  1.8370
   37POPC  H11S 4973   2.792   2.077   6.559  1.3148  0.6007  0.2252
   37POPC  C212 4974   2.729   1.929   6.698 -0.3018 -0.0089  0.0981
   37POPC  H12R 4975   2.637   1.980   6.734 -0.4150 -0.4154  0.3926
   37POPC  H12S 4976   2.781   1.878   6.782 -1.0571 -0.0428  0.5532
   37POPC  C213 4977   2.680   1.817   6.610 -0.3120 -0.7918  0.1231
   37POPC  H13R 4978   2.769   1.772   6.562  0.2205  0.1355  0.2323
   37POPC  H13S 4979   2.616   1.841   6.521  1.9986  1.0671 -1.1483
   37POPC  C214 4980   2.615   1.713   6.693 -0.5713  0.1104  0.4560
   37POPC  H14R 4981   2.551   1.756   6.772 -0.3937 -0.7124  1.0649
   37POPC  H14S 4982   2.703   1.668   6.744  1.2630  1.4524 -1.3657
   37POPC  C215 4983   2.531   1.605   6.618  0.4684  0.1727  0.0841
   37POPC  H15R 4984   2.587   1.569   6.529  0.3122  0.8915 -0.3125
   37POPC  H15S 4985   2.435   1.644   6.578 -0.5258 -2.8946 -0.7798
   37POPC  C216 4986   2.508   1.486   6.708 -0.4459 -0.1444  1.0781
   37POPC  H16R 4987   2.594   1.449   6.767 -0.6040 -1.4216  0.5420
   37POPC  H16S 4988   2.493   1.403   6.635  2.1974  0.3643 -0.1542
   37POPC  C217 4989   2.398   1.506   6.803 -0.1641 -0.3303  0.1574
   37POPC  H17R 4990   2.318   1.558   6.746  1.2370  2.2214  0.3491
   37POPC  H17S 4991   2.427   1.572   6.888 -0.6812 -1.1921  1.0312
   37POPC  C218 4992   2.339   1.380   6.848  0.0448 -0.0428  0.0796
   37POPC  H18R 4993   2.241   1.402   6.895  0.1632  0.7808 -0.0358
   37POPC  H18S 4994   2.399   1.337   6.932  1.3769 -1.0776 -1.3558
   37POPC  H18T 4995   2.331   1.309   6.764  1.8190  0.7909 -0.8521
   37POPC   C33 4996   2.790   2.846   6.541 -0.0236 -0.6688 -0.2870
   37POPC   H3X 4997   2.767   2.759   6.476  1.9463 -0.5546 -1.1926
   37POPC   H3Y 4998   2.694   2.886   6.581  0.5605  0.9111 -0.3749
   37POPC   C34 4999   2.862   2.815   6.667  0.1269 -0.9360 -0.5929
   37POPC   H4X 5000   2.877   2.911   6.722  0.8261 -0.7599 -1.0838
   37POPC   H4Y 5001   2.967   2.781   6.653  0.1096 -0.1335 -3.0056
   37POPC   C35 5002   2.786   2.717   6.749 -0.3542  0.0185  0.4706
   37POPC   H5X 5003   2.754   2.643   6.671  0.6395 -1.5951  1.5333
   37POPC   H5Y 5004   2.699   2.761   6.802 -0.7486 -1.5007  1.1414
   37POPC   C36 5005   2.880   2.640   6.840  0.2070 -0.2758  0.6675
   37POPC   H6X 5006   2.972   2.613   6.784  0.5150 -0.5081  1.2738
   37POPC   H6Y 5007   2.833   2.542   6.865 -0.5555 -0.4346 -1.2213
   37POPC   C37 5008   2.914   2.718   6.960 -0.7796  0.3859 -0.3614
   37POPC   H7X 5009   2.822   2.720   7.022 -0.8026 -1.9617 -0.2087
   37POPC   H7Y 5010   2.942   2.823   6.935 -2.2353  0.8510 -0.0972
   37POPC   C38 5011   3.015   2.642   7.039  0.4949 -0.2140  0.1135
   37POPC   H8X 5012   3.112   2.651   6.985  0.3119  0.2176 -0.1520
   37POPC   H8Y 5013   2.992   2.534   7.032  1.0474 -0.2844 -0.6994
   37POPC   C39 5014   3.033   2.691   7.182 -0.3842 -0.4635 -0.9722
   37POPC   H9X 5015   3.079   2.610   7.242 -1.5244  0.1312  0.7637
   37POPC   H9Y 5016   2.933   2.710   7.226 -0.7531  0.4949 -2.1529
   37POPC  C310 5017   3.115   2.815   7.200  0.2827  0.0098  0.8602
   37POPC  H10X 5018   3.123   2.844   7.307  0.7927  0.0062  0.8238
   37POPC  H10Y 5019   3.079   2.897   7.134 -1.8367 -1.0915  0.5460
   37POPC  C311 5020   3.265   2.803   7.162 -0.5939  0.1308  0.5320
   37POPC  H11X 5021   3.316   2.896   7.193 -0.5283  0.0774  0.5850
   37POPC  H11Y 5022   3.274   2.799   7.051 -0.2974  0.8232  0.5252
   37POPC  C312 5023   3.336   2.682   7.221  0.4411  0.7616  0.4768
   37POPC  H12X 5024   3.295   2.586   7.184  0.7101  0.1072  1.8167
   37POPC  H12Y 5025   3.327   2.692   7.331  0.5890 -0.1795  0.5777
   37POPC  C313 5026   3.482   2.678   7.179  0.7385 -0.3498  0.5042
   37POPC  H13X 5027   3.523   2.781   7.189  1.0078  0.1027 -3.5893
   37POPC  H13Y 5028   3.485   2.652   7.071 -0.5666 -1.5626  0.7314
   37POPC  C314 5029   3.574   2.585   7.261  0.7245 -0.2817 -0.1487
   37POPC  H14X 5030   3.574   2.616   7.368  0.6284  1.4337 -0.6207
   37POPC  H14Y 5031   3.681   2.581   7.232  1.0060 -0.4154  0.8753
   37POPC  C315 5032   3.533   2.431   7.263 -0.4146 -0.2762 -0.5392
   37POPC  H15X 5033   3.570   2.394   7.165  1.6552 -0.3199  0.2096
   37POPC  H15Y 5034   3.424   2.410   7.258 -0.6260  0.1267  1.5518
   37POPC  C316 5035   3.604   2.357   7.379  0.5324 -0.6166  0.2475
   37POPC  H16X 5036   3.608   2.247   7.362  1.0753 -0.5824  0.1436
   37POPC  H16Y 5037   3.541   2.363   7.471 -2.0040  0.0051 -1.4514
   37POPC  H16Z 5038   3.704   2.398   7.402  0.8654 -0.9969 -0.4923
   38POPC     N 5039   3.851   6.060   5.542 -0.0003  0.8840  0.3317
   38POPC   C12 5040   3.735   6.153   5.543  0.0099 -1.3934 -0.2435
   38POPC  H12A 5041   3.706   6.191   5.447 -3.3644 -1.1921  0.7189
   38POPC  H12B 5042   3.768   6.233   5.608  2.8676 -1.1070 -1.8979
   38POPC   C13 5043   3.821   5.955   5.441 -0.1862  0.5568 -0.5865
   38POPC  H13A 5044   3.723   5.922   5.471 -0.7902  2.9961  0.3997
   38POPC  H13B 5045   3.824   5.990   5.339  0.7208  0.3786 -0.6329
   38POPC  H13C 5046   3.890   5.872   5.453 -0.2666  0.4667 -0.7392
   38POPC   C14 5047   3.978   6.132   5.500  0.5488 -0.4361 -0.1042
   38POPC  H14A 5048   4.064   6.067   5.493  2.1976  1.6047  0.3090
   38POPC  H14B 5049   3.970   6.183   5.405  0.3950 -1.0128 -0.4027
   38POPC  H14C 5050   4.001   6.199   5.581 -1.3537  0.1606  0.0088
   38POPC   C15 5051   3.866   5.995   5.680 -0.6852 -0.6799  0.0169
   38POPC  H15A 5052   3.899   6.066   5.755  0.0139  0.4153 -1.2833
   38POPC  H15B 5053   3.945   5.922   5.683 -1.4116 -1.4763  0.1195
   38POPC  H15C 5054   3.776   5.943   5.707 -0.7573 -1.9036 -2.4078
   38POPC   C11 5055   3.598   6.096   5.598 -0.0755  0.1010  0.5900
   38POPC  H11A 5056   3.528   6.182   5.584 -1.9804 -1.7437 -2.1707
   38POPC  H11B 5057   3.616   6.082   5.707  1.2023  0.4887  0.4396
   38POPC     P 5058   3.495   5.850   5.591  0.0031  0.4473 -0.4143
   38POPC   O13 5059   3.617   5.785   5.638 -0.3558 -0.2179 -0.2943
   38POPC   O14 5060   3.413   5.765   5.502  0.1990  0.2199  0.0406
   38POPC   O12 5061   3.532   5.986   5.530  0.3167 -0.3632 -0.2319
   38POPC   O11 5062   3.404   5.891   5.721 -0.3481  0.1610  0.5947
   38POPC    C1 5063   3.303   5.992   5.714 -0.4568 -0.6369 -0.1380
   38POPC    HA 5064   3.205   5.953   5.749 -0.9820 -1.0734 -1.9914
   38POPC    HB 5065   3.288   6.041   5.615 -0.7262  1.2262  0.7729
   38POPC    C2 5066   3.324   6.105   5.826  0.6033 -0.9074  0.5547
   38POPC    HS 5067   3.422   6.150   5.801 -0.1208 -0.0090 -0.7930
   38POPC   O21 5068   3.320   6.061   5.963  0.1138  0.0030  1.0346
   38POPC   C21 5069   3.436   6.054   6.021  0.7572 -0.1004 -0.4703
   38POPC   O22 5070   3.542   6.089   5.972  0.1139 -0.3505  0.1382
   38POPC   C22 5071   3.411   6.010   6.162  0.3326  0.4012 -0.0496
   38POPC   H2R 5072   3.344   5.921   6.168 -0.3513  0.7128 -2.3530
   38POPC   H2S 5073   3.358   6.097   6.206  0.2056  0.9219 -1.1949
   38POPC    C3 5074   3.226   6.224   5.815 -0.6520 -0.5859 -0.4860
   38POPC    HX 5075   3.120   6.205   5.839 -0.2019 -1.5062  0.8922
   38POPC    HY 5076   3.222   6.246   5.707 -1.2174 -0.3022 -0.4141
   38POPC   O31 5077   3.287   6.333   5.894 -0.0555  0.5299  0.7488
   38POPC   C31 5078   3.393   6.395   5.849  0.3876 -0.9807 -0.0073
   38POPC   O32 5079   3.450   6.390   5.741  0.1239 -0.3243 -0.0140
   38POPC   C32 5080   3.422   6.514   5.936  0.6886 -0.1393  0.3589
   38POPC   H2X 5081   3.326   6.558   5.970  0.1620 -0.8875 -0.1167
   38POPC   H2Y 5082   3.485   6.587   5.880 -0.3698 -0.7966 -1.7807
   38POPC   C23 5083   3.542   5.991   6.250  0.7913  0.0962  0.1838
   38POPC   H3R 5084   3.598   6.087   6.256 -0.1755  0.7498 -0.9008
   38POPC   H3S 5085   3.602   5.912   6.201 -0.7055 -0.2996 -1.1165
   38POPC   C24 5086   3.531   5.936   6.389 -0.5719 -0.1820 -0.4098
   38POPC   H4R 5087   3.477   5.840   6.377  2.0595 -1.6182 -1.4059
   38POPC   H4S 5088   3.482   6.003   6.463  0.2908  0.7976 -0.7034
   38POPC   C25 5089   3.671   5.907   6.447 -0.7017 -0.4136 -0.3058
   38POPC   H5R 5090   3.663   5.892   6.557  1.5005 -2.4583 -0.3421
   38POPC   H5S 5091   3.742   5.990   6.434 -0.7008 -0.3575  0.0372
   38POPC   C26 5092   3.737   5.784   6.389 -0.7907  0.8664 -1.0153
   38POPC   H6R 5093   3.742   5.782   6.278  1.4738 -0.0204 -0.9541
   38POPC   H6S 5094   3.663   5.707   6.417 -0.5456  0.8319 -0.4377
   38POPC   C27 5095   3.871   5.727   6.453 -0.0557 -0.3028  0.1690
   38POPC   H7R 5096   3.949   5.802   6.427 -0.8293  0.1335 -0.9171
   38POPC   H7S 5097   3.906   5.644   6.389 -2.3923 -2.0294  0.9987
   38POPC   C28 5098   3.876   5.689   6.603 -0.1332 -0.5744 -0.0350
   38POPC   H8R 5099   3.783   5.632   6.628 -1.8993  1.8538 -0.7635
   38POPC   H8S 5100   3.862   5.791   6.644 -0.0999  0.1808 -1.8296
   38POPC   C29 5101   4.002   5.622   6.652  0.4762 -0.0208  0.5340
   38POPC   H91 5102   4.042   5.536   6.596 -1.8690 -0.4557 -0.6105
   38POPC  C210 5103   4.079   5.663   6.755  0.4003  1.1698 -0.2541
   38POPC  H101 5104   4.168   5.607   6.786  0.1331 -0.6300 -2.4307
   38POPC  C211 5105   4.054   5.780   6.842 -0.3969 -0.7406 -0.0785
   38POPC  H11R 5106   3.945   5.797   6.848  0.1440  3.2592  1.3592
   38POPC  H11S 5107   4.114   5.869   6.815  0.8477 -0.7414  2.3882
   38POPC  C212 5108   4.091   5.753   6.990  0.2920  0.4949 -0.0195
   38POPC  H12R 5109   4.191   5.704   6.997  0.9402  1.9903  3.4188
   38POPC  H12S 5110   4.017   5.681   7.031  0.4103 -0.8719 -2.0543
   38POPC  C213 5111   4.090   5.877   7.079 -0.9525  0.4078 -0.5777
   38POPC  H13R 5112   3.990   5.922   7.091 -1.6081 -1.0058 -0.4860
   38POPC  H13S 5113   4.159   5.954   7.038  0.9928 -0.7171  0.4108
   38POPC  C214 5114   4.145   5.858   7.221 -0.2278 -0.2492  0.0817
   38POPC  H14R 5115   4.253   5.832   7.223 -0.1992 -0.1202  0.2221
   38POPC  H14S 5116   4.096   5.770   7.266  2.4685 -1.6866  0.4139
   38POPC  C215 5117   4.132   5.984   7.309  0.1684 -0.7845 -0.5810
   38POPC  H15R 5118   4.026   6.015   7.314  0.2401 -0.5875 -0.1988
   38POPC  H15S 5119   4.184   6.076   7.273  0.0008 -0.1888  0.6148
   38POPC  C216 5120   4.171   5.958   7.454  0.7306 -0.6036 -0.3205
   38POPC  H16R 5121   4.280   5.936   7.456  0.6366 -1.0339  0.4521
   38POPC  H16S 5122   4.109   5.874   7.492 -0.5755  0.3739 -0.2259
   38POPC  C217 5123   4.164   6.084   7.542  0.5833  0.1383  0.1875
   38POPC  H17R 5124   4.057   6.111   7.554 -0.0913 -2.1323 -0.1315
   38POPC  H17S 5125   4.217   6.172   7.501  3.5797 -1.6388 -0.1079
   38POPC  C218 5126   4.197   6.053   7.688  0.9290 -0.0700 -0.0601
   38POPC  H18R 5127   4.186   6.142   7.754 -0.0715 -0.4286  0.2695
   38POPC  H18S 5128   4.303   6.021   7.684  1.1033  0.5898 -0.9704
   38POPC  H18T 5129   4.126   5.974   7.720 -0.1988  0.9238 -0.0450
   38POPC   C33 5130   3.508   6.470   6.056 -0.0221  0.0445  0.0112
   38POPC   H3X 5131   3.573   6.555   6.088  1.4065 -0.8095 -0.5434
   38POPC   H3Y 5132   3.577   6.385   6.036  0.1337 -0.1270  1.2100
   38POPC   C34 5133   3.425   6.428   6.175 -0.2877  0.0168 -0.3024
   38POPC   H4X 5134   3.362   6.343   6.141 -0.3177 -0.0027 -0.1988
   38POPC   H4Y 5135   3.359   6.510   6.210  0.6751 -0.1337  2.1144
   38POPC   C35 5136   3.526   6.388   6.286 -0.5334  1.0225 -0.3978
   38POPC   H5X 5137   3.603   6.466   6.307  0.5325 -0.3571  1.0541
   38POPC   H5Y 5138   3.596   6.310   6.250 -0.3179  0.7349  0.5978
   38POPC   C36 5139   3.461   6.324   6.408  0.6845  0.9158  0.4574
   38POPC   H6X 5140   3.419   6.229   6.370 -1.7405  2.6376 -1.4441
   38POPC   H6Y 5141   3.378   6.395   6.428  1.1143  2.0977 -1.6970
   38POPC   C37 5142   3.547   6.299   6.530  0.3257 -0.2847  0.0551
   38POPC   H7X 5143   3.619   6.381   6.551  0.1076 -0.2306  0.5952
   38POPC   H7Y 5144   3.612   6.211   6.510 -0.9178 -1.7311  2.0369
   38POPC   C38 5145   3.473   6.257   6.653  0.2965 -0.4578 -0.7498
   38POPC   H8X 5146   3.381   6.201   6.625 -0.6874  0.8203 -0.1789
   38POPC   H8Y 5147   3.429   6.340   6.714  0.9464 -0.0426 -0.8370
   38POPC   C39 5148   3.555   6.169   6.752  0.0873  0.4713  0.4912
   38POPC   H9X 5149   3.637   6.113   6.702  1.0692  1.6586  0.7103
   38POPC   H9Y 5150   3.490   6.094   6.801 -1.0516  1.3105  0.3060
   38POPC  C310 5151   3.613   6.250   6.875 -0.0573 -0.1520 -0.2093
   38POPC  H10X 5152   3.530   6.313   6.915 -0.1761  0.0114 -0.6985
   38POPC  H10Y 5153   3.695   6.316   6.839 -1.2196 -0.0338 -2.8678
   38POPC  C311 5154   3.667   6.161   6.980  0.1140 -0.2320  0.5501
   38POPC  H11X 5155   3.751   6.101   6.938  0.6538  1.0002 -0.1755
   38POPC  H11Y 5156   3.587   6.095   7.021 -1.4936  1.1571 -0.2176
   38POPC  C312 5157   3.718   6.236   7.104 -0.1774 -0.4402 -0.6691
   38POPC  H12X 5158   3.641   6.304   7.147  0.6662  0.3082 -0.2957
   38POPC  H12Y 5159   3.804   6.299   7.072 -0.3566 -0.9807 -2.2992
   38POPC  C313 5160   3.758   6.149   7.220 -0.3988 -0.1199  0.3791
   38POPC  H13X 5161   3.826   6.071   7.179  0.1487 -0.6706  2.2110
   38POPC  H13Y 5162   3.667   6.101   7.262  0.4977  1.1859  4.2412
   38POPC  C314 5163   3.824   6.225   7.332  0.1248  0.0626  0.0747
   38POPC  H14X 5164   3.909   6.291   7.305 -0.8100  1.3346  0.1525
   38POPC  H14Y 5165   3.870   6.150   7.399 -1.0868  0.5022  1.4633
   38POPC  C315 5166   3.721   6.293   7.414  0.2302 -0.0368 -0.8942
   38POPC  H15X 5167   3.643   6.218   7.440 -1.9883  2.5495  0.4945
   38POPC  H15Y 5168   3.670   6.374   7.356 -1.1606 -0.4035 -0.2209
   38POPC  C316 5169   3.764   6.360   7.547  0.0402  0.6785 -0.2364
   38POPC  H16X 5170   3.858   6.415   7.525 -0.3011  0.8567 -1.3248
   38POPC  H16Y 5171   3.794   6.282   7.620 -0.0205  1.6868  0.8935
   38POPC  H16Z 5172   3.685   6.422   7.595 -1.2176 -1.2734  0.3362
   39POPC     N 5173   1.650   2.745   5.461 -0.1071 -0.3844  0.6444
   39POPC   C12 5174   1.732   2.811   5.569  0.0777  0.2466  0.3800
   39POPC  H12A 5175   1.693   2.907   5.597  3.3366  0.9444  3.3067
   39POPC  H12B 5176   1.831   2.831   5.529  0.7878  0.6709  2.2489
   39POPC   C13 5177   1.510   2.719   5.503 -0.3666  0.4531  0.0948
   39POPC  H13A 5178   1.427   2.716   5.434 -1.7408  1.3222  1.6419
   39POPC  H13B 5179   1.513   2.622   5.551 -0.5223  1.1985  1.6729
   39POPC  H13C 5180   1.479   2.774   5.591  1.1719  2.3117 -0.4589
   39POPC   C14 5181   1.647   2.834   5.345 -0.0176  0.5233  0.3761
   39POPC  H14A 5182   1.607   2.932   5.366  1.6223  1.7621 -1.8472
   39POPC  H14B 5183   1.748   2.848   5.310 -0.7101  1.9830 -1.1808
   39POPC  H14C 5184   1.591   2.791   5.264  0.4267  1.6814 -0.5808
   39POPC   C15 5185   1.719   2.618   5.411  0.4487  0.3165  0.1830
   39POPC  H15A 5186   1.661   2.568   5.335  1.9557 -0.0500 -0.7744
   39POPC  H15B 5187   1.735   2.552   5.494 -1.3234  1.2790  1.3405
   39POPC  H15C 5188   1.817   2.637   5.370  0.4971  0.4852  0.3755
   39POPC   C11 5189   1.755   2.726   5.696 -0.4496  0.1729 -0.5043
   39POPC  H11A 5190   1.664   2.681   5.739 -1.6902  2.3949 -0.6534
   39POPC  H11B 5191   1.787   2.794   5.778  0.4800 -1.4648  0.5340
   39POPC     P 5192   2.005   2.657   5.681 -0.0861  0.2636  0.3410
   39POPC   O13 5193   2.023   2.767   5.588  0.0334  0.6411 -0.2197
   39POPC   O14 5194   2.079   2.531   5.653 -0.5844 -0.9223 -0.4191
   39POPC   O12 5195   1.851   2.619   5.671  0.1573 -0.8516 -0.1794
   39POPC   O11 5196   2.031   2.688   5.837  0.3607 -0.0664  0.6285
   39POPC    C1 5197   2.052   2.581   5.929  0.3060 -0.2094 -0.2244
   39POPC    HA 5198   2.082   2.616   6.029  0.1697 -0.1881 -0.1899
   39POPC    HB 5199   2.136   2.521   5.888 -1.1553 -0.6712 -2.8109
   39POPC    C2 5200   1.936   2.474   5.941  0.5817 -0.4753 -0.1124
   39POPC    HS 5201   1.918   2.418   5.846  0.4515  0.5639 -0.7130
   39POPC   O21 5202   1.817   2.544   5.985  0.2467  0.4667  0.3050
   39POPC   C21 5203   1.703   2.487   5.961 -0.5911  0.3748  0.3672
   39POPC   O22 5204   1.690   2.364   5.932  0.0902  0.6491 -0.2786
   39POPC   C22 5205   1.588   2.583   5.990  0.3552 -0.4417  0.3108
   39POPC   H2R 5206   1.507   2.549   5.922  1.4297  0.2343 -1.3645
   39POPC   H2S 5207   1.608   2.690   5.966  1.2453 -0.6235  0.2137
   39POPC    C3 5208   1.970   2.363   6.039  0.6647  0.0197  0.1985
   39POPC    HX 5209   2.048   2.311   5.980  0.7384 -0.8790  1.0507
   39POPC    HY 5210   1.880   2.300   6.054 -0.3599  0.8914 -1.9219
   39POPC   O31 5211   1.999   2.426   6.167  1.2700  0.1268  0.2468
   39POPC   C31 5212   2.120   2.412   6.220 -0.3152 -0.3422 -0.3392
   39POPC   O32 5213   2.217   2.358   6.166  0.2993 -0.4290 -0.2239
   39POPC   C32 5214   2.124   2.468   6.365 -0.1793 -0.5601 -0.9628
   39POPC   H2X 5215   2.117   2.380   6.432 -0.4744  0.3839  0.2788
   39POPC   H2Y 5216   2.225   2.515   6.374 -0.3829 -0.1556 -0.7470
   39POPC   C23 5217   1.543   2.583   6.138  0.2313 -0.4423  0.9824
   39POPC   H3R 5218   1.476   2.672   6.149  1.0420  0.4678 -1.0118
   39POPC   H3S 5219   1.636   2.599   6.197 -0.0724 -1.3942  1.7504
   39POPC   C24 5220   1.488   2.447   6.185  0.2694  0.3180  0.6751
   39POPC   H4R 5221   1.562   2.369   6.213 -0.3578 -0.2298  0.8323
   39POPC   H4S 5222   1.431   2.409   6.097 -2.4181 -0.1349  2.4960
   39POPC   C25 5223   1.393   2.446   6.304 -0.5607  0.5449  0.5289
   39POPC   H5R 5224   1.381   2.337   6.323  0.5133  0.1179 -0.9939
   39POPC   H5S 5225   1.291   2.480   6.278 -0.2463  3.4919  2.6449
   39POPC   C26 5226   1.444   2.528   6.428 -0.4345 -0.5696 -0.2752
   39POPC   H6R 5227   1.437   2.636   6.404  1.0828 -0.5076 -0.5464
   39POPC   H6S 5228   1.550   2.518   6.459 -0.4006 -0.2899 -0.2955
   39POPC   C27 5229   1.349   2.499   6.545  0.0690 -0.0654  0.3882
   39POPC   H7R 5230   1.392   2.406   6.589  0.0147 -0.9063 -1.2596
   39POPC   H7S 5231   1.246   2.494   6.503 -0.1152 -0.6908  0.8963
   39POPC   C28 5232   1.348   2.609   6.665 -0.1514  0.2378  0.8122
   39POPC   H8R 5233   1.305   2.697   6.612 -0.5099 -1.7591 -2.4869
   39POPC   H8S 5234   1.453   2.635   6.690  0.9032 -2.2977 -0.5910
   39POPC   C29 5235   1.261   2.554   6.775  0.2719  0.1371  0.2029
   39POPC   H91 5236   1.197   2.470   6.741  1.3470 -1.5650  2.1311
   39POPC  C210 5237   1.260   2.574   6.906  0.4092  0.5253 -0.1689
   39POPC  H101 5238   1.188   2.521   6.970  1.2416  0.7725  1.0149
   39POPC  C211 5239   1.348   2.662   6.983  0.2648 -0.2241  0.2275
   39POPC  H11R 5240   1.282   2.712   7.057 -0.9205 -0.9339 -0.3087
   39POPC  H11S 5241   1.397   2.742   6.923 -0.7333  0.8573  0.8184
   39POPC  C212 5242   1.466   2.608   7.062  0.1781 -0.0082  0.5987
   39POPC  H12R 5243   1.541   2.574   6.988 -2.2123 -0.1756 -1.9323
   39POPC  H12S 5244   1.435   2.513   7.111  1.1912 -1.2128 -1.0321
   39POPC  C213 5245   1.505   2.702   7.173  0.0314  0.1205 -0.4128
   39POPC  H13R 5246   1.418   2.722   7.239 -1.0206 -1.0881 -1.3827
   39POPC  H13S 5247   1.528   2.806   7.140 -0.6283  1.4358  2.8572
   39POPC  C214 5248   1.633   2.657   7.250  0.0141 -0.9819 -0.3442
   39POPC  H14R 5249   1.713   2.669   7.173  0.9678 -0.4309  0.6986
   39POPC  H14S 5250   1.627   2.552   7.284 -0.1965 -0.1527  2.3680
   39POPC  C215 5251   1.670   2.744   7.374  0.1996  0.2039 -0.3809
   39POPC  H15R 5252   1.592   2.717   7.449 -1.2476 -1.3107 -2.3137
   39POPC  H15S 5253   1.662   2.852   7.351 -0.4521  0.2759  0.1506
   39POPC  C216 5254   1.804   2.718   7.443 -0.6138  0.0231  0.8074
   39POPC  H16R 5255   1.893   2.741   7.379 -0.8839  1.4838  0.9147
   39POPC  H16S 5256   1.802   2.610   7.467  2.0121 -0.2030  0.3231
   39POPC  C217 5257   1.807   2.805   7.566 -0.2551  0.5821  0.3547
   39POPC  H17R 5258   1.706   2.805   7.612  0.2267 -1.2961  1.5169
   39POPC  H17S 5259   1.831   2.908   7.532 -0.2138  0.8252  1.1093
   39POPC  C218 5260   1.909   2.765   7.669  0.2739 -0.1414  0.2068
   39POPC  H18R 5261   2.010   2.755   7.623  0.8612 -1.7302  1.7277
   39POPC  H18S 5262   1.878   2.667   7.710  0.9714 -0.1790  0.6641
   39POPC  H18T 5263   1.914   2.848   7.743  0.7248 -2.0123  2.3784
   39POPC   C33 5264   2.013   2.562   6.416  0.4745 -0.3009  0.7464
   39POPC   H3X 5265   2.009   2.556   6.527  3.9603  0.3631  1.0111
   39POPC   H3Y 5266   1.916   2.528   6.374 -0.1545  0.3729  1.6303
   39POPC   C34 5267   2.032   2.708   6.382  0.1054  0.0624 -0.3200
   39POPC   H4X 5268   1.944   2.760   6.426  1.2200  0.4810  1.5336
   39POPC   H4Y 5269   2.018   2.726   6.273  0.4279  0.3401 -0.3173
   39POPC   C35 5270   2.155   2.776   6.447  0.4576  0.1073 -0.0733
   39POPC   H5X 5271   2.242   2.713   6.419  1.6864  1.8478 -0.3901
   39POPC   H5Y 5272   2.143   2.765   6.557  0.3724 -0.8452 -0.1752
   39POPC   C36 5273   2.148   2.922   6.405 -0.9493 -0.7664 -0.1931
   39POPC   H6X 5274   2.060   2.977   6.445 -0.9001  0.2135 -1.3465
   39POPC   H6Y 5275   2.139   2.920   6.294 -0.2411  0.7194 -0.3020
   39POPC   C37 5276   2.276   3.004   6.444 -0.4295  0.0142  0.4312
   39POPC   H7X 5277   2.255   3.107   6.408 -0.2062  0.1067  0.5632
   39POPC   H7Y 5278   2.357   2.958   6.384 -0.1203  0.0421  0.8263
   39POPC   C38 5279   2.305   2.996   6.591 -0.7026 -0.0244 -0.2057
   39POPC   H8X 5280   2.307   2.895   6.638 -0.7672 -0.2033 -0.5826
   39POPC   H8Y 5281   2.223   3.047   6.647 -0.4667 -0.2173  0.3157
   39POPC   C39 5282   2.441   3.061   6.636  0.0770  0.0719  0.1834
   39POPC   H9X 5283   2.458   3.157   6.583 -0.0071  0.5337  0.9807
   39POPC   H9Y 5284   2.519   2.989   6.603 -2.0154 -1.7591 -1.0389
   39POPC  C310 5285   2.452   3.097   6.784 -0.5581 -0.0856 -0.0921
   39POPC  H10X 5286   2.449   3.018   6.862  0.5866  0.6697  0.7565
   39POPC  H10Y 5287   2.361   3.159   6.799  0.0433  0.4333  1.7970
   39POPC  C311 5288   2.578   3.190   6.815 -0.0191 -0.5030 -0.2837
   39POPC  H11X 5289   2.552   3.259   6.898 -0.2520 -0.7950 -0.1098
   39POPC  H11Y 5290   2.602   3.247   6.722  3.1513  0.8516  1.2202
   39POPC  C312 5291   2.703   3.115   6.836 -0.2471  0.1255  0.1856
   39POPC  H12X 5292   2.721   3.032   6.764  0.6755  0.2700  0.2348
   39POPC  H12Y 5293   2.696   3.053   6.928  0.7506  1.7591  1.4136
   39POPC  C313 5294   2.830   3.204   6.857 -0.5405 -0.0135  0.6824
   39POPC  H13X 5295   2.805   3.287   6.927  2.7025 -0.1614  2.1847
   39POPC  H13Y 5296   2.850   3.263   6.765  1.4071 -0.5359  0.7306
   39POPC  C314 5297   2.956   3.133   6.897  0.0091  0.7757 -0.9863
   39POPC  H14X 5298   2.988   3.060   6.819  1.0512  0.8911 -0.6826
   39POPC  H14Y 5299   2.954   3.085   6.997  0.1385  3.7590  0.5406
   39POPC  C315 5300   3.072   3.235   6.890 -0.6277 -0.0102 -0.5862
   39POPC  H15X 5301   3.054   3.327   6.949  0.7563 -0.4718  0.6009
   39POPC  H15Y 5302   3.073   3.259   6.781  0.4895 -0.3714 -0.6780
   39POPC  C316 5303   3.210   3.186   6.942 -0.0403  0.0120 -0.0688
   39POPC  H16X 5304   3.234   3.091   6.889  0.8909 -0.1331  0.5834
   39POPC  H16Y 5305   3.202   3.152   7.048 -4.1822  2.3485  0.6045
   39POPC  H16Z 5306   3.288   3.259   6.913 -0.0562 -0.7213 -2.1030
   40POPC     N 5307   6.697   0.591   5.330 -0.3266 -0.1719 -0.2656
   40POPC   C12 5308   6.702   0.547   5.473  0.1091  0.2840 -0.0829
   40POPC  H12A 5309   6.802   0.551   5.515  0.5614 -1.2158 -0.9486
   40POPC  H12B 5310   6.681   0.442   5.472  0.2682  0.2514 -0.1313
   40POPC   C13 5311   6.678   0.740   5.306 -0.2801 -0.1081  0.2553
   40POPC  H13A 5312   6.590   0.778   5.356  0.2084  0.7202  0.5081
   40POPC  H13B 5313   6.762   0.800   5.339 -0.8534  0.2393  1.1270
   40POPC  H13C 5314   6.678   0.759   5.200  1.4717 -1.0166  0.0449
   40POPC   C14 5315   6.823   0.548   5.259 -0.2492 -0.1575  0.0396
   40POPC  H14A 5316   6.803   0.530   5.155 -1.0680 -0.9162  0.3093
   40POPC  H14B 5317   6.906   0.613   5.280 -0.6254  1.4624 -2.9163
   40POPC  H14C 5318   6.854   0.452   5.297  0.2243 -0.0577 -0.0995
   40POPC   C15 5319   6.577   0.536   5.267  0.4035 -0.0125  0.0131
   40POPC  H15A 5320   6.587   0.429   5.270  0.2636 -0.0671 -1.1717
   40POPC  H15B 5321   6.559   0.567   5.165  0.8782 -1.2594 -0.4667
   40POPC  H15C 5322   6.489   0.566   5.323 -0.5084  1.7643 -2.1803
   40POPC   C11 5323   6.603   0.616   5.579  0.0771  0.2773  0.3057
   40POPC  H11A 5324   6.639   0.721   5.572 -0.3384  0.4121  0.1704
   40POPC  H11B 5325   6.626   0.581   5.682 -0.0679  0.4085  0.3844
   40POPC     P 5326   6.362   0.722   5.539  0.0627  0.7797  0.1899
   40POPC   O13 5327   6.240   0.670   5.472  0.8698 -0.0343 -0.2296
   40POPC   O14 5328   6.419   0.840   5.478 -0.3467 -0.1294  0.4940
   40POPC   O12 5329   6.466   0.603   5.536  0.4854 -0.0581  0.5348
   40POPC   O11 5330   6.347   0.748   5.692 -0.5459 -0.3470 -0.3016
   40POPC    C1 5331   6.300   0.633   5.770 -0.8993 -0.0820  0.1029
   40POPC    HA 5332   6.380   0.558   5.785  0.6458  1.3867 -0.4069
   40POPC    HB 5333   6.211   0.586   5.724 -1.7216  0.5089  1.0431
   40POPC    C2 5334   6.256   0.663   5.914 -0.6815  0.3316 -0.1222
   40POPC    HS 5335   6.162   0.722   5.906 -1.4121 -0.1911  2.9713
   40POPC   O21 5336   6.361   0.728   5.981 -0.1605 -0.1756 -0.0572
   40POPC   C21 5337   6.328   0.832   6.058 -0.6414  0.1765 -0.0210
   40POPC   O22 5338   6.217   0.885   6.065 -0.6366  0.0295 -0.7312
   40POPC   C22 5339   6.456   0.890   6.123 -0.1844 -0.0348 -0.6293
   40POPC   H2R 5340   6.519   0.932   6.041 -0.7976  1.2211 -0.4787
   40POPC   H2S 5341   6.503   0.810   6.183 -0.1353 -1.5546 -2.5870
   40POPC    C3 5342   6.213   0.538   5.992 -0.5180 -0.2436  1.1511
   40POPC    HX 5343   6.113   0.499   5.963 -0.6497  0.2862  0.8850
   40POPC    HY 5344   6.199   0.575   6.096  1.0970  1.5452  0.7927
   40POPC   O31 5345   6.311   0.432   5.989 -0.1229  0.5800 -0.3046
   40POPC   C31 5346   6.299   0.330   5.901  0.3646 -0.4126  0.6709
   40POPC   O32 5347   6.208   0.316   5.820 -0.1661 -0.3695 -0.7094
   40POPC   C32 5348   6.411   0.232   5.911 -0.3793 -0.0729 -0.0319
   40POPC   H2X 5349   6.500   0.299   5.910  0.6232 -1.3347  1.4511
   40POPC   H2Y 5350   6.398   0.166   5.822  0.3298 -1.2685  0.7228
   40POPC   C23 5351   6.410   0.990   6.234 -0.0612  0.3163 -0.5056
   40POPC   H3R 5352   6.320   0.952   6.286  0.1890  0.0153 -0.2888
   40POPC   H3S 5353   6.379   1.090   6.197  1.4360  1.6315  1.5575
   40POPC   C24 5354   6.529   1.010   6.342 -0.0038 -0.4089  0.7480
   40POPC   H4R 5355   6.616   1.051   6.287 -0.1617  1.3434  1.7398
   40POPC   H4S 5356   6.561   0.913   6.386  0.9018  0.1269  1.2911
   40POPC   C25 5357   6.495   1.097   6.463 -1.4138  0.1026  0.2985
   40POPC   H5R 5358   6.393   1.069   6.499 -1.1537  1.0468  1.9186
   40POPC   H5S 5359   6.480   1.201   6.427 -1.6405 -0.2923 -0.7733
   40POPC   C26 5360   6.585   1.089   6.586  0.6014 -0.1790  0.2404
   40POPC   H6R 5361   6.689   1.118   6.559  0.1799  1.6209  0.4446
   40POPC   H6S 5362   6.595   0.983   6.618  0.9534  0.4895  2.5898
   40POPC   C27 5363   6.521   1.161   6.706 -0.5322 -0.0252 -0.5944
   40POPC   H7R 5364   6.414   1.134   6.709 -1.0129  1.8143  1.0541
   40POPC   H7S 5365   6.508   1.268   6.680 -0.7926  0.3047  0.7999
   40POPC   C28 5366   6.585   1.130   6.848  0.0869 -0.0261  0.4885
   40POPC   H8R 5367   6.693   1.146   6.828  0.0292  0.7233  0.7657
   40POPC   H8S 5368   6.563   1.022   6.866 -3.2578  0.5779  0.7325
   40POPC   C29 5369   6.519   1.208   6.959  0.0565 -0.3984 -0.1611
   40POPC   H91 5370   6.424   1.165   6.994 -0.2154  0.2231 -0.1367
   40POPC  C210 5371   6.582   1.307   7.026  0.3350 -0.0777 -0.0163
   40POPC  H101 5372   6.520   1.351   7.106 -0.0760  2.2581 -1.5234
   40POPC  C211 5373   6.722   1.357   7.022 -0.3591  0.9850 -0.1464
   40POPC  H11R 5374   6.703   1.467   7.030 -1.4288  0.8246 -0.3297
   40POPC  H11S 5375   6.776   1.328   6.929 -2.1564 -1.9304 -0.3880
   40POPC  C212 5376   6.809   1.313   7.144  0.5471 -0.6394 -0.0434
   40POPC  H12R 5377   6.900   1.373   7.164 -0.1702  0.2887  0.4855
   40POPC  H12S 5378   6.837   1.206   7.129 -3.1045 -1.5138 -1.9046
   40POPC  C213 5379   6.731   1.315   7.276 -0.5452  0.2757  0.5587
   40POPC  H13R 5380   6.805   1.276   7.350 -0.1928 -1.2924 -0.5655
   40POPC  H13S 5381   6.650   1.240   7.262 -1.2587  1.0365  0.5542
   40POPC  C214 5382   6.698   1.455   7.321 -0.1177  0.2827  0.5186
   40POPC  H14R 5383   6.635   1.511   7.248  0.6328  0.1664 -0.2336
   40POPC  H14S 5384   6.790   1.517   7.323 -1.4066  2.2849  0.2239
   40POPC  C215 5385   6.618   1.457   7.456 -0.2964  0.7216 -0.0757
   40POPC  H15R 5386   6.547   1.373   7.471  0.9776 -0.0516  2.1955
   40POPC  H15S 5387   6.554   1.548   7.460 -1.6538 -0.2437  1.7515
   40POPC  C216 5388   6.706   1.458   7.581 -0.5519  0.2810  0.0613
   40POPC  H16R 5389   6.798   1.515   7.555  0.7760 -1.8172 -0.1059
   40POPC  H16S 5390   6.722   1.350   7.599  1.0230  0.2376 -1.3857
   40POPC  C217 5391   6.643   1.532   7.687 -0.6001  0.0107  0.2928
   40POPC  H17R 5392   6.691   1.509   7.785 -0.9922 -1.6484  0.1207
   40POPC  H17S 5393   6.533   1.518   7.694 -0.7505  1.6842  2.1969
   40POPC  C218 5394   6.636   1.681   7.678 -0.1354 -0.0247  0.0307
   40POPC  H18R 5395   6.579   1.730   7.759 -0.0002  0.9533 -0.4490
   40POPC  H18S 5396   6.582   1.714   7.586  0.6332 -1.1636 -0.8651
   40POPC  H18T 5397   6.732   1.736   7.669 -1.4056  2.5521  1.0900
   40POPC   C33 5398   6.411   0.143   6.040 -0.1353 -0.0079 -0.4527
   40POPC   H3X 5399   6.467   0.049   6.023 -2.7915 -1.5365 -1.2692
   40POPC   H3Y 5400   6.309   0.106   6.062  0.0049 -1.0715 -1.5076
   40POPC   C34 5401   6.469   0.212   6.167  0.1441 -0.1008 -0.3819
   40POPC   H4X 5402   6.384   0.269   6.209  0.0001 -1.5135  1.3366
   40POPC   H4Y 5403   6.550   0.286   6.151  0.6774 -0.5063  0.3800
   40POPC   C35 5404   6.516   0.108   6.272  0.0972  0.1884  0.2012
   40POPC   H5X 5405   6.612   0.060   6.244  1.3684  1.7835  1.5970
   40POPC   H5Y 5406   6.440   0.027   6.274 -0.4359  0.6764  1.8424
   40POPC   C36 5407   6.526   0.167   6.418  0.8055  0.6131 -0.6876
   40POPC   H6X 5408   6.424   0.203   6.441  0.6177 -0.7906  0.8677
   40POPC   H6Y 5409   6.589   0.258   6.427  1.9484 -0.3135  1.3532
   40POPC   C37 5410   6.564   0.047   6.515 -1.0328 -0.0811 -0.7349
   40POPC   H7X 5411   6.673   0.024   6.519 -0.8849  0.7826  0.4821
   40POPC   H7Y 5412   6.510  -0.048   6.498 -0.8415 -0.3752  0.2482
   40POPC   C38 5413   6.539   0.085   6.664 -0.5212 -0.3145 -0.1253
   40POPC   H8X 5414   6.546  -0.007   6.726 -0.0486 -2.4356 -3.0660
   40POPC   H8Y 5415   6.432   0.116   6.671 -1.3060 -2.5220 -1.2864
   40POPC   C39 5416   6.621   0.207   6.716  0.3069  0.2839  0.1844
   40POPC   H9X 5417   6.606   0.300   6.657 -1.9340  1.3729  2.2944
   40POPC   H9Y 5418   6.730   0.185   6.719  0.1675 -0.5002 -0.1472
   40POPC  C310 5419   6.580   0.237   6.863 -0.1058  0.5673  0.2545
   40POPC  H10X 5420   6.614   0.150   6.923  1.1661  0.0933 -1.0730
   40POPC  H10Y 5421   6.470   0.253   6.868 -0.0416  1.5291 -1.0259
   40POPC  C311 5422   6.652   0.348   6.923  0.5653  0.3724  0.3793
   40POPC  H11X 5423   6.610   0.440   6.875  0.5025  0.0508 -0.1878
   40POPC  H11Y 5424   6.760   0.343   6.897  0.1569  0.1613 -1.3800
   40POPC  C312 5425   6.631   0.362   7.077  0.9818 -0.0949  0.3048
   40POPC  H12X 5426   6.681   0.281   7.136  0.7506  0.1030  0.7784
   40POPC  H12Y 5427   6.522   0.359   7.100  0.6771 -2.3362 -1.0851
   40POPC  C313 5428   6.699   0.488   7.129  0.8696  0.2078  0.1203
   40POPC  H13X 5429   6.651   0.578   7.086  0.4873  0.2006  0.5279
   40POPC  H13Y 5430   6.805   0.487   7.096  1.2627 -1.6579  1.2610
   40POPC  C314 5431   6.690   0.490   7.280 -0.1238  0.0553 -0.7195
   40POPC  H14X 5432   6.722   0.392   7.322  0.7747 -0.2508 -2.0392
   40POPC  H14Y 5433   6.588   0.516   7.317  0.8765 -0.9384  3.1915
   40POPC  C315 5434   6.772   0.603   7.341  0.4908  0.4497  0.0435
   40POPC  H15X 5435   6.757   0.701   7.290 -0.4799 -0.5495 -1.7302
   40POPC  H15Y 5436   6.879   0.580   7.320  0.4275  0.7758 -0.6845
   40POPC  C316 5437   6.753   0.616   7.487  0.2043 -0.5511 -0.0171
   40POPC  H16X 5438   6.645   0.642   7.498  0.1936 -0.9315  0.8350
   40POPC  H16Y 5439   6.815   0.702   7.521 -0.6846  0.3497 -0.5994
   40POPC  H16Z 5440   6.750   0.526   7.552 -0.9196  0.5668  1.5647
   41CHL1    C3 5441   4.220   4.294   9.448 -0.1765  0.2133 -0.0323
   41CHL1    H3 5442   4.297   4.374   9.446  2.4512 -2.1819  0.2424
   41CHL1    O3 5443   4.205   4.246   9.576 -0.0632  0.2401 -0.0914
   41CHL1   H3' 5444   4.152   4.166   9.567 -0.9185  0.4115  2.6929
   41CHL1    C4 5445   4.094   4.367   9.418 -0.1904  0.4658 -0.7222
   41CHL1   H4A 5446   4.006   4.306   9.447  1.7808 -1.3081  2.0259
   41CHL1   H4B 5447   4.088   4.460   9.478 -2.3506 -0.2111  0.1732
   41CHL1    C5 5448   4.082   4.414   9.275  0.4267  0.1692  0.4873
   41CHL1    C6 5449   4.073   4.546   9.242 -0.2714  0.0281  0.0273
   41CHL1    H6 5450   4.074   4.627   9.315 -0.5004  1.4733 -1.5114
   41CHL1    C7 5451   4.062   4.595   9.103 -0.0454 -0.5064 -0.5223
   41CHL1   H7A 5452   4.004   4.688   9.091  2.4177  1.1479 -0.2703
   41CHL1   H7B 5453   4.165   4.624   9.076  0.1686 -0.0989  0.6742
   41CHL1    C8 5454   4.005   4.485   9.006 -0.4794  0.5701  0.2526
   41CHL1    H8 5455   3.902   4.460   9.039 -0.2191  2.1403  2.5571
   41CHL1   C14 5456   4.000   4.524   8.857 -0.5876 -0.1950  0.1042
   41CHL1   H14 5457   4.109   4.537   8.838 -0.3238 -0.6705  1.2009
   41CHL1   C15 5458   3.934   4.655   8.814 -0.4098  0.0064 -0.6616
   41CHL1  H15A 5459   3.833   4.679   8.854 -0.5351 -1.0739 -0.2860
   41CHL1  H15B 5460   4.001   4.742   8.828 -1.3401  0.7021 -0.4240
   41CHL1   C16 5461   3.907   4.640   8.662  0.3138  0.7112 -0.5481
   41CHL1  H16A 5462   3.799   4.654   8.641  0.4004 -0.1327 -1.5999
   41CHL1  H16B 5463   3.974   4.711   8.608  0.3982  0.9460 -0.1449
   41CHL1   C17 5464   3.965   4.488   8.627  0.0543 -0.8428 -0.3589
   41CHL1   H17 5465   4.072   4.496   8.600  0.5720 -3.9524  0.3768
   41CHL1   C13 5466   3.961   4.407   8.755 -0.3491 -0.8542  0.2608
   41CHL1   C18 5467   3.816   4.366   8.788 -0.6751  0.8111  0.0815
   41CHL1  H18A 5468   3.773   4.298   8.712  2.6400  0.4424 -1.6707
   41CHL1  H18B 5469   3.824   4.324   8.891 -0.5693 -2.9637 -1.3118
   41CHL1  H18C 5470   3.747   4.452   8.801  0.3728  1.5705  0.8666
   41CHL1   C12 5471   4.060   4.294   8.766  0.1367  0.0594  0.6760
   41CHL1  H12A 5472   4.036   4.201   8.710  1.0125 -0.4560  1.1420
   41CHL1  H12B 5473   4.159   4.331   8.730 -0.2946  2.1185  1.4669
   41CHL1   C11 5474   4.076   4.252   8.916 -0.2501 -0.0519  0.1389
   41CHL1  H11A 5475   3.991   4.185   8.943  0.5175 -0.3978  1.8498
   41CHL1  H11B 5476   4.162   4.183   8.928 -1.4898 -1.8809 -0.9783
   41CHL1    C9 5477   4.096   4.366   9.024  0.6713  0.5297 -0.1883
   41CHL1    H9 5478   4.200   4.404   9.016  0.5111  1.3425  1.3235
   41CHL1   C10 5479   4.098   4.302   9.168  0.1205  0.4926 -0.0876
   41CHL1   C19 5480   3.979   4.209   9.177 -0.3153  0.1547  0.3219
   41CHL1  H19A 5481   3.946   4.198   9.283 -0.1867  3.6828  0.8672
   41CHL1  H19B 5482   3.886   4.249   9.133 -0.8936  0.4286  1.7410
   41CHL1  H19C 5483   4.002   4.112   9.129  0.1847  0.3390  0.1774
   41CHL1    C1 5484   4.236   4.241   9.203 -0.5094  0.4863 -1.0647
   41CHL1   H1A 5485   4.239   4.152   9.135 -0.5992 -1.0462  0.8482
   41CHL1   H1B 5486   4.323   4.308   9.189  0.5780  0.0062  2.4471
   41CHL1    C2 5487   4.244   4.185   9.343  0.0946 -0.3030 -0.2228
   41CHL1   H2A 5488   4.339   4.130   9.355  0.7461  0.7828 -0.2836
   41CHL1   H2B 5489   4.170   4.103   9.360 -1.3996  1.3418  1.8059
   41CHL1   C20 5490   3.902   4.444   8.503 -0.3309 -0.1325  0.1273
   41CHL1   H20 5491   3.793   4.420   8.506 -0.1356 -1.5607 -1.9755
   41CHL1   C21 5492   3.966   4.301   8.461  0.5222 -0.6779  0.3377
   41CHL1  H21A 5493   3.935   4.276   8.357  0.4881 -0.0038  0.1793
   41CHL1  H21B 5494   3.918   4.220   8.519 -0.6836 -2.3347 -2.7567
   41CHL1  H21C 5495   4.077   4.301   8.458  0.5151 -0.1132 -1.9980
   41CHL1   C22 5496   3.941   4.542   8.382 -0.4672  0.8921 -0.0560
   41CHL1  H22A 5497   4.046   4.579   8.380  0.2135 -0.8868  0.5941
   41CHL1  H22B 5498   3.933   4.478   8.291  1.4480  0.8285 -0.2294
   41CHL1   C23 5499   3.845   4.657   8.355 -0.0998 -0.4966 -0.4970
   41CHL1  H23A 5500   3.740   4.622   8.349 -0.5909  0.2344  2.4299
   41CHL1  H23B 5501   3.848   4.728   8.441  0.5357  1.0401 -1.7373
   41CHL1   C24 5502   3.880   4.723   8.224  0.4333 -0.5195 -0.2570
   41CHL1  H24A 5503   3.981   4.768   8.232  0.5278  0.1542 -3.7719
   41CHL1  H24B 5504   3.899   4.651   8.142 -0.3704 -0.7184 -0.2797
   41CHL1   C25 5505   3.772   4.825   8.166  0.0291  0.6969 -0.0595
   41CHL1   H25 5506   3.762   4.892   8.253  2.1686 -0.5113  1.2154
   41CHL1   C26 5507   3.839   4.892   8.044 -0.6361  0.1527  0.3186
   41CHL1  H26A 5508   3.769   4.955   7.985  1.9389  2.6133 -0.3678
   41CHL1  H26B 5509   3.932   4.949   8.066 -1.1906  1.8550 -1.4590
   41CHL1  H26C 5510   3.871   4.810   7.976  1.5942  1.0157  0.2437
   41CHL1   C27 5511   3.635   4.758   8.134 -0.4261  0.1622  0.3131
   41CHL1  H27A 5512   3.591   4.718   8.227 -0.5993  0.1555  0.2288
   41CHL1  H27B 5513   3.559   4.828   8.093  1.0668  0.6154 -1.8861
   41CHL1  H27C 5514   3.649   4.666   8.074  0.6928  0.8960 -0.5960
   42CHL1    C3 5515   2.733   4.248   9.021  0.2220 -0.2181  0.0874
   42CHL1    H3 5516   2.672   4.341   9.013  2.1248  0.9765 -1.5490
   42CHL1    O3 5517   2.751   4.198   9.159 -0.1636 -0.0099  1.4110
   42CHL1   H3' 5518   2.844   4.210   9.181 -0.0893  0.1429  1.0077
   42CHL1    C4 5519   2.653   4.144   8.941 -0.1428 -0.2248 -0.1850
   42CHL1   H4A 5520   2.716   4.054   8.925  0.8199  0.6820 -1.6122
   42CHL1   H4B 5521   2.561   4.120   8.999 -0.5231 -0.1731 -0.7607
   42CHL1    C5 5522   2.618   4.192   8.805  0.7387  0.7936 -0.3985
   42CHL1    C6 5523   2.490   4.211   8.762 -0.0855 -0.5591  0.6525
   42CHL1    H6 5524   2.408   4.182   8.829 -0.3385 -1.7390 -0.1525
   42CHL1    C7 5525   2.459   4.256   8.621  0.5590 -0.6949 -0.8618
   42CHL1   H7A 5526   2.373   4.199   8.579 -2.6221  2.8137  0.3910
   42CHL1   H7B 5527   2.400   4.350   8.626 -0.6742 -1.4793  3.3336
   42CHL1    C8 5528   2.583   4.249   8.522  0.5889 -0.0602 -0.6396
   42CHL1    H8 5529   2.604   4.144   8.493  3.8067 -0.0467  1.1378
   42CHL1   C14 5530   2.548   4.322   8.397 -0.0583  1.2028 -0.3453
   42CHL1   H14 5531   2.520   4.421   8.439  0.9046  1.0581  0.6660
   42CHL1   C15 5532   2.428   4.281   8.315  0.3823 -0.0533 -0.4073
   42CHL1  H15A 5533   2.436   4.173   8.291 -0.9557 -0.0749 -0.8737
   42CHL1  H15B 5534   2.334   4.303   8.369  0.3236 -0.3512 -0.3858
   42CHL1   C16 5535   2.435   4.376   8.196  0.3375 -0.2275  0.3975
   42CHL1  H16A 5536   2.403   4.324   8.103 -0.6576  2.0414 -0.6325
   42CHL1  H16B 5537   2.368   4.465   8.202 -2.7900 -2.2337 -1.8140
   42CHL1   C17 5538   2.587   4.431   8.187  0.5820 -0.2075  0.3907
   42CHL1   H17 5539   2.583   4.534   8.229 -1.5608 -0.0395 -0.1225
   42CHL1   C13 5540   2.665   4.349   8.297  0.5633 -0.3581 -0.0229
   42CHL1   C18 5541   2.708   4.215   8.235 -0.0395  0.4967  0.4213
   42CHL1  H18A 5542   2.750   4.149   8.314  0.5840 -0.4881 -0.7075
   42CHL1  H18B 5543   2.616   4.164   8.200 -0.4129  0.5979  1.2128
   42CHL1  H18C 5544   2.788   4.229   8.159 -1.1199  0.0359 -0.8415
   42CHL1   C12 5545   2.776   4.425   8.376  0.9050 -0.2102 -0.0438
   42CHL1  H12A 5546   2.855   4.444   8.300 -0.2091  2.1529 -0.7140
   42CHL1  H12B 5547   2.738   4.526   8.404  1.6604  0.5856 -1.7282
   42CHL1   C11 5548   2.822   4.348   8.501  1.0092 -0.3592  0.4059
   42CHL1  H11A 5549   2.869   4.256   8.462 -1.5977 -1.1474 -1.1650
   42CHL1  H11B 5550   2.904   4.400   8.554 -0.5919  1.9555  0.8000
   42CHL1    C9 5551   2.706   4.306   8.596  1.2552  0.9082 -0.6612
   42CHL1    H9 5552   2.670   4.409   8.618  2.2335  1.5107 -1.7587
   42CHL1   C10 5553   2.743   4.224   8.722 -0.0753 -0.2136 -0.1948
   42CHL1   C19 5554   2.823   4.097   8.671 -0.3257  0.4381 -0.4092
   42CHL1  H19A 5555   2.770   4.040   8.592 -1.3733 -0.8589  1.1617
   42CHL1  H19B 5556   2.923   4.126   8.632  0.1181 -0.6290 -0.0731
   42CHL1  H19C 5557   2.832   4.027   8.756  0.4097  1.0542  0.0349
   42CHL1    C1 5558   2.845   4.311   8.803 -0.9089  0.2568  0.1133
   42CHL1   H1A 5559   2.939   4.311   8.743 -1.3293  0.1421 -0.5600
   42CHL1   H1B 5560   2.804   4.414   8.804 -1.2515  0.1184  0.6124
   42CHL1    C2 5561   2.867   4.265   8.948 -0.2963 -0.1396  0.2319
   42CHL1   H2A 5562   2.919   4.345   9.005  1.4611  0.0700 -1.5882
   42CHL1   H2B 5563   2.929   4.173   8.950  1.8613  1.2170  2.6559
   42CHL1   C20 5564   2.637   4.437   8.043 -0.4052  1.1619  0.1795
   42CHL1   H20 5565   2.635   4.329   8.018  1.3322  0.9616  0.7997
   42CHL1   C21 5566   2.780   4.486   8.026  0.1384  0.0272  1.0396
   42CHL1  H21A 5567   2.804   4.520   7.922 -0.0610  1.0433  1.3117
   42CHL1  H21B 5568   2.852   4.407   8.055 -0.5495 -1.4091 -0.9802
   42CHL1  H21C 5569   2.792   4.583   8.079 -0.6733  1.4723 -1.2323
   42CHL1   C22 5570   2.549   4.520   7.951 -0.1796  0.6896 -0.0341
   42CHL1  H22A 5571   2.443   4.505   7.978  0.0188 -1.7114 -0.4289
   42CHL1  H22B 5572   2.570   4.629   7.961  0.3384  0.5918 -0.0107
   42CHL1   C23 5573   2.554   4.482   7.805 -0.7013  0.1644 -0.3997
   42CHL1  H23A 5574   2.637   4.544   7.766 -1.0164 -1.0188 -3.0989
   42CHL1  H23B 5575   2.563   4.372   7.794 -3.5904 -0.2775  0.5548
   42CHL1   C24 5576   2.422   4.535   7.731  0.4515 -0.5222  0.1691
   42CHL1  H24A 5577   2.333   4.487   7.777  0.2744 -0.2715  0.0864
   42CHL1  H24B 5578   2.422   4.645   7.738 -0.0468 -0.6160  2.2299
   42CHL1   C25 5579   2.430   4.506   7.581 -0.3779 -0.2895 -0.6887
   42CHL1   H25 5580   2.427   4.396   7.570  1.8423 -0.4209 -0.4501
   42CHL1   C26 5581   2.301   4.565   7.517 -0.3941  0.5005 -0.7100
   42CHL1  H26A 5582   2.296   4.675   7.529 -0.9531  0.3978  0.0349
   42CHL1  H26B 5583   2.309   4.531   7.411 -0.4827 -2.7978  0.2363
   42CHL1  H26C 5584   2.207   4.523   7.557  0.3676 -1.5166 -0.8891
   42CHL1   C27 5585   2.550   4.570   7.512  0.9937  0.5593 -0.4726
   42CHL1  H27A 5586   2.543   4.680   7.526  1.0226  0.2706  2.3465
   42CHL1  H27B 5587   2.650   4.542   7.550  1.3945  1.7418 -0.6115
   42CHL1  H27C 5588   2.538   4.551   7.403  1.3303 -0.9987 -0.2626
   43CHL1    C3 5589   4.928   4.421   9.510  0.9165 -0.4144  0.8841
   43CHL1    H3 5590   4.961   4.525   9.490  0.7847 -0.4084  0.6948
   43CHL1    O3 5591   4.947   4.385   9.648 -0.5733 -0.2455 -0.1388
   43CHL1   H3' 5592   4.859   4.357   9.677 -1.1336  1.4526 -0.1200
   43CHL1    C4 5593   4.771   4.433   9.490 -0.9490  0.4773  0.0493
   43CHL1   H4A 5594   4.729   4.337   9.525  0.0451  0.0256  0.0364
   43CHL1   H4B 5595   4.745   4.518   9.557 -0.2022  0.0927  0.8473
   43CHL1    C5 5596   4.731   4.453   9.344 -0.0742  0.2615  0.9814
   43CHL1    C6 5597   4.653   4.557   9.307  0.7036 -0.1077 -0.3696
   43CHL1    H6 5598   4.616   4.629   9.381 -0.3229  1.3609 -2.2102
   43CHL1    C7 5599   4.603   4.577   9.166 -0.0210  0.0387  0.4250
   43CHL1   H7A 5600   4.500   4.620   9.176 -0.2153  0.5394 -2.6576
   43CHL1   H7B 5601   4.665   4.661   9.127 -0.2817 -0.0728 -0.2506
   43CHL1    C8 5602   4.618   4.456   9.072  0.4502  0.6506  0.1416
   43CHL1    H8 5603   4.542   4.383   9.108  0.6151  0.7449  0.6884
   43CHL1   C14 5604   4.592   4.496   8.933  0.0212 -0.1282 -0.4544
   43CHL1   H14 5605   4.675   4.565   8.908 -0.4473  0.3240 -0.8033
   43CHL1   C15 5606   4.473   4.585   8.907 -0.0858 -0.4631 -0.2150
   43CHL1  H15A 5607   4.377   4.550   8.951  0.8439 -0.2637  2.0861
   43CHL1  H15B 5608   4.485   4.693   8.933 -0.6889 -0.3994 -0.1626
   43CHL1   C16 5609   4.470   4.582   8.746 -0.2284  1.2648  0.2504
   43CHL1  H16A 5610   4.364   4.572   8.714  0.2026  0.7097 -1.0732
   43CHL1  H16B 5611   4.505   4.677   8.701 -1.3031  1.6877  0.2652
   43CHL1   C17 5612   4.557   4.457   8.697 -0.1843 -0.8611 -0.6009
   43CHL1   H17 5613   4.645   4.507   8.651  0.1457 -0.2063  0.7124
   43CHL1   C13 5614   4.596   4.383   8.832  0.1615  0.1537 -0.0780
   43CHL1   C18 5615   4.487   4.288   8.878  0.1472  0.9591  0.7518
   43CHL1  H18A 5616   4.435   4.241   8.793 -0.7731 -0.2638  1.9430
   43CHL1  H18B 5617   4.523   4.201   8.938 -4.0252 -1.7132 -0.1939
   43CHL1  H18C 5618   4.402   4.327   8.939 -0.4686  2.8499 -1.2151
   43CHL1   C12 5619   4.743   4.319   8.835  0.4644  0.2886 -0.3571
   43CHL1  H12A 5620   4.770   4.231   8.774  1.5289  1.7986 -2.1602
   43CHL1  H12B 5621   4.809   4.398   8.795  1.0614 -0.2879 -0.5213
   43CHL1   C11 5622   4.783   4.276   8.983  0.6480  0.0925 -0.1284
   43CHL1  H11A 5623   4.721   4.186   9.005  1.0252 -0.7227 -2.1732
   43CHL1  H11B 5624   4.890   4.250   8.979  0.7796  0.2794  1.3912
   43CHL1    C9 5625   4.758   4.382   9.090  0.2244 -1.1911 -0.3093
   43CHL1    H9 5626   4.832   4.464   9.075 -0.7729 -0.0741  0.6473
   43CHL1   C10 5627   4.786   4.345   9.240 -0.1006 -0.4268  0.0713
   43CHL1   C19 5628   4.718   4.213   9.269  0.2257 -0.0283  0.8940
   43CHL1  H19A 5629   4.749   4.135   9.196 -0.9929  0.8110 -0.5636
   43CHL1  H19B 5630   4.741   4.183   9.374  2.1768  0.8141  0.7461
   43CHL1  H19C 5631   4.609   4.221   9.249  0.8427  1.3032 -2.4657
   43CHL1    C1 5632   4.936   4.327   9.274  0.1367  0.0740  0.6192
   43CHL1   H1A 5633   4.981   4.253   9.204 -0.9575 -0.5398  0.5377
   43CHL1   H1B 5634   4.989   4.419   9.241 -0.4490  1.2439  2.7909
   43CHL1    C2 5635   4.983   4.306   9.420  0.3105 -0.2435  0.6882
   43CHL1   H2A 5636   5.093   4.295   9.428  0.2593 -0.4027  1.2378
   43CHL1   H2B 5637   4.937   4.210   9.452  0.2465 -0.1155  0.9890
   43CHL1   C20 5638   4.497   4.388   8.571 -0.1413 -0.2036 -0.5045
   43CHL1   H20 5639   4.397   4.348   8.598  0.4153 -1.5009 -0.2901
   43CHL1   C21 5640   4.589   4.258   8.537 -0.0427 -0.0845 -0.0002
   43CHL1  H21A 5641   4.565   4.234   8.431  1.3067  1.0155 -0.5873
   43CHL1  H21B 5642   4.587   4.179   8.615 -0.6003 -0.5867 -0.5104
   43CHL1  H21C 5643   4.692   4.297   8.528 -0.3092  0.9423  1.1406
   43CHL1   C22 5644   4.479   4.475   8.454  0.0314 -0.4718 -0.1413
   43CHL1  H22A 5645   4.423   4.567   8.483  0.2439 -0.4086  0.0753
   43CHL1  H22B 5646   4.577   4.496   8.406  0.1838  0.3310  0.4851
   43CHL1   C23 5647   4.394   4.404   8.347 -0.2511 -0.2174  0.1297
   43CHL1  H23A 5648   4.429   4.307   8.306  0.0074  0.1175 -0.4459
   43CHL1  H23B 5649   4.295   4.380   8.392  1.0515 -2.7956  1.8181
   43CHL1   C24 5650   4.382   4.489   8.223  0.1280 -0.3763  0.1360
   43CHL1  H24A 5651   4.321   4.579   8.245 -1.7793 -1.2660 -1.1566
   43CHL1  H24B 5652   4.483   4.518   8.188  0.1978 -1.0940 -0.2931
   43CHL1   C25 5653   4.318   4.422   8.100  0.5120  0.1348 -0.3057
   43CHL1   H25 5654   4.361   4.320   8.097  0.9709  0.2905  0.5669
   43CHL1   C26 5655   4.165   4.401   8.120  0.4118  0.0858  0.4125
   43CHL1  H26A 5656   4.121   4.340   8.038 -0.1685  2.2275 -0.9296
   43CHL1  H26B 5657   4.156   4.351   8.219  1.3397  2.4990  1.7963
   43CHL1  H26C 5658   4.115   4.499   8.131  0.2781  0.1697 -0.8134
   43CHL1   C27 5659   4.347   4.500   7.977 -0.2227 -0.6034 -0.0197
   43CHL1  H27A 5660   4.305   4.447   7.890 -0.7783  1.2488 -0.9411
   43CHL1  H27B 5661   4.314   4.606   7.989  0.0133 -0.6236  0.8337
   43CHL1  H27C 5662   4.457   4.504   7.958 -0.2444  0.7956 -0.0214
   44CHL1    C3 5663   5.124   3.810   9.309  0.0292 -0.1943 -0.4791
   44CHL1    H3 5664   5.025   3.813   9.361  0.3079  2.2170  0.0125
   44CHL1    O3 5665   5.230   3.807   9.403  0.2952 -0.2394  0.1968
   44CHL1   H3' 5666   5.243   3.900   9.420  0.3961 -0.1496 -0.3830
   44CHL1    C4 5667   5.146   3.687   9.221 -0.9362  0.2623  0.6098
   44CHL1   H4A 5668   5.251   3.692   9.186 -0.5442 -0.0751  1.7067
   44CHL1   H4B 5669   5.138   3.596   9.284  0.4893  1.5386  2.7758
   44CHL1    C5 5670   5.051   3.685   9.097  0.4511  0.6093 -0.1321
   44CHL1    C6 5671   4.974   3.578   9.075  0.5094 -0.0564 -0.3379
   44CHL1    H6 5672   4.987   3.486   9.134 -0.0672  0.2761  0.3293
   44CHL1    C7 5673   4.876   3.563   8.964  0.8495  0.3205  0.1203
   44CHL1   H7A 5674   4.878   3.461   8.919  0.3818 -0.8066  2.5144
   44CHL1   H7B 5675   4.772   3.575   9.000  0.8550  3.1518 -0.6075
   44CHL1    C8 5676   4.907   3.670   8.857 -0.4731  0.4728  0.2238
   44CHL1    H8 5677   5.000   3.635   8.806  0.2791 -1.8773  2.9051
   44CHL1   C14 5678   4.796   3.670   8.756  0.4293  0.4559 -0.1938
   44CHL1   H14 5679   4.704   3.702   8.808 -0.4699 -0.7907 -0.9515
   44CHL1   C15 5680   4.759   3.536   8.686 -0.9026 -0.1186  0.0831
   44CHL1  H15A 5681   4.848   3.479   8.650  0.2417  1.7895 -0.2570
   44CHL1  H15B 5682   4.695   3.475   8.754  0.1812  0.0377  1.2878
   44CHL1   C16 5683   4.693   3.576   8.555  0.3164  0.3560  0.1403
   44CHL1  H16A 5684   4.746   3.521   8.475 -2.7116  1.4349 -2.8499
   44CHL1  H16B 5685   4.587   3.543   8.549  0.3838 -0.6256  2.8391
   44CHL1   C17 5686   4.705   3.731   8.537  0.3913  0.6242  0.5849
   44CHL1   H17 5687   4.609   3.776   8.570 -0.7526 -1.3091  0.0703
   44CHL1   C13 5688   4.822   3.761   8.632  1.2552  0.0063  0.5922
   44CHL1   C18 5689   4.946   3.723   8.555 -0.0264  0.3193  0.1876
   44CHL1  H18A 5690   4.974   3.796   8.477  1.7900 -0.2459  0.2617
   44CHL1  H18B 5691   5.032   3.734   8.624 -1.3205  1.1969  1.7119
   44CHL1  H18C 5692   4.937   3.623   8.507 -2.5747  0.4099  0.3068
   44CHL1   C12 5693   4.833   3.908   8.692  0.1426 -0.4827  0.3459
   44CHL1  H12A 5694   4.855   3.977   8.608 -4.8723 -0.6700 -1.4168
   44CHL1  H12B 5695   4.735   3.938   8.734  0.1801  0.5956 -0.3242
   44CHL1   C11 5696   4.944   3.919   8.802 -0.2472 -0.0398  0.5552
   44CHL1  H11A 5697   5.036   3.891   8.747 -0.9922  1.3808 -1.5216
   44CHL1  H11B 5698   4.947   4.026   8.831 -1.1074 -0.1953  1.2728
   44CHL1    C9 5699   4.928   3.811   8.917  0.0873  0.0933 -0.4031
   44CHL1    H9 5700   4.832   3.833   8.970  0.0558  0.9623 -0.8047
   44CHL1   C10 5701   5.039   3.816   9.016 -0.5973  0.4146 -0.5845
   44CHL1   C19 5702   5.176   3.833   8.942  0.1114 -0.0936  0.0753
   44CHL1  H19A 5703   5.262   3.809   9.008  0.6612 -0.3374 -0.7258
   44CHL1  H19B 5704   5.178   3.759   8.860 -2.8392  1.2400 -1.3411
   44CHL1  H19C 5705   5.186   3.933   8.896 -1.4456  0.0903  0.0675
   44CHL1    C1 5706   5.026   3.939   9.113  0.3387 -0.0796  1.1705
   44CHL1   H1A 5707   5.034   4.035   9.057 -0.3546 -0.3401  0.6092
   44CHL1   H1B 5708   4.925   3.933   9.158  0.0659 -1.5426  0.4239
   44CHL1    C2 5709   5.130   3.940   9.230  0.8636 -0.3794  0.2667
   44CHL1   H2A 5710   5.123   4.032   9.292 -1.5773  0.9283 -1.8024
   44CHL1   H2B 5711   5.233   3.953   9.191  1.3673 -0.9287  1.3381
   44CHL1   C20 5712   4.717   3.774   8.386  0.0112 -0.5189  0.3783
   44CHL1   H20 5713   4.810   3.729   8.344  1.2242  0.9873  1.3405
   44CHL1   C21 5714   4.724   3.927   8.375 -0.5955  0.4866  0.6216
   44CHL1  H21A 5715   4.716   3.964   8.270  0.1079  3.4291  1.5016
   44CHL1  H21B 5716   4.823   3.961   8.411 -1.0126  0.9110  1.4141
   44CHL1  H21C 5717   4.639   3.980   8.425 -0.7808  0.5168  0.2805
   44CHL1   C22 5718   4.595   3.725   8.302 -0.4771  0.2045 -0.4116
   44CHL1  H22A 5719   4.571   3.623   8.338  0.8669  0.2396  0.6645
   44CHL1  H22B 5720   4.511   3.797   8.315 -1.0824 -0.8402  1.9584
   44CHL1   C23 5721   4.614   3.708   8.149 -0.5500  0.1157 -0.6311
   44CHL1  H23A 5722   4.639   3.805   8.101  0.3812  1.2056  1.9003
   44CHL1  H23B 5723   4.702   3.642   8.137 -0.9335 -0.1251 -2.4542
   44CHL1   C24 5724   4.488   3.644   8.084  0.8184 -0.1823 -0.5004
   44CHL1  H24A 5725   4.447   3.563   8.148 -2.1780  2.6369  1.4928
   44CHL1  H24B 5726   4.411   3.724   8.095  1.4344  0.3838 -0.2343
   44CHL1   C25 5727   4.500   3.616   7.939 -0.2695  0.6582 -0.2806
   44CHL1   H25 5728   4.548   3.698   7.881  1.8047 -0.3383 -0.0754
   44CHL1   C26 5729   4.590   3.488   7.910  0.1195  0.3882  0.4719
   44CHL1  H26A 5730   4.547   3.404   7.968  0.0299 -0.6001 -0.9903
   44CHL1  H26B 5731   4.601   3.459   7.803  1.0496 -1.1541  0.9595
   44CHL1  H26C 5732   4.694   3.503   7.945  0.7352 -0.8911 -0.7448
   44CHL1   C27 5733   4.365   3.595   7.870  0.8766  0.5397  0.0942
   44CHL1  H27A 5734   4.308   3.512   7.916 -0.4044  0.3879 -1.6484
   44CHL1  H27B 5735   4.299   3.684   7.862 -1.1920 -0.6562  2.4791
   44CHL1  H27C 5736   4.380   3.575   7.762 -0.9636  0.4629 -0.1802
   45CHL1    C3 5737   2.380   4.232   9.549 -0.2983  0.4586 -0.1086
   45CHL1    H3 5738   2.407   4.339   9.566  1.9147  0.2559 -1.8448
   45CHL1    O3 5739   2.410   4.151   9.658  0.4044  0.5725 -0.5031
   45CHL1   H3' 5740   2.349   4.077   9.646 -0.5588  1.1416  0.6148
   45CHL1    C4 5741   2.233   4.212   9.508  0.7142 -0.6464 -0.1364
   45CHL1   H4A 5742   2.216   4.103   9.493  1.4259 -0.6672 -0.8673
   45CHL1   H4B 5743   2.167   4.241   9.592  1.5262 -2.1393  1.0704
   45CHL1    C5 5744   2.199   4.303   9.383  0.4645 -0.8537  0.3108
   45CHL1    C6 5745   2.103   4.402   9.394 -0.6391 -0.3029 -0.0186
   45CHL1    H6 5746   2.057   4.419   9.492  0.9871  2.6492  0.3511
   45CHL1    C7 5747   2.072   4.499   9.287 -0.3233  0.3650 -0.0749
   45CHL1   H7A 5748   1.964   4.475   9.276 -0.0257 -1.4888  0.6797
   45CHL1   H7B 5749   2.082   4.606   9.318  0.3924  0.7875 -1.6519
   45CHL1    C8 5750   2.145   4.479   9.152  0.1236 -0.2347  0.7805
   45CHL1    H8 5751   2.160   4.586   9.124 -2.1010  0.0445  0.4555
   45CHL1   C14 5752   2.055   4.422   9.042 -0.1129 -0.4584 -0.0576
   45CHL1   H14 5753   2.009   4.326   9.075 -2.0823 -0.1197 -1.6121
   45CHL1   C15 5754   1.927   4.506   9.015  0.0088  0.4909 -0.9269
   45CHL1  H15A 5755   1.851   4.473   9.089 -0.1761  1.0087 -0.8819
   45CHL1  H15B 5756   1.942   4.612   9.045 -0.6875  0.0162  1.2603
   45CHL1   C16 5757   1.903   4.499   8.867  0.1464 -0.4046  0.1885
   45CHL1  H16A 5758   1.854   4.405   8.835  0.4770  0.1757 -2.2791
   45CHL1  H16B 5759   1.851   4.590   8.828  2.1649  0.8755  0.3463
   45CHL1   C17 5760   2.048   4.496   8.809 -0.0481  0.2634 -0.0380
   45CHL1   H17 5761   2.078   4.599   8.835 -1.9555  0.7492  0.4097
   45CHL1   C13 5762   2.128   4.405   8.903 -0.6021 -0.3206  0.0453
   45CHL1   C18 5763   2.114   4.255   8.871 -0.4879 -0.4233 -0.2282
   45CHL1  H18A 5764   2.006   4.229   8.875 -0.4145 -0.5994  1.0268
   45CHL1  H18B 5765   2.154   4.223   8.772  1.7901 -2.8661  1.3312
   45CHL1  H18C 5766   2.177   4.202   8.946 -0.0844  0.4264  0.0373
   45CHL1   C12 5767   2.280   4.448   8.914  0.9240  0.1315 -0.4413
   45CHL1  H12A 5768   2.326   4.436   8.814  0.4761  0.7583 -0.7320
   45CHL1  H12B 5769   2.275   4.556   8.939  0.3843 -0.4843  2.6289
   45CHL1   C11 5770   2.355   4.385   9.031  0.4065  0.1382  0.3369
   45CHL1  H11A 5771   2.361   4.275   9.014 -0.9854  0.0599  0.2356
   45CHL1  H11B 5772   2.458   4.423   9.045  0.2366  0.2839  1.2350
   45CHL1    C9 5773   2.281   4.407   9.168  0.2216 -0.0309 -0.1013
   45CHL1    H9 5774   2.332   4.488   9.224 -2.8242  0.4685  2.2303
   45CHL1   C10 5775   2.290   4.284   9.264  0.2399 -0.0708 -0.3230
   45CHL1   C19 5776   2.230   4.151   9.205  0.2358  0.1688  0.1605
   45CHL1  H19A 5777   2.230   4.068   9.279 -1.4863 -0.1110 -0.0989
   45CHL1  H19B 5778   2.124   4.164   9.172 -0.6444 -0.9173  2.3681
   45CHL1  H19C 5779   2.289   4.110   9.120 -2.8380  2.7082 -3.5748
   45CHL1    C1 5780   2.447   4.265   9.301 -0.1006  0.5442 -0.0177
   45CHL1   H1A 5781   2.493   4.205   9.219 -0.1021  1.1763 -0.4882
   45CHL1   H1B 5782   2.500   4.362   9.307  1.5814 -0.3639  0.5036
   45CHL1    C2 5783   2.471   4.185   9.429  0.2865 -0.5066 -0.0381
   45CHL1   H2A 5784   2.581   4.186   9.441  0.1990 -1.3987  0.9462
   45CHL1   H2B 5785   2.444   4.079   9.412 -0.6532 -0.1288 -1.0628
   45CHL1   C20 5786   2.065   4.471   8.655 -0.4882 -0.0790  0.1657
   45CHL1   H20 5787   2.104   4.368   8.638  0.3349  0.3342 -0.5858
   45CHL1   C21 5788   2.173   4.582   8.607 -0.8507 -0.2782 -0.3974
   45CHL1  H21A 5789   2.131   4.676   8.564 -1.1945 -0.5403 -0.6353
   45CHL1  H21B 5790   2.233   4.532   8.527  0.7567 -0.4702  0.8618
   45CHL1  H21C 5791   2.244   4.611   8.688  0.8748 -1.3420 -1.4506
   45CHL1   C22 5792   1.930   4.477   8.574 -0.2974  0.7549  0.5516
   45CHL1  H22A 5793   1.872   4.385   8.594  0.5979 -0.0002 -0.2419
   45CHL1  H22B 5794   1.874   4.569   8.601 -1.2477  0.4638 -0.3950
   45CHL1   C23 5795   1.955   4.476   8.420  0.4958  0.1191 -0.0785
   45CHL1  H23A 5796   1.851   4.495   8.386  0.8607  0.2858 -1.1436
   45CHL1  H23B 5797   2.015   4.566   8.394  0.8522  0.7634  2.7369
   45CHL1   C24 5798   2.007   4.347   8.356  0.3533 -0.2432 -0.5917
   45CHL1  H24A 5799   2.078   4.296   8.423 -2.6926 -0.2591  2.9301
   45CHL1  H24B 5800   1.925   4.273   8.345 -1.5138  1.8336 -1.3778
   45CHL1   C25 5801   2.073   4.373   8.220 -0.4810  0.1176 -1.1002
   45CHL1   H25 5802   2.173   4.414   8.245 -0.8639  1.2695 -1.3853
   45CHL1   C26 5803   2.098   4.236   8.151  0.8832 -0.0720  0.1769
   45CHL1  H26A 5804   2.165   4.172   8.212  0.7077 -0.3609  0.0652
   45CHL1  H26B 5805   2.005   4.183   8.122  1.0032  0.4019 -1.1734
   45CHL1  H26C 5806   2.144   4.260   8.053 -2.7443  1.3670 -1.3620
   45CHL1   C27 5807   1.993   4.464   8.126  0.1453 -0.1166  0.2631
   45CHL1  H27A 5808   2.065   4.501   8.049 -0.5240  1.4610  0.3623
   45CHL1  H27B 5809   1.898   4.416   8.095 -1.0441  1.6280  1.0861
   45CHL1  H27C 5810   1.977   4.566   8.167  1.1850  1.0162 -1.9293
   46CHL1    C3 5811   4.227   2.268   9.279 -0.3789 -0.0732 -0.5001
   46CHL1    H3 5812   4.183   2.167   9.281 -2.3219  0.7452  0.4914
   46CHL1    O3 5813   4.254   2.313   9.410  0.2985  0.2253  0.5601
   46CHL1   H3' 5814   4.262   2.407   9.396  1.6440  0.1549  0.6967
   46CHL1    C4 5815   4.351   2.272   9.191  0.1142 -1.1543 -0.0368
   46CHL1   H4A 5816   4.406   2.368   9.208 -0.2008 -0.6004 -1.9328
   46CHL1   H4B 5817   4.418   2.196   9.238  1.7638 -1.0298 -2.0545
   46CHL1    C5 5818   4.324   2.244   9.046  0.9235  0.3632 -0.0565
   46CHL1    C6 5819   4.396   2.147   8.986 -0.3188  0.2971  0.0386
   46CHL1    H6 5820   4.478   2.089   9.031  0.7877  0.9211 -1.1019
   46CHL1    C7 5821   4.368   2.107   8.839 -1.2758 -0.2850 -0.6498
   46CHL1   H7A 5822   4.467   2.086   8.794 -1.5758 -1.3185 -0.8394
   46CHL1   H7B 5823   4.320   2.008   8.853  2.8477 -2.0615  3.3544
   46CHL1    C8 5824   4.292   2.213   8.754  0.1526  0.2745 -0.3478
   46CHL1    H8 5825   4.367   2.293   8.737  0.4739  0.2305  0.8071
   46CHL1   C14 5826   4.236   2.151   8.629  0.2869 -0.3651 -0.2184
   46CHL1   H14 5827   4.157   2.082   8.662  0.2767  0.3893  1.4181
   46CHL1   C15 5828   4.336   2.076   8.535  0.2320 -0.1183  0.5692
   46CHL1  H15A 5829   4.433   2.130   8.528  0.3703 -0.3282  0.8710
   46CHL1  H15B 5830   4.364   1.984   8.589  0.5376  1.4694  3.3204
   46CHL1   C16 5831   4.262   2.065   8.401 -0.4582 -0.7655  0.0713
   46CHL1  H16A 5832   4.324   2.090   8.312  0.1352 -0.4372  0.5664
   46CHL1  H16B 5833   4.217   1.965   8.384 -0.1345 -0.6136 -1.9541
   46CHL1   C17 5834   4.151   2.169   8.416  0.2854 -0.1774 -0.4351
   46CHL1   H17 5835   4.066   2.109   8.455  1.5410 -0.7535  1.5674
   46CHL1   C13 5836   4.181   2.259   8.533  0.0340  0.5959 -0.7684
   46CHL1   C18 5837   4.284   2.365   8.489  0.2446 -0.0782  0.6355
   46CHL1  H18A 5838   4.230   2.438   8.426 -1.4035 -0.2440  1.8050
   46CHL1  H18B 5839   4.332   2.421   8.572  0.3956  1.3255 -0.3734
   46CHL1  H18C 5840   4.360   2.307   8.432 -1.7219 -1.7885 -0.3763
   46CHL1   C12 5841   4.054   2.316   8.603 -0.8730 -0.9262 -0.1855
   46CHL1  H12A 5842   4.009   2.390   8.533  0.9081  0.7217  0.3194
   46CHL1  H12B 5843   3.982   2.232   8.613 -3.0527  0.8463 -0.0079
   46CHL1   C11 5844   4.098   2.376   8.739  1.2993 -0.4589  0.4286
   46CHL1  H11A 5845   4.169   2.458   8.716  0.2714  0.1615 -0.6230
   46CHL1  H11B 5846   4.016   2.437   8.782  0.3622  0.3164 -2.2498
   46CHL1    C9 5847   4.171   2.279   8.827 -0.2671  0.3479  0.8395
   46CHL1    H9 5848   4.100   2.196   8.847 -0.5490  0.7713  1.6427
   46CHL1   C10 5849   4.208   2.326   8.974  0.0093  0.0336  0.0763
   46CHL1   C19 5850   4.278   2.456   8.957  0.0026 -0.7987  0.1099
   46CHL1  H19A 5851   4.204   2.532   8.925  0.6532  0.9087  2.4462
   46CHL1  H19B 5852   4.319   2.505   9.048 -2.0948  0.1611  0.5982
   46CHL1  H19C 5853   4.357   2.461   8.878  0.2735 -0.6878  0.3863
   46CHL1    C1 5854   4.084   2.326   9.072  0.1577 -0.2699 -0.1443
   46CHL1   H1A 5855   4.011   2.399   9.031  0.7719  1.0285  1.0028
   46CHL1   H1B 5856   4.035   2.226   9.070  0.7296 -0.5898  1.0980
   46CHL1    C2 5857   4.118   2.359   9.221  0.1057 -0.2855 -0.0633
   46CHL1   H2A 5858   4.024   2.336   9.276  0.8917 -2.2794  0.5188
   46CHL1   H2B 5859   4.148   2.465   9.237 -1.6419  0.1627  0.4701
   46CHL1   C20 5860   4.093   2.226   8.288 -0.2480  0.6665  0.5874
   46CHL1   H20 5861   4.033   2.314   8.321 -2.5888 -0.1174 -1.3776
   46CHL1   C21 5862   3.987   2.130   8.229  0.2140 -0.2597  0.0018
   46CHL1  H21A 5863   3.972   2.134   8.119 -0.3485 -2.9216 -0.0768
   46CHL1  H21B 5864   3.889   2.143   8.279  1.0192  0.9112  1.3600
   46CHL1  H21C 5865   4.007   2.023   8.248 -0.8985 -0.2925  1.0942
   46CHL1   C22 5866   4.189   2.273   8.170 -0.4870  0.0000 -0.2671
   46CHL1  H22A 5867   4.280   2.318   8.214 -0.9402 -0.3467  1.0478
   46CHL1  H22B 5868   4.208   2.178   8.116 -1.1574 -0.0911 -0.3636
   46CHL1   C23 5869   4.133   2.370   8.069  1.1108 -0.4068 -0.1641
   46CHL1  H23A 5870   4.046   2.326   8.015  0.3243  1.8092 -0.8091
   46CHL1  H23B 5871   4.088   2.460   8.115 -1.8520 -2.7292  1.8612
   46CHL1   C24 5872   4.239   2.416   7.966  0.4143  0.2261 -0.4745
   46CHL1  H24A 5873   4.327   2.459   8.020 -0.3330 -0.2428  1.1893
   46CHL1  H24B 5874   4.284   2.331   7.911  1.1862  1.2677 -1.5015
   46CHL1   C25 5875   4.179   2.510   7.858  0.2159 -0.0324 -0.4261
   46CHL1   H25 5876   4.104   2.573   7.911  0.7265 -0.2819  0.6184
   46CHL1   C26 5877   4.289   2.587   7.791 -1.1511 -0.5488 -0.1721
   46CHL1  H26A 5878   4.255   2.646   7.703 -0.6061  0.2021  0.1069
   46CHL1  H26B 5879   4.349   2.656   7.854 -1.8761  1.0164 -1.1435
   46CHL1  H26C 5880   4.363   2.512   7.755  0.2328  0.6080  0.1456
   46CHL1   C27 5881   4.109   2.434   7.747  0.0785  0.3365 -0.6437
   46CHL1  H27A 5882   4.067   2.500   7.668 -1.5950  1.2694  0.9454
   46CHL1  H27B 5883   4.188   2.370   7.704  1.0262  1.1202 -0.1235
   46CHL1  H27C 5884   4.027   2.377   7.796  0.6667 -0.0067 -0.0450
   47CHL1    C3 5885   4.440   5.103   9.403  0.2880  0.1018 -0.5417
   47CHL1    H3 5886   4.347   5.164   9.408 -1.4937 -2.3173 -1.9339
   47CHL1    O3 5887   4.496   5.069   9.528  0.1221 -0.0573  0.1138
   47CHL1   H3' 5888   4.586   5.037   9.518  0.7640  1.3252  1.1229
   47CHL1    C4 5889   4.387   4.974   9.331  1.2176  0.3718 -0.0620
   47CHL1   H4A 5890   4.463   4.897   9.356  0.9982 -0.2149 -1.1505
   47CHL1   H4B 5891   4.296   4.947   9.389 -0.4594  0.1853 -2.6447
   47CHL1    C5 5892   4.346   4.972   9.185 -0.4758  0.5293  0.7807
   47CHL1    C6 5893   4.219   4.942   9.142 -0.1163 -0.1479 -0.7143
   47CHL1    H6 5894   4.141   4.904   9.209 -0.0046  0.1807 -0.3925
   47CHL1    C7 5895   4.173   4.958   9.001  0.0534 -0.0101  0.1781
   47CHL1   H7A 5896   4.117   4.869   8.966 -0.1029 -0.1432  0.7529
   47CHL1   H7B 5897   4.098   5.039   9.012 -0.5280 -0.7922  2.4729
   47CHL1    C8 5898   4.283   4.998   8.905  0.0162 -0.0130 -0.4950
   47CHL1    H8 5899   4.332   4.906   8.867 -1.3793 -0.2386 -1.8139
   47CHL1   C14 5900   4.219   5.076   8.794  0.1358  0.2230  0.0162
   47CHL1   H14 5901   4.186   5.177   8.826 -1.1421 -0.6601  1.6204
   47CHL1   C15 5902   4.101   5.010   8.732  0.3077  0.0066  0.1639
   47CHL1  H15A 5903   4.104   4.899   8.731 -0.8903 -0.0437 -0.0973
   47CHL1  H15B 5904   4.017   5.051   8.792  1.5154  0.6335  1.4641
   47CHL1   C16 5905   4.095   5.067   8.592  0.4442 -0.5754  0.3418
   47CHL1  H16A 5906   4.100   4.982   8.521  0.1040 -1.0365  0.8661
   47CHL1  H16B 5907   4.001   5.125   8.580  1.1921  0.2010 -2.6328
   47CHL1   C17 5908   4.216   5.154   8.571  0.8293  0.1672  0.4050
   47CHL1   H17 5909   4.182   5.255   8.603 -2.1164 -0.9122  0.9591
   47CHL1   C13 5910   4.310   5.098   8.676  0.1240 -0.4245 -0.2549
   47CHL1   C18 5911   4.366   4.959   8.622 -0.2067  0.2359 -0.9799
   47CHL1  H18A 5912   4.436   4.918   8.698 -1.6805  1.0639  0.8992
   47CHL1  H18B 5913   4.293   4.878   8.601 -1.3818  0.5469  1.5451
   47CHL1  H18C 5914   4.420   4.966   8.525 -0.2268  0.2536 -0.9899
   47CHL1   C12 5915   4.423   5.198   8.729 -0.0792  0.1669 -0.0394
   47CHL1  H12A 5916   4.506   5.213   8.656 -0.3847  1.3461 -0.1639
   47CHL1  H12B 5917   4.363   5.291   8.734 -1.2389 -0.6199  1.3830
   47CHL1   C11 5918   4.486   5.148   8.855  0.1207 -0.0233 -0.1903
   47CHL1  H11A 5919   4.539   5.054   8.832  0.4099 -0.6617  2.6410
   47CHL1  H11B 5920   4.541   5.228   8.909 -1.1941  0.2199  0.8484
   47CHL1    C9 5921   4.379   5.099   8.965  0.1240  0.0089 -0.1752
   47CHL1    H9 5922   4.324   5.192   8.993  1.2784  0.1143  2.0369
   47CHL1   C10 5923   4.448   5.047   9.102 -0.4376 -0.3514 -0.3815
   47CHL1   C19 5924   4.572   4.952   9.070  0.4417 -0.9506 -0.1454
   47CHL1  H19A 5925   4.542   4.884   8.987  0.6611 -0.6164 -0.5022
   47CHL1  H19B 5926   4.665   5.004   9.039 -0.8759  0.3757 -2.1093
   47CHL1  H19C 5927   4.598   4.884   9.154 -0.8407  0.8889  1.8244
   47CHL1    C1 5928   4.507   5.177   9.176 -0.0209 -0.8392  0.6418
   47CHL1   H1A 5929   4.592   5.216   9.117 -1.0823  1.4384  0.5385
   47CHL1   H1B 5930   4.429   5.256   9.175 -0.5127 -1.3191  0.3266
   47CHL1    C2 5931   4.552   5.152   9.323 -0.1668 -0.1170  0.0775
   47CHL1   H2A 5932   4.594   5.242   9.373 -0.5116  0.7995 -1.2310
   47CHL1   H2B 5933   4.630   5.074   9.314  0.3073  0.1490  1.5707
   47CHL1   C20 5934   4.265   5.172   8.423 -0.9432 -0.1553  0.0774
   47CHL1   H20 5935   4.374   5.192   8.432 -0.9207  0.5291 -1.5533
   47CHL1   C21 5936   4.196   5.296   8.364  0.2683  0.0076  0.4449
   47CHL1  H21A 5937   4.088   5.271   8.359  0.4688 -0.6557 -3.3803
   47CHL1  H21B 5938   4.232   5.327   8.264 -0.5117  0.3320  0.2529
   47CHL1  H21C 5939   4.214   5.380   8.433 -0.3752 -0.5075  1.2589
   47CHL1   C22 5940   4.238   5.054   8.324  0.5512  0.1706  0.7325
   47CHL1  H22A 5941   4.275   4.962   8.373  0.9843  1.0906  2.2150
   47CHL1  H22B 5942   4.129   5.044   8.308  0.7684  1.3430 -2.1113
   47CHL1   C23 5943   4.290   5.068   8.182  0.6224  0.7487  0.5312
   47CHL1  H23A 5944   4.275   5.166   8.132  0.8615 -0.6339 -2.4635
   47CHL1  H23B 5945   4.398   5.043   8.185  0.5045 -0.2249 -1.4946
   47CHL1   C24 5946   4.229   4.962   8.090 -0.0076  0.1254 -0.7762
   47CHL1  H24A 5947   4.253   4.858   8.122  1.7575  1.1147  1.4929
   47CHL1  H24B 5948   4.119   4.975   8.098 -0.0343  1.0931 -2.3632
   47CHL1   C25 5949   4.248   4.981   7.937  0.3328  0.6945 -0.1849
   47CHL1   H25 5950   4.358   4.986   7.921  0.2102 -1.5645 -2.3968
   47CHL1   C26 5951   4.202   4.853   7.862  0.8494  0.1128  0.2450
   47CHL1  H26A 5952   4.255   4.835   7.766  1.8789 -1.5220  1.0877
   47CHL1  H26B 5953   4.091   4.857   7.850  1.0856  0.5711 -2.4369
   47CHL1  H26C 5954   4.215   4.765   7.927 -0.9547 -0.8118 -0.5763
   47CHL1   C27 5955   4.191   5.106   7.884 -0.0050 -0.1639 -0.4390
   47CHL1  H27A 5956   4.237   5.124   7.784  1.1418  0.2018  0.1380
   47CHL1  H27B 5957   4.080   5.112   7.875  0.1447  1.1987 -1.7858
   47CHL1  H27C 5958   4.228   5.190   7.946  1.1496 -0.0858 -1.2035
   48CHL1    C3 5959   5.350   4.345   9.064 -0.5668 -0.4698 -0.1591
   48CHL1    H3 5960   5.273   4.266   9.072 -1.3227 -0.1944 -3.1887
   48CHL1    O3 5961   5.423   4.372   9.184 -0.2355 -0.1897 -0.3116
   48CHL1   H3' 5962   5.463   4.458   9.175  0.6717 -0.3693  1.5150
   48CHL1    C4 5963   5.446   4.307   8.952  0.0665  0.1128  0.7514
   48CHL1   H4A 5964   5.514   4.390   8.925 -2.7852  1.5886 -2.7411
   48CHL1   H4B 5965   5.486   4.208   8.983  2.6589  0.7431 -0.3736
   48CHL1    C5 5966   5.362   4.271   8.827  0.0465  0.0508  0.1229
   48CHL1    C6 5967   5.352   4.150   8.774 -0.3341 -0.8332 -0.7003
   48CHL1    H6 5968   5.412   4.069   8.817  0.6631  0.5534  0.6132
   48CHL1    C7 5969   5.263   4.115   8.659 -0.5069 -0.1540 -0.8002
   48CHL1   H7A 5970   5.322   4.054   8.588  1.0075 -1.8508  1.7291
   48CHL1   H7B 5971   5.176   4.050   8.682  0.1609 -1.2845 -1.3531
   48CHL1    C8 5972   5.209   4.243   8.583  0.0297  0.9868  0.0040
   48CHL1    H8 5973   5.296   4.279   8.524  1.0863  0.2601  1.0950
   48CHL1   C14 5974   5.107   4.198   8.473  0.1325  0.1028 -0.2461
   48CHL1   H14 5975   5.015   4.164   8.525 -1.0281 -0.5321 -2.6030
   48CHL1   C15 5976   5.139   4.088   8.364  0.8424 -0.3076 -0.5486
   48CHL1  H15A 5977   5.243   4.102   8.325  1.2889 -0.3698  0.5771
   48CHL1  H15B 5978   5.137   3.983   8.401  0.4222 -0.5250 -1.1676
   48CHL1   C16 5979   5.030   4.114   8.254 -0.1372 -0.7474  0.2894
   48CHL1  H16A 5980   5.075   4.137   8.155 -1.0956  0.8180  0.1864
   48CHL1  H16B 5981   4.960   4.028   8.262 -1.3396  0.0871 -0.7732
   48CHL1   C17 5982   4.945   4.245   8.298 -0.3913 -0.7383  0.0786
   48CHL1   H17 5983   4.868   4.206   8.367  0.7159 -1.7615  0.7624
   48CHL1   C13 5984   5.049   4.320   8.390  0.1588 -0.2752 -0.4990
   48CHL1   C18 5985   5.163   4.379   8.301 -0.2442 -0.1440 -0.1317
   48CHL1  H18A 5986   5.209   4.303   8.234 -1.6468 -1.8533  0.7689
   48CHL1  H18B 5987   5.119   4.467   8.250  0.0190  1.0347  1.5905
   48CHL1  H18C 5988   5.239   4.435   8.360  0.9718 -2.1278  0.2960
   48CHL1   C12 5989   4.986   4.420   8.491  0.4961  0.8355 -0.0001
   48CHL1  H12A 5990   4.949   4.505   8.430 -0.1923  0.0879 -0.6402
   48CHL1  H12B 5991   4.897   4.375   8.539  0.6029 -0.9547 -1.4025
   48CHL1   C11 5992   5.089   4.474   8.599 -0.1092 -0.2586 -0.1008
   48CHL1  H11A 5993   5.150   4.535   8.529 -0.1581  0.5203  0.5315
   48CHL1  H11B 5994   5.043   4.543   8.673  0.4612  0.6142 -0.5382
   48CHL1    C9 5995   5.156   4.351   8.680  0.5610  0.1429  1.4476
   48CHL1    H9 5996   5.074   4.297   8.733 -2.1293  1.2117 -1.3282
   48CHL1   C10 5997   5.267   4.387   8.778 -0.0800 -0.9383 -0.1805
   48CHL1   C19 5998   5.348   4.501   8.716  0.4695  0.0955 -0.1898
   48CHL1  H19A 5999   5.377   4.465   8.615 -1.2758  0.1654 -0.7395
   48CHL1  H19B 6000   5.292   4.596   8.702  1.9706  0.8586 -1.4259
   48CHL1  H19C 6001   5.438   4.535   8.771  0.4363  0.2423 -0.2266
   48CHL1    C1 6002   5.196   4.443   8.901 -0.3112  0.0686 -0.0059
   48CHL1   H1A 6003   5.139   4.538   8.890 -0.8788 -0.2317  0.2839
   48CHL1   H1B 6004   5.132   4.359   8.934 -0.2549 -0.3639 -0.9886
   48CHL1    C2 6005   5.286   4.472   9.023  0.1175  0.0694 -0.3327
   48CHL1   H2A 6006   5.228   4.519   9.106 -0.2714 -2.2940  0.8192
   48CHL1   H2B 6007   5.356   4.551   8.988  0.3894  0.2622  0.6195
   48CHL1   C20 6008   4.881   4.317   8.179  0.2698 -0.2354  0.2005
   48CHL1   H20 6009   4.955   4.379   8.123 -1.1481 -0.0677 -1.5796
   48CHL1   C21 6010   4.763   4.405   8.231  0.6533 -0.9019  0.4013
   48CHL1  H21A 6011   4.682   4.342   8.275 -1.0775  0.2037 -1.0668
   48CHL1  H21B 6012   4.715   4.445   8.139 -1.8051 -3.1047  0.5623
   48CHL1  H21C 6013   4.800   4.489   8.293  1.9142 -0.2915 -1.1284
   48CHL1   C22 6014   4.825   4.230   8.060 -0.3061 -0.1676  0.1238
   48CHL1  H22A 6015   4.908   4.158   8.048  0.1697 -0.2830  3.1865
   48CHL1  H22B 6016   4.729   4.176   8.077  0.1121 -1.4078 -1.2397
   48CHL1   C23 6017   4.822   4.309   7.923 -0.0030  0.4748 -0.1400
   48CHL1  H23A 6018   4.735   4.378   7.925 -0.5352 -0.1842 -0.0717
   48CHL1  H23B 6019   4.918   4.358   7.896  0.8524 -2.0433 -2.1793
   48CHL1   C24 6020   4.799   4.205   7.809 -0.1280 -0.3454 -0.4054
   48CHL1  H24A 6021   4.883   4.135   7.791  0.4841  0.0237  0.8414
   48CHL1  H24B 6022   4.716   4.134   7.828  0.5857 -1.0499  0.1398
   48CHL1   C25 6023   4.765   4.285   7.684 -0.0654  0.0273 -0.3447
   48CHL1   H25 6024   4.681   4.347   7.722  0.3187 -0.6719  1.8214
   48CHL1   C26 6025   4.877   4.376   7.627  1.0538  0.2636  0.7570
   48CHL1  H26A 6026   4.964   4.314   7.598  0.0723 -0.6881 -0.2203
   48CHL1  H26B 6027   4.840   4.408   7.528 -0.6232  1.5934  1.7491
   48CHL1  H26C 6028   4.896   4.471   7.682 -0.1612  1.2362 -0.4471
   48CHL1   C27 6029   4.715   4.188   7.582  0.5521  0.7823  0.0518
   48CHL1  H27A 6030   4.680   4.238   7.489  0.9551  1.6377  0.3438
   48CHL1  H27B 6031   4.785   4.105   7.560  0.7357 -0.0995  3.3345
   48CHL1  H27C 6032   4.625   4.135   7.619 -0.7889  1.4230 -2.1153
   49CHL1    C3 6033   3.788   1.962   9.468 -1.0435 -0.8959  0.5937
   49CHL1    H3 6034   3.842   1.871   9.501  0.3224  0.0128  0.9148
   49CHL1    O3 6035   3.769   2.047   9.579 -0.2913 -0.0965 -0.2022
   49CHL1   H3' 6036   3.853   2.052   9.625  0.4900 -1.5857 -1.3448
   49CHL1    C4 6037   3.885   2.032   9.381 -0.1688 -0.3370  0.7727
   49CHL1   H4A 6038   3.861   2.138   9.362  0.1329 -0.4911 -0.5303
   49CHL1   H4B 6039   3.982   2.039   9.435  1.3566 -0.0269 -1.8572
   49CHL1    C5 6040   3.906   1.966   9.249 -0.4264  0.1472  0.6413
   49CHL1    C6 6041   4.019   1.908   9.208  0.4609  0.0653 -0.3105
   49CHL1    H6 6042   4.108   1.907   9.273  0.1628  1.1296  0.1518
   49CHL1    C7 6043   4.047   1.862   9.068 -0.3136 -0.5364 -0.0877
   49CHL1   H7A 6044   4.152   1.882   9.038 -0.3853  0.5941  0.3975
   49CHL1   H7B 6045   4.053   1.751   9.073  2.8384 -0.4300  1.0861
   49CHL1    C8 6046   3.937   1.913   8.971  0.7513 -0.3665  0.7890
   49CHL1    H8 6047   3.939   2.021   8.942  0.6858 -0.4954  0.2972
   49CHL1   C14 6048   3.939   1.825   8.847  1.2894 -0.4321 -0.0363
   49CHL1   H14 6049   3.925   1.721   8.884  2.4437 -0.8528 -0.7295
   49CHL1   C15 6050   4.075   1.816   8.776  0.3676  0.6912  0.8198
   49CHL1  H15A 6051   4.135   1.910   8.780 -0.7539  1.5114 -0.4996
   49CHL1  H15B 6052   4.135   1.747   8.839  2.4583  2.6323  1.1085
   49CHL1   C16 6053   4.030   1.757   8.642  0.2864  0.7430 -0.4555
   49CHL1  H16A 6054   4.067   1.815   8.554  0.4005  1.7776  0.2549
   49CHL1  H16B 6055   4.086   1.662   8.638  2.4173  1.8504  1.0083
   49CHL1   C17 6056   3.875   1.728   8.644  1.2799 -0.2530  0.1554
   49CHL1   H17 6057   3.854   1.632   8.695 -1.0981  0.2925  0.3107
   49CHL1   C13 6058   3.834   1.845   8.738  0.1067  0.6654  0.1709
   49CHL1   C18 6059   3.855   1.987   8.661 -0.5738 -0.3706  0.6005
   49CHL1  H18A 6060   3.760   2.022   8.615  1.0116 -0.3226 -2.9941
   49CHL1  H18B 6061   3.898   2.064   8.729  3.6221 -2.8194  1.0714
   49CHL1  H18C 6062   3.925   1.990   8.575  0.4039 -0.8525  1.3513
   49CHL1   C12 6063   3.692   1.832   8.796  0.2884  0.0240 -0.2527
   49CHL1  H12A 6064   3.622   1.877   8.724 -1.8603  0.8030  2.1614
   49CHL1  H12B 6065   3.663   1.725   8.806 -2.3703  0.7380  0.2836
   49CHL1   C11 6066   3.682   1.923   8.920 -0.6726 -0.2352  1.4017
   49CHL1  H11A 6067   3.699   2.030   8.898  0.3592 -0.6495  0.0274
   49CHL1  H11B 6068   3.579   1.919   8.962 -1.1301  1.3064  0.5151
   49CHL1    C9 6069   3.790   1.892   9.027 -0.3374 -0.1822 -1.2885
   49CHL1    H9 6070   3.784   1.786   9.058 -1.7940  0.1087 -0.5104
   49CHL1   C10 6071   3.774   1.965   9.162 -0.5357 -0.4251  0.1742
   49CHL1   C19 6072   3.729   2.116   9.131  0.2117 -0.3248  0.1190
   49CHL1  H19A 6073   3.717   2.177   9.223 -0.7029  1.3047 -1.0274
   49CHL1  H19B 6074   3.803   2.160   9.061 -0.9806 -1.6746 -2.1057
   49CHL1  H19C 6075   3.633   2.115   9.075 -0.4524 -1.9050  1.2301
   49CHL1    C1 6076   3.670   1.893   9.254 -0.4645 -0.4783  0.8891
   49CHL1   H1A 6077   3.567   1.909   9.215  0.1915  2.9164  0.2209
   49CHL1   H1B 6078   3.687   1.783   9.263 -0.8509 -0.6682 -0.4423
   49CHL1    C2 6079   3.656   1.946   9.394  0.5078  0.4413 -0.2846
   49CHL1   H2A 6080   3.594   1.881   9.459  1.3644  1.9832  2.1823
   49CHL1   H2B 6081   3.600   2.042   9.394  1.1490  0.8233 -0.7024
   49CHL1   C20 6082   3.805   1.721   8.505  0.1389  0.2362 -0.1460
   49CHL1   H20 6083   3.804   1.824   8.463 -0.2655 -0.1879 -1.2005
   49CHL1   C21 6084   3.656   1.676   8.520  0.1638  0.4288 -0.6211
   49CHL1  H21A 6085   3.599   1.755   8.575  2.6908  1.4342  0.6964
   49CHL1  H21B 6086   3.649   1.582   8.579 -0.1513  0.7939 -0.0606
   49CHL1  H21C 6087   3.608   1.660   8.421  0.3208 -0.0730 -0.6146
   49CHL1   C22 6088   3.876   1.628   8.404 -0.2562  0.2468  0.8293
   49CHL1  H22A 6089   3.979   1.667   8.387 -0.9349  1.2519 -1.5568
   49CHL1  H22B 6090   3.877   1.525   8.443 -0.4993 -0.8328 -1.7851
   49CHL1   C23 6091   3.817   1.631   8.260  1.1172 -0.2735 -0.2212
   49CHL1  H23A 6092   3.707   1.619   8.259  1.0058  0.0602  2.1498
   49CHL1  H23B 6093   3.838   1.736   8.230  1.0932 -0.7257 -1.9142
   49CHL1   C24 6094   3.886   1.540   8.164 -0.2160  0.7058  0.8368
   49CHL1  H24A 6095   3.996   1.558   8.163 -0.1017  0.1466  1.8915
   49CHL1  H24B 6096   3.891   1.434   8.196  1.8227 -0.2257 -2.1012
   49CHL1   C25 6097   3.830   1.539   8.021  0.8903  0.5892 -0.5785
   49CHL1   H25 6098   3.720   1.551   8.023  0.8493  1.5609 -3.6805
   49CHL1   C26 6099   3.871   1.668   7.949  0.3540  0.5284  0.2430
   49CHL1  H26A 6100   3.982   1.671   7.946  0.3592  2.1252  0.8399
   49CHL1  H26B 6101   3.849   1.668   7.840  1.2600 -0.5475  0.0452
   49CHL1  H26C 6102   3.825   1.759   7.995 -0.2884  0.9079 -1.0790
   49CHL1   C27 6103   3.863   1.420   7.929  0.9542 -0.0724  0.4343
   49CHL1  H27A 6104   3.972   1.409   7.910  0.9104  2.2326 -1.7592
   49CHL1  H27B 6105   3.823   1.323   7.967  1.6435 -0.5346 -0.0087
   49CHL1  H27C 6106   3.808   1.428   7.833 -0.7599  2.0020  1.4913
   50CHL1    C3 6107   1.424   3.771   9.349  0.1930  0.0225  0.4598
   50CHL1    H3 6108   1.352   3.844   9.307  1.2778  0.7390 -0.2320
   50CHL1    O3 6109   1.430   3.798   9.489  0.2053  0.3905  0.4296
   50CHL1   H3' 6110   1.363   3.743   9.530 -0.1499  0.2670 -0.2860
   50CHL1    C4 6111   1.378   3.628   9.319  0.7774  0.2733 -0.4420
   50CHL1   H4A 6112   1.449   3.564   9.375  2.7071 -0.5211 -3.5244
   50CHL1   H4B 6113   1.278   3.605   9.362  0.2009 -0.0531 -1.8903
   50CHL1    C5 6114   1.384   3.587   9.174 -0.2286  0.3484 -0.6773
   50CHL1    C6 6115   1.282   3.550   9.099  0.4315  0.3984 -1.2703
   50CHL1    H6 6116   1.184   3.526   9.141  0.5868 -0.1598 -1.2215
   50CHL1    C7 6117   1.268   3.529   8.954 -0.3125  0.0639  0.9643
   50CHL1   H7A 6118   1.192   3.455   8.922 -0.6665  1.2508 -1.1244
   50CHL1   H7B 6119   1.237   3.626   8.909 -1.7816 -0.3665  0.9974
   50CHL1    C8 6120   1.409   3.495   8.904 -0.5243  0.5022 -0.4683
   50CHL1    H8 6121   1.421   3.391   8.941  1.6670  1.1481  0.8437
   50CHL1   C14 6122   1.415   3.489   8.750  0.3027  0.0093 -0.0079
   50CHL1   H14 6123   1.393   3.592   8.715  0.8589  0.1384  0.0240
   50CHL1   C15 6124   1.309   3.401   8.683 -0.0465 -0.0494 -0.6634
   50CHL1  H15A 6125   1.294   3.308   8.742  2.6540 -0.6931 -0.8388
   50CHL1  H15B 6126   1.212   3.452   8.669 -0.5612 -0.2227  1.8567
   50CHL1   C16 6127   1.369   3.360   8.539  0.1463 -0.4098 -0.0728
   50CHL1  H16A 6128   1.362   3.250   8.526  0.3035 -0.5034  0.6093
   50CHL1  H16B 6129   1.309   3.405   8.457  0.3076 -2.0928 -1.1783
   50CHL1   C17 6130   1.511   3.424   8.534  0.1755  0.9016 -0.2758
   50CHL1   H17 6131   1.492   3.524   8.489 -0.5253  1.4506  1.1668
   50CHL1   C13 6132   1.552   3.455   8.690 -0.3460 -0.5559  0.6730
   50CHL1   C18 6133   1.601   3.322   8.739 -0.1201  0.1430 -0.9480
   50CHL1  H18A 6134   1.697   3.310   8.683 -0.1200  0.6712 -1.0577
   50CHL1  H18B 6135   1.627   3.328   8.847  1.0038  0.4564 -1.2206
   50CHL1  H18C 6136   1.523   3.244   8.725 -0.0390 -0.1423  0.1018
   50CHL1   C12 6137   1.649   3.573   8.721  0.0753  0.0508  0.3081
   50CHL1  H12A 6138   1.750   3.551   8.680  0.5210  2.8734 -0.3420
   50CHL1  H12B 6139   1.602   3.664   8.677 -0.1444 -0.3844 -0.3671
   50CHL1   C11 6140   1.657   3.582   8.872 -0.9991 -0.4033  0.2529
   50CHL1  H11A 6141   1.728   3.509   8.916 -0.6963 -0.8206 -0.8935
   50CHL1  H11B 6142   1.708   3.678   8.896 -1.4073 -0.0200 -0.4029
   50CHL1    C9 6143   1.522   3.589   8.949  0.0240  0.0422 -0.0459
   50CHL1    H9 6144   1.476   3.684   8.912 -0.0489 -0.2304 -0.6693
   50CHL1   C10 6145   1.525   3.616   9.105  0.1487  0.8816  0.1759
   50CHL1   C19 6146   1.623   3.515   9.160 -0.0528 -0.4133 -0.1768
   50CHL1  H19A 6147   1.606   3.411   9.124 -0.5279 -1.4695  2.7824
   50CHL1  H19B 6148   1.718   3.557   9.121 -0.4567  0.9360  0.2166
   50CHL1  H19C 6149   1.639   3.516   9.270 -0.3327  2.8261 -0.0693
   50CHL1    C1 6150   1.574   3.761   9.138 -0.3013 -0.3838  0.5369
   50CHL1   H1A 6151   1.679   3.780   9.106 -0.6306  0.8081  0.1042
   50CHL1   H1B 6152   1.509   3.831   9.081  2.1620  1.5947  0.0041
   50CHL1    C2 6153   1.568   3.790   9.290  0.1074 -0.6955  0.0420
   50CHL1   H2A 6154   1.607   3.893   9.306 -0.8557 -0.5750  1.9937
   50CHL1   H2B 6155   1.633   3.723   9.351 -1.2115 -0.4032  1.8380
   50CHL1   C20 6156   1.604   3.353   8.429  0.0688 -0.3101 -1.0599
   50CHL1   H20 6157   1.550   3.359   8.332 -2.2205 -1.5776  0.0556
   50CHL1   C21 6158   1.630   3.199   8.461 -0.2724 -0.3682  0.4399
   50CHL1  H21A 6159   1.544   3.138   8.496 -0.4204 -0.2144  0.3502
   50CHL1  H21B 6160   1.707   3.195   8.540  2.3983 -0.5528 -2.0018
   50CHL1  H21C 6161   1.662   3.153   8.365  0.4110  0.2672  0.3567
   50CHL1   C22 6162   1.740   3.429   8.396  0.5555  0.4346 -0.5049
   50CHL1  H22A 6163   1.707   3.533   8.378  0.2912  0.6230  0.9699
   50CHL1  H22B 6164   1.805   3.435   8.486 -2.0338 -0.1009  1.5168
   50CHL1   C23 6165   1.798   3.383   8.261  0.1170  0.0485 -0.2434
   50CHL1  H23A 6166   1.812   3.273   8.262  1.1652  0.1799  0.5146
   50CHL1  H23B 6167   1.720   3.401   8.183  0.9514  3.2956 -0.4486
   50CHL1   C24 6168   1.918   3.448   8.207  0.7514 -0.2192 -0.0212
   50CHL1  H24A 6169   1.914   3.555   8.237  1.3990  0.4271 -2.0968
   50CHL1  H24B 6170   2.016   3.403   8.236  2.5458  3.1331 -0.4511
   50CHL1   C25 6171   1.921   3.440   8.053  0.2063 -0.4790  0.2408
   50CHL1   H25 6172   1.819   3.469   8.019  0.8779  1.2127 -0.4000
   50CHL1   C26 6173   2.019   3.553   8.004 -0.2490  0.7617 -0.1266
   50CHL1  H26A 6174   2.123   3.530   8.038 -0.9437 -0.4096  1.3167
   50CHL1  H26B 6175   2.022   3.557   7.893 -0.0090 -1.9949 -0.2878
   50CHL1  H26C 6176   2.005   3.654   8.048 -0.4896 -0.2416  2.2652
   50CHL1   C27 6177   1.965   3.305   7.997  0.5558  0.1212  0.5372
   50CHL1  H27A 6178   1.888   3.232   8.028  1.5270 -0.6262  1.2854
   50CHL1  H27B 6179   1.950   3.307   7.888 -2.6097 -1.8655  0.8334
   50CHL1  H27C 6180   2.067   3.272   8.030  0.0741 -0.7488  1.2031
   51CHL1    C3 6181   2.065   5.382   9.480  0.3213  0.0992  0.1033
   51CHL1    H3 6182   1.974   5.446   9.487  1.0455  1.0380  1.6737
   51CHL1    O3 6183   2.100   5.360   9.618 -0.1101  0.1327  0.0690
   51CHL1   H3' 6184   2.192   5.335   9.615  0.4586  2.1425 -0.0067
   51CHL1    C4 6185   2.057   5.250   9.401  0.5091 -0.1952 -0.9270
   51CHL1   H4A 6186   2.162   5.213   9.392  0.2215 -1.2311 -0.1497
   51CHL1   H4B 6187   1.990   5.173   9.443 -0.3014  1.5228  1.1136
   51CHL1    C5 6188   2.013   5.288   9.263  0.5887 -0.0915  0.0100
   51CHL1    C6 6189   1.902   5.231   9.213  0.5456 -0.4274 -0.2929
   51CHL1    H6 6190   1.848   5.157   9.272  0.7093  0.2815  0.7701
   51CHL1    C7 6191   1.865   5.244   9.066 -0.3458  0.0498  0.3663
   51CHL1   H7A 6192   1.856   5.145   9.017 -1.9312  1.1043 -1.5964
   51CHL1   H7B 6193   1.769   5.299   9.052  0.6926  1.3014 -2.4829
   51CHL1    C8 6194   1.976   5.322   8.979 -0.3239 -0.2837 -0.0399
   51CHL1    H8 6195   2.049   5.241   8.954 -2.8273 -3.4243  1.9825
   51CHL1   C14 6196   1.906   5.382   8.859 -0.1386  0.0142  0.1603
   51CHL1   H14 6197   1.838   5.459   8.901 -1.4214  1.0051 -3.3890
   51CHL1   C15 6198   1.816   5.295   8.773  0.9344  0.1247  0.9770
   51CHL1  H15A 6199   1.863   5.197   8.748  1.6907  1.1320 -1.9661
   51CHL1  H15B 6200   1.710   5.286   8.803  0.9666 -1.8957  0.6188
   51CHL1   C16 6201   1.819   5.368   8.641  0.1530 -0.9022 -0.1821
   51CHL1  H16A 6202   1.877   5.312   8.565  1.3450 -1.6611  1.2380
   51CHL1  H16B 6203   1.716   5.370   8.599  0.1260 -1.0675 -0.1276
   51CHL1   C17 6204   1.911   5.496   8.653 -0.1575  0.1778 -0.0859
   51CHL1   H17 6205   1.846   5.580   8.687 -0.6277  0.0140 -0.5693
   51CHL1   C13 6206   2.003   5.459   8.771  0.5399 -0.0780 -0.0852
   51CHL1   C18 6207   2.117   5.364   8.725  0.1681  0.0180 -0.3984
   51CHL1  H18A 6208   2.180   5.324   8.807 -1.1937 -0.2409  0.5516
   51CHL1  H18B 6209   2.082   5.278   8.665  1.6288 -0.7986 -0.1215
   51CHL1  H18C 6210   2.190   5.420   8.662  1.1256  0.8238  1.3328
   51CHL1   C12 6211   2.045   5.578   8.857 -0.3613 -0.0438  0.4799
   51CHL1  H12A 6212   2.106   5.655   8.803 -0.3035 -0.2820  0.2042
   51CHL1  H12B 6213   1.955   5.636   8.884  0.0255  1.5729 -1.4083
   51CHL1   C11 6214   2.115   5.543   8.990  0.4908 -0.2786 -0.1250
   51CHL1  H11A 6215   2.214   5.496   8.973  1.2683  0.8974  0.9488
   51CHL1  H11B 6216   2.135   5.639   9.043 -1.3044 -0.4781  0.9800
   51CHL1    C9 6217   2.030   5.441   9.064 -0.4829 -0.0842 -0.2199
   51CHL1    H9 6218   1.947   5.507   9.099  0.0032  0.2220  0.3600
   51CHL1   C10 6219   2.102   5.385   9.190  0.0176  0.3769 -0.7046
   51CHL1   C19 6220   2.240   5.319   9.141  0.0139  1.0792  0.7894
   51CHL1  H19A 6221   2.281   5.263   9.228 -1.7984 -1.0250  0.3689
   51CHL1  H19B 6222   2.228   5.260   9.047  0.0263 -0.3602  1.6652
   51CHL1  H19C 6223   2.311   5.400   9.112 -0.2002  1.1620  0.4913
   51CHL1    C1 6224   2.129   5.503   9.285  0.2419 -0.5291 -0.9402
   51CHL1   H1A 6225   2.196   5.580   9.241  0.6366 -0.0258  0.4690
   51CHL1   H1B 6226   2.034   5.559   9.290  0.4979 -0.1620  0.3399
   51CHL1    C2 6227   2.174   5.470   9.426  0.3352 -1.1503 -0.1764
   51CHL1   H2A 6228   2.187   5.557   9.493 -0.2311 -2.5291  1.8062
   51CHL1   H2B 6229   2.272   5.417   9.425  0.7215 -0.4401 -0.0493
   51CHL1   C20 6230   1.974   5.546   8.518 -0.2286  0.6283  0.0102
   51CHL1   H20 6231   2.030   5.465   8.466  0.5432  1.4429 -0.4567
   51CHL1   C21 6232   2.094   5.646   8.539 -0.2598  0.1916 -0.6522
   51CHL1  H21A 6233   2.151   5.661   8.445  0.9109 -1.1823 -0.2083
   51CHL1  H21B 6234   2.162   5.604   8.616 -2.1918 -1.0738  0.4321
   51CHL1  H21C 6235   2.055   5.742   8.578  1.6736  0.4747  0.7302
   51CHL1   C22 6236   1.878   5.589   8.410 -0.2977  0.0396  0.5970
   51CHL1  H22A 6237   1.789   5.522   8.418 -0.2219 -0.0508  0.6979
   51CHL1  H22B 6238   1.827   5.685   8.432  2.6680  2.2571 -1.4832
   51CHL1   C23 6239   1.946   5.619   8.275  0.1483  0.2550  0.4570
   51CHL1  H23A 6240   2.025   5.696   8.287 -1.0062  1.5954 -0.3102
   51CHL1  H23B 6241   1.999   5.529   8.236 -0.3416  1.0773 -2.2758
   51CHL1   C24 6242   1.852   5.680   8.168 -0.1702 -0.4424  0.4466
   51CHL1  H24A 6243   1.806   5.770   8.215  0.4941 -0.4106  1.0433
   51CHL1  H24B 6244   1.910   5.719   8.081  0.1437  0.4697  1.0425
   51CHL1   C25 6245   1.736   5.594   8.120 -0.0610  0.5037  0.2426
   51CHL1   H25 6246   1.696   5.541   8.209 -1.0126  0.8686  0.0490
   51CHL1   C26 6247   1.623   5.679   8.055  0.3094 -0.1233  0.0497
   51CHL1  H26A 6248   1.587   5.757   8.126  0.7256 -1.4904  1.8424
   51CHL1  H26B 6249   1.644   5.711   7.951 -3.4245  1.6760 -0.3409
   51CHL1  H26C 6250   1.533   5.615   8.043  1.3229 -2.4866  3.3997
   51CHL1   C27 6251   1.792   5.478   8.021 -0.0901 -0.3429 -0.5713
   51CHL1  H27A 6252   1.873   5.417   8.066 -0.5608 -0.8629 -0.4257
   51CHL1  H27B 6253   1.714   5.401   8.002 -0.5307  0.1569 -0.8436
   51CHL1  H27C 6254   1.821   5.538   7.931 -1.0247 -0.4160 -0.9343
   52CHL1    C3 6255   5.803   2.381   9.272  0.6315  0.4884  0.0037
   52CHL1    H3 6256   5.761   2.460   9.337  1.1618  0.6416  0.1654
   52CHL1    O3 6257   5.836   2.273   9.352  0.0251  0.1032 -0.0622
   52CHL1   H3' 6258   5.869   2.210   9.288  0.7448  0.6304 -0.2281
   52CHL1    C4 6259   5.706   2.329   9.166  0.4958  0.1304  0.2182
   52CHL1   H4A 6260   5.756   2.244   9.116 -0.0603 -0.8685  1.3103
   52CHL1   H4B 6261   5.614   2.298   9.221  1.3240  0.5792  1.9289
   52CHL1    C5 6262   5.665   2.435   9.068  0.2986 -0.3377 -0.7938
   52CHL1    C6 6263   5.535   2.468   9.059 -0.3864 -0.7076  0.0085
   52CHL1    H6 6264   5.457   2.418   9.118 -0.3787 -0.2929  0.3856
   52CHL1    C7 6265   5.492   2.576   8.970 -0.2633 -1.0363 -0.5125
   52CHL1   H7A 6266   5.407   2.545   8.905 -2.3372  1.0254  1.0168
   52CHL1   H7B 6267   5.459   2.663   9.032  1.7959  0.4038 -1.3168
   52CHL1    C8 6268   5.596   2.639   8.876  0.0708  0.0615 -0.5462
   52CHL1    H8 6269   5.595   2.569   8.790 -3.8162  0.1543 -0.7588
   52CHL1   C14 6270   5.549   2.773   8.831 -0.3329 -0.4409  0.4579
   52CHL1   H14 6271   5.559   2.833   8.924  1.2928 -1.2736  0.8591
   52CHL1   C15 6272   5.409   2.792   8.766  0.2259  0.1010 -0.2823
   52CHL1  H15A 6273   5.389   2.713   8.690 -0.1284  1.4521 -1.6306
   52CHL1  H15B 6274   5.336   2.792   8.850  1.4590 -1.7512  0.8683
   52CHL1   C16 6275   5.417   2.921   8.692 -0.4404 -0.2864 -0.1927
   52CHL1  H16A 6276   5.406   2.888   8.586  1.4679 -3.1410  0.3756
   52CHL1  H16B 6277   5.349   3.006   8.712  0.8161  1.0026 -1.1876
   52CHL1   C17 6278   5.566   2.972   8.710  1.1056  0.2740 -0.4965
   52CHL1   H17 6279   5.561   3.022   8.809  2.0657 -0.3937 -0.1074
   52CHL1   C13 6280   5.645   2.840   8.734 -0.0142  0.2191 -0.4249
   52CHL1   C18 6281   5.659   2.762   8.596  0.9658  0.1755 -0.2907
   52CHL1  H18A 6282   5.690   2.657   8.618 -0.3807 -0.0759  0.5724
   52CHL1  H18B 6283   5.559   2.759   8.548  0.3039 -0.2299  1.0393
   52CHL1  H18C 6284   5.735   2.817   8.537 -0.3475  2.1808 -0.2169
   52CHL1   C12 6285   5.781   2.855   8.800  0.0199 -0.4965 -0.3072
   52CHL1  H12A 6286   5.851   2.908   8.732 -0.8422  0.2830 -0.6046
   52CHL1  H12B 6287   5.759   2.910   8.893  0.0793 -0.5787 -0.2446
   52CHL1   C11 6288   5.834   2.718   8.848  0.8260  0.0004  0.7554
   52CHL1  H11A 6289   5.854   2.656   8.758  1.1630 -1.6743  1.9353
   52CHL1  H11B 6290   5.929   2.740   8.903  1.2204  1.2176 -0.3566
   52CHL1    C9 6291   5.730   2.649   8.942  0.1652  0.2857 -0.5046
   52CHL1    H9 6292   5.711   2.720   9.025  1.8913 -1.3042  1.3601
   52CHL1   C10 6293   5.781   2.516   9.006  0.2350 -0.2241 -0.1720
   52CHL1   C19 6294   5.829   2.424   8.898  0.0809 -0.1309 -0.3532
   52CHL1  H19A 6295   5.844   2.319   8.932  1.6348 -0.4768 -1.9065
   52CHL1  H19B 6296   5.761   2.422   8.810 -1.4664 -0.6648  0.8187
   52CHL1  H19C 6297   5.929   2.462   8.865  0.1805  0.0222  0.1238
   52CHL1    C1 6298   5.895   2.554   9.118  0.8182 -0.0284 -0.6565
   52CHL1   H1A 6299   5.987   2.605   9.081  0.7835 -0.1897 -0.9698
   52CHL1   H1B 6300   5.843   2.619   9.192 -0.7233 -1.3588 -0.4990
   52CHL1    C2 6301   5.926   2.435   9.216  0.9007  0.8213  0.0840
   52CHL1   H2A 6302   5.994   2.470   9.296  0.7387  0.2735  0.4685
   52CHL1   H2B 6303   5.983   2.353   9.166 -0.1627  1.1963 -1.8480
   52CHL1   C20 6304   5.626   3.070   8.613 -0.7063  0.1795 -0.2297
   52CHL1   H20 6305   5.735   3.053   8.599 -0.5786 -1.9436  2.4751
   52CHL1   C21 6306   5.606   3.203   8.672 -0.1646 -0.6294  0.3045
   52CHL1  H21A 6307   5.498   3.228   8.682 -0.6859 -2.0612 -1.2289
   52CHL1  H21B 6308   5.644   3.285   8.608 -0.2223 -0.9187 -0.1043
   52CHL1  H21C 6309   5.660   3.211   8.769  1.0502  2.1737 -0.5224
   52CHL1   C22 6310   5.570   3.076   8.463  0.4158 -0.5612  0.4286
   52CHL1  H22A 6311   5.554   2.971   8.432  0.2197 -0.8216  1.3608
   52CHL1  H22B 6312   5.475   3.133   8.468 -0.2874 -1.7469  1.3114
   52CHL1   C23 6313   5.671   3.139   8.359 -0.0835 -0.4826 -0.8460
   52CHL1  H23A 6314   5.738   3.202   8.421 -0.8808 -2.1478  1.8778
   52CHL1  H23B 6315   5.727   3.052   8.319 -0.9545  0.4496 -4.4454
   52CHL1   C24 6316   5.612   3.227   8.254  0.4094  0.7621  0.3808
   52CHL1  H24A 6317   5.544   3.294   8.311 -0.8976  0.0458 -0.2687
   52CHL1  H24B 6318   5.697   3.271   8.196  1.2818 -2.3733 -0.9101
   52CHL1   C25 6319   5.514   3.151   8.157  0.3167 -0.7984 -0.9019
   52CHL1   H25 6320   5.425   3.113   8.213  0.6741 -1.4156 -0.7443
   52CHL1   C26 6321   5.454   3.240   8.050  0.5821  0.1787  0.6385
   52CHL1  H26A 6322   5.367   3.188   8.003  1.1406 -0.3318  0.1644
   52CHL1  H26B 6323   5.407   3.333   8.088 -1.0091  0.5878 -2.0634
   52CHL1  H26C 6324   5.532   3.274   7.980 -0.8844 -0.4432 -1.4087
   52CHL1   C27 6325   5.570   3.029   8.094 -0.2899  0.0440 -0.2627
   52CHL1  H27A 6326   5.484   2.985   8.039  0.0063  0.4468 -1.0486
   52CHL1  H27B 6327   5.639   3.062   8.014  0.6455  0.5500  0.7315
   52CHL1  H27C 6328   5.616   2.953   8.161  1.0993  0.5277 -0.6430
   53CHL1    C3 6329   6.693   3.139   9.438  0.9414  0.7561  0.4722
   53CHL1    H3 6330   6.723   3.042   9.393  1.5105  0.6625  1.0391
   53CHL1    O3 6331   6.689   3.119   9.575  0.6828 -0.0924 -0.5260
   53CHL1   H3' 6332   6.716   3.207   9.602 -0.2830 -0.2461  1.0360
   53CHL1    C4 6333   6.809   3.236   9.396  0.1582  0.0001 -0.1241
   53CHL1   H4A 6334   6.786   3.335   9.441  1.0060 -0.8200  2.2449
   53CHL1   H4B 6335   6.903   3.197   9.439 -0.7666 -0.7504  1.3094
   53CHL1    C5 6336   6.808   3.242   9.244 -0.3431  0.4018 -0.1493
   53CHL1    C6 6337   6.918   3.200   9.176 -0.2073 -0.6595 -0.0707
   53CHL1    H6 6338   7.008   3.168   9.231 -0.8962  0.8277  2.0532
   53CHL1    C7 6339   6.927   3.211   9.024 -0.5655 -0.8882  0.2286
   53CHL1   H7A 6340   7.026   3.248   8.989 -1.1344  0.6688  0.1742
   53CHL1   H7B 6341   6.906   3.109   8.985  2.0378 -0.5105 -2.4537
   53CHL1    C8 6342   6.821   3.315   8.965  0.0381 -0.0523 -0.0645
   53CHL1    H8 6343   6.853   3.418   8.990  2.9904 -0.7827 -0.4612
   53CHL1   C14 6344   6.814   3.292   8.809 -0.7727 -0.4648  0.3083
   53CHL1   H14 6345   6.795   3.184   8.790 -0.5404 -0.6716  1.2094
   53CHL1   C15 6346   6.946   3.315   8.730  0.2466  0.6066 -0.4673
   53CHL1  H15A 6347   7.007   3.396   8.776  1.8306  0.7351 -2.6324
   53CHL1  H15B 6348   7.000   3.218   8.725 -0.3195  0.2785 -0.2902
   53CHL1   C16 6349   6.902   3.345   8.587 -0.1112 -0.7877  0.2111
   53CHL1  H16A 6350   6.938   3.446   8.556 -1.5444 -0.9523 -2.1719
   53CHL1  H16B 6351   6.945   3.278   8.510  1.3958 -0.3558  0.6256
   53CHL1   C17 6352   6.744   3.335   8.584 -0.1024  0.3066 -0.0040
   53CHL1   H17 6353   6.723   3.226   8.582 -0.2198  0.3332 -0.6993
   53CHL1   C13 6354   6.712   3.375   8.729 -0.2944 -0.6689  0.3159
   53CHL1   C18 6355   6.746   3.530   8.750 -0.7070  0.0537 -0.3392
   53CHL1  H18A 6356   6.746   3.544   8.860  1.1073  0.3761 -0.3386
   53CHL1  H18B 6357   6.848   3.559   8.715  0.5246  0.6067  3.3140
   53CHL1  H18C 6358   6.672   3.595   8.699  0.2393 -0.2100 -2.1214
   53CHL1   C12 6359   6.570   3.337   8.780 -0.1685 -0.0377 -0.5014
   53CHL1  H12A 6360   6.508   3.421   8.742 -0.2582 -0.0529 -0.3861
   53CHL1  H12B 6361   6.545   3.236   8.742  1.0559 -0.2967 -0.6843
   53CHL1   C11 6362   6.564   3.343   8.936 -0.3366 -0.2463  0.6218
   53CHL1  H11A 6363   6.566   3.453   8.953  0.1765 -0.1958  0.2458
   53CHL1  H11B 6364   6.471   3.293   8.972  0.3823 -1.1583  1.2364
   53CHL1    C9 6365   6.684   3.279   9.017 -1.0845  0.2928 -0.0234
   53CHL1    H9 6366   6.670   3.173   8.985  1.0283 -0.4516  1.2881
   53CHL1   C10 6367   6.677   3.281   9.173  0.5523 -0.1364 -0.0729
   53CHL1   C19 6368   6.653   3.427   9.216 -0.6913 -0.2512  0.5852
   53CHL1  H19A 6369   6.664   3.439   9.326  0.9034  0.1022  0.4142
   53CHL1  H19B 6370   6.715   3.498   9.158 -1.2525 -0.1504  0.0943
   53CHL1  H19C 6371   6.552   3.463   9.185  1.2549  1.7329 -4.4872
   53CHL1    C1 6372   6.573   3.180   9.217 -0.1986 -0.6203  0.4324
   53CHL1   H1A 6373   6.473   3.211   9.181  0.1218 -1.8866 -1.7481
   53CHL1   H1B 6374   6.599   3.080   9.175 -0.3530  0.1997 -1.7365
   53CHL1    C2 6375   6.551   3.177   9.374 -0.5132  0.1222  0.3839
   53CHL1   H2A 6376   6.482   3.094   9.398  1.0762 -1.1211  0.8251
   53CHL1   H2B 6377   6.519   3.272   9.421  0.7863  0.3608  0.8207
   53CHL1   C20 6378   6.670   3.395   8.455  0.9141  0.1018 -0.1698
   53CHL1   H20 6379   6.729   3.345   8.375 -0.6544 -0.5086 -1.0063
   53CHL1   C21 6380   6.698   3.543   8.433 -0.7010  0.3149 -0.1756
   53CHL1  H21A 6381   6.637   3.593   8.511  1.6784 -1.0645  2.7975
   53CHL1  H21B 6382   6.665   3.584   8.335 -0.2939 -2.0434 -1.3755
   53CHL1  H21C 6383   6.802   3.577   8.451 -1.1480  2.0632 -0.7142
   53CHL1   C22 6384   6.520   3.346   8.441 -0.8388 -0.4755 -0.4236
   53CHL1  H22A 6385   6.528   3.237   8.461  0.9684 -0.2749  0.1630
   53CHL1  H22B 6386   6.466   3.385   8.530  1.0889 -2.0994  1.5745
   53CHL1   C23 6387   6.452   3.382   8.309  1.0317  0.5449 -0.2293
   53CHL1  H23A 6388   6.359   3.321   8.315  0.8386  0.9698  1.4542
   53CHL1  H23B 6389   6.411   3.485   8.306 -0.8743 -0.1920 -1.1712
   53CHL1   C24 6390   6.530   3.346   8.186  0.6988 -0.0160  0.9071
   53CHL1  H24A 6391   6.466   3.381   8.102 -2.0346  1.0015  3.2377
   53CHL1  H24B 6392   6.631   3.393   8.183  0.1845  1.1151 -1.0612
   53CHL1   C25 6393   6.558   3.194   8.160 -0.1306 -0.0523 -1.2392
   53CHL1   H25 6394   6.626   3.161   8.241 -0.4921 -1.6370 -1.5350
   53CHL1   C26 6395   6.426   3.120   8.160 -0.9241 -0.5407  0.2507
   53CHL1  H26A 6396   6.444   3.016   8.123 -2.2594 -0.3129 -1.1457
   53CHL1  H26B 6397   6.385   3.108   8.263  1.0508 -0.8879  1.0480
   53CHL1  H26C 6398   6.354   3.165   8.089  1.0549 -2.5167 -3.3358
   53CHL1   C27 6399   6.619   3.199   8.020  0.0890  0.2598 -0.1182
   53CHL1  H27A 6400   6.554   3.254   7.949 -0.0428 -0.9853 -1.0007
   53CHL1  H27B 6401   6.712   3.258   8.035  0.1794  0.1029 -0.0573
   53CHL1  H27C 6402   6.641   3.099   7.977  0.7777  0.7757 -1.0096
   54CHL1    C3 6403   6.502   4.245   9.445 -0.7408 -0.3014 -0.2798
   54CHL1    H3 6404   6.399   4.253   9.403 -0.6828 -0.3571 -0.4331
   54CHL1    O3 6405   6.510   4.277   9.583  0.6723 -0.6933 -0.6740
   54CHL1   H3' 6406   6.603   4.262   9.600  0.6860 -0.5787 -0.6479
   54CHL1    C4 6407   6.567   4.106   9.413  0.0743  0.2216  0.4707
   54CHL1   H4A 6408   6.658   4.105   9.477 -0.3984 -0.6252  1.1540
   54CHL1   H4B 6409   6.502   4.026   9.455 -2.4566  0.9793 -1.7067
   54CHL1    C5 6410   6.603   4.086   9.268 -0.2405  0.2631  0.4415
   54CHL1    C6 6411   6.557   3.980   9.202  0.4171  0.2544 -0.1473
   54CHL1    H6 6412   6.514   3.891   9.252 -0.8612 -0.4379 -2.3351
   54CHL1    C7 6413   6.591   3.950   9.054 -0.3142 -0.2542  0.4837
   54CHL1   H7A 6414   6.614   3.843   9.038  1.1455  0.5399 -4.1930
   54CHL1   H7B 6415   6.508   3.953   8.981  1.6916 -1.8236 -2.0422
   54CHL1    C8 6416   6.698   4.048   8.999 -0.4231 -0.4182  0.7284
   54CHL1    H8 6417   6.801   4.024   9.032  0.1474 -1.3621 -1.5985
   54CHL1   C14 6418   6.690   4.049   8.850 -0.1783  0.8535  0.2278
   54CHL1   H14 6419   6.589   4.084   8.818 -0.5926 -0.3094  0.2365
   54CHL1   C15 6420   6.701   3.910   8.789  0.1928  0.0008  0.1555
   54CHL1  H15A 6421   6.773   3.842   8.840  0.1884  0.0033  0.1657
   54CHL1  H15B 6422   6.602   3.862   8.777  0.8549 -1.0286 -1.6503
   54CHL1   C16 6423   6.748   3.936   8.646  0.1563 -0.9082 -0.0495
   54CHL1  H16A 6424   6.850   3.892   8.641 -0.3119 -2.0638  0.0939
   54CHL1  H16B 6425   6.691   3.883   8.566 -0.5461  0.9836 -0.8649
   54CHL1   C17 6426   6.756   4.091   8.634 -0.0034 -0.2917  0.5956
   54CHL1   H17 6427   6.652   4.118   8.604  0.6077  0.4013 -0.9597
   54CHL1   C13 6428   6.786   4.135   8.778 -0.1427  0.3312  0.4164
   54CHL1   C18 6429   6.927   4.086   8.813 -0.5502  0.0421 -0.5200
   54CHL1  H18A 6430   6.941   3.978   8.835  3.1182  0.5261  0.1336
   54CHL1  H18B 6431   6.996   4.111   8.730 -0.1056  0.4092 -0.0440
   54CHL1  H18C 6432   6.969   4.132   8.905 -0.0552  0.4427 -0.9407
   54CHL1   C12 6433   6.763   4.287   8.820  0.2672 -0.1740 -0.3458
   54CHL1  H12A 6434   6.849   4.343   8.778  1.9591 -0.7607  2.1119
   54CHL1  H12B 6435   6.668   4.318   8.771  0.1008 -2.2559 -1.4642
   54CHL1   C11 6436   6.761   4.313   8.976 -0.1675  0.0492 -0.0462
   54CHL1  H11A 6437   6.864   4.302   9.018 -0.1508 -0.6617 -0.2652
   54CHL1  H11B 6438   6.727   4.416   8.998  1.9073  0.7127  0.3052
   54CHL1    C9 6439   6.675   4.195   9.037 -0.0553  0.5473 -0.5525
   54CHL1    H9 6440   6.574   4.235   9.012 -0.5941  0.1219  0.7895
   54CHL1   C10 6441   6.670   4.213   9.198  0.1274 -0.5760  0.2786
   54CHL1   C19 6442   6.816   4.228   9.241  1.2534  0.3461  0.4828
   54CHL1  H19A 6443   6.839   4.335   9.222  0.4065  0.4080 -0.2418
   54CHL1  H19B 6444   6.837   4.210   9.349  0.4274  0.2345  0.6301
   54CHL1  H19C 6445   6.880   4.160   9.181  2.3931  0.0766  1.9343
   54CHL1    C1 6446   6.595   4.347   9.237  0.1899  0.6137 -0.7300
   54CHL1   H1A 6447   6.655   4.434   9.202  1.8866  0.2889  1.1726
   54CHL1   H1B 6448   6.495   4.349   9.189 -0.3920 -0.2849  0.3946
   54CHL1    C2 6449   6.581   4.360   9.386 -0.0370 -0.6256  0.0496
   54CHL1   H2A 6450   6.531   4.452   9.423 -0.6521 -1.5073  1.5367
   54CHL1   H2B 6451   6.684   4.377   9.423 -0.2252 -1.1629  0.8581
   54CHL1   C20 6452   6.838   4.131   8.510  0.1024  0.0744 -0.0770
   54CHL1   H20 6453   6.926   4.065   8.494  0.8032  0.8702  0.3789
   54CHL1   C21 6454   6.885   4.274   8.519  0.0469  0.8276 -0.4704
   54CHL1  H21A 6455   6.953   4.271   8.607 -0.7765  0.8683  0.1819
   54CHL1  H21B 6456   6.802   4.342   8.550 -1.2592 -1.4256  1.2963
   54CHL1  H21C 6457   6.940   4.308   8.429  0.5255 -0.3893 -0.6502
   54CHL1   C22 6458   6.752   4.107   8.379  0.6231 -0.0951  0.1311
   54CHL1  H22A 6459   6.700   4.009   8.380 -2.3347  1.3654 -0.3584
   54CHL1  H22B 6460   6.675   4.187   8.370 -0.3507 -1.0096  0.1018
   54CHL1   C23 6461   6.834   4.122   8.243  0.1956 -0.3820 -0.4573
   54CHL1  H23A 6462   6.891   4.216   8.254  0.8732 -0.7116 -1.0414
   54CHL1  H23B 6463   6.910   4.040   8.243 -1.3174 -1.8711  1.2752
   54CHL1   C24 6464   6.750   4.107   8.118  0.1163 -0.4398 -0.2955
   54CHL1  H24A 6465   6.701   4.007   8.127 -3.2549  1.1397  0.3446
   54CHL1  H24B 6466   6.671   4.184   8.108  3.3141  2.9619 -1.5856
   54CHL1   C25 6467   6.823   4.125   7.981  0.0058  0.0396  0.8655
   54CHL1   H25 6468   6.929   4.093   7.987  1.5013  4.2886  0.9980
   54CHL1   C26 6469   6.749   4.057   7.876  0.0628  0.0680 -0.0670
   54CHL1  H26A 6470   6.641   4.080   7.869  0.2811  0.5982 -3.2349
   54CHL1  H26B 6471   6.792   4.082   7.776 -0.9740  2.0367 -0.0577
   54CHL1  H26C 6472   6.758   3.947   7.888  1.9516  0.2431  0.4549
   54CHL1   C27 6473   6.839   4.272   7.954  0.3451 -0.2348  1.0244
   54CHL1  H27A 6474   6.741   4.325   7.957 -1.0782 -2.0803 -3.7252
   54CHL1  H27B 6475   6.910   4.314   8.029  2.3552  0.5747 -1.1887
   54CHL1  H27C 6476   6.886   4.294   7.856  1.5178 -2.7431  0.9533
   55CHL1    C3 6477   1.107   3.115   9.166 -0.1941 -0.2283  0.1377
   55CHL1    H3 6478   1.027   3.069   9.228  1.0421 -0.2075  1.8392
   55CHL1    O3 6479   1.194   3.173   9.265  0.0097 -0.3243 -0.2616
   55CHL1   H3' 6480   1.265   3.111   9.286  0.3919  1.1340  3.5256
   55CHL1    C4 6481   1.177   3.010   9.081 -0.0595 -0.3971  0.1236
   55CHL1   H4A 6482   1.270   3.053   9.038  0.4949 -2.3930 -0.8239
   55CHL1   H4B 6483   1.202   2.941   9.164 -1.0350 -2.2626 -1.0738
   55CHL1    C5 6484   1.090   2.943   8.980  0.0748 -0.3654  0.1162
   55CHL1    C6 6485   1.074   2.812   8.971 -0.0951  1.2790 -0.3367
   55CHL1    H6 6486   1.130   2.747   9.039  1.7072 -2.3608 -4.7771
   55CHL1    C7 6487   0.993   2.737   8.871 -0.0484 -0.2944  0.2605
   55CHL1   H7A 6488   1.040   2.643   8.835 -1.7061 -0.8107 -0.6510
   55CHL1   H7B 6489   0.903   2.697   8.924  0.0638  0.0748  0.7366
   55CHL1    C8 6490   0.954   2.829   8.749  0.0423 -0.3315 -0.0888
   55CHL1    H8 6491   1.054   2.847   8.703 -0.1721 -0.1417 -0.4921
   55CHL1   C14 6492   0.853   2.767   8.647  0.2380  0.0916 -0.7932
   55CHL1   H14 6493   0.760   2.766   8.709  0.8821 -0.6359  0.2063
   55CHL1   C15 6494   0.888   2.626   8.604 -0.1457  0.0747 -0.1985
   55CHL1  H15A 6495   0.996   2.640   8.582 -0.2537 -1.1549 -1.6999
   55CHL1  H15B 6496   0.880   2.549   8.683  0.0642  0.8567  0.6099
   55CHL1   C16 6497   0.805   2.604   8.481  0.7889  0.4265  0.8245
   55CHL1  H16A 6498   0.866   2.574   8.393  0.1544  1.6689 -0.0710
   55CHL1  H16B 6499   0.719   2.539   8.508 -0.3119  2.0216  1.3347
   55CHL1   C17 6500   0.747   2.739   8.447  1.1784 -0.2182  0.6539
   55CHL1   H17 6501   0.647   2.750   8.493  1.0816  1.5725  0.0918
   55CHL1   C13 6502   0.823   2.843   8.525  0.5943 -0.4701 -0.3882
   55CHL1   C18 6503   0.950   2.875   8.447 -0.0243 -0.0649 -0.0471
   55CHL1  H18A 6504   1.023   2.931   8.509  0.6926 -0.3214 -0.6498
   55CHL1  H18B 6505   1.001   2.780   8.420  0.4512  0.3011 -0.4387
   55CHL1  H18C 6506   0.937   2.930   8.352  0.0958 -2.1111 -1.3108
   55CHL1   C12 6507   0.753   2.972   8.576  0.9603 -0.2837  0.7380
   55CHL1  H12A 6508   0.725   3.038   8.491 -0.8696 -1.5435  0.3038
   55CHL1  H12B 6509   0.661   2.936   8.628  1.7272 -2.1354  0.9020
   55CHL1   C11 6510   0.843   3.052   8.676  0.0868  0.3151 -0.3419
   55CHL1  H11A 6511   0.920   3.088   8.605 -1.0744 -2.8323 -3.4877
   55CHL1  H11B 6512   0.780   3.133   8.719  1.0320 -0.2276  2.2548
   55CHL1    C9 6513   0.903   2.968   8.793 -0.3591  0.5715 -0.2420
   55CHL1    H9 6514   0.816   2.928   8.850  0.0312 -1.2961 -0.8972
   55CHL1   C10 6515   1.005   3.037   8.887  0.8332 -0.0737  0.3383
   55CHL1   C19 6516   1.105   3.109   8.795  0.1518  1.1160 -0.5408
   55CHL1  H19A 6517   1.186   3.154   8.856 -0.0356  0.4145  0.2421
   55CHL1  H19B 6518   1.150   3.034   8.727 -1.6158 -0.2927 -0.2590
   55CHL1  H19C 6519   1.059   3.187   8.730 -1.6404  0.2938 -0.3302
   55CHL1    C1 6520   0.940   3.132   8.984  0.7580 -0.1927  0.6000
   55CHL1   H1A 6521   0.882   3.206   8.924  1.4115 -1.1934 -1.3674
   55CHL1   H1B 6522   0.858   3.079   9.038 -0.2762  0.7404 -0.0023
   55CHL1    C2 6523   1.029   3.216   9.080 -0.3891  0.1456  0.0174
   55CHL1   H2A 6524   0.975   3.293   9.140  1.5772  0.7932  1.0422
   55CHL1   H2B 6525   1.111   3.267   9.025  1.8484  0.9042  3.7036
   55CHL1   C20 6526   0.721   2.749   8.294 -0.0287 -0.1247  0.7489
   55CHL1   H20 6527   0.820   2.737   8.247  0.2549  2.4205  0.5294
   55CHL1   C21 6528   0.651   2.887   8.258 -0.3479 -0.4309 -0.4460
   55CHL1  H21A 6529   0.546   2.880   8.294 -0.4210  0.9586 -0.3479
   55CHL1  H21B 6530   0.647   2.905   8.148  0.1448 -0.8600 -0.5380
   55CHL1  H21C 6531   0.718   2.965   8.300  2.1428 -2.7920  0.2988
   55CHL1   C22 6532   0.618   2.633   8.251  0.0958 -0.6641  0.7835
   55CHL1  H22A 6533   0.658   2.530   8.261  0.9279 -0.5055 -0.6499
   55CHL1  H22B 6534   0.530   2.649   8.317  0.4251 -1.7109  1.4956
   55CHL1   C23 6535   0.579   2.646   8.103  0.2402  0.7762 -0.2486
   55CHL1  H23A 6536   0.524   2.741   8.086 -2.0873 -0.3510  0.4787
   55CHL1  H23B 6537   0.674   2.639   8.046 -0.5976  3.6145 -2.2642
   55CHL1   C24 6538   0.481   2.534   8.059  0.7091 -0.0634 -0.0078
   55CHL1  H24A 6539   0.531   2.435   8.053  1.0376  0.2027 -2.1368
   55CHL1  H24B 6540   0.400   2.529   8.135  0.4152 -1.1503 -0.3665
   55CHL1   C25 6541   0.420   2.568   7.914 -0.0529  0.0778 -0.5737
   55CHL1   H25 6542   0.365   2.662   7.938  0.2377  0.1456 -0.1520
   55CHL1   C26 6543   0.523   2.609   7.814 -0.4129 -0.5995  0.4820
   55CHL1  H26A 6544   0.615   2.548   7.812  1.0963  1.5440 -2.1037
   55CHL1  H26B 6545   0.475   2.610   7.714  0.2035 -1.8700  0.1542
   55CHL1  H26C 6546   0.556   2.713   7.837 -0.5136 -0.4666  0.0321
   55CHL1   C27 6547   0.323   2.451   7.870  0.2253 -0.1434 -0.4974
   55CHL1  H27A 6548   0.361   2.349   7.893 -1.0137 -0.1436  1.8338
   55CHL1  H27B 6549   0.234   2.450   7.936 -1.1330  1.7399 -2.1754
   55CHL1  H27C 6550   0.288   2.465   7.766  0.1968 -2.5001 -0.8576
   56CHL1    C3 6551   4.671   1.057   8.954 -0.5577 -0.5251  0.2765
   56CHL1    H3 6552   4.768   1.111   8.948 -2.0521  2.2346 -1.5956
   56CHL1    O3 6553   4.640   1.029   9.091 -0.1516  0.2566  0.5060
   56CHL1   H3' 6554   4.687   0.946   9.106  1.2599  0.3791 -2.4825
   56CHL1    C4 6555   4.560   1.143   8.882 -0.5584  0.2733 -0.0015
   56CHL1   H4A 6556   4.458   1.110   8.913 -0.6324  2.0574  1.8689
   56CHL1   H4B 6557   4.548   1.245   8.924 -0.4866  0.3720 -0.2229
   56CHL1    C5 6558   4.578   1.151   8.731  0.8764 -0.7934 -0.7174
   56CHL1    C6 6559   4.605   1.268   8.671  0.1198  0.3958  0.6282
   56CHL1    H6 6560   4.613   1.362   8.727 -2.7869  2.6016 -2.2589
   56CHL1    C7 6561   4.611   1.285   8.520  0.5822  0.0467 -0.3243
   56CHL1   H7A 6562   4.542   1.359   8.473  0.0580  0.2233  0.6874
   56CHL1   H7B 6563   4.714   1.321   8.500  0.5755  0.1499 -0.1728
   56CHL1    C8 6564   4.590   1.153   8.435 -0.2738 -0.8597 -0.1230
   56CHL1    H8 6565   4.482   1.128   8.429 -0.1847 -1.6686  1.3518
   56CHL1   C14 6566   4.661   1.166   8.304  0.1971 -0.2907  0.0774
   56CHL1   H14 6567   4.770   1.162   8.324  0.3113  0.9079 -0.2165
   56CHL1   C15 6568   4.617   1.279   8.208 -0.4901 -0.4389  0.2272
   56CHL1  H15A 6569   4.507   1.294   8.215 -0.4882 -0.0726 -0.4948
   56CHL1  H15B 6570   4.658   1.377   8.239  0.8019 -0.6335 -0.7629
   56CHL1   C16 6571   4.677   1.235   8.075  0.1287 -0.4094  0.0860
   56CHL1  H16A 6572   4.598   1.252   7.998 -0.9988  1.6937  1.6135
   56CHL1  H16B 6573   4.762   1.306   8.065 -0.3082 -0.1347 -2.4676
   56CHL1   C17 6574   4.729   1.090   8.088 -0.2587  0.5311  0.1192
   56CHL1   H17 6575   4.831   1.091   8.133 -1.0196  0.0374  1.9513
   56CHL1   C13 6576   4.648   1.036   8.212 -0.1983  0.1546 -0.0159
   56CHL1   C18 6577   4.504   1.017   8.166 -0.3579 -0.1369 -0.2050
   56CHL1  H18A 6578   4.440   1.012   8.256  1.1710  1.3238  1.0247
   56CHL1  H18B 6579   4.462   1.104   8.111 -1.2788  0.0998  0.8355
   56CHL1  H18C 6580   4.491   0.927   8.102 -2.1934  1.1515 -1.7705
   56CHL1   C12 6581   4.690   0.908   8.285 -0.4367 -0.0970 -0.3448
   56CHL1  H12A 6582   4.670   0.811   8.234 -2.4178 -0.2101  0.5600
   56CHL1  H12B 6583   4.799   0.919   8.307 -0.3756 -0.3849 -0.5036
   56CHL1   C11 6584   4.622   0.905   8.424  0.3021 -0.0115  0.2992
   56CHL1  H11A 6585   4.517   0.878   8.401  0.5398 -0.2398 -0.5412
   56CHL1  H11B 6586   4.663   0.816   8.477  0.1499 -0.6083 -0.5645
   56CHL1    C9 6587   4.640   1.032   8.511  0.6167 -0.6562 -0.0940
   56CHL1    H9 6588   4.749   1.047   8.524  0.6199 -1.3512  0.7509
   56CHL1   C10 6589   4.586   1.018   8.658 -0.1602 -0.5288  0.1717
   56CHL1   C19 6590   4.444   0.960   8.657  0.0862  0.2182  0.1339
   56CHL1  H19A 6591   4.435   0.860   8.610  0.3304  0.0533  0.4356
   56CHL1  H19B 6592   4.405   0.954   8.761  1.3616 -0.0740  0.6152
   56CHL1  H19C 6593   4.368   1.021   8.603  1.9424  0.4460 -2.3469
   56CHL1    C1 6594   4.695   0.930   8.734  0.1457  0.3574 -0.2815
   56CHL1   H1A 6595   4.687   0.831   8.683  1.4062  0.7785 -1.3318
   56CHL1   H1B 6596   4.798   0.968   8.718  0.9426 -1.9449 -1.1257
   56CHL1    C2 6597   4.677   0.921   8.889  0.5819 -0.1345  0.3073
   56CHL1   H2A 6598   4.765   0.874   8.939  1.3142  0.6783 -0.1809
   56CHL1   H2B 6599   4.588   0.859   8.913  0.8010  0.4072  2.7943
   56CHL1   C20 6600   4.723   1.016   7.956  0.0885 -0.6178  1.0749
   56CHL1   H20 6601   4.621   1.004   7.915 -0.4336  0.9157  1.8538
   56CHL1   C21 6602   4.775   0.870   7.974 -0.4294  0.0610 -0.2373
   56CHL1  H21A 6603   4.745   0.814   7.882 -2.7190 -0.4247  0.7437
   56CHL1  H21B 6604   4.715   0.810   8.046  0.2985 -0.7875 -0.3120
   56CHL1  H21C 6605   4.885   0.861   7.987 -0.7752 -1.5591  2.2719
   56CHL1   C22 6606   4.806   1.088   7.841  0.2814  0.2860 -0.5683
   56CHL1  H22A 6607   4.767   1.191   7.830 -0.5218 -0.1583 -2.2861
   56CHL1  H22B 6608   4.912   1.085   7.875 -0.5022 -0.1966  2.0619
   56CHL1   C23 6609   4.786   1.027   7.698  0.2598  0.6743 -0.5103
   56CHL1  H23A 6610   4.826   0.924   7.701 -1.9322 -0.2205  0.0197
   56CHL1  H23B 6611   4.681   1.030   7.662  0.7317  0.1113 -2.0453
   56CHL1   C24 6612   4.867   1.111   7.596 -0.2112  0.6055 -0.6486
   56CHL1  H24A 6613   4.825   1.213   7.590  0.8209  1.1185  0.4637
   56CHL1  H24B 6614   4.973   1.121   7.630 -0.1664  0.8436 -0.8539
   56CHL1   C25 6615   4.870   1.045   7.450 -0.4733 -1.2743 -0.7571
   56CHL1   H25 6616   4.775   0.999   7.413  0.8199 -3.4443 -1.5582
   56CHL1   C26 6617   4.883   1.158   7.350 -0.1165 -0.8013  0.2503
   56CHL1  H26A 6618   4.794   1.224   7.343  1.1689  1.0712  0.8654
   56CHL1  H26B 6619   4.975   1.215   7.376 -1.8687  2.3374  0.1082
   56CHL1  H26C 6620   4.911   1.110   7.254  0.3323 -0.8861  0.4200
   56CHL1   C27 6621   4.978   0.944   7.440 -0.9406 -0.9134  1.0892
   56CHL1  H27A 6622   4.977   0.877   7.529 -0.4085  2.0189  3.4514
   56CHL1  H27B 6623   4.977   0.881   7.348  1.6230  0.1065  0.2604
   56CHL1  H27C 6624   5.078   0.992   7.444 -1.5152  0.5339 -0.7224
   57CHL1    C3 6625   0.970   4.078   9.302  0.2785  0.2656 -0.1022
   57CHL1    H3 6626   0.997   3.972   9.316 -0.3661 -0.1176 -1.5479
   57CHL1    O3 6627   0.934   4.142   9.427 -0.2121 -0.1128 -0.4332
   57CHL1   H3' 6628   0.922   4.234   9.404 -0.9787 -0.4603 -1.4944
   57CHL1    C4 6629   1.081   4.161   9.238 -0.3656  0.2663 -0.0479
   57CHL1   H4A 6630   1.052   4.267   9.226  0.9181  0.5394 -1.0685
   57CHL1   H4B 6631   1.165   4.157   9.311 -0.0714  1.6905 -0.2859
   57CHL1    C5 6632   1.132   4.103   9.103 -0.0298  0.4559  0.4018
   57CHL1    C6 6633   1.266   4.068   9.078  0.0450 -0.0838  0.0630
   57CHL1    H6 6634   1.329   4.087   9.167 -2.3838  0.1242  1.8275
   57CHL1    C7 6635   1.317   4.003   8.950  0.2157  0.3089 -0.1639
   57CHL1   H7A 6636   1.408   4.054   8.912 -0.2770  2.7021  1.6799
   57CHL1   H7B 6637   1.337   3.897   8.978  0.4827  0.7845  1.5566
   57CHL1    C8 6638   1.217   4.013   8.839  0.2588  0.5260 -0.0698
   57CHL1    H8 6639   1.224   4.118   8.804 -0.6073 -0.0668 -2.1959
   57CHL1   C14 6640   1.256   3.912   8.737 -1.0822 -0.2354  0.0879
   57CHL1   H14 6641   1.240   3.812   8.783  0.7938 -2.0196 -2.8143
   57CHL1   C15 6642   1.404   3.908   8.695 -0.2220  0.8891 -0.1970
   57CHL1  H15A 6643   1.431   4.015   8.693  4.3092 -0.0713 -1.0254
   57CHL1  H15B 6644   1.470   3.853   8.766  0.0658  1.2711 -0.1704
   57CHL1   C16 6645   1.403   3.843   8.553  0.1330  0.5567 -0.1612
   57CHL1  H16A 6646   1.438   3.918   8.479 -0.1932  3.2186  2.1936
   57CHL1  H16B 6647   1.458   3.748   8.570  1.3354  0.8764 -1.9238
   57CHL1   C17 6648   1.250   3.814   8.531 -0.5249 -0.3237 -0.0515
   57CHL1   H17 6649   1.226   3.720   8.585 -2.4352 -0.2390 -0.6526
   57CHL1   C13 6650   1.177   3.923   8.606 -0.3037  0.7503 -0.4296
   57CHL1   C18 6651   1.191   4.058   8.542  0.0246  0.1840 -0.0306
   57CHL1  H18A 6652   1.125   4.063   8.453 -1.6835  0.0443  1.1746
   57CHL1  H18B 6653   1.150   4.131   8.615 -4.5600 -0.8971 -1.1675
   57CHL1  H18C 6654   1.299   4.073   8.522  0.7293 -0.3097  2.9122
   57CHL1   C12 6655   1.023   3.895   8.649 -0.0884  0.2570 -0.0033
   57CHL1  H12A 6656   0.971   3.922   8.555 -0.0954  2.8320  0.6652
   57CHL1  H12B 6657   1.021   3.788   8.679 -0.2402  0.3985  0.4992
   57CHL1   C11 6658   0.974   3.985   8.766 -0.4075  0.5706 -0.0258
   57CHL1  H11A 6659   0.956   4.086   8.723 -1.1180  0.0559 -0.9454
   57CHL1  H11B 6660   0.872   3.953   8.796 -0.4192  0.8432  0.2331
   57CHL1    C9 6661   1.072   3.989   8.884  0.1531 -0.3343  0.1709
   57CHL1    H9 6662   1.064   3.888   8.931  0.3191 -0.9340 -1.0555
   57CHL1   C10 6663   1.012   4.081   9.004 -0.5958  0.0015 -0.4352
   57CHL1   C19 6664   0.974   4.219   8.950 -0.2061  0.0992  0.3460
   57CHL1  H19A 6665   0.955   4.294   9.029 -2.0405  1.5664 -1.3709
   57CHL1  H19B 6666   1.046   4.270   8.881  0.5135 -0.8209  0.4021
   57CHL1  H19C 6667   0.880   4.200   8.894 -0.1599 -0.8567  0.5727
   57CHL1    C1 6668   0.899   4.003   9.074  0.4206  0.0148  0.3130
   57CHL1   H1A 6669   0.811   3.997   9.006  0.8190 -1.1561 -0.1208
   57CHL1   H1B 6670   0.927   3.900   9.102  2.5355  0.8461  1.4700
   57CHL1    C2 6671   0.856   4.069   9.205  0.7479  0.3567 -0.8471
   57CHL1   H2A 6672   0.773   4.007   9.245  2.4524 -0.5830  1.4392
   57CHL1   H2B 6673   0.815   4.170   9.183  0.3982  0.6867  1.1335
   57CHL1   C20 6674   1.216   3.789   8.375  0.3171  0.2713 -0.6857
   57CHL1   H20 6675   1.221   3.889   8.326  0.5322  0.8033  0.3920
   57CHL1   C21 6676   1.084   3.709   8.362 -0.2168 -0.1775  0.6285
   57CHL1  H21A 6677   1.058   3.706   8.254 -0.3391  0.3479  0.6407
   57CHL1  H21B 6678   1.001   3.773   8.401 -0.8517 -1.8733  2.2392
   57CHL1  H21C 6679   1.089   3.613   8.419 -3.1580 -0.7328  0.1399
   57CHL1   C22 6680   1.318   3.693   8.305  0.8832 -0.3602 -0.0618
   57CHL1  H22A 6681   1.422   3.725   8.326  1.2553 -2.7782  2.4443
   57CHL1  H22B 6682   1.310   3.591   8.350 -1.2919 -0.5967 -0.8422
   57CHL1   C23 6683   1.310   3.695   8.149  0.4859  0.2634 -0.1245
   57CHL1  H23A 6684   1.205   3.695   8.113 -1.1349  2.1904  4.0263
   57CHL1  H23B 6685   1.349   3.793   8.115 -1.7912  1.5965  0.9390
   57CHL1   C24 6686   1.386   3.573   8.096 -0.2351  0.0014  0.0321
   57CHL1  H24A 6687   1.494   3.599   8.095  0.2121 -1.7502 -0.0457
   57CHL1  H24B 6688   1.380   3.481   8.158 -0.0455 -0.9236 -1.2776
   57CHL1   C25 6689   1.346   3.534   7.954  0.3207  0.4129 -0.7517
   57CHL1   H25 6690   1.257   3.466   7.956  1.1835 -0.9708  4.2352
   57CHL1   C26 6691   1.336   3.657   7.867 -0.4999 -0.8933  0.3680
   57CHL1  H26A 6692   1.253   3.723   7.900 -1.1145 -0.6125 -1.6447
   57CHL1  H26B 6693   1.426   3.723   7.869 -0.2134 -1.1581 -1.7228
   57CHL1  H26C 6694   1.314   3.636   7.761  1.0121 -0.0204 -0.1636
   57CHL1   C27 6695   1.458   3.449   7.887 -0.4473  0.1770  0.1477
   57CHL1  H27A 6696   1.463   3.446   7.776 -0.0485  0.1475  0.1636
   57CHL1  H27B 6697   1.559   3.481   7.921  0.5293 -0.3677 -2.0180
   57CHL1  H27C 6698   1.442   3.348   7.928  0.5768  0.3662  1.0704
   58CHL1    C3 6699   2.331   0.723   9.259 -0.0653  0.3671 -0.5934
   58CHL1    H3 6700   2.410   0.785   9.212 -0.0568  0.9546  0.1637
   58CHL1    O3 6701   2.340   0.711   9.396 -0.6843 -0.0929  0.5703
   58CHL1   H3' 6702   2.351   0.618   9.417  1.6264 -0.1608 -0.6218
   58CHL1    C4 6703   2.207   0.795   9.229  0.2694  0.7047 -0.2238
   58CHL1   H4A 6704   2.116   0.740   9.260  0.4673  1.0098  0.9514
   58CHL1   H4B 6705   2.197   0.889   9.287 -0.7727  0.6875 -0.3657
   58CHL1    C5 6706   2.179   0.810   9.083 -0.2226  0.4333 -0.2909
   58CHL1    C6 6707   2.183   0.938   9.042 -0.0655 -0.3405 -0.3237
   58CHL1    H6 6708   2.186   1.014   9.121 -1.7467 -2.0292  1.4956
   58CHL1    C7 6709   2.190   0.978   8.895  0.5165  0.1339  0.1798
   58CHL1   H7A 6710   2.132   1.070   8.873  0.5039  0.0190 -0.2718
   58CHL1   H7B 6711   2.295   1.007   8.871  0.2704 -0.0165 -1.1326
   58CHL1    C8 6712   2.153   0.855   8.810  0.0233 -0.3514  0.5057
   58CHL1    H8 6713   2.042   0.857   8.819 -0.1435  1.3959 -1.1162
   58CHL1   C14 6714   2.186   0.883   8.662  0.6556  0.3620  0.0235
   58CHL1   H14 6715   2.297   0.884   8.667  0.6170  0.2381  1.0911
   58CHL1   C15 6716   2.152   1.024   8.605 -0.2775 -0.1834  0.2596
   58CHL1  H15A 6717   2.050   1.032   8.650 -0.5653 -2.7012  0.1876
   58CHL1  H15B 6718   2.216   1.105   8.646 -0.2189  0.6328 -1.3678
   58CHL1   C16 6719   2.163   1.006   8.453  0.4919 -0.0080  0.1896
   58CHL1  H16A 6720   2.056   1.025   8.428  0.3303 -0.8506  0.2194
   58CHL1  H16B 6721   2.235   1.072   8.400  2.9785 -1.5538  1.4752
   58CHL1   C17 6722   2.194   0.853   8.427 -0.0512  0.0471 -0.0412
   58CHL1   H17 6723   2.305   0.860   8.438 -0.0821 -0.1772  0.4447
   58CHL1   C13 6724   2.149   0.783   8.553  0.6495  0.3692 -0.4399
   58CHL1   C18 6725   1.994   0.756   8.532 -0.7184 -0.5592 -0.4254
   58CHL1  H18A 6726   1.957   0.734   8.634  2.9527  0.3899  1.2618
   58CHL1  H18B 6727   1.940   0.845   8.494 -1.1349 -0.3267  0.6701
   58CHL1  H18C 6728   1.984   0.664   8.470 -0.2351 -0.4299 -0.6998
   58CHL1   C12 6729   2.220   0.655   8.600 -0.3046  0.3158  0.3564
   58CHL1  H12A 6730   2.205   0.558   8.548 -1.6645  0.2234  0.8950
   58CHL1  H12B 6731   2.331   0.667   8.603 -0.0741 -1.5885  1.3881
   58CHL1   C11 6732   2.191   0.609   8.745 -0.2578 -0.1027 -0.2222
   58CHL1  H11A 6733   2.086   0.574   8.735  0.0627 -0.6934 -2.0068
   58CHL1  H11B 6734   2.260   0.525   8.767  0.6973  1.1987  1.9882
   58CHL1    C9 6735   2.210   0.714   8.850 -0.5258 -0.0463 -0.5865
   58CHL1    H9 6736   2.320   0.732   8.847 -0.2329 -0.1917  3.4757
   58CHL1   C10 6737   2.186   0.679   9.001 -0.2543 -0.3478  0.1311
   58CHL1   C19 6738   2.049   0.612   9.015 -0.0567  0.2394  0.5416
   58CHL1  H19A 6739   1.966   0.686   9.008 -0.5468 -0.2648  0.8809
   58CHL1  H19B 6740   2.032   0.529   8.942  1.7818  0.1219  0.2155
   58CHL1  H19C 6741   2.044   0.562   9.114  1.1752 -0.2074  0.3887
   58CHL1    C1 6742   2.298   0.582   9.053 -0.2715 -0.1385 -0.3034
   58CHL1   H1A 6743   2.282   0.481   9.008  0.3804 -0.9226  1.1608
   58CHL1   H1B 6744   2.396   0.625   9.023  0.6242 -0.5797  1.7942
   58CHL1    C2 6745   2.320   0.580   9.203 -0.3561  0.3191  0.5781
   58CHL1   H2A 6746   2.416   0.526   9.222 -0.2819 -1.5121 -3.7636
   58CHL1   H2B 6747   2.239   0.527   9.259  0.8879  0.6691  2.8291
   58CHL1   C20 6748   2.158   0.803   8.283 -0.4643 -0.0189  0.6209
   58CHL1   H20 6749   2.049   0.780   8.279 -1.0764  2.1660  2.4879
   58CHL1   C21 6750   2.243   0.674   8.261  0.7659 -0.0970  0.0503
   58CHL1  H21A 6751   2.232   0.646   8.154  0.3531  1.5796 -0.3666
   58CHL1  H21B 6752   2.229   0.586   8.327  1.2557 -1.5735 -1.7375
   58CHL1  H21C 6753   2.343   0.717   8.284  0.8084  0.4857 -1.1694
   58CHL1   C22 6754   2.184   0.908   8.173  0.1061  0.3582  0.4504
   58CHL1  H22A 6755   2.122   0.999   8.190  1.3572  1.1873  0.7304
   58CHL1  H22B 6756   2.294   0.928   8.169 -0.0728  1.3815 -2.9223
   58CHL1   C23 6757   2.145   0.860   8.029 -0.1180 -0.3014  0.1570
   58CHL1  H23A 6758   2.219   0.787   7.988  1.4259  2.0236 -1.4862
   58CHL1  H23B 6759   2.048   0.806   8.033 -0.5386  0.5117  0.9331
   58CHL1   C24 6760   2.147   0.969   7.914  0.1743 -0.0069 -0.3177
   58CHL1  H24A 6761   2.063   1.034   7.947 -0.8845 -1.6013  0.2282
   58CHL1  H24B 6762   2.245   1.020   7.900  0.6184 -1.0728 -1.2735
   58CHL1   C25 6763   2.096   0.921   7.781  0.6351  0.1681 -0.1484
   58CHL1   H25 6764   1.994   0.880   7.796  0.1741  1.0598 -0.6844
   58CHL1   C26 6765   2.068   1.044   7.690 -0.5570  0.2573 -0.1089
   58CHL1  H26A 6766   1.991   1.025   7.612  0.2924  1.1679 -1.2134
   58CHL1  H26B 6767   2.028   1.118   7.762  1.2021 -2.2424  3.7742
   58CHL1  H26C 6768   2.163   1.079   7.645  0.4056 -0.3082  1.4080
   58CHL1   C27 6769   2.192   0.819   7.717  0.1027  0.2371  0.0420
   58CHL1  H27A 6770   2.178   0.715   7.752 -5.5411  0.6702 -0.0973
   58CHL1  H27B 6771   2.193   0.822   7.606 -1.9017 -0.3098 -0.0176
   58CHL1  H27C 6772   2.295   0.848   7.749  0.0103 -1.2104  1.7706
   59CHL1    C3 6773   3.291   0.480   9.335  0.5928  0.7562 -0.2508
   59CHL1    H3 6774   3.269   0.584   9.303 -0.9508  0.7065  0.5442
   59CHL1    O3 6775   3.280   0.476   9.478  0.1801 -0.3166 -0.9256
   59CHL1   H3' 6776   3.290   0.383   9.500 -0.3477 -0.0600  0.5149
   59CHL1    C4 6777   3.183   0.396   9.268  0.0561  0.1353 -0.1055
   59CHL1   H4A 6778   3.174   0.297   9.317 -2.5001  0.3538 -0.0138
   59CHL1   H4B 6779   3.093   0.452   9.302 -0.0032 -0.9401  1.6684
   59CHL1    C5 6780   3.193   0.393   9.117 -0.3641  0.0462 -0.0411
   59CHL1    C6 6781   3.098   0.443   9.041 -0.2067  0.6678  0.2702
   59CHL1    H6 6782   2.996   0.461   9.081 -1.0222  0.3243 -1.5602
   59CHL1    C7 6783   3.096   0.434   8.891 -0.3153 -0.2293  0.0148
   59CHL1   H7A 6784   2.998   0.396   8.855 -0.9780  1.5849 -0.1645
   59CHL1   H7B 6785   3.112   0.535   8.848  1.4818 -0.2509  0.5361
   59CHL1    C8 6786   3.208   0.347   8.833 -0.6762 -0.3527  0.2213
   59CHL1    H8 6787   3.184   0.239   8.843 -0.6609 -0.3877 -0.1151
   59CHL1   C14 6788   3.226   0.372   8.684  0.4451 -0.1565 -0.5453
   59CHL1   H14 6789   3.250   0.480   8.674  0.7333  0.0399  1.7921
   59CHL1   C15 6790   3.101   0.336   8.589 -0.3184 -0.6893  0.1504
   59CHL1  H15A 6791   3.066   0.233   8.613  1.2502 -2.0260 -2.7111
   59CHL1  H15B 6792   3.022   0.414   8.583  0.6774  0.2625 -1.4294
   59CHL1   C16 6793   3.172   0.338   8.450 -0.2288  0.0972 -0.0067
   59CHL1  H16A 6794   3.139   0.245   8.400 -0.3513 -1.3805  2.6379
   59CHL1  H16B 6795   3.135   0.418   8.383  0.0639 -0.2716 -0.6193
   59CHL1   C17 6796   3.330   0.349   8.468  0.4738 -0.0503 -0.0169
   59CHL1   H17 6797   3.342   0.459   8.463  0.6817  0.2057  3.4862
   59CHL1   C13 6798   3.346   0.308   8.615  0.0122 -0.7302  0.3345
   59CHL1   C18 6799   3.337   0.152   8.622  0.4306 -0.3730  0.2308
   59CHL1  H18A 6800   3.245   0.117   8.570 -0.8970  1.8105  0.9724
   59CHL1  H18B 6801   3.427   0.105   8.577  0.7696  0.1129  0.3906
   59CHL1  H18C 6802   3.335   0.109   8.725  2.3306  0.9635  0.8779
   59CHL1   C12 6803   3.471   0.363   8.697 -0.1074  0.0829  0.2698
   59CHL1  H12A 6804   3.572   0.329   8.665 -0.0116  0.7105 -0.1125
   59CHL1  H12B 6805   3.466   0.472   8.679 -0.3608 -0.1421 -1.1458
   59CHL1   C11 6806   3.462   0.317   8.841  0.3286  0.4204 -0.5430
   59CHL1  H11A 6807   3.461   0.206   8.837  0.9894  0.3777  0.2461
   59CHL1  H11B 6808   3.552   0.362   8.889  1.3652 -1.0390 -1.0727
   59CHL1    C9 6809   3.338   0.384   8.900 -0.2308 -0.5923  0.2942
   59CHL1    H9 6810   3.342   0.495   8.899  0.6075 -0.6183 -0.0862
   59CHL1   C10 6811   3.324   0.349   9.056  0.4564  0.0162  0.7035
   59CHL1   C19 6812   3.346   0.201   9.090 -0.1230  0.1637 -0.0939
   59CHL1  H19A 6813   3.454   0.176   9.078 -0.4774 -0.5419 -2.0915
   59CHL1  H19B 6814   3.326   0.173   9.196  0.6636 -1.6276 -0.3812
   59CHL1  H19C 6815   3.284   0.126   9.037  0.8664 -0.0099 -1.0536
   59CHL1    C1 6816   3.429   0.429   9.128  0.0509  0.2024 -0.3053
   59CHL1   H1A 6817   3.531   0.393   9.102  0.7292  1.2199  0.8491
   59CHL1   H1B 6818   3.421   0.537   9.101 -3.4916  0.3584  0.8745
   59CHL1    C2 6819   3.428   0.430   9.283  0.2206 -0.2276 -0.1909
   59CHL1   H2A 6820   3.502   0.506   9.314  0.1746 -0.4888  0.5691
   59CHL1   H2B 6821   3.449   0.328   9.321 -1.0532 -1.8113 -3.3702
   59CHL1   C20 6822   3.412   0.276   8.366  0.0211  0.7277  0.2329
   59CHL1   H20 6823   3.382   0.170   8.354  1.5062  0.1999  1.0183
   59CHL1   C21 6824   3.560   0.285   8.402  0.1093  0.3435  0.3190
   59CHL1  H21A 6825   3.617   0.262   8.310  0.7776  0.5683  0.6705
   59CHL1  H21B 6826   3.603   0.225   8.485  2.2101  0.9463 -0.2779
   59CHL1  H21C 6827   3.584   0.393   8.417 -0.7813  0.7526 -1.0640
   59CHL1   C22 6828   3.381   0.329   8.218 -0.6519  0.6278 -0.4271
   59CHL1  H22A 6829   3.272   0.335   8.200 -0.3336  2.7737 -2.1116
   59CHL1  H22B 6830   3.422   0.433   8.215  1.9779 -0.2638  1.0635
   59CHL1   C23 6831   3.432   0.243   8.105 -0.0202 -0.7916  0.4053
   59CHL1  H23A 6832   3.537   0.212   8.123  1.1756  3.2748  1.6138
   59CHL1  H23B 6833   3.369   0.152   8.106  0.2463 -0.9894 -0.4494
   59CHL1   C24 6834   3.425   0.306   7.961  0.0833  0.1828  0.3868
   59CHL1  H24A 6835   3.327   0.358   7.956 -0.6046 -1.1247 -0.0575
   59CHL1  H24B 6836   3.500   0.389   7.955 -1.4615  1.6541  0.7051
   59CHL1   C25 6837   3.439   0.212   7.835  0.0392 -0.5436 -0.0412
   59CHL1   H25 6838   3.369   0.128   7.852 -0.3349  0.0002  1.1576
   59CHL1   C26 6839   3.383   0.285   7.714 -0.2717  0.2732 -0.1735
   59CHL1  H26A 6840   3.275   0.309   7.721 -0.5585 -0.8878 -0.3014
   59CHL1  H26B 6841   3.448   0.367   7.676  3.2193 -2.0027  0.3205
   59CHL1  H26C 6842   3.385   0.208   7.634 -0.7483  0.5224 -0.4259
   59CHL1   C27 6843   3.579   0.160   7.822 -0.8443  0.6746  0.6761
   59CHL1  H27A 6844   3.611   0.122   7.921 -0.3522 -0.3207  0.1453
   59CHL1  H27B 6845   3.583   0.078   7.748 -0.0160  1.4978 -0.2079
   59CHL1  H27C 6846   3.642   0.244   7.786  0.8650 -1.6327 -2.1083
   60CHL1    C3 6847   0.867   5.547   9.415  0.5371  0.2494  0.5176
   60CHL1    H3 6848   0.949   5.474   9.405 -0.9128 -1.2728 -1.1876
   60CHL1    O3 6849   0.835   5.575   9.550 -0.0505  0.1330  0.9074
   60CHL1   H3' 6850   0.744   5.605   9.552 -0.2988 -0.6080  1.3712
   60CHL1    C4 6851   0.920   5.682   9.353 -0.5185  0.0649 -0.5670
   60CHL1   H4A 6852   0.856   5.769   9.380 -0.8995 -0.2186 -0.5477
   60CHL1   H4B 6853   1.017   5.703   9.404 -0.8550 -1.6029  0.8960
   60CHL1    C5 6854   0.946   5.672   9.203  0.4351 -0.2557 -1.1533
   60CHL1    C6 6855   1.072   5.678   9.149 -0.0985  0.0038  0.0113
   60CHL1    H6 6856   1.161   5.691   9.213  1.2259  0.0632 -1.7808
   60CHL1    C7 6857   1.100   5.667   9.000  0.0796  0.0612  0.3953
   60CHL1   H7A 6858   1.182   5.731   8.961 -0.1804 -0.5827 -1.2984
   60CHL1   H7B 6859   1.143   5.564   8.993 -0.7205 -0.3322  1.1230
   60CHL1    C8 6860   0.973   5.677   8.909  0.4829 -0.5197 -0.1542
   60CHL1    H8 6861   0.938   5.782   8.903 -0.0264 -0.7791 -4.1924
   60CHL1   C14 6862   1.001   5.632   8.768  0.2866  0.5427 -0.1258
   60CHL1   H14 6863   1.037   5.529   8.788 -0.5458  0.2679 -0.0204
   60CHL1   C15 6864   1.116   5.700   8.696 -0.7759  0.0577 -0.0541
   60CHL1  H15A 6865   1.105   5.811   8.691  0.0812  0.0981 -1.8325
   60CHL1  H15B 6866   1.213   5.687   8.749 -1.0425  2.3657  1.1589
   60CHL1   C16 6867   1.098   5.654   8.555 -0.0966  0.5207 -0.3726
   60CHL1  H16A 6868   1.109   5.735   8.480 -0.0983 -0.5071 -1.5157
   60CHL1  H16B 6869   1.173   5.576   8.533 -0.6594 -0.8011  2.0139
   60CHL1   C17 6870   0.959   5.580   8.547 -0.4994 -0.2585  0.0431
   60CHL1   H17 6871   0.962   5.469   8.551 -1.8352 -0.2786  0.8449
   60CHL1   C13 6872   0.884   5.632   8.669 -0.0431 -0.3390 -0.8761
   60CHL1   C18 6873   0.844   5.779   8.641  0.0011  0.9084  0.5277
   60CHL1  H18A 6874   0.906   5.827   8.562  0.3091 -0.3856 -0.0455
   60CHL1  H18B 6875   0.744   5.779   8.591  0.4962 -0.1339 -0.5113
   60CHL1  H18C 6876   0.827   5.838   8.733  1.1790  1.2665  0.5335
   60CHL1   C12 6877   0.773   5.552   8.731  0.1388  0.2037 -0.5611
   60CHL1  H12A 6878   0.684   5.570   8.667 -0.4048 -0.7012 -0.0818
   60CHL1  H12B 6879   0.799   5.444   8.726 -0.7861 -0.0784  0.2301
   60CHL1   C11 6880   0.739   5.586   8.876  0.3383 -1.0642 -0.1656
   60CHL1  H11A 6881   0.665   5.669   8.884 -0.0632 -1.5911  2.4044
   60CHL1  H11B 6882   0.673   5.503   8.911 -1.9415  0.5147 -0.4808
   60CHL1    C9 6883   0.857   5.595   8.971  0.2095  0.0576 -0.1059
   60CHL1    H9 6884   0.889   5.490   8.986 -1.6002 -0.3446  1.2434
   60CHL1   C10 6885   0.818   5.633   9.119  1.0565 -0.3037 -0.5644
   60CHL1   C19 6886   0.732   5.760   9.124  0.1078  0.4412 -0.0141
   60CHL1  H19A 6887   0.714   5.800   9.226  0.4801 -2.9009  1.4822
   60CHL1  H19B 6888   0.780   5.834   9.057 -1.2431  2.3981  1.0854
   60CHL1  H19C 6889   0.634   5.737   9.077  0.3307 -0.2985 -0.1389
   60CHL1    C1 6890   0.754   5.507   9.191 -0.5281 -0.0672 -0.2620
   60CHL1   H1A 6891   0.650   5.495   9.153 -1.1862 -0.7328  1.6695
   60CHL1   H1B 6892   0.814   5.416   9.171 -1.3964 -1.1053  1.6125
   60CHL1    C2 6893   0.737   5.517   9.343  0.1271  0.0651  0.2209
   60CHL1   H2A 6894   0.699   5.423   9.388  1.6499  0.6600  3.0344
   60CHL1   H2B 6895   0.664   5.595   9.373 -0.6961 -0.3567 -0.6584
   60CHL1   C20 6896   0.893   5.588   8.413 -0.2030 -0.9410  0.0310
   60CHL1   H20 6897   0.886   5.696   8.389 -1.6074 -1.0380 -0.0867
   60CHL1   C21 6898   0.751   5.523   8.402 -0.3189  0.0177 -0.2614
   60CHL1  H21A 6899   0.756   5.427   8.457 -0.2417 -0.8295 -1.7039
   60CHL1  H21B 6900   0.707   5.496   8.304  1.3334 -1.2789 -0.6852
   60CHL1  H21C 6901   0.679   5.570   8.473 -2.0912 -3.4275  0.4079
   60CHL1   C22 6902   0.991   5.531   8.302 -0.2603  0.2104  0.5862
   60CHL1  H22A 6903   1.081   5.596   8.293  0.2802 -0.6416 -0.4614
   60CHL1  H22B 6904   1.038   5.436   8.335 -0.7506  0.1616  1.1405
   60CHL1   C23 6905   0.919   5.522   8.163  0.1813 -0.2643  0.6396
   60CHL1  H23A 6906   1.003   5.505   8.093 -0.5673 -2.1600  0.1553
   60CHL1  H23B 6907   0.861   5.427   8.166  0.1452 -0.2369  0.8733
   60CHL1   C24 6908   0.855   5.654   8.105 -0.4401 -0.1112 -0.4099
   60CHL1  H24A 6909   0.758   5.671   8.156 -0.9330 -0.8587 -1.0913
   60CHL1  H24B 6910   0.924   5.740   8.122 -0.4513 -0.4600  1.7550
   60CHL1   C25 6911   0.810   5.650   7.954 -0.4148  0.1415 -0.4282
   60CHL1   H25 6912   0.777   5.755   7.940  1.3724  0.8272  0.1246
   60CHL1   C26 6913   0.915   5.628   7.850  0.0717  0.2388  0.1423
   60CHL1  H26A 6914   0.921   5.520   7.826 -1.3074  0.2024 -0.1042
   60CHL1  H26B 6915   0.891   5.685   7.758  1.3993 -1.6903 -1.4787
   60CHL1  H26C 6916   1.007   5.666   7.900 -0.6836  0.8029  1.1477
   60CHL1   C27 6917   0.691   5.551   7.929  0.6873  0.0355  0.1074
   60CHL1  H27A 6918   0.668   5.546   7.821  1.8477  0.9972 -0.2068
   60CHL1  H27B 6919   0.705   5.445   7.959 -1.1600 -0.1924  0.3156
   60CHL1  H27C 6920   0.603   5.596   7.980 -1.2391  0.6696 -3.4366
   61CHL1    C3 6921   5.595   6.110   8.994  0.7075  0.3199  0.0530
   61CHL1    H3 6922   5.524   6.195   9.007  0.3638 -0.1090  1.1743
   61CHL1    O3 6923   5.646   6.066   9.119 -0.4725 -0.0258 -0.7704
   61CHL1   H3' 6924   5.698   5.990   9.094  0.2272  0.9053 -2.3443
   61CHL1    C4 6925   5.514   5.994   8.923  0.3225  0.1340  0.4147
   61CHL1   H4A 6926   5.579   5.904   8.919 -0.6758 -0.6626  1.3531
   61CHL1   H4B 6927   5.426   5.980   8.990 -1.0152  3.9462 -0.2948
   61CHL1    C5 6928   5.473   6.018   8.776  0.1839  0.9382 -0.2255
   61CHL1    C6 6929   5.348   6.015   8.735  0.3707  0.7937  0.5190
   61CHL1    H6 6930   5.265   5.992   8.804  2.3322 -0.0486  2.7172
   61CHL1    C7 6931   5.306   6.034   8.593  0.5503 -0.0679  0.2011
   61CHL1   H7A 6932   5.234   5.952   8.573  1.4588 -0.8784  0.1745
   61CHL1   H7B 6933   5.255   6.133   8.581  1.5309  0.2758 -1.4506
   61CHL1    C8 6934   5.424   6.031   8.495  0.1362 -0.2640 -0.2652
   61CHL1    H8 6935   5.463   5.928   8.481  0.1582 -0.1168 -1.3252
   61CHL1   C14 6936   5.378   6.098   8.368 -0.7388  0.4241 -0.6792
   61CHL1   H14 6937   5.365   6.206   8.389 -2.5555  0.4343 -1.6911
   61CHL1   C15 6938   5.243   6.057   8.305  0.0571 -0.2114 -0.7900
   61CHL1  H15A 6939   5.241   5.948   8.326 -1.0184  0.2533  1.9158
   61CHL1  H15B 6940   5.168   6.122   8.355  2.1250  0.1711  2.1160
   61CHL1   C16 6941   5.263   6.093   8.161  0.1764 -0.2986 -0.0740
   61CHL1  H16A 6942   5.237   6.007   8.096  0.1359 -0.7749  0.5659
   61CHL1  H16B 6943   5.184   6.168   8.139 -1.4804 -2.1177 -0.6055
   61CHL1   C17 6944   5.409   6.156   8.139 -0.3557  0.5583 -0.1174
   61CHL1   H17 6945   5.406   6.264   8.167  0.6790  0.2968  1.1159
   61CHL1   C13 6946   5.487   6.097   8.260 -0.4370  0.1087 -0.1217
   61CHL1   C18 6947   5.532   5.954   8.228  0.2066 -0.5470 -0.4514
   61CHL1  H18A 6948   5.605   5.944   8.145  0.4333  1.7589 -0.5994
   61CHL1  H18B 6949   5.577   5.906   8.317 -0.9083  0.8892  0.9367
   61CHL1  H18C 6950   5.443   5.893   8.201  1.1459 -1.9939 -0.3838
   61CHL1   C12 6951   5.604   6.179   8.307 -0.4375 -0.9584  0.6705
   61CHL1  H12A 6952   5.690   6.175   8.238 -0.7511  0.5801  0.1460
   61CHL1  H12B 6953   5.575   6.285   8.321 -1.1210 -1.4140  3.4688
   61CHL1   C11 6954   5.654   6.133   8.447  0.1185 -0.7116  0.5975
   61CHL1  H11A 6955   5.696   6.032   8.429 -0.4556 -1.6223  3.7538
   61CHL1  H11B 6956   5.737   6.196   8.485 -0.6783  0.6462  0.1813
   61CHL1    C9 6957   5.542   6.118   8.557 -0.7086  0.2871 -0.3935
   61CHL1    H9 6958   5.494   6.216   8.579  0.3550  0.4437  1.3793
   61CHL1   C10 6959   5.596   6.063   8.690 -0.2017  0.5906 -0.6406
   61CHL1   C19 6960   5.688   5.948   8.666  0.4512 -0.2239 -0.6011
   61CHL1  H19A 6961   5.634   5.860   8.625 -0.8091  0.1813  0.1458
   61CHL1  H19B 6962   5.766   5.976   8.592  0.6082  0.1494 -0.2919
   61CHL1  H19C 6963   5.740   5.922   8.760 -0.6528  2.8229  0.9849
   61CHL1    C1 6964   5.670   6.175   8.765 -0.0707 -0.3970  0.0951
   61CHL1   H1A 6965   5.755   6.202   8.700 -1.9380  0.1275 -2.2957
   61CHL1   H1B 6966   5.617   6.273   8.768  2.7793  1.2551  0.2896
   61CHL1    C2 6967   5.719   6.144   8.913 -0.2885  0.1339  0.8386
   61CHL1   H2A 6968   5.766   6.238   8.947 -1.2463  1.0395 -0.2372
   61CHL1   H2B 6969   5.790   6.059   8.908 -0.8854 -0.3314 -2.2825
   61CHL1   C20 6970   5.466   6.157   7.994  0.1958 -1.1100  0.3422
   61CHL1   H20 6971   5.507   6.056   7.973  1.4745 -0.6246  0.4494
   61CHL1   C21 6972   5.578   6.261   7.982 -0.9084 -0.6042 -0.1720
   61CHL1  H21A 6973   5.536   6.361   8.007  1.4938 -0.2029  3.0747
   61CHL1  H21B 6974   5.622   6.259   7.880 -2.4803  1.7008 -0.9643
   61CHL1  H21C 6975   5.660   6.230   8.052  0.1716 -1.3018 -1.6921
   61CHL1   C22 6976   5.348   6.169   7.886  0.2909 -0.8345  0.5584
   61CHL1  H22A 6977   5.289   6.075   7.888 -1.2424  0.0925  0.5523
   61CHL1  H22B 6978   5.286   6.253   7.923  0.7577 -0.5109  0.6197
   61CHL1   C23 6979   5.404   6.190   7.742  0.1426  0.0252  0.3033
   61CHL1  H23A 6980   5.460   6.286   7.744 -0.8429  0.5926  1.3394
   61CHL1  H23B 6981   5.466   6.101   7.716  1.0200  0.7531 -0.1989
   61CHL1   C24 6982   5.301   6.213   7.629  0.0071  0.0284 -0.5911
   61CHL1  H24A 6983   5.225   6.133   7.639  1.9435 -1.8020  0.1304
   61CHL1  H24B 6984   5.252   6.310   7.652  2.5229  1.1606  0.3432
   61CHL1   C25 6985   5.362   6.239   7.485  0.4141 -0.2387  0.5356
   61CHL1   H25 6986   5.273   6.256   7.421 -0.4592  1.5356  2.1198
   61CHL1   C26 6987   5.458   6.354   7.483  0.2763 -0.0944  0.1815
   61CHL1  H26A 6988   5.543   6.344   7.553  1.6584  0.4323 -1.3581
   61CHL1  H26B 6989   5.509   6.367   7.385 -0.7683  0.5362 -0.2912
   61CHL1  H26C 6990   5.396   6.444   7.505 -0.6143 -0.8219  0.6949
   61CHL1   C27 6991   5.430   6.114   7.423 -0.5534 -0.6082  0.1378
   61CHL1  H27A 6992   5.372   6.025   7.455  0.4108 -0.6683  1.8592
   61CHL1  H27B 6993   5.434   6.123   7.312  0.7292  0.1695  0.2340
   61CHL1  H27C 6994   5.533   6.106   7.462  0.3309 -0.4801 -2.0147
   62CHL1    C3 6995   0.266   3.250   9.150 -0.7465  0.5140  1.1612
   62CHL1    H3 6996   0.185   3.325   9.152 -1.4152 -0.1201 -0.5924
   62CHL1    O3 6997   0.293   3.185   9.274 -0.0186  0.4874 -0.3612
   62CHL1   H3' 6998   0.378   3.140   9.271  0.1277  0.3539  2.9218
   62CHL1    C4 6999   0.221   3.143   9.048 -0.3230 -0.0658  0.1885
   62CHL1   H4A 7000   0.299   3.064   9.051 -3.2510 -3.1427  2.0454
   62CHL1   H4B 7001   0.125   3.094   9.076 -0.6930  0.6128  0.1157
   62CHL1    C5 7002   0.210   3.195   8.908  0.2204  0.0423  0.2375
   62CHL1    C6 7003   0.098   3.184   8.833  0.3054  0.5069  0.0485
   62CHL1    H6 7004   0.018   3.122   8.876  2.5769 -2.1776  0.6868
   62CHL1    C7 7005   0.090   3.228   8.691 -0.1297 -0.3603  0.3928
   62CHL1   H7A 7006   0.041   3.159   8.619  0.5391  0.8867 -1.3281
   62CHL1   H7B 7007   0.015   3.310   8.697 -3.8202 -3.3678 -0.7941
   62CHL1    C8 7008   0.210   3.292   8.619 -0.1840 -0.1912 -0.7767
   62CHL1    H8 7009   0.270   3.207   8.580 -2.0236 -0.3928 -3.4520
   62CHL1   C14 7010   0.169   3.389   8.501  0.4431  1.1659 -0.2663
   62CHL1   H14 7011   0.113   3.474   8.545 -0.0193  0.6454  0.1690
   62CHL1   C15 7012   0.087   3.330   8.388  0.3263  0.5921  0.3518
   62CHL1  H15A 7013   0.114   3.227   8.356 -3.0958 -0.1287 -0.6408
   62CHL1  H15B 7014  -0.023   3.326   8.406  0.0646 -0.3413 -1.2101
   62CHL1   C16 7015   0.119   3.420   8.265  0.7075  0.3292 -0.4560
   62CHL1  H16A 7016   0.158   3.352   8.187  1.0977 -1.5204  1.2645
   62CHL1  H16B 7017   0.029   3.473   8.228 -0.1393 -0.5702  0.2570
   62CHL1   C17 7018   0.226   3.522   8.321  0.4037  0.3262 -0.2621
   62CHL1   H17 7019   0.163   3.593   8.380  0.9018  0.8779 -0.3866
   62CHL1   C13 7020   0.295   3.447   8.440  0.0428 -0.4646 -0.1454
   62CHL1   C18 7021   0.389   3.345   8.385 -0.1662  0.4397 -0.4761
   62CHL1  H18A 7022   0.409   3.256   8.448  2.3187 -0.3951 -2.3226
   62CHL1  H18B 7023   0.337   3.302   8.297 -2.4556  0.2378  0.8671
   62CHL1  H18C 7024   0.488   3.385   8.356  0.1685 -0.7104 -0.9714
   62CHL1   C12 7025   0.367   3.524   8.555  0.3471  0.6901 -0.3606
   62CHL1  H12A 7026   0.459   3.562   8.506  0.5464  1.8741  0.8384
   62CHL1  H12B 7027   0.301   3.605   8.595  0.1779  0.4621 -0.1739
   62CHL1   C11 7028   0.418   3.428   8.666  0.2099 -0.5578 -0.7847
   62CHL1  H11A 7029   0.479   3.345   8.624  0.9200 -1.3297  1.6492
   62CHL1  H11B 7030   0.480   3.480   8.742  0.4325  0.3443 -1.5627
   62CHL1    C9 7031   0.293   3.370   8.732  0.4048  0.4676 -0.1166
   62CHL1    H9 7032   0.228   3.455   8.762  0.6541  0.0704  1.6946
   62CHL1   C10 7033   0.330   3.282   8.851 -0.0480  0.6067 -0.8932
   62CHL1   C19 7034   0.452   3.182   8.827 -0.3755 -0.5473  0.4189
   62CHL1  H19A 7035   0.453   3.114   8.915 -0.5571 -1.2874 -0.1302
   62CHL1  H19B 7036   0.424   3.110   8.747  0.2843 -1.8580  1.3339
   62CHL1  H19C 7037   0.548   3.236   8.813 -0.9036 -0.0242 -1.5376
   62CHL1    C1 7038   0.380   3.378   8.960 -0.2903  0.2270 -0.2326
   62CHL1   H1A 7039   0.477   3.428   8.936  0.1038  1.4221  3.2888
   62CHL1   H1B 7040   0.299   3.453   8.967  0.1143  0.8154 -1.6054
   62CHL1    C2 7041   0.397   3.322   9.105 -0.7586  0.2071 -0.1540
   62CHL1   H2A 7042   0.427   3.407   9.170 -1.5545  1.9590 -1.9537
   62CHL1   H2B 7043   0.477   3.246   9.100  0.2708  1.1746  1.0317
   62CHL1   C20 7044   0.320   3.602   8.224 -0.2818  0.3573  0.0705
   62CHL1   H20 7045   0.412   3.625   8.282  0.0416 -0.9570  0.1192
   62CHL1   C21 7046   0.253   3.742   8.186  0.2166  0.1070  0.2968
   62CHL1  H21A 7047   0.323   3.792   8.116  2.1225 -2.8174 -0.0873
   62CHL1  H21B 7048   0.239   3.801   8.279  0.9870 -0.6562  0.9150
   62CHL1  H21C 7049   0.153   3.720   8.143  0.3872 -1.2864  0.5665
   62CHL1   C22 7050   0.371   3.522   8.103  0.0743  0.2448  1.0115
   62CHL1  H22A 7051   0.392   3.417   8.131 -0.5569 -0.4118 -0.7977
   62CHL1  H22B 7052   0.284   3.527   8.034  0.3454  0.1671  0.6648
   62CHL1   C23 7053   0.497   3.576   8.034 -0.4475  0.1005 -0.0300
   62CHL1  H23A 7054   0.491   3.685   8.012  3.1573  0.2000 -1.1125
   62CHL1  H23B 7055   0.581   3.564   8.106  0.8129  1.9378 -1.1036
   62CHL1   C24 7056   0.550   3.497   7.911 -0.7147  0.0162 -0.0027
   62CHL1  H24A 7057   0.657   3.526   7.899 -0.2202 -1.8230 -0.3887
   62CHL1  H24B 7058   0.557   3.389   7.938 -2.7598 -0.2232 -0.2373
   62CHL1   C25 7059   0.467   3.512   7.780  0.7855  0.1509  0.2624
   62CHL1   H25 7060   0.377   3.446   7.774  0.2050  1.0448 -1.5761
   62CHL1   C26 7061   0.411   3.655   7.755  0.1125 -0.2518 -0.2156
   62CHL1  H26A 7062   0.321   3.673   7.818 -0.5678  1.1764 -1.5337
   62CHL1  H26B 7063   0.495   3.722   7.782  1.0521 -0.2173 -2.9821
   62CHL1  H26C 7064   0.392   3.684   7.650 -3.6210 -2.0048 -0.1843
   62CHL1   C27 7065   0.549   3.471   7.652  0.5148  0.1272  0.3838
   62CHL1  H27A 7066   0.590   3.368   7.667 -2.8773 -1.4832 -0.4661
   62CHL1  H27B 7067   0.485   3.456   7.563 -0.7036 -0.8360  1.3875
   62CHL1  H27C 7068   0.621   3.554   7.638 -1.2735  1.7411  0.3746
   63CHL1    C3 7069   1.492   5.724   9.228  0.5111  0.3724 -0.1349
   63CHL1    H3 7070   1.405   5.670   9.186 -1.8971  1.5991  2.8948
   63CHL1    O3 7071   1.511   5.692   9.356 -0.3637 -0.5144 -0.5307
   63CHL1   H3' 7072   1.428   5.707   9.402  0.7454  0.5875  1.2150
   63CHL1    C4 7073   1.618   5.693   9.145  1.0989 -0.1488 -0.3047
   63CHL1   H4A 7074   1.698   5.758   9.186 -1.3584  3.8122 -1.2134
   63CHL1   H4B 7075   1.642   5.584   9.153 -0.5306 -0.4800  0.3506
   63CHL1    C5 7076   1.586   5.735   9.003 -0.0848 -0.4448 -0.2366
   63CHL1    C6 7077   1.585   5.654   8.901 -0.0285  1.0208 -0.0569
   63CHL1    H6 7078   1.623   5.554   8.926  0.7868  1.5383  0.8959
   63CHL1    C7 7079   1.552   5.674   8.755  0.5378  0.1425  0.4346
   63CHL1   H7A 7080   1.626   5.636   8.682  0.8166 -1.4063  1.4884
   63CHL1   H7B 7081   1.452   5.629   8.739  0.4173  1.0207 -1.6164
   63CHL1    C8 7082   1.547   5.832   8.724  0.0685  0.2103 -0.5259
   63CHL1    H8 7083   1.652   5.864   8.704  0.6183 -1.8081 -1.0296
   63CHL1   C14 7084   1.472   5.854   8.597  0.4524  0.0054 -0.7008
   63CHL1   H14 7085   1.367   5.832   8.627  0.7448 -0.2454  0.1711
   63CHL1   C15 7086   1.510   5.769   8.467  0.5858  0.2871  0.1834
   63CHL1  H15A 7087   1.620   5.753   8.459  0.2742 -1.9631 -0.4707
   63CHL1  H15B 7088   1.465   5.667   8.473  2.1182 -0.3572  1.8532
   63CHL1   C16 7089   1.454   5.857   8.356  0.2854 -0.2261  0.2924
   63CHL1  H16A 7090   1.534   5.877   8.281 -0.5798 -0.6989 -0.7995
   63CHL1  H16B 7091   1.370   5.810   8.300  2.6176 -2.4303 -1.6456
   63CHL1   C17 7092   1.408   5.984   8.421  0.8060 -0.0969 -0.4642
   63CHL1   H17 7093   1.305   5.966   8.457  0.8147  0.1764 -0.2967
   63CHL1   C13 7094   1.482   5.998   8.550  0.2071 -0.0219  0.2663
   63CHL1   C18 7095   1.628   6.041   8.515  0.2870 -0.4125 -0.4607
   63CHL1  H18A 7096   1.694   6.031   8.604  0.0815 -0.0733 -0.2695
   63CHL1  H18B 7097   1.668   5.976   8.435  0.3854 -1.4769  0.4167
   63CHL1  H18C 7098   1.637   6.146   8.483  2.5818 -0.6364 -0.7269
   63CHL1   C12 7099   1.413   6.081   8.651  0.2890 -0.1626  0.1523
   63CHL1  H12A 7100   1.422   6.189   8.627  0.6396  0.1765  1.7028
   63CHL1  H12B 7101   1.306   6.054   8.634  0.6303 -0.1197 -2.4472
   63CHL1   C11 7102   1.477   6.063   8.788  0.1257 -0.4910 -0.7061
   63CHL1  H11A 7103   1.579   6.106   8.796  0.4493 -1.4754  1.2387
   63CHL1  H11B 7104   1.418   6.111   8.870  2.5489 -1.5418  1.7946
   63CHL1    C9 7105   1.487   5.915   8.837  0.4374  0.2011  0.0573
   63CHL1    H9 7106   1.384   5.874   8.845  0.6752 -0.1781  1.4640
   63CHL1   C10 7107   1.542   5.881   8.985  0.0067  0.3479 -0.0305
   63CHL1   C19 7108   1.672   5.962   8.998 -0.2667 -0.0348 -0.1381
   63CHL1  H19A 7109   1.659   6.072   8.991  1.4714  0.2271  0.1736
   63CHL1  H19B 7110   1.715   5.938   9.098 -0.1118 -3.9714 -0.9822
   63CHL1  H19C 7111   1.748   5.942   8.919  0.0676 -0.2564  0.2321
   63CHL1    C1 7112   1.433   5.931   9.092 -0.0699 -0.0305  0.5983
   63CHL1   H1A 7113   1.436   6.042   9.093 -0.3962 -0.0226  0.9746
   63CHL1   H1B 7114   1.331   5.904   9.056 -0.7359 -1.4971  3.2815
   63CHL1    C2 7115   1.463   5.878   9.233 -0.8325 -0.2543  0.2747
   63CHL1   H2A 7116   1.379   5.907   9.299 -0.5450  1.5848 -0.1263
   63CHL1   H2B 7117   1.549   5.939   9.267  0.3019 -1.8330  0.3637
   63CHL1   C20 7118   1.400   6.099   8.321  0.1851  0.6422  0.0845
   63CHL1   H20 7119   1.409   6.192   8.381 -2.7426  1.7549 -1.0239
   63CHL1   C21 7120   1.268   6.082   8.243 -0.6962  0.1284  0.7896
   63CHL1  H21A 7121   1.268   6.170   8.175  2.7647  0.3982  0.9388
   63CHL1  H21B 7122   1.180   6.095   8.310  0.4911  1.6145  2.1558
   63CHL1  H21C 7123   1.270   5.987   8.185  1.0280  0.8806 -0.4715
   63CHL1   C22 7124   1.503   6.113   8.214  0.3459  0.1887 -0.2961
   63CHL1  H22A 7125   1.609   6.109   8.248 -0.1373  2.4091  1.7530
   63CHL1  H22B 7126   1.499   6.045   8.126 -1.3828  1.7716 -1.5161
   63CHL1   C23 7127   1.496   6.248   8.146 -0.2155  0.3175 -0.0628
   63CHL1  H23A 7128   1.410   6.263   8.077  1.2059  3.0890 -1.3900
   63CHL1  H23B 7129   1.486   6.325   8.226 -1.8637  0.6702 -0.5643
   63CHL1   C24 7130   1.627   6.274   8.055  0.7597  0.5021  0.0353
   63CHL1  H24A 7131   1.721   6.276   8.114 -0.4166 -1.2722  2.0861
   63CHL1  H24B 7132   1.626   6.189   7.984 -2.2729  1.3622 -1.1299
   63CHL1   C25 7133   1.608   6.400   7.973  0.3395 -0.3334 -0.2791
   63CHL1   H25 7134   1.505   6.397   7.930  0.7110 -1.8669 -1.1016
   63CHL1   C26 7135   1.618   6.539   8.049 -0.4898 -0.7847  0.1957
   63CHL1  H26A 7136   1.719   6.539   8.095 -1.5455 -0.2641  2.6385
   63CHL1  H26B 7137   1.599   6.627   7.983  1.2854  0.3845  1.1616
   63CHL1  H26C 7138   1.536   6.542   8.123 -1.1795  1.1621 -0.5956
   63CHL1   C27 7139   1.701   6.387   7.852 -0.7042  0.0964  1.2700
   63CHL1  H27A 7140   1.807   6.380   7.888 -0.7114  1.4699  1.6203
   63CHL1  H27B 7141   1.675   6.295   7.797  0.3877  0.9766 -0.8348
   63CHL1  H27C 7142   1.700   6.478   7.787  1.9537  0.1286  1.1281
   64CHL1    C3 7143   0.585   4.342   9.343 -0.3232 -0.2722  0.8483
   64CHL1    H3 7144   0.692   4.332   9.312 -0.8855 -1.6646 -0.7523
   64CHL1    O3 7145   0.558   4.325   9.480  0.1594 -0.6125 -0.1464
   64CHL1   H3' 7146   0.476   4.369   9.502  1.5048  1.6802  0.6196
   64CHL1    C4 7147   0.552   4.493   9.303 -0.3163 -0.0293 -0.2850
   64CHL1   H4A 7148   0.452   4.522   9.341 -0.3249 -1.3061  0.7635
   64CHL1   H4B 7149   0.618   4.549   9.373 -2.6573  1.1758  1.0543
   64CHL1    C5 7150   0.581   4.503   9.151 -0.1879  0.0539 -0.3809
   64CHL1    C6 7151   0.676   4.590   9.113  0.9722 -0.3954 -0.8568
   64CHL1    H6 7152   0.726   4.647   9.194 -1.1120 -1.2237  1.1137
   64CHL1    C7 7153   0.720   4.615   8.972  0.0703  0.8773 -0.4905
   64CHL1   H7A 7154   0.735   4.722   8.946 -0.6532  1.5572  1.6699
   64CHL1   H7B 7155   0.807   4.552   8.945 -0.4492 -0.7914  1.4872
   64CHL1    C8 7156   0.615   4.545   8.869 -0.3216 -0.1759 -0.6540
   64CHL1    H8 7157   0.523   4.608   8.869  1.0338  1.9155 -0.2039
   64CHL1   C14 7158   0.672   4.552   8.733  0.0860  0.2390 -0.4238
   64CHL1   H14 7159   0.758   4.481   8.734 -1.1252 -1.3128 -1.3991
   64CHL1   C15 7160   0.727   4.686   8.682 -0.5008 -0.0883 -0.2035
   64CHL1  H15A 7161   0.649   4.764   8.694 -1.9799 -0.7818 -3.7115
   64CHL1  H15B 7162   0.818   4.718   8.736 -1.0228  3.0231 -0.9912
   64CHL1   C16 7163   0.754   4.655   8.540  0.2499 -0.5372 -0.2368
   64CHL1  H16A 7164   0.711   4.741   8.484 -0.9199  0.3085  1.8150
   64CHL1  H16B 7165   0.861   4.653   8.513  0.3590 -2.9750  0.1191
   64CHL1   C17 7166   0.672   4.523   8.504  0.3509 -0.3857 -0.0591
   64CHL1   H17 7167   0.745   4.439   8.517  0.4811 -0.6160 -2.0165
   64CHL1   C13 7168   0.580   4.498   8.618 -0.4015 -0.2595  0.2786
   64CHL1   C18 7169   0.456   4.580   8.591  0.1657  0.1881 -0.1068
   64CHL1  H18A 7170   0.388   4.526   8.522 -0.3934  0.8468 -0.0761
   64CHL1  H18B 7171   0.403   4.606   8.684 -1.6243 -0.3800 -0.9289
   64CHL1  H18C 7172   0.490   4.676   8.545  0.0819 -0.3463 -1.3355
   64CHL1   C12 7173   0.548   4.350   8.659  0.2928 -0.0489  0.7124
   64CHL1  H12A 7174   0.480   4.302   8.585  1.0332 -1.1171  0.7007
   64CHL1  H12B 7175   0.640   4.289   8.646 -0.1814 -0.4234 -1.2078
   64CHL1   C11 7176   0.488   4.335   8.797  0.1581 -0.0789 -0.5748
   64CHL1  H11A 7177   0.385   4.376   8.790 -0.1694 -0.5729  1.0100
   64CHL1  H11B 7178   0.480   4.228   8.826 -2.2652  0.4958  1.1519
   64CHL1    C9 7179   0.569   4.406   8.908 -0.9198 -0.1365 -0.5126
   64CHL1    H9 7180   0.667   4.353   8.918 -0.8884  0.2694  2.1154
   64CHL1   C10 7181   0.510   4.404   9.055  0.0715 -1.2113  0.0859
   64CHL1   C19 7182   0.359   4.445   9.051  0.4792  0.7555  0.8012
   64CHL1  H19A 7183   0.347   4.540   8.995 -1.2344  0.2974  0.3509
   64CHL1  H19B 7184   0.299   4.369   8.997  0.7258  0.1623  1.3534
   64CHL1  H19C 7185   0.317   4.458   9.152  1.3475 -0.8566  1.3992
   64CHL1    C1 7186   0.515   4.256   9.115  0.3847 -0.3013 -0.2466
   64CHL1   H1A 7187   0.451   4.185   9.058 -0.3796  0.2596 -0.1065
   64CHL1   H1B 7188   0.622   4.228   9.105  0.9436  1.8519 -0.7246
   64CHL1    C2 7189   0.491   4.246   9.269  0.2659 -0.1000 -0.7252
   64CHL1   H2A 7190   0.521   4.144   9.300 -2.2790 -0.5362  0.5833
   64CHL1   H2B 7191   0.391   4.276   9.308 -0.1416 -0.3830 -1.5295
   64CHL1   C20 7192   0.631   4.503   8.353  0.5350 -0.5254  0.0127
   64CHL1   H20 7193   0.724   4.511   8.293  1.6146  4.4183  1.8058
   64CHL1   C21 7194   0.538   4.610   8.287  0.4805 -0.1672 -0.8960
   64CHL1  H21A 7195   0.434   4.581   8.309 -0.7812  3.0103 -2.0394
   64CHL1  H21B 7196   0.557   4.619   8.178  1.3209 -1.3091 -0.8557
   64CHL1  H21C 7197   0.561   4.709   8.332 -1.4098  0.0632 -0.3683
   64CHL1   C22 7198   0.565   4.366   8.319 -0.2650  0.0921  0.1150
   64CHL1  H22A 7199   0.630   4.294   8.372 -1.1123  1.1585  2.7666
   64CHL1  H22B 7200   0.474   4.341   8.378  1.2140 -0.7262  2.1888
   64CHL1   C23 7201   0.540   4.347   8.169  0.3518  0.1747  0.0515
   64CHL1  H23A 7202   0.466   4.417   8.125 -0.7109 -1.2370 -0.4672
   64CHL1  H23B 7203   0.635   4.372   8.117  2.4376 -2.3074  2.3550
   64CHL1   C24 7204   0.494   4.205   8.123  0.1898 -0.3048 -0.0353
   64CHL1  H24A 7205   0.552   4.129   8.179  1.8717  0.6546 -0.4065
   64CHL1  H24B 7206   0.389   4.192   8.157 -0.3232  0.5324 -1.2315
   64CHL1   C25 7207   0.506   4.181   7.973 -0.0983  0.0932 -0.5520
   64CHL1   H25 7208   0.606   4.217   7.939  0.3495 -0.6954 -0.0960
   64CHL1   C26 7209   0.499   4.033   7.944  0.1497  0.6482  0.2725
   64CHL1  H26A 7210   0.401   3.984   7.965  0.8115 -0.8826 -0.0931
   64CHL1  H26B 7211   0.524   4.002   7.841  1.2565 -0.2437  0.7930
   64CHL1  H26C 7212   0.571   3.984   8.012  0.3998  0.3900 -0.1760
   64CHL1   C27 7213   0.401   4.263   7.894  0.5578 -0.0098  0.5119
   64CHL1  H27A 7214   0.404   4.374   7.893 -1.0431  0.0533 -0.5600
   64CHL1  H27B 7215   0.409   4.243   7.785  1.9800 -0.2170  0.6308
   64CHL1  H27C 7216   0.301   4.223   7.920  0.6024 -1.5508 -1.4773
   65CHL1    C3 7217   2.802   6.663   9.143  0.8119 -0.4731 -0.0281
   65CHL1    H3 7218   2.755   6.762   9.160 -0.0606 -0.9265  0.2800
   65CHL1    O3 7219   2.815   6.602   9.279 -0.2115 -0.4778  0.6276
   65CHL1   H3' 7220   2.837   6.508   9.274 -0.5235 -0.6459  1.9450
   65CHL1    C4 7221   2.701   6.570   9.069  0.1731  0.8156  0.0884
   65CHL1   H4A 7222   2.743   6.467   9.069 -1.6734  0.0104  0.6624
   65CHL1   H4B 7223   2.612   6.558   9.135  2.5076  0.8890  3.5003
   65CHL1    C5 7224   2.674   6.623   8.929  0.8311 -0.4348  0.2742
   65CHL1    C6 7225   2.552   6.649   8.887  0.4740 -1.1168 -0.5721
   65CHL1    H6 7226   2.469   6.660   8.959 -0.0766 -1.0644 -1.2004
   65CHL1    C7 7227   2.520   6.688   8.745 -0.3345 -0.3788  0.4322
   65CHL1   H7A 7228   2.429   6.633   8.713 -1.3117  1.2273  0.3497
   65CHL1   H7B 7229   2.515   6.799   8.746 -0.6525 -0.3559  3.1733
   65CHL1    C8 7230   2.639   6.663   8.648 -0.0728  0.0283  0.2398
   65CHL1    H8 7231   2.649   6.554   8.630 -2.0838  0.2276 -2.7796
   65CHL1   C14 7232   2.619   6.737   8.523 -0.0998 -0.0969 -0.0312
   65CHL1   H14 7233   2.622   6.845   8.545  4.2548  0.7305 -3.2454
   65CHL1   C15 7234   2.483   6.705   8.452 -0.0059  0.8552  0.3155
   65CHL1  H15A 7235   2.479   6.595   8.441 -1.5666  0.8477  0.6412
   65CHL1  H15B 7236   2.393   6.744   8.505 -0.7910 -2.5114  1.6804
   65CHL1   C16 7237   2.500   6.769   8.315  0.6192  0.3306  0.5432
   65CHL1  H16A 7238   2.473   6.692   8.239 -0.9556  2.5009 -1.2023
   65CHL1  H16B 7239   2.433   6.857   8.318 -1.6180 -1.3097  1.7771
   65CHL1   C17 7240   2.650   6.809   8.295 -0.2933 -0.0755 -0.5199
   65CHL1   H17 7241   2.653   6.918   8.317  1.7404 -0.2273  0.0927
   65CHL1   C13 7242   2.723   6.737   8.412 -0.0615 -0.4358  0.7564
   65CHL1   C18 7243   2.753   6.587   8.376  0.3809 -0.5959 -0.1852
   65CHL1  H18A 7244   2.769   6.528   8.469 -3.2274 -0.4691  0.6900
   65CHL1  H18B 7245   2.660   6.546   8.331  0.4196 -1.7682  0.7446
   65CHL1  H18C 7246   2.839   6.574   8.308  2.7152 -1.1980  2.6552
   65CHL1   C12 7247   2.850   6.803   8.475  0.5944  0.0943 -0.7262
   65CHL1  H12A 7248   2.933   6.813   8.402  1.1160  1.1117 -0.0094
   65CHL1  H12B 7249   2.818   6.909   8.486 -1.8136 -0.6580  0.1829
   65CHL1   C11 7250   2.892   6.727   8.602 -0.2674 -0.3126 -0.2186
   65CHL1  H11A 7251   2.948   6.635   8.575  0.8555  0.1511  0.4748
   65CHL1  H11B 7252   2.973   6.792   8.642  0.7437 -1.4817 -0.3165
   65CHL1    C9 7253   2.773   6.720   8.708 -0.4909  1.0208 -0.3731
   65CHL1    H9 7254   2.753   6.825   8.738  1.0378  0.7139  2.0335
   65CHL1   C10 7255   2.804   6.643   8.847 -0.0278  0.2337  1.0118
   65CHL1   C19 7256   2.861   6.499   8.812  0.1157  0.1630 -0.5136
   65CHL1  H19A 7257   2.965   6.506   8.773 -0.0866 -0.5233 -1.1976
   65CHL1  H19B 7258   2.854   6.434   8.902  1.0715 -0.2914 -0.7565
   65CHL1  H19C 7259   2.808   6.440   8.734 -1.7878 -0.9859  1.5359
   65CHL1    C1 7260   2.902   6.735   8.928  0.3959 -0.2188  0.2384
   65CHL1   H1A 7261   2.987   6.738   8.857 -0.4888  0.4368 -0.8074
   65CHL1   H1B 7262   2.851   6.832   8.944 -1.1796 -1.3243  2.5819
   65CHL1    C2 7263   2.934   6.684   9.068  1.1338 -0.3711  1.3430
   65CHL1   H2A 7264   3.012   6.744   9.119  0.5304  0.0484  1.7978
   65CHL1   H2B 7265   2.974   6.580   9.059  0.5886 -0.3896 -1.6550
   65CHL1   C20 7266   2.694   6.790   8.152  0.4686 -0.2478 -0.0657
   65CHL1   H20 7267   2.701   6.682   8.124 -3.4547 -0.4806 -0.7462
   65CHL1   C21 7268   2.832   6.853   8.131 -0.1337  0.7608 -0.0086
   65CHL1  H21A 7269   2.866   6.838   8.027 -2.2454  2.0197 -0.9531
   65CHL1  H21B 7270   2.912   6.814   8.198 -0.0402  2.6861  1.0738
   65CHL1  H21C 7271   2.808   6.960   8.144  0.3205  0.9144 -0.4540
   65CHL1   C22 7272   2.597   6.866   8.046 -0.0374 -0.1761  0.0422
   65CHL1  H22A 7273   2.644   6.848   7.947 -1.5401 -0.8557 -0.5861
   65CHL1  H22B 7274   2.494   6.822   8.046 -0.6938  1.2552  1.3929
   65CHL1   C23 7275   2.581   7.017   8.059 -0.2492 -0.5080  0.9196
   65CHL1  H23A 7276   2.553   7.049   8.162  3.7203  0.9902  1.6878
   65CHL1  H23B 7277   2.672   7.069   8.023 -1.6837  1.6244  0.1348
   65CHL1   C24 7278   2.461   7.050   7.965  0.7494  0.3113  0.5824
   65CHL1  H24A 7279   2.486   7.004   7.867 -1.1668  2.1239 -0.8387
   65CHL1  H24B 7280   2.376   6.993   8.009  0.1792  1.7952  1.4807
   65CHL1   C25 7281   2.415   7.198   7.945  0.4695 -0.3464 -0.0230
   65CHL1   H25 7282   2.391   7.237   8.046  1.7781 -1.5325  0.7909
   65CHL1   C26 7283   2.533   7.286   7.888  0.7341 -0.1718  0.4923
   65CHL1  H26A 7284   2.550   7.258   7.782 -0.3336 -0.1724  0.3092
   65CHL1  H26B 7285   2.513   7.394   7.904  0.2283 -0.2564  0.4687
   65CHL1  H26C 7286   2.629   7.267   7.941  0.3564 -0.7842  0.9807
   65CHL1   C27 7287   2.289   7.203   7.854  0.0561  0.5278  0.1504
   65CHL1  H27A 7288   2.311   7.151   7.759  0.0137 -0.4735  0.6816
   65CHL1  H27B 7289   2.192   7.175   7.902 -0.1356  0.0117 -0.5302
   65CHL1  H27C 7290   2.285   7.308   7.816 -2.3010  1.4251  2.4870
   66CHL1    C3 7291   7.119   5.345   9.119  0.2364 -0.0766 -0.4402
   66CHL1    H3 7292   7.131   5.443   9.068 -0.7967  0.4224  0.2300
   66CHL1    O3 7293   7.133   5.350   9.264  0.6515  0.2308  0.3245
   66CHL1   H3' 7294   7.102   5.266   9.301  1.9313 -1.2494 -1.7357
   66CHL1    C4 7295   6.972   5.297   9.078 -0.1833 -0.3131 -0.1721
   66CHL1   H4A 7296   6.946   5.204   9.132 -1.5658  1.4724  2.4057
   66CHL1   H4B 7297   6.904   5.377   9.114 -1.2229 -1.5875  0.7888
   66CHL1    C5 7298   6.960   5.279   8.928 -0.2905 -0.7678  0.5756
   66CHL1    C6 7299   6.858   5.325   8.862  0.1337  0.0725 -0.1698
   66CHL1    H6 7300   6.780   5.379   8.917 -1.4156 -0.7362 -1.4964
   66CHL1    C7 7301   6.842   5.316   8.713 -0.3223  0.3808  0.3261
   66CHL1   H7A 7302   6.737   5.298   8.681 -0.3055  0.5336  0.1827
   66CHL1   H7B 7303   6.866   5.421   8.684 -0.0374 -0.1432 -1.4916
   66CHL1    C8 7304   6.943   5.218   8.650  0.3323  0.3747  0.0514
   66CHL1    H8 7305   6.899   5.116   8.650  1.3110 -0.1288 -2.3687
   66CHL1   C14 7306   6.956   5.235   8.498  0.1724  0.3511 -0.4649
   66CHL1   H14 7307   6.993   5.339   8.485 -0.9653  0.8720  0.3056
   66CHL1   C15 7308   6.824   5.221   8.421 -0.4182 -0.5321 -0.3016
   66CHL1  H15A 7309   6.778   5.125   8.451  0.0668  0.4318  4.3822
   66CHL1  H15B 7310   6.752   5.300   8.452 -0.4043 -1.5568  2.6602
   66CHL1   C16 7311   6.869   5.235   8.273  0.1434 -0.4815 -0.0787
   66CHL1  H16A 7312   6.818   5.174   8.195  0.0117  2.0417 -2.1184
   66CHL1  H16B 7313   6.853   5.342   8.245 -2.9180 -1.0783 -0.9793
   66CHL1   C17 7314   7.022   5.207   8.276  0.2259  0.2253  0.0377
   66CHL1   H17 7315   7.084   5.299   8.269  0.5320 -0.0668 -1.2324
   66CHL1   C13 7316   7.057   5.151   8.424 -0.8745  0.3681 -0.0645
   66CHL1   C18 7317   7.016   5.002   8.433 -0.2345 -0.6337 -0.0566
   66CHL1  H18A 7318   6.996   4.979   8.540  0.1664 -2.8978 -0.4095
   66CHL1  H18B 7319   6.929   4.983   8.367 -0.2672  1.6711 -0.7723
   66CHL1  H18C 7320   7.099   4.935   8.403  0.1827 -0.6926  1.1521
   66CHL1   C12 7321   7.199   5.184   8.478 -0.0569 -0.0619 -0.6413
   66CHL1  H12A 7322   7.276   5.125   8.426  0.2611  0.2340 -0.5104
   66CHL1  H12B 7323   7.220   5.291   8.456 -3.4248  0.6717 -0.9527
   66CHL1   C11 7324   7.195   5.159   8.631 -0.3264  0.2569  0.2696
   66CHL1  H11A 7325   7.193   5.048   8.630 -0.6522  0.2642 -0.4742
   66CHL1  H11B 7326   7.289   5.207   8.667 -0.1176 -0.1644  0.2954
   66CHL1    C9 7327   7.080   5.225   8.713  0.2526 -0.4966  0.6106
   66CHL1    H9 7328   7.095   5.334   8.700 -1.2964 -0.0604  2.1135
   66CHL1   C10 7329   7.080   5.209   8.868 -0.8499  0.8115 -0.4253
   66CHL1   C19 7330   7.072   5.059   8.891  0.0069  0.0678  0.3396
   66CHL1  H19A 7331   7.040   5.028   8.993 -0.1601  0.8191  0.5240
   66CHL1  H19B 7332   6.996   5.021   8.820  1.6458  0.0030 -1.4525
   66CHL1  H19C 7333   7.171   5.014   8.869 -1.1997 -1.5759 -2.1577
   66CHL1    C1 7334   7.219   5.250   8.919 -0.0580  0.0739 -0.3102
   66CHL1   H1A 7335   7.289   5.171   8.883 -0.5291  0.4865 -2.2637
   66CHL1   H1B 7336   7.241   5.351   8.879  1.2106  0.3817  1.0701
   66CHL1    C2 7337   7.220   5.253   9.071 -0.1680 -0.3362  0.4984
   66CHL1   H2A 7338   7.324   5.272   9.107  0.2348 -0.3531 -0.6210
   66CHL1   H2B 7339   7.191   5.155   9.116 -1.5973 -1.0011 -1.7173
   66CHL1   C20 7340   7.064   5.125   8.152 -0.1718  0.6506  0.2544
   66CHL1   H20 7341   7.016   5.025   8.152  0.5267  0.2733 -1.6900
   66CHL1   C21 7342   7.215   5.102   8.145 -0.3657  0.0274  0.1542
   66CHL1  H21A 7343   7.282   5.190   8.157 -0.5141  0.2519 -0.6468
   66CHL1  H21B 7344   7.243   5.052   8.050  0.5373  1.6332 -0.4574
   66CHL1  H21C 7345   7.236   5.026   8.224  0.4189 -0.0339 -0.1012
   66CHL1   C22 7346   7.011   5.191   8.018 -0.1598 -0.3363 -0.1707
   66CHL1  H22A 7347   6.901   5.185   8.004  0.0385 -0.0172 -2.1022
   66CHL1  H22B 7348   7.056   5.293   8.015 -1.3772  0.4224  3.2566
   66CHL1   C23 7349   7.059   5.128   7.884 -0.3109 -0.4407 -0.2035
   66CHL1  H23A 7350   7.157   5.176   7.863  0.6893  0.3514  4.8172
   66CHL1  H23B 7351   7.075   5.021   7.911  1.0305 -0.7853 -2.1856
   66CHL1   C24 7352   6.952   5.123   7.784  1.0507  0.1857  0.3562
   66CHL1  H24A 7353   6.854   5.096   7.829  1.1142  1.6913  1.5029
   66CHL1  H24B 7354   6.944   5.221   7.730  2.0110 -0.5512 -1.1842
   66CHL1   C25 7355   6.976   5.027   7.660 -0.2756 -0.5915 -0.2551
   66CHL1   H25 7356   7.077   5.062   7.629  0.6238 -0.4709  2.5340
   66CHL1   C26 7357   6.976   4.878   7.703  0.4554 -0.3233 -0.1818
   66CHL1  H26A 7358   7.067   4.862   7.765  1.2086  0.4363 -1.0432
   66CHL1  H26B 7359   6.886   4.874   7.768 -0.9971  2.0470 -1.8948
   66CHL1  H26C 7360   6.971   4.803   7.621  0.3551 -0.1509 -0.3341
   66CHL1   C27 7361   6.885   5.046   7.541 -0.3496  0.6057 -0.6791
   66CHL1  H27A 7362   6.788   5.002   7.572  0.2880  0.8095  1.7910
   66CHL1  H27B 7363   6.871   5.152   7.511 -0.0880  0.3120 -1.9347
   66CHL1  H27C 7364   6.916   4.989   7.450  0.9190  0.8117 -0.3920
   67CHL1    C3 7365   6.396   6.950   9.035 -0.0355 -0.1787 -0.1384
   67CHL1    H3 7366   6.411   7.054   8.999 -1.8542  0.3197  0.4022
   67CHL1    O3 7367   6.376   6.964   9.180  0.1319 -0.5494 -0.3747
   67CHL1   H3' 7368   6.327   6.882   9.194  0.7500 -1.1737 -1.7093
   67CHL1    C4 7369   6.261   6.888   8.983 -0.5881  0.2439  0.5997
   67CHL1   H4A 7370   6.228   6.789   9.020 -2.2179  0.1849 -0.8797
   67CHL1   H4B 7371   6.174   6.952   9.009 -1.3641 -1.0986  1.4295
   67CHL1    C5 7372   6.274   6.857   8.840  0.8213  0.5076  0.3847
   67CHL1    C6 7373   6.184   6.904   8.752 -0.1722 -0.6932  0.0311
   67CHL1    H6 7374   6.107   6.972   8.791 -0.7488 -1.1259 -0.3278
   67CHL1    C7 7375   6.192   6.869   8.599  0.4314 -0.5388 -0.0817
   67CHL1   H7A 7376   6.091   6.859   8.554  0.8171  0.3886 -1.1981
   67CHL1   H7B 7377   6.240   6.958   8.552  0.4911 -0.8659 -0.6406
   67CHL1    C8 7378   6.282   6.744   8.577  0.5384  0.2320 -0.2053
   67CHL1    H8 7379   6.213   6.664   8.611  0.0021  0.4248 -0.8269
   67CHL1   C14 7380   6.308   6.738   8.425  0.4087  0.5123  0.2520
   67CHL1   H14 7381   6.367   6.830   8.403 -1.8309  1.9914  0.0763
   67CHL1   C15 7382   6.187   6.738   8.325 -0.7059  0.3846 -0.1036
   67CHL1  H15A 7383   6.114   6.665   8.368 -0.5329  0.2403 -0.0515
   67CHL1  H15B 7384   6.150   6.841   8.308 -0.6961  0.6142  1.1998
   67CHL1   C16 7385   6.249   6.688   8.192 -0.2304  0.5304 -0.3264
   67CHL1  H16A 7386   6.178   6.615   8.147 -2.2473  2.4270 -0.3955
   67CHL1  H16B 7387   6.257   6.783   8.136 -2.4799  0.2736 -1.1979
   67CHL1   C17 7388   6.386   6.626   8.219 -0.2706 -0.4560  1.1252
   67CHL1   H17 7389   6.458   6.706   8.193 -2.0855  0.5445 -1.1250
   67CHL1   C13 7390   6.390   6.622   8.376  0.3941  0.7130 -0.3262
   67CHL1   C18 7391   6.330   6.491   8.420  0.6115  0.0086 -0.1577
   67CHL1  H18A 7392   6.314   6.484   8.529 -0.1825  0.5522 -0.2370
   67CHL1  H18B 7393   6.227   6.491   8.378  0.9023  1.1173 -0.9111
   67CHL1  H18C 7394   6.384   6.400   8.383 -2.3667 -2.2424  0.6121
   67CHL1   C12 7395   6.526   6.639   8.446 -1.0003 -0.2172 -0.0577
   67CHL1  H12A 7396   6.590   6.551   8.422  1.1583  0.8262  1.5109
   67CHL1  H12B 7397   6.570   6.731   8.402 -1.9631  0.4881  0.4306
   67CHL1   C11 7398   6.518   6.650   8.601 -0.4982  0.2274 -0.2078
   67CHL1  H11A 7399   6.489   6.552   8.646 -0.1056  0.2381  0.0766
   67CHL1  H11B 7400   6.619   6.681   8.636 -1.4040  1.6804  1.2296
   67CHL1    C9 7401   6.419   6.757   8.644 -0.1345 -0.8365 -0.2500
   67CHL1    H9 7402   6.452   6.859   8.612 -0.5656 -0.2218  1.1803
   67CHL1   C10 7403   6.397   6.768   8.802 -0.2292 -0.0957 -0.0622
   67CHL1   C19 7404   6.382   6.628   8.863 -0.3183 -0.1862 -0.2515
   67CHL1  H19A 7405   6.485   6.587   8.863  0.0282  0.5847 -2.0603
   67CHL1  H19B 7406   6.346   6.619   8.968  1.5352  0.7850  0.5127
   67CHL1  H19C 7407   6.312   6.573   8.796 -0.0481 -0.5201 -0.2586
   67CHL1    C1 7408   6.523   6.841   8.859 -0.3736 -0.2372 -0.0726
   67CHL1   H1A 7409   6.620   6.795   8.830  0.7731  0.5773  2.1770
   67CHL1   H1B 7410   6.523   6.939   8.806  0.9381 -0.8367 -1.2226
   67CHL1    C2 7411   6.521   6.870   9.008 -0.3970  0.1648  0.2111
   67CHL1   H2A 7412   6.610   6.927   9.042 -0.5041 -0.1966  1.1346
   67CHL1   H2B 7413   6.511   6.773   9.062 -0.8048 -0.9883 -1.8575
   67CHL1   C20 7414   6.411   6.501   8.144 -0.1666  0.7168 -0.3747
   67CHL1   H20 7415   6.341   6.420   8.174  0.5225  0.3854  0.4137
   67CHL1   C21 7416   6.553   6.456   8.181 -0.0027 -0.9004 -0.3662
   67CHL1  H21A 7417   6.618   6.546   8.175  0.6944 -1.3589  0.2290
   67CHL1  H21B 7418   6.587   6.384   8.104 -1.6153 -1.9787 -0.1255
   67CHL1  H21C 7419   6.573   6.403   8.276  0.2651 -0.9439 -0.4478
   67CHL1   C22 7420   6.407   6.520   7.989 -0.2138 -0.1192  0.4518
   67CHL1  H22A 7421   6.342   6.606   7.961 -0.8054 -0.2296  1.4603
   67CHL1  H22B 7422   6.510   6.552   7.960 -1.6204  3.1420 -1.6011
   67CHL1   C23 7423   6.357   6.411   7.901  0.0588  1.0709  0.1118
   67CHL1  H23A 7424   6.393   6.438   7.799  1.3099 -1.3808 -0.1825
   67CHL1  H23B 7425   6.410   6.316   7.925 -0.9033  0.4276 -0.2184
   67CHL1   C24 7426   6.210   6.380   7.908  0.2409  0.0295 -0.0714
   67CHL1  H24A 7427   6.187   6.350   8.012 -0.0207  2.8400  0.7590
   67CHL1  H24B 7428   6.154   6.470   7.876  2.2324  1.1303 -0.6067
   67CHL1   C25 7429   6.182   6.261   7.813  0.7329  0.4088 -0.3770
   67CHL1   H25 7430   6.254   6.186   7.852 -0.6094 -0.1104  1.2197
   67CHL1   C26 7431   6.039   6.211   7.842 -0.0916  0.1711  0.4545
   67CHL1  H26A 7432   6.037   6.174   7.947  1.5464 -3.9960 -0.7665
   67CHL1  H26B 7433   5.959   6.288   7.830 -0.4943 -0.5479 -2.0088
   67CHL1  H26C 7434   6.009   6.126   7.778 -5.0812  2.0366 -0.1166
   67CHL1   C27 7435   6.202   6.286   7.662 -0.2305  0.6476  0.2359
   67CHL1  H27A 7436   6.154   6.381   7.629  2.5602  2.1081  0.0155
   67CHL1  H27B 7437   6.312   6.284   7.647 -0.0759 -1.0197  1.3879
   67CHL1  H27C 7438   6.155   6.200   7.609 -1.3368  1.2194  0.2603
   68CHL1    C3 7439   0.752   0.706   8.993 -0.0149 -0.0701 -0.2033
   68CHL1    H3 7440   0.830   0.777   8.960 -0.3518  0.7367  0.6894
   68CHL1    O3 7441   0.701   0.774   9.111 -0.3088 -0.2431  0.1166
   68CHL1   H3' 7442   0.772   0.769   9.175 -0.2921 -0.9673  0.0578
   68CHL1    C4 7443   0.630   0.690   8.893 -0.6392  0.6601  0.3796
   68CHL1   H4A 7444   0.555   0.625   8.943  1.0708 -1.6590  0.0867
   68CHL1   H4B 7445   0.585   0.791   8.879  0.0285  0.8307 -0.6429
   68CHL1    C5 7446   0.665   0.610   8.771 -0.2578  0.3289 -0.1142
   68CHL1    C6 7447   0.629   0.649   8.651  0.1152  0.1037  0.1333
   68CHL1    H6 7448   0.561   0.735   8.640 -1.9845 -1.6883 -1.9359
   68CHL1    C7 7449   0.662   0.577   8.526  0.2007 -0.2476  0.2850
   68CHL1   H7A 7450   0.577   0.576   8.455  1.5588 -0.2952 -1.3923
   68CHL1   H7B 7451   0.739   0.629   8.466 -0.9242 -2.2287 -3.1161
   68CHL1    C8 7452   0.706   0.430   8.545 -0.2088  0.1486 -0.4149
   68CHL1    H8 7453   0.620   0.366   8.571 -0.4068  1.0159  1.1967
   68CHL1   C14 7454   0.759   0.375   8.411 -0.1401  0.6383  0.2484
   68CHL1   H14 7455   0.849   0.438   8.394  1.8412 -1.9505  0.5542
   68CHL1   C15 7456   0.666   0.376   8.283  0.1987 -0.1119 -0.6415
   68CHL1  H15A 7457   0.564   0.341   8.311  0.6968 -0.3547  1.0013
   68CHL1  H15B 7458   0.656   0.480   8.247 -1.1898  1.0229  2.5983
   68CHL1   C16 7459   0.746   0.275   8.191  0.6228 -0.4908  0.0611
   68CHL1  H16A 7460   0.669   0.203   8.156 -3.3404  3.9530 -1.4842
   68CHL1  H16B 7461   0.794   0.321   8.103  2.7149 -2.4287  0.0879
   68CHL1   C17 7462   0.865   0.219   8.276 -0.0563 -0.2744  0.6736
   68CHL1   H17 7463   0.947   0.293   8.262 -1.8558  1.3700 -2.1899
   68CHL1   C13 7464   0.824   0.240   8.421  0.3220  0.3203  0.3489
   68CHL1   C18 7465   0.715   0.130   8.447  0.0311  0.2553  0.1875
   68CHL1  H18A 7466   0.686   0.124   8.554 -0.1401 -0.3545  0.1115
   68CHL1  H18B 7467   0.622   0.155   8.392 -1.2260 -2.1525  1.0502
   68CHL1  H18C 7468   0.738   0.024   8.419 -1.5354 -0.3212  0.9568
   68CHL1   C12 7469   0.929   0.233   8.533 -0.2101 -0.1028  0.3394
   68CHL1  H12A 7470   0.950   0.125   8.544  1.0808  0.0932  0.0200
   68CHL1  H12B 7471   1.016   0.285   8.486 -1.4533  1.3550 -0.4560
   68CHL1   C11 7472   0.879   0.279   8.672 -0.2680 -0.2469  1.0680
   68CHL1  H11A 7473   0.808   0.209   8.722 -0.4112 -2.4519 -1.9514
   68CHL1  H11B 7474   0.969   0.295   8.734  1.7214  0.7685 -1.8844
   68CHL1    C9 7475   0.809   0.421   8.656 -0.0878 -0.3481 -0.0319
   68CHL1    H9 7476   0.893   0.488   8.628 -0.4970  0.2949  0.2555
   68CHL1   C10 7477   0.747   0.485   8.788 -0.4420  0.0067  0.3480
   68CHL1   C19 7478   0.655   0.386   8.840 -0.2046  0.1877  0.0396
   68CHL1  H19A 7479   0.709   0.297   8.878 -0.7083  0.0514  0.4498
   68CHL1  H19B 7480   0.600   0.423   8.929  0.1362  0.7985  0.0079
   68CHL1  H19C 7481   0.583   0.346   8.766  1.5974 -1.5659 -0.8657
   68CHL1    C1 7482   0.858   0.516   8.888  0.3746  0.1587  0.7373
   68CHL1   H1A 7483   0.910   0.421   8.914 -0.4901 -1.4367 -2.7916
   68CHL1   H1B 7484   0.936   0.585   8.851 -0.6985  1.7135  1.2493
   68CHL1    C2 7485   0.803   0.572   9.023 -0.3042  0.6962  0.3835
   68CHL1   H2A 7486   0.885   0.559   9.097 -0.1518 -1.3736 -0.0858
   68CHL1   H2B 7487   0.722   0.512   9.069 -0.2343 -1.2737 -1.8672
   68CHL1   C20 7488   0.914   0.086   8.223 -0.4357  0.3323  0.0892
   68CHL1   H20 7489   0.847   0.007   8.262  0.7895 -0.3130  0.9549
   68CHL1   C21 7490   1.061   0.062   8.263 -0.7142  0.0376  0.1134
   68CHL1  H21A 7491   1.104  -0.028   8.215 -0.9358  0.4539 -0.8757
   68CHL1  H21B 7492   1.076   0.047   8.372 -0.6087 -0.8518 -0.0201
   68CHL1  H21C 7493   1.118   0.150   8.228 -1.3910  1.1253  1.6140
   68CHL1   C22 7494   0.908   0.069   8.074 -0.2873 -0.2297  0.8953
   68CHL1  H22A 7495   0.952  -0.031   8.052 -0.1474 -0.1208  0.6821
   68CHL1  H22B 7496   0.805   0.074   8.034  0.0392  0.0579  0.0714
   68CHL1   C23 7497   1.000   0.162   7.984  0.7571 -0.1282  0.4745
   68CHL1  H23A 7498   1.012   0.264   8.028 -0.2729 -0.3419  1.3161
   68CHL1  H23B 7499   1.099   0.118   7.963 -0.4777 -2.4481 -0.8423
   68CHL1   C24 7500   0.938   0.190   7.848 -0.5202  0.2223  0.4401
   68CHL1  H24A 7501   0.916   0.098   7.789  1.6452  0.0982 -0.2627
   68CHL1  H24B 7502   0.836   0.225   7.876  0.1094  3.1571 -0.5869
   68CHL1   C25 7503   1.008   0.298   7.754 -0.5617 -0.1659 -0.7617
   68CHL1   H25 7504   0.947   0.322   7.665 -1.7525  1.4348  0.4243
   68CHL1   C26 7505   1.037   0.424   7.833 -0.7740 -0.3075  0.1901
   68CHL1  H26A 7506   1.101   0.410   7.923 -2.9341 -0.9329  1.7227
   68CHL1  H26B 7507   1.079   0.500   7.764 -1.3075 -0.9176 -0.8343
   68CHL1  H26C 7508   0.941   0.466   7.871 -1.4868 -2.4498  0.9135
   68CHL1   C27 7509   1.139   0.240   7.690 -0.1500 -0.1502 -0.3981
   68CHL1  H27A 7510   1.195   0.314   7.630 -1.2753 -0.7756 -2.3228
   68CHL1  H27B 7511   1.205   0.190   7.764 -0.6545 -1.7631 -0.9839
   68CHL1  H27C 7512   1.104   0.161   7.619  2.2761 -0.6874 -1.0796
   69CHL1    C3 7513   3.866   4.856   6.233 -0.0151  0.4293  0.1687
   69CHL1    H3 7514   3.926   4.938   6.278 -2.1782  1.7903  0.7342
   69CHL1    O3 7515   3.935   4.815   6.115  0.0915 -0.2904 -0.8066
   69CHL1   H3' 7516   3.911   4.725   6.090  1.4485 -0.5911 -1.1089
   69CHL1    C4 7517   3.863   4.739   6.334  0.3669  0.6864  0.1418
   69CHL1   H4A 7518   3.790   4.664   6.299 -0.5223  1.7053 -0.2230
   69CHL1   H4B 7519   3.963   4.691   6.335  1.4153  2.5993 -2.5819
   69CHL1    C5 7520   3.821   4.789   6.472  0.8135 -0.4574  0.3814
   69CHL1    C6 7521   3.909   4.787   6.575 -0.1434  0.5032  0.5439
   69CHL1    H6 7522   4.013   4.754   6.564 -0.4163 -0.4571  0.7555
   69CHL1    C7 7523   3.879   4.852   6.707 -0.2944 -0.1717 -0.3447
   69CHL1   H7A 7524   3.926   4.785   6.782  1.5981 -1.0379 -2.1953
   69CHL1   H7B 7525   3.922   4.953   6.717  1.5692 -1.0405  0.8532
   69CHL1    C8 7526   3.729   4.863   6.726  0.6386 -0.6487  0.3585
   69CHL1    H8 7527   3.683   4.762   6.741 -0.3914 -0.0524  1.3926
   69CHL1   C14 7528   3.704   4.940   6.859 -0.2631  0.7936  0.3033
   69CHL1   H14 7529   3.761   5.035   6.845 -0.2684  0.4977 -2.1513
   69CHL1   C15 7530   3.758   4.888   6.992 -0.1838  0.0908  0.1074
   69CHL1  H15A 7531   3.743   4.781   7.018  1.5660 -0.0230  0.8382
   69CHL1  H15B 7532   3.868   4.898   7.008  0.2317  0.0067 -2.3184
   69CHL1   C16 7533   3.686   4.975   7.090  0.3960 -0.1460 -0.6644
   69CHL1  H16A 7534   3.646   4.909   7.170 -0.0696 -0.7358 -1.3585
   69CHL1  H16B 7535   3.742   5.054   7.143  0.1632  0.0789 -0.7471
   69CHL1   C17 7536   3.569   5.062   7.015 -0.3222 -0.4246 -0.5663
   69CHL1   H17 7537   3.623   5.156   6.990  0.3894 -0.9362 -1.0095
   69CHL1   C13 7538   3.558   4.978   6.885 -1.0168 -0.4393  0.5703
   69CHL1   C18 7539   3.484   4.846   6.922  0.3855 -0.1895 -0.4433
   69CHL1  H18A 7540   3.375   4.864   6.924  0.5992  1.1718  0.2743
   69CHL1  H18B 7541   3.499   4.764   6.848  2.3157  0.1424 -0.4670
   69CHL1  H18C 7542   3.513   4.808   7.022 -1.0261  0.7618  0.3639
   69CHL1   C12 7543   3.498   5.048   6.757  0.5531 -0.2287 -0.6441
   69CHL1  H12A 7544   3.389   5.059   6.776  0.1898 -2.9815 -0.7403
   69CHL1  H12B 7545   3.541   5.149   6.738  0.2698 -0.3382 -1.9184
   69CHL1   C11 7546   3.512   4.956   6.635  0.7400 -0.0095  0.3351
   69CHL1  H11A 7547   3.447   4.870   6.661 -1.5628  1.4807 -0.2466
   69CHL1  H11B 7548   3.471   5.012   6.549  0.5333  1.8019  1.5479
   69CHL1    C9 7549   3.657   4.928   6.605 -0.2349  0.5314  0.3912
   69CHL1    H9 7550   3.712   5.025   6.607  1.5909 -0.4671  0.9025
   69CHL1   C10 7551   3.683   4.858   6.471 -0.3384 -0.0785  0.9995
   69CHL1   C19 7552   3.578   4.744   6.462 -0.0596 -0.0765  0.1567
   69CHL1  H19A 7553   3.586   4.681   6.370 -0.9860 -0.0110  0.0247
   69CHL1  H19B 7554   3.577   4.674   6.548 -2.6145  0.8095  0.9353
   69CHL1  H19C 7555   3.478   4.789   6.448  0.1769 -0.1539 -2.3271
   69CHL1    C1 7556   3.673   4.964   6.349 -0.1407 -0.2284 -0.5393
   69CHL1   H1A 7557   3.566   4.991   6.339 -0.2541 -0.1948  0.6440
   69CHL1   H1B 7558   3.730   5.055   6.380 -1.5543  0.6247 -0.3692
   69CHL1    C2 7559   3.723   4.910   6.215 -0.6517  0.6289 -0.3470
   69CHL1   H2A 7560   3.728   4.982   6.131  0.4500  1.3368  0.3111
   69CHL1   H2B 7561   3.669   4.820   6.177  0.3902  0.0833 -0.5900
   69CHL1   C20 7562   3.442   5.094   7.092 -0.0823  0.4357  0.3151
   69CHL1   H20 7563   3.388   4.998   7.104 -1.4970  0.6527 -3.0222
   69CHL1   C21 7564   3.344   5.180   7.012 -0.2244  0.5109  0.0883
   69CHL1  H21A 7565   3.276   5.225   7.087  0.1503  0.7872  0.2656
   69CHL1  H21B 7566   3.286   5.120   6.939  1.2141  0.7088 -1.2642
   69CHL1  H21C 7567   3.396   5.263   6.959 -1.0198  0.7486 -0.3406
   69CHL1   C22 7568   3.474   5.154   7.231  0.5589  0.3560 -0.3254
   69CHL1  H22A 7569   3.369   5.168   7.265  0.6255  1.0693 -0.3908
   69CHL1  H22B 7570   3.534   5.087   7.295  0.5277  0.4409 -0.2079
   69CHL1   C23 7571   3.537   5.297   7.233 -0.5165 -0.4768  0.5656
   69CHL1  H23A 7572   3.646   5.285   7.211  0.0511 -1.4059  3.4383
   69CHL1  H23B 7573   3.479   5.364   7.166 -0.0754 -0.3480  0.3073
   69CHL1   C24 7574   3.519   5.368   7.377 -0.4140 -0.6795  0.8040
   69CHL1  H24A 7575   3.548   5.476   7.374 -1.7688 -0.3179 -0.2701
   69CHL1  H24B 7576   3.412   5.350   7.399 -0.7378 -0.4746 -0.5042
   69CHL1   C25 7577   3.603   5.308   7.495 -0.2464  0.1389 -0.1365
   69CHL1   H25 7578   3.590   5.199   7.509 -0.0273  0.0965 -0.2650
   69CHL1   C26 7579   3.746   5.323   7.465 -0.0934 -0.4380  0.3893
   69CHL1  H26A 7580   3.770   5.426   7.431 -0.3811  0.0613  1.6327
   69CHL1  H26B 7581   3.810   5.294   7.551  0.4771 -0.5687 -0.0678
   69CHL1  H26C 7582   3.778   5.259   7.380  0.1090 -0.2383  0.3153
   69CHL1   C27 7583   3.570   5.369   7.634 -0.1524 -0.1871  0.7570
   69CHL1  H27A 7584   3.646   5.337   7.708  1.1489  1.2298  0.0858
   69CHL1  H27B 7585   3.575   5.479   7.621  0.4431 -0.4989 -2.2806
   69CHL1  H27C 7586   3.468   5.347   7.670 -1.4715  0.4095 -2.2803
   70CHL1    C3 7587   4.633   2.682   6.006  0.1929 -0.6166  0.3141
   70CHL1    H3 7588   4.737   2.689   6.043  0.1639  1.2873  0.1480
   70CHL1    O3 7589   4.623   2.678   5.864  0.1264  0.1744 -0.9876
   70CHL1   H3' 7590   4.619   2.586   5.836  0.1410  0.3776 -1.6861
   70CHL1    C4 7591   4.571   2.559   6.072 -0.2389  0.2159  0.5535
   70CHL1   H4A 7592   4.468   2.567   6.032  0.0822 -0.5594 -0.4692
   70CHL1   H4B 7593   4.619   2.473   6.022 -1.5469 -1.6715  2.3665
   70CHL1    C5 7594   4.586   2.545   6.224  0.7864  0.4370 -0.1901
   70CHL1    C6 7595   4.653   2.449   6.290 -0.2013 -0.2560 -0.6219
   70CHL1    H6 7596   4.692   2.367   6.228 -1.8230 -1.4379 -0.1408
   70CHL1    C7 7597   4.660   2.438   6.444  0.2691 -0.7597 -0.5903
   70CHL1   H7A 7598   4.645   2.335   6.486  2.1013 -2.0131 -2.8140
   70CHL1   H7B 7599   4.763   2.464   6.475 -0.0326 -1.4800  1.1767
   70CHL1    C8 7600   4.564   2.538   6.517  0.2895 -0.4136 -0.0588
   70CHL1    H8 7601   4.464   2.490   6.517 -0.7299  1.4395 -2.7595
   70CHL1   C14 7602   4.617   2.556   6.663 -0.8169 -0.3169  0.0557
   70CHL1   H14 7603   4.720   2.590   6.643 -1.1902  0.7876 -0.0341
   70CHL1   C15 7604   4.651   2.429   6.747  0.0440 -0.1947  0.1625
   70CHL1  H15A 7605   4.552   2.378   6.746 -0.1516  0.1951 -0.3642
   70CHL1  H15B 7606   4.735   2.360   6.723  1.3473  1.7194 -1.0032
   70CHL1   C16 7607   4.680   2.494   6.888  0.2526  0.3824 -0.0474
   70CHL1  H16A 7608   4.611   2.444   6.959  1.8750 -0.8702  0.7164
   70CHL1  H16B 7609   4.785   2.490   6.925  0.2245 -0.5490 -0.0309
   70CHL1   C17 7610   4.640   2.651   6.876 -0.3005  0.6168  0.3542
   70CHL1   H17 7611   4.724   2.720   6.855 -1.9697  2.0935 -1.8875
   70CHL1   C13 7612   4.550   2.653   6.752 -0.0749  0.0493 -0.2568
   70CHL1   C18 7613   4.405   2.605   6.783 -0.0985  0.2746 -0.0802
   70CHL1  H18A 7614   4.358   2.561   6.693 -2.3062  2.0310  0.1225
   70CHL1  H18B 7615   4.395   2.542   6.874  1.8950  1.7157  1.2351
   70CHL1  H18C 7616   4.345   2.696   6.805 -1.8534 -0.8594  0.0321
   70CHL1   C12 7617   4.541   2.793   6.683  0.4304 -0.6277 -0.3408
   70CHL1  H12A 7618   4.467   2.862   6.730  1.2536 -0.7232  1.1682
   70CHL1  H12B 7619   4.642   2.838   6.686  1.0238 -1.9659  0.8523
   70CHL1   C11 7620   4.495   2.788   6.528  0.1425  0.1213  0.1517
   70CHL1  H11A 7621   4.387   2.765   6.526  0.6860 -2.8343  0.1947
   70CHL1  H11B 7622   4.494   2.894   6.495 -2.1206  1.1961  3.1896
   70CHL1    C9 7623   4.561   2.678   6.447 -0.0082 -0.0899  0.4957
   70CHL1    H9 7624   4.667   2.711   6.444 -0.0480 -0.0257 -0.4077
   70CHL1   C10 7625   4.522   2.670   6.294  0.7497 -0.1616  0.3296
   70CHL1   C19 7626   4.368   2.671   6.279  0.5321  0.4802  0.6014
   70CHL1  H19A 7627   4.317   2.591   6.338  0.1906  0.8549  0.8194
   70CHL1  H19B 7628   4.330   2.768   6.317  0.1833 -0.3057  2.3955
   70CHL1  H19C 7629   4.341   2.655   6.173  1.2793  2.6546  0.0486
   70CHL1    C1 7630   4.581   2.796   6.221  0.6418 -0.5291  0.8702
   70CHL1   H1A 7631   4.529   2.883   6.267  1.5241  1.9412 -2.4754
   70CHL1   H1B 7632   4.688   2.808   6.250  1.3652 -0.4988 -1.6535
   70CHL1    C2 7633   4.563   2.809   6.069 -0.8797 -0.4351  0.5029
   70CHL1   H2A 7634   4.631   2.887   6.028  0.1227 -1.5690 -0.0711
   70CHL1   H2B 7635   4.456   2.814   6.038 -0.2894 -2.1714 -2.1470
   70CHL1   C20 7636   4.579   2.694   7.008 -0.1280 -0.7192 -0.5655
   70CHL1   H20 7637   4.491   2.628   7.022  0.3117 -1.4163 -1.0004
   70CHL1   C21 7638   4.528   2.848   7.010  0.1832  0.1321  0.3773
   70CHL1  H21A 7639   4.444   2.857   6.937 -1.6245  0.1834  2.3731
   70CHL1  H21B 7640   4.615   2.909   6.980 -0.5881  0.8994 -0.3756
   70CHL1  H21C 7641   4.505   2.888   7.111  0.2178  0.4726  0.2514
   70CHL1   C22 7642   4.679   2.666   7.125 -1.1822  0.7329  1.3558
   70CHL1  H22A 7643   4.630   2.684   7.223 -1.0740 -0.7754  1.7001
   70CHL1  H22B 7644   4.702   2.558   7.128 -0.7638  0.7379 -0.5902
   70CHL1   C23 7645   4.816   2.745   7.123  0.2778 -0.6555  0.0588
   70CHL1  H23A 7646   4.871   2.718   7.031 -1.4193 -2.1719 -0.5658
   70CHL1  H23B 7647   4.794   2.854   7.114 -1.5849 -1.0395 -0.4343
   70CHL1   C24 7648   4.900   2.717   7.253  0.7537  0.5342  0.1452
   70CHL1  H24A 7649   4.849   2.760   7.341  0.2064  0.0232  0.0904
   70CHL1  H24B 7650   4.901   2.606   7.257 -0.3021  0.5468  1.4063
   70CHL1   C25 7651   5.044   2.775   7.256 -0.3474  0.0702 -0.6698
   70CHL1   H25 7652   5.034   2.879   7.294  1.1235  0.6920 -1.8900
   70CHL1   C26 7653   5.129   2.703   7.367 -0.4835 -0.6929  0.2713
   70CHL1  H26A 7654   5.154   2.595   7.352  0.6490 -0.2219 -1.6941
   70CHL1  H26B 7655   5.228   2.754   7.367 -0.6538 -0.2129 -2.6395
   70CHL1  H26C 7656   5.075   2.725   7.461  0.0094  4.5050 -0.3623
   70CHL1   C27 7657   5.116   2.764   7.123 -0.2410  0.1005  1.2275
   70CHL1  H27A 7658   5.128   2.656   7.101  1.9628  0.5653 -0.1545
   70CHL1  H27B 7659   5.049   2.808   7.046 -1.4022  0.1541  2.2184
   70CHL1  H27C 7660   5.219   2.804   7.125 -0.1423 -0.1737  2.5998
   71CHL1    C3 7661   2.032   3.581   6.022  0.5203  0.8221  0.7879
   71CHL1    H3 7662   2.132   3.626   6.004  1.1035 -0.2678  1.1713
   71CHL1    O3 7663   1.997   3.551   5.891 -0.4561 -0.0312 -0.9257
   71CHL1   H3' 7664   1.976   3.633   5.845 -0.6700 -0.9951 -2.6396
   71CHL1    C4 7665   2.049   3.444   6.093 -0.4944 -0.4467 -0.2933
   71CHL1   H4A 7666   1.959   3.378   6.089  1.2599 -2.9572 -1.5698
   71CHL1   H4B 7667   2.117   3.379   6.034  0.6329 -0.0474  0.5265
   71CHL1    C5 7668   2.092   3.473   6.233 -0.1385  0.1217  0.0554
   71CHL1    C6 7669   2.206   3.430   6.283 -0.1298  0.5566  0.4199
   71CHL1    H6 7670   2.274   3.369   6.221  0.8180  1.5053  0.4998
   71CHL1    C7 7671   2.254   3.436   6.431  0.4263  0.7216  0.2896
   71CHL1   H7A 7672   2.267   3.331   6.465 -1.5414  0.3442 -0.0324
   71CHL1   H7B 7673   2.342   3.504   6.439  1.6086 -0.7082 -0.0072
   71CHL1    C8 7674   2.131   3.488   6.518  0.6813 -0.0916  0.0347
   71CHL1    H8 7675   2.068   3.398   6.531 -0.9147  1.1439  1.2635
   71CHL1   C14 7676   2.184   3.537   6.659  0.6933 -0.1206  0.0119
   71CHL1   H14 7677   2.247   3.627   6.644  0.6285  0.2804  1.8347
   71CHL1   C15 7678   2.278   3.443   6.740  0.1987 -0.2172 -0.4119
   71CHL1  H15A 7679   2.228   3.344   6.744  2.9070 -1.7196 -1.1054
   71CHL1  H15B 7680   2.382   3.436   6.700  1.7203  3.3533  2.3531
   71CHL1   C16 7681   2.279   3.514   6.880  0.5193 -0.3173 -0.4372
   71CHL1  H16A 7682   2.279   3.447   6.969 -1.9114  2.8677  2.1927
   71CHL1  H16B 7683   2.363   3.586   6.890 -0.9989  1.4008  0.4818
   71CHL1   C17 7684   2.147   3.610   6.891 -1.0779  0.5337 -0.0434
   71CHL1   H17 7685   2.193   3.708   6.869  0.0257 -0.4131 -2.1951
   71CHL1   C13 7686   2.069   3.583   6.758 -0.2866  0.5244  0.4804
   71CHL1   C18 7687   1.965   3.463   6.778 -0.1913 -0.3216 -0.1795
   71CHL1  H18A 7688   2.008   3.364   6.807  1.9422  0.6525  0.2083
   71CHL1  H18B 7689   1.888   3.489   6.853 -0.0497 -0.4301  0.0044
   71CHL1  H18C 7690   1.918   3.437   6.681  0.4201  0.0208 -0.5750
   71CHL1   C12 7691   2.011   3.713   6.683 -0.0165  0.2598 -0.6254
   71CHL1  H12A 7692   1.928   3.754   6.744  0.5267  1.0015 -0.3649
   71CHL1  H12B 7693   2.091   3.790   6.680 -0.0483  0.2809 -1.0307
   71CHL1   C11 7694   1.957   3.680   6.539 -0.6162  0.3696  0.4476
   71CHL1  H11A 7695   1.858   3.631   6.556 -1.6358  2.5902  1.2232
   71CHL1  H11B 7696   1.940   3.777   6.487  1.9450  0.4845 -0.3039
   71CHL1    C9 7697   2.055   3.600   6.450  0.1074 -0.5788 -0.0906
   71CHL1    H9 7698   2.133   3.674   6.423  2.3866 -2.8646 -0.1323
   71CHL1   C10 7699   1.992   3.562   6.312  0.2203  0.2687  0.5947
   71CHL1   C19 7700   1.867   3.469   6.333 -0.3261  0.3492 -0.7420
   71CHL1  H19A 7701   1.891   3.386   6.403  1.1298  1.1453 -0.2570
   71CHL1  H19B 7702   1.783   3.509   6.394 -1.1671 -0.5332 -1.2859
   71CHL1  H19C 7703   1.834   3.419   6.240 -0.2504 -1.7222  0.2864
   71CHL1    C1 7704   1.954   3.688   6.239  0.5956  0.4257 -0.9539
   71CHL1   H1A 7705   1.875   3.749   6.288  1.0027 -0.9679  1.5979
   71CHL1   H1B 7706   2.045   3.752   6.234  1.2441 -0.3456  0.4651
   71CHL1    C2 7707   1.916   3.659   6.098  0.0046  0.4114  0.2588
   71CHL1   H2A 7708   1.900   3.758   6.049  0.2164  0.0106 -0.6390
   71CHL1   H2B 7709   1.826   3.596   6.089 -0.1610  0.7283 -0.4291
   71CHL1   C20 7710   2.081   3.605   7.030 -0.1933 -0.0381 -0.1994
   71CHL1   H20 7711   2.036   3.505   7.046 -0.8210  0.3175  0.2910
   71CHL1   C21 7712   1.958   3.696   7.046 -0.0679 -0.2967  0.4838
   71CHL1  H21A 7713   1.996   3.799   7.029 -2.0161  0.4925  0.6971
   71CHL1  H21B 7714   1.916   3.672   7.146 -0.9120  2.2580  0.8018
   71CHL1  H21C 7715   1.888   3.685   6.961  0.4308  0.1833  0.0055
   71CHL1   C22 7716   2.185   3.629   7.148  0.9940 -0.4168  0.2385
   71CHL1  H22A 7717   2.273   3.561   7.141  1.0685 -0.3258  0.2928
   71CHL1  H22B 7718   2.216   3.735   7.139 -0.3526 -0.1086 -1.3555
   71CHL1   C23 7719   2.128   3.598   7.284 -0.0931  0.3891 -1.1602
   71CHL1  H23A 7720   2.039   3.660   7.311 -0.0095  0.1281 -0.2551
   71CHL1  H23B 7721   2.103   3.490   7.280 -1.1195  0.5231  0.5432
   71CHL1   C24 7722   2.247   3.614   7.385 -0.4084  0.3411 -0.4909
   71CHL1  H24A 7723   2.331   3.545   7.365  1.3042  2.1855  0.0349
   71CHL1  H24B 7724   2.288   3.718   7.383 -1.4082  0.7399 -2.6271
   71CHL1   C25 7725   2.206   3.599   7.535  0.6147  0.3669  0.1780
   71CHL1   H25 7726   2.110   3.653   7.553 -1.7621 -3.6571  0.7390
   71CHL1   C26 7727   2.181   3.450   7.550 -0.3791 -0.6044 -0.4269
   71CHL1  H26A 7728   2.280   3.404   7.532  0.0430 -0.0852  0.5106
   71CHL1  H26B 7729   2.147   3.410   7.647  0.4504 -0.5604 -0.1156
   71CHL1  H26C 7730   2.118   3.405   7.470  1.3242 -1.9468 -1.0612
   71CHL1   C27 7731   2.300   3.659   7.634  0.6811  1.1092 -0.4377
   71CHL1  H27A 7732   2.334   3.760   7.603  2.3664  0.4765 -0.7563
   71CHL1  H27B 7733   2.257   3.656   7.737  3.1016  0.1581  0.6095
   71CHL1  H27C 7734   2.383   3.588   7.653 -0.7352 -1.1849 -2.2781
   72CHL1    C3 7735   4.950   3.315   6.018 -0.0609  0.0445  0.0478
   72CHL1    H3 7736   5.012   3.405   6.039 -0.7257  1.8494 -4.5888
   72CHL1    O3 7737   4.958   3.312   5.877  0.3354 -0.5029 -0.4031
   72CHL1   H3' 7738   4.954   3.220   5.851 -0.1293 -0.0801 -1.8927
   72CHL1    C4 7739   5.009   3.188   6.085 -0.0694  0.2001  0.3925
   72CHL1   H4A 7740   4.946   3.102   6.054  0.8378 -0.5850  0.6746
   72CHL1   H4B 7741   5.108   3.168   6.039 -0.7233  0.1740 -1.0511
   72CHL1    C5 7742   5.006   3.202   6.239 -0.3308 -0.3970  0.2090
   72CHL1    C6 7743   5.119   3.204   6.314  0.3924  0.2292 -0.2880
   72CHL1    H6 7744   5.216   3.185   6.264  0.8869 -0.9071  1.0560
   72CHL1    C7 7745   5.119   3.199   6.460 -0.0020  0.1914 -0.3012
   72CHL1   H7A 7746   5.198   3.135   6.504 -0.3321 -1.4383 -1.9834
   72CHL1   H7B 7747   5.158   3.296   6.497  1.2542 -0.0957 -0.8262
   72CHL1    C8 7748   4.980   3.176   6.522  0.3329 -0.3406 -0.3805
   72CHL1    H8 7749   4.951   3.069   6.514 -0.7823 -0.2877  1.8833
   72CHL1   C14 7750   4.982   3.206   6.677 -0.9116 -0.3884 -0.0590
   72CHL1   H14 7751   5.002   3.315   6.690  0.4742 -0.8065  1.5161
   72CHL1   C15 7752   5.074   3.144   6.775  0.7282  0.3017  0.0327
   72CHL1  H15A 7753   5.075   3.033   6.765  1.3199 -0.4265  5.1295
   72CHL1  H15B 7754   5.182   3.170   6.764  1.3314 -1.9279  0.1520
   72CHL1   C16 7755   5.018   3.178   6.915 -0.3156 -0.3560 -0.5569
   72CHL1  H16A 7756   5.024   3.083   6.972 -0.9988  1.7616  3.4246
   72CHL1  H16B 7757   5.081   3.259   6.957  1.7123 -2.7192  1.2747
   72CHL1   C17 7758   4.872   3.215   6.898  0.6189 -0.0590  0.3931
   72CHL1   H17 7759   4.866   3.326   6.896 -0.0156  0.0194  2.9350
   72CHL1   C13 7760   4.842   3.188   6.750 -0.2164  0.2291  0.0987
   72CHL1   C18 7761   4.806   3.038   6.756 -0.1908 -0.5974  0.3395
   72CHL1  H18A 7762   4.699   3.023   6.783 -0.0307 -0.5293  1.0104
   72CHL1  H18B 7763   4.825   2.992   6.656  1.1316  1.3903 -0.3718
   72CHL1  H18C 7764   4.863   2.978   6.830 -2.5363  0.8104  3.5122
   72CHL1   C12 7765   4.735   3.275   6.682 -0.2357 -1.0085  0.3618
   72CHL1  H12A 7766   4.637   3.259   6.733 -0.9906 -1.2444 -1.1048
   72CHL1  H12B 7767   4.768   3.376   6.717  0.7696 -1.3742  0.5109
   72CHL1   C11 7768   4.731   3.242   6.530  0.4945 -0.1611 -0.6311
   72CHL1  H11A 7769   4.696   3.137   6.537 -1.9291  0.6734  1.3869
   72CHL1  H11B 7770   4.652   3.310   6.492 -0.5190  0.4730  2.3771
   72CHL1    C9 7771   4.869   3.246   6.448  0.3939 -0.3300  0.0756
   72CHL1    H9 7772   4.876   3.356   6.461 -3.1760  0.7602 -4.5038
   72CHL1   C10 7773   4.859   3.217   6.298 -0.7566 -0.5260  0.0304
   72CHL1   C19 7774   4.779   3.092   6.285 -0.6240  0.0681  0.0075
   72CHL1  H19A 7775   4.807   3.038   6.192 -1.6355 -2.2813  1.0039
   72CHL1  H19B 7776   4.802   3.015   6.362  0.6591 -0.0670 -0.4820
   72CHL1  H19C 7777   4.673   3.123   6.273  0.0307  1.2185 -4.6017
   72CHL1    C1 7778   4.788   3.337   6.221  0.4311 -0.3117 -0.5245
   72CHL1   H1A 7779   4.684   3.343   6.259  0.2124 -0.5526 -1.0854
   72CHL1   H1B 7780   4.840   3.431   6.248 -1.8664  1.0190 -0.5464
   72CHL1    C2 7781   4.802   3.335   6.073  0.5461  0.6084  1.0038
   72CHL1   H2A 7782   4.757   3.426   6.028 -1.8647 -0.0986  1.8276
   72CHL1   H2B 7783   4.754   3.249   6.021  0.5443  2.4019 -2.1860
   72CHL1   C20 7784   4.791   3.169   7.023  0.0076  0.6187  0.1578
   72CHL1   H20 7785   4.776   3.060   7.040  2.1780  0.6983  3.4578
   72CHL1   C21 7786   4.653   3.219   7.003 -0.0102 -0.4291  0.1650
   72CHL1  H21A 7787   4.602   3.171   6.917  0.6697 -1.6817  0.4304
   72CHL1  H21B 7788   4.658   3.330   6.993  0.2187 -0.4655 -0.1352
   72CHL1  H21C 7789   4.593   3.191   7.093 -1.1128  0.4701 -0.2727
   72CHL1   C22 7790   4.859   3.223   7.152  0.3209 -1.2829 -0.2995
   72CHL1  H22A 7791   4.961   3.184   7.169  1.3946  1.3625 -0.1554
   72CHL1  H22B 7792   4.861   3.333   7.139 -1.7323 -0.9689  1.4709
   72CHL1   C23 7793   4.782   3.195   7.279 -0.4043  0.1240  0.5268
   72CHL1  H23A 7794   4.687   3.250   7.261  0.8331  2.2648  0.2508
   72CHL1  H23B 7795   4.756   3.087   7.286  0.3717 -0.1000 -0.0134
   72CHL1   C24 7796   4.838   3.247   7.412 -0.4071  0.3973  0.8010
   72CHL1  H24A 7797   4.939   3.206   7.433 -0.1473 -0.8226 -2.3100
   72CHL1  H24B 7798   4.847   3.357   7.402  2.4366  0.0291 -2.2770
   72CHL1   C25 7799   4.746   3.214   7.531 -0.2119  0.3323 -0.8406
   72CHL1   H25 7800   4.736   3.104   7.542 -1.3194  0.5614  0.6761
   72CHL1   C26 7801   4.812   3.270   7.655  0.4426 -0.2551  0.2583
   72CHL1  H26A 7802   4.899   3.209   7.687  1.1307  0.6295  0.1050
   72CHL1  H26B 7803   4.834   3.378   7.639  0.9381 -0.6627 -2.1529
   72CHL1  H26C 7804   4.746   3.259   7.744 -0.2814  3.1076  0.2947
   72CHL1   C27 7805   4.605   3.278   7.528 -0.6489  0.4342  0.1523
   72CHL1  H27A 7806   4.618   3.388   7.529  1.0072  0.3031 -1.4085
   72CHL1  H27B 7807   4.554   3.263   7.431  0.1164  1.0096 -0.3468
   72CHL1  H27C 7808   4.538   3.238   7.607  1.7805 -0.3680  1.9363
   73CHL1    C3 7809   2.657   5.074   5.817  0.7045 -0.4000  0.2350
   73CHL1    H3 7810   2.568   5.138   5.837  0.9386 -0.2774  0.8968
   73CHL1    O3 7811   2.723   5.112   5.702  0.0581  0.0901  0.1068
   73CHL1   H3' 7812   2.784   5.178   5.737 -2.1317  3.5904 -2.0608
   73CHL1    C4 7813   2.765   5.071   5.932 -0.3794  0.2242  0.2707
   73CHL1   H4A 7814   2.857   5.014   5.907  1.2888  1.5265  2.9495
   73CHL1   H4B 7815   2.803   5.175   5.938 -1.6015  0.6132  2.9644
   73CHL1    C5 7816   2.719   5.016   6.068 -0.7895 -0.7536 -0.4968
   73CHL1    C6 7817   2.737   5.081   6.184  0.4225  0.1859  0.0650
   73CHL1    H6 7818   2.786   5.180   6.184  1.3173 -0.2397  0.8812
   73CHL1    C7 7819   2.695   5.030   6.318 -0.1565 -0.5348 -0.3706
   73CHL1   H7A 7820   2.750   5.071   6.405 -0.0816  1.6441 -1.3836
   73CHL1   H7B 7821   2.591   5.068   6.325  0.5092  1.6316 -1.3540
   73CHL1    C8 7822   2.687   4.878   6.310  0.3069  0.2202 -0.1614
   73CHL1    H8 7823   2.790   4.837   6.304  0.2151 -0.0091 -0.1785
   73CHL1   C14 7824   2.609   4.830   6.441 -0.1596  0.8695  0.2126
   73CHL1   H14 7825   2.506   4.867   6.425  0.1309  1.3830 -0.5129
   73CHL1   C15 7826   2.664   4.881   6.579  0.3195 -0.7254  0.2825
   73CHL1  H15A 7827   2.773   4.858   6.582  1.0484  2.4110  0.4802
   73CHL1  H15B 7828   2.652   4.990   6.592 -0.6656 -0.7070 -0.6577
   73CHL1   C16 7829   2.611   4.781   6.680  0.3057  0.7090 -0.0416
   73CHL1  H16A 7830   2.689   4.730   6.740 -2.5890 -1.4676  2.2213
   73CHL1  H16B 7831   2.548   4.828   6.758 -2.7341 -0.5475 -1.5469
   73CHL1   C17 7832   2.524   4.674   6.600  0.0036 -0.3734  0.3354
   73CHL1   H17 7833   2.423   4.716   6.581  0.1534 -0.3462 -0.4263
   73CHL1   C13 7834   2.591   4.681   6.457 -0.0881 -0.4410 -0.7772
   73CHL1   C18 7835   2.729   4.609   6.450  0.5950 -0.1950 -0.0463
   73CHL1  H18A 7836   2.719   4.505   6.488 -1.1189 -1.3467 -3.2491
   73CHL1  H18B 7837   2.764   4.611   6.344  1.7087  2.8194  0.2834
   73CHL1  H18C 7838   2.807   4.662   6.508 -0.0037  1.7118 -0.8986
   73CHL1   C12 7839   2.491   4.641   6.339 -0.1152 -0.0516  0.3698
   73CHL1  H12A 7840   2.476   4.531   6.339 -0.3595 -0.0190  0.4586
   73CHL1  H12B 7841   2.396   4.698   6.346 -0.5138 -0.5048 -1.0901
   73CHL1   C11 7842   2.556   4.677   6.204 -0.0965 -0.5921  0.3262
   73CHL1  H11A 7843   2.646   4.615   6.184  0.0719 -0.1897 -0.1962
   73CHL1  H11B 7844   2.478   4.658   6.127 -0.3394 -1.4713  0.7759
   73CHL1    C9 7845   2.602   4.832   6.195 -0.1854  0.4451 -0.0295
   73CHL1    H9 7846   2.506   4.888   6.199 -1.1924 -1.0051 -1.9905
   73CHL1   C10 7847   2.663   4.873   6.058 -0.4758 -0.0075  0.5158
   73CHL1   C19 7848   2.776   4.772   6.024 -0.1673  0.3740 -0.1468
   73CHL1  H19A 7849   2.869   4.798   6.077  0.1094  2.2582 -1.4471
   73CHL1  H19B 7850   2.755   4.663   6.022 -0.6902  0.4747 -1.8348
   73CHL1  H19C 7851   2.805   4.799   5.920 -0.2839  0.6331 -0.1147
   73CHL1    C1 7852   2.554   4.867   5.941 -0.2304 -0.3363 -0.0386
   73CHL1   H1A 7853   2.542   4.758   5.926 -3.6388 -0.2033  0.8149
   73CHL1   H1B 7854   2.457   4.913   5.969 -0.2583 -0.2667 -0.2547
   73CHL1    C2 7855   2.603   4.926   5.808  0.0901  0.1444 -0.1096
   73CHL1   H2A 7856   2.531   4.926   5.724  1.3837  0.6908 -1.2637
   73CHL1   H2B 7857   2.690   4.863   5.780 -1.3220 -0.9533 -2.2528
   73CHL1   C20 7858   2.502   4.538   6.671  0.0313 -0.1482 -0.1529
   73CHL1   H20 7859   2.601   4.489   6.683 -0.9752 -2.3153 -0.2136
   73CHL1   C21 7860   2.430   4.435   6.584  0.6063  0.0878 -0.2457
   73CHL1  H21A 7861   2.338   4.480   6.540  2.1735  1.4687 -2.2893
   73CHL1  H21B 7862   2.403   4.342   6.638 -0.0819  2.3314  3.6517
   73CHL1  H21C 7863   2.492   4.406   6.497 -0.3718 -0.0214 -0.9310
   73CHL1   C22 7864   2.443   4.556   6.809 -0.3857 -0.2054 -0.2694
   73CHL1  H22A 7865   2.440   4.462   6.868 -1.4536 -0.0506 -0.0530
   73CHL1  H22B 7866   2.521   4.614   6.863  0.0538 -0.2415 -0.8542
   73CHL1   C23 7867   2.314   4.629   6.822 -0.1984  0.3073 -0.1871
   73CHL1  H23A 7868   2.322   4.730   6.777 -2.4611  0.6202 -0.0253
   73CHL1  H23B 7869   2.243   4.571   6.759  1.8769 -1.3011 -1.1425
   73CHL1   C24 7870   2.261   4.632   6.970  0.3682  0.8349  0.2615
   73CHL1  H24A 7871   2.269   4.528   7.009  0.4089  0.4183 -0.8160
   73CHL1  H24B 7872   2.320   4.704   7.031  1.3337 -0.5122  0.9825
   73CHL1   C25 7873   2.116   4.672   6.969  0.0023  0.4993 -0.0778
   73CHL1   H25 7874   2.066   4.593   6.908 -1.4655  2.0270 -0.9659
   73CHL1   C26 7875   2.060   4.668   7.114 -0.0314 -0.0808  0.2642
   73CHL1  H26A 7876   2.066   4.569   7.164 -3.2239 -0.5846 -0.1580
   73CHL1  H26B 7877   2.122   4.738   7.174 -0.2766  0.4088 -0.0409
   73CHL1  H26C 7878   1.952   4.694   7.118 -0.0917 -0.1678 -0.5493
   73CHL1   C27 7879   2.082   4.807   6.903 -0.2474 -0.0734  0.1802
   73CHL1  H27A 7880   2.125   4.887   6.966 -0.2552 -1.7169  2.3909
   73CHL1  H27B 7881   2.135   4.816   6.806 -0.5318 -0.1443  0.0157
   73CHL1  H27C 7882   1.973   4.815   6.881 -0.1261 -0.0153 -0.4145
   74CHL1    C3 7883   1.515   4.688   6.127  0.9134 -0.1633  0.5703
   74CHL1    H3 7884   1.420   4.735   6.162  1.5766 -0.1462  2.4314
   74CHL1    O3 7885   1.518   4.713   5.984 -0.3105 -0.2169 -0.2245
   74CHL1   H3' 7886   1.598   4.666   5.959  1.4181  0.5246  3.2339
   74CHL1    C4 7887   1.637   4.747   6.204 -0.4264 -0.3962  0.1718
   74CHL1   H4A 7888   1.726   4.702   6.156 -1.2439 -1.5756 -0.2891
   74CHL1   H4B 7889   1.649   4.855   6.184  1.6152 -0.6020  0.0935
   74CHL1    C5 7890   1.633   4.712   6.348 -0.0581  0.5771 -0.2827
   74CHL1    C6 7891   1.612   4.819   6.432  0.3809  0.2654  0.4219
   74CHL1    H6 7892   1.605   4.920   6.389  0.2374 -0.9215 -2.6110
   74CHL1    C7 7893   1.611   4.798   6.586 -0.0015 -0.0551  0.6330
   74CHL1   H7A 7894   1.677   4.875   6.631  0.5728 -0.4792  0.5358
   74CHL1   H7B 7895   1.510   4.819   6.628  0.3202 -0.9489  1.9216
   74CHL1    C8 7896   1.665   4.652   6.621  0.0079  1.0024  0.9917
   74CHL1    H8 7897   1.773   4.660   6.600  0.3359 -3.0402  0.2874
   74CHL1   C14 7898   1.627   4.631   6.768  0.5181  0.3267 -0.1633
   74CHL1   H14 7899   1.515   4.629   6.768  0.4955 -0.1932  1.4934
   74CHL1   C15 7900   1.659   4.750   6.866 -0.3208 -0.2936 -0.1992
   74CHL1  H15A 7901   1.762   4.785   6.843 -0.1452 -0.6011  0.1289
   74CHL1  H15B 7902   1.590   4.838   6.862 -0.3546 -0.0968  2.7217
   74CHL1   C16 7903   1.664   4.682   7.003 -0.0363 -0.1760  0.8005
   74CHL1  H16A 7904   1.761   4.698   7.054 -0.0237 -0.2926  0.8142
   74CHL1  H16B 7905   1.589   4.717   7.078 -0.5232 -0.2916  0.3748
   74CHL1   C17 7906   1.637   4.528   6.981 -0.6099 -0.0483 -0.5259
   74CHL1   H17 7907   1.528   4.505   6.982 -0.1415 -2.8350 -2.1536
   74CHL1   C13 7908   1.670   4.500   6.833 -0.5569  0.0558  0.1591
   74CHL1   C18 7909   1.827   4.493   6.817  0.4583 -0.4785 -0.3747
   74CHL1  H18A 7910   1.853   4.494   6.709  0.7729 -1.3348 -0.3099
   74CHL1  H18B 7911   1.870   4.589   6.855  0.9643  0.0666 -2.2298
   74CHL1  H18C 7912   1.878   4.409   6.869 -0.0145 -1.9502 -2.2087
   74CHL1   C12 7913   1.589   4.394   6.756 -0.4433 -0.7333  0.3636
   74CHL1  H12A 7914   1.621   4.294   6.794  0.3724 -0.3446  0.7166
   74CHL1  H12B 7915   1.480   4.415   6.765 -0.2006  0.7283  0.1142
   74CHL1   C11 7916   1.613   4.397   6.604  0.2582 -0.2265 -0.5317
   74CHL1  H11A 7917   1.717   4.362   6.587  0.8087  0.9798  0.2195
   74CHL1  H11B 7918   1.543   4.333   6.547 -1.7729 -0.1559  1.6970
   74CHL1    C9 7919   1.594   4.540   6.542 -0.4578  0.5323 -0.3815
   74CHL1    H9 7920   1.486   4.567   6.546 -0.4400  0.7195 -1.0867
   74CHL1   C10 7921   1.627   4.562   6.384 -0.4649 -0.4981 -0.9353
   74CHL1   C19 7922   1.758   4.485   6.350  0.8151  0.0731  0.5837
   74CHL1  H19A 7923   1.740   4.375   6.345  0.3168  0.0655  2.0017
   74CHL1  H19B 7924   1.803   4.505   6.251  1.3813  1.6732  1.1369
   74CHL1  H19C 7925   1.831   4.498   6.434 -1.1595 -1.1409  2.5883
   74CHL1    C1 7926   1.507   4.508   6.299  0.2307  0.3120  0.8070
   74CHL1   H1A 7927   1.523   4.398   6.303 -1.2012 -0.0754 -1.6471
   74CHL1   H1B 7928   1.406   4.524   6.343  0.0238 -1.0833  0.9018
   74CHL1    C2 7929   1.510   4.537   6.156  0.2836  0.4446 -0.2766
   74CHL1   H2A 7930   1.422   4.494   6.102  0.9437  1.3070 -2.1122
   74CHL1   H2B 7931   1.599   4.487   6.112  0.7880  0.4493  0.7225
   74CHL1   C20 7932   1.702   4.442   7.093 -0.7190 -0.2862  0.7807
   74CHL1   H20 7933   1.812   4.460   7.083 -0.5660 -1.5964 -0.1016
   74CHL1   C21 7934   1.675   4.289   7.067 -0.1526 -0.4511 -0.2958
   74CHL1  H21A 7935   1.570   4.276   7.033  0.3060  0.3367 -2.1435
   74CHL1  H21B 7936   1.691   4.222   7.154  1.7952 -0.3589 -0.5432
   74CHL1  H21C 7937   1.738   4.245   6.986  0.2131 -0.8374  0.1918
   74CHL1   C22 7938   1.668   4.489   7.235 -0.6830 -0.1257 -0.2500
   74CHL1  H22A 7939   1.690   4.597   7.245 -0.3950  0.1953 -3.4136
   74CHL1  H22B 7940   1.563   4.458   7.255 -0.0537 -1.8794  0.5631
   74CHL1   C23 7941   1.747   4.413   7.348 -0.3791  0.4325  0.3991
   74CHL1  H23A 7942   1.733   4.303   7.346 -0.8263  0.4676  1.3192
   74CHL1  H23B 7943   1.854   4.431   7.321 -0.8530  1.1560 -1.1218
   74CHL1   C24 7944   1.686   4.464   7.482 -0.2650  0.0171 -0.4326
   74CHL1  H24A 7945   1.669   4.573   7.469  0.6224  0.2299  0.0838
   74CHL1  H24B 7946   1.588   4.412   7.493  0.2705 -1.4620 -2.1457
   74CHL1   C25 7947   1.775   4.440   7.602 -0.4919  0.2644  0.1240
   74CHL1   H25 7948   1.864   4.507   7.598 -2.0714  2.5274  0.7821
   74CHL1   C26 7949   1.700   4.474   7.730  0.6506  0.2263 -0.1389
   74CHL1  H26A 7950   1.772   4.482   7.814 -1.1236  1.0629  1.3541
   74CHL1  H26B 7951   1.639   4.567   7.727  0.8026  0.3505  0.5162
   74CHL1  H26C 7952   1.627   4.394   7.756  0.6392  0.8437  1.9420
   74CHL1   C27 7953   1.823   4.295   7.598 -0.3219  0.7846 -0.4963
   74CHL1  H27A 7954   1.875   4.279   7.695 -1.1726  2.7416  0.3478
   74CHL1  H27B 7955   1.739   4.222   7.594  0.7608 -0.4255 -3.2851
   74CHL1  H27C 7956   1.894   4.274   7.515  0.5773 -0.1351  0.4738
   75CHL1    C3 7957   5.093   5.323   6.133  0.6385 -0.0078  0.4683
   75CHL1    H3 7958   5.111   5.430   6.106  1.1080 -0.1350  0.2613
   75CHL1    O3 7959   5.109   5.239   6.017 -0.3010  0.1323 -0.0124
   75CHL1   H3' 7960   5.127   5.149   6.048 -0.2500  0.5436  1.2080
   75CHL1    C4 7961   5.201   5.269   6.237  0.0259 -0.5595  0.1710
   75CHL1   H4A 7962   5.190   5.161   6.259 -0.5989 -0.0460  2.8500
   75CHL1   H4B 7963   5.298   5.279   6.184  0.0581  0.1393  0.3440
   75CHL1    C5 7964   5.199   5.344   6.363  0.4859  0.8133  0.1827
   75CHL1    C6 7965   5.301   5.419   6.408 -0.4393 -0.4018 -0.1962
   75CHL1    H6 7966   5.398   5.413   6.356  0.3988  0.7266  1.1939
   75CHL1    C7 7967   5.303   5.500   6.534 -0.1020 -0.2706  0.1947
   75CHL1   H7A 7968   5.402   5.484   6.582  0.0531  0.2671  0.0634
   75CHL1   H7B 7969   5.278   5.606   6.512 -0.5755 -0.4678 -0.2492
   75CHL1    C8 7970   5.199   5.450   6.631  1.1894 -0.1105  0.0855
   75CHL1    H8 7971   5.221   5.350   6.676 -2.5343 -1.1098  0.0372
   75CHL1   C14 7972   5.188   5.551   6.749  0.5893  0.1915  0.1841
   75CHL1   H14 7973   5.171   5.651   6.705  1.1226  0.1361 -0.1557
   75CHL1   C15 7974   5.310   5.582   6.837  0.8699 -0.1644  0.1683
   75CHL1  H15A 7975   5.362   5.488   6.866 -0.1243 -0.5568  0.7137
   75CHL1  H15B 7976   5.385   5.649   6.790  2.3882 -1.5609  0.4725
   75CHL1   C16 7977   5.250   5.642   6.961 -0.4680 -0.6233 -0.0759
   75CHL1  H16A 7978   5.289   5.592   7.052 -1.6576  0.0607  0.8318
   75CHL1  H16B 7979   5.283   5.748   6.963  4.0302 -1.8483  0.9985
   75CHL1   C17 7980   5.093   5.622   6.949 -0.1116  0.2465  0.7725
   75CHL1   H17 7981   5.054   5.710   6.895  2.4719  2.3812  2.1108
   75CHL1   C13 7982   5.076   5.513   6.851  0.3284 -0.5902  0.2190
   75CHL1   C18 7983   5.106   5.376   6.918  0.3871  0.7745 -0.3818
   75CHL1  H18A 7984   5.192   5.382   6.988  2.0132 -3.3971 -1.7397
   75CHL1  H18B 7985   5.025   5.353   6.991  0.1490 -1.7798 -1.3602
   75CHL1  H18C 7986   5.115   5.289   6.850  1.9806  3.2395 -3.5836
   75CHL1   C12 7987   4.939   5.510   6.778  0.0814 -0.7865 -0.4142
   75CHL1  H12A 7988   4.857   5.494   6.851  1.3407 -0.5857  1.0967
   75CHL1  H12B 7989   4.918   5.606   6.726  0.3979  0.7714  2.1500
   75CHL1   C11 7990   4.948   5.407   6.670 -0.5140  0.0846  0.9634
   75CHL1  H11A 7991   4.967   5.307   6.716 -0.1061  0.6229  1.9773
   75CHL1  H11B 7992   4.847   5.399   6.623 -0.8647  1.3367  1.4629
   75CHL1    C9 7993   5.062   5.432   6.560  0.4200  0.0333  0.4508
   75CHL1    H9 7994   5.030   5.527   6.513  0.5700 -0.9526 -1.8125
   75CHL1   C10 7995   5.068   5.337   6.441 -0.2773  0.1132 -0.4998
   75CHL1   C19 7996   5.049   5.196   6.497  0.6092 -0.1562 -0.0635
   75CHL1  H19A 7997   4.944   5.189   6.531  2.0938 -2.0501  4.9237
   75CHL1  H19B 7998   5.065   5.114   6.424 -0.1292  0.0055 -0.4209
   75CHL1  H19C 7999   5.105   5.161   6.586 -1.4441 -3.5355  0.0701
   75CHL1    C1 8000   4.952   5.365   6.337  0.1265  0.4878 -0.3519
   75CHL1   H1A 8001   4.852   5.352   6.383  1.4081 -1.0358  2.2617
   75CHL1   H1B 8002   4.964   5.473   6.313 -0.5279  0.6766  0.1715
   75CHL1    C2 8003   4.959   5.289   6.205 -0.0329 -0.6457  0.1361
   75CHL1   H2A 8004   4.880   5.326   6.137  1.2817  2.3396  0.0872
   75CHL1   H2B 8005   4.959   5.178   6.213  1.1392 -0.7447 -0.9580
   75CHL1   C20 8006   5.013   5.601   7.080  0.0997 -0.8421 -1.3742
   75CHL1   H20 8007   4.926   5.538   7.050 -0.0401 -1.7023  0.6747
   75CHL1   C21 8008   4.960   5.739   7.116  0.1460 -0.1330 -0.3816
   75CHL1  H21A 8009   5.040   5.790   7.174  0.2001 -2.8227  2.1207
   75CHL1  H21B 8010   4.868   5.743   7.178 -0.0852  0.2220 -0.7418
   75CHL1  H21C 8011   4.927   5.800   7.030  1.0789 -2.0628 -2.2059
   75CHL1   C22 8012   5.087   5.550   7.209  0.5444 -0.0435 -0.3376
   75CHL1  H22A 8013   5.152   5.465   7.179 -0.3464 -0.9148  0.1278
   75CHL1  H22B 8014   5.153   5.626   7.255  0.6295 -0.2890 -0.0532
   75CHL1   C23 8015   4.986   5.492   7.317  0.4397  0.4200  0.6053
   75CHL1  H23A 8016   5.046   5.470   7.408 -1.9329 -3.3411  1.5160
   75CHL1  H23B 8017   4.918   5.573   7.350  1.8740  2.9949 -2.2796
   75CHL1   C24 8018   4.902   5.368   7.273 -0.3377  0.2486  0.1460
   75CHL1  H24A 8019   4.826   5.414   7.207 -0.4243  0.3743  0.3338
   75CHL1  H24B 8020   4.970   5.299   7.218 -0.7232  0.9372 -1.2425
   75CHL1   C25 8021   4.814   5.304   7.382  0.1002 -0.1629  0.1760
   75CHL1   H25 8022   4.773   5.386   7.444  0.1370 -0.7471  0.9900
   75CHL1   C26 8023   4.701   5.216   7.321  0.2723  0.2828 -0.4927
   75CHL1  H26A 8024   4.639   5.164   7.397  1.6958 -1.1043 -0.2263
   75CHL1  H26B 8025   4.629   5.275   7.261 -0.9177 -0.0987  0.5195
   75CHL1  H26C 8026   4.754   5.141   7.258  0.7971  1.2604 -1.2423
   75CHL1   C27 8027   4.890   5.222   7.484 -0.2538 -0.7479 -1.1737
   75CHL1  H27A 8028   4.851   5.233   7.588  1.1139 -2.1071 -0.4800
   75CHL1  H27B 8029   4.896   5.113   7.461 -3.0009 -1.2764  0.1697
   75CHL1  H27C 8030   4.996   5.253   7.491  0.1965 -2.4606  0.4595
   76CHL1    C3 8031   2.900   1.012   6.127  0.5291 -0.2857 -0.0787
   76CHL1    H3 8032   2.900   0.903   6.147 -2.0954 -0.1681  1.1049
   76CHL1    O3 8033   2.958   1.048   6.003  0.4012 -0.1896 -0.8901
   76CHL1   H3' 8034   2.913   0.993   5.938 -1.0556  2.2965 -2.1355
   76CHL1    C4 8035   2.759   1.070   6.121 -0.1495  0.1025 -0.0345
   76CHL1   H4A 8036   2.753   1.181   6.128 -1.4459  0.0504 -0.0701
   76CHL1   H4B 8037   2.722   1.030   6.024 -0.9953  0.8324 -0.0215
   76CHL1    C5 8038   2.674   1.017   6.233  0.2841 -0.1701 -0.3285
   76CHL1    C6 8039   2.555   0.958   6.217  0.7325 -0.0353 -0.1408
   76CHL1    H6 8040   2.518   0.941   6.114  0.6218 -0.8242  0.0193
   76CHL1    C7 8041   2.466   0.911   6.333 -1.0151 -0.3628 -0.2556
   76CHL1   H7A 8042   2.362   0.944   6.310 -0.9068  1.3108  1.4541
   76CHL1   H7B 8043   2.464   0.800   6.329  3.1559 -0.5470 -1.5358
   76CHL1    C8 8044   2.520   0.956   6.474  0.2726 -0.6083 -0.4170
   76CHL1    H8 8045   2.496   1.062   6.495  3.2728 -0.5406  3.9914
   76CHL1   C14 8046   2.461   0.867   6.580 -0.0939 -0.2560  0.0438
   76CHL1   H14 8047   2.508   0.768   6.566  1.0541  0.2070  0.5306
   76CHL1   C15 8048   2.308   0.851   6.578 -0.1568  0.4027  0.2388
   76CHL1  H15A 8049   2.265   0.952   6.559  0.8558  0.9066  0.5014
   76CHL1  H15B 8050   2.281   0.774   6.504  2.0091  0.3950 -0.6280
   76CHL1   C16 8051   2.279   0.803   6.723  0.0215  0.2806  0.0624
   76CHL1  H16A 8052   2.207   0.866   6.779  0.0030 -0.9044  1.4211
   76CHL1  H16B 8053   2.235   0.701   6.723 -0.8808  0.6360 -1.5957
   76CHL1   C17 8054   2.421   0.791   6.791 -0.0305 -0.1943 -0.6234
   76CHL1   H17 8055   2.464   0.694   6.761  0.8209 -0.3337  0.9106
   76CHL1   C13 8056   2.505   0.904   6.723 -0.6469 -0.8020 -0.0310
   76CHL1   C18 8057   2.456   1.046   6.761 -0.7072 -0.0371  0.1851
   76CHL1  H18A 8058   2.489   1.056   6.867  2.5383  1.9160 -0.8699
   76CHL1  H18B 8059   2.498   1.127   6.699 -0.2006 -0.0697  0.4791
   76CHL1  H18C 8060   2.345   1.050   6.768 -0.5914  2.8628  2.6568
   76CHL1   C12 8061   2.663   0.885   6.726  0.6101 -0.2535 -0.3649
   76CHL1  H12A 8062   2.694   0.919   6.827  1.2908 -1.3956 -0.1676
   76CHL1  H12B 8063   2.689   0.779   6.706  0.3493 -0.1240 -1.4269
   76CHL1   C11 8064   2.729   0.977   6.624  0.2626  0.4072 -0.3451
   76CHL1  H11A 8065   2.705   1.084   6.645  0.6221  0.7657 -1.6235
   76CHL1  H11B 8066   2.838   0.961   6.637 -0.2971 -2.0652  2.3022
   76CHL1    C9 8067   2.676   0.946   6.480  0.6569 -0.2066 -0.3086
   76CHL1    H9 8068   2.697   0.841   6.451  0.7037  0.0976 -1.4125
   76CHL1   C10 8069   2.744   1.033   6.369 -0.0660  0.3853 -0.6407
   76CHL1   C19 8070   2.730   1.179   6.404 -0.0917  0.0875  0.3386
   76CHL1  H19A 8071   2.791   1.200   6.494 -0.6221 -2.2030  1.3077
   76CHL1  H19B 8072   2.777   1.231   6.318  0.0588 -0.4324  0.1022
   76CHL1  H19C 8073   2.623   1.207   6.415  0.1979  0.9849  1.0188
   76CHL1    C1 8074   2.896   1.000   6.369 -0.1514  0.1549 -0.3425
   76CHL1   H1A 8075   2.942   1.043   6.461  2.7473  0.9172 -2.0312
   76CHL1   H1B 8076   2.906   0.890   6.379  1.0213  0.3215  0.6307
   76CHL1    C2 8077   2.967   1.062   6.257  0.0421  0.2876  0.7324
   76CHL1   H2A 8078   3.074   1.031   6.248  0.2049  0.4256  1.9945
   76CHL1   H2B 8079   2.963   1.173   6.255 -2.0707  0.2520 -1.5443
   76CHL1   C20 8080   2.409   0.785   6.942  0.0975  0.1768 -0.4034
   76CHL1   H20 8081   2.391   0.887   6.981  0.9957 -0.0962  0.7946
   76CHL1   C21 8082   2.543   0.731   7.002  1.1857 -0.9143  0.0247
   76CHL1  H21A 8083   2.634   0.783   6.963 -1.0035  0.9900 -2.9203
   76CHL1  H21B 8084   2.558   0.621   6.995 -0.4321 -1.2869  1.7858
   76CHL1  H21C 8085   2.540   0.742   7.113 -3.9398 -1.5282  0.1503
   76CHL1   C22 8086   2.287   0.689   6.995 -0.2727  0.2785  0.2404
   76CHL1  H22A 8087   2.189   0.728   6.959  0.1276  0.4553 -0.6790
   76CHL1  H22B 8088   2.289   0.582   6.965  1.2319  0.3350  0.0972
   76CHL1   C23 8089   2.272   0.695   7.149 -0.8809  0.1625 -1.0278
   76CHL1  H23A 8090   2.322   0.605   7.191 -1.6015 -0.1467 -0.8315
   76CHL1  H23B 8091   2.331   0.782   7.184 -0.8732 -0.4032  0.4134
   76CHL1   C24 8092   2.130   0.683   7.196 -0.0117 -0.4864  0.0219
   76CHL1  H24A 8093   2.071   0.766   7.152  0.8134  0.6651  1.0274
   76CHL1  H24B 8094   2.082   0.586   7.170 -0.9454  0.0900 -0.4428
   76CHL1   C25 8095   2.114   0.695   7.348  0.2662  1.0843 -0.5532
   76CHL1   H25 8096   2.165   0.787   7.382  1.1552  1.7809 -3.4765
   76CHL1   C26 8097   1.960   0.702   7.370 -0.2075 -0.2599 -0.1988
   76CHL1  H26A 8098   1.907   0.618   7.320  0.3884 -1.2654  0.7873
   76CHL1  H26B 8099   1.929   0.715   7.476  1.6548  0.8874  0.2607
   76CHL1  H26C 8100   1.916   0.795   7.331  1.7359  0.5218 -0.6456
   76CHL1   C27 8101   2.165   0.567   7.406 -0.1901  0.2195  0.5738
   76CHL1  H27A 8102   2.275   0.553   7.405 -0.3932 -1.6314  0.4872
   76CHL1  H27B 8103   2.140   0.568   7.514  0.3350  1.2748  0.6943
   76CHL1  H27C 8104   2.117   0.473   7.370  1.0900 -0.5395  0.7678
   77CHL1    C3 8105   1.814   5.548   5.885 -0.1489  0.0542 -0.0311
   77CHL1    H3 8106   1.791   5.446   5.923  2.6260 -0.2254  1.1328
   77CHL1    O3 8107   1.800   5.563   5.752 -0.5179  0.5634  0.0005
   77CHL1   H3' 8108   1.886   5.552   5.711 -0.9249 -2.4564 -0.3030
   77CHL1    C4 8109   1.722   5.654   5.955  0.5791 -0.3410 -0.1336
   77CHL1   H4A 8110   1.748   5.749   5.904  0.2187 -0.6344 -0.8783
   77CHL1   H4B 8111   1.616   5.631   5.930 -0.2201 -0.8668  3.2770
   77CHL1    C5 8112   1.745   5.652   6.110 -0.5235 -0.0215  0.3896
   77CHL1    C6 8113   1.641   5.629   6.192  0.3781  0.4340 -0.6786
   77CHL1    H6 8114   1.542   5.609   6.149  0.2792  1.4695 -0.9561
   77CHL1    C7 8115   1.652   5.632   6.342 -0.1141  0.3213 -0.0269
   77CHL1   H7A 8116   1.556   5.670   6.384  0.8236  1.2950  1.3058
   77CHL1   H7B 8117   1.645   5.526   6.374  0.5736 -0.1809 -1.4524
   77CHL1    C8 8118   1.777   5.697   6.403  0.1803 -0.3230  0.1951
   77CHL1    H8 8119   1.766   5.807   6.396 -0.8472 -0.2996  1.7507
   77CHL1   C14 8120   1.798   5.646   6.541  0.5698  0.1911  0.3566
   77CHL1   H14 8121   1.805   5.536   6.524  1.4527  0.5870 -2.4506
   77CHL1   C15 8122   1.686   5.663   6.640  0.2957 -0.1190 -0.2430
   77CHL1  H15A 8123   1.639   5.764   6.649 -2.3333 -1.2573 -0.4612
   77CHL1  H15B 8124   1.615   5.579   6.636  0.5575 -0.3706  0.2958
   77CHL1   C16 8125   1.752   5.657   6.775 -0.5075  0.1010  0.2260
   77CHL1  H16A 8126   1.726   5.748   6.833  1.0400  1.4311 -1.0619
   77CHL1  H16B 8127   1.722   5.573   6.841 -0.5906  0.6285  0.8714
   77CHL1   C17 8128   1.909   5.655   6.743  0.3714  0.9663  0.5290
   77CHL1   H17 8129   1.928   5.547   6.729 -0.6097  0.8566 -0.0449
   77CHL1   C13 8130   1.922   5.710   6.600 -0.3367  0.3054 -0.5871
   77CHL1   C18 8131   1.914   5.862   6.607  0.4559  0.4188  0.2472
   77CHL1  H18A 8132   1.886   5.918   6.515  0.5119 -2.7140 -1.8184
   77CHL1  H18B 8133   1.843   5.895   6.686  0.3911 -1.1684  0.8757
   77CHL1  H18C 8134   2.014   5.904   6.635  1.1865 -1.9615  1.4798
   77CHL1   C12 8135   2.043   5.665   6.524 -0.3301 -0.3346  0.4230
   77CHL1  H12A 8136   2.138   5.700   6.568  0.4793 -3.4117  1.3172
   77CHL1  H12B 8137   2.053   5.555   6.534  2.6838 -0.2309 -0.5115
   77CHL1   C11 8138   2.041   5.698   6.372 -0.3585 -0.1071 -0.2614
   77CHL1  H11A 8139   2.060   5.804   6.343  0.9098  0.0867  1.1430
   77CHL1  H11B 8140   2.127   5.648   6.321 -0.4052  0.9142 -1.3972
   77CHL1    C9 8141   1.902   5.656   6.313  0.4949 -0.6051  0.4846
   77CHL1    H9 8142   1.912   5.546   6.313 -0.1855 -0.6962 -1.1902
   77CHL1   C10 8143   1.892   5.684   6.162 -0.0024  0.3852 -0.1783
   77CHL1   C19 8144   1.913   5.837   6.135 -0.1155  0.5479 -0.5299
   77CHL1  H19A 8145   1.854   5.870   6.047 -2.9167 -1.3309  0.4817
   77CHL1  H19B 8146   1.860   5.874   6.226 -0.0790  0.1719 -0.3532
   77CHL1  H19C 8147   2.023   5.850   6.126 -0.0242 -0.3717 -0.8044
   77CHL1    C1 8148   1.987   5.592   6.080 -0.1114  0.0725  0.0437
   77CHL1   H1A 8149   2.092   5.628   6.087 -0.8293  2.4452 -0.5954
   77CHL1   H1B 8150   1.982   5.492   6.129 -2.0112  0.5691  0.9407
   77CHL1    C2 8151   1.956   5.578   5.924 -0.8352  0.1305 -0.2503
   77CHL1   H2A 8152   2.019   5.494   5.888  0.5374  1.2639 -0.6228
   77CHL1   H2B 8153   1.990   5.676   5.882 -1.4814 -0.0665 -1.2762
   77CHL1   C20 8154   1.996   5.707   6.861  0.3639 -0.1634  0.0473
   77CHL1   H20 8155   1.971   5.815   6.870 -0.7114 -0.2964 -1.2027
   77CHL1   C21 8156   2.148   5.690   6.827 -0.0487  0.1350 -0.0714
   77CHL1  H21A 8157   2.191   5.754   6.747  0.7712 -0.4164 -0.0846
   77CHL1  H21B 8158   2.154   5.583   6.799 -2.0352  0.0106 -0.1612
   77CHL1  H21C 8159   2.220   5.720   6.906 -0.5606  1.9744 -0.2676
   77CHL1   C22 8160   1.961   5.645   7.006  0.1663  0.1092  0.1796
   77CHL1  H22A 8161   2.022   5.704   7.077  0.6497  0.8074 -0.7903
   77CHL1  H22B 8162   1.850   5.649   7.010 -0.0350 -3.0227 -0.0964
   77CHL1   C23 8163   1.997   5.500   7.037  0.3841 -0.3337  0.2072
   77CHL1  H23A 8164   1.941   5.440   6.962 -1.3099  0.8087  0.4991
   77CHL1  H23B 8165   2.105   5.488   7.014  0.0478 -1.7581 -0.7725
   77CHL1   C24 8166   1.972   5.457   7.180  0.1184 -0.1046 -0.1655
   77CHL1  H24A 8167   2.003   5.539   7.248  0.2624 -0.1682 -0.1546
   77CHL1  H24B 8168   1.861   5.451   7.188  0.0429 -0.3988 -1.2095
   77CHL1   C25 8169   2.041   5.334   7.239  0.0961 -0.5428 -0.2819
   77CHL1   H25 8170   2.010   5.317   7.345  2.0876  4.0239  1.3022
   77CHL1   C26 8171   1.994   5.199   7.165  0.5319  0.2731  0.1425
   77CHL1  H26A 8172   2.024   5.211   7.059  0.8881  2.3887  0.4279
   77CHL1  H26B 8173   2.036   5.113   7.222 -1.0838 -0.2264  0.6387
   77CHL1  H26C 8174   1.883   5.197   7.167  0.5296 -0.1296 -0.3051
   77CHL1   C27 8175   2.188   5.345   7.243 -0.1421 -0.6939 -0.5103
   77CHL1  H27A 8176   2.231   5.259   7.298  0.8568  1.2558  1.9766
   77CHL1  H27B 8177   2.239   5.373   7.148  1.1773 -0.6974  0.1654
   77CHL1  H27C 8178   2.207   5.436   7.304  0.4150 -0.9727 -0.2566
   78CHL1    C3 8179   4.971   1.391   6.138 -0.1183 -0.1940  0.2998
   78CHL1    H3 8180   5.059   1.455   6.159 -0.8875  0.8140  0.5234
   78CHL1    O3 8181   4.919   1.448   6.015 -0.5446  0.0955 -0.1593
   78CHL1   H3' 8182   4.856   1.381   5.987 -0.9906  0.3616  0.1919
   78CHL1    C4 8183   5.012   1.247   6.129  0.1319  0.0578  0.1659
   78CHL1   H4A 8184   4.932   1.185   6.084 -0.7334 -0.5289  2.3589
   78CHL1   H4B 8185   5.092   1.243   6.052  0.5943  0.4315  0.6154
   78CHL1    C5 8186   5.063   1.184   6.264  0.7786 -0.2557  0.3529
   78CHL1    C6 8187   5.176   1.118   6.260  0.2623 -0.2399  0.6142
   78CHL1    H6 8188   5.235   1.114   6.167 -0.5720  1.5864 -0.0479
   78CHL1    C7 8189   5.229   1.055   6.388 -0.2619  0.3591  0.4498
   78CHL1   H7A 8190   5.272   0.954   6.370 -2.2841 -0.4416 -0.1586
   78CHL1   H7B 8191   5.322   1.112   6.409 -0.2740  1.4508 -2.1134
   78CHL1    C8 8192   5.138   1.047   6.507  0.7459 -0.0848 -0.3437
   78CHL1    H8 8193   5.061   0.968   6.493 -3.1964  3.4536 -0.5893
   78CHL1   C14 8194   5.214   1.021   6.635 -0.9634  0.2354  0.3366
   78CHL1   H14 8195   5.289   1.103   6.638 -1.4671  0.6982  0.4916
   78CHL1   C15 8196   5.291   0.888   6.645  0.5099  0.1161 -0.9155
   78CHL1  H15A 8197   5.222   0.806   6.616 -0.3202  0.3235  0.3663
   78CHL1  H15B 8198   5.378   0.897   6.577  0.8431 -0.3498 -0.5598
   78CHL1   C16 8199   5.323   0.872   6.797  0.7736  0.7430 -0.1479
   78CHL1  H16A 8200   5.288   0.770   6.824 -0.0934  0.9304 -0.5305
   78CHL1  H16B 8201   5.431   0.882   6.819  0.4480  0.4087  1.8439
   78CHL1   C17 8202   5.239   0.983   6.870 -0.0224  0.0990 -0.0949
   78CHL1   H17 8203   5.302   1.073   6.887 -0.3678  0.0830  1.5023
   78CHL1   C13 8204   5.133   1.024   6.765  0.2398 -0.0386 -0.0035
   78CHL1   C18 8205   5.016   0.909   6.774 -0.1958  0.5588 -0.6858
   78CHL1  H18A 8206   4.951   0.926   6.686 -1.4287  0.7290  0.2403
   78CHL1  H18B 8207   5.041   0.801   6.777 -0.6312  0.4629 -0.4787
   78CHL1  H18C 8208   4.956   0.935   6.864 -0.3273 -1.4949 -0.1378
   78CHL1   C12 8209   5.074   1.164   6.778  0.0397 -0.3207  0.7486
   78CHL1  H12A 8210   5.007   1.191   6.862 -2.7883  2.7104 -2.1774
   78CHL1  H12B 8211   5.159   1.234   6.765 -0.3634 -0.2718 -2.6631
   78CHL1   C11 8212   4.979   1.195   6.653  0.5494  0.2131 -0.0379
   78CHL1  H11A 8213   4.896   1.122   6.645  2.7650 -2.2730 -2.9236
   78CHL1  H11B 8214   4.949   1.302   6.663 -0.2083  0.4215 -3.3601
   78CHL1    C9 8215   5.061   1.184   6.523 -0.5439 -0.1502 -0.0318
   78CHL1    H9 8216   5.137   1.264   6.532 -0.2540 -0.4212 -0.0625
   78CHL1   C10 8217   4.981   1.220   6.392  0.2552 -0.1166  0.2782
   78CHL1   C19 8218   4.850   1.133   6.393  0.3049 -0.5171 -0.9676
   78CHL1  H19A 8219   4.883   1.028   6.406  0.0527 -0.6034 -1.0170
   78CHL1  H19B 8220   4.778   1.170   6.470 -0.2451  1.4177 -2.3362
   78CHL1  H19C 8221   4.806   1.153   6.293  1.0217  1.1126 -0.9849
   78CHL1    C1 8222   4.941   1.368   6.384  0.3188 -0.1183 -0.6555
   78CHL1   H1A 8223   4.871   1.387   6.468  0.0171  0.2456 -0.9824
   78CHL1   H1B 8224   5.028   1.436   6.400  2.0038 -1.5608 -3.0704
   78CHL1    C2 8225   4.869   1.409   6.254 -0.2647 -0.9392  0.1469
   78CHL1   H2A 8226   4.845   1.517   6.257  0.6286 -0.7594  1.3574
   78CHL1   H2B 8227   4.769   1.362   6.242  0.0368 -1.4619 -0.3784
   78CHL1   C20 8228   5.203   0.938   7.008 -0.0653  0.1920  0.2345
   78CHL1   H20 8229   5.119   0.865   7.002  0.0369 -0.1482  2.1939
   78CHL1   C21 8230   5.157   1.064   7.096 -0.2751  0.1413  0.1916
   78CHL1  H21A 8231   5.253   1.116   7.114  0.3422  0.4626 -3.3214
   78CHL1  H21B 8232   5.102   1.032   7.188  0.3176 -1.4435  0.0364
   78CHL1  H21C 8233   5.089   1.130   7.038 -1.7555 -0.1310  1.5252
   78CHL1   C22 8234   5.320   0.866   7.080 -0.6225  0.5715  0.1406
   78CHL1  H22A 8235   5.326   0.762   7.044 -0.0131  0.9189 -0.7940
   78CHL1  H22B 8236   5.419   0.912   7.061  0.1952 -0.6951  1.2188
   78CHL1   C23 8237   5.309   0.853   7.233  0.2645  0.1386  0.2135
   78CHL1  H23A 8238   5.320   0.954   7.276  0.6306 -0.1873  0.8992
   78CHL1  H23B 8239   5.212   0.804   7.255  0.4645 -2.1783 -3.2408
   78CHL1   C24 8240   5.423   0.774   7.298  0.5247  0.6238 -0.7062
   78CHL1  H24A 8241   5.425   0.667   7.271 -0.1881  0.8472 -1.6798
   78CHL1  H24B 8242   5.518   0.816   7.257 -0.1247  0.7752 -2.1083
   78CHL1   C25 8243   5.429   0.788   7.454 -0.0958 -0.3200 -0.3089
   78CHL1   H25 8244   5.421   0.894   7.488  3.1231 -0.5248  1.4798
   78CHL1   C26 8245   5.323   0.700   7.536 -0.6435 -0.1608  0.2739
   78CHL1  H26A 8246   5.319   0.596   7.498  0.1210 -0.4947  1.0625
   78CHL1  H26B 8247   5.360   0.700   7.641 -0.8098 -0.2295  0.3319
   78CHL1  H26C 8248   5.226   0.754   7.525 -0.5421  0.0165  0.2394
   78CHL1   C27 8249   5.571   0.748   7.500 -0.8404  0.0922 -0.4586
   78CHL1  H27A 8250   5.592   0.642   7.474  2.4557  1.1112 -2.5642
   78CHL1  H27B 8251   5.640   0.812   7.441 -0.6231 -0.3288 -0.6647
   78CHL1  H27C 8252   5.578   0.767   7.610 -0.0757  1.4230 -0.7167
   79CHL1    C3 8253   4.036   6.248   5.952  0.4236 -0.2209  0.3968
   79CHL1    H3 8254   4.135   6.198   5.963  0.9047  0.7667  0.6957
   79CHL1    O3 8255   4.000   6.228   5.816 -0.6721  0.1142  0.1604
   79CHL1   H3' 8256   3.922   6.283   5.811  0.5082  1.7882 -0.9256
   79CHL1    C4 8257   3.935   6.174   6.039  0.3977 -0.2318 -0.3822
   79CHL1   H4A 8258   3.837   6.225   6.023  0.1348 -0.8051 -0.6179
   79CHL1   H4B 8259   3.927   6.072   5.997 -1.7277 -1.0774  1.8236
   79CHL1    C5 8260   3.967   6.187   6.187  0.6989  0.2277 -0.5421
   79CHL1    C6 8261   3.976   6.081   6.272  0.0960 -0.1085  0.1547
   79CHL1    H6 8262   3.936   5.984   6.239 -2.0594  0.4703  0.9263
   79CHL1    C7 8263   4.002   6.098   6.418  0.7934 -0.6890  0.3629
   79CHL1   H7A 8264   3.934   6.032   6.476 -0.7671 -0.2910 -0.9422
   79CHL1   H7B 8265   4.103   6.051   6.428  0.8887 -1.2594 -2.4962
   79CHL1    C8 8266   3.998   6.244   6.468 -0.4315 -0.2472  0.0062
   79CHL1    H8 8267   3.891   6.272   6.473 -0.0256  1.3835 -0.0618
   79CHL1   C14 8268   4.065   6.244   6.600  0.9649 -0.6535  0.8273
   79CHL1   H14 8269   4.168   6.211   6.574  1.2045 -1.8114  3.0429
   79CHL1   C15 8270   4.013   6.153   6.708 -0.0073 -0.0739  0.2618
   79CHL1  H15A 8271   3.902   6.152   6.705 -0.0112 -0.2950  0.4444
   79CHL1  H15B 8272   4.038   6.046   6.690 -1.6002  0.0396 -3.7307
   79CHL1   C16 8273   4.070   6.211   6.835 -0.5980 -0.1523  0.0218
   79CHL1  H16A 8274   3.980   6.217   6.899 -2.2146 -2.4060 -1.8811
   79CHL1  H16B 8275   4.141   6.140   6.883  0.0178  0.7560  0.4892
   79CHL1   C17 8276   4.132   6.351   6.802 -0.5036  0.1894  0.1981
   79CHL1   H17 8277   4.238   6.325   6.779 -0.7146 -0.4372 -0.0879
   79CHL1   C13 8278   4.076   6.380   6.667 -0.4467  0.8040  0.7418
   79CHL1   C18 8279   3.937   6.434   6.698 -0.1962 -0.3932 -0.3276
   79CHL1  H18A 8280   3.937   6.520   6.769  1.2572  0.1781 -0.9669
   79CHL1  H18B 8281   3.897   6.465   6.599  0.4732 -0.7909 -0.7296
   79CHL1  H18C 8282   3.861   6.358   6.724 -1.0812  0.1528 -1.2149
   79CHL1   C12 8283   4.157   6.473   6.569  0.4523 -0.7000 -0.0564
   79CHL1  H12A 8284   4.145   6.577   6.605 -1.1185 -1.2564  1.1273
   79CHL1  H12B 8285   4.267   6.456   6.573  1.0945  2.5393 -0.7128
   79CHL1   C11 8286   4.099   6.472   6.424 -0.2414  0.0130 -0.4541
   79CHL1  H11A 8287   4.004   6.528   6.413  0.4067  0.6859 -3.8552
   79CHL1  H11B 8288   4.165   6.521   6.349 -0.9597  1.2000 -0.3250
   79CHL1    C9 8289   4.070   6.331   6.367  0.0133  0.8058 -0.7496
   79CHL1    H9 8290   4.169   6.286   6.345  1.6668  3.4744  0.6769
   79CHL1   C10 8291   4.003   6.335   6.231  0.3732 -0.0234  0.3390
   79CHL1   C19 8292   3.875   6.422   6.247  0.5561 -0.0678  0.2195
   79CHL1  H19A 8293   3.815   6.384   6.332  1.5161 -1.9104  0.1285
   79CHL1  H19B 8294   3.894   6.531   6.248 -3.8557  0.9445 -1.6679
   79CHL1  H19C 8295   3.803   6.394   6.167  1.4367  0.5996 -0.8357
   79CHL1    C1 8296   4.094   6.405   6.131 -0.2676  0.4889  0.0223
   79CHL1   H1A 8297   4.117   6.508   6.164  2.7211 -0.3572  0.9629
   79CHL1   H1B 8298   4.194   6.356   6.140 -0.8149 -0.2510  3.1308
   79CHL1    C2 8299   4.051   6.399   5.987 -0.3280  0.4539  0.6425
   79CHL1   H2A 8300   4.120   6.456   5.921 -1.7865  0.9650 -0.4951
   79CHL1   H2B 8301   3.954   6.451   5.976 -0.1162  0.3419 -2.5868
   79CHL1   C20 8302   4.129   6.454   6.919  0.4826  1.0235  0.3972
   79CHL1   H20 8303   4.024   6.473   6.950  0.9738 -1.2551  3.9440
   79CHL1   C21 8304   4.206   6.584   6.881  0.2398  0.3858 -0.3837
   79CHL1  H21A 8305   4.309   6.568   6.843  0.5525  1.5279 -0.0443
   79CHL1  H21B 8306   4.216   6.651   6.969 -0.7222  0.0187  0.0191
   79CHL1  H21C 8307   4.153   6.641   6.802  1.0338  1.1325 -0.3916
   79CHL1   C22 8308   4.199   6.390   7.040  0.1218  0.0953  0.2292
   79CHL1  H22A 8309   4.156   6.288   7.050 -1.5741  0.5740 -1.6334
   79CHL1  H22B 8310   4.309   6.390   7.024  0.1203  1.2960  0.1430
   79CHL1   C23 8311   4.172   6.461   7.173 -0.8217 -1.0226  0.2770
   79CHL1  H23A 8312   4.172   6.569   7.149 -0.4568 -0.7921  1.2518
   79CHL1  H23B 8313   4.066   6.440   7.196 -1.6656  1.4975 -1.0284
   79CHL1   C24 8314   4.261   6.418   7.290 -0.1420 -0.0472 -0.0364
   79CHL1  H24A 8315   4.240   6.316   7.330 -0.6582 -1.0205 -2.5576
   79CHL1  H24B 8316   4.363   6.412   7.246  0.0982 -1.4561  0.6417
   79CHL1   C25 8317   4.260   6.520   7.409  0.9759  0.3275  0.4513
   79CHL1   H25 8318   4.285   6.621   7.371  1.0736 -0.3328 -1.3418
   79CHL1   C26 8319   4.129   6.531   7.487  0.1255 -0.1230  0.1382
   79CHL1  H26A 8320   4.091   6.433   7.522  2.5012 -0.5235  1.8521
   79CHL1  H26B 8321   4.146   6.606   7.568  3.5738  0.2384 -0.7661
   79CHL1  H26C 8322   4.053   6.585   7.426  0.7445  0.1563 -0.4013
   79CHL1   C27 8323   4.362   6.473   7.519 -0.4957 -0.1282 -0.1561
   79CHL1  H27A 8324   4.345   6.368   7.551  3.4337 -0.7553  0.3743
   79CHL1  H27B 8325   4.465   6.471   7.478  0.4701  1.7748  1.9639
   79CHL1  H27C 8326   4.363   6.549   7.599 -0.2338  0.3547 -0.6104
   80CHL1    C3 8327   0.940   4.685   6.084  0.4819 -0.0230 -0.6836
   80CHL1    H3 8328   0.847   4.636   6.119  0.8850 -1.6301 -1.7939
   80CHL1    O3 8329   0.934   4.669   5.943  0.3101 -0.0781 -0.7158
   80CHL1   H3' 8330   0.976   4.750   5.911  4.1778 -1.3395  0.5945
   80CHL1    C4 8331   0.926   4.832   6.128  0.0456  0.2756  0.3105
   80CHL1   H4A 8332   1.009   4.884   6.075  0.8159 -0.1496  1.0701
   80CHL1   H4B 8333   0.826   4.875   6.105  0.8685  1.3754 -1.4028
   80CHL1    C5 8334   0.943   4.851   6.280 -0.0962  0.1558  0.0161
   80CHL1    C6 8335   0.858   4.922   6.355 -0.1737  0.2841  0.3043
   80CHL1    H6 8336   0.771   4.973   6.310 -1.6463 -2.2683  0.0823
   80CHL1    C7 8337   0.873   4.936   6.504 -0.4735 -0.1337 -0.0039
   80CHL1   H7A 8338   0.858   5.040   6.540  1.7153 -0.2677  1.5056
   80CHL1   H7B 8339   0.806   4.865   6.557  0.9119 -1.4060  0.0990
   80CHL1    C8 8340   1.013   4.896   6.559  0.8220 -0.0233  0.4441
   80CHL1    H8 8341   1.084   4.977   6.532 -0.9208  0.6064 -2.6202
   80CHL1   C14 8342   1.007   4.883   6.710 -0.1330 -0.5004  0.0231
   80CHL1   H14 8343   0.931   4.804   6.727 -1.8504  1.0888  0.0344
   80CHL1   C15 8344   0.969   5.009   6.793 -0.2987 -0.2473  0.0226
   80CHL1  H15A 8345   1.036   5.096   6.776 -1.3466  0.3042 -1.4889
   80CHL1  H15B 8346   0.867   5.051   6.780  1.2085  3.8605 -0.0011
   80CHL1   C16 8347   0.992   4.969   6.943  1.0655  0.8659  0.2572
   80CHL1  H16A 8348   1.029   5.059   6.996  0.5202 -0.0525  2.3019
   80CHL1  H16B 8349   0.899   4.934   6.992  0.7833  0.4385 -0.5789
   80CHL1   C17 8350   1.089   4.843   6.934 -0.4451  0.0017 -1.0898
   80CHL1   H17 8351   1.017   4.758   6.936  0.3669 -0.6732 -0.0451
   80CHL1   C13 8352   1.139   4.843   6.786 -0.2875 -0.5618 -0.2543
   80CHL1   C18 8353   1.255   4.941   6.779  0.6394 -0.4181 -0.0746
   80CHL1  H18A 8354   1.343   4.904   6.835  1.1248  0.6711 -0.0846
   80CHL1  H18B 8355   1.275   4.951   6.670 -1.8707  3.2024 -0.4226
   80CHL1  H18C 8356   1.243   5.044   6.819  0.2797  0.0524 -1.3462
   80CHL1   C12 8357   1.181   4.703   6.731  0.0495 -0.1918  0.6881
   80CHL1  H12A 8358   1.278   4.668   6.771  0.5302  1.0128  0.6293
   80CHL1  H12B 8359   1.095   4.634   6.744 -1.3188  0.9631 -1.5215
   80CHL1   C11 8360   1.191   4.708   6.571  0.3568  0.1764  0.1823
   80CHL1  H11A 8361   1.274   4.775   6.540  0.4971  0.0568  0.2980
   80CHL1  H11B 8362   1.221   4.608   6.533 -2.6045 -0.5940 -0.3516
   80CHL1    C9 8363   1.061   4.760   6.497  0.2219 -0.5820 -0.2070
   80CHL1    H9 8364   0.985   4.683   6.522 -0.2012 -0.4283 -0.9946
   80CHL1   C10 8365   1.065   4.767   6.345 -0.1195 -0.0836  0.0871
   80CHL1   C19 8366   1.192   4.839   6.304 -0.0574  0.2889  0.0574
   80CHL1  H19A 8367   1.198   4.834   6.193 -1.0980 -2.9753  0.0411
   80CHL1  H19B 8368   1.187   4.945   6.339 -0.3231  1.1439 -2.3977
   80CHL1  H19C 8369   1.286   4.786   6.331  0.8044  0.7494 -1.8377
   80CHL1    C1 8370   1.065   4.618   6.291 -0.1186 -0.4557 -0.4935
   80CHL1   H1A 8371   1.162   4.569   6.315  0.1557  0.6759  0.8652
   80CHL1   H1B 8372   0.983   4.555   6.332  0.9342  0.5850  3.6858
   80CHL1    C2 8373   1.059   4.610   6.137 -0.7455  0.3549 -0.1809
   80CHL1   H2A 8374   1.041   4.504   6.107 -0.7549  0.0791  0.7759
   80CHL1   H2B 8375   1.155   4.645   6.094 -0.1114 -0.1438  0.7965
   80CHL1   C20 8376   1.187   4.830   7.060 -0.3261  0.0282 -0.5255
   80CHL1   H20 8377   1.257   4.916   7.065  1.2693 -0.9913 -3.3753
   80CHL1   C21 8378   1.270   4.703   7.039 -0.1781 -0.0870 -0.2201
   80CHL1  H21A 8379   1.308   4.675   7.139  1.7090 -1.4450 -1.2445
   80CHL1  H21B 8380   1.357   4.708   6.969 -1.5202 -1.3209 -2.0767
   80CHL1  H21C 8381   1.208   4.622   6.996  1.5372 -0.1598 -2.8720
   80CHL1   C22 8382   1.104   4.827   7.187 -0.4301 -0.2527 -1.0734
   80CHL1  H22A 8383   1.013   4.890   7.199  0.2322  0.6255 -0.4820
   80CHL1  H22B 8384   1.072   4.722   7.170  0.0173 -0.2790 -1.7946
   80CHL1   C23 8385   1.183   4.836   7.314  0.7886  0.5468 -0.1146
   80CHL1  H23A 8386   1.274   4.773   7.318  0.3256 -0.0750  1.0447
   80CHL1  H23B 8387   1.206   4.943   7.331 -1.9217  1.3739 -1.0847
   80CHL1   C24 8388   1.092   4.791   7.439  0.4199 -0.1297  0.1466
   80CHL1  H24A 8389   0.986   4.814   7.416 -0.4675 -0.8426  3.1408
   80CHL1  H24B 8390   1.103   4.682   7.459  0.1750 -0.1116  0.3767
   80CHL1   C25 8391   1.117   4.867   7.569 -0.0650 -0.5695  0.3716
   80CHL1   H25 8392   1.089   4.973   7.552 -2.2949 -1.4681 -2.2516
   80CHL1   C26 8393   1.024   4.805   7.675 -0.1634 -0.7178 -0.1725
   80CHL1  H26A 8394   1.045   4.696   7.689 -1.2498 -0.8279  0.7441
   80CHL1  H26B 8395   1.045   4.856   7.771  0.1979  1.6811 -1.4647
   80CHL1  H26C 8396   0.920   4.825   7.645  0.3150  0.6152 -1.0013
   80CHL1   C27 8397   1.267   4.861   7.609 -0.5615 -0.0108  0.1672
   80CHL1  H27A 8398   1.271   4.909   7.709  0.3592  0.8680 -0.2740
   80CHL1  H27B 8399   1.304   4.756   7.616  0.0562  0.1236 -0.9378
   80CHL1  H27C 8400   1.338   4.910   7.539 -0.6944 -1.3168 -0.9219
   81CHL1    C3 8401   6.353   2.551   5.964  0.1020 -0.2797  0.2049
   81CHL1    H3 8402   6.432   2.477   5.992  1.1233  0.6744 -0.0662
   81CHL1    O3 8403   6.321   2.530   5.832 -0.0184  0.1657  0.2841
   81CHL1   H3' 8404   6.269   2.602   5.795  1.0385  1.2722  0.8448
   81CHL1    C4 8405   6.233   2.514   6.057 -0.0414  0.9478  0.7143
   81CHL1   H4A 8406   6.138   2.565   6.029  0.9980  1.9960 -1.1044
   81CHL1   H4B 8407   6.196   2.411   6.039  1.7643  0.3902 -0.0154
   81CHL1    C5 8408   6.250   2.540   6.202  0.0780 -0.4840 -0.5745
   81CHL1    C6 8409   6.231   2.448   6.293  0.1327  1.0082 -0.6480
   81CHL1    H6 8410   6.208   2.344   6.264  0.4454  0.6878  0.2164
   81CHL1    C7 8411   6.258   2.482   6.440 -0.2537 -0.3889 -0.1672
   81CHL1   H7A 8412   6.171   2.437   6.493  0.4438 -0.3239  1.0689
   81CHL1   H7B 8413   6.356   2.443   6.474  0.1629  0.7296 -0.0670
   81CHL1    C8 8414   6.255   2.634   6.469 -0.0244  0.0471  0.0947
   81CHL1    H8 8415   6.151   2.672   6.466  0.6371  2.2132  1.8701
   81CHL1   C14 8416   6.306   2.662   6.610 -0.4091  0.1557  0.3113
   81CHL1   H14 8417   6.412   2.630   6.619 -0.4749 -0.9544 -1.9458
   81CHL1   C15 8418   6.229   2.594   6.721 -0.0373  0.4620 -0.8296
   81CHL1  H15A 8419   6.120   2.602   6.703 -0.1479 -0.2144 -0.5120
   81CHL1  H15B 8420   6.239   2.483   6.719  3.9870  0.6746 -0.6336
   81CHL1   C16 8421   6.266   2.671   6.848 -0.2616 -0.4257  0.2761
   81CHL1  H16A 8422   6.169   2.703   6.893 -0.3147  0.4551 -0.4246
   81CHL1  H16B 8423   6.326   2.605   6.914  2.4209  1.4848 -0.0949
   81CHL1   C17 8424   6.340   2.800   6.802  0.1699 -0.4707  0.4843
   81CHL1   H17 8425   6.448   2.774   6.801  0.3323  0.1636 -0.8311
   81CHL1   C13 8426   6.301   2.813   6.654  0.0675 -0.0458 -0.3065
   81CHL1   C18 8427   6.156   2.865   6.641  0.5412 -0.0724 -1.1526
   81CHL1  H18A 8428   6.136   2.954   6.705 -0.3146 -0.9938 -0.1197
   81CHL1  H18B 8429   6.139   2.886   6.533  1.5352  0.3487 -1.2397
   81CHL1  H18C 8430   6.082   2.787   6.669  1.1396 -0.1981  0.0911
   81CHL1   C12 8431   6.402   2.889   6.564  0.0502 -0.2930  0.1365
   81CHL1  H12A 8432   6.415   3.000   6.569  0.9440 -0.2374 -1.9817
   81CHL1  H12B 8433   6.504   2.849   6.585  0.1120  0.7290  1.9168
   81CHL1   C11 8434   6.371   2.862   6.414  0.1148 -0.8845  0.6162
   81CHL1  H11A 8435   6.280   2.919   6.389  0.9377  0.1577 -0.0951
   81CHL1  H11B 8436   6.453   2.904   6.352 -1.4771  1.0432 -0.2620
   81CHL1    C9 8437   6.343   2.711   6.373 -0.6689 -0.1875  0.6899
   81CHL1    H9 8438   6.445   2.666   6.377  0.0289  0.3418 -4.5114
   81CHL1   C10 8439   6.298   2.686   6.225  0.2527  0.5476  0.3276
   81CHL1   C19 8440   6.192   2.790   6.191  0.8152 -0.4181 -0.4573
   81CHL1  H19A 8441   6.234   2.892   6.180 -0.4948  0.3406  1.0380
   81CHL1  H19B 8442   6.148   2.767   6.092 -0.7238 -2.3502  0.6106
   81CHL1  H19C 8443   6.108   2.786   6.264  0.1284 -0.6137 -1.2468
   81CHL1    C1 8444   6.426   2.711   6.141 -0.2939 -0.8401  0.8675
   81CHL1   H1A 8445   6.466   2.813   6.158 -1.2222 -0.4340  0.6790
   81CHL1   H1B 8446   6.503   2.641   6.181 -0.7200 -1.3404  0.8305
   81CHL1    C2 8447   6.413   2.688   5.987  0.2431 -0.2667  0.3264
   81CHL1   H2A 8448   6.509   2.708   5.935  0.3513 -0.2825  0.5192
   81CHL1   H2B 8449   6.342   2.759   5.940  0.8344 -0.4028 -0.7882
   81CHL1   C20 8450   6.326   2.918   6.898  0.8954  0.1849  1.0274
   81CHL1   H20 8451   6.225   2.957   6.922  1.1812  0.2114  2.2662
   81CHL1   C21 8452   6.401   3.041   6.847 -0.5491  0.3026  0.2718
   81CHL1  H21A 8453   6.508   3.026   6.819 -0.1397 -0.8548  2.2188
   81CHL1  H21B 8454   6.401   3.131   6.912 -2.6497 -0.4065  1.3602
   81CHL1  H21C 8455   6.345   3.087   6.763  0.9104  0.1351 -0.8396
   81CHL1   C22 8456   6.381   2.873   7.038 -0.0618  0.0325 -0.3599
   81CHL1  H22A 8457   6.328   2.779   7.064  4.7030 -2.9841 -0.3793
   81CHL1  H22B 8458   6.489   2.848   7.033  0.2427  0.7924  1.6413
   81CHL1   C23 8459   6.336   2.975   7.148 -0.2339  0.4120  0.0018
   81CHL1  H23A 8460   6.395   3.068   7.137  2.3276 -0.9164  1.5131
   81CHL1  H23B 8461   6.228   2.999   7.143 -0.2458  0.3662  0.0322
   81CHL1   C24 8462   6.352   2.920   7.289 -0.4102  0.1727  0.1345
   81CHL1  H24A 8463   6.292   2.827   7.304  0.0053 -0.3921 -1.4028
   81CHL1  H24B 8464   6.452   2.873   7.286 -1.3927 -2.0764  0.0528
   81CHL1   C25 8465   6.344   3.020   7.407  0.2743  0.6286  0.3194
   81CHL1   H25 8466   6.241   3.060   7.423  0.0679 -0.4877  2.0487
   81CHL1   C26 8467   6.384   2.943   7.532  0.4178  0.2216 -0.6508
   81CHL1  H26A 8468   6.406   3.014   7.614  3.9672 -0.1923 -1.1000
   81CHL1  H26B 8469   6.306   2.864   7.546  0.1919  0.4607 -0.5473
   81CHL1  H26C 8470   6.484   2.898   7.517  0.1743 -1.0302  1.1403
   81CHL1   C27 8471   6.444   3.131   7.384 -0.0039 -0.0043  0.0833
   81CHL1  H27A 8472   6.405   3.193   7.301  2.7982 -1.0152 -2.1644
   81CHL1  H27B 8473   6.456   3.188   7.479  0.8205  0.9715 -0.5891
   81CHL1  H27C 8474   6.543   3.097   7.347  0.3602 -1.3122  2.0904
   82CHL1    C3 8475   5.529   5.811   5.906  0.2065  0.1810 -0.1824
   82CHL1    H3 8476   5.489   5.914   5.897 -1.0235 -0.1753  0.8704
   82CHL1    O3 8477   5.521   5.762   5.778 -0.2419  0.5163  0.1480
   82CHL1   H3' 8478   5.500   5.668   5.782 -1.0837  0.7239  0.9947
   82CHL1    C4 8479   5.672   5.806   5.958  0.3236 -0.0897 -0.3141
   82CHL1   H4A 8480   5.714   5.704   5.952  2.1688  0.3537  2.8169
   82CHL1   H4B 8481   5.733   5.873   5.894 -0.1576  0.6432 -0.0201
   82CHL1    C5 8482   5.686   5.856   6.100 -0.3758  0.2117  0.5829
   82CHL1    C6 8483   5.781   5.947   6.131 -0.0185 -0.2720 -0.7110
   82CHL1    H6 8484   5.856   5.977   6.057 -0.1246  0.6114 -0.4701
   82CHL1    C7 8485   5.801   6.001   6.271 -0.0700 -0.6383  0.0354
   82CHL1   H7A 8486   5.902   5.993   6.315 -0.2890  0.2845  0.7280
   82CHL1   H7B 8487   5.762   6.104   6.285 -2.6278 -1.7320  1.6425
   82CHL1    C8 8488   5.721   5.918   6.377  0.1860  0.5269 -0.4234
   82CHL1    H8 8489   5.778   5.824   6.395  0.8859  1.3727  2.2484
   82CHL1   C14 8490   5.717   5.993   6.507 -0.0281 -0.2817  0.4534
   82CHL1   H14 8491   5.672   6.090   6.477  2.5721  1.0659  0.6727
   82CHL1   C15 8492   5.852   6.017   6.570 -0.6715  0.3516  0.2486
   82CHL1  H15A 8493   5.922   5.931   6.576  0.0791  1.0108  1.4934
   82CHL1  H15B 8494   5.904   6.109   6.534 -0.1094 -0.5351 -1.3110
   82CHL1   C16 8495   5.817   6.056   6.720  0.0825  0.8836 -0.3893
   82CHL1  H16A 8496   5.884   5.991   6.781 -0.0506  0.2814 -0.8785
   82CHL1  H16B 8497   5.846   6.159   6.749  0.5413  0.4905  0.6179
   82CHL1   C17 8498   5.662   6.035   6.737 -0.7491  0.6193 -0.4492
   82CHL1   H17 8499   5.618   6.132   6.705 -0.5702 -0.5267 -4.7698
   82CHL1   C13 8500   5.632   5.935   6.622 -0.1284  0.2273  0.1076
   82CHL1   C18 8501   5.693   5.794   6.663 -1.2366  0.1847  0.2547
   82CHL1  H18A 8502   5.619   5.726   6.710 -2.1456 -0.2670 -1.6918
   82CHL1  H18B 8503   5.723   5.733   6.574 -1.1698  2.4508 -1.3692
   82CHL1  H18C 8504   5.782   5.806   6.728 -1.0035  1.7855 -0.3205
   82CHL1   C12 8505   5.490   5.926   6.574 -0.6721  0.0560  0.2283
   82CHL1  H12A 8506   5.440   5.883   6.663  1.5274 -0.3363  1.3433
   82CHL1  H12B 8507   5.446   6.021   6.536  2.6339  0.9087 -1.9505
   82CHL1   C11 8508   5.486   5.830   6.446 -0.6086 -0.2353  0.2289
   82CHL1  H11A 8509   5.523   5.730   6.477  0.9264  0.2611  0.0690
   82CHL1  H11B 8510   5.380   5.837   6.412 -0.1426 -0.8115 -1.4335
   82CHL1    C9 8511   5.583   5.879   6.328  0.4231  0.1268  0.5784
   82CHL1    H9 8512   5.528   5.972   6.305 -3.6523 -2.3939 -0.9544
   82CHL1   C10 8513   5.584   5.796   6.196 -0.4341 -0.0808  0.6037
   82CHL1   C19 8514   5.629   5.649   6.218  0.0709 -0.4653 -0.5235
   82CHL1  H19A 8515   5.733   5.644   6.255  0.0431 -2.7024 -0.5963
   82CHL1  H19B 8516   5.567   5.595   6.293  2.3780 -1.9798  0.4026
   82CHL1  H19C 8517   5.634   5.601   6.117 -0.3993  0.0905 -0.8151
   82CHL1    C1 8518   5.443   5.786   6.138  0.1416 -0.3771 -0.2290
   82CHL1   H1A 8519   5.379   5.728   6.208  1.4443 -2.4548 -0.6666
   82CHL1   H1B 8520   5.406   5.890   6.142  2.9357  0.6336  1.5606
   82CHL1    C2 8521   5.434   5.731   5.996 -0.4566  0.0948 -0.1708
   82CHL1   H2A 8522   5.333   5.740   5.952 -0.4741 -2.3352 -0.7742
   82CHL1   H2B 8523   5.463   5.624   5.996  1.9441  0.5444  3.7894
   82CHL1   C20 8524   5.599   6.012   6.876  0.1713 -0.0573 -1.2924
   82CHL1   H20 8525   5.493   5.981   6.864 -0.3107  0.0648  1.9433
   82CHL1   C21 8526   5.595   6.151   6.946  0.2977 -0.4043  0.1246
   82CHL1  H21A 8527   5.549   6.219   6.870  1.0776  0.2759  0.2433
   82CHL1  H21B 8528   5.696   6.191   6.968 -1.2297  2.0981  3.3897
   82CHL1  H21C 8529   5.529   6.165   7.034 -0.0258 -1.7576  0.1128
   82CHL1   C22 8530   5.674   5.907   6.965 -0.8024  0.5533  0.5135
   82CHL1  H22A 8531   5.682   5.809   6.914 -1.0968  2.4171 -3.5271
   82CHL1  H22B 8532   5.775   5.945   6.989 -0.6449 -0.1169  0.9346
   82CHL1   C23 8533   5.609   5.883   7.100 -0.1837  0.7959  0.4771
   82CHL1  H23A 8534   5.602   5.974   7.163 -0.0386  1.8271 -0.9500
   82CHL1  H23B 8535   5.507   5.845   7.078  0.1868  0.1161 -0.1211
   82CHL1   C24 8536   5.676   5.768   7.176 -0.2691 -0.2565 -0.3277
   82CHL1  H24A 8537   5.686   5.674   7.118  0.3594 -0.6951  0.4632
   82CHL1  H24B 8538   5.780   5.798   7.204 -0.2135  0.5011 -1.2990
   82CHL1   C25 8539   5.602   5.732   7.309  0.7304 -0.9598 -0.0255
   82CHL1   H25 8540   5.581   5.829   7.359  0.6527 -0.9062 -0.1619
   82CHL1   C26 8541   5.469   5.642   7.300 -0.2522 -0.5341 -0.2210
   82CHL1  H26A 8542   5.430   5.627   7.403  0.2352 -1.0649 -0.1106
   82CHL1  H26B 8543   5.390   5.688   7.237 -0.9643  0.4520  1.3408
   82CHL1  H26C 8544   5.496   5.538   7.269 -0.2290 -0.9104  1.0066
   82CHL1   C27 8545   5.709   5.659   7.390  0.0071  0.5497 -0.8566
   82CHL1  H27A 8546   5.680   5.631   7.494  1.1556  2.4050 -0.0067
   82CHL1  H27B 8547   5.727   5.562   7.338 -0.5125  0.7355 -1.3919
   82CHL1  H27C 8548   5.805   5.714   7.389 -0.0272  0.6115 -0.7050
   83CHL1    C3 8549   3.817   6.830   6.107 -0.8141  0.4446 -0.3202
   83CHL1    H3 8550   3.831   6.720   6.115  1.6866  0.6548 -0.9394
   83CHL1    O3 8551   3.813   6.853   5.971  0.4284 -0.0977  1.1135
   83CHL1   H3' 8552   3.792   6.946   5.967 -1.5501 -0.5045  0.4505
   83CHL1    C4 8553   3.678   6.851   6.169  0.5087  0.0307  1.3162
   83CHL1   H4A 8554   3.648   6.957   6.152  1.2086 -0.2112 -2.0407
   83CHL1   H4B 8555   3.611   6.792   6.103  2.4808  0.3272 -1.0928
   83CHL1    C5 8556   3.684   6.825   6.315  0.0992 -0.4569 -0.0591
   83CHL1    C6 8557   3.589   6.742   6.364  0.0117  0.2366 -0.0885
   83CHL1    H6 8558   3.511   6.702   6.298  1.7121 -1.1341 -1.3598
   83CHL1    C7 8559   3.582   6.694   6.506  0.1827 -1.1437  0.6870
   83CHL1   H7A 8560   3.475   6.686   6.535 -0.0926  1.2041  0.4780
   83CHL1   H7B 8561   3.621   6.593   6.529 -0.6792 -1.8053 -0.6232
   83CHL1    C8 8562   3.661   6.790   6.601  0.0022 -0.2811 -0.2640
   83CHL1    H8 8563   3.613   6.888   6.624  0.0646 -0.4587  0.6857
   83CHL1   C14 8564   3.682   6.738   6.745 -0.2099  0.7411  0.0697
   83CHL1   H14 8565   3.728   6.637   6.732 -0.9155  0.1544  1.8091
   83CHL1   C15 8566   3.555   6.705   6.822  0.9829  0.1683  0.1144
   83CHL1  H15A 8567   3.496   6.799   6.821 -0.0443 -0.3971 -3.0903
   83CHL1  H15B 8568   3.504   6.617   6.780 -2.6750  1.5763  1.2045
   83CHL1   C16 8569   3.613   6.681   6.961  0.6334  0.1700 -0.2720
   83CHL1  H16A 8570   3.549   6.717   7.043  0.6216 -2.9044  1.2044
   83CHL1  H16B 8571   3.630   6.571   6.969 -2.5261 -0.3746  0.2256
   83CHL1   C17 8572   3.756   6.739   6.969 -0.0431 -0.5083  0.6463
   83CHL1   H17 8573   3.827   6.655   6.957  1.1977  0.4791  0.8696
   83CHL1   C13 8574   3.765   6.822   6.841  0.6785 -0.6983  0.3875
   83CHL1   C18 8575   3.700   6.966   6.865 -0.9378 -0.5248 -0.2139
   83CHL1  H18A 8576   3.604   6.972   6.920 -0.6559 -1.5346  0.4105
   83CHL1  H18B 8577   3.776   7.029   6.916 -0.9812 -0.9793  0.4153
   83CHL1  H18C 8578   3.670   7.014   6.770  2.1479 -0.1566 -1.1237
   83CHL1   C12 8579   3.905   6.837   6.776 -0.3197 -0.5380  0.0468
   83CHL1  H12A 8580   3.983   6.887   6.838  0.1442 -0.2497 -0.7485
   83CHL1  H12B 8581   3.956   6.738   6.770 -0.6393 -0.6681 -0.6147
   83CHL1   C11 8582   3.896   6.902   6.637 -0.0844  0.8683  0.1903
   83CHL1  H11A 8583   3.857   7.004   6.654 -0.4550  0.4729  1.8420
   83CHL1  H11B 8584   4.000   6.910   6.599  0.1978  2.7535  1.2480
   83CHL1    C9 8585   3.800   6.822   6.537  0.1524 -1.1345 -0.2693
   83CHL1    H9 8586   3.847   6.722   6.523 -0.4020 -1.5534  0.7713
   83CHL1   C10 8587   3.787   6.892   6.398 -0.2876  0.0280 -0.6432
   83CHL1   C19 8588   3.741   7.045   6.418 -0.1085 -0.1525 -0.5099
   83CHL1  H19A 8589   3.658   7.045   6.491 -1.9556 -0.2417 -2.5006
   83CHL1  H19B 8590   3.824   7.107   6.458  0.6467 -1.3538 -0.1781
   83CHL1  H19C 8591   3.713   7.092   6.321  1.1348 -0.3911 -1.0043
   83CHL1    C1 8592   3.928   6.885   6.335 -0.4699 -0.3711 -0.6495
   83CHL1   H1A 8593   3.985   6.970   6.377 -2.5506  0.6565  0.2625
   83CHL1   H1B 8594   3.983   6.793   6.364 -0.8849  0.3148  2.7281
   83CHL1    C2 8595   3.927   6.904   6.181  0.3038 -0.5900  1.1242
   83CHL1   H2A 8596   4.031   6.898   6.142  0.4932  2.6056  0.9106
   83CHL1   H2B 8597   3.899   7.010   6.164 -0.0669 -0.8843 -0.2291
   83CHL1   C20 8598   3.786   6.812   7.100 -0.2173 -0.2230 -0.7642
   83CHL1   H20 8599   3.748   6.916   7.102  1.7981  0.5564 -0.3892
   83CHL1   C21 8600   3.935   6.841   7.094 -0.7147  0.5523 -0.1225
   83CHL1  H21A 8601   3.992   6.756   7.048 -0.2428  0.3489  0.8113
   83CHL1  H21B 8602   3.989   6.854   7.190 -1.5323 -2.0272  0.7664
   83CHL1  H21C 8603   3.968   6.929   7.035  3.0022 -0.3759  0.3106
   83CHL1   C22 8604   3.739   6.728   7.227  0.1891  0.2873 -0.1870
   83CHL1  H22A 8605   3.628   6.720   7.239  0.3752 -2.4892  0.5343
   83CHL1  H22B 8606   3.785   6.627   7.228 -2.9519 -1.3574 -3.1563
   83CHL1   C23 8607   3.786   6.784   7.364 -0.5218 -0.2714 -0.0315
   83CHL1  H23A 8608   3.895   6.763   7.362 -0.4607 -0.0594 -2.7472
   83CHL1  H23B 8609   3.769   6.894   7.368 -0.7925 -0.3422  1.4109
   83CHL1   C24 8610   3.715   6.720   7.488  0.8972  1.7129 -0.1023
   83CHL1  H24A 8611   3.605   6.716   7.475  0.6472 -1.1533  1.9006
   83CHL1  H24B 8612   3.738   6.611   7.488  0.7223  1.6759 -0.5178
   83CHL1   C25 8613   3.755   6.770   7.633 -0.2184 -0.0434 -0.0437
   83CHL1   H25 8614   3.757   6.880   7.622  0.9913 -0.0836 -0.4955
   83CHL1   C26 8615   3.658   6.722   7.746 -0.2744 -0.7582  1.1896
   83CHL1  H26A 8616   3.665   6.611   7.752 -0.2686 -1.0267 -2.0352
   83CHL1  H26B 8617   3.685   6.771   7.842 -0.5662  0.1687  0.8049
   83CHL1  H26C 8618   3.551   6.734   7.720  0.5752  1.5666 -1.6972
   83CHL1   C27 8619   3.893   6.720   7.671 -0.6084 -0.1908 -0.3614
   83CHL1  H27A 8620   3.899   6.610   7.690 -0.8925 -0.3255 -1.0301
   83CHL1  H27B 8621   3.964   6.744   7.589  0.0990  2.5927  0.9305
   83CHL1  H27C 8622   3.924   6.775   7.763 -1.5967 -0.0557 -0.0998
   84CHL1    C3 8623   6.196   1.899   5.954  0.7463  0.2765 -0.1337
   84CHL1    H3 8624   6.105   1.836   5.968  1.9014 -1.9325 -1.9824
   84CHL1    O3 8625   6.224   1.907   5.817 -0.4230 -0.0749  0.9320
   84CHL1   H3' 8626   6.299   1.964   5.801 -0.8948 -0.0410 -1.7138
   84CHL1    C4 8627   6.179   2.046   6.000  0.4283  0.1610  0.6061
   84CHL1   H4A 8628   6.263   2.112   5.972 -0.4416  0.1465 -2.3161
   84CHL1   H4B 8629   6.095   2.090   5.943  0.5991 -0.9573 -0.5389
   84CHL1    C5 8630   6.149   2.052   6.148  0.1033  0.1793  0.0069
   84CHL1    C6 8631   6.039   2.111   6.187 -0.3477  0.9148 -0.5651
   84CHL1    H6 8632   5.975   2.170   6.120  0.6258  0.4684 -1.9593
   84CHL1    C7 8633   6.003   2.120   6.337  0.6967 -0.8962  0.1256
   84CHL1   H7A 8634   5.977   2.226   6.358  1.0105 -0.8075  0.0825
   84CHL1   H7B 8635   5.908   2.065   6.355  0.6259 -1.0443 -0.6514
   84CHL1    C8 8636   6.113   2.087   6.431  0.3615  0.4492 -0.6126
   84CHL1    H8 8637   6.190   2.167   6.436  0.7792  0.0489  3.6661
   84CHL1   C14 8638   6.058   2.057   6.570  0.1937  0.1944 -0.0388
   84CHL1   H14 8639   5.989   1.973   6.549  0.4353 -0.0660  0.1984
   84CHL1   C15 8640   5.971   2.166   6.638  0.2863  0.5040  0.0599
   84CHL1  H15A 8641   6.027   2.261   6.627  1.8300 -0.3618  0.1251
   84CHL1  H15B 8642   5.864   2.166   6.605 -0.2456  1.9681  1.6309
   84CHL1   C16 8643   5.969   2.129   6.789  0.2722  0.0381  0.1082
   84CHL1  H16A 8644   5.996   2.224   6.840 -0.3472 -1.8238  4.3611
   84CHL1  H16B 8645   5.872   2.087   6.822 -0.2667  0.2000 -1.1921
   84CHL1   C17 8646   6.088   2.026   6.802  0.0651 -0.2890 -1.0562
   84CHL1   H17 8647   6.044   1.923   6.797  1.5710 -0.9410 -1.3983
   84CHL1   C13 8648   6.169   2.031   6.672 -0.1419 -0.1008  0.4351
   84CHL1   C18 8649   6.271   2.141   6.677  0.4452 -0.6158  0.3926
   84CHL1  H18A 8650   6.323   2.157   6.581  1.1889  2.3916  1.1813
   84CHL1  H18B 8651   6.241   2.244   6.708  2.3767  0.0122  0.3454
   84CHL1  H18C 8652   6.351   2.103   6.745  0.1380  0.5387  1.4472
   84CHL1   C12 8653   6.237   1.897   6.633  0.0006 -0.4826  0.3749
   84CHL1  H12A 8654   6.326   1.884   6.699  1.2962  4.0776 -0.1029
   84CHL1  H12B 8655   6.163   1.814   6.639 -1.4537  0.5273 -2.0438
   84CHL1   C11 8656   6.289   1.894   6.488 -0.5281  0.2999  0.3080
   84CHL1  H11A 8657   6.380   1.957   6.500 -0.8850  0.5668  1.8151
   84CHL1  H11B 8658   6.321   1.794   6.453  0.0685  1.4024 -2.5367
   84CHL1    C9 8659   6.192   1.963   6.385  0.2854  0.4940  0.7044
   84CHL1    H9 8660   6.118   1.880   6.381  0.3352  0.4723  0.1353
   84CHL1   C10 8661   6.243   1.973   6.239  0.1233  0.9714 -0.5327
   84CHL1   C19 8662   6.374   2.061   6.234  0.2177  0.6264 -0.4386
   84CHL1  H19A 8663   6.351   2.164   6.202 -3.3544  0.6025  1.5742
   84CHL1  H19B 8664   6.424   2.071   6.334  0.5612 -1.5359 -0.3307
   84CHL1  H19C 8665   6.454   2.016   6.170  0.9180 -0.7334  1.2826
   84CHL1    C1 8666   6.270   1.831   6.185 -0.7092  0.7041  0.2509
   84CHL1   H1A 8667   6.354   1.784   6.241 -1.3805  0.2554  0.9003
   84CHL1   H1B 8668   6.180   1.769   6.206 -0.4832 -0.0490 -0.9327
   84CHL1    C2 8669   6.306   1.828   6.029 -0.0199  0.4453 -0.0027
   84CHL1   H2A 8670   6.310   1.721   5.998  2.6632  0.5665 -0.3009
   84CHL1   H2B 8671   6.410   1.868   6.025 -0.1036  0.8754  1.5383
   84CHL1   C20 8672   6.147   2.026   6.944  0.5503 -0.6211 -0.8838
   84CHL1   H20 8673   6.194   2.124   6.967  0.8451 -0.8470 -0.4962
   84CHL1   C21 8674   6.260   1.920   6.960 -0.0724 -0.4724 -0.0688
   84CHL1  H21A 8675   6.224   1.822   6.922 -1.8470 -0.3507  1.2061
   84CHL1  H21B 8676   6.294   1.900   7.063 -0.3819  0.2535  0.1751
   84CHL1  H21C 8677   6.341   1.954   6.892  1.1651 -1.2900  0.9543
   84CHL1   C22 8678   6.034   1.993   7.046  0.3209  0.1546  0.2792
   84CHL1  H22A 8679   5.933   2.037   7.030 -0.2274 -1.0884  0.1800
   84CHL1  H22B 8680   6.013   1.884   7.044  1.1550 -0.0103 -1.4686
   84CHL1   C23 8681   6.080   2.034   7.189  0.0695 -0.3820  0.6688
   84CHL1  H23A 8682   6.177   1.991   7.220  0.1299 -0.8252 -0.1079
   84CHL1  H23B 8683   6.086   2.145   7.195 -1.3083 -0.3156  1.2939
   84CHL1   C24 8684   5.983   1.986   7.305  0.4609 -0.2662 -0.2940
   84CHL1  H24A 8685   5.986   1.876   7.320 -0.2681 -0.4593 -1.4091
   84CHL1  H24B 8686   6.024   2.032   7.397 -1.3379 -0.8524  0.8403
   84CHL1   C25 8687   5.839   2.041   7.289  0.5416 -0.3393  0.3294
   84CHL1   H25 8688   5.799   2.005   7.192 -0.2292  1.1047  0.0741
   84CHL1   C26 8689   5.744   2.010   7.404 -0.2797  1.0371 -0.5386
   84CHL1  H26A 8690   5.644   2.058   7.397 -0.7383  0.7357  2.6899
   84CHL1  H26B 8691   5.743   1.899   7.413  0.4434  1.1194  0.8375
   84CHL1  H26C 8692   5.783   2.058   7.496 -2.1647  0.8888  0.3692
   84CHL1   C27 8693   5.820   2.194   7.285  0.6401 -0.3575  0.2627
   84CHL1  H27A 8694   5.867   2.223   7.189 -0.7294  1.7302  0.1571
   84CHL1  H27B 8695   5.714   2.228   7.276  0.5331 -0.7747 -0.0887
   84CHL1  H27C 8696   5.866   2.250   7.369  2.0564 -0.4237 -0.4505
   85CHL1    C3 8697   5.126   5.782   5.719 -0.4246  0.1312  0.0726
   85CHL1    H3 8698   5.222   5.740   5.756 -0.6506 -0.0415  0.4613
   85CHL1    O3 8699   5.119   5.752   5.578 -0.0577 -0.3300  0.4189
   85CHL1   H3' 8700   5.197   5.697   5.571 -0.2156 -0.6305  0.9481
   85CHL1    C4 8701   5.015   5.724   5.806  0.4323 -0.0038  0.4353
   85CHL1   H4A 8702   4.920   5.764   5.765  1.2973  1.7522  0.0532
   85CHL1   H4B 8703   5.012   5.613   5.796  1.8434  0.1175 -2.5497
   85CHL1    C5 8704   5.024   5.772   5.949  0.1713  0.0172  0.6840
   85CHL1    C6 8705   5.019   5.687   6.046  0.3187  0.9581 -0.0170
   85CHL1    H6 8706   5.001   5.582   6.021 -0.4106  0.8828  0.8036
   85CHL1    C7 8707   5.025   5.726   6.195 -0.1806  0.1797  0.8097
   85CHL1   H7A 8708   4.945   5.681   6.257 -0.3648  0.0164  0.4549
   85CHL1   H7B 8709   5.126   5.692   6.226  0.0164  1.7383  2.0247
   85CHL1    C8 8710   5.009   5.878   6.216  0.3686  0.2623 -0.4131
   85CHL1    H8 8711   4.901   5.896   6.198  0.5880  0.3181 -1.7680
   85CHL1   C14 8712   5.052   5.917   6.359 -0.3561  0.3054  0.4887
   85CHL1   H14 8713   5.159   5.888   6.360 -0.5529 -0.4528  0.2953
   85CHL1   C15 8714   4.991   5.850   6.478  0.7778  0.1031  0.2855
   85CHL1  H15A 8715   4.881   5.840   6.467  0.4962  1.0489  1.9319
   85CHL1  H15B 8716   5.039   5.751   6.496 -1.6498 -1.3461 -0.6737
   85CHL1   C16 8717   5.026   5.943   6.596 -0.1894  0.0894  0.3161
   85CHL1  H16A 8718   4.929   5.968   6.643 -1.4895 -2.0409 -1.0476
   85CHL1  H16B 8719   5.077   5.892   6.681  1.8843  1.6665  0.1054
   85CHL1   C17 8720   5.092   6.070   6.533 -0.2646  0.2654 -0.0908
   85CHL1   H17 8721   5.201   6.049   6.546  0.0806  1.4162 -0.9016
   85CHL1   C13 8722   5.050   6.070   6.381 -0.3140 -0.3561  0.1639
   85CHL1   C18 8723   4.899   6.107   6.371  0.0462 -0.3392 -0.5415
   85CHL1  H18A 8724   4.837   6.051   6.444  0.4430 -1.2669 -0.9116
   85CHL1  H18B 8725   4.892   6.217   6.386  0.1354 -0.6634  2.5140
   85CHL1  H18C 8726   4.855   6.088   6.271  1.3807 -0.5870 -1.0996
   85CHL1   C12 8727   5.134   6.149   6.274 -0.9027 -0.3065 -1.3451
   85CHL1  H12A 8728   5.118   6.258   6.288 -0.2093 -0.4038  0.4945
   85CHL1  H12B 8729   5.239   6.116   6.285 -0.5852  1.0708  0.1138
   85CHL1   C11 8730   5.088   6.110   6.135  0.2694  0.2774 -0.5341
   85CHL1  H11A 8731   4.988   6.157   6.127 -0.4605 -1.2298 -0.4144
   85CHL1  H11B 8732   5.145   6.167   6.058  1.2371  0.4004  0.2451
   85CHL1    C9 8733   5.083   5.956   6.107 -0.4432 -0.0917 -0.1831
   85CHL1    H9 8734   5.190   5.926   6.115  0.3910  2.7773  0.2812
   85CHL1   C10 8735   5.038   5.926   5.966  0.0866  0.0974  0.5384
   85CHL1   C19 8736   4.899   5.990   5.935  0.4478 -0.5234 -0.0356
   85CHL1  H19A 8737   4.888   6.101   5.941  0.3698 -0.4216 -1.6556
   85CHL1  H19B 8738   4.875   5.953   5.833  0.1825  2.2404 -1.0761
   85CHL1  H19C 8739   4.824   5.940   6.000  0.3846  1.1337  1.2180
   85CHL1    C1 8740   5.147   5.981   5.867  0.3032  0.0621 -0.0499
   85CHL1   H1A 8741   5.159   6.091   5.856  0.8633  0.0170  0.0573
   85CHL1   H1B 8742   5.244   5.946   5.910  0.6805  0.8894 -0.2050
   85CHL1    C2 8743   5.138   5.935   5.726  0.8169 -0.8099 -0.1564
   85CHL1   H2A 8744   5.218   5.977   5.662 -0.1851  0.9976 -0.2857
   85CHL1   H2B 8745   5.046   5.970   5.675  0.9211 -1.3479 -0.7251
   85CHL1   C20 8746   5.072   6.202   6.609 -0.2198 -0.2550 -0.1048
   85CHL1   H20 8747   4.970   6.239   6.585  0.1725 -0.3653 -2.0839
   85CHL1   C21 8748   5.174   6.306   6.566  0.8777  0.5788  0.3700
   85CHL1  H21A 8749   5.277   6.267   6.584  1.1361  0.6711 -0.8845
   85CHL1  H21B 8750   5.166   6.401   6.624  2.0350 -0.9629  3.2663
   85CHL1  H21C 8751   5.174   6.339   6.460  1.6208  0.7204  0.4058
   85CHL1   C22 8752   5.080   6.189   6.760  0.2880 -0.4051  0.0667
   85CHL1  H22A 8753   5.040   6.276   6.816 -2.4700 -2.3912  1.4451
   85CHL1  H22B 8754   5.009   6.108   6.788 -0.8617  0.1260 -1.1501
   85CHL1   C23 8755   5.210   6.142   6.826  0.0251 -0.2721 -0.4107
   85CHL1  H23A 8756   5.264   6.064   6.768  1.6573  0.0396  0.5945
   85CHL1  H23B 8757   5.291   6.219   6.821  1.1515 -1.2739  1.2576
   85CHL1   C24 8758   5.188   6.072   6.959 -0.2976 -0.6988  0.7580
   85CHL1  H24A 8759   5.134   5.978   6.939 -2.2298  0.4605  0.2879
   85CHL1  H24B 8760   5.281   6.035   7.007  0.3190  1.6818  1.5371
   85CHL1   C25 8761   5.129   6.159   7.066 -0.3319 -0.4003 -0.4550
   85CHL1   H25 8762   5.032   6.201   7.034 -0.3409  1.0994  1.3924
   85CHL1   C26 8763   5.118   6.087   7.203  0.5314 -0.7706 -0.7273
   85CHL1  H26A 8764   5.045   6.140   7.268  2.7255  1.3988  0.1368
   85CHL1  H26B 8765   5.084   5.982   7.195 -2.4069  0.0025  0.4980
   85CHL1  H26C 8766   5.217   6.083   7.254  1.1344 -0.7394 -1.8501
   85CHL1   C27 8767   5.214   6.284   7.091 -0.6375  0.9919  0.1245
   85CHL1  H27A 8768   5.317   6.251   7.115 -0.4507  1.9704  0.7263
   85CHL1  H27B 8769   5.207   6.349   7.002 -1.9722  0.9956  0.2058
   85CHL1  H27C 8770   5.184   6.345   7.179 -0.0941  1.0544  0.2667
   86CHL1    C3 8771   0.077   4.113   6.185 -0.7549  0.1500 -0.1970
   86CHL1    H3 8772   0.064   4.221   6.162  0.5536  0.1378 -1.0933
   86CHL1    O3 8773   0.107   4.046   6.062  0.5700 -0.2709 -0.2627
   86CHL1   H3' 8774   0.085   3.954   6.078 -0.5235 -0.3447 -1.9157
   86CHL1    C4 8775   0.195   4.090   6.285 -0.2038  0.1801  0.1263
   86CHL1   H4A 8776   0.206   3.979   6.295  0.2857  0.3178  1.2568
   86CHL1   H4B 8777   0.290   4.124   6.238  0.4200 -2.6307 -0.8751
   86CHL1    C5 8778   0.189   4.155   6.422  0.6553 -0.7768  0.0582
   86CHL1    C6 8779   0.281   4.232   6.477 -0.3778 -0.2388 -0.1836
   86CHL1    H6 8780   0.378   4.249   6.427  0.6132  1.8224  2.2303
   86CHL1    C7 8781   0.271   4.297   6.612 -0.9606 -0.4635  0.6656
   86CHL1   H7A 8782   0.367   4.297   6.670 -0.3146 -1.4541 -0.3588
   86CHL1   H7B 8783   0.256   4.405   6.596 -1.5993 -0.5180  0.8704
   86CHL1    C8 8784   0.152   4.248   6.697 -0.1963  0.2455 -0.1229
   86CHL1    H8 8785   0.181   4.150   6.740  0.5389  0.6155  0.2264
   86CHL1   C14 8786   0.122   4.349   6.804 -0.0625 -0.4074 -0.3450
   86CHL1   H14 8787   0.108   4.444   6.747  3.1123 -0.3968 -1.3565
   86CHL1   C15 8788   0.240   4.382   6.899 -0.5898 -0.1620 -0.5558
   86CHL1  H15A 8789   0.303   4.295   6.924 -0.2392 -0.3606 -2.0386
   86CHL1  H15B 8790   0.305   4.455   6.847  0.4233 -0.3271  0.4565
   86CHL1   C16 8791   0.171   4.445   7.022  0.4170 -0.0907  0.6542
   86CHL1  H16A 8792   0.206   4.390   7.112 -0.3139 -1.0581  0.3493
   86CHL1  H16B 8793   0.212   4.548   7.038 -0.0029  0.1135  0.4315
   86CHL1   C17 8794   0.016   4.440   7.003 -0.6874  0.0063  0.6457
   86CHL1   H17 8795  -0.016   4.529   6.946 -3.3361 -1.4567 -0.3548
   86CHL1   C13 8796  -0.001   4.329   6.896 -0.1005  1.0635  0.6168
   86CHL1   C18 8797   0.016   4.197   6.962  0.4545 -0.2877 -0.5469
   86CHL1  H18A 8798  -0.070   4.180   7.030  0.8053  0.3814  0.0690
   86CHL1  H18B 8799   0.017   4.108   6.895 -1.5382 -0.6629 -0.1522
   86CHL1  H18C 8800   0.108   4.194   7.024 -1.0572  2.6312  2.1323
   86CHL1   C12 8801  -0.123   4.328   6.803  0.0692 -0.6244  0.0238
   86CHL1  H12A 8802  -0.214   4.292   6.857  1.3489  0.1422  2.8659
   86CHL1  H12B 8803  -0.131   4.434   6.772 -0.0683 -1.1585 -1.8974
   86CHL1   C11 8804  -0.112   4.232   6.687  0.4504  0.1829 -0.3911
   86CHL1  H11A 8805  -0.140   4.127   6.711 -1.6497  0.8123  0.1560
   86CHL1  H11B 8806  -0.190   4.252   6.610 -0.3981 -0.7666  0.1847
   86CHL1    C9 8807   0.028   4.244   6.607 -0.1371 -0.9731 -0.8415
   86CHL1    H9 8808   0.029   4.336   6.545  1.0970 -0.1941  0.2948
   86CHL1   C10 8809   0.052   4.137   6.501  0.3654  0.0634  0.2173
   86CHL1   C19 8810   0.050   3.991   6.565 -0.6814  0.3790  0.4898
   86CHL1  H19A 8811  -0.054   3.958   6.586 -0.6054 -1.0110 -1.1287
   86CHL1  H19B 8812   0.092   3.917   6.494  2.9605  2.3704  0.3160
   86CHL1  H19C 8813   0.102   3.993   6.663 -1.5615  1.9411  0.9709
   86CHL1    C1 8814  -0.065   4.145   6.395 -0.1594 -0.1366 -0.4126
   86CHL1   H1A 8815  -0.157   4.108   6.444  2.8990 -2.7312  4.0331
   86CHL1   H1B 8816  -0.076   4.249   6.355  1.2228 -0.4698 -1.7689
   86CHL1    C2 8817  -0.045   4.064   6.266  0.0963  0.6216 -0.5987
   86CHL1   H2A 8818  -0.142   4.060   6.212 -0.7705  0.4527  0.9142
   86CHL1   H2B 8819  -0.018   3.964   6.306  1.7933  0.9084 -0.9677
   86CHL1   C20 8820  -0.060   4.440   7.132 -0.1963  0.0412 -0.5260
   86CHL1   H20 8821  -0.042   4.342   7.182 -0.6483 -1.1922 -2.6821
   86CHL1   C21 8822  -0.217   4.444   7.112  0.2252  0.0461  0.2337
   86CHL1  H21A 8823  -0.237   4.342   7.075  1.6697  0.0869 -0.7479
   86CHL1  H21B 8824  -0.244   4.521   7.036 -1.5574  0.0196  0.7894
   86CHL1  H21C 8825  -0.274   4.450   7.207 -0.0172 -0.8880  0.1592
   86CHL1   C22 8826  -0.025   4.547   7.242  0.2463  0.8492 -0.4085
   86CHL1  H22A 8827   0.027   4.637   7.201 -0.2127  1.6534  0.7125
   86CHL1  H22B 8828  -0.116   4.580   7.298 -0.0263  0.3640 -0.5580
   86CHL1   C23 8829   0.078   4.489   7.345 -0.3759 -0.2399  0.6178
   86CHL1  H23A 8830   0.034   4.398   7.390 -2.6318  1.0675  1.1887
   86CHL1  H23B 8831   0.182   4.481   7.305 -0.4935 -1.0324  0.4680
   86CHL1   C24 8832   0.098   4.581   7.467 -0.2633 -0.7814  0.7676
   86CHL1  H24A 8833   0.153   4.669   7.429  1.2051 -1.0177  2.2361
   86CHL1  H24B 8834   0.000   4.612   7.512 -0.4933 -1.6333  0.8768
   86CHL1   C25 8835   0.165   4.515   7.597 -0.7489 -0.5463  0.0258
   86CHL1   H25 8836   0.255   4.454   7.570 -0.4342 -1.5210  2.8848
   86CHL1   C26 8837   0.209   4.618   7.698  0.1235 -0.4577  0.5644
   86CHL1  H26A 8838   0.268   4.696   7.645  1.1398 -1.5123  0.0943
   86CHL1  H26B 8839   0.119   4.665   7.742 -1.0903 -1.9734 -0.2249
   86CHL1  H26C 8840   0.259   4.563   7.781 -1.5836 -2.6383  0.2296
   86CHL1   C27 8841   0.072   4.416   7.665  0.1884  0.1447  0.0333
   86CHL1  H27A 8842   0.105   4.392   7.768 -0.5384 -0.1101  0.2167
   86CHL1  H27B 8843  -0.028   4.462   7.683  1.1540  2.4198 -0.0887
   86CHL1  H27C 8844   0.061   4.325   7.603  2.3659  0.5153 -0.9747
   87CHL1    C3 8845   1.050   2.020   6.167 -0.2352  0.8972 -0.9182
   87CHL1    H3 8846   0.943   1.993   6.152 -1.0073  3.2082  0.0219
   87CHL1    O3 8847   1.096   2.031   6.038 -0.0439  0.2193  0.7192
   87CHL1   H3' 8848   1.190   2.043   6.048  0.1615 -0.4582 -0.2340
   87CHL1    C4 8849   1.067   2.161   6.227  0.0902  0.5719 -0.5759
   87CHL1   H4A 8850   1.170   2.196   6.205  0.2909  0.3416 -0.0179
   87CHL1   H4B 8851   1.011   2.235   6.165 -1.6027 -0.7210 -0.6578
   87CHL1    C5 8852   1.045   2.170   6.380  0.4327 -0.4572  0.3418
   87CHL1    C6 8853   0.960   2.263   6.427 -0.4209 -0.3771 -0.9505
   87CHL1    H6 8854   0.919   2.340   6.361 -0.2660  0.1799 -0.4055
   87CHL1    C7 8855   0.923   2.284   6.567  0.8824 -0.6761 -0.1663
   87CHL1   H7A 8856   0.915   2.391   6.595 -0.2209 -1.3484  2.2826
   87CHL1   H7B 8857   0.828   2.229   6.554  1.2214 -1.1193 -0.8790
   87CHL1    C8 8858   1.017   2.208   6.666 -0.1964  0.5868  0.4696
   87CHL1    H8 8859   1.118   2.254   6.676  0.6171 -0.6971 -1.2023
   87CHL1   C14 8860   0.935   2.192   6.789 -0.3354  0.2598 -0.1222
   87CHL1   H14 8861   0.848   2.126   6.769  1.4550 -2.0157 -0.9169
   87CHL1   C15 8862   0.868   2.313   6.861 -0.0552  0.2173  0.0347
   87CHL1  H15A 8863   0.932   2.403   6.851  1.8296 -0.7541  2.3368
   87CHL1  H15B 8864   0.773   2.325   6.804  0.1248  1.8100  0.0348
   87CHL1   C16 8865   0.852   2.268   7.010 -0.3242 -0.5270 -0.9070
   87CHL1  H16A 8866   0.921   2.324   7.078  1.2878 -1.7206 -1.4876
   87CHL1  H16B 8867   0.749   2.279   7.050 -0.4319  0.3358 -1.3941
   87CHL1   C17 8868   0.906   2.123   7.018 -0.2806  0.2573  0.2889
   87CHL1   H17 8869   0.825   2.050   6.994  1.2151 -1.2282 -0.3984
   87CHL1   C13 8870   1.003   2.105   6.897 -0.6567  0.0680 -0.5332
   87CHL1   C18 8871   1.139   2.172   6.938  0.3412 -0.1132 -0.2418
   87CHL1  H18A 8872   1.109   2.269   6.984 -0.8673 -1.1334  1.2211
   87CHL1  H18B 8873   1.192   2.105   7.009  0.9292 -1.5771 -1.9988
   87CHL1  H18C 8874   1.209   2.190   6.854 -2.1426 -1.9113 -2.8774
   87CHL1   C12 8875   1.018   1.965   6.848  0.1444 -0.4959 -0.2411
   87CHL1  H12A 8876   1.078   1.906   6.920  0.0668  0.1057  0.3220
   87CHL1  H12B 8877   0.919   1.916   6.834  0.0929 -1.2007  2.1743
   87CHL1   C11 8878   1.099   1.960   6.709  0.2292  0.0098  0.1933
   87CHL1  H11A 8879   1.207   1.978   6.728  0.4333 -0.3981 -0.5351
   87CHL1  H11B 8880   1.084   1.858   6.668 -0.9054 -0.0611  0.7576
   87CHL1    C9 8881   1.035   2.058   6.610 -0.1743 -0.0469 -0.2531
   87CHL1    H9 8882   0.930   2.023   6.593 -0.1101 -0.4558  0.1768
   87CHL1   C10 8883   1.097   2.054   6.465  0.0536 -0.2134 -0.2115
   87CHL1   C19 8884   1.252   2.080   6.477  0.2425  0.3746 -0.2202
   87CHL1  H19A 8885   1.301   1.997   6.533 -1.2565 -1.2394 -1.1872
   87CHL1  H19B 8886   1.293   2.083   6.373  0.7444 -0.1656 -0.0487
   87CHL1  H19C 8887   1.268   2.181   6.519 -2.0441  1.2255 -1.2429
   87CHL1    C1 8888   1.075   1.913   6.394 -0.3365  0.1150 -0.4990
   87CHL1   H1A 8889   1.138   1.838   6.445  0.7036  0.2201 -1.6015
   87CHL1   H1B 8890   0.968   1.888   6.409 -0.1231 -2.5933 -2.7751
   87CHL1    C2 8891   1.121   1.908   6.246 -0.7482  0.1503 -0.0692
   87CHL1   H2A 8892   1.101   1.809   6.200  0.1091  0.1629 -0.4967
   87CHL1   H2B 8893   1.232   1.910   6.252 -0.6191 -3.0317  0.2641
   87CHL1   C20 8894   0.954   2.094   7.157  0.8509 -0.8679 -0.5334
   87CHL1   H20 8895   1.028   2.173   7.183 -1.4205  0.7322  1.5895
   87CHL1   C21 8896   1.020   1.951   7.169  0.2161  0.1190  0.0425
   87CHL1  H21A 8897   0.954   1.867   7.139  0.8565 -0.9602  1.5483
   87CHL1  H21B 8898   1.041   1.928   7.275 -0.9080  1.0525  0.4893
   87CHL1  H21C 8899   1.113   1.942   7.109  0.3850 -0.7020  0.4172
   87CHL1   C22 8900   0.840   2.111   7.270 -0.5506  0.2136  0.4722
   87CHL1  H22A 8901   0.751   2.157   7.222  0.4511  0.6461 -1.0782
   87CHL1  H22B 8902   0.813   2.006   7.296  0.3379 -0.0354  0.4285
   87CHL1   C23 8903   0.882   2.167   7.399 -0.2648  0.3254 -0.1356
   87CHL1  H23A 8904   0.803   2.150   7.475  1.0090 -2.6340  0.6354
   87CHL1  H23B 8905   0.977   2.116   7.424 -1.5441 -2.0490  0.1063
   87CHL1   C24 8906   0.918   2.317   7.402  0.1630  0.2257  0.1484
   87CHL1  H24A 8907   1.001   2.331   7.474 -0.2832  0.0793  0.6916
   87CHL1  H24B 8908   0.959   2.356   7.306 -2.0129  1.8554 -0.2057
   87CHL1   C25 8909   0.803   2.414   7.439 -0.1768  0.1187  0.5024
   87CHL1   H25 8910   0.755   2.375   7.531  1.0216 -0.2929  0.9674
   87CHL1   C26 8911   0.857   2.552   7.478  0.3357  0.3136  0.6890
   87CHL1  H26A 8912   0.905   2.534   7.577  0.4197  0.5263  0.6871
   87CHL1  H26B 8913   0.934   2.584   7.405  1.2860 -0.0518  1.5055
   87CHL1  H26C 8914   0.779   2.631   7.485 -1.0022 -1.0747  2.3266
   87CHL1   C27 8915   0.713   2.423   7.314  0.3345 -0.3143  0.4107
   87CHL1  H27A 8916   0.674   2.325   7.279 -1.0320  0.4997 -0.4189
   87CHL1  H27B 8917   0.628   2.491   7.334  0.9128  0.2847  0.8819
   87CHL1  H27C 8918   0.775   2.466   7.232 -0.8405  0.4120 -0.1181
   88CHL1    C3 8919   5.254   0.414   6.182  0.4007 -0.3656  0.4056
   88CHL1    H3 8920   5.302   0.318   6.210 -0.6528 -0.9703  0.1816
   88CHL1    O3 8921   5.277   0.447   6.043 -0.3315 -0.6954 -0.3576
   88CHL1   H3' 8922   5.226   0.526   6.023 -0.6146 -0.5176  0.9812
   88CHL1    C4 8923   5.103   0.397   6.203 -0.1710 -0.0823 -0.0674
   88CHL1   H4A 8924   5.034   0.484   6.194 -0.3991 -0.4091 -2.0710
   88CHL1   H4B 8925   5.069   0.326   6.125 -0.4957  0.4778 -0.4446
   88CHL1    C5 8926   5.076   0.360   6.347  0.0156 -1.0554 -0.1159
   88CHL1    C6 8927   5.015   0.250   6.385 -0.4844 -0.5301 -0.0412
   88CHL1    H6 8928   4.972   0.187   6.306 -2.1978 -0.8164  1.0779
   88CHL1    C7 8929   4.995   0.211   6.528  0.4022 -0.1659 -0.2901
   88CHL1   H7A 8930   4.893   0.167   6.536 -0.2308  1.3130  0.1379
   88CHL1   H7B 8931   5.062   0.129   6.561  1.0251  0.3479 -0.2622
   88CHL1    C8 8932   5.014   0.327   6.630  0.0438 -0.3689 -0.0409
   88CHL1    H8 8933   4.930   0.399   6.618  0.2127 -0.1207  0.2569
   88CHL1   C14 8934   5.014   0.286   6.781  0.7239  0.4806 -1.1495
   88CHL1   H14 8935   5.091   0.209   6.799  0.5037  0.1839 -1.4628
   88CHL1   C15 8936   4.893   0.212   6.839 -0.3575 -0.3656  0.3308
   88CHL1  H15A 8937   4.808   0.281   6.820  1.6682  2.6347  1.3024
   88CHL1  H15B 8938   4.872   0.114   6.791 -0.3973 -1.7178  2.9239
   88CHL1   C16 8939   4.913   0.217   6.986  0.4928 -0.3544  0.3428
   88CHL1  H16A 8940   4.818   0.254   7.031  0.2884  0.1970 -0.5353
   88CHL1  H16B 8941   4.943   0.124   7.039  1.6449 -0.5912 -0.6859
   88CHL1   C17 8942   5.026   0.321   7.019  0.8151  0.0672 -1.2958
   88CHL1   H17 8943   5.122   0.270   7.041  1.0805  1.0051 -0.1809
   88CHL1   C13 8944   5.040   0.407   6.886  0.8213  0.3902  0.4685
   88CHL1   C18 8945   4.930   0.515   6.877 -0.0676 -0.9205  0.2074
   88CHL1  H18A 8946   4.825   0.483   6.893 -0.3158 -0.7186 -0.9736
   88CHL1  H18B 8947   4.955   0.597   6.948 -0.5943 -1.0807  0.5892
   88CHL1  H18C 8948   4.931   0.552   6.773  0.8318 -0.2233  0.4520
   88CHL1   C12 8949   5.178   0.460   6.853 -0.6348  0.1895 -0.5467
   88CHL1  H12A 8950   5.202   0.543   6.923 -0.5837 -2.1066  2.3843
   88CHL1  H12B 8951   5.237   0.368   6.877 -1.2173  0.2247  1.1252
   88CHL1   C11 8952   5.185   0.499   6.712  0.1099 -0.4240 -0.3981
   88CHL1  H11A 8953   5.122   0.591   6.705  0.0528 -0.2403  1.8409
   88CHL1  H11B 8954   5.293   0.523   6.702 -0.1473  1.2526  0.5630
   88CHL1    C9 8955   5.145   0.398   6.597  0.9661  0.5658 -0.2587
   88CHL1    H9 8956   5.232   0.329   6.600  0.2366 -0.4441 -1.5374
   88CHL1   C10 8957   5.140   0.460   6.453 -0.1899  0.3575 -0.2318
   88CHL1   C19 8958   5.057   0.585   6.455  0.3645 -0.8320  0.5188
   88CHL1  H19A 8959   4.951   0.586   6.485  0.6955  1.0743  1.8517
   88CHL1  H19B 8960   5.098   0.663   6.523  0.6328 -1.2532  0.8407
   88CHL1  H19C 8961   5.060   0.632   6.354  1.9399 -3.0491 -0.5516
   88CHL1    C1 8962   5.291   0.489   6.421  0.0735 -1.0320  0.2928
   88CHL1   H1A 8963   5.343   0.561   6.488  1.8713  0.4808 -2.5188
   88CHL1   H1B 8964   5.354   0.401   6.448 -0.3174 -1.2811  0.3985
   88CHL1    C2 8965   5.311   0.523   6.271 -0.2273  0.2254 -0.0928
   88CHL1   H2A 8966   5.417   0.551   6.252 -0.7923  1.3895 -1.7194
   88CHL1   H2B 8967   5.247   0.611   6.246  0.1574  0.4203 -0.4067
   88CHL1   C20 8968   4.992   0.412   7.147 -0.5119  0.3758 -0.1187
   88CHL1   H20 8969   4.900   0.474   7.137 -2.3020 -1.7231  2.0172
   88CHL1   C21 8970   5.117   0.492   7.172  0.1317  0.0860 -1.0723
   88CHL1  H21A 8971   5.207   0.430   7.155  0.9106  0.4561  1.3769
   88CHL1  H21B 8972   5.125   0.527   7.277  1.3800 -1.8125 -0.4839
   88CHL1  H21C 8973   5.129   0.582   7.107 -4.9067  1.3501 -0.6862
   88CHL1   C22 8974   4.964   0.334   7.275 -0.5397 -0.2903  0.1322
   88CHL1  H22A 8975   4.932   0.406   7.354 -1.8518  0.3189 -0.9012
   88CHL1  H22B 8976   4.869   0.278   7.259 -0.9898  0.1073  1.3148
   88CHL1   C23 8977   5.071   0.242   7.332  0.6522  0.5729 -0.3455
   88CHL1  H23A 8978   5.052   0.137   7.301  1.2952 -0.0720  1.3069
   88CHL1  H23B 8979   5.172   0.270   7.296  1.1757 -0.3849  0.3393
   88CHL1   C24 8980   5.099   0.250   7.487  0.3514  0.3650  0.5649
   88CHL1  H24A 8981   5.207   0.235   7.505 -0.0256 -1.4822  1.5351
   88CHL1  H24B 8982   5.066   0.350   7.523 -2.4753 -0.5411  0.7418
   88CHL1   C25 8983   5.031   0.133   7.559 -0.9672 -0.1792 -0.2831
   88CHL1   H25 8984   5.080   0.039   7.525 -1.1033 -0.3780  0.0690
   88CHL1   C26 8985   5.051   0.152   7.714  0.6365  0.3545  0.5877
   88CHL1  H26A 8986   5.155   0.121   7.736 -0.0332 -1.2283  1.7197
   88CHL1  H26B 8987   5.040   0.259   7.741  0.6750  0.8246 -1.1320
   88CHL1  H26C 8988   4.985   0.087   7.776  0.6091  0.1547  0.3532
   88CHL1   C27 8989   4.878   0.117   7.523 -0.6147  0.0994 -0.3305
   88CHL1  H27A 8990   4.867   0.107   7.413 -1.8133 -2.6849 -0.0311
   88CHL1  H27B 8991   4.841   0.023   7.567  1.9638  0.2390  2.4933
   88CHL1  H27C 8992   4.816   0.205   7.550 -1.6376 -0.7398  0.1004
   89CHL1    C3 8993   0.468   4.861   5.731 -0.0750  0.5353  1.1046
   89CHL1    H3 8994   0.460   4.968   5.762 -0.1729  0.9533 -0.2761
   89CHL1    O3 8995   0.528   4.860   5.606 -0.0987 -0.3353  0.1310
   89CHL1   H3' 8996   0.536   4.769   5.577 -1.1700 -0.3491 -0.1539
   89CHL1    C4 8997   0.533   4.767   5.828  0.2165  0.1088 -0.3386
   89CHL1   H4A 8998   0.511   4.661   5.802  0.6548 -0.0272 -0.1443
   89CHL1   H4B 8999   0.643   4.780   5.826  0.1545  0.6277 -1.6197
   89CHL1    C5 9000   0.463   4.782   5.964  0.1667  0.0746  0.0773
   89CHL1    C6 9001   0.533   4.815   6.071 -0.2495  0.2278 -0.4007
   89CHL1    H6 9002   0.643   4.815   6.067 -0.2513  1.2772 -0.7839
   89CHL1    C7 9003   0.468   4.826   6.212 -0.9464  0.4951  0.6812
   89CHL1   H7A 9004   0.532   4.801   6.299  0.4487 -1.3656 -0.8080
   89CHL1   H7B 9005   0.450   4.934   6.230  0.8346  1.1652 -1.1575
   89CHL1    C8 9006   0.334   4.749   6.216  0.2180 -0.0899 -0.3476
   89CHL1    H8 9007   0.350   4.639   6.219 -1.8734 -0.4293 -0.3729
   89CHL1   C14 9008   0.257   4.793   6.346  0.0456 -0.0775  0.4135
   89CHL1   H14 9009   0.241   4.903   6.342 -2.7667 -0.4348 -1.5389
   89CHL1   C15 9010   0.324   4.771   6.480 -0.3274 -0.9828  0.3166
   89CHL1  H15A 9011   0.369   4.670   6.481  0.4849 -0.6348  0.6194
   89CHL1  H15B 9012   0.405   4.842   6.508 -2.1904  0.4405  2.4233
   89CHL1   C16 9013   0.212   4.784   6.581  1.1552  0.6790  0.1178
   89CHL1  H16A 9014   0.233   4.701   6.651  0.4997  0.8429  0.5166
   89CHL1  H16B 9015   0.219   4.879   6.639 -0.8866  3.2649 -3.4843
   89CHL1   C17 9016   0.081   4.775   6.502  0.2295 -0.3812 -0.0106
   89CHL1   H17 9017   0.048   4.881   6.496  0.3528 -0.3971 -1.4821
   89CHL1   C13 9018   0.120   4.728   6.358 -0.4451  0.6198 -0.0066
   89CHL1   C18 9019   0.135   4.575   6.356  0.0476 -0.2139  0.1885
   89CHL1  H18A 9020   0.178   4.517   6.272  1.0931  0.6581  0.1057
   89CHL1  H18B 9021   0.192   4.545   6.447 -0.8560 -0.9991  0.5120
   89CHL1  H18C 9022   0.035   4.528   6.364  0.4195 -0.9469  0.7537
   89CHL1   C12 9023   0.041   4.782   6.245 -0.2613  0.5946 -0.0126
   89CHL1  H12A 9024  -0.062   4.742   6.251  0.9487 -2.6826  1.5124
   89CHL1  H12B 9025   0.029   4.892   6.252  0.5607  0.5736  2.5242
   89CHL1   C11 9026   0.096   4.728   6.115  0.1842 -0.2395 -0.0905
   89CHL1  H11A 9027   0.099   4.617   6.117 -1.1780 -0.2875 -0.1770
   89CHL1  H11B 9028   0.037   4.757   6.026  1.7603  0.0790 -1.0858
   89CHL1    C9 9029   0.241   4.788   6.103 -0.8192  0.2604  0.4708
   89CHL1    H9 9030   0.227   4.897   6.120  0.2720  0.2606  1.4914
   89CHL1   C10 9031   0.309   4.762   5.964  0.8904  0.4977  0.4143
   89CHL1   C19 9032   0.282   4.608   5.939  0.0417 -0.1353 -0.1575
   89CHL1  H19A 9033   0.321   4.543   6.020 -2.9622 -1.1108  0.6424
   89CHL1  H19B 9034   0.173   4.590   5.927 -0.3209  1.5587  0.3164
   89CHL1  H19C 9035   0.330   4.579   5.843 -0.7604 -1.3734 -0.2077
   89CHL1    C1 9036   0.235   4.846   5.861  0.0056  0.0509 -0.4647
   89CHL1   H1A 9037   0.129   4.816   5.844  0.3713 -0.8318 -1.2814
   89CHL1   H1B 9038   0.238   4.955   5.882  0.4033  0.1571 -1.0613
   89CHL1    C2 9039   0.315   4.828   5.724  0.5863 -0.1223 -0.6462
   89CHL1   H2A 9040   0.277   4.887   5.638  0.6063  0.3546 -0.3295
   89CHL1   H2B 9041   0.308   4.722   5.690  1.6928 -0.3765 -0.1070
   89CHL1   C20 9042  -0.029   4.693   6.571 -0.0864  0.0825 -0.4135
   89CHL1   H20 9043   0.006   4.588   6.572 -1.3730 -0.3678  0.5099
   89CHL1   C21 9044  -0.164   4.692   6.494  0.1993 -0.4424 -0.0486
   89CHL1  H21A 9045  -0.152   4.641   6.396 -0.1620 -1.7422  0.5643
   89CHL1  H21B 9046  -0.199   4.795   6.469  0.8405 -0.4422 -1.0068
   89CHL1  H21C 9047  -0.247   4.641   6.548 -0.9994  0.6864 -0.7468
   89CHL1   C22 9048  -0.045   4.726   6.727 -0.7090 -0.3193 -0.7196
   89CHL1  H22A 9049  -0.128   4.661   6.764  1.7521 -2.3349  1.6005
   89CHL1  H22B 9050   0.048   4.686   6.771 -0.9551 -0.6587 -0.4977
   89CHL1   C23 9051  -0.071   4.873   6.759 -0.0071 -1.0876  0.2578
   89CHL1  H23A 9052   0.012   4.933   6.717 -2.1181 -0.0804 -2.8619
   89CHL1  H23B 9053  -0.171   4.899   6.717 -0.8104  0.1616  2.7441
   89CHL1   C24 9054  -0.077   4.906   6.906  0.0781  0.3390  0.2957
   89CHL1  H24A 9055   0.020   4.879   6.953 -0.6922 -0.9854  1.1767
   89CHL1  H24B 9056  -0.091   5.012   6.935  2.3179  0.0042  3.0674
   89CHL1   C25 9057  -0.182   4.830   7.000 -0.4495  0.1063 -0.4983
   89CHL1   H25 9058  -0.159   4.722   6.987 -0.8639  0.2750 -3.5522
   89CHL1   C26 9059  -0.179   4.876   7.140 -0.2384 -0.5708 -0.6310
   89CHL1  H26A 9060  -0.263   4.840   7.204  0.8540 -1.2663  0.4535
   89CHL1  H26B 9061  -0.087   4.839   7.191 -1.2640 -0.4175  1.4320
   89CHL1  H26C 9062  -0.185   4.986   7.151  0.1357 -0.6678  0.7729
   89CHL1   C27 9063  -0.320   4.857   6.939 -0.1636  0.0664 -0.2547
   89CHL1  H27A 9064  -0.336   4.795   6.848 -0.8155  0.4311 -0.3991
   89CHL1  H27B 9065  -0.404   4.821   7.002  0.1887 -1.7283 -0.7458
   89CHL1  H27C 9066  -0.321   4.965   6.912  0.9942  0.2782  0.5134
   90CHL1    C3 9067   0.677   5.251   5.712 -0.1104  0.5277  0.0649
   90CHL1    H3 9068   0.627   5.153   5.694  2.9404 -0.9380 -1.0404
   90CHL1    O3 9069   0.746   5.289   5.596  0.3103 -0.1039  0.5366
   90CHL1   H3' 9070   0.753   5.385   5.599  0.9389 -0.1386  3.0915
   90CHL1    C4 9071   0.578   5.363   5.761  0.8087 -0.2580  0.8189
   90CHL1   H4A 9072   0.639   5.455   5.749  0.1332 -0.0220 -1.1737
   90CHL1   H4B 9073   0.495   5.377   5.687  0.2029 -2.7139  0.9653
   90CHL1    C5 9074   0.521   5.324   5.893 -0.3448  0.1564 -0.4946
   90CHL1    C6 9075   0.387   5.304   5.912  0.0840 -0.9030  0.0358
   90CHL1    H6 9076   0.317   5.315   5.829  1.7509 -0.4680 -1.3693
   90CHL1    C7 9077   0.330   5.278   6.047  0.3920 -0.4659 -0.3461
   90CHL1   H7A 9078   0.241   5.340   6.072 -0.2184 -0.9838 -1.1438
   90CHL1   H7B 9079   0.307   5.170   6.056  1.5284 -1.1339 -3.8967
   90CHL1    C8 9080   0.428   5.309   6.162 -0.6669  0.3441  1.0875
   90CHL1    H8 9081   0.436   5.419   6.170  3.2162  0.1362  1.9473
   90CHL1   C14 9082   0.366   5.242   6.289  0.8127  0.3164 -0.0699
   90CHL1   H14 9083   0.356   5.133   6.266 -1.9186  0.4270  0.2485
   90CHL1   C15 9084   0.223   5.281   6.347  0.5725 -0.2262  0.3800
   90CHL1  H15A 9085   0.221   5.392   6.340 -1.5715 -0.3295 -2.2194
   90CHL1  H15B 9086   0.148   5.242   6.275  1.2138  1.9043 -1.5718
   90CHL1   C16 9087   0.219   5.234   6.494  0.3613  0.8043 -0.0772
   90CHL1  H16A 9088   0.191   5.314   6.566  3.2550  0.0231  2.0754
   90CHL1  H16B 9089   0.148   5.154   6.524  0.3419  1.8485  2.9390
   90CHL1   C17 9090   0.363   5.183   6.517  0.4397  0.5844 -0.6894
   90CHL1   H17 9091   0.373   5.074   6.499 -2.5543  0.0898  0.0512
   90CHL1   C13 9092   0.455   5.248   6.410 -0.5580  0.5111 -0.4339
   90CHL1   C18 9093   0.478   5.404   6.446  0.2272  1.2374  0.0617
   90CHL1  H18A 9094   0.381   5.445   6.480 -1.6802 -2.6484 -0.1557
   90CHL1  H18B 9095   0.562   5.405   6.519  0.6386  0.2840 -0.3743
   90CHL1  H18C 9096   0.520   5.463   6.362  0.5470 -1.6923 -2.0355
   90CHL1   C12 9097   0.586   5.172   6.382  0.0828  0.3591 -0.4846
   90CHL1  H12A 9098   0.651   5.175   6.473  0.4251  1.9607 -0.7529
   90CHL1  H12B 9099   0.564   5.064   6.368  1.2469  0.0224  0.0683
   90CHL1   C11 9100   0.651   5.240   6.258 -0.5547  0.3683  0.2874
   90CHL1  H11A 9101   0.688   5.341   6.285  0.6915  0.0749 -0.2526
   90CHL1  H11B 9102   0.746   5.191   6.228  0.5513  1.7324  1.4148
   90CHL1    C9 9103   0.563   5.238   6.131  0.3977 -0.0034  0.5773
   90CHL1    H9 9104   0.540   5.130   6.118  0.7212  0.0585 -0.5818
   90CHL1   C10 9105   0.626   5.290   6.004  0.4631 -0.5620 -0.4139
   90CHL1   C19 9106   0.701   5.415   6.038 -0.1064  0.2332 -0.8587
   90CHL1  H19A 9107   0.789   5.396   6.102 -0.6001  2.8656  0.7454
   90CHL1  H19B 9108   0.725   5.471   5.945 -1.3696  1.4801 -0.4777
   90CHL1  H19C 9109   0.634   5.472   6.106 -0.5938 -1.6625  0.3302
   90CHL1    C1 9110   0.725   5.189   5.943 -0.1633 -0.5474 -0.4191
   90CHL1   H1A 9111   0.801   5.175   6.023  1.0970  1.1424 -1.2564
   90CHL1   H1B 9112   0.673   5.093   5.924  0.3327 -0.9481  0.1987
   90CHL1    C2 9113   0.784   5.232   5.818  0.2417  0.3379  0.1424
   90CHL1   H2A 9114   0.850   5.147   5.790 -1.1897 -1.0175  0.7516
   90CHL1   H2B 9115   0.839   5.328   5.826 -0.0354  0.6437 -1.3297
   90CHL1   C20 9116   0.408   5.214   6.657  0.7490  0.5954 -1.0820
   90CHL1   H20 9117   0.400   5.323   6.679 -0.5845  0.3194 -0.0790
   90CHL1   C21 9118   0.555   5.174   6.689  0.1905  0.3254 -0.0490
   90CHL1  H21A 9119   0.582   5.077   6.640  0.2970  1.6187 -2.7646
   90CHL1  H21B 9120   0.580   5.166   6.797  2.8874 -2.8789 -0.7491
   90CHL1  H21C 9121   0.621   5.255   6.651 -0.9871  2.4628  2.2246
   90CHL1   C22 9122   0.311   5.143   6.761 -0.6638 -0.5141  0.6356
   90CHL1  H22A 9123   0.205   5.161   6.731 -0.7457  1.3016  1.8653
   90CHL1  H22B 9124   0.333   5.035   6.749  1.5625  0.1146 -1.6823
   90CHL1   C23 9125   0.328   5.195   6.911  1.2838 -0.1537 -0.3253
   90CHL1  H23A 9126   0.429   5.174   6.952  0.5651  3.0323  3.6251
   90CHL1  H23B 9127   0.310   5.304   6.918  1.7719 -0.1270  0.6632
   90CHL1   C24 9128   0.223   5.129   6.998 -0.0066 -0.3752  0.8021
   90CHL1  H24A 9129   0.134   5.192   6.979 -0.2331 -0.6025  1.0845
   90CHL1  H24B 9130   0.201   5.023   6.970  1.2498 -0.6650  0.8798
   90CHL1   C25 9131   0.252   5.146   7.149  0.2079  0.1032 -0.0229
   90CHL1   H25 9132   0.333   5.071   7.162 -1.0225 -1.0336  1.3799
   90CHL1   C26 9133   0.308   5.283   7.196 -0.3265 -0.3310 -0.1738
   90CHL1  H26A 9134   0.318   5.284   7.307 -3.9851 -0.5548  0.2690
   90CHL1  H26B 9135   0.410   5.302   7.156 -0.4242  2.2631  0.6167
   90CHL1  H26C 9136   0.243   5.369   7.170  2.2863  1.1537 -2.2193
   90CHL1   C27 9137   0.130   5.108   7.230 -0.3567 -0.1440  0.2171
   90CHL1  H27A 9138   0.059   5.193   7.231 -1.5035 -0.8855 -3.6149
   90CHL1  H27B 9139   0.087   5.017   7.183  0.7499  0.0343 -1.2422
   90CHL1  H27C 9140   0.145   5.088   7.338  0.6428  1.5741  0.4496
   91CHL1    C3 9141   2.318   0.406   6.054 -0.4748  0.3546 -0.0611
   91CHL1    H3 9142   2.425   0.385   6.073 -0.6921  0.3775  1.3055
   91CHL1    O3 9143   2.306   0.448   5.923 -0.1726  0.0230 -0.1155
   91CHL1   H3' 9144   2.211   0.462   5.914 -0.3449 -1.2393 -0.3844
   91CHL1    C4 9145   2.236   0.277   6.082 -0.4331 -0.0357  0.1326
   91CHL1   H4A 9146   2.134   0.293   6.040 -0.5424  0.0540  0.4313
   91CHL1   H4B 9147   2.277   0.197   6.016  2.2065  1.4264 -0.1419
   91CHL1    C5 9148   2.223   0.231   6.227 -0.3351  0.3414  0.1441
   91CHL1    C6 9149   2.252   0.105   6.250  0.4082  0.3686 -0.4950
   91CHL1    H6 9150   2.276   0.036   6.168 -0.6263 -1.2197  0.4790
   91CHL1    C7 9151   2.265   0.049   6.391 -0.3186  0.5856 -0.4662
   91CHL1   H7A 9152   2.209  -0.046   6.401 -0.2914  0.7014  1.0695
   91CHL1   H7B 9153   2.371   0.023   6.413  0.0848 -0.3909 -3.2436
   91CHL1    C8 9154   2.206   0.149   6.499 -0.7148  0.7854  0.1022
   91CHL1    H8 9155   2.099   0.134   6.477  0.0646 -2.3316 -2.4165
   91CHL1   C14 9156   2.253   0.098   6.633 -0.2356  0.2871 -0.6003
   91CHL1   H14 9157   2.364   0.100   6.636 -0.2412  0.2676  3.0207
   91CHL1   C15 9158   2.217  -0.044   6.677  0.5019  0.5771 -0.4942
   91CHL1  H15A 9159   2.119  -0.077   6.637 -0.2933  1.1373  0.9183
   91CHL1  H15B 9160   2.293  -0.122   6.658  0.3192 -0.3906  2.2510
   91CHL1   C16 9161   2.219  -0.033   6.830 -0.1204  0.3488 -0.8326
   91CHL1  H16A 9162   2.121  -0.070   6.868  0.9693 -0.5717  1.2102
   91CHL1  H16B 9163   2.295  -0.098   6.878  0.9882  1.3307 -1.2383
   91CHL1   C17 9164   2.247   0.116   6.875  0.0938  0.1661 -0.2208
   91CHL1   H17 9165   2.358   0.120   6.880  0.0197  1.0686  1.1342
   91CHL1   C13 9166   2.210   0.191   6.748  1.7940 -0.0270 -0.6544
   91CHL1   C18 9167   2.055   0.206   6.756  0.4279 -0.5143  0.1195
   91CHL1  H18A 9168   2.030   0.260   6.850 -1.5515 -2.2589  0.6404
   91CHL1  H18B 9169   2.017   0.271   6.674 -2.2856 -0.4978  1.2908
   91CHL1  H18C 9170   2.002   0.109   6.749 -4.9419  2.0884 -0.3326
   91CHL1   C12 9171   2.263   0.333   6.735  0.1866 -0.6120  0.2265
   91CHL1  H12A 9172   2.217   0.394   6.816 -0.6914  0.8386 -1.2897
   91CHL1  H12B 9173   2.374   0.337   6.744  0.1118 -2.1022  3.0658
   91CHL1   C11 9174   2.231   0.399   6.599 -0.6824 -0.1112  0.0999
   91CHL1  H11A 9175   2.127   0.439   6.593  0.0681  2.0110  0.4732
   91CHL1  H11B 9176   2.292   0.490   6.583 -0.9926 -0.1410 -1.3275
   91CHL1    C9 9177   2.256   0.296   6.475  0.3169  0.0140  0.5723
   91CHL1    H9 9178   2.366   0.288   6.461  0.4367 -1.6876  2.1700
   91CHL1   C10 9179   2.209   0.340   6.336 -0.0138  0.4373  0.5219
   91CHL1   C19 9180   2.058   0.369   6.331  0.5121  0.1589 -0.9021
   91CHL1  H19A 9181   2.008   0.378   6.232  0.0053  1.1988 -0.5624
   91CHL1  H19B 9182   1.997   0.287   6.375 -1.7209  1.9157 -0.5505
   91CHL1  H19C 9183   2.023   0.451   6.398  2.1091 -1.1058  1.6525
   91CHL1    C1 9184   2.296   0.471   6.296  0.2556 -0.5933  0.1975
   91CHL1   H1A 9185   2.249   0.552   6.356 -3.8200 -4.2870  2.6209
   91CHL1   H1B 9186   2.406   0.452   6.293  0.9224  2.4772  1.4870
   91CHL1    C2 9187   2.277   0.520   6.151 -0.0156  0.4308  0.1997
   91CHL1   H2A 9188   2.329   0.617   6.132  2.7099 -0.7882  0.9784
   91CHL1   H2B 9189   2.167   0.530   6.145 -0.0795 -0.5361 -0.5743
   91CHL1   C20 9190   2.187   0.147   7.010 -0.0245  0.1564  0.0191
   91CHL1   H20 9191   2.076   0.145   7.004 -0.2649  3.3801  1.6382
   91CHL1   C21 9192   2.235   0.284   7.061  0.2575  0.8909  0.2074
   91CHL1  H21A 9193   2.207   0.309   7.165 -2.5193  2.4686 -0.8249
   91CHL1  H21B 9194   2.179   0.360   7.002 -1.9640 -0.0876  0.9505
   91CHL1  H21C 9195   2.345   0.297   7.047  0.4676 -2.5368 -2.6961
   91CHL1   C22 9196   2.216   0.041   7.121 -0.3007 -0.4534  0.0300
   91CHL1  H22A 9197   2.173  -0.056   7.088 -5.0410  0.6581  1.9768
   91CHL1  H22B 9198   2.325   0.027   7.137 -0.2196 -0.0535 -0.1522
   91CHL1   C23 9199   2.146   0.066   7.256  0.8345  0.0845  0.0759
   91CHL1  H23A 9200   2.180   0.164   7.294 -2.1203  0.1213  3.0311
   91CHL1  H23B 9201   2.038   0.078   7.237  1.0139  0.6690 -0.6046
   91CHL1   C24 9202   2.170  -0.037   7.369 -0.2833 -0.4162  0.1073
   91CHL1  H24A 9203   2.280  -0.053   7.364 -0.4392 -1.2024 -1.4895
   91CHL1  H24B 9204   2.162  -0.002   7.474  1.6575  1.2816 -0.2465
   91CHL1   C25 9205   2.099  -0.172   7.341  0.1247 -0.0202  0.6328
   91CHL1   H25 9206   2.096  -0.188   7.231  0.2888  0.4719  0.5573
   91CHL1   C26 9207   2.175  -0.282   7.410 -0.1311  0.6827  0.4179
   91CHL1  H26A 9208   2.175  -0.259   7.519  1.0137  1.3636  0.2926
   91CHL1  H26B 9209   2.129  -0.381   7.390  0.8199  0.2626  0.2931
   91CHL1  H26C 9210   2.277  -0.292   7.368 -0.7931 -0.1421 -1.0717
   91CHL1   C27 9211   1.954  -0.162   7.378 -0.5133  0.7140  0.2238
   91CHL1  H27A 9212   1.911  -0.264   7.378 -0.0269  0.4723  1.9834
   91CHL1  H27B 9213   1.936  -0.136   7.485 -2.8694 -1.4852  0.4793
   91CHL1  H27C 9214   1.887  -0.099   7.315  0.7259  0.9714 -0.8715
   92CHL1    C3 9215   6.214   1.264   6.024  0.2098  0.0639  0.6784
   92CHL1    H3 9216   6.299   1.192   6.034  2.3024  1.4074 -4.2816
   92CHL1    O3 9217   6.182   1.275   5.882 -0.1063  0.4710  0.1497
   92CHL1   H3' 9218   6.181   1.188   5.842 -3.3316  1.4739 -2.4120
   92CHL1    C4 9219   6.087   1.203   6.095  0.1444  0.2329  0.1169
   92CHL1   H4A 9220   6.001   1.258   6.052 -0.6098 -0.6199  0.5033
   92CHL1   H4B 9221   6.073   1.102   6.051  0.4645  1.0036 -1.8385
   92CHL1    C5 9222   6.097   1.220   6.248  0.0708 -0.6863  0.2233
   92CHL1    C6 9223   6.072   1.117   6.333  0.1128  0.1693 -0.2890
   92CHL1    H6 9224   6.052   1.018   6.290  1.7651 -0.5230  0.4573
   92CHL1    C7 9225   6.065   1.121   6.483  0.3167 -0.1537  0.2256
   92CHL1   H7A 9226   5.970   1.071   6.511  0.1937  0.2383  0.5007
   92CHL1   H7B 9227   6.148   1.055   6.516 -0.8832 -0.8438  1.9638
   92CHL1    C8 9228   6.081   1.264   6.536  0.2718 -0.1146 -0.4829
   92CHL1    H8 9229   5.979   1.307   6.541 -0.1670 -1.2436  1.3709
   92CHL1   C14 9230   6.138   1.262   6.677 -0.0750 -0.0418  0.6745
   92CHL1   H14 9231   6.239   1.217   6.669  0.0336 -0.1210  2.1725
   92CHL1   C15 9232   6.052   1.181   6.777  0.2591 -0.5121 -0.2371
   92CHL1  H15A 9233   5.942   1.188   6.773  0.2646 -1.0256 -1.6151
   92CHL1  H15B 9234   6.088   1.075   6.774 -0.8025 -0.8796 -0.2912
   92CHL1   C16 9235   6.094   1.224   6.916  0.2783  0.0057  0.0098
   92CHL1  H16A 9236   5.997   1.251   6.963 -0.4580  0.0115 -1.4819
   92CHL1  H16B 9237   6.150   1.150   6.977  1.6045 -0.8736 -2.1621
   92CHL1   C17 9238   6.186   1.354   6.889 -0.0137 -0.0514  0.6615
   92CHL1   H17 9239   6.292   1.322   6.883 -0.3216 -1.2151  1.1699
   92CHL1   C13 9240   6.152   1.400   6.745  0.2228  0.8471 -0.3555
   92CHL1   C18 9241   6.014   1.471   6.749 -0.6168 -0.1167 -0.1399
   92CHL1  H18A 9242   5.946   1.440   6.831 -0.8147 -2.5709 -1.1456
   92CHL1  H18B 9243   6.040   1.574   6.783 -1.3018 -0.5882  1.9565
   92CHL1  H18C 9244   5.952   1.479   6.657 -0.5973  0.5229 -0.1024
   92CHL1   C12 9245   6.254   1.482   6.668 -0.0633  0.7251 -0.7259
   92CHL1  H12A 9246   6.265   1.584   6.711 -0.4146  0.1189  0.8880
   92CHL1  H12B 9247   6.354   1.435   6.679  0.8970  2.4703 -1.6218
   92CHL1   C11 9248   6.212   1.483   6.526 -0.0558 -0.6827 -0.3865
   92CHL1  H11A 9249   6.124   1.550   6.519  1.2799  0.9824 -2.3234
   92CHL1  H11B 9250   6.284   1.541   6.466 -2.5040  1.4397 -1.4731
   92CHL1    C9 9251   6.177   1.344   6.455 -0.2359 -0.1128  0.9057
   92CHL1    H9 9252   6.271   1.285   6.457 -0.0834  0.0803 -0.0079
   92CHL1   C10 9253   6.138   1.355   6.302  0.1597  0.9396 -0.0755
   92CHL1   C19 9254   6.019   1.440   6.294  0.7307  0.3650 -0.1935
   92CHL1  H19A 9255   6.048   1.537   6.340  1.9624 -0.0269 -0.1068
   92CHL1  H19B 9256   5.992   1.454   6.187  1.7327 -1.7631 -0.7709
   92CHL1  H19C 9257   5.930   1.404   6.350  1.5537 -1.3755  0.0362
   92CHL1    C1 9258   6.261   1.414   6.219 -0.4639 -0.1804 -0.1699
   92CHL1   H1A 9259   6.287   1.519   6.243  0.2158  0.1587 -2.1600
   92CHL1   H1B 9260   6.349   1.346   6.220  0.1502  0.6007 -0.4455
   92CHL1    C2 9261   6.237   1.414   6.072  0.3677  0.3231  0.7139
   92CHL1   H2A 9262   6.328   1.459   6.028 -1.4713  3.0175 -0.6579
   92CHL1   H2B 9263   6.148   1.479   6.052  1.0254  0.2367 -3.3246
   92CHL1   C20 9264   6.170   1.458   7.005 -0.1776 -0.0525  0.6059
   92CHL1   H20 9265   6.078   1.518   6.986  0.5876  1.1499  0.5467
   92CHL1   C21 9266   6.286   1.565   7.000 -0.5909  0.3324  0.3895
   92CHL1  H21A 9267   6.270   1.643   7.078  0.2729  0.0230  0.8949
   92CHL1  H21B 9268   6.307   1.615   6.904  0.1915 -1.4654 -0.4234
   92CHL1  H21C 9269   6.378   1.516   7.039 -1.7669 -0.1365  2.8100
   92CHL1   C22 9270   6.166   1.386   7.142  0.5147  0.2831  0.3429
   92CHL1  H22A 9271   6.074   1.324   7.146  1.0555 -0.6550 -0.9880
   92CHL1  H22B 9272   6.250   1.314   7.149  0.3097 -0.0078 -0.1667
   92CHL1   C23 9273   6.164   1.476   7.275  0.0109  0.5642 -0.2043
   92CHL1  H23A 9274   6.261   1.531   7.266 -0.2255  1.0638  0.2355
   92CHL1  H23B 9275   6.073   1.539   7.264  0.0500  0.3466 -2.0271
   92CHL1   C24 9276   6.152   1.402   7.412 -0.2321 -0.1481 -0.6824
   92CHL1  H24A 9277   6.074   1.323   7.417  0.6064 -1.0256  4.3610
   92CHL1  H24B 9278   6.250   1.353   7.434  0.4955  0.7181 -1.8375
   92CHL1   C25 9279   6.127   1.494   7.537 -0.6814 -0.0653  0.2432
   92CHL1   H25 9280   6.039   1.560   7.522  1.0477  2.1903 -0.6380
   92CHL1   C26 9281   6.104   1.406   7.656 -0.8038  0.3863 -0.7180
   92CHL1  H26A 9282   6.098   1.461   7.753 -0.5616 -0.4405 -0.2175
   92CHL1  H26B 9283   6.005   1.357   7.664  0.4956 -2.4087 -0.3106
   92CHL1  H26C 9284   6.189   1.335   7.672  0.8555  2.2258 -1.0052
   92CHL1   C27 9285   6.251   1.584   7.547 -0.2236 -0.4808  0.4765
   92CHL1  H27A 9286   6.259   1.663   7.469  0.6172  0.1995  1.2272
   92CHL1  H27B 9287   6.243   1.634   7.646 -1.3249 -0.1930  0.2550
   92CHL1  H27C 9288   6.345   1.526   7.556  0.0564 -0.0439  0.3713
   93CHL1    C3 9289   5.468   6.340   5.939 -0.1141 -0.4192  0.1211
   93CHL1    H3 9290   5.358   6.341   5.955 -0.2624  3.4056 -0.2700
   93CHL1    O3 9291   5.484   6.304   5.804 -0.3144 -0.4906 -0.0321
   93CHL1   H3' 9292   5.578   6.303   5.787 -0.2569 -0.2265  0.2506
   93CHL1    C4 9293   5.517   6.486   5.958  0.1261 -0.4829 -0.1081
   93CHL1   H4A 9294   5.625   6.493   5.930 -0.0647  3.1719 -0.4280
   93CHL1   H4B 9295   5.462   6.548   5.884  0.9338  0.5067  0.0961
   93CHL1    C5 9296   5.504   6.520   6.104 -0.7886  0.4410  0.0562
   93CHL1    C6 9297   5.441   6.634   6.141 -0.9479  0.4248 -0.3877
   93CHL1    H6 9298   5.394   6.692   6.060 -1.1771  1.8408  0.7325
   93CHL1    C7 9299   5.422   6.689   6.281 -0.4013  0.3739 -0.0709
   93CHL1   H7A 9300   5.436   6.799   6.289 -0.1717  0.3734 -0.4742
   93CHL1   H7B 9301   5.314   6.670   6.299 -0.4517  1.0361  0.3933
   93CHL1    C8 9302   5.515   6.621   6.379 -0.4237 -1.0563 -0.0781
   93CHL1    H8 9303   5.610   6.677   6.367 -2.0494  1.8458 -0.4343
   93CHL1   C14 9304   5.470   6.646   6.520  0.3022 -0.7101 -0.3818
   93CHL1   H14 9305   5.376   6.590   6.540  0.2088 -0.7641 -0.9640
   93CHL1   C15 9306   5.452   6.792   6.565  0.3160 -0.4530  0.2902
   93CHL1  H15A 9307   5.542   6.843   6.523  0.2630 -0.5866  0.0096
   93CHL1  H15B 9308   5.361   6.847   6.530 -0.1423  0.0214  2.1406
   93CHL1   C16 9309   5.454   6.792   6.717 -0.8298  0.3492 -0.3021
   93CHL1  H16A 9310   5.528   6.865   6.756 -1.2318  1.1326 -0.9620
   93CHL1  H16B 9311   5.351   6.817   6.753 -1.6428 -1.1964 -1.4833
   93CHL1   C17 9312   5.495   6.651   6.760  0.3060 -0.3449 -0.5731
   93CHL1   H17 9313   5.406   6.586   6.762  0.5143 -0.7633 -2.4168
   93CHL1   C13 9314   5.560   6.591   6.625  0.4704  0.6212  0.2421
   93CHL1   C18 9315   5.703   6.642   6.615  0.3147 -0.3965 -0.2499
   93CHL1  H18A 9316   5.713   6.746   6.653  4.9562 -0.9335  0.6531
   93CHL1  H18B 9317   5.765   6.581   6.684  1.5626  1.0513 -0.0372
   93CHL1  H18C 9318   5.750   6.622   6.517 -0.0892  1.0293 -0.7606
   93CHL1   C12 9319   5.557   6.439   6.611  0.2165 -0.4602 -0.2326
   93CHL1  H12A 9320   5.623   6.399   6.691 -0.4964  1.3068  1.3114
   93CHL1  H12B 9321   5.455   6.402   6.634  0.2746 -0.5992 -0.1988
   93CHL1   C11 9322   5.591   6.393   6.469 -0.7187 -0.2317 -1.0565
   93CHL1  H11A 9323   5.701   6.404   6.459 -0.3928 -2.0856  0.0161
   93CHL1  H11B 9324   5.572   6.283   6.470 -0.7754 -0.3667  3.4714
   93CHL1    C9 9325   5.520   6.465   6.356  0.4278 -0.1721 -0.3433
   93CHL1    H9 9326   5.413   6.437   6.366  0.9837 -2.4250 -0.1479
   93CHL1   C10 9327   5.564   6.427   6.214 -0.2346  0.0035  0.3106
   93CHL1   C19 9328   5.718   6.426   6.206 -0.0776 -0.7529  0.1575
   93CHL1  H19A 9329   5.751   6.418   6.101 -2.6311 -2.4001 -0.6016
   93CHL1  H19B 9330   5.771   6.505   6.263  0.8121 -2.8638  2.4837
   93CHL1  H19C 9331   5.755   6.329   6.248 -0.3972 -0.1529  1.9383
   93CHL1    C1 9332   5.525   6.277   6.175 -0.0537 -0.6921 -0.3115
   93CHL1   H1A 9333   5.582   6.207   6.240  0.0912 -0.0708  0.2334
   93CHL1   H1B 9334   5.421   6.282   6.214  0.6734  0.8230  1.5679
   93CHL1    C2 9335   5.541   6.243   6.029 -0.9363  0.4223  0.2012
   93CHL1   H2A 9336   5.514   6.138   6.007  2.3182 -0.2421 -1.2265
   93CHL1   H2B 9337   5.646   6.245   5.992 -1.0119 -1.6337 -0.2197
   93CHL1   C20 9338   5.569   6.644   6.894  0.1710  0.3141 -0.2861
   93CHL1   H20 9339   5.674   6.675   6.876  0.9496 -2.7317 -1.6062
   93CHL1   C21 9340   5.589   6.499   6.935 -0.6197  0.4295  0.2433
   93CHL1  H21A 9341   5.499   6.436   6.916  0.0895  0.0216 -2.0770
   93CHL1  H21B 9342   5.619   6.499   7.042 -0.3308  1.5772  0.1800
   93CHL1  H21C 9343   5.659   6.443   6.870 -1.2661 -1.9980  1.5205
   93CHL1   C22 9344   5.508   6.727   7.012 -0.2478 -0.2591  0.4655
   93CHL1  H22A 9345   5.584   6.730   7.093 -0.6574  2.3349  0.8351
   93CHL1  H22B 9346   5.500   6.835   6.987  1.4719 -0.5769 -1.7909
   93CHL1   C23 9347   5.371   6.684   7.059 -0.1943  0.2893  0.5898
   93CHL1  H23A 9348   5.303   6.732   6.985  0.5862 -0.5437 -0.7180
   93CHL1  H23B 9349   5.363   6.573   7.056 -0.7623  0.2096  3.1138
   93CHL1   C24 9350   5.333   6.740   7.197 -0.3135 -0.3499  0.3849
   93CHL1  H24A 9351   5.413   6.713   7.269 -0.9907 -2.8106  0.3052
   93CHL1  H24B 9352   5.321   6.848   7.175  0.4615 -0.3320  0.0061
   93CHL1   C25 9353   5.205   6.686   7.267  0.0204 -0.1723  0.4075
   93CHL1   H25 9354   5.207   6.576   7.282 -1.2486 -0.6391 -2.2366
   93CHL1   C26 9355   5.166   6.753   7.397  0.2135 -0.1158 -0.2351
   93CHL1  H26A 9356   5.087   6.699   7.454  0.2543  0.1067  0.0386
   93CHL1  H26B 9357   5.262   6.736   7.450 -0.8273 -1.5164  1.2842
   93CHL1  H26C 9358   5.153   6.862   7.378  1.2533 -0.1566 -1.2888
   93CHL1   C27 9359   5.088   6.711   7.168  0.6907 -0.2970 -0.2814
   93CHL1  H27A 9360   4.987   6.671   7.194  0.7330 -1.0586 -1.2441
   93CHL1  H27B 9361   5.075   6.820   7.146 -1.3420 -0.4274  0.1078
   93CHL1  H27C 9362   5.111   6.669   7.068 -1.1111  2.3393 -1.9349
   94CHL1    C3 9363   0.725   2.215   6.017 -0.0097  0.3099 -0.0726
   94CHL1    H3 9364   0.827   2.211   6.062  0.6980 -1.3407 -1.6941
   94CHL1    O3 9365   0.729   2.196   5.876 -0.1217 -0.9914  0.4977
   94CHL1   H3' 9366   0.641   2.221   5.849 -0.7003  0.0578  3.0565
   94CHL1    C4 9367   0.640   2.094   6.056  0.6181  0.1985  0.2483
   94CHL1   H4A 9368   0.553   2.077   5.990  1.1562  2.2525 -1.1269
   94CHL1   H4B 9369   0.691   1.998   6.034 -0.9829 -0.3344 -1.3468
   94CHL1    C5 9370   0.602   2.102   6.199 -0.0724 -0.2424  1.2750
   94CHL1    C6 9371   0.642   2.006   6.280  0.1364  0.2324 -0.0206
   94CHL1    H6 9372   0.695   1.919   6.237 -2.5948 -2.3796  1.4823
   94CHL1    C7 9373   0.631   2.000   6.433  0.3405 -0.1320  0.8088
   94CHL1   H7A 9374   0.597   1.901   6.468  0.4442 -0.2118  0.6874
   94CHL1   H7B 9375   0.728   2.029   6.479 -0.5339  0.3886  2.4094
   94CHL1    C8 9376   0.523   2.099   6.483  0.1329  0.1894  0.5589
   94CHL1    H8 9377   0.422   2.062   6.456  0.4255 -0.1861 -0.0331
   94CHL1   C14 9378   0.532   2.114   6.631 -0.9054  0.3100  0.7918
   94CHL1   H14 9379   0.635   2.152   6.645  0.9429 -2.7584 -2.5355
   94CHL1   C15 9380   0.508   2.000   6.719 -0.8359  0.5476 -0.3907
   94CHL1  H15A 9381   0.412   1.946   6.705 -1.5575  1.0147  2.1761
   94CHL1  H15B 9382   0.592   1.927   6.731  0.2372  1.6764 -0.8239
   94CHL1   C16 9383   0.492   2.062   6.866  0.3172  0.8011 -0.8339
   94CHL1  H16A 9384   0.396   2.034   6.915  0.8740  2.6116  1.4454
   94CHL1  H16B 9385   0.571   2.016   6.928  0.7529 -0.3204 -2.1513
   94CHL1   C17 9386   0.490   2.216   6.850  0.6716 -0.0825 -0.1172
   94CHL1   H17 9387   0.595   2.251   6.856 -0.2006  2.6768  0.5686
   94CHL1   C13 9388   0.452   2.232   6.696 -0.4931 -0.8430 -0.7230
   94CHL1   C18 9389   0.300   2.206   6.673 -0.2973  0.5768  0.0185
   94CHL1  H18A 9390   0.273   2.113   6.726  2.3649 -1.0177 -1.2159
   94CHL1  H18B 9391   0.222   2.284   6.691 -4.6960 -2.2884 -4.1428
   94CHL1  H18C 9392   0.298   2.172   6.567 -0.8674 -1.5604  0.6811
   94CHL1   C12 9393   0.492   2.365   6.623 -0.2050  0.0623 -0.1928
   94CHL1  H12A 9394   0.440   2.452   6.670 -0.3738  0.0611 -0.3759
   94CHL1  H12B 9395   0.601   2.382   6.638 -0.5778  2.4510  0.2424
   94CHL1   C11 9396   0.477   2.356   6.472 -0.5618 -0.7612  0.2057
   94CHL1  H11A 9397   0.368   2.347   6.457 -0.5845 -0.3612  0.1061
   94CHL1  H11B 9398   0.505   2.460   6.443 -0.2557 -0.3168  1.9564
   94CHL1    C9 9399   0.550   2.236   6.412 -0.4697  0.3060 -0.0812
   94CHL1    H9 9400   0.658   2.256   6.427 -0.0516 -1.3948 -0.6595
   94CHL1   C10 9401   0.547   2.231   6.254 -0.0274  0.5321  0.4245
   94CHL1   C19 9402   0.401   2.238   6.210  1.3300  0.0617  0.1990
   94CHL1  H19A 9403   0.350   2.147   6.247 -0.3800  1.3315  1.1257
   94CHL1  H19B 9404   0.344   2.330   6.236  0.1429 -0.5329 -0.2308
   94CHL1  H19C 9405   0.398   2.225   6.100 -2.2790 -1.1885  0.3309
   94CHL1    C1 9406   0.633   2.350   6.203  0.1982 -0.0251 -1.2037
   94CHL1   H1A 9407   0.567   2.438   6.222  0.2973 -0.2270  0.1304
   94CHL1   H1B 9408   0.723   2.355   6.267  0.6464 -0.5285 -1.7787
   94CHL1    C2 9409   0.657   2.351   6.053 -0.3365  0.0425 -0.0304
   94CHL1   H2A 9410   0.710   2.439   6.012  3.3068 -2.7441 -1.9008
   94CHL1   H2B 9411   0.562   2.342   5.995 -1.0393 -2.6202  1.3477
   94CHL1   C20 9412   0.423   2.294   6.966 -0.1012  0.4487 -0.8683
   94CHL1   H20 9413   0.314   2.289   6.948  0.2072 -2.5290 -2.4570
   94CHL1   C21 9414   0.469   2.446   6.964  0.0064  0.0008  0.2492
   94CHL1  H21A 9415   0.396   2.502   7.026 -2.2653 -2.1808 -0.3051
   94CHL1  H21B 9416   0.463   2.486   6.861 -1.8606 -1.3015 -0.1977
   94CHL1  H21C 9417   0.566   2.469   7.014  0.0748  0.5178 -0.1106
   94CHL1   C22 9418   0.445   2.222   7.105  0.4737  0.5827 -0.5330
   94CHL1  H22A 9419   0.384   2.129   7.106 -0.7240  1.2490  2.8244
   94CHL1  H22B 9420   0.546   2.178   7.114  0.1695 -0.9575 -3.4471
   94CHL1   C23 9421   0.397   2.313   7.223  0.7051 -0.2049 -0.3119
   94CHL1  H23A 9422   0.457   2.407   7.223 -1.4769  1.2486  0.0725
   94CHL1  H23B 9423   0.299   2.351   7.189  0.7911 -0.5329 -0.9434
   94CHL1   C24 9424   0.372   2.259   7.358  0.1626 -0.6453 -0.5468
   94CHL1  H24A 9425   0.303   2.173   7.349 -2.3616  0.9546  1.7139
   94CHL1  H24B 9426   0.472   2.227   7.394 -0.6984 -2.5831  0.2319
   94CHL1   C25 9427   0.313   2.362   7.455  0.9020  0.0531  0.2091
   94CHL1   H25 9428   0.236   2.418   7.398  0.7222  0.9684  1.3325
   94CHL1   C26 9429   0.226   2.291   7.568  0.2447  0.5139 -0.0780
   94CHL1  H26A 9430   0.165   2.368   7.619  0.3832 -0.1944  1.2064
   94CHL1  H26B 9431   0.154   2.215   7.531  2.1414 -1.0330 -0.7979
   94CHL1  H26C 9432   0.301   2.246   7.637  0.1539 -1.0919 -0.9736
   94CHL1   C27 9433   0.406   2.474   7.505 -0.6467  0.0145  0.2443
   94CHL1  H27A 9434   0.352   2.553   7.563 -0.8305 -1.0620  1.5818
   94CHL1  H27B 9435   0.478   2.428   7.576 -0.7211  0.3986  0.5731
   94CHL1  H27C 9436   0.455   2.522   7.417 -0.7606 -0.3886 -0.0392
   95CHL1    C3 9437   5.730   0.282   6.173  0.1904 -0.0308 -1.1110
   95CHL1    H3 9438   5.667   0.371   6.195  0.1800  0.3439 -2.5283
   95CHL1    O3 9439   5.660   0.220   6.067 -0.2054 -0.1717 -0.0971
   95CHL1   H3' 9440   5.710   0.147   6.030  1.9894 -0.0165  2.3135
   95CHL1    C4 9441   5.865   0.336   6.113  0.1964 -0.0841  0.3130
   95CHL1   H4A 9442   5.928   0.250   6.082  2.5462  1.6794 -0.0954
   95CHL1   H4B 9443   5.849   0.406   6.028  0.6318  0.5215  0.7211
   95CHL1    C5 9444   5.928   0.409   6.232  0.0917  0.0805  0.0871
   95CHL1    C6 9445   5.961   0.541   6.221 -0.2162  0.1171 -0.2501
   95CHL1    H6 9446   5.929   0.597   6.132 -0.2912  0.4014 -0.0439
   95CHL1    C7 9447   6.045   0.622   6.327  0.1028  0.5470 -1.1286
   95CHL1   H7A 9448   6.127   0.686   6.287  1.4718  0.2862  1.0951
   95CHL1   H7B 9449   5.985   0.700   6.379  0.3935  0.6087 -0.8865
   95CHL1    C8 9450   6.112   0.530   6.435 -0.0464  0.4981 -0.1649
   95CHL1    H8 9451   6.212   0.492   6.405  0.4739  0.8822  1.0344
   95CHL1   C14 9452   6.137   0.607   6.564  0.0046  0.1747  0.7528
   95CHL1   H14 9453   6.041   0.651   6.598  0.5765  0.2905  2.2962
   95CHL1   C15 9454   6.209   0.746   6.552 -0.1735 -0.4816  0.5265
   95CHL1  H15A 9455   6.305   0.742   6.495 -0.4767 -0.4203  0.0040
   95CHL1  H15B 9456   6.139   0.820   6.508  1.8261  0.6042 -0.9911
   95CHL1   C16 9457   6.241   0.781   6.701  0.3241  0.5031  0.0619
   95CHL1  H16A 9458   6.349   0.807   6.707  0.8803 -1.6727  0.4065
   95CHL1  H16B 9459   6.181   0.873   6.718 -0.9014 -0.0406 -1.1022
   95CHL1   C17 9460   6.210   0.656   6.786  0.9650 -0.3317 -0.2015
   95CHL1   H17 9461   6.104   0.674   6.816  0.3303 -0.3476 -2.2351
   95CHL1   C13 9462   6.200   0.541   6.684  0.2034  0.3326  0.3774
   95CHL1   C18 9463   6.344   0.489   6.641 -0.1223 -0.0444 -0.6525
   95CHL1  H18A 9464   6.387   0.423   6.719  0.2783  0.0469 -0.7920
   95CHL1  H18B 9465   6.341   0.436   6.543 -1.3893  0.3478 -0.8495
   95CHL1  H18C 9466   6.416   0.573   6.630  0.3183 -0.0397  1.8076
   95CHL1   C12 9467   6.105   0.425   6.718  0.0449 -0.6324 -0.0805
   95CHL1  H12A 9468   6.128   0.357   6.803 -0.8699 -1.0037 -0.1213
   95CHL1  H12B 9469   6.009   0.471   6.748 -1.0638 -1.8329 -1.5780
   95CHL1   C11 9470   6.080   0.329   6.596  0.0207  0.1924  0.1296
   95CHL1  H11A 9471   6.177   0.280   6.574 -0.2052 -1.5027  2.5469
   95CHL1  H11B 9472   5.999   0.257   6.620 -0.1655  0.2247 -0.3942
   95CHL1    C9 9473   6.022   0.410   6.469 -0.3679 -0.5918  0.0599
   95CHL1    H9 9474   5.934   0.463   6.513 -0.2202  0.4839 -0.8992
   95CHL1   C10 9475   5.968   0.317   6.351  0.9313  0.7972 -0.7004
   95CHL1   C19 9476   6.073   0.218   6.307 -0.1261  0.7620  0.1929
   95CHL1  H19A 9477   6.159   0.277   6.270 -0.8435  1.8741  0.2535
   95CHL1  H19B 9478   6.112   0.160   6.393 -2.7175 -1.1622  0.1775
   95CHL1  H19C 9479   6.034   0.146   6.232  1.0912  0.3140 -0.0240
   95CHL1    C1 9480   5.838   0.234   6.398  0.1242 -0.0488 -0.3404
   95CHL1   H1A 9481   5.868   0.158   6.472 -2.3407  0.4916  1.2967
   95CHL1   H1B 9482   5.776   0.311   6.448 -1.3358 -1.6376  0.3919
   95CHL1    C2 9483   5.751   0.177   6.292  0.4209 -0.1559  0.7380
   95CHL1   H2A 9484   5.650   0.142   6.322 -0.4691 -0.7668 -2.6093
   95CHL1   H2B 9485   5.803   0.087   6.253  0.7406  0.4743 -0.3230
   95CHL1   C20 9486   6.287   0.652   6.914  0.0128  0.0538 -0.3537
   95CHL1   H20 9487   6.396   0.641   6.897  0.0080  0.3251 -0.5707
   95CHL1   C21 9488   6.234   0.527   6.993  0.5749 -0.2190 -0.9331
   95CHL1  H21A 9489   6.243   0.540   7.103  1.7946 -0.2833 -1.0072
   95CHL1  H21B 9490   6.280   0.430   6.962 -1.5550 -1.3334 -0.7726
   95CHL1  H21C 9491   6.123   0.522   6.984  0.3137 -1.0114  1.6990
   95CHL1   C22 9492   6.271   0.782   7.000 -0.3238  0.5189  0.6327
   95CHL1  H22A 9493   6.322   0.863   6.943  1.5861 -3.2544 -3.6345
   95CHL1  H22B 9494   6.163   0.806   7.012 -0.9255 -0.8199 -1.6408
   95CHL1   C23 9495   6.329   0.790   7.149  0.3891  0.2104  0.3622
   95CHL1  H23A 9496   6.278   0.715   7.213  1.2787 -0.1973  0.6131
   95CHL1  H23B 9497   6.433   0.750   7.141 -0.5847 -2.0727 -3.0126
   95CHL1   C24 9498   6.336   0.935   7.201 -0.1018 -0.4003  0.2045
   95CHL1  H24A 9499   6.426   0.977   7.152 -0.9876  0.5470 -0.6684
   95CHL1  H24B 9500   6.249   0.999   7.176  1.4080  2.4045  1.6396
   95CHL1   C25 9501   6.364   0.951   7.352  0.0294  0.0833 -0.3772
   95CHL1   H25 9502   6.290   0.889   7.407 -0.1048 -0.0186 -0.6661
   95CHL1   C26 9503   6.503   0.903   7.378 -0.1765  0.0886  0.6640
   95CHL1  H26A 9504   6.529   0.797   7.357  0.4338 -0.1896  2.5810
   95CHL1  H26B 9505   6.578   0.971   7.332  0.0541 -0.7267 -0.1756
   95CHL1  H26C 9506   6.515   0.906   7.489 -1.3239 -0.4148  0.8133
   95CHL1   C27 9507   6.358   1.100   7.388 -0.0280 -0.1273 -0.0495
   95CHL1  H27A 9508   6.393   1.173   7.312 -0.3919 -2.8112 -2.9809
   95CHL1  H27B 9509   6.249   1.123   7.396  0.0355  0.2981 -0.3877
   95CHL1  H27C 9510   6.404   1.122   7.487  1.0462  2.4239 -1.0199
   96CHL1    C3 9511   5.712   6.883   5.812  0.1571 -0.9340  0.2511
   96CHL1    H3 9512   5.725   6.977   5.754  2.7823 -1.8082 -0.7506
   96CHL1    O3 9513   5.660   6.782   5.717 -0.1832  0.1276 -0.5051
   96CHL1   H3' 9514   5.736   6.763   5.661 -0.2298  2.0626 -1.3062
   96CHL1    C4 9515   5.853   6.851   5.856 -0.5114  0.4232  0.7253
   96CHL1   H4A 9516   5.868   6.741   5.871 -0.8974  0.4617  1.4399
   96CHL1   H4B 9517   5.923   6.862   5.770  1.1909  1.2641  2.1724
   96CHL1    C5 9518   5.906   6.922   5.976 -0.9355  0.0991  0.6751
   96CHL1    C6 9519   6.028   6.988   5.977  0.1005 -0.8525 -0.4613
   96CHL1    H6 9520   6.088   6.990   5.885 -0.6495 -4.3423 -1.1710
   96CHL1    C7 9521   6.077   7.056   6.105  0.6387  0.3761 -0.1480
   96CHL1   H7A 9522   6.187   7.053   6.116  0.8021 -1.2538 -1.6493
   96CHL1   H7B 9523   6.054   7.164   6.092 -2.5447 -0.0356  1.0986
   96CHL1    C8 9524   6.009   7.000   6.239 -0.4214  1.3085 -0.4998
   96CHL1    H8 9525   6.064   6.905   6.258  1.7316  2.2864 -1.4797
   96CHL1   C14 9526   6.043   7.083   6.362  0.0478 -0.5962 -0.6960
   96CHL1   H14 9527   5.997   7.180   6.335  0.3529  0.0407  1.0020
   96CHL1   C15 9528   6.191   7.122   6.398  0.1738  0.2675 -0.0968
   96CHL1  H15A 9529   6.258   7.033   6.389  1.8274  1.0743  2.8331
   96CHL1  H15B 9530   6.231   7.212   6.348  0.6837  1.2627  1.9759
   96CHL1   C16 9531   6.179   7.163   6.546  0.3034  0.2154 -0.1802
   96CHL1  H16A 9532   6.250   7.095   6.599 -1.4407 -2.2874 -0.8763
   96CHL1  H16B 9533   6.220   7.264   6.570 -0.7755  0.9375 -1.2467
   96CHL1   C17 9534   6.034   7.150   6.594 -0.3011  0.1600  0.2102
   96CHL1   H17 9535   5.998   7.254   6.576 -0.9214 -0.0940 -0.0182
   96CHL1   C13 9536   5.979   7.038   6.496  0.4617 -0.8966  0.4479
   96CHL1   C18 9537   6.022   6.895   6.537 -0.5901 -0.3599  0.2969
   96CHL1  H18A 9538   6.130   6.887   6.564 -0.6115  1.2825  0.9665
   96CHL1  H18B 9539   5.964   6.855   6.622 -2.4243 -0.4224 -0.9284
   96CHL1  H18C 9540   6.006   6.820   6.456 -0.5332 -1.4957  1.2985
   96CHL1   C12 9541   5.828   7.034   6.480  0.1546  0.2274  0.4931
   96CHL1  H12A 9542   5.788   6.986   6.571 -2.0495 -0.2354 -0.6351
   96CHL1  H12B 9543   5.788   7.137   6.468 -0.2058  0.0831  0.4484
   96CHL1   C11 9544   5.785   6.958   6.356 -0.1005  0.3579 -0.1620
   96CHL1  H11A 9545   5.808   6.852   6.379 -1.0545  0.1123 -0.3091
   96CHL1  H11B 9546   5.675   6.962   6.346 -0.1061 -0.0658 -0.2645
   96CHL1    C9 9547   5.860   6.995   6.224  0.7386 -0.2937  0.6073
   96CHL1    H9 9548   5.828   7.098   6.198 -0.7209 -1.3151 -1.9931
   96CHL1   C10 9549   5.818   6.912   6.102 -0.5502  0.0872 -0.0933
   96CHL1   C19 9550   5.818   6.766   6.144  0.1388  0.6745 -0.1506
   96CHL1  H19A 9551   5.744   6.736   6.220  2.5094 -2.2218  1.2204
   96CHL1  H19B 9552   5.805   6.689   6.065  0.3769  1.7741 -1.2975
   96CHL1  H19C 9553   5.915   6.735   6.188  0.6193  1.2758 -0.7496
   96CHL1    C1 9554   5.674   6.961   6.052 -0.2058 -0.2669 -0.4083
   96CHL1   H1A 9555   5.610   6.945   6.142 -1.5335  0.8393 -1.1092
   96CHL1   H1B 9556   5.680   7.070   6.030  3.7865 -0.0390  1.0509
   96CHL1    C2 9557   5.621   6.886   5.934  0.6320 -0.2614 -0.0358
   96CHL1   H2A 9558   5.519   6.920   5.909 -0.7556 -2.7170  1.8797
   96CHL1   H2B 9559   5.601   6.782   5.967 -1.3004 -0.6055 -2.0890
   96CHL1   C20 9560   6.007   7.132   6.745 -0.7502 -0.4290 -0.0147
   96CHL1   H20 9561   5.985   7.025   6.766  1.0027 -1.1502 -1.5533
   96CHL1   C21 9562   5.885   7.210   6.788  0.0570 -0.1981  0.4725
   96CHL1  H21A 9563   5.865   7.191   6.896  2.5266  0.4323  1.1092
   96CHL1  H21B 9564   5.790   7.183   6.736 -0.3763 -0.4915  1.3969
   96CHL1  H21C 9565   5.904   7.319   6.780 -0.1613 -0.2996 -4.2672
   96CHL1   C22 9566   6.122   7.181   6.852 -0.0908 -0.6026  0.0743
   96CHL1  H22A 9567   6.147   7.287   6.828 -2.2916 -0.4296 -1.7961
   96CHL1  H22B 9568   6.067   7.191   6.948  0.6982  2.9185  0.2982
   96CHL1   C23 9569   6.254   7.109   6.863  0.9200 -0.0888  0.5723
   96CHL1  H23A 9570   6.225   7.004   6.840  0.5667 -0.1403  1.2341
   96CHL1  H23B 9571   6.329   7.130   6.783  0.2646  1.2545  0.2854
   96CHL1   C24 9572   6.322   7.117   7.001 -0.1706 -0.8865 -0.3051
   96CHL1  H24A 9573   6.364   7.218   7.023 -2.6480  0.0658  0.4699
   96CHL1  H24B 9574   6.239   7.107   7.075  0.3341  1.0781  0.5792
   96CHL1   C25 9575   6.417   7.007   7.038  0.3416  0.3909  0.6687
   96CHL1   H25 9576   6.362   6.917   7.004 -0.9755  2.3730 -3.0230
   96CHL1   C26 9577   6.554   7.032   6.969 -0.1088  0.5109  0.2009
   96CHL1  H26A 9578   6.605   7.116   7.020 -0.2653 -0.1799  1.5183
   96CHL1  H26B 9579   6.623   6.946   6.985 -1.0646 -0.2285  0.4264
   96CHL1  H26C 9580   6.544   7.034   6.858  1.4133 -1.0813 -0.0088
   96CHL1   C27 9581   6.447   7.001   7.181 -0.0717 -0.0584 -0.3016
   96CHL1  H27A 9582   6.526   6.926   7.205  3.0153  3.4283  1.4842
   96CHL1  H27B 9583   6.494   7.096   7.216  1.0635 -1.5497  2.5456
   96CHL1  H27C 9584   6.360   6.984   7.247 -0.3755  0.7468 -0.4763
   97OSM      N 9585   2.547   2.496  10.175 -0.0049 -0.3980  0.7392
   97OSM    C15 9586   2.592   2.390  10.271  0.6391 -0.3993  0.2282
   97OSM   H15A 9587   2.513   2.363  10.340 -0.3341 -1.3024 -1.1647
   97OSM   H15B 9588   2.676   2.430  10.325  0.3402  2.4237 -1.2303
   97OSM   H15C 9589   2.614   2.302  10.211  3.3874  1.3932 -1.6419
   97OSM    C14 9590   2.458   2.432  10.073 -0.4839 -0.5304  0.4605
   97OSM   H14A 9591   2.451   2.493   9.984  1.1226  1.4420  1.5818
   97OSM   H14B 9592   2.352   2.429  10.093 -0.3411  0.6128  1.4970
   97OSM   H14C 9593   2.487   2.334  10.037 -3.2349 -1.4924  0.6490
   97OSM    C13 9594   2.470   2.595  10.246  0.0188  0.0704  0.0201
   97OSM   H13A 9595   2.478   2.691  10.196  3.8091  0.0088  0.1794
   97OSM   H13B 9596   2.513   2.595  10.346  0.3199 -0.8307 -0.1024
   97OSM   H13C 9597   2.367   2.568  10.259  0.1011 -1.3255 -1.8533
   97OSM    C12 9598   2.675   2.553  10.120 -0.0893  0.2547 -0.3665
   97OSM   H12A 9599   2.741   2.470  10.101  0.3266  0.2420  0.9935
   97OSM   H12B 9600   2.729   2.601  10.201 -0.2976  0.5382 -0.3941
   97OSM    C11 9601   2.665   2.651  10.001 -0.4914 -0.0853 -0.0970
   97OSM   H11A 9602   2.766   2.696   9.985 -1.4422  2.2032 -0.0761
   97OSM   H11B 9603   2.592   2.733  10.018  1.6235  1.7833  0.5247
   97OSM      P 9604   2.696   2.475   9.804 -0.1447 -0.1064 -0.0097
   97OSM    O13 9605   2.829   2.460   9.865  0.3628  0.0607  0.4669
   97OSM    O14 9606   2.624   2.348   9.784 -0.1604  0.0126  0.7444
   97OSM    O11 9607   2.719   2.547   9.669  0.0814 -0.0709 -0.3617
   97OSM    O12 9608   2.614   2.583   9.886  0.2129 -0.4368  0.5237
   97OSM    C1S 9609   2.630   2.643   9.617  0.6759  0.5782 -0.2883
   97OSM    H1S 9610   2.640   2.736   9.677  0.3462  1.6959 -1.8965
   97OSM    H1T 9611   2.524   2.612   9.624  0.9846 -0.4679 -0.0442
   97OSM     NF 9612   2.591   2.791   9.429  0.6534 -0.1159  0.1552
   97OSM    HNF 9613   2.500   2.783   9.388  0.4679 -1.9627  0.8582
   97OSM    C2S 9614   2.653   2.669   9.466  0.7876  0.3038 -0.0402
   97OSM    H2S 9615   2.762   2.689   9.462  1.1879 -1.7320 -0.8625
   97OSM    C3S 9616   2.635   2.544   9.377 -0.0272  0.0068  0.1380
   97OSM    H3S 9617   2.530   2.509   9.377 -0.0637  0.0941  1.3152
   97OSM     O3 9618   2.713   2.436   9.415  0.0699 -0.1402 -0.3062
   97OSM    HO3 9619   2.750   2.456   9.501 -0.8602 -1.6116  0.4665
   97OSM    C4S 9620   2.673   2.585   9.235 -0.3134  0.3124  0.2306
   97OSM    H4S 9621   2.596   2.553   9.163 -1.2167 -0.0935  1.3590
   97OSM    C5S 9622   2.785   2.641   9.180  0.3018  0.2528  0.8681
   97OSM    H5S 9623   2.869   2.663   9.248 -0.7113  0.9089  1.9364
   97OSM    C6S 9624   2.799   2.667   9.031  0.1883  0.6546 -0.0264
   97OSM    H6S 9625   2.904   2.660   8.994  0.1713  1.1464 -0.1763
   97OSM    H6T 9626   2.758   2.766   9.003 -1.8032 -0.7006 -2.3752
   97OSM    C7S 9627   2.723   2.564   8.943 -0.2391  0.5015 -0.6580
   97OSM    H7S 9628   2.616   2.578   8.968 -0.2270  1.0914 -0.9417
   97OSM    H7T 9629   2.746   2.458   8.969  0.8803  0.5520 -1.3754
   97OSM    C8S 9630   2.737   2.601   8.788 -0.4568  0.4201  0.0097
   97OSM    H8S 9631   2.846   2.590   8.765  0.1295  0.1528  2.5539
   97OSM    H8T 9632   2.705   2.707   8.784  0.0040  0.5405 -0.5623
   97OSM    C9S 9633   2.663   2.512   8.689  0.0412  0.6038  0.0137
   97OSM    H9S 9634   2.558   2.500   8.724 -0.0956  1.7146  0.0206
   97OSM    H9T 9635   2.719   2.416   8.689  0.4832  0.8423  1.3207
   97OSM   C10S 9636   2.652   2.567   8.548 -0.5731 -0.3141 -0.5330
   97OSM   H10S 9637   2.753   2.589   8.507 -0.4444 -1.3483 -0.7902
   97OSM   H10T 9638   2.608   2.669   8.555  2.2763  0.9066  1.5185
   97OSM   C11S 9639   2.579   2.476   8.447 -0.5949  0.3495 -0.0381
   97OSM   H11S 9640   2.562   2.535   8.354 -0.6228  1.0569  0.4088
   97OSM   H11T 9641   2.481   2.437   8.484 -0.9832  0.5683 -0.8121
   97OSM   C12S 9642   2.668   2.359   8.413  0.6100  0.4667 -0.9185
   97OSM   H12S 9643   2.690   2.281   8.490 -0.4207 -2.6675 -3.5653
   97OSM   H12T 9644   2.772   2.387   8.386  1.2396 -0.4561  0.3844
   97OSM   C13S 9645   2.609   2.267   8.290 -1.0063 -0.6774  0.1473
   97OSM   H13S 9646   2.506   2.238   8.322 -1.4767 -0.1637 -0.8297
   97OSM   H13T 9647   2.675   2.178   8.286  0.4084  0.3929 -1.8412
   97OSM   C14S 9648   2.594   2.345   8.157 -0.0586  1.0788 -0.3800
   97OSM   H14S 9649   2.525   2.430   8.176  0.9663  1.7436  0.4820
   97OSM   H14T 9650   2.542   2.265   8.099  4.4444 -0.5433 -2.6719
   97OSM   C15S 9651   2.728   2.377   8.085 -0.3731 -0.3926  0.3691
   97OSM   H15S 9652   2.780   2.282   8.059  0.7850 -0.5805  3.0700
   97OSM   H15T 9653   2.791   2.439   8.153  2.3136  0.5160 -2.6858
   97OSM   C16S 9654   2.682   2.460   7.961  0.3638 -0.4382 -0.1813
   97OSM   H16S 9655   2.629   2.550   7.999 -1.3239 -1.4892  0.0738
   97OSM   H16T 9656   2.613   2.403   7.895  1.6075 -2.2389  0.0179
   97OSM   C17S 9657   2.808   2.495   7.881  0.3502  0.1751  0.2647
   97OSM   H17S 9658   2.767   2.571   7.810 -2.0488  2.1630  3.5188
   97OSM   H17T 9659   2.846   2.406   7.827  1.7561 -0.4839  2.2370
   97OSM   C18S 9660   2.920   2.561   7.957  0.4160  0.7455 -0.6347
   97OSM   H18S 9661   2.879   2.628   8.035  1.6706  2.8539 -1.6954
   97OSM   H18T 9662   2.987   2.620   7.891 -1.4718  1.6590 -1.8427
   97OSM   H18U 9663   2.985   2.483   8.002 -0.0757  1.5770  1.6238
   97OSM    C1F 9664   2.630   2.909   9.462 -0.2521 -0.1250 -0.1409
   97OSM     OF 9665   2.722   2.919   9.544  0.0642 -0.5357  0.0051
   97OSM    C2F 9666   2.550   3.025   9.408 -0.6174  0.9115 -0.0762
   97OSM    H2F 9667   2.521   3.090   9.493  0.9140  1.9570 -0.3154
   97OSM    H2G 9668   2.462   2.978   9.359  0.8815 -0.1174 -1.9143
   97OSM    C3F 9669   2.623   3.103   9.300 -0.0912 -0.3761 -0.3709
   97OSM    H3F 9670   2.719   3.144   9.339  0.5057 -1.4482 -0.6738
   97OSM    H3G 9671   2.568   3.194   9.269  0.4155 -0.5417 -1.8114
   97OSM    C4F 9672   2.637   3.031   9.171 -0.4237 -0.2489  0.4796
   97OSM    H4F 9673   2.677   2.928   9.185 -2.5156 -0.8506  2.6436
   97OSM    H4G 9674   2.707   3.081   9.100 -1.0019  0.2762  0.2702
   97OSM    C5F 9675   2.503   3.002   9.092  0.1450 -0.1216  0.2934
   97OSM    H5F 9676   2.447   3.097   9.082  1.1088  0.5349  0.9178
   97OSM    H5G 9677   2.436   2.931   9.144  1.0285  0.6198  2.5814
   97OSM    C6F 9678   2.518   2.948   8.948  0.4509  0.4932 -0.6363
   97OSM    H6F 9679   2.536   2.839   8.961 -0.5457  0.1284 -2.0932
   97OSM    H6G 9680   2.602   3.004   8.900  1.5357 -0.8471 -0.3684
   97OSM    C7F 9681   2.395   2.958   8.858 -0.2844 -0.0125  0.4501
   97OSM    H7F 9682   2.373   3.067   8.860  2.8236  0.7042  1.4293
   97OSM    H7G 9683   2.310   2.904   8.905  1.1103 -0.7488  2.2716
   97OSM    C8F 9684   2.430   2.918   8.709  0.5414  0.3141 -0.6754
   97OSM    H8F 9685   2.488   2.824   8.699 -0.2701 -0.1508 -1.0513
   97OSM    H8G 9686   2.508   2.996   8.692  1.4900 -0.8067 -1.6163
   97OSM    C9F 9687   2.328   2.940   8.602 -0.2882 -0.0534 -0.0327
   97OSM    H9F 9688   2.290   3.043   8.593  1.1927  0.3212 -4.1985
   97OSM   C10F 9689   2.265   2.843   8.525  0.2510 -0.1200 -0.8995
   97OSM   H10F 9690   2.170   2.867   8.476  0.2383 -0.8829 -1.2627
   97OSM   C11F 9691   2.275   2.692   8.522  0.0767 -0.5072 -0.7580
   97OSM   H11F 9692   2.295   2.658   8.625 -2.0579 -1.0570 -0.4709
   97OSM   H11G 9693   2.360   2.663   8.456  0.5468 -1.2885  0.1781
   97OSM   C12F 9694   2.147   2.610   8.470 -0.0037 -0.2597 -0.2614
   97OSM   H12F 9695   2.060   2.664   8.513 -1.1424 -1.7094 -0.6726
   97OSM   H12G 9696   2.158   2.512   8.522  1.6133  0.0810  0.1227
   97OSM   C13F 9697   2.140   2.606   8.316  1.3222  0.8662 -0.1276
   97OSM   H13F 9698   2.154   2.708   8.274 -0.7071  1.6990  1.0820
   97OSM   H13G 9699   2.034   2.580   8.297  1.4989 -0.4295  0.5343
   97OSM   C14F 9700   2.230   2.511   8.240  0.2185  0.1362  0.1093
   97OSM   H14F 9701   2.233   2.410   8.286 -1.6233  0.3351  0.7100
   97OSM   H14G 9702   2.334   2.552   8.244  0.8716 -1.4794  0.2304
   97OSM   C15F 9703   2.195   2.502   8.089  0.2091  0.0659  1.1219
   97OSM   H15F 9704   2.093   2.463   8.070  0.0897  0.4387  0.9791
   97OSM   H15G 9705   2.260   2.426   8.040 -0.8155 -0.5093  0.6193
   97OSM   C16F 9706   2.195   2.642   8.025  0.0776 -0.5502  0.1052
   97OSM   H16F 9707   2.295   2.682   8.054  0.1521  0.1183 -0.9954
   97OSM   H16G 9708   2.126   2.710   8.078  0.9739 -0.8388  1.7151
   97OSM   C17F 9709   2.181   2.653   7.876 -0.1142  0.0647 -0.6304
   97OSM   H17F 9710   2.167   2.759   7.844 -0.0023  0.1591 -0.3628
   97OSM   H17G 9711   2.094   2.587   7.852 -1.0456 -0.0950  2.6656
   97OSM   C18F 9712   2.309   2.622   7.797  0.0886  0.6422  0.3549
   97OSM   H18F 9713   2.331   2.514   7.799 -1.1484  0.3766  0.5673
   97OSM   H18G 9714   2.390   2.686   7.837  2.7066 -2.2131 -0.0784
   97OSM   H18H 9715   2.296   2.654   7.691 -0.1737  1.9747  0.7698
   98OSM      N 9716   1.999   2.997   9.994  0.1758  0.3447 -0.0319
   98OSM    C15 9717   1.916   3.029  10.112 -0.4841 -0.1587 -0.6281
   98OSM   H15A 9718   1.988   3.046  10.192 -0.9481  0.8423 -0.4085
   98OSM   H15B 9719   1.837   2.961  10.139 -0.2884 -0.5349 -0.9938
   98OSM   H15C 9720   1.874   3.128  10.100  2.8689  1.4237 -0.4963
   98OSM    C14 9721   2.115   3.084   9.992  0.1722  0.7581 -0.9149
   98OSM   H14A 9722   2.100   3.178  10.044  0.5969 -0.9875  2.6755
   98OSM   H14B 9723   2.160   3.089   9.894  0.5734 -1.2576 -0.8801
   98OSM   H14C 9724   2.194   3.039  10.050 -0.7965  1.0938  0.7295
   98OSM    C13 9725   2.046   2.856  10.005 -0.4202 -0.2639 -0.1249
   98OSM   H13A 9726   2.111   2.833  10.088 -2.3098 -0.0343  1.5004
   98OSM   H13B 9727   2.092   2.818   9.915 -1.1136 -1.7187  0.1032
   98OSM   H13C 9728   1.963   2.788  10.017 -0.2103 -0.7534 -1.2784
   98OSM    C12 9729   1.920   3.006   9.865 -0.6018  0.1068  1.0844
   98OSM   H12A 9730   1.900   3.112   9.860 -1.1531 -0.0481 -2.0301
   98OSM   H12B 9731   1.834   2.942   9.875 -0.6951  0.1023  0.3181
   98OSM    C11 9732   1.996   2.992   9.729 -0.4595 -0.1690 -0.4985
   98OSM   H11A 9733   2.084   3.059   9.718  0.5240 -1.2579  0.4659
   98OSM   H11B 9734   1.929   3.037   9.653  0.1663  1.6163 -0.0244
   98OSM      P 9735   1.915   2.757   9.675 -0.4261  0.0592 -0.3338
   98OSM    O13 9736   1.964   2.621   9.648 -0.2486 -0.7634 -0.8363
   98OSM    O14 9737   1.815   2.767   9.786  0.5500  0.8221 -0.4965
   98OSM    O11 9738   1.857   2.813   9.538  0.3275  0.2112  0.2536
   98OSM    O12 9739   2.036   2.858   9.702  0.1809  0.4908  0.0390
   98OSM    C1S 9740   1.946   2.825   9.427 -0.1866 -0.1489 -0.1512
   98OSM    H1S 9741   2.020   2.743   9.435  1.5604  1.2784 -1.0126
   98OSM    H1T 9742   2.015   2.912   9.433  1.1522 -1.0594 -1.7366
   98OSM     NF 9743   1.944   2.820   9.184 -0.4851 -0.3667  0.4383
   98OSM    HNF 9744   1.920   2.894   9.122 -0.8152  0.8243  1.9299
   98OSM    C2S 9745   1.864   2.815   9.298  0.3373  0.1922  0.2717
   98OSM    H2S 9746   1.821   2.713   9.305 -0.6501  0.6867  1.8766
   98OSM    C3S 9747   1.760   2.925   9.283  0.5388  0.4293 -0.2182
   98OSM    H3S 9748   1.811   3.023   9.295 -0.1628  0.9620 -1.4270
   98OSM     O3 9749   1.671   2.931   9.394  0.1071  0.0327 -0.2937
   98OSM    HO3 9750   1.723   2.890   9.464  1.2006 -1.6898 -1.9904
   98OSM    C4S 9751   1.678   2.922   9.153 -1.0879 -0.3892 -0.4156
   98OSM    H4S 9752   1.612   2.833   9.147 -1.0203 -0.6107  1.4349
   98OSM    C5S 9753   1.706   3.001   9.055 -0.0490 -0.8170  0.1090
   98OSM    H5S 9754   1.766   3.090   9.077 -1.5412 -0.2655  2.2438
   98OSM    C6S 9755   1.638   3.006   8.920 -0.3074 -0.3490  0.4402
   98OSM    H6S 9756   1.665   3.102   8.871 -0.1677 -0.7368 -0.2544
   98OSM    H6T 9757   1.528   3.001   8.927 -0.2996  0.8774  2.0636
   98OSM    C7S 9758   1.688   2.884   8.829  0.6541  0.3928  0.3098
   98OSM    H7S 9759   1.620   2.899   8.743 -2.5350  0.5865  2.6847
   98OSM    H7T 9760   1.656   2.785   8.869 -1.2034  0.2273 -1.4491
   98OSM    C8S 9761   1.837   2.898   8.795  0.8049 -0.0140  0.6256
   98OSM    H8S 9762   1.886   2.895   8.895 -0.5679 -2.2750  1.3170
   98OSM    H8T 9763   1.853   2.988   8.732 -3.4514 -0.6776 -1.8043
   98OSM    C9S 9764   1.886   2.780   8.723 -0.3073  0.5161  0.0739
   98OSM    H9S 9765   1.861   2.689   8.782 -1.4566  1.6620  1.4279
   98OSM    H9T 9766   1.996   2.788   8.711 -0.0534 -0.5245  1.3552
   98OSM   C10S 9767   1.828   2.753   8.581 -0.2414 -0.1620  0.0740
   98OSM   H10S 9768   1.717   2.746   8.582 -0.3571  0.9919 -1.4578
   98OSM   H10T 9769   1.873   2.654   8.558  1.7017  0.5590  0.5795
   98OSM   C11S 9770   1.858   2.870   8.474 -0.2792  0.0088  0.6417
   98OSM   H11S 9771   1.969   2.876   8.464 -0.4960  1.0443 -1.9017
   98OSM   H11T 9772   1.812   2.966   8.504 -0.1068 -0.1774  1.5472
   98OSM   C12S 9773   1.805   2.825   8.334 -0.5052  0.1076 -0.6269
   98OSM   H12S 9774   1.695   2.838   8.332 -0.5708 -0.4423 -0.6988
   98OSM   H12T 9775   1.826   2.717   8.321 -0.0851 -0.2607  2.2842
   98OSM   C13S 9776   1.874   2.900   8.215 -0.5473  0.4664  0.1067
   98OSM   H13S 9777   1.976   2.857   8.211 -0.0455  1.5730  0.5285
   98OSM   H13T 9778   1.891   3.004   8.252 -0.7804  0.7361 -0.5347
   98OSM   C14S 9779   1.804   2.886   8.084 -0.0249 -0.3902 -0.1820
   98OSM   H14S 9780   1.792   2.778   8.062 -2.2563 -0.6344  1.8466
   98OSM   H14T 9781   1.863   2.936   8.004 -1.4760 -1.9797 -2.3452
   98OSM   C15S 9782   1.667   2.952   8.074  0.5387 -0.5288 -0.6608
   98OSM   H15S 9783   1.672   3.057   8.111 -0.1673 -0.7968  0.2174
   98OSM   H15T 9784   1.600   2.899   8.145  0.8607  0.0925  0.1192
   98OSM   C16S 9785   1.601   2.936   7.931 -0.1917  0.1728  0.3979
   98OSM   H16S 9786   1.674   2.971   7.854  2.0058  0.3050  2.4186
   98OSM   H16T 9787   1.512   3.002   7.927 -0.6318 -0.4579 -1.7570
   98OSM   C17S 9788   1.572   2.793   7.895  0.0460  0.1832 -0.7222
   98OSM   H17S 9789   1.522   2.756   7.987 -1.9278  1.7121 -1.1151
   98OSM   H17T 9790   1.666   2.736   7.876  0.6325 -0.1004  2.4836
   98OSM   C18S 9791   1.481   2.776   7.779  0.0599  0.2091  0.5866
   98OSM   H18S 9792   1.381   2.817   7.804 -0.1093 -0.6143  1.2823
   98OSM   H18T 9793   1.473   2.672   7.743  0.7826  0.9433 -1.8995
   98OSM   H18U 9794   1.522   2.822   7.687 -0.4460 -0.8990 -0.2087
   98OSM    C1F 9795   2.046   2.738   9.145  0.6326  1.0249 -0.1485
   98OSM     OF 9796   2.059   2.633   9.201 -0.3319  0.1728  0.0676
   98OSM    C2F 9797   2.136   2.779   9.028  1.0186  0.2269 -0.5924
   98OSM    H2F 9798   2.222   2.832   9.074  2.0585 -0.2747 -1.9046
   98OSM    H2G 9799   2.088   2.859   8.968 -2.6911 -1.3261 -0.0089
   98OSM    C3F 9800   2.178   2.653   8.948  0.0129  0.4667  0.9400
   98OSM    H3F 9801   2.218   2.682   8.849 -1.0161 -1.7935 -0.2110
   98OSM    H3G 9802   2.088   2.596   8.914 -0.6236  2.6740 -1.4041
   98OSM    C4F 9803   2.283   2.561   9.009  0.4961 -0.3224 -0.0372
   98OSM    H4F 9804   2.242   2.509   9.098  3.1513 -0.7525  1.0348
   98OSM    H4G 9805   2.364   2.629   9.042  0.1635 -0.4600  1.0911
   98OSM    C5F 9806   2.351   2.462   8.909  0.3710 -0.4203  0.2040
   98OSM    H5F 9807   2.443   2.415   8.949  0.7632  0.3800  0.2567
   98OSM    H5G 9808   2.380   2.526   8.823  1.0620  1.5081  1.7867
   98OSM    C6F 9809   2.251   2.362   8.853  0.1712 -0.4196 -0.6541
   98OSM    H6F 9810   2.149   2.405   8.844  0.3534  0.1004 -0.3086
   98OSM    H6G 9811   2.247   2.278   8.925  0.5212 -1.2704 -1.6005
   98OSM    C7F 9812   2.271   2.310   8.706  0.8479 -0.3360 -0.5292
   98OSM    H7F 9813   2.273   2.406   8.650 -0.3223  0.9326  1.4521
   98OSM    H7G 9814   2.179   2.257   8.675  0.9785 -0.8297 -0.0792
   98OSM    C8F 9815   2.401   2.234   8.674  0.1405  0.0395  0.6619
   98OSM    H8F 9816   2.489   2.282   8.721 -0.9200  1.5628  1.1779
   98OSM    H8G 9817   2.418   2.240   8.564 -1.4928 -0.3749  0.3609
   98OSM    C9F 9818   2.393   2.086   8.714 -0.3351 -0.3483  0.6197
   98OSM    H9F 9819   2.363   2.068   8.819  0.5295  0.0058  0.9382
   98OSM   C10F 9820   2.421   1.975   8.639  0.0500  0.5694 -0.0712
   98OSM   H10F 9821   2.426   1.875   8.684 -0.2688  0.9188  0.7678
   98OSM   C11F 9822   2.473   1.968   8.498  0.3907 -0.1069  0.4175
   98OSM   H11F 9823   2.556   1.895   8.492  0.7492 -0.1667  3.8626
   98OSM   H11G 9824   2.504   2.068   8.459 -3.2411  1.2670  0.6003
   98OSM   C12F 9825   2.365   1.920   8.402  0.3788 -0.3218  0.7441
   98OSM   H12F 9826   2.327   1.823   8.440  0.6369 -0.3007  1.0594
   98OSM   H12G 9827   2.402   1.899   8.299  1.3986  0.3231  0.9637
   98OSM   C13F 9828   2.254   2.032   8.378 -0.2619  0.9519  0.2368
   98OSM   H13F 9829   2.286   2.137   8.363 -1.2232  1.0467 -1.3814
   98OSM   H13G 9830   2.198   2.027   8.474 -0.3156 -0.2682  0.1682
   98OSM   C14F 9831   2.146   1.995   8.275  0.0895 -0.4937 -0.3311
   98OSM   H14F 9832   2.073   2.079   8.276  2.9394  2.3062 -2.4372
   98OSM   H14G 9833   2.105   1.897   8.305 -0.1554 -0.0410  0.8470
   98OSM   C15F 9834   2.199   1.995   8.139  0.1137  0.1182  0.0591
   98OSM   H15F 9835   2.113   1.986   8.070  0.5964 -2.0264 -0.3570
   98OSM   H15G 9836   2.261   1.903   8.129  2.2223  1.2244  1.8616
   98OSM   C16F 9837   2.281   2.119   8.097  0.4219 -0.1910  0.0996
   98OSM   H16F 9838   2.375   2.117   8.156 -1.0951 -0.0126  2.6643
   98OSM   H16G 9839   2.213   2.202   8.128 -0.1528  0.0529 -1.6635
   98OSM   C17F 9840   2.315   2.128   7.945 -0.6541 -0.2954  0.7946
   98OSM   H17F 9841   2.356   2.035   7.903 -0.1539 -0.3220  1.3305
   98OSM   H17G 9842   2.406   2.192   7.945 -0.7752 -0.0789 -1.0869
   98OSM   C18F 9843   2.204   2.176   7.856 -0.6025  0.4686 -0.0137
   98OSM   H18F 9844   2.153   2.272   7.882 -3.0018 -0.8374  0.4400
   98OSM   H18G 9845   2.129   2.094   7.852  1.0320 -1.0965 -0.0392
   98OSM   H18H 9846   2.230   2.178   7.748  0.9845 -2.4332  0.2069
   99OSM      N 9847   2.845   1.668  10.147 -0.9173  0.0685  0.2820
   99OSM    C15 9848   2.883   1.611  10.282 -0.5145 -0.9086 -0.5730
   99OSM   H15A 9849   2.911   1.507  10.281 -0.1845 -0.8189 -0.6373
   99OSM   H15B 9850   2.799   1.620  10.349  0.3085 -0.6927  0.4611
   99OSM   H15C 9851   2.963   1.667  10.329 -0.6703 -0.0312 -1.3168
   99OSM    C14 9852   2.752   1.566  10.087 -0.1256 -0.8462 -0.1891
   99OSM   H14A 9853   2.808   1.482  10.047  1.5316  0.0236  0.1984
   99OSM   H14B 9854   2.688   1.607  10.011  2.1945  2.4745 -0.5518
   99OSM   H14C 9855   2.680   1.518  10.151  0.5774 -3.1837 -1.0558
   99OSM    C13 9856   2.784   1.801  10.166 -0.0681 -0.1068 -0.5770
   99OSM   H13A 9857   2.851   1.873  10.213 -0.5447 -1.6735  2.8518
   99OSM   H13B 9858   2.703   1.794  10.236  1.6224 -0.0320  1.5104
   99OSM   H13C 9859   2.756   1.833  10.067  1.1842 -2.2215 -1.7135
   99OSM    C12 9860   2.975   1.671  10.057  0.1902  0.3992 -0.3714
   99OSM   H12A 9861   3.027   1.577  10.067  1.3290  1.1365  1.0407
   99OSM   H12B 9862   3.050   1.740  10.094 -0.0116  1.8374 -2.4482
   99OSM    C11 9863   2.957   1.696   9.903 -0.1338 -0.1520  0.2785
   99OSM   H11A 9864   2.910   1.603   9.865 -0.2233  0.8104 -2.1414
   99OSM   H11B 9865   3.057   1.697   9.855 -0.1087 -0.1940  0.3293
   99OSM      P 9866   2.943   1.950   9.839  0.1711 -0.3434  0.3409
   99OSM    O13 9867   2.886   2.036   9.947 -0.1634 -0.1464 -0.1382
   99OSM    O14 9868   3.094   1.949   9.835  0.1119  0.1926 -1.3203
   99OSM    O11 9869   2.899   1.987   9.696  0.3252 -0.2223  0.9966
   99OSM    O12 9870   2.879   1.807   9.855 -0.0233 -0.1380 -0.1154
   99OSM    C1S 9871   2.921   2.118   9.647 -0.1877 -0.3450  0.1422
   99OSM    H1S 9872   3.030   2.140   9.658 -0.4659  0.7065  0.8703
   99OSM    H1T 9873   2.857   2.195   9.694  0.6317  0.2107  0.3676
   99OSM     NF 9874   2.935   2.256   9.440  0.1138  0.1431 -0.0736
   99OSM    HNF 9875   2.855   2.310   9.418 -2.0662 -1.7536  2.4907
   99OSM    C2S 9876   2.910   2.120   9.487  0.6099 -0.2075  0.2952
   99OSM    H2S 9877   2.984   2.043   9.455 -0.7976 -0.8110 -1.6729
   99OSM    C3S 9878   2.775   2.064   9.439 -0.2462  0.8081  0.4507
   99OSM    H3S 9879   2.694   2.128   9.480  0.3862  1.5658  0.5305
   99OSM     O3 9880   2.751   1.928   9.481  0.2440 -0.8762  0.0562
   99OSM    HO3 9881   2.811   1.920   9.555 -2.7366 -2.7329  2.5142
   99OSM    C4S 9882   2.768   2.064   9.290  0.2608  0.7584 -0.3354
   99OSM    H4S 9883   2.846   2.000   9.247  0.7526 -0.3641  2.0537
   99OSM    C5S 9884   2.674   2.125   9.219  0.3553 -1.1447  0.1272
   99OSM    H5S 9885   2.605   2.188   9.277  0.5486 -0.4050 -0.4208
   99OSM    C6S 9886   2.646   2.115   9.067 -0.4022  0.0904 -0.2945
   99OSM    H6S 9887   2.609   2.216   9.040  1.7552  0.6487 -1.4237
   99OSM    H6T 9888   2.559   2.048   9.051  0.4445 -0.7690 -1.4099
   99OSM    C7S 9889   2.768   2.073   8.979  0.2924 -0.1187  0.3923
   99OSM    H7S 9890   2.793   1.967   9.000 -0.1534 -0.4171 -0.5374
   99OSM    H7T 9891   2.841   2.157   8.983  0.8291 -0.5179 -0.7091
   99OSM    C8S 9892   2.739   2.087   8.833 -0.0125 -0.1861 -0.6537
   99OSM    H8S 9893   2.723   2.194   8.804 -0.6108 -0.5509 -1.7333
   99OSM    H8T 9894   2.645   2.032   8.811  0.0302  0.1109 -1.6093
   99OSM    C9S 9895   2.853   2.028   8.752  0.4475  0.1789  0.5755
   99OSM    H9S 9896   2.847   1.918   8.738 -0.7693  0.1696  1.0408
   99OSM    H9T 9897   2.951   2.048   8.799 -0.6973 -0.2365  3.3689
   99OSM   C10S 9898   2.854   2.093   8.608 -0.3862 -0.5664 -0.4783
   99OSM   H10S 9899   2.868   2.201   8.630 -0.5022 -0.5995 -0.2357
   99OSM   H10T 9900   2.758   2.095   8.552  0.9169  1.9010 -2.8408
   99OSM   C11S 9901   2.955   2.043   8.505  0.1454  0.3500  0.4388
   99OSM   H11S 9902   2.920   1.940   8.479 -1.4271  0.6583  1.1836
   99OSM   H11T 9903   3.045   2.022   8.566 -1.0082 -0.3343  1.9720
   99OSM   C12S 9904   2.996   2.125   8.383  0.0422 -0.3629 -0.0391
   99OSM   H12S 9905   3.035   2.055   8.306  1.5844  0.9621 -0.5253
   99OSM   H12T 9906   2.900   2.164   8.343 -0.4166 -1.4022  0.0049
   99OSM   C13S 9907   3.091   2.237   8.412 -0.8543 -0.7091  0.2945
   99OSM   H13S 9908   3.188   2.190   8.441 -0.0822  1.8467  2.3256
   99OSM   H13T 9909   3.050   2.289   8.501  0.5786 -1.0189  1.1797
   99OSM   C14S 9910   3.121   2.352   8.316  0.4172  1.0406 -0.1449
   99OSM   H14S 9911   3.025   2.389   8.274 -1.4113 -1.1750  1.7688
   99OSM   H14T 9912   3.179   2.310   8.231 -0.6877 -0.3698 -0.2415
   99OSM   C15S 9913   3.204   2.465   8.371 -0.6699 -0.1788  0.1357
   99OSM   H15S 9914   3.229   2.538   8.292  0.6858 -0.6881  0.0602
   99OSM   H15T 9915   3.295   2.414   8.408  0.9040  2.3551 -0.0024
   99OSM   C16S 9916   3.147   2.558   8.479 -0.3969 -0.2379  0.0017
   99OSM   H16S 9917   3.227   2.633   8.499 -0.2636  0.4476 -2.6759
   99OSM   H16T 9918   3.112   2.502   8.569 -0.8585 -0.1520 -0.1196
   99OSM   C17S 9919   3.024   2.630   8.431 -0.0408 -0.7508  0.7430
   99OSM   H17S 9920   2.978   2.678   8.520  0.6160  1.6152 -0.1321
   99OSM   H17T 9921   2.939   2.572   8.388  0.7146  0.3906 -2.5237
   99OSM   C18S 9922   3.057   2.743   8.327  0.4655 -0.1112  0.1010
   99OSM   H18S 9923   3.149   2.791   8.367  0.1488 -0.2076  0.9763
   99OSM   H18T 9924   2.975   2.817   8.315  1.3055  1.5202  3.2152
   99OSM   H18U 9925   3.080   2.700   8.228  0.2739  1.2573 -0.5606
   99OSM    C1F 9926   3.060   2.303   9.439  0.6063 -0.2437 -0.5118
   99OSM     OF 9927   3.151   2.232   9.483 -0.4373 -0.2287  0.0313
   99OSM    C2F 9928   3.086   2.432   9.380  0.6483  0.3950 -0.2756
   99OSM    H2F 9929   3.169   2.472   9.442  0.5505 -2.2075  1.7185
   99OSM    H2G 9930   2.997   2.498   9.386  0.3721 -0.0526  1.0971
   99OSM    C3F 9931   3.130   2.417   9.232 -0.6398 -0.2418 -0.5337
   99OSM    H3F 9932   3.182   2.510   9.201 -0.3295  0.0595  0.8226
   99OSM    H3G 9933   3.215   2.346   9.241  0.1356  0.9338  3.1445
   99OSM    C4F 9934   3.027   2.362   9.128 -0.0908 -0.5221 -0.2849
   99OSM    H4F 9935   2.933   2.421   9.131  1.7021  2.4826  0.3500
   99OSM    H4G 9936   3.005   2.255   9.152 -1.3156 -0.1726  0.2579
   99OSM    C5F 9937   3.085   2.356   8.981 -0.5741  0.4665  0.1601
   99OSM    H5F 9938   3.120   2.455   8.945  2.0243 -0.8634 -1.1925
   99OSM    H5G 9939   3.003   2.319   8.915 -0.2767 -0.4195  0.2749
   99OSM    C6F 9940   3.200   2.266   8.945  0.2928 -0.4133  0.0835
   99OSM    H6F 9941   3.292   2.313   8.987 -0.6910 -0.1714  2.0859
   99OSM    H6G 9942   3.213   2.267   8.835  4.8555  0.5293  0.4368
   99OSM    C7F 9943   3.181   2.118   8.994  0.7940 -0.5826 -0.2235
   99OSM    H7F 9944   3.103   2.061   8.940  1.3404 -1.5313 -0.0369
   99OSM    H7G 9945   3.151   2.122   9.101  0.1092 -2.8252 -0.2920
   99OSM    C8F 9946   3.315   2.048   8.985 -0.3417 -0.3110  0.3364
   99OSM    H8F 9947   3.383   2.104   9.053  0.4109 -0.5852 -0.1754
   99OSM    H8G 9948   3.364   2.054   8.886  1.6968  0.4015  1.3248
   99OSM    C9F 9949   3.303   1.912   9.050  0.1905 -0.1622  0.4673
   99OSM    H9F 9950   3.274   1.923   9.156 -1.2276  1.1192 -0.0257
   99OSM   C10F 9951   3.312   1.792   8.990 -0.6119 -0.3072  0.4540
   99OSM   H10F 9952   3.291   1.699   9.045 -0.3542 -0.9715 -0.5413
   99OSM   C11F 9953   3.357   1.760   8.846 -0.5015 -0.2049  0.6918
   99OSM   H11F 9954   3.429   1.677   8.835 -1.4032 -0.7884 -1.2847
   99OSM   H11G 9955   3.410   1.851   8.813 -1.4021 -0.2260 -0.9130
   99OSM   C12F 9956   3.231   1.738   8.754  0.0982  0.3556  0.5087
   99OSM   H12F 9957   3.161   1.824   8.753  1.2739  1.3539  0.7777
   99OSM   H12G 9958   3.168   1.659   8.799  1.4485 -0.6737  0.6686
   99OSM   C13F 9959   3.282   1.690   8.617  0.1874 -0.1002  0.1417
   99OSM   H13F 9960   3.337   1.594   8.626  1.7555  0.7889  0.4302
   99OSM   H13G 9961   3.366   1.755   8.583 -0.9205  1.7238  0.7196
   99OSM   C14F 9962   3.187   1.704   8.506  0.2201  0.2801 -0.1392
   99OSM   H14F 9963   3.131   1.800   8.496  2.8589  1.8548 -0.6323
   99OSM   H14G 9964   3.106   1.629   8.515 -0.2037  0.6800 -0.5580
   99OSM   C15F 9965   3.259   1.694   8.369 -0.6806  0.0618 -0.5526
   99OSM   H15F 9966   3.184   1.665   8.293  0.1665 -2.4848 -0.5113
   99OSM   H15G 9967   3.341   1.618   8.374  1.2248  1.8106 -2.6150
   99OSM   C16F 9968   3.337   1.819   8.318 -0.2582 -0.3239 -0.4745
   99OSM   H16F 9969   3.383   1.866   8.407 -1.1964  1.6255 -0.9713
   99OSM   H16G 9970   3.263   1.890   8.274 -0.1831 -0.1262 -0.2794
   99OSM   C17F 9971   3.428   1.767   8.205 -0.1820  0.3733 -0.2919
   99OSM   H17F 9972   3.363   1.706   8.140 -0.2966  0.4340 -0.2335
   99OSM   H17G 9973   3.495   1.696   8.258 -1.6021 -1.6162 -1.0665
   99OSM   C18F 9974   3.515   1.870   8.140 -0.0332 -0.0271 -0.2472
   99OSM   H18F 9975   3.588   1.828   8.067  0.7652  2.1171 -0.7653
   99OSM   H18G 9976   3.564   1.935   8.215  1.0548 -0.9463 -0.1424
   99OSM   H18H 9977   3.462   1.943   8.074  1.5193 -1.1465 -2.9161
  100OSM      N 9978   6.347   3.274   9.935 -0.7020  0.5969  0.0344
  100OSM    C15 9979   6.484   3.215   9.934  0.3827 -0.6684 -0.3542
  100OSM   H15A 9980   6.551   3.274   9.873 -0.3950  1.2100  0.5440
  100OSM   H15B 9981   6.483   3.112   9.901  1.6249 -0.5614 -0.7937
  100OSM   H15C 9982   6.515   3.213  10.037  1.2213 -0.1015 -0.5831
  100OSM    C14 9983   6.274   3.213  10.046  0.1689  0.5307 -0.4495
  100OSM   H14A 9984   6.328   3.219  10.139  0.4431 -0.7663 -0.5061
  100OSM   H14B 9985   6.242   3.111  10.034  0.0608  0.6514 -1.2497
  100OSM   H14C 9986   6.189   3.274  10.074 -0.6785 -0.9181  0.2754
  100OSM    C13 9987   6.365   3.420   9.969  0.0490  0.1141 -0.2403
  100OSM   H13A 9988   6.440   3.473   9.912 -0.9803  1.6220 -0.2537
  100OSM   H13B 9989   6.380   3.435  10.075 -1.4426  0.4597 -0.0561
  100OSM   H13C 9990   6.274   3.469   9.937 -0.5632  1.0647  2.6461
  100OSM    C12 9991   6.271   3.256   9.805 -0.0863  0.0959  0.3322
  100OSM   H12A 9992   6.258   3.152   9.780  1.2088  0.1714 -0.7549
  100OSM   H12B 9993   6.331   3.289   9.721 -1.7780  0.2508 -0.8686
  100OSM    C11 9994   6.130   3.323   9.803  0.2753 -0.2657 -0.5828
  100OSM   H11A 9995   6.070   3.292   9.891  2.3253 -0.7791  0.7121
  100OSM   H11B 9996   6.071   3.277   9.721 -1.1145  1.4116 -0.5660
  100OSM      P 9997   6.029   3.577   9.788  0.0619 -0.3963  0.1080
  100OSM    O13 9998   5.962   3.562   9.916 -0.8011 -0.5914  0.6823
  100OSM    O14 9999   6.100   3.704   9.764 -0.0410 -0.3680 -0.4645
  100OSM    O1110000   5.932   3.558   9.669 -0.2434 -0.0606 -0.0870
  100OSM    O1210001   6.140   3.465   9.782  0.2919 -0.4299  0.3062
  100OSM    C1S10002   5.969   3.538   9.534  0.4544 -0.2482  0.4493
  100OSM    H1S10003   5.958   3.428   9.519 -1.9422 -0.1335  0.9876
  100OSM    H1T10004   6.074   3.568   9.516  1.0135 -3.0482 -1.6918
  100OSM     NF10005   5.934   3.595   9.302  0.6318  0.4122  0.2015
  100OSM    HNF10006   5.984   3.670   9.258  0.4281 -1.1637 -3.0695
  100OSM    C2S10007   5.874   3.617   9.433 -0.0578  0.6215  0.2520
  100OSM    H2S10008   5.771   3.576   9.432 -0.0221  0.5275  0.3970
  100OSM    C3S10009   5.871   3.773   9.473 -0.6706  0.7138 -0.4779
  100OSM    H3S10010   5.976   3.810   9.484  0.2367 -1.7129 -0.4382
  100OSM     O310011   5.829   3.796   9.608  0.7413 -0.4516  0.2561
  100OSM    HO310012   5.837   3.712   9.653 -2.3853 -0.1950  1.5331
  100OSM    C4S10013   5.801   3.856   9.368  0.0553 -0.8221  0.1937
  100OSM    H4S10014   5.873   3.914   9.309  0.8643 -1.0959  0.8920
  100OSM    C5S10015   5.665   3.875   9.366 -0.0891 -0.2554 -0.0171
  100OSM    H5S10016   5.603   3.817   9.435 -0.0381 -1.0870 -0.6564
  100OSM    C6S10017   5.601   3.960   9.257 -0.3964 -0.4397 -0.4259
  100OSM    H6S10018   5.517   4.014   9.306 -1.0143 -4.0504  3.0438
  100OSM    H6T10019   5.565   3.880   9.188 -1.4383 -0.3748  0.0160
  100OSM    C7S10020   5.701   4.051   9.179  0.9648  0.3206  0.4080
  100OSM    H7S10021   5.641   4.106   9.103  0.0579  0.8199  1.4677
  100OSM    H7T10022   5.769   3.981   9.127  0.9136  0.1294  0.5979
  100OSM    C8S10023   5.763   4.162   9.252 -0.4313 -0.2099  0.6061
  100OSM    H8S10024   5.801   4.132   9.352 -2.1672 -3.6253  0.3778
  100OSM    H8T10025   5.676   4.228   9.275 -0.1936  0.7995 -1.1825
  100OSM    C9S10026   5.881   4.232   9.186 -0.0488 -0.9539  0.0628
  100OSM    H9S10027   5.900   4.329   9.237  1.4062 -0.2574 -1.6721
  100OSM    H9T10028   5.836   4.247   9.085 -0.3904 -2.9203 -0.1083
  100OSM   C10S10029   6.009   4.150   9.174  0.6409 -0.1510  0.2194
  100OSM   H10S10030   5.973   4.047   9.155 -2.4820  1.1554 -1.7234
  100OSM   H10T10031   6.075   4.152   9.264 -1.4881  0.7319  1.8416
  100OSM   C11S10032   6.099   4.194   9.056  0.0772  0.3606 -0.0856
  100OSM   H11S10033   6.156   4.283   9.091  0.3782 -0.7999  2.5990
  100OSM   H11T10034   6.030   4.225   8.973 -0.2276  0.8015  0.3245
  100OSM   C12S10035   6.195   4.090   9.005 -0.8245  0.2914  0.4953
  100OSM   H12S10036   6.248   4.033   9.084 -1.9744  1.4189  2.1307
  100OSM   H12T10037   6.276   4.138   8.946  0.4149 -1.3408  0.8000
  100OSM   C13S10038   6.126   3.987   8.914  0.1546 -0.2921  0.2722
  100OSM   H13S10039   6.080   4.040   8.828 -0.8640  0.5625  1.3160
  100OSM   H13T10040   6.038   3.943   8.966 -1.8946  0.2675 -2.5020
  100OSM   C14S10041   6.223   3.883   8.852 -0.3719 -0.4030 -0.0491
  100OSM   H14S10042   6.278   3.833   8.935 -0.1558 -1.2777 -0.6953
  100OSM   H14T10043   6.293   3.933   8.781 -0.4467 -1.2431 -0.7360
  100OSM   C15S10044   6.152   3.779   8.762  0.0286 -0.6707  0.4232
  100OSM   H15S10045   6.086   3.817   8.681 -2.1842 -0.1232  2.3877
  100OSM   H15T10046   6.070   3.751   8.831 -0.5727  0.3963  0.1588
  100OSM   C16S10047   6.242   3.667   8.724 -0.2765 -0.2888 -0.0169
  100OSM   H16S10048   6.175   3.597   8.671 -0.5711  0.1164 -0.1857
  100OSM   H16T10049   6.292   3.620   8.811  4.3128  0.1188 -2.1318
  100OSM   C17S10050   6.362   3.691   8.629  0.2022  0.1727 -0.5429
  100OSM   H17S10051   6.415   3.593   8.625 -0.7676 -0.4885  1.4730
  100OSM   H17T10052   6.429   3.772   8.663  0.4458 -0.4397  0.4808
  100OSM   C18S10053   6.322   3.730   8.489  0.8147 -0.8769 -1.0856
  100OSM   H18S10054   6.305   3.839   8.476 -0.0938 -1.0291 -1.2520
  100OSM   H18T10055   6.237   3.669   8.450 -1.0772  0.1113  1.2565
  100OSM   H18U10056   6.406   3.709   8.419 -0.3664 -0.4782 -2.6820
  100OSM    C1F10057   5.935   3.473   9.238 -0.3227 -0.1040 -0.0214
  100OSM     OF10058   5.880   3.375   9.283 -0.4732  0.4270 -0.0447
  100OSM    C2F10059   6.035   3.464   9.124  0.9058 -0.4703  0.5760
  100OSM    H2F10060   6.133   3.488   9.171  1.5867  2.2463 -1.8937
  100OSM    H2G10061   6.020   3.550   9.055 -1.3428 -2.1275 -1.1332
  100OSM    C3F10062   6.028   3.331   9.062  0.3611 -0.4034  0.8378
  100OSM    H3F10063   6.038   3.247   9.134 -1.5236 -3.2785 -1.9585
  100OSM    H3G10064   6.117   3.322   8.995  0.7589 -2.7853  1.5928
  100OSM    C4F10065   5.906   3.308   8.973  0.3941  0.1086 -0.5886
  100OSM    H4F10066   5.810   3.314   9.029  0.6742  0.9469 -0.1815
  100OSM    H4G10067   5.909   3.201   8.943 -1.2275  0.6048 -2.7572
  100OSM    C5F10068   5.894   3.406   8.855 -0.2561 -0.2244  0.4519
  100OSM    H5F10069   5.905   3.512   8.887 -2.8272  0.2801 -0.1158
  100OSM    H5G10070   5.792   3.387   8.817  0.1389 -0.3351 -0.5871
  100OSM    C6F10071   5.982   3.370   8.734 -0.6621  0.0198 -0.2727
  100OSM    H6F10072   5.972   3.263   8.707 -3.2289 -0.5665  2.4413
  100OSM    H6G10073   6.088   3.376   8.768 -1.0384  1.1161  0.7709
  100OSM    C7F10074   5.960   3.464   8.617  0.0914  0.3003  0.3460
  100OSM    H7F10075   5.956   3.574   8.636 -0.0921  0.6907 -1.7613
  100OSM    H7G10076   5.862   3.435   8.574  0.1377 -0.4444  0.7285
  100OSM    C8F10077   6.062   3.445   8.503  0.0369  0.1172  0.2936
  100OSM    H8F10078   6.168   3.432   8.535  0.8676  2.4879 -1.2929
  100OSM    H8G10079   6.071   3.546   8.459 -0.9536  0.2490  0.3736
  100OSM    C9F10080   6.013   3.335   8.411 -0.0285 -0.2432  0.0858
  100OSM    H9F10081   5.967   3.248   8.462  1.6058 -0.4057  1.3592
  100OSM   C10F10082   6.022   3.324   8.279 -0.1361 -0.2846  1.0575
  100OSM   H10F10083   5.969   3.242   8.228  0.9576 -0.2769 -0.1682
  100OSM   C11F10084   6.088   3.424   8.189 -0.3449 -0.3527  0.1789
  100OSM   H11F10085   6.155   3.371   8.119 -1.6588 -1.0240 -0.6032
  100OSM   H11G10086   6.147   3.504   8.239 -3.0305  2.1435 -0.3636
  100OSM   C12F10087   5.985   3.488   8.095  0.3577  0.0373 -0.2383
  100OSM   H12F10088   6.041   3.558   8.029 -0.2746  0.1743 -0.6350
  100OSM   H12G10089   5.916   3.554   8.153  3.4078  2.4017  0.9805
  100OSM   C13F10090   5.923   3.396   7.981 -0.4334  0.3148 -0.4708
  100OSM   H13F10091   5.847   3.332   8.030  0.6443 -1.7482 -1.4002
  100OSM   H13G10092   6.008   3.334   7.948 -0.4441 -0.0031  0.0911
  100OSM   C14F10093   5.863   3.474   7.865 -0.1016  0.2521  0.9716
  100OSM   H14F10094   5.939   3.546   7.828  0.8800 -1.5465 -0.7028
  100OSM   H14G10095   5.770   3.529   7.894 -0.4195  0.6806 -0.7563
  100OSM   C15F10096   5.822   3.383   7.742 -0.6678  0.4700 -0.4490
  100OSM   H15F10097   5.781   3.288   7.783  0.3956 -0.0585 -0.5766
  100OSM   H15G10098   5.911   3.355   7.683 -0.0616  1.9730 -0.2901
  100OSM   C16F10099   5.725   3.448   7.643  0.0588  0.1931 -0.0968
  100OSM   H16F10100   5.749   3.556   7.652 -0.5432  0.5176 -1.9419
  100OSM   H16G10101   5.616   3.440   7.663  0.3269 -0.4888  1.1716
  100OSM   C17F10102   5.751   3.405   7.497 -0.3984 -0.3686 -0.3659
  100OSM   H17F10103   5.733   3.296   7.488  1.2412 -0.5984 -1.2539
  100OSM   H17G10104   5.853   3.411   7.453 -1.2266  2.1889 -2.2250
  100OSM   C18F10105   5.664   3.477   7.395 -0.3106  0.4936  0.1509
  100OSM   H18F10106   5.570   3.513   7.442 -0.0098  1.2614  0.1689
  100OSM   H18G10107   5.642   3.409   7.310  0.3694 -0.1770  0.4991
  100OSM   H18H10108   5.714   3.563   7.347  1.0997  0.5217  1.6161
  101OSM      N10109   1.339   4.050  10.020  0.3830 -0.0008 -0.2864
  101OSM    C1510110   1.239   3.983  10.109  0.2087  0.6445 -0.2618
  101OSM   H15A10111   1.272   3.963  10.210 -0.6851  2.0464  0.3347
  101OSM   H15B10112   1.212   3.891  10.060  0.1866 -0.3019  1.4632
  101OSM   H15C10113   1.149   4.043  10.114 -1.2806 -1.5730  3.0474
  101OSM    C1410114   1.365   4.183  10.078 -0.1180 -0.8035 -0.4142
  101OSM   H14A10115   1.428   4.183  10.165  1.3107  1.2325 -1.3666
  101OSM   H14B10116   1.272   4.224  10.114 -0.0286 -0.2148 -0.8397
  101OSM   H14C10117   1.403   4.247   9.999  0.8189 -0.4466  0.3176
  101OSM    C1310118   1.465   3.971  10.023  0.1212  0.4885  0.5664
  101OSM   H13A10119   1.517   3.967  10.118  0.0003 -2.0227  0.6103
  101OSM   H13B10120   1.529   4.018   9.950 -1.0361  2.5630  0.8239
  101OSM   H13C10121   1.440   3.870   9.994  1.4167 -0.2900  2.0039
  101OSM    C1210122   1.292   4.064   9.879  0.1472  0.1824 -1.2998
  101OSM   H12A10123   1.210   4.132   9.866  0.4236  1.0562  1.0509
  101OSM   H12B10124   1.263   3.963   9.854  0.9160 -1.3251  3.0863
  101OSM    C1110125   1.395   4.113   9.776 -0.4352  0.4351  0.1649
  101OSM   H11A10126   1.348   4.095   9.677  0.6984 -1.1731 -0.1195
  101OSM   H11B10127   1.496   4.066   9.779  0.1910  1.7561  0.5858
  101OSM      P10128   1.334   4.376   9.759  0.1208  0.2523 -0.1711
  101OSM    O1310129   1.211   4.317   9.708  0.3129  0.0374 -0.4479
  101OSM    O1410130   1.306   4.465   9.877 -0.2595 -0.4259 -0.2828
  101OSM    O1110131   1.409   4.454   9.645 -0.4288  0.2410 -0.3013
  101OSM    O1210132   1.425   4.252   9.794 -1.3164  0.4229 -0.3535
  101OSM    C1S10133   1.512   4.398   9.570  0.1171  0.3443  0.3396
  101OSM    H1S10134   1.573   4.326   9.630  1.6103  2.7333  1.8438
  101OSM    H1T10135   1.574   4.484   9.539 -0.2463  0.6243  0.3801
  101OSM     NF10136   1.578   4.273   9.366 -0.1163  0.0213 -0.3502
  101OSM    HNF10137   1.624   4.332   9.300  2.3600  0.9355  2.0027
  101OSM    C2S10138   1.462   4.326   9.443 -0.0899  0.3022 -0.3755
  101OSM    H2S10139   1.402   4.235   9.465  2.1527 -1.1884 -0.2001
  101OSM    C3S10140   1.371   4.429   9.369 -0.2991 -0.8336  1.1424
  101OSM    H3S10141   1.405   4.534   9.374 -1.4531 -0.3923  0.2634
  101OSM     O310142   1.236   4.441   9.408  1.1733  0.8722  0.2734
  101OSM    HO310143   1.232   4.392   9.491 -1.0294 -0.5650 -0.5941
  101OSM    C4S10144   1.358   4.400   9.222  0.3408 -0.6836 -0.3110
  101OSM    H4S10145   1.312   4.302   9.200 -1.4682  0.1200 -0.3511
  101OSM    C5S10146   1.393   4.476   9.114  0.0865  0.4230 -0.2618
  101OSM    H5S10147   1.450   4.568   9.133  1.6357 -0.6191  0.2952
  101OSM    C6S10148   1.372   4.433   8.968  0.2810 -0.0342 -0.5786
  101OSM    H6S10149   1.346   4.519   8.904  0.8492  0.5679 -0.0140
  101OSM    H6T10150   1.287   4.362   8.956 -1.3235  1.3580  1.6973
  101OSM    C7S10151   1.488   4.370   8.892 -0.2211  0.0807  0.3004
  101OSM    H7S10152   1.510   4.268   8.931  1.0193  0.5148  0.8182
  101OSM    H7T10153   1.584   4.424   8.905 -0.6936  2.0354 -3.1478
  101OSM    C8S10154   1.453   4.359   8.738 -0.0854  0.5217 -0.3145
  101OSM    H8S10155   1.439   4.455   8.685 -1.2180  0.4980 -0.0867
  101OSM    H8T10156   1.354   4.309   8.729 -0.1361  0.7113 -0.8189
  101OSM    C9S10157   1.571   4.278   8.681 -0.3545  0.4892  0.1631
  101OSM    H9S10158   1.576   4.182   8.737  0.8144  0.5191  0.1399
  101OSM    H9T10159   1.666   4.334   8.695 -0.9046  0.9601  2.3763
  101OSM   C10S10160   1.555   4.251   8.529 -0.3164 -0.0418 -0.5373
  101OSM   H10S10161   1.466   4.188   8.506  0.6709 -0.6410 -2.9535
  101OSM   H10T10162   1.636   4.185   8.490 -1.8476 -1.9804 -0.5965
  101OSM   C11S10163   1.549   4.381   8.446  0.1604 -0.4874 -0.0719
  101OSM   H11S10164   1.633   4.438   8.492 -0.2834 -2.0588  2.9412
  101OSM   H11T10165   1.454   4.438   8.458  0.5751 -0.1095  1.6491
  101OSM   C12S10166   1.558   4.361   8.296 -0.0126 -0.2000  0.1826
  101OSM   H12S10167   1.653   4.308   8.271 -0.7740 -0.5795 -2.1419
  101OSM   H12T10168   1.561   4.464   8.253 -0.2856  0.0357  0.7248
  101OSM   C13S10169   1.439   4.281   8.242  0.3129 -0.1692  0.6280
  101OSM   H13S10170   1.362   4.360   8.248  0.4359 -0.0770  1.0492
  101OSM   H13T10171   1.399   4.206   8.314  0.8366  0.8732  2.0625
  101OSM   C14S10172   1.452   4.231   8.101  0.0472 -0.0026 -0.6440
  101OSM   H14S10173   1.373   4.160   8.067 -0.0413 -0.1999 -0.0443
  101OSM   H14T10174   1.551   4.181   8.104  1.0246  1.8414  2.0207
  101OSM   C15S10175   1.439   4.342   7.995 -1.3279  0.1091  0.5036
  101OSM   H15S10176   1.540   4.387   7.992 -0.9212 -0.8283 -1.3535
  101OSM   H15T10177   1.355   4.404   8.034 -2.5608 -1.0281 -0.2652
  101OSM   C16S10178   1.386   4.298   7.860 -0.2486 -0.1685  0.0965
  101OSM   H16S10179   1.308   4.224   7.887 -1.8748  2.6648  4.3187
  101OSM   H16T10180   1.478   4.251   7.819 -0.5710  0.9345 -2.0148
  101OSM   C17S10181   1.340   4.420   7.771  0.0227 -0.8378 -0.0802
  101OSM   H17S10182   1.379   4.411   7.667 -0.4035  0.4723 -0.3797
  101OSM   H17T10183   1.380   4.514   7.814  2.4305 -1.8038 -0.0512
  101OSM   C18S10184   1.186   4.435   7.770  0.6451  0.3100  0.0352
  101OSM   H18S10185   1.140   4.344   7.724  1.0389  0.4563 -0.6636
  101OSM   H18T10186   1.147   4.516   7.704 -0.2195  0.3893  0.6231
  101OSM   H18U10187   1.139   4.435   7.871  1.6832 -0.8307  0.5358
  101OSM    C1F10188   1.657   4.172   9.408  0.4404  0.0910  0.5217
  101OSM     OF10189   1.642   4.121   9.516  0.4867 -0.2300  0.1738
  101OSM    C2F10190   1.766   4.128   9.313 -0.2480 -0.1177 -0.3389
  101OSM    H2F10191   1.782   4.019   9.326 -1.4139 -0.3665 -0.8387
  101OSM    H2G10192   1.860   4.186   9.318  0.5598 -0.9024 -3.7913
  101OSM    C3F10193   1.725   4.138   9.163  0.2731 -0.0257 -0.3115
  101OSM    H3F10194   1.735   4.244   9.133  2.4543  0.1293  0.8187
  101OSM    H3G10195   1.622   4.097   9.160  1.2177 -2.8782  1.8594
  101OSM    C4F10196   1.817   4.059   9.072  0.4476 -0.0658 -0.3854
  101OSM    H4F10197   1.834   3.958   9.115  0.5140  0.5072  0.9674
  101OSM    H4G10198   1.919   4.103   9.077  0.0765  0.7241  0.6613
  101OSM    C5F10199   1.759   4.038   8.925  0.2496 -0.5299 -0.4768
  101OSM    H5F10200   1.747   4.147   8.904  1.3587  0.0719  1.6694
  101OSM    H5G10201   1.653   4.007   8.911 -0.4042  1.9997 -1.9344
  101OSM    C6F10202   1.858   3.976   8.825 -0.4299  0.4327  0.1138
  101OSM    H6F10203   1.958   3.984   8.873  0.4608 -2.4947 -1.0527
  101OSM    H6G10204   1.833   3.869   8.809 -1.7017  0.5874  0.9122
  101OSM    C7F10205   1.846   4.063   8.691  0.3722  0.4062 -0.8078
  101OSM    H7F10206   1.868   4.165   8.728  2.0648  0.2405 -1.2782
  101OSM    H7G10207   1.745   4.065   8.646  1.3870  2.2555 -3.2279
  101OSM    C8F10208   1.944   4.013   8.579  0.1671 -0.9625  0.3995
  101OSM    H8F10209   2.043   4.054   8.607  0.2075 -1.7562  1.5095
  101OSM    H8G10210   1.917   4.070   8.488 -0.7607  1.2808  2.0010
  101OSM    C9F10211   1.940   3.862   8.578 -0.5999  0.0569  1.1549
  101OSM    H9F10212   2.000   3.812   8.655  0.9594 -0.6081 -0.4149
  101OSM   C10F10213   1.850   3.793   8.498  0.0504 -0.1144 -0.0146
  101OSM   H10F10214   1.850   3.683   8.499  1.5595 -0.1368  0.2747
  101OSM   C11F10215   1.744   3.859   8.417  0.0407 -0.5959 -0.2836
  101OSM   H11F10216   1.716   3.960   8.453  3.6987  0.4943 -0.0847
  101OSM   H11G10217   1.654   3.800   8.443  1.0612 -1.6442  1.0820
  101OSM   C12F10218   1.765   3.864   8.263 -0.1650  0.1084  0.5288
  101OSM   H12F10219   1.808   3.771   8.220  1.8716  1.1346  0.1983
  101OSM   H12G10220   1.842   3.942   8.243  0.9213 -0.9529  0.4160
  101OSM   C13F10221   1.641   3.912   8.182 -0.1753  0.2725  0.6854
  101OSM   H13F10222   1.595   4.004   8.224 -1.4254  0.2402 -0.5594
  101OSM   H13G10223   1.575   3.824   8.195 -1.0584  0.6197 -1.1263
  101OSM   C14F10224   1.667   3.930   8.031  0.7115 -0.1455  0.2473
  101OSM   H14F10225   1.732   4.016   8.008  0.8813 -0.2668  0.2720
  101OSM   H14G10226   1.575   3.940   7.969  1.8911 -1.6041 -1.8494
  101OSM   C15F10227   1.723   3.798   7.968  0.0531  0.4451 -0.6951
  101OSM   H15F10228   1.655   3.711   7.980 -0.4314  0.9957  0.7129
  101OSM   H15G10229   1.815   3.777   8.027 -0.4129 -0.8399 -0.3943
  101OSM   C16F10230   1.767   3.805   7.826 -0.0221  0.2915  0.6709
  101OSM   H16F10231   1.695   3.855   7.758  0.8481 -0.9475 -1.2370
  101OSM   H16G10232   1.772   3.707   7.776  0.5967  0.9992 -0.6898
  101OSM   C17F10233   1.901   3.882   7.796 -0.2567  0.4537 -0.1969
  101OSM   H17F10234   1.982   3.824   7.845  0.2652  1.3267 -0.0047
  101OSM   H17G10235   1.903   3.976   7.854 -0.8242  0.7082 -0.5831
  101OSM   C18F10236   1.948   3.913   7.653  0.5044 -0.3721  0.0397
  101OSM   H18F10237   1.970   3.816   7.604  1.7713 -0.9712  1.6858
  101OSM   H18G10238   2.031   3.986   7.665 -0.4791  0.6825  0.7007
  101OSM   H18H10239   1.862   3.971   7.613  0.9964  0.4257  0.1114
  102OSM      N10240   3.568   5.641  10.340 -0.1953  0.3224  0.4362
  102OSM    C1510241   3.642   5.542  10.418  0.3056 -0.2568 -0.5087
  102OSM   H15A10242   3.691   5.473  10.351  0.5256  2.7317 -3.6899
  102OSM   H15B10243   3.574   5.488  10.482  1.7756 -1.9469 -0.2922
  102OSM   H15C10244   3.719   5.584  10.480 -2.6661  0.9188  2.7010
  102OSM    C1410245   3.475   5.566  10.254  0.5888  0.0294 -0.9127
  102OSM   H14A10246   3.397   5.511  10.306 -0.2553  3.2207  1.5279
  102OSM   H14B10247   3.525   5.501  10.184 -0.9494 -0.1012 -1.9575
  102OSM   H14C10248   3.414   5.635  10.197  0.5545  1.7780  1.0956
  102OSM    C1310249   3.500   5.735  10.430  0.5105  0.4382 -0.4050
  102OSM   H13A10250   3.559   5.765  10.515  0.8190 -0.8114 -0.1542
  102OSM   H13B10251   3.413   5.696  10.482  0.1262  2.3844  0.5015
  102OSM   H13C10252   3.468   5.820  10.372  2.7733  1.4874 -0.2335
  102OSM    C1210253   3.657   5.729  10.252 -0.3176 -0.3577  0.2064
  102OSM   H12A10254   3.721   5.783  10.320  0.8784 -2.6483  1.0272
  102OSM   H12B10255   3.595   5.791  10.189  0.8510 -0.5697 -1.2007
  102OSM    C1110256   3.751   5.666  10.141  0.0959 -0.1315 -0.5518
  102OSM   H11A10257   3.803   5.579  10.185  2.1078  2.5685  2.9888
  102OSM   H11B10258   3.826   5.743  10.110 -1.9408  2.8867  1.3950
  102OSM      P10259   3.597   5.735   9.932 -0.4919 -0.0135  0.2384
  102OSM    O1310260   3.464   5.687   9.923  0.0557 -0.4503  0.2393
  102OSM    O1410261   3.617   5.872   9.985  0.8045 -0.8806 -0.6185
  102OSM    O1110262   3.680   5.741   9.797  0.8626  0.1497  0.8008
  102OSM    O1210263   3.679   5.631  10.021  0.2345 -0.8218 -0.3561
  102OSM    C1S10264   3.691   5.628   9.707  0.2940 -0.0251 -0.7392
  102OSM    H1S10265   3.611   5.551   9.711 -0.0390  0.3310 -0.5699
  102OSM    H1T10266   3.791   5.587   9.734  0.5258  1.4285  0.7645
  102OSM     NF10267   3.692   5.553   9.461 -0.8486 -0.2938  0.6768
  102OSM    HNF10268   3.780   5.529   9.422 -0.9305  0.8961 -0.3015
  102OSM    C2S10269   3.693   5.663   9.554 -0.7055 -0.4213 -0.6759
  102OSM    H2S10270   3.606   5.727   9.526 -0.1423  0.3850 -0.6042
  102OSM    C3S10271   3.805   5.765   9.527  0.4355 -0.3272  0.3088
  102OSM    H3S10272   3.906   5.732   9.558  0.7435 -1.0950 -1.3897
  102OSM     O310273   3.780   5.885   9.598  0.1683 -0.6024 -0.3703
  102OSM    HO310274   3.741   5.854   9.680  2.8744  1.7590  2.0686
  102OSM    C4S10275   3.804   5.808   9.380  0.1219 -0.7130  0.3302
  102OSM    H4S10276   3.719   5.867   9.342  0.6840 -0.4615 -0.5544
  102OSM    C5S10277   3.903   5.779   9.294 -0.3240  0.4534 -0.1241
  102OSM    H5S10278   3.987   5.731   9.347 -0.4460 -0.8670 -1.0884
  102OSM    C6S10279   3.914   5.831   9.151  0.5711  0.0704 -0.7523
  102OSM    H6S10280   4.014   5.801   9.113  0.2932 -2.8441  0.5808
  102OSM    H6T10281   3.919   5.941   9.166 -3.9132  0.2855  0.7625
  102OSM    C7S10282   3.808   5.794   9.047 -0.1657 -0.1601  0.7108
  102OSM    H7S10283   3.711   5.830   9.087  0.4816  1.4979  0.8705
  102OSM    H7T10284   3.796   5.684   9.045 -1.2450 -0.0994 -3.2111
  102OSM    C8S10285   3.846   5.853   8.908  0.4498 -0.0638 -0.4399
  102OSM    H8S10286   3.870   5.961   8.915  1.3600 -0.3442  1.2327
  102OSM    H8T10287   3.755   5.851   8.845 -0.3394  0.7873  0.6313
  102OSM    C9S10288   3.959   5.765   8.850  0.4676 -0.2698  0.1068
  102OSM    H9S10289   3.919   5.665   8.822 -0.9067  0.5311 -0.8536
  102OSM    H9T10290   4.042   5.763   8.924  0.8673  0.1440 -0.3216
  102OSM   C10S10291   4.006   5.830   8.724 -0.1001  0.0043 -0.5154
  102OSM   H10S10292   4.064   5.922   8.747  0.9676 -0.4678 -1.1939
  102OSM   H10T10293   3.924   5.855   8.654 -0.8906  0.2511  0.4760
  102OSM   C11S10294   4.110   5.750   8.656 -0.0304 -0.1830 -0.3709
  102OSM   H11S10295   4.068   5.649   8.635  0.7326 -0.8931  1.2685
  102OSM   H11T10296   4.194   5.735   8.728  0.9681  0.6252 -1.3444
  102OSM   C12S10297   4.166   5.818   8.533 -0.3328  0.1636 -0.2446
  102OSM   H12S10298   4.261   5.873   8.551 -1.0129  1.0214  0.8626
  102OSM   H12T10299   4.096   5.903   8.518  0.1545  0.9665  1.6766
  102OSM   C13S10300   4.194   5.731   8.412 -0.5175  0.3864 -0.1631
  102OSM   H13S10301   4.097   5.693   8.373 -1.2511 -3.3037  4.3718
  102OSM   H13T10302   4.256   5.646   8.449  0.9225  2.1660  1.7609
  102OSM   C14S10303   4.273   5.790   8.294 -0.1387 -0.0219 -0.9054
  102OSM   H14S10304   4.371   5.835   8.320  0.5612 -1.3215 -1.2477
  102OSM   H14T10305   4.203   5.870   8.261 -0.1407 -0.1253 -1.1508
  102OSM   C15S10306   4.288   5.683   8.178  0.3712  0.0463  0.1267
  102OSM   H15S10307   4.198   5.618   8.166  1.9250 -1.6631 -4.4536
  102OSM   H15T10308   4.372   5.619   8.213  0.1630  0.1408  0.8198
  102OSM   C16S10309   4.318   5.729   8.037 -0.2326 -0.3432  0.2121
  102OSM   H16S10310   4.238   5.805   8.022  1.4257  1.5912  0.7100
  102OSM   H16T10311   4.315   5.636   7.976 -2.0233 -0.9854  1.2222
  102OSM   C17S10312   4.451   5.810   8.035 -0.6459  0.2763  0.6043
  102OSM   H17S10313   4.520   5.755   8.102 -2.9548 -4.1266 -0.2120
  102OSM   H17T10314   4.446   5.920   8.048 -1.2375  0.3555 -0.2218
  102OSM   C18S10315   4.524   5.783   7.897  0.3894 -0.2084 -1.1047
  102OSM   H18S10316   4.491   5.862   7.827  4.1667  1.4997 -1.1898
  102OSM   H18T10317   4.503   5.681   7.858 -0.2356 -0.9844  1.0759
  102OSM   H18U10318   4.635   5.791   7.896  0.3500  0.4268 -2.6065
  102OSM    C1F10319   3.586   5.473   9.436 -0.2625 -0.7852  0.4000
  102OSM     OF10320   3.483   5.476   9.503 -0.1951 -0.1780 -0.5922
  102OSM    C2F10321   3.618   5.370   9.324  0.1701 -0.1415 -0.0808
  102OSM    H2F10322   3.630   5.270   9.370 -0.9278  0.2803  1.1847
  102OSM    H2G10323   3.722   5.388   9.288  0.9317 -2.4752  0.7501
  102OSM    C3F10324   3.518   5.377   9.209  0.0949  0.0264  0.3766
  102OSM    H3F10325   3.417   5.337   9.229 -0.4867  0.5151 -1.4362
  102OSM    H3G10326   3.568   5.306   9.139 -1.8512 -2.4658  1.3651
  102OSM    C4F10327   3.513   5.526   9.150 -0.2945  0.1959  0.4768
  102OSM    H4F10328   3.616   5.562   9.133  0.4770 -1.7316  0.8725
  102OSM    H4G10329   3.488   5.603   9.227 -0.2697 -0.6932  1.3953
  102OSM    C5F10330   3.429   5.549   9.030 -0.3795  0.5305  0.8576
  102OSM    H5F10331   3.468   5.484   8.949  0.3584 -0.1594  1.7450
  102OSM    H5G10332   3.429   5.650   8.985 -2.7751 -0.0988 -0.7167
  102OSM    C6F10333   3.281   5.519   9.050  0.3375 -0.4917  0.3934
  102OSM    H6F10334   3.227   5.583   9.124 -2.6895 -2.4642  0.0753
  102OSM    H6G10335   3.267   5.413   9.080 -1.1174 -0.2972  0.5191
  102OSM    C7F10336   3.205   5.550   8.920  0.8119  0.0976 -0.4912
  102OSM    H7F10337   3.254   5.512   8.828  0.4200 -0.6852 -0.3875
  102OSM    H7G10338   3.200   5.660   8.912  0.2972  0.1501  0.3836
  102OSM    C8F10339   3.064   5.486   8.937 -0.1779 -0.6203  0.1758
  102OSM    H8F10340   3.000   5.563   8.889  0.4593  1.7547  2.8282
  102OSM    H8G10341   3.029   5.503   9.041 -2.2087  0.8183 -0.6833
  102OSM    C9F10342   3.062   5.344   8.891 -0.1505 -0.1192 -0.2716
  102OSM    H9F10343   3.121   5.274   8.952  1.2422  1.0397 -0.2160
  102OSM   C10F10344   2.994   5.298   8.785 -0.5490 -0.3991 -0.1727
  102OSM   H10F10345   3.004   5.193   8.757 -0.0645 -0.9239  1.7751
  102OSM   C11F10346   2.909   5.381   8.691 -0.1808  0.0260  0.8664
  102OSM   H11F10347   2.858   5.465   8.743  0.3140  2.5670 -2.4536
  102OSM   H11G10348   2.832   5.317   8.644 -0.5525  0.9442  0.2085
  102OSM   C12F10349   2.989   5.440   8.568  0.4261  0.7071 -0.3704
  102OSM   H12F10350   3.063   5.514   8.606 -0.9427  1.2711  1.2892
  102OSM   H12G10351   2.919   5.497   8.503 -2.0516 -0.1699  1.4354
  102OSM   C13F10352   3.058   5.330   8.485 -0.4968  0.7402 -0.1417
  102OSM   H13F10353   3.135   5.276   8.544 -1.1176  0.8240  0.7746
  102OSM   H13G10354   3.117   5.384   8.408 -0.0609  0.7465  0.1946
  102OSM   C14F10355   2.967   5.234   8.409 -0.1184  0.4940  0.1381
  102OSM   H14F10356   2.923   5.159   8.478  1.8313 -1.9814 -1.1448
  102OSM   H14G10357   3.029   5.173   8.339 -1.7972  1.1505 -2.0146
  102OSM   C15F10358   2.853   5.299   8.324  0.0205 -0.3242 -0.1534
  102OSM   H15F10359   2.803   5.378   8.385  0.4586 -0.0492 -0.1446
  102OSM   H15G10360   2.774   5.222   8.316  0.8143 -1.3079  1.1017
  102OSM   C16F10361   2.889   5.341   8.180  0.4316  1.1080  0.0361
  102OSM   H16F10362   2.913   5.253   8.118  1.4875 -0.3908  2.4189
  102OSM   H16G10363   2.975   5.411   8.187  0.4493  1.1179 -0.2824
  102OSM   C17F10364   2.775   5.424   8.114  0.0550 -0.6940 -0.4979
  102OSM   H17F10365   2.778   5.515   8.177  1.2733 -1.4896  0.6443
  102OSM   H17G10366   2.680   5.370   8.133 -0.1142 -0.3921 -0.4794
  102OSM   C18F10367   2.795   5.435   7.968 -0.6256  0.2098  1.1335
  102OSM   H18F10368   2.727   5.506   7.918  0.8140 -0.9360 -2.8145
  102OSM   H18G10369   2.768   5.339   7.918 -1.7447  1.2985 -0.4614
  102OSM   H18H10370   2.898   5.467   7.942 -0.7765 -0.5248 -0.4811
  103OSM      N10371   2.380   1.238   9.741 -0.1181 -0.0498  0.3131
  103OSM    C1510372   2.312   1.152   9.846 -0.5967 -0.3575  0.2992
  103OSM   H15A10373   2.296   1.212   9.933 -0.2468 -0.0623  0.1632
  103OSM   H15B10374   2.368   1.062   9.872 -2.0370 -0.5114  3.1539
  103OSM   H15C10375   2.222   1.127   9.792 -1.1364 -0.9444  1.4458
  103OSM    C1410376   2.276   1.334   9.697  0.7871 -0.5657 -0.0450
  103OSM   H14A10377   2.315   1.386   9.611  2.3763 -0.1775  0.8739
  103OSM   H14B10378   2.258   1.406   9.776 -1.3963  0.3454 -1.2786
  103OSM   H14C10379   2.177   1.293   9.687 -0.0604  0.9611  1.5817
  103OSM    C1310380   2.490   1.325   9.805  0.6373  0.4626  1.0035
  103OSM   H13A10381   2.571   1.262   9.838  0.3627 -0.0687  0.6959
  103OSM   H13B10382   2.436   1.378   9.882 -2.0846 -0.0172 -0.4301
  103OSM   H13C10383   2.534   1.396   9.736  0.7030  1.4962  2.0820
  103OSM    C1210384   2.432   1.153   9.626  0.2121  0.0455 -0.0964
  103OSM   H12A10385   2.466   1.226   9.553 -1.0839 -1.0017 -1.8070
  103OSM   H12B10386   2.348   1.107   9.577 -0.8921 -0.0379  1.8059
  103OSM    C1110387   2.547   1.047   9.645 -0.1116 -0.3522  0.4905
  103OSM   H11A10388   2.642   1.105   9.640 -1.0675  1.2490  0.2345
  103OSM   H11B10389   2.548   0.976   9.560  0.3272  0.5766 -0.3049
  103OSM      P10390   2.630   0.969   9.880  0.3084 -0.2109  0.1075
  103OSM    O1310391   2.678   1.106   9.912  0.0017 -0.0621 -0.4872
  103OSM    O1410392   2.561   0.908   9.993  0.1682  0.7557  0.4209
  103OSM    O1110393   2.748   0.876   9.827 -0.5032  0.2592 -0.1524
  103OSM    O1210394   2.532   0.964   9.760  0.0732  0.1641  0.0344
  103OSM    C1S10395   2.745   0.740   9.807 -0.4376 -0.0573 -0.6689
  103OSM    H1S10396   2.644   0.696   9.825  0.3007 -2.8282 -2.5401
  103OSM    H1T10397   2.812   0.696   9.884 -0.3929 -0.7993 -1.1204
  103OSM     NF10398   2.811   0.539   9.681 -0.2360 -0.3946  0.3697
  103OSM    HNF10399   2.904   0.504   9.690  0.6737  1.4070 -1.3222
  103OSM    C2S10400   2.803   0.685   9.677  0.8540  0.3693 -0.0937
  103OSM    H2S10401   2.732   0.720   9.599  1.0773 -0.5639 -0.7261
  103OSM    C3S10402   2.929   0.749   9.623 -0.3340 -0.2012  0.6084
  103OSM    H3S10403   3.018   0.719   9.681  1.5803  2.3655 -0.7808
  103OSM     O310404   2.932   0.885   9.647  0.4101 -0.3241  0.5075
  103OSM    HO310405   2.867   0.902   9.716  0.9694 -1.2350  1.2818
  103OSM    C4S10406   2.964   0.715   9.480 -0.3149  0.0147 -0.0382
  103OSM    H4S10407   3.047   0.644   9.467  0.6354  1.2182 -0.6985
  103OSM    C5S10408   2.914   0.777   9.369  0.7875  0.4325 -0.3567
  103OSM    H5S10409   2.843   0.859   9.384 -0.9601 -1.3104  1.5742
  103OSM    C6S10410   2.965   0.761   9.227  1.1172 -0.3987 -0.4852
  103OSM    H6S10411   2.886   0.718   9.162  0.5952  2.7893 -2.1315
  103OSM    H6T10412   3.051   0.692   9.216  2.1692  0.8881 -0.5389
  103OSM    C7S10413   3.001   0.885   9.147  0.3804  0.0547 -0.4547
  103OSM    H7S10414   3.056   0.950   9.219 -2.7757 -0.8325  3.0462
  103OSM    H7T10415   2.910   0.936   9.109 -1.3601 -1.6388  1.2747
  103OSM    C8S10416   3.105   0.857   9.030  0.3238 -0.2631  0.8184
  103OSM    H8S10417   3.164   0.766   9.056  0.3522 -0.2564  0.7772
  103OSM    H8T10418   3.170   0.947   9.022  0.2249 -0.2348  0.3086
  103OSM    C9S10419   3.038   0.847   8.893 -0.0717 -0.1323  0.0768
  103OSM    H9S10420   2.984   0.940   8.863 -1.6612 -0.8652  0.5348
  103OSM    H9T10421   2.976   0.755   8.893  0.5106 -0.5361 -0.7619
  103OSM   C10S10422   3.146   0.829   8.786  0.1538 -0.3005 -1.2505
  103OSM   H10S10423   3.231   0.765   8.819 -1.7715 -2.4346 -0.2064
  103OSM   H10T10424   3.187   0.929   8.760  0.9909 -0.2025  0.3167
  103OSM   C11S10425   3.106   0.767   8.655  0.6915  0.3141 -0.1620
  103OSM   H11S10426   3.032   0.838   8.612  0.9752  1.0406  0.5160
  103OSM   H11T10427   3.064   0.665   8.662  0.2592  0.3633 -1.7424
  103OSM   C12S10428   3.221   0.773   8.548 -0.4930 -0.2328 -0.1633
  103OSM   H12S10429   3.295   0.693   8.570 -1.1075 -0.2713  2.0259
  103OSM   H12T10430   3.258   0.878   8.548 -1.0769 -0.0186 -0.1871
  103OSM   C13S10431   3.169   0.744   8.405 -0.2668 -0.4697  0.7711
  103OSM   H13S10432   3.087   0.814   8.378  0.1016 -0.1576  0.4402
  103OSM   H13T10433   3.120   0.645   8.412  0.9566 -1.0186  1.9393
  103OSM   C14S10434   3.283   0.740   8.300 -0.3118  0.2149  0.1493
  103OSM   H14S10435   3.337   0.644   8.316 -2.9362 -1.5010 -0.5829
  103OSM   H14T10436   3.352   0.824   8.321  0.9380 -0.5727 -0.6972
  103OSM   C15S10437   3.225   0.754   8.158  0.3655  0.2277 -0.3682
  103OSM   H15S10438   3.180   0.854   8.144  1.3291  0.5175 -1.5587
  103OSM   H15T10439   3.147   0.678   8.138  0.3941 -1.3839  4.3013
  103OSM   C16S10440   3.337   0.739   8.053 -0.4487  0.0138  0.4514
  103OSM   H16S10441   3.402   0.655   8.085  1.8873  2.3089  2.2944
  103OSM   H16T10442   3.401   0.830   8.056  0.2473 -0.4493 -0.0466
  103OSM   C17S10443   3.282   0.739   7.904 -0.2602  0.0096 -0.0618
  103OSM   H17S10444   3.256   0.842   7.870  2.2001  0.3361 -1.1321
  103OSM   H17T10445   3.198   0.666   7.906  2.2985 -3.1822 -0.7015
  103OSM   C18S10446   3.391   0.685   7.816 -0.3205  0.0244  0.2839
  103OSM   H18S10447   3.354   0.690   7.712 -0.4641  0.1784  0.3430
  103OSM   H18T10448   3.414   0.577   7.829  0.4404  0.0761 -0.4911
  103OSM   H18U10449   3.481   0.748   7.829 -0.5892  0.5434 -0.3717
  103OSM    C1F10450   2.702   0.463   9.668 -0.8516  0.3086  0.2375
  103OSM     OF10451   2.591   0.503   9.652 -0.0864 -0.8485 -0.5556
  103OSM    C2F10452   2.718   0.315   9.688 -0.5306  0.6636 -0.1165
  103OSM    H2F10453   2.649   0.271   9.764  1.0144 -0.0033  0.9635
  103OSM    H2G10454   2.819   0.281   9.723 -1.1756 -1.3346 -0.0705
  103OSM    C3F10455   2.687   0.248   9.557  0.1025 -0.4399  0.2801
  103OSM    H3F10456   2.591   0.283   9.515  0.0960 -0.9392 -0.1297
  103OSM    H3G10457   2.684   0.138   9.576 -0.2209 -0.5062 -0.1539
  103OSM    C4F10458   2.795   0.272   9.442  0.5284 -0.0765  0.2154
  103OSM    H4F10459   2.878   0.198   9.444  1.8876  1.3710  1.8225
  103OSM    H4G10460   2.839   0.373   9.457 -0.2550  1.0021 -3.6256
  103OSM    C5F10461   2.722   0.270   9.304  0.0229 -0.3632  0.1555
  103OSM    H5F10462   2.624   0.322   9.304 -0.0129 -0.4080  1.3223
  103OSM    H5G10463   2.692   0.163   9.298 -0.9505 -0.2765  2.5842
  103OSM    C6F10464   2.818   0.318   9.194  0.9676  0.2941  0.4588
  103OSM    H6F10465   2.918   0.268   9.197  0.7975 -0.0835 -0.0883
  103OSM    H6G10466   2.842   0.426   9.194  2.0128  0.0749  0.1044
  103OSM    C7F10467   2.767   0.292   9.045 -0.4578  0.6572  0.1910
  103OSM    H7F10468   2.749   0.182   9.043  1.0109  0.4156 -0.6673
  103OSM    H7G10469   2.844   0.312   8.968 -2.0981 -2.4613 -2.5451
  103OSM    C8F10470   2.643   0.361   9.006 -0.2830 -0.5622  0.3994
  103OSM    H8F10471   2.567   0.353   9.087 -0.7782  1.9781  0.2447
  103OSM    H8G10472   2.601   0.312   8.915  0.4749  1.6706 -1.2192
  103OSM    C9F10473   2.677   0.510   8.992  0.0356  0.0885 -0.0986
  103OSM    H9F10474   2.720   0.551   9.084  1.3018 -3.9721  1.3769
  103OSM   C10F10475   2.657   0.586   8.884 -0.5621 -0.1850 -0.1816
  103OSM   H10F10476   2.702   0.686   8.887 -0.7224 -0.1292  0.8835
  103OSM   C11F10477   2.597   0.554   8.748 -0.0213  0.3610  0.3367
  103OSM   H11F10478   2.532   0.641   8.727  1.2894  0.5734 -3.7902
  103OSM   H11G10479   2.526   0.470   8.742  1.0916 -0.5956  0.1672
  103OSM   C12F10480   2.707   0.537   8.639  0.1981 -0.4401  0.2540
  103OSM   H12F10481   2.758   0.439   8.651  0.4549 -0.3126  0.2223
  103OSM   H12G10482   2.791   0.609   8.651  1.0962 -1.6552  1.5491
  103OSM   C13F10483   2.646   0.544   8.499  0.1590  0.7629 -0.4052
  103OSM   H13F10484   2.571   0.626   8.506 -0.5686  0.0253  0.9434
  103OSM   H13G10485   2.581   0.454   8.496  1.8945 -0.6702  1.7739
  103OSM   C14F10486   2.749   0.547   8.392 -0.9559 -0.1188  0.4843
  103OSM   H14F10487   2.808   0.453   8.391 -1.0685 -0.1948  0.7610
  103OSM   H14G10488   2.823   0.629   8.410  1.0031 -1.6091 -0.3850
  103OSM   C15F10489   2.705   0.557   8.250 -0.6743  0.2244 -0.6504
  103OSM   H15F10490   2.655   0.655   8.243 -0.2787  0.7247  2.1898
  103OSM   H15G10491   2.642   0.470   8.220 -1.8205  0.4689  0.9276
  103OSM   C16F10492   2.817   0.554   8.157  0.1536  0.1734  0.5662
  103OSM   H16F10493   2.888   0.468   8.160  1.8233  1.4614 -0.0351
  103OSM   H16G10494   2.884   0.639   8.183  1.2846 -1.0228  1.7322
  103OSM   C17F10495   2.777   0.575   8.013  0.4470  0.4532 -0.0699
  103OSM   H17F10496   2.724   0.672   8.008  1.6305  1.0787 -1.4296
  103OSM   H17G10497   2.699   0.502   7.985 -0.4826  1.2314  0.4495
  103OSM   C18F10498   2.890   0.587   7.913  0.1636  0.2258  0.0322
  103OSM   H18F10499   2.947   0.680   7.934 -0.8753  0.9526 -0.2932
  103OSM   H18G10500   2.844   0.609   7.814 -1.0894  3.3575  1.1831
  103OSM   H18H10501   2.953   0.495   7.919  2.0851  1.4904  0.1940
  104OSM      N10502   3.165   0.904  10.089 -0.1474  1.2439  0.5528
  104OSM    C1510503   3.239   1.022  10.144  0.1796  0.0363 -0.5595
  104OSM   H15A10504   3.185   1.114  10.129  0.5150 -0.0244 -2.3100
  104OSM   H15B10505   3.331   1.033  10.089  0.5630  0.8499  0.2303
  104OSM   H15C10506   3.263   1.006  10.248  1.4916  0.8091 -0.7197
  104OSM    C1410507   3.262   0.787  10.103  0.2968  0.5547 -0.3427
  104OSM   H14A10508   3.272   0.750  10.204 -1.1953 -0.0608 -0.3885
  104OSM   H14B10509   3.348   0.800  10.038  1.6697  0.0257  1.3110
  104OSM   H14C10510   3.217   0.701  10.055  1.1536 -0.0265 -0.1127
  104OSM    C1310511   3.048   0.866  10.170 -0.6227  0.7984 -0.7145
  104OSM   H13A10512   2.999   0.774  10.141 -0.6634 -0.1108  1.9519
  104OSM   H13B10513   2.975   0.944  10.183 -0.5692  0.5888  1.1859
  104OSM   H13C10514   3.072   0.831  10.270  0.1267 -0.8357 -1.4228
  104OSM    C1210515   3.129   0.915   9.945 -0.6022  0.2989  0.8828
  104OSM   H12A10516   3.034   0.965   9.939 -0.8785 -0.1423  1.4727
  104OSM   H12B10517   3.121   0.814   9.906 -2.7687  0.3924  0.9822
  104OSM    C1110518   3.225   0.991   9.848  0.4806  0.2676  0.1385
  104OSM   H11A10519   3.227   1.102   9.855  1.3966  0.1685  1.7583
  104OSM   H11B10520   3.181   0.970   9.748  0.8353  2.3928 -0.5242
  104OSM      P10521   3.472   0.959   9.771 -0.3136 -0.4313 -0.2260
  104OSM    O1310522   3.584   1.036   9.834  0.0956 -0.7495 -0.6322
  104OSM    O1410523   3.510   0.830   9.710  0.0870 -0.0648  0.1383
  104OSM    O1110524   3.406   1.050   9.661 -0.0094  0.1594 -0.6185
  104OSM    O1210525   3.358   0.938   9.873 -0.2667  0.4137  0.3932
  104OSM    C1S10526   3.472   1.161   9.597  0.8187  0.1480 -0.3391
  104OSM    H1S10527   3.558   1.202   9.653 -0.9944  1.2032  1.7853
  104OSM    H1T10528   3.400   1.243   9.581  0.0900 -0.4273 -0.0772
  104OSM     NF10529   3.628   1.185   9.402 -0.5997 -0.2528 -0.6316
  104OSM    HNF10530   3.605   1.245   9.326 -0.8419  1.9477  1.1014
  104OSM    C2S10531   3.532   1.099   9.466 -0.3063 -0.5348 -0.0205
  104OSM    H2S10532   3.588   1.006   9.492 -0.2640 -0.8320 -1.0918
  104OSM    C3S10533   3.420   1.050   9.367 -0.5968  0.0531  0.6298
  104OSM    H3S10534   3.370   1.139   9.321  0.8860  0.2639 -0.6684
  104OSM     O310535   3.314   0.983   9.429 -0.3938 -0.4320 -0.4917
  104OSM    HO310536   3.315   1.009   9.522 -2.3090  0.8532 -0.7824
  104OSM    C4S10537   3.472   0.965   9.254 -0.1577  0.5287 -0.5009
  104OSM    H4S10538   3.520   0.872   9.289  0.7156  1.0129 -0.3597
  104OSM    C5S10539   3.476   1.001   9.124  0.1310 -0.8432 -0.3020
  104OSM    H5S10540   3.445   1.101   9.091  0.6769 -0.0548  1.4569
  104OSM    C6S10541   3.531   0.915   9.016 -0.1315  0.3595 -0.7797
  104OSM    H6S10542   3.450   0.892   8.943 -1.5259  1.4945  0.3465
  104OSM    H6T10543   3.559   0.816   9.057 -1.6399 -0.3616 -1.3849
  104OSM    C7S10544   3.652   0.988   8.943  0.1993  0.0045  0.0924
  104OSM    H7S10545   3.730   0.989   9.022  0.4374 -0.7467 -0.1286
  104OSM    H7T10546   3.620   1.089   8.910 -0.7466 -0.0871  0.6827
  104OSM    C8S10547   3.711   0.906   8.826 -0.2218 -0.6484  0.6194
  104OSM    H8S10548   3.744   0.813   8.875 -0.9635 -0.4563  1.5187
  104OSM    H8T10549   3.810   0.947   8.795 -0.3225  0.3938  1.6073
  104OSM    C9S10550   3.629   0.881   8.700  0.7462 -0.7751 -0.2640
  104OSM    H9S10551   3.584   0.978   8.667 -2.6368 -1.7558  1.0388
  104OSM    H9T10552   3.541   0.821   8.731 -1.2295  1.3821 -1.3238
  104OSM   C10S10553   3.710   0.814   8.588 -0.7054 -0.4135 -0.3547
  104OSM   H10S10554   3.757   0.721   8.629  1.6557  0.1447 -1.6289
  104OSM   H10T10555   3.791   0.884   8.560 -0.6343 -0.7340 -0.9565
  104OSM   C11S10556   3.631   0.778   8.459 -0.0914 -0.1489 -0.3574
  104OSM   H11S10557   3.550   0.849   8.433 -1.3110 -1.9807 -1.8288
  104OSM   H11T10558   3.582   0.679   8.472  3.0444 -1.6783  0.9239
  104OSM   C12S10559   3.721   0.770   8.338 -0.5522  0.3079 -0.4107
  104OSM   H12S10560   3.821   0.732   8.369 -0.6949  0.1194 -0.1859
  104OSM   H12T10561   3.743   0.876   8.313  2.8962  0.2479  1.6936
  104OSM   C13S10562   3.664   0.676   8.237 -0.0608  0.4476 -0.5299
  104OSM   H13S10563   3.605   0.733   8.163 -0.4744 -1.0479 -1.3900
  104OSM   H13T10564   3.597   0.606   8.292  1.7364 -0.8338  0.1276
  104OSM   C14S10565   3.776   0.590   8.172  0.2017 -0.4246 -0.3186
  104OSM   H14S10566   3.817   0.517   8.244  0.3501 -0.6045 -0.5817
  104OSM   H14T10567   3.861   0.655   8.142 -0.7384  1.3157  0.6320
  104OSM   C15S10568   3.730   0.496   8.061 -0.3506 -0.8342 -0.2839
  104OSM   H15S10569   3.694   0.554   7.974  0.9125 -0.7229 -0.7495
  104OSM   H15T10570   3.644   0.445   8.110 -1.8217  2.2652  0.6140
  104OSM   C16S10571   3.833   0.400   7.998 -0.2158 -0.0895  0.1809
  104OSM   H16S10572   3.901   0.472   7.949  0.6073 -0.4326  0.7931
  104OSM   H16T10573   3.785   0.333   7.924  2.3478 -1.3063 -0.4870
  104OSM   C17S10574   3.910   0.310   8.097  0.5647  0.6707  0.7451
  104OSM   H17S10575   3.838   0.256   8.162  1.4590  0.1678  1.3418
  104OSM   H17T10576   3.977   0.371   8.162  3.2225  0.0985 -1.3092
  104OSM   C18S10577   4.003   0.209   8.022  0.5243 -0.1609 -0.2241
  104OSM   H18S10578   4.088   0.183   8.089  0.0712  0.6038  0.6760
  104OSM   H18T10579   4.046   0.253   7.930  2.3150 -1.7414 -0.2137
  104OSM   H18U10580   3.950   0.114   7.997 -0.7081  0.6106 -0.6823
  104OSM    C1F10581   3.758   1.205   9.444 -0.1666  0.8364 -0.2620
  104OSM     OF10582   3.818   1.137   9.528 -0.2957 -0.0585 -0.1357
  104OSM    C2F10583   3.827   1.302   9.357  0.2057 -0.6333 -0.5101
  104OSM    H2F10584   3.884   1.376   9.417  0.2067 -1.0211 -0.0235
  104OSM    H2G10585   3.755   1.361   9.296 -0.8082  1.0424  2.1370
  104OSM    C3F10586   3.929   1.239   9.266 -0.1615 -0.2237  0.3062
  104OSM    H3F10587   3.871   1.165   9.207 -0.4812 -0.4914  0.9511
  104OSM    H3G10588   4.010   1.190   9.324 -0.4542  0.0724  0.9639
  104OSM    C4F10589   3.986   1.339   9.158 -0.2418  0.1151  0.2530
  104OSM    H4F10590   4.062   1.391   9.221  1.6245 -0.6345 -1.2720
  104OSM    H4G10591   3.920   1.419   9.119 -1.3646 -2.1978 -2.9753
  104OSM    C5F10592   4.049   1.279   9.030 -0.3874 -0.1444 -0.2317
  104OSM    H5F10593   3.971   1.224   8.974  0.5535 -1.0070 -0.7158
  104OSM    H5G10594   4.119   1.198   9.058  0.4355 -0.5256 -3.0587
  104OSM    C6F10595   4.127   1.385   8.945 -0.8077  0.0166  0.1977
  104OSM    H6F10596   4.202   1.436   9.009 -0.6974 -0.5319  0.5089
  104OSM    H6G10597   4.051   1.456   8.905  0.2683  0.4023 -1.2359
  104OSM    C7F10598   4.216   1.329   8.829  0.4635  0.0518  0.1079
  104OSM    H7F10599   4.306   1.278   8.869  0.9710 -1.0344 -2.2401
  104OSM    H7G10600   4.267   1.414   8.780  1.8171  0.1267  1.5708
  104OSM    C8F10601   4.145   1.229   8.740  0.4910 -0.0663 -0.5195
  104OSM    H8F10602   4.077   1.160   8.795 -1.2956  0.9648 -1.3517
  104OSM    H8G10603   4.222   1.162   8.696  1.5653  0.9886 -0.2938
  104OSM    C9F10604   4.063   1.311   8.639 -0.0833  0.6720 -0.5701
  104OSM    H9F10605   3.994   1.388   8.675 -0.9711 -1.1118  1.8136
  104OSM   C10F10606   4.089   1.289   8.508 -0.0873 -0.3035  0.3936
  104OSM   H10F10607   4.024   1.337   8.433  0.3992 -1.5890 -0.8940
  104OSM   C11F10608   4.186   1.194   8.444  0.2589 -0.0909  0.7124
  104OSM   H11F10609   4.173   1.090   8.481 -0.8681  0.0825  0.8455
  104OSM   H11G10610   4.287   1.235   8.467 -0.1998  1.2449  0.4342
  104OSM   C12F10611   4.172   1.198   8.293  0.1116 -0.7209  0.6437
  104OSM   H12F10612   4.239   1.128   8.239 -1.7542 -1.7679 -0.4446
  104OSM   H12G10613   4.184   1.302   8.255  4.8372 -1.6904 -1.3152
  104OSM   C13F10614   4.038   1.151   8.234 -0.0703 -0.3163 -0.9029
  104OSM   H13F10615   3.996   1.241   8.183 -0.7008 -0.0236  0.1073
  104OSM   H13G10616   3.970   1.116   8.315  0.0288 -2.1974 -1.5873
  104OSM   C14F10617   4.057   1.041   8.128  0.9698  0.3334  0.2605
  104OSM   H14F10618   4.092   0.944   8.169 -2.9155 -1.7285 -0.7627
  104OSM   H14G10619   4.126   1.078   8.050  0.8394  0.7072  0.3190
  104OSM   C15F10620   3.920   1.011   8.057  0.1459 -0.0241 -0.1182
  104OSM   H15F10621   3.890   1.108   8.012 -0.5407 -0.6097 -0.9564
  104OSM   H15G10622   3.842   0.989   8.134 -2.6103 -0.3724 -2.8405
  104OSM   C16F10623   3.926   0.900   7.954  0.9374  0.4301 -0.3168
  104OSM   H16F10624   3.970   0.815   8.011  2.0468  1.1148 -0.1345
  104OSM   H16G10625   3.984   0.929   7.864 -0.8758  3.2448 -0.6821
  104OSM   C17F10626   3.784   0.877   7.898 -0.1861  0.7116 -0.0696
  104OSM   H17F10627   3.759   0.966   7.836 -0.7265 -0.6852 -1.9689
  104OSM   H17G10628   3.709   0.857   7.978 -0.1745 -1.7079 -0.6125
  104OSM   C18F10629   3.804   0.754   7.805  0.6408  0.2119 -0.8631
  104OSM   H18F10630   3.706   0.721   7.764  0.0190  0.0963  0.6283
  104OSM   H18G10631   3.842   0.681   7.879  0.4507  0.5306 -0.4416
  104OSM   H18H10632   3.890   0.779   7.739  1.8319 -0.4595  0.3962
  105OSM      N10633   0.729   4.444   9.815  0.3683 -0.0511  0.0751
  105OSM    C1510634   0.752   4.305   9.865 -0.7791 -0.3150 -0.9049
  105OSM   H15A10635   0.822   4.308   9.947 -1.9657  0.9077  0.1120
  105OSM   H15B10636   0.785   4.231   9.794  0.0302 -0.7941 -0.0500
  105OSM   H15C10637   0.663   4.255   9.899  0.4637 -1.6379  0.5243
  105OSM    C1410638   0.720   4.530   9.930 -0.3864 -0.3280 -0.1359
  105OSM   H14A10639   0.819   4.547   9.970 -0.3174 -1.9882  0.4618
  105OSM   H14B10640   0.647   4.501  10.005 -0.8761  0.1378 -0.4209
  105OSM   H14C10641   0.673   4.623   9.902 -0.6370  0.1082  1.5733
  105OSM    C1310642   0.842   4.479   9.724 -0.0583  0.5346 -0.3663
  105OSM   H13A10643   0.805   4.565   9.670 -1.9838  0.2245  0.3973
  105OSM   H13B10644   0.866   4.404   9.650  1.2815 -0.2232  0.7715
  105OSM   H13C10645   0.932   4.502   9.780 -0.3027  1.1027 -0.2008
  105OSM    C1210646   0.587   4.448   9.753 -0.5180  0.4157 -0.2380
  105OSM   H12A10647   0.520   4.412   9.829 -0.9241 -1.1533 -1.2734
  105OSM   H12B10648   0.579   4.375   9.673  2.8260  1.7062 -1.9561
  105OSM    C1110649   0.534   4.589   9.699  0.4634  0.0463  0.4497
  105OSM   H11A10650   0.425   4.573   9.684  0.4177  0.9438 -0.2084
  105OSM   H11B10651   0.575   4.605   9.597 -0.3241 -1.4083 -0.1375
  105OSM      P10652   0.474   4.835   9.751  0.1906  0.2855  0.4694
  105OSM    O1310653   0.335   4.796   9.720 -0.3038  0.2934 -0.5006
  105OSM    O1410654   0.486   4.921   9.872 -0.3072  0.2512  0.2361
  105OSM    O1110655   0.555   4.901   9.637  0.0617  0.8799  0.1926
  105OSM    O1210656   0.556   4.701   9.781  0.1963 -0.0306  0.1100
  105OSM    C1S10657   0.700   4.889   9.617  0.7749 -0.3264  0.0354
  105OSM    H1S10658   0.721   4.787   9.656 -1.2761 -1.2733 -1.1872
  105OSM    H1T10659   0.747   4.960   9.689  1.3809  0.2743 -0.9254
  105OSM     NF10660   0.896   4.899   9.467  0.8229  0.0081 -0.6246
  105OSM    HNF10661   0.959   4.974   9.484 -1.5378  1.6645  1.6680
  105OSM    C2S10662   0.761   4.932   9.480  0.2530  0.3894 -0.0548
  105OSM    H2S10663   0.711   4.870   9.403  1.3316 -0.7183  0.1259
  105OSM    C3S10664   0.720   5.080   9.456 -0.6526  0.4288  0.2191
  105OSM    H3S10665   0.783   5.143   9.523 -1.2806  0.9627  0.3246
  105OSM     O310666   0.584   5.108   9.497 -0.2861 -0.5607 -0.8730
  105OSM    HO310667   0.558   5.024   9.536 -1.3594  0.5088  0.8594
  105OSM    C4S10668   0.753   5.124   9.323 -0.0403 -0.2657  0.5370
  105OSM    H4S10669   0.844   5.186   9.318  0.4351 -1.0054 -0.1435
  105OSM    C5S10670   0.703   5.090   9.204  0.1688 -1.1086  0.5087
  105OSM    H5S10671   0.619   5.019   9.199 -0.0144 -0.8300 -0.6234
  105OSM    C6S10672   0.749   5.141   9.072 -0.0233 -0.3584  0.2041
  105OSM    H6S10673   0.720   5.248   9.068 -1.0622 -0.6548 -0.3617
  105OSM    H6T10674   0.685   5.085   9.001  0.3120  0.8984 -1.1502
  105OSM    C7S10675   0.893   5.118   9.019 -0.3325 -0.3109  0.1594
  105OSM    H7S10676   0.930   5.016   9.041  0.9853 -0.2567 -1.4975
  105OSM    H7T10677   0.963   5.188   9.070 -0.8015  0.1952  0.1243
  105OSM    C8S10678   0.922   5.157   8.872 -0.3970  0.0846 -0.2178
  105OSM    H8S10679   1.024   5.116   8.856  0.3672  1.4382  0.9516
  105OSM    H8T10680   0.925   5.268   8.868 -0.0854  0.0518 -1.4514
  105OSM    C9S10681   0.810   5.098   8.772  0.1203 -0.5766 -0.0837
  105OSM    H9S10682   0.718   5.149   8.806 -0.5183 -1.4370 -0.4937
  105OSM    H9T10683   0.813   4.992   8.803  1.6172 -0.1026  1.5358
  105OSM   C10S10684   0.825   5.110   8.612 -0.0138 -0.2998  0.8384
  105OSM   H10S10685   0.795   5.213   8.582  0.2115 -0.0793  1.3415
  105OSM   H10T10686   0.755   5.031   8.578 -1.8572  1.2948  0.7465
  105OSM   C11S10687   0.965   5.075   8.557 -0.1956 -0.0052  0.0234
  105OSM   H11S10688   0.999   4.991   8.621 -2.0999 -0.0348  1.0685
  105OSM   H11T10689   1.026   5.164   8.585 -2.6734  1.4510  1.1086
  105OSM   C12S10690   0.979   5.045   8.410 -0.4447  0.6732 -1.1377
  105OSM   H12S10691   0.897   4.981   8.371 -0.6296  0.4555 -0.4129
  105OSM   H12T10692   1.069   4.982   8.395  0.6893  2.2080 -1.0180
  105OSM   C13S10693   0.989   5.167   8.319  0.2833  0.4605 -0.5754
  105OSM   H13S10694   1.073   5.227   8.359 -1.1559  2.2143 -0.0151
  105OSM   H13T10695   0.896   5.222   8.348 -0.9512 -1.3959 -0.8008
  105OSM   C14S10696   0.999   5.147   8.167  0.5677 -0.0208 -0.1394
  105OSM   H14S10697   1.088   5.087   8.137  0.9195  0.0487  0.7070
  105OSM   H14T10698   1.020   5.246   8.121 -1.3911  0.0011 -1.0808
  105OSM   C15S10699   0.869   5.090   8.113  0.3433  0.4853  0.2194
  105OSM   H15S10700   0.808   5.182   8.122  1.4052  1.2326  0.0024
  105OSM   H15T10701   0.828   5.011   8.179  0.3218  0.2845 -0.0336
  105OSM   C16S10702   0.885   5.032   7.969 -0.4338  0.0039 -0.1114
  105OSM   H16S10703   0.808   4.951   7.965 -1.3357  0.8886 -1.6828
  105OSM   H16T10704   0.981   4.978   7.958 -0.3828 -0.0974  0.7555
  105OSM   C17S10705   0.872   5.128   7.850  0.3720  0.3969  0.0835
  105OSM   H17S10706   0.887   5.078   7.751  1.6173 -2.5813  1.6437
  105OSM   H17T10707   0.955   5.201   7.861 -0.1421  0.5212  5.6696
  105OSM   C18S10708   0.728   5.176   7.850  1.1301  0.1395 -0.7945
  105OSM   H18S10709   0.700   5.235   7.760 -0.9364  0.4169 -0.0272
  105OSM   H18T10710   0.726   5.248   7.934 -1.0906  0.7162 -1.2857
  105OSM   H18U10711   0.649   5.101   7.871  0.0823  0.9963 -1.5485
  105OSM    C1F10712   0.942   4.774   9.463  0.8864 -0.0050  0.6565
  105OSM     OF10713   0.862   4.675   9.474  0.2858  0.0629 -0.7856
  105OSM    C2F10714   1.087   4.753   9.443 -0.2729 -0.1919  0.3057
  105OSM    H2F10715   1.093   4.642   9.450 -2.0563 -0.5435 -2.2297
  105OSM    H2G10716   1.134   4.794   9.535  0.2544  1.5801 -0.7051
  105OSM    C3F10717   1.134   4.798   9.298 -0.2644 -0.0761 -0.6595
  105OSM    H3F10718   1.238   4.760   9.295 -0.1707  0.1575 -0.3781
  105OSM    H3G10719   1.135   4.908   9.287 -2.8679 -0.0801 -1.6045
  105OSM    C4F10720   1.066   4.746   9.175  0.4018  0.2097 -0.0516
  105OSM    H4F10721   0.968   4.798   9.165  1.5159  2.9042  1.9670
  105OSM    H4G10722   1.042   4.637   9.178 -0.1156  0.2887 -0.9587
  105OSM    C5F10723   1.147   4.766   9.048 -0.6864 -0.2415 -0.4747
  105OSM    H5F10724   1.244   4.713   9.058 -1.1739 -0.7395  2.4051
  105OSM    H5G10725   1.169   4.875   9.037 -0.8944  0.1808  2.4445
  105OSM    C6F10726   1.061   4.729   8.927  0.2542 -0.5062  0.7343
  105OSM    H6F10727   0.965   4.785   8.920 -0.2330 -1.1716  1.8535
  105OSM    H6G10728   1.050   4.619   8.935 -1.0560 -0.4892 -0.4119
  105OSM    C7F10729   1.147   4.745   8.795 -0.1040  0.2669  0.6185
  105OSM    H7F10730   1.243   4.694   8.820  0.1645  0.3395 -0.2235
  105OSM    H7G10731   1.170   4.853   8.778 -2.0655  0.5221 -0.7066
  105OSM    C8F10732   1.076   4.699   8.664  0.1728 -0.1934  0.0912
  105OSM    H8F10733   0.992   4.766   8.638  1.2072  1.1787  0.1328
  105OSM    H8G10734   1.029   4.602   8.690  1.0327 -0.5070  0.5489
  105OSM    C9F10735   1.166   4.685   8.546 -0.4402  0.0793  0.3473
  105OSM    H9F10736   1.203   4.784   8.516 -0.8017 -0.3767 -1.8100
  105OSM   C10F10737   1.199   4.571   8.484 -0.1747 -0.5801 -0.0614
  105OSM   H10F10738   1.278   4.575   8.408  0.0505  1.3604  0.2295
  105OSM   C11F10739   1.140   4.442   8.522  0.1370  0.4686 -0.2086
  105OSM   H11F10740   1.104   4.436   8.627 -0.5667  0.9962 -0.4178
  105OSM   H11G10741   1.216   4.361   8.521  3.2848  3.2059  0.2343
  105OSM   C12F10742   1.025   4.382   8.438  0.1674  0.2048 -0.5843
  105OSM   H12F10743   0.943   4.456   8.433 -0.3813 -0.4462 -1.8019
  105OSM   H12G10744   0.979   4.302   8.501  0.3922 -0.1316 -0.8416
  105OSM   C13F10745   1.061   4.338   8.294 -0.1296  0.2864 -0.2977
  105OSM   H13F10746   1.158   4.284   8.289  0.1578  0.8919 -1.5094
  105OSM   H13G10747   1.069   4.431   8.235 -1.1496  1.6554  1.5952
  105OSM   C14F10748   0.957   4.255   8.220  0.1368 -0.1423 -0.2969
  105OSM   H14F10749   0.862   4.304   8.191 -0.8482 -1.0269  1.3038
  105OSM   H14G10750   0.933   4.170   8.287  0.4360 -0.4645 -0.5955
  105OSM   C15F10751   1.011   4.192   8.091 -0.7337 -0.0947 -0.3975
  105OSM   H15F10752   1.114   4.151   8.105 -1.0527 -1.2045 -1.1644
  105OSM   H15G10753   1.035   4.279   8.026 -0.3362  0.4127  0.4062
  105OSM   C16F10754   0.920   4.095   8.016 -0.2026 -0.1968 -0.2925
  105OSM   H16F10755   0.815   4.118   8.042 -0.4081  0.5266 -1.6234
  105OSM   H16G10756   0.959   3.993   8.037  0.1649 -0.3660 -1.6547
  105OSM   C17F10757   0.951   4.126   7.875  0.8176  0.0405  0.6346
  105OSM   H17F10758   1.060   4.129   7.855  0.7041  0.2666  0.0159
  105OSM   H17G10759   0.913   4.226   7.846  1.7413  0.0550 -0.6194
  105OSM   C18F10760   0.884   4.034   7.771  0.1068 -0.3793 -0.2327
  105OSM   H18F10761   0.773   4.028   7.779  0.0191 -0.4977 -1.3241
  105OSM   H18G10762   0.926   3.931   7.778  0.2401 -0.3024  0.0799
  105OSM   H18H10763   0.905   4.076   7.670 -1.3142 -0.3096 -0.5256
  106OSM      N10764   0.949   2.750   9.486  0.1928 -0.0518 -0.1549
  106OSM    C1510765   1.016   2.884   9.497  0.1384  0.4224 -0.6941
  106OSM   H15A10766   0.947   2.952   9.449  1.3092  1.3853 -1.0662
  106OSM   H15B10767   1.113   2.874   9.451  0.5465 -0.3877  0.2925
  106OSM   H15C10768   1.019   2.913   9.601 -2.6186  0.0680 -0.4577
  106OSM    C1410769   0.944   2.715   9.341  0.0857 -0.1007 -0.0403
  106OSM   H14A10770   0.891   2.620   9.342  2.4815 -1.5031 -0.2927
  106OSM   H14B10771   1.041   2.714   9.295  0.2651  1.5183  0.2536
  106OSM   H14C10772   0.893   2.787   9.279  1.2847 -0.3415 -1.3460
  106OSM    C1310773   1.017   2.632   9.548  0.8925  0.1034  0.3096
  106OSM   H13A10774   1.110   2.608   9.499  1.3541  0.0642  1.1746
  106OSM   H13B10775   0.949   2.549   9.538  0.2181  0.5738  0.8418
  106OSM   H13C10776   1.033   2.645   9.654 -1.9775 -0.4086  0.9035
  106OSM    C1210777   0.811   2.756   9.549  0.3676 -0.2299  0.1856
  106OSM   H12A10778   0.826   2.788   9.651 -1.5049  1.4658 -0.0154
  106OSM   H12B10779   0.764   2.659   9.558  0.5292 -0.4286 -0.9839
  106OSM    C1110780   0.705   2.857   9.492 -0.0986  0.3609  0.5074
  106OSM   H11A10781   0.604   2.828   9.530 -0.3989 -0.0759 -0.5672
  106OSM   H11B10782   0.687   2.838   9.384 -0.2109 -1.1291  0.7643
  106OSM      P10783   0.762   3.055   9.656  0.3259 -0.2437  0.3740
  106OSM    O1310784   0.689   2.963   9.755 -0.6308  0.0868 -0.4004
  106OSM    O1410785   0.906   3.087   9.659 -0.3561 -0.5774 -0.2512
  106OSM    O1110786   0.679   3.187   9.656 -0.1688  0.3647 -0.0898
  106OSM    O1210787   0.733   2.994   9.505  0.5758 -0.9776 -0.0791
  106OSM    C1S10788   0.730   3.307   9.590 -0.6032 -0.6965 -0.2816
  106OSM    H1S10789   0.798   3.282   9.506 -0.2633  0.9806 -0.5380
  106OSM    H1T10790   0.802   3.363   9.653 -0.7125 -0.8997  0.0274
  106OSM     NF10791   0.659   3.494   9.437 -0.4050  0.0652 -0.7294
  106OSM    HNF10792   0.646   3.591   9.453  0.9253  0.1582 -0.0246
  106OSM    C2S10793   0.616   3.400   9.540 -0.3442  0.6177  0.6391
  106OSM    H2S10794   0.540   3.335   9.491  1.6430 -0.3041 -1.4053
  106OSM    C3S10795   0.554   3.460   9.667 -0.1981 -0.1436  0.0209
  106OSM    H3S10796   0.646   3.504   9.711 -0.7736  0.9272  0.1793
  106OSM     O310797   0.501   3.363   9.760  0.2954 -0.4542 -0.6427
  106OSM    HO310798   0.551   3.287   9.730 -0.9166 -2.2750  1.6525
  106OSM    C4S10799   0.449   3.562   9.627 -0.6656 -1.0871  0.6287
  106OSM    H4S10800   0.476   3.663   9.660  0.3771 -0.6089 -1.4852
  106OSM    C5S10801   0.339   3.553   9.552  0.3636  0.8290 -0.0608
  106OSM    H5S10802   0.313   3.456   9.506 -1.1636 -1.0346  4.1495
  106OSM    C6S10803   0.249   3.657   9.518  0.1709  0.0349  0.3928
  106OSM    H6S10804   0.263   3.747   9.581  1.8138 -0.9649  1.5023
  106OSM    H6T10805   0.146   3.619   9.538 -0.5615  1.7634  0.0959
  106OSM    C7S10806   0.235   3.688   9.371  0.3151 -0.3097  1.0407
  106OSM    H7S10807   0.167   3.775   9.362  1.6013  0.5335 -1.2474
  106OSM    H7T10808   0.198   3.594   9.325  3.3806 -1.4750  0.7378
  106OSM    C8S10809   0.363   3.734   9.299  0.2737 -0.1513 -0.0334
  106OSM    H8S10810   0.444   3.659   9.313 -0.8435 -0.9396  2.7096
  106OSM    H8T10811   0.398   3.833   9.335 -0.8163  0.0540  0.4760
  106OSM    C9S10812   0.335   3.743   9.149  0.1449  0.0988 -0.5081
  106OSM    H9S10813   0.235   3.789   9.136 -0.2850 -0.6635  0.0296
  106OSM    H9T10814   0.328   3.640   9.108  2.3078  0.3287 -1.5945
  106OSM   C10S10815   0.440   3.822   9.069  0.8458 -0.4943 -0.3036
  106OSM   H10S10816   0.540   3.775   9.086  0.7492 -0.5517  0.1010
  106OSM   H10T10817   0.450   3.927   9.105  0.4033 -1.3007  2.3755
  106OSM   C11S10818   0.415   3.801   8.919  0.6981  0.9622 -0.3546
  106OSM   H11S10819   0.313   3.833   8.887  0.5170 -0.6535 -1.5142
  106OSM   H11T10820   0.422   3.692   8.897  1.4849  0.4774  2.0122
  106OSM   C12S10821   0.515   3.890   8.843  0.1165  0.1666  0.4956
  106OSM   H12S10822   0.613   3.868   8.890  0.2593  0.2409  0.2341
  106OSM   H12T10823   0.507   3.999   8.861  2.1677  0.1170  2.0518
  106OSM   C13S10824   0.513   3.879   8.693  0.2343 -0.5863  0.8805
  106OSM   H13S10825   0.413   3.883   8.644  1.1524  1.1885 -0.9948
  106OSM   H13T10826   0.556   3.778   8.674  0.5017 -0.0931 -1.4431
  106OSM   C14S10827   0.606   3.980   8.610  0.1738  0.1997  0.1132
  106OSM   H14S10828   0.713   3.968   8.640 -0.4521  0.2491  2.5913
  106OSM   H14T10829   0.576   4.081   8.644 -0.9365 -0.2506  0.5224
  106OSM   C15S10830   0.593   3.980   8.454 -0.7317  0.4346  0.1977
  106OSM   H15S10831   0.643   4.074   8.423 -0.2744  0.9294  2.2532
  106OSM   H15T10832   0.485   3.977   8.426 -0.7124 -2.3941  0.1892
  106OSM   C16S10833   0.667   3.859   8.398  0.3061  0.0757  0.1197
  106OSM   H16S10834   0.628   3.767   8.447 -0.8120 -0.0646 -0.9843
  106OSM   H16T10835   0.774   3.877   8.422  0.6604 -1.5568 -0.0909
  106OSM   C17S10836   0.645   3.843   8.245 -0.4109 -0.3264 -0.3461
  106OSM   H17S10837   0.601   3.934   8.198  0.0241  0.1023  0.0604
  106OSM   H17T10838   0.567   3.765   8.246  1.5947 -2.5558 -3.0986
  106OSM   C18S10839   0.761   3.784   8.164 -0.5674  0.1645 -0.2100
  106OSM   H18S10840   0.812   3.697   8.210 -0.9060  0.1438  0.1338
  106OSM   H18T10841   0.838   3.864   8.158 -1.3825  0.9707 -0.1272
  106OSM   H18U10842   0.723   3.773   8.060 -0.4567  2.8383 -0.5942
  106OSM    C1F10843   0.693   3.457   9.316 -0.2710  0.5789 -0.1322
  106OSM     OF10844   0.658   3.340   9.282  0.4502  0.8417  0.7165
  106OSM    C2F10845   0.772   3.551   9.233 -0.4827 -0.9020 -0.3044
  106OSM    H2F10846   0.869   3.569   9.284 -1.9680  1.7716  1.8495
  106OSM    H2G10847   0.716   3.645   9.252  0.4750 -0.3373 -0.2164
  106OSM    C3F10848   0.773   3.516   9.090 -0.4283 -0.5046  0.6510
  106OSM    H3F10849   0.671   3.497   9.049 -0.0479  0.7612 -1.0267
  106OSM    H3G10850   0.826   3.421   9.067  0.3947 -0.0193  0.4995
  106OSM    C4F10851   0.827   3.634   8.995 -0.0065  0.3973 -0.0108
  106OSM    H4F10852   0.938   3.626   8.986 -0.2825 -2.1011 -2.3176
  106OSM    H4G10853   0.805   3.732   9.044 -0.9660 -0.2220  0.8374
  106OSM    C5F10854   0.764   3.636   8.853 -0.3164 -0.2809 -0.0699
  106OSM    H5F10855   0.797   3.732   8.809 -0.0726 -0.1607  0.3703
  106OSM    H5G10856   0.655   3.621   8.868  0.0681 -2.1206  1.2124
  106OSM    C6F10857   0.818   3.523   8.767  0.4957  0.6166  0.2478
  106OSM    H6F10858   0.779   3.428   8.810  0.6253  1.8479  3.3457
  106OSM    H6G10859   0.928   3.537   8.770  0.3990  2.3408 -1.6574
  106OSM    C7F10860   0.776   3.547   8.625 -0.1926 -0.5522  1.0843
  106OSM    H7F10861   0.789   3.653   8.595  0.2138 -0.2805  2.1741
  106OSM    H7G10862   0.670   3.521   8.609  0.3443 -1.3080 -1.7542
  106OSM    C8F10863   0.845   3.444   8.532 -0.5753  0.6445  1.0709
  106OSM    H8F10864   0.800   3.346   8.560 -0.2737 -0.3022 -1.4688
  106OSM    H8G10865   0.953   3.431   8.555 -0.5207  3.2205  2.6326
  106OSM    C9F10866   0.818   3.477   8.385  0.2961  0.3293  0.0701
  106OSM    H9F10867   0.782   3.578   8.358  0.0500  0.7611  1.9183
  106OSM   C10F10868   0.818   3.387   8.286  0.5495  0.1333 -0.3533
  106OSM   H10F10869   0.782   3.420   8.187 -2.5689 -1.0237  0.2762
  106OSM   C11F10870   0.856   3.238   8.295  0.4442  0.3414 -0.3901
  106OSM   H11F10871   0.772   3.175   8.257 -1.0629  2.3997 -0.6697
  106OSM   H11G10872   0.884   3.199   8.396 -0.1086 -1.1322 -0.7726
  106OSM   C12F10873   0.974   3.201   8.200  0.0591 -0.2492 -1.0453
  106OSM   H12F10874   0.957   3.242   8.098  4.4037  1.7755 -1.1905
  106OSM   H12G10875   0.962   3.091   8.206  0.1627 -0.2112  0.4433
  106OSM   C13F10876   1.102   3.263   8.256 -0.2805  0.0993 -0.4701
  106OSM   H13F10877   1.090   3.270   8.366  1.2433  0.8967 -0.3260
  106OSM   H13G10878   1.097   3.370   8.227  1.3274 -0.1901 -1.9554
  106OSM   C14F10879   1.230   3.195   8.201  0.0034 -0.1575 -0.6651
  106OSM   H14F10880   1.308   3.273   8.192 -0.7243  0.5782 -0.7545
  106OSM   H14G10881   1.192   3.165   8.101  0.1325  0.7349 -0.9866
  106OSM   C15F10882   1.284   3.077   8.281  0.5296 -0.4749 -0.7870
  106OSM   H15F10883   1.262   3.089   8.390  4.0779 -0.7608  0.0935
  106OSM   H15G10884   1.393   3.096   8.282  0.2029  1.6669 -1.0868
  106OSM   C16F10885   1.233   2.936   8.228 -0.1005 -0.1248  0.1978
  106OSM   H16F10886   1.233   2.943   8.117  1.6061  0.8453  0.2228
  106OSM   H16G10887   1.125   2.937   8.252  0.0017  0.6845  0.6756
  106OSM   C17F10888   1.324   2.812   8.267 -0.0533 -0.1439  0.3488
  106OSM   H17F10889   1.430   2.843   8.256  0.4119 -1.7164  0.2393
  106OSM   H17G10890   1.308   2.734   8.189 -3.2994 -0.0188  0.7677
  106OSM   C18F10891   1.306   2.759   8.412 -0.2721 -0.3440  0.3148
  106OSM   H18F10892   1.317   2.834   8.493 -1.2428 -2.3235  2.3789
  106OSM   H18G10893   1.387   2.685   8.429  0.9367  1.2147  1.8065
  106OSM   H18H10894   1.204   2.717   8.421 -1.2587  1.0430 -2.8573
  107OSM      N10895   2.435   0.371  10.194 -0.3981 -0.7225 -1.0298
  107OSM    C1510896   2.482   0.242  10.254  0.1583  0.0383  0.4847
  107OSM   H15A10897   2.542   0.188  10.182 -2.7254 -1.0096 -1.3182
  107OSM   H15B10898   2.392   0.184  10.270 -0.3325  0.1474 -1.5765
  107OSM   H15C10899   2.534   0.267  10.345  0.9471  2.0160 -0.4424
  107OSM    C1410900   2.348   0.444  10.299  0.6943 -0.7145  0.1903
  107OSM   H14A10901   2.405   0.491  10.377 -0.5405  0.2653  0.5309
  107OSM   H14B10902   2.285   0.370  10.347 -1.7006  1.0760 -0.0225
  107OSM   H14C10903   2.277   0.518  10.265 -1.0484 -1.4129  2.1363
  107OSM    C1310904   2.555   0.461  10.154  0.9465  0.0673 -0.3932
  107OSM   H13A10905   2.508   0.547  10.107 -3.6324 -1.5532  0.6261
  107OSM   H13B10906   2.613   0.408  10.081 -0.5319  0.5887 -2.0316
  107OSM   H13C10907   2.613   0.486  10.242 -1.6152  0.6499  1.2733
  107OSM    C1210908   2.356   0.352  10.067 -0.4545  0.4623  0.1443
  107OSM   H12A10909   2.319   0.448  10.032 -1.3530 -0.5423 -1.8068
  107OSM   H12B10910   2.269   0.292  10.090 -0.0853 -0.2846 -0.3702
  107OSM    C1110911   2.427   0.296   9.942 -0.5215 -0.0833  0.3572
  107OSM   H11A10912   2.500   0.372   9.906 -1.5686 -0.4340 -2.7857
  107OSM   H11B10913   2.364   0.286   9.851 -1.1522 -0.0641  0.7942
  107OSM      P10914   2.377   0.044   9.967 -0.0313  0.6354 -0.3475
  107OSM    O1310915   2.434  -0.077  10.030  0.0955 -0.3999 -0.2217
  107OSM    O1410916   2.251   0.083  10.029 -0.4643  0.1818 -0.5516
  107OSM    O1110917   2.338   0.013   9.815 -0.4050 -0.3525 -0.1777
  107OSM    O1210918   2.479   0.168   9.969  0.1701  0.3881  0.5539
  107OSM    C1S10919   2.438   0.021   9.709 -0.7755  0.0768 -0.2370
  107OSM    H1S10920   2.529  -0.039   9.729 -1.3086  0.0970  2.6182
  107OSM    H1T10921   2.477   0.123   9.690  2.0186 -0.8424  0.1228
  107OSM     NF10922   2.446  -0.043   9.468 -0.0063  0.3930 -1.3098
  107OSM    HNF10923   2.450   0.023   9.394  1.5271  2.1329  0.2320
  107OSM    C2S10924   2.361  -0.015   9.581 -0.5736 -0.2338  0.0681
  107OSM    H2S10925   2.297  -0.104   9.599 -0.0219 -0.5873  0.3227
  107OSM    C3S10926   2.258   0.098   9.559  0.2061  0.3573  0.3859
  107OSM    H3S10927   2.318   0.191   9.571  0.2401  0.1724  1.9309
  107OSM     O310928   2.152   0.105   9.651  0.2170 -0.4897  0.2886
  107OSM    HO310929   2.156   0.023   9.701 -2.1848 -0.0919  1.2527
  107OSM    C4S10930   2.203   0.088   9.419  0.2856 -0.6418  0.4512
  107OSM    H4S10931   2.180  -0.014   9.388  0.7716 -0.1684 -1.5938
  107OSM    C5S10932   2.174   0.193   9.339  0.2360  0.1589  0.0064
  107OSM    H5S10933   2.189   0.294   9.379 -1.1892 -0.1773  1.4971
  107OSM    C6S10934   2.120   0.184   9.198  0.1019 -0.1768 -0.4185
  107OSM    H6S10935   2.065   0.281   9.191  2.0979  1.0287 -0.0544
  107OSM    H6T10936   2.049   0.099   9.188 -1.6963  1.1779  0.1933
  107OSM    C7S10937   2.232   0.183   9.089 -0.2619  0.2157  0.2682
  107OSM    H7S10938   2.285   0.086   9.102 -0.1900  0.4879  2.2421
  107OSM    H7T10939   2.304   0.267   9.097  2.5528 -1.9322 -0.4858
  107OSM    C8S10940   2.171   0.184   8.951 -0.3473  0.1187 -0.2088
  107OSM    H8S10941   2.112   0.278   8.952  0.9790  1.2813  5.3903
  107OSM    H8T10942   2.116   0.090   8.934  2.0944 -1.4826  0.2258
  107OSM    C9S10943   2.289   0.193   8.852 -0.1954 -0.6828 -0.5052
  107OSM    H9S10944   2.354   0.104   8.862  0.7687  0.0413 -0.2461
  107OSM    H9T10945   2.360   0.275   8.875 -1.0302  1.7097 -5.2170
  107OSM   C10S10946   2.236   0.222   8.707 -0.0726 -0.2025 -0.2489
  107OSM   H10S10947   2.175   0.315   8.701  0.0396 -0.0557  0.7756
  107OSM   H10T10948   2.169   0.143   8.667 -1.3116 -0.1852  1.6531
  107OSM   C11S10949   2.355   0.233   8.616 -0.1747 -0.9891  0.3524
  107OSM   H11S10950   2.400   0.131   8.605 -3.7339 -2.9523  2.1437
  107OSM   H11T10951   2.421   0.309   8.663  0.7526 -0.6358 -1.4203
  107OSM   C12S10952   2.309   0.290   8.475  0.2467  0.4550 -0.7644
  107OSM   H12S10953   2.387   0.348   8.423  0.6313  0.3157 -0.3584
  107OSM   H12T10954   2.228   0.366   8.485 -0.0950  0.1852 -1.4084
  107OSM   C13S10955   2.275   0.175   8.380  0.3803  0.1308 -0.2832
  107OSM   H13S10956   2.191   0.131   8.437 -0.0949  0.0944 -1.0000
  107OSM   H13T10957   2.360   0.105   8.367  0.2616  0.0066 -0.3819
  107OSM   C14S10958   2.215   0.225   8.247  0.3328 -0.0828  1.0850
  107OSM   H14S10959   2.124   0.284   8.270  0.2259  0.2036 -0.0065
  107OSM   H14T10960   2.171   0.137   8.194 -0.8907  0.3330  1.3808
  107OSM   C15S10961   2.306   0.308   8.150  0.0404  0.4485  0.1626
  107OSM   H15S10962   2.404   0.255   8.154 -0.9530 -1.3955  1.9924
  107OSM   H15T10963   2.313   0.414   8.183 -1.2980  0.9260 -1.0005
  107OSM   C16S10964   2.263   0.316   8.007  0.7660  0.3752 -0.2693
  107OSM   H16S10965   2.167   0.370   8.004  1.3302  1.3861 -0.5959
  107OSM   H16T10966   2.232   0.219   7.962  1.9370 -0.2320  0.1770
  107OSM   C17S10967   2.362   0.379   7.908 -0.8907 -0.1554 -0.2174
  107OSM   H17S10968   2.454   0.317   7.905 -0.3643  0.6375 -1.9189
  107OSM   H17T10969   2.391   0.478   7.949 -1.5135 -0.8074  1.8870
  107OSM   C18S10970   2.302   0.391   7.768  0.1643  0.1020 -0.2761
  107OSM   H18S10971   2.298   0.288   7.728 -0.9097 -0.2482  0.6880
  107OSM   H18T10972   2.359   0.461   7.703  0.3135  0.2021 -0.0407
  107OSM   H18U10973   2.198   0.431   7.771  0.8877  2.1327  2.7433
  107OSM    C1F10974   2.515  -0.157   9.480 -0.0782 -0.0034  0.2773
  107OSM     OF10975   2.481  -0.244   9.555 -0.4740  0.4887  0.5977
  107OSM    C2F10976   2.639  -0.174   9.403 -0.5481 -0.4417  0.2790
  107OSM    H2F10977   2.705  -0.249   9.452  2.2942  0.6145 -1.6820
  107OSM    H2G10978   2.689  -0.075   9.392  0.6376 -1.1323 -0.9153
  107OSM    C3F10979   2.618  -0.220   9.252  0.1061  0.6449 -0.0279
  107OSM    H3F10980   2.584  -0.325   9.263  1.7840  0.2573  2.1596
  107OSM    H3G10981   2.721  -0.233   9.212  0.2914  1.2381  0.2376
  107OSM    C4F10982   2.520  -0.138   9.170 -0.1078 -0.5328 -0.1280
  107OSM    H4F10983   2.542  -0.030   9.178  1.7797 -0.9196  0.5153
  107OSM    H4G10984   2.414  -0.158   9.195 -0.4037  0.0339 -0.9206
  107OSM    C5F10985   2.524  -0.184   9.022 -0.0534 -0.3491  0.6192
  107OSM    H5F10986   2.443  -0.131   8.967 -1.6973 -2.5946  0.7525
  107OSM    H5G10987   2.491  -0.290   9.012 -0.3063 -0.2338  0.1813
  107OSM    C6F10988   2.665  -0.167   8.955  0.0340 -0.8258  0.1384
  107OSM    H6F10989   2.726  -0.243   9.009 -3.1673 -2.9662  1.0252
  107OSM    H6G10990   2.708  -0.070   8.987 -0.9168 -0.7743  1.3619
  107OSM    C7F10991   2.671  -0.179   8.805 -0.1886 -0.3655 -0.0920
  107OSM    H7F10992   2.606  -0.261   8.768  0.5566 -0.8919 -0.2380
  107OSM    H7G10993   2.775  -0.206   8.780 -0.0291 -1.1321  1.2929
  107OSM    C8F10994   2.639  -0.049   8.723  0.6484  0.0262  0.6657
  107OSM    H8F10995   2.531  -0.031   8.740  0.6233 -0.7626  1.4337
  107OSM    H8G10996   2.644  -0.088   8.620 -1.2134 -1.7225  1.1811
  107OSM    C9F10997   2.721   0.073   8.742  0.0601 -0.0483 -0.1007
  107OSM    H9F10998   2.708   0.106   8.846  1.6652  0.0985  0.0634
  107OSM   C10F10999   2.786   0.155   8.655 -0.2773  0.2045 -0.3934
  107OSM   H10F11000   2.857   0.233   8.686  2.6499 -2.8073  1.1460
  107OSM   C11F11001   2.800   0.127   8.500  0.6229 -0.1253 -0.3473
  107OSM   H11F11002   2.848   0.216   8.455  0.7070  0.2226  0.4046
  107OSM   H11G11003   2.701   0.114   8.452 -0.0740  1.2990  0.6246
  107OSM   C12F11004   2.896   0.010   8.473 -0.0372 -0.2549  0.0922
  107OSM   H12F11005   2.897  -0.073   8.546 -0.9716  0.9547  1.5472
  107OSM   H12G11006   3.000   0.049   8.480 -0.4971  1.0331  0.1490
  107OSM   C13F11007   2.858  -0.049   8.337 -0.6273  0.0426  0.3279
  107OSM   H13F11008   2.798   0.020   8.274 -1.1967 -1.8396 -1.3289
  107OSM   H13G11009   2.784  -0.130   8.355 -0.0306 -0.7512 -0.6328
  107OSM   C14F11010   2.976  -0.099   8.248  0.4781  0.4264  0.3002
  107OSM   H14F11011   2.945  -0.146   8.153  0.7687  3.0972 -1.2059
  107OSM   H14G11012   3.032  -0.184   8.295 -1.3314 -1.3032 -0.5361
  107OSM   C15F11013   3.081   0.008   8.206 -0.2782 -0.2807  0.5579
  107OSM   H15F11014   3.163  -0.038   8.148  1.2545  2.0432  0.7157
  107OSM   H15G11015   3.127   0.054   8.297  1.1969  0.7555 -0.6574
  107OSM   C16F11016   3.030   0.121   8.122 -0.9795 -0.5453 -0.7272
  107OSM   H16F11017   3.118   0.184   8.099  0.2425 -0.0258  4.2973
  107OSM   H16G11018   2.959   0.179   8.184  1.4131  1.1775  0.5592
  107OSM   C17F11019   2.959   0.087   7.994  0.4122  0.0770  0.1291
  107OSM   H17F11020   2.876   0.017   8.018  0.7926 -0.2242  0.5718
  107OSM   H17G11021   3.035   0.032   7.934  0.8932 -0.3432  1.1009
  107OSM   C18F11022   2.909   0.200   7.901  0.0815  0.2678  0.0026
  107OSM   H18F11023   2.998   0.262   7.875 -0.4863 -0.2371 -3.8452
  107OSM   H18G11024   2.832   0.262   7.950  0.1329  0.6226 -0.3567
  107OSM   H18H11025   2.863   0.157   7.809  1.1410 -2.3269  0.5856
  108OSM      N11026   0.739   1.564   9.597  0.0887  0.0850 -0.6016
  108OSM    C1511027   0.840   1.462   9.566 -0.1088  0.0371  0.2999
  108OSM   H15A11028   0.869   1.400   9.649 -2.1313 -0.3646  0.7696
  108OSM   H15B11029   0.922   1.515   9.520 -0.7348  0.2011 -0.6688
  108OSM   H15C11030   0.816   1.394   9.485 -0.1373  0.1125  0.2447
  108OSM    C1411031   0.615   1.494   9.651 -0.2018  0.4874  0.4727
  108OSM   H14A11032   0.631   1.448   9.747 -0.8267  1.7998  1.2416
  108OSM   H14B11033   0.581   1.426   9.574  3.5127  1.2101 -2.0545
  108OSM   H14C11034   0.545   1.576   9.662  0.7188  1.5470 -1.0938
  108OSM    C1311035   0.791   1.659   9.705  0.5252  0.7400 -0.5330
  108OSM   H13A11036   0.815   1.602   9.794  1.4318 -0.6975 -1.6400
  108OSM   H13B11037   0.705   1.722   9.723 -0.6322 -0.6335 -1.1081
  108OSM   H13C11038   0.877   1.715   9.670 -0.5934  2.3954 -0.7285
  108OSM    C1211039   0.703   1.645   9.469  0.2546 -0.2972 -0.2375
  108OSM   H12A11040   0.636   1.589   9.406  1.8725 -0.2475 -2.1134
  108OSM   H12B11041   0.792   1.659   9.409 -0.5431 -0.9921 -1.6324
  108OSM    C1111042   0.626   1.777   9.480  0.5051 -0.2183 -0.2606
  108OSM   H11A11043   0.540   1.756   9.547 -0.8864  1.9730 -1.2438
  108OSM   H11B11044   0.582   1.811   9.384 -2.0677  0.2065  0.9903
  108OSM      P11045   0.810   1.957   9.455 -0.0855  0.4526 -0.2239
  108OSM    O1311046   0.905   2.031   9.544  0.2368  0.1429  0.4529
  108OSM    O1411047   0.890   1.865   9.373  0.1491  0.3552  0.3582
  108OSM    O1111048   0.708   2.032   9.360 -0.3870 -0.2801  0.4164
  108OSM    O1211049   0.698   1.882   9.545  0.3393  0.8899 -0.1950
  108OSM    C1S11050   0.759   2.138   9.269 -0.5356  0.9188  0.1008
  108OSM    H1S11051   0.869   2.153   9.284 -0.3438 -1.5119  1.7888
  108OSM    H1T11052   0.701   2.229   9.297  0.9169  1.4604  1.5751
  108OSM     NF11053   0.773   2.209   9.038 -0.1409 -0.0825  0.2285
  108OSM    HNF11054   0.725   2.297   9.038  1.0843  0.6193 -0.7088
  108OSM    C2S11055   0.726   2.102   9.119  0.6251  0.1534 -0.3287
  108OSM    H2S11056   0.778   2.007   9.093  1.5882  0.8344 -0.9530
  108OSM    C3S11057   0.574   2.073   9.110  0.5042  0.2229 -0.1200
  108OSM    H3S11058   0.526   2.163   9.155 -1.8501 -0.3039 -1.4285
  108OSM     O311059   0.519   1.959   9.181 -0.0785 -0.2281  0.1498
  108OSM    HO311060   0.587   1.923   9.238  4.5981  2.6512 -2.8604
  108OSM    C4S11061   0.532   2.077   8.969 -0.5474  0.6653  0.9398
  108OSM    H4S11062   0.601   2.027   8.899  0.3819  3.0016  0.1022
  108OSM    C5S11063   0.428   2.145   8.917 -0.5697 -0.3495  0.5712
  108OSM    H5S11064   0.367   2.209   8.983  0.6267 -0.7609  2.1379
  108OSM    C6S11065   0.394   2.148   8.772  0.0962 -0.5109  0.2059
  108OSM    H6S11066   0.328   2.064   8.744  0.2510 -0.3934 -0.5460
  108OSM    H6T11067   0.487   2.138   8.712 -0.3733  3.2580 -1.4998
  108OSM    C7S11068   0.326   2.277   8.716 -0.4217  0.0300  0.1427
  108OSM    H7S11069   0.383   2.357   8.768  0.6264  0.0030 -0.9161
  108OSM    H7T11070   0.232   2.287   8.773  0.0849 -0.3423  1.0602
  108OSM    C8S11071   0.329   2.287   8.565  0.8173 -0.6372 -0.1854
  108OSM    H8S11072   0.432   2.258   8.535  1.7598  0.7989  1.4960
  108OSM    H8T11073   0.318   2.392   8.533 -0.5992 -0.5444  0.5345
  108OSM    C9S11074   0.234   2.182   8.499  0.2306  0.1448  0.1246
  108OSM    H9S11075   0.133   2.189   8.543  0.0291  1.4751 -0.5156
  108OSM    H9T11076   0.274   2.079   8.516 -1.8943 -0.9415 -1.1171
  108OSM   C10S11077   0.211   2.194   8.350  0.3236 -0.5749  0.0789
  108OSM   H10S11078   0.309   2.174   8.302  0.6207 -2.7491  1.4681
  108OSM   H10T11079   0.176   2.294   8.316  1.4021  0.6646  2.4462
  108OSM   C11S11080   0.111   2.100   8.288  0.4885 -0.3422 -0.0440
  108OSM   H11S11081   0.019   2.120   8.346 -0.5333  4.2119 -2.7879
  108OSM   H11T11082   0.168   2.006   8.308  0.9906  0.2364  1.3072
  108OSM   C12S11083   0.083   2.122   8.134 -0.5653 -0.2210  0.1706
  108OSM   H12S11084   0.170   2.151   8.071 -0.3709 -2.3541 -0.6225
  108OSM   H12T11085   0.010   2.207   8.133  0.5538  0.7645 -0.4552
  108OSM   C13S11086   0.014   2.006   8.069 -0.0966  0.6487  0.6720
  108OSM   H13S11087  -0.026   2.039   7.971  0.4149  0.3519  0.3621
  108OSM   H13T11088  -0.073   1.973   8.129 -1.7950 -2.5627 -3.1079
  108OSM   C14S11089   0.101   1.886   8.035 -1.1002  0.3153 -0.5080
  108OSM   H14S11090   0.198   1.905   8.085 -0.0655  1.2458 -2.7051
  108OSM   H14T11091   0.142   1.891   7.931 -1.1506 -1.1617 -0.6151
  108OSM   C15S11092   0.041   1.748   8.063  0.1251  0.0129  0.4802
  108OSM   H15S11093   0.025   1.731   8.171  1.0443  2.5219  1.0816
  108OSM   H15T11094   0.101   1.658   8.039  0.3915  0.0558  0.9891
  108OSM   C16S11095  -0.084   1.716   7.983 -0.6749  0.3903  0.0166
  108OSM   H16S11096  -0.050   1.731   7.879  1.8160 -0.8439  0.5913
  108OSM   H16T11097  -0.160   1.794   8.007 -0.7740 -0.2248  1.9017
  108OSM   C17S11098  -0.155   1.581   7.998  0.2673 -0.7571 -0.6334
  108OSM   H17S11099  -0.171   1.568   8.107 -0.7601 -0.0403 -0.6843
  108OSM   H17T11100  -0.086   1.498   7.973 -0.2316 -1.6664  0.8686
  108OSM   C18S11101  -0.276   1.559   7.907 -0.1445 -0.0650 -0.0709
  108OSM   H18S11102  -0.350   1.486   7.945  0.2054 -1.0694 -1.2626
  108OSM   H18T11103  -0.238   1.514   7.812  0.3150 -0.0290  0.0919
  108OSM   H18U11104  -0.331   1.654   7.892 -0.6927 -0.3272  0.2901
  108OSM    C1F11105   0.902   2.210   9.003 -0.5428 -0.9463  0.9034
  108OSM     OF11106   0.980   2.122   9.034  0.4441  0.4016  0.0377
  108OSM    C2F11107   0.958   2.337   8.925 -0.2739  0.1705 -0.3741
  108OSM    H2F11108   1.054   2.351   8.979 -2.1666 -0.6870  3.5363
  108OSM    H2G11109   0.898   2.429   8.943 -0.8194 -0.1270 -0.6410
  108OSM    C3F11110   0.976   2.301   8.777 -0.3200  0.0285  0.0179
  108OSM    H3F11111   1.045   2.214   8.781 -0.3685 -0.2097 -2.7096
  108OSM    H3G11112   1.031   2.388   8.735  3.1131 -3.1654 -2.7365
  108OSM    C4F11113   0.851   2.262   8.694 -0.3897  0.3189  1.1177
  108OSM    H4F11114   0.768   2.328   8.726 -0.8505  0.0752  0.4573
  108OSM    H4G11115   0.826   2.160   8.729 -0.3201 -0.9068 -2.0491
  108OSM    C5F11116   0.873   2.250   8.538 -0.2428  0.0648  0.0225
  108OSM    H5F11117   0.958   2.179   8.538  1.1529  1.6766  0.4790
  108OSM    H5G11118   0.930   2.330   8.487  0.7635 -0.8706 -0.3604
  108OSM    C6F11119   0.760   2.204   8.450  0.8996 -0.1103 -0.0611
  108OSM    H6F11120   0.720   2.296   8.403 -2.0655 -1.6603 -0.8358
  108OSM    H6G11121   0.671   2.178   8.512  0.5760  0.8073 -0.1305
  108OSM    C7F11122   0.793   2.090   8.353 -0.1453  0.8185 -0.2228
  108OSM    H7F11123   0.843   2.018   8.421 -1.4519  0.0955  0.0040
  108OSM    H7G11124   0.868   2.128   8.280  1.2401 -0.3816  0.5395
  108OSM    C8F11125   0.672   2.030   8.274 -0.0674 -0.4703 -0.1929
  108OSM    H8F11126   0.610   1.997   8.360  2.8965  1.5492  2.9907
  108OSM    H8G11127   0.710   1.943   8.215 -0.9628 -0.5056 -0.7439
  108OSM    C9F11128   0.610   2.139   8.183  0.0509  0.7965 -1.1969
  108OSM    H9F11129   0.543   2.207   8.239 -0.7378 -0.0941 -1.0288
  108OSM   C10F11130   0.628   2.150   8.056  0.4211 -0.2641  0.0930
  108OSM   H10F11131   0.584   2.237   8.004  0.3980 -1.0755 -1.2953
  108OSM   C11F11132   0.722   2.071   7.975 -0.7886 -0.9062  0.4079
  108OSM   H11F11133   0.659   2.020   7.899 -3.6006  1.3910  1.0526
  108OSM   H11G11134   0.778   2.000   8.040  0.7574  0.8934  1.1523
  108OSM   C12F11135   0.820   2.162   7.898 -0.3837  0.4198 -0.3082
  108OSM   H12F11136   0.881   2.225   7.966  1.2964  0.0743 -1.4271
  108OSM   H12G11137   0.758   2.214   7.821  1.3959 -3.3539 -4.8117
  108OSM   C13F11138   0.922   2.093   7.804 -0.1849 -0.0511  0.0950
  108OSM   H13F11139   0.852   2.043   7.734 -0.1294  0.2747 -0.2028
  108OSM   H13G11140   0.972   2.009   7.857  0.3994 -0.1424 -0.5711
  108OSM   C14F11141   1.024   2.182   7.721  0.3341 -0.5941 -0.2941
  108OSM   H14F11142   1.083   2.234   7.800  0.4965  0.5048 -1.1185
  108OSM   H14G11143   0.959   2.253   7.667 -0.3846 -1.9768 -1.2854
  108OSM   C15F11144   1.130   2.103   7.630  0.4128 -0.1017 -0.2906
  108OSM   H15F11145   1.181   2.174   7.561 -0.0726 -1.8030 -2.5508
  108OSM   H15G11146   1.078   2.023   7.573 -0.9043 -0.8333  1.8490
  108OSM   C16F11147   1.238   2.049   7.717  0.3831 -0.1806  0.6849
  108OSM   H16F11148   1.198   1.972   7.787 -0.4318  1.5355  2.1678
  108OSM   H16G11149   1.267   2.129   7.789 -0.1003 -0.6632  1.4388
  108OSM   C17F11150   1.366   2.015   7.638  0.1795 -0.1374  0.0526
  108OSM   H17F11151   1.441   1.991   7.716 -0.9117 -0.7101  0.9670
  108OSM   H17G11152   1.400   2.109   7.590  0.4241 -0.9300 -1.3580
  108OSM   C18F11153   1.358   1.905   7.527 -0.4561  0.3603  0.1893
  108OSM   H18F11154   1.451   1.908   7.467  1.2855  1.4032  2.7488
  108OSM   H18G11155   1.280   1.934   7.454  0.0400  2.6891  0.5248
  108OSM   H18H11156   1.353   1.801   7.565 -1.5934  0.5284  0.5467
  109OSM      N11157   5.832   1.665   9.832 -0.0145 -0.3447 -0.9330
  109OSM    C1511158   5.719   1.592   9.778 -0.1681 -0.2622  0.1612
  109OSM   H15A11159   5.632   1.655   9.772 -2.3938 -2.9864  1.5660
  109OSM   H15B11160   5.686   1.499   9.822  0.8131 -0.5339  0.3586
  109OSM   H15C11161   5.743   1.557   9.679 -0.0614 -1.9594  0.7591
  109OSM    C1411162   5.853   1.762   9.724 -0.0800  0.0101 -0.6110
  109OSM   H14A11163   5.772   1.833   9.718  0.9291  1.3242  0.6696
  109OSM   H14B11164   5.860   1.713   9.628  0.9043 -0.1042 -0.4822
  109OSM   H14C11165   5.947   1.812   9.743  0.3328 -1.4738  1.6836
  109OSM    C1311166   5.792   1.726   9.963  0.4483  0.3069  0.2388
  109OSM   H13A11167   5.859   1.799  10.005 -1.0296  0.9928  1.5036
  109OSM   H13B11168   5.787   1.649  10.039  0.3510  0.1104  0.0349
  109OSM   H13C11169   5.698   1.777   9.951 -0.1205 -0.6626  0.4135
  109OSM    C1211170   5.949   1.572   9.855  0.1465 -0.1288  0.2913
  109OSM   H12A11171   5.956   1.504   9.772 -0.7943 -0.4980  0.5040
  109OSM   H12B11172   5.920   1.516   9.942 -0.5116  0.0779  0.2061
  109OSM    C1111173   6.088   1.626   9.879  0.0247  0.1076 -0.1505
  109OSM   H11A11174   6.074   1.688   9.970 -0.0860 -0.3712  0.1688
  109OSM   H11B11175   6.133   1.694   9.804 -0.6266 -0.2082 -0.8504
  109OSM      P11176   6.190   1.401   9.801 -0.2326 -0.5115 -0.2360
  109OSM    O1311177   6.332   1.352   9.807  0.2643  0.2768 -0.1624
  109OSM    O1411178   6.083   1.305   9.823  0.1697 -0.5760  0.4053
  109OSM    O1111179   6.165   1.476   9.669  0.0134  0.5244 -0.1216
  109OSM    O1211180   6.175   1.510   9.914 -0.5040  0.3297 -0.2014
  109OSM    C1S11181   6.207   1.425   9.547 -0.4917 -0.7240 -0.1106
  109OSM    H1S11182   6.129   1.348   9.524 -0.8657 -0.5258  0.4682
  109OSM    H1T11183   6.304   1.371   9.551  0.3560  0.6317 -1.3826
  109OSM     NF11184   6.229   1.462   9.311  0.5170 -0.0521  0.1206
  109OSM    HNF11185   6.325   1.449   9.290  0.2310 -0.5141 -0.9910
  109OSM    C2S11186   6.204   1.529   9.431 -1.1103  0.0103  0.4903
  109OSM    H2S11187   6.109   1.584   9.422  0.5156  2.5933 -3.0174
  109OSM    C3S11188   6.312   1.636   9.465  0.0579 -0.0879  0.4345
  109OSM    H3S11189   6.413   1.590   9.457 -0.0278  0.1148 -2.9676
  109OSM     O311190   6.304   1.691   9.595  0.6572  0.0532 -0.1700
  109OSM    HO311191   6.231   1.652   9.645 -0.3618  1.4318 -0.5073
  109OSM    C4S11192   6.317   1.743   9.360  0.9612  0.2374  0.7078
  109OSM    H4S11193   6.247   1.826   9.376  0.7580 -0.0278  1.2373
  109OSM    C5S11194   6.392   1.745   9.245 -0.8421  0.3219  0.2482
  109OSM    H5S11195   6.458   1.661   9.217 -0.7479 -0.4505  2.5984
  109OSM    C6S11196   6.373   1.852   9.146 -0.0322  0.1928  0.3651
  109OSM    H6S11197   6.472   1.880   9.103  0.0616 -1.8322 -0.8485
  109OSM    H6T11198   6.337   1.944   9.198 -2.0497  0.7080 -1.7787
  109OSM    C7S11199   6.281   1.816   9.026 -0.4218  0.6658  0.2074
  109OSM    H7S11200   6.307   1.886   8.945  2.1539 -0.9753 -0.5073
  109OSM    H7T11201   6.173   1.811   9.053 -0.5927 -0.0168 -0.5490
  109OSM    C8S11202   6.316   1.688   8.953 -0.1595 -0.1542  0.8400
  109OSM    H8S11203   6.305   1.601   9.021 -3.2447  0.3248  1.1114
  109OSM    H8T11204   6.421   1.698   8.918  0.2645  1.6155  2.3961
  109OSM    C9S11205   6.222   1.658   8.835  0.2482  0.3637 -0.1338
  109OSM    H9S11206   6.117   1.656   8.869 -0.2087 -2.4102 -1.4422
  109OSM    H9T11207   6.246   1.556   8.799 -2.4720 -0.6962  0.8104
  109OSM   C10S11208   6.238   1.760   8.729  0.3442 -0.4247 -1.1178
  109OSM   H10S11209   6.342   1.799   8.724  0.5884 -0.8933  0.1256
  109OSM   H10T11210   6.178   1.848   8.761  2.7781  0.7905  0.3984
  109OSM   C11S11211   6.189   1.710   8.586 -0.6229 -0.0315  0.1779
  109OSM   H11S11212   6.250   1.619   8.564 -3.1463 -1.4941 -1.1907
  109OSM   H11T11213   6.217   1.784   8.509 -0.4761  0.6959  0.9168
  109OSM   C12S11214   6.040   1.694   8.572 -0.1885 -0.2360  1.6481
  109OSM   H12S11215   6.000   1.798   8.570  1.1367  0.2847 -0.5754
  109OSM   H12T11216   6.011   1.633   8.660 -0.1544 -2.3049  0.2955
  109OSM   C13S11217   6.000   1.602   8.451 -0.8799 -0.5135 -0.4061
  109OSM   H13S11218   5.889   1.593   8.452 -1.3411  3.4759 -0.7412
  109OSM   H13T11219   6.040   1.501   8.474 -3.8526 -1.4469  1.2587
  109OSM   C14S11220   6.052   1.668   8.320  0.0361  0.4323  0.5516
  109OSM   H14S11221   6.162   1.655   8.309 -0.0497  0.3364 -0.2692
  109OSM   H14T11222   6.023   1.775   8.327 -1.8666 -0.0175  0.0648
  109OSM   C15S11223   5.974   1.608   8.197 -0.5028  0.7211  0.9883
  109OSM   H15S11224   5.872   1.650   8.205 -0.5457  1.3245 -1.8372
  109OSM   H15T11225   5.974   1.497   8.198 -0.4009  0.6835 -0.5619
  109OSM   C16S11226   6.027   1.645   8.061 -0.1276 -0.6407 -0.0763
  109OSM   H16S11227   6.014   1.569   7.981 -0.1711 -1.0759  0.3424
  109OSM   H16T11228   6.138   1.650   8.065 -0.0199 -2.7370  0.8297
  109OSM   C17S11229   5.975   1.782   8.004 -0.3833  0.4357  0.0383
  109OSM   H17S11230   6.013   1.852   8.082  0.5946 -0.9386  0.8470
  109OSM   H17T11231   5.864   1.790   8.009 -0.5070 -0.6156 -0.8557
  109OSM   C18S11232   6.037   1.831   7.874 -0.1167  0.0095 -0.2014
  109OSM   H18S11233   6.020   1.752   7.798  0.1972 -2.2798  1.9890
  109OSM   H18T11234   6.148   1.840   7.879 -0.2309  2.4060 -0.7047
  109OSM   H18U11235   6.008   1.934   7.844  1.8615  1.4546  2.3405
  109OSM    C1F11236   6.133   1.409   9.243 -0.7302 -0.4333  0.0757
  109OSM     OF11237   6.024   1.407   9.293 -0.4766  0.5472 -0.6601
  109OSM    C2F11238   6.177   1.335   9.120  0.7143  0.0671 -0.1474
  109OSM    H2F11239   6.209   1.233   9.150 -1.3273 -0.5711  0.0148
  109OSM    H2G11240   6.262   1.382   9.067  2.1318 -0.4070  1.6193
  109OSM    C3F11241   6.054   1.314   9.027 -0.4777 -0.1158  0.3272
  109OSM    H3F11242   6.024   1.417   8.999 -2.8793 -0.6015  0.9520
  109OSM    H3G11243   5.970   1.259   9.074  0.5225 -0.4302  1.8452
  109OSM    C4F11244   6.088   1.247   8.895 -0.0254 -0.5289 -0.3713
  109OSM    H4F11245   6.183   1.282   8.850  1.2766 -1.3276  1.5981
  109OSM    H4G11246   6.005   1.282   8.830  1.1499  0.3755 -1.4144
  109OSM    C5F11247   6.095   1.089   8.907  0.1202 -0.8471  0.0751
  109OSM    H5F11248   5.994   1.065   8.948  0.1137  1.9490  1.9944
  109OSM    H5G11249   6.166   1.070   8.990  0.1735  2.6671  0.9891
  109OSM    C6F11250   6.139   1.001   8.787  0.4496 -0.0521 -1.0927
  109OSM    H6F11251   6.096   0.900   8.799  0.3664 -0.1002 -1.7627
  109OSM    H6G11252   6.249   0.998   8.775  0.3558 -0.2113 -1.9519
  109OSM    C7F11253   6.083   1.047   8.653 -0.0944  0.1463 -0.3841
  109OSM    H7F11254   6.133   1.134   8.607  1.9914 -1.5504 -1.4869
  109OSM    H7G11255   5.976   1.061   8.680 -0.0204 -0.4024  0.2336
  109OSM    C8F11256   6.084   0.943   8.535  0.5496 -0.6315  0.3993
  109OSM    H8F11257   6.064   0.844   8.582 -0.0976 -0.2428  0.9503
  109OSM    H8G11258   6.183   0.952   8.485 -0.7123  0.2629 -2.1493
  109OSM    C9F11259   5.971   0.971   8.440  0.6580 -0.1852  0.5530
  109OSM    H9F11260   5.978   1.067   8.388 -2.5622 -0.6365 -0.9802
  109OSM   C10F11261   5.857   0.897   8.417 -0.1073 -0.0331 -0.2119
  109OSM   H10F11262   5.797   0.910   8.326 -0.3261  0.0623 -0.0546
  109OSM   C11F11263   5.830   0.759   8.474  0.2845 -0.4597  0.2337
  109OSM   H11F11264   5.887   0.735   8.566 -1.5110 -1.0995  1.2104
  109OSM   H11G11265   5.864   0.683   8.400  0.3470 -2.0449  1.8391
  109OSM   C12F11266   5.672   0.738   8.489  0.9598  0.2171  0.0666
  109OSM   H12F11267   5.661   0.643   8.546 -3.9108  0.7403  0.4797
  109OSM   H12G11268   5.636   0.719   8.386  2.5794 -1.1646 -0.2851
  109OSM   C13F11269   5.599   0.841   8.568  0.2999  0.0609  0.8598
  109OSM   H13F11270   5.586   0.928   8.501 -0.5341  0.0967  1.0553
  109OSM   H13G11271   5.652   0.874   8.660  1.0628  0.3546  0.3143
  109OSM   C14F11272   5.448   0.811   8.610 -0.5521  0.5260 -0.8444
  109OSM   H14F11273   5.423   0.887   8.687  3.5025 -0.0064  1.2356
  109OSM   H14G11274   5.441   0.716   8.667 -0.0216  1.5169  0.9301
  109OSM   C15F11275   5.359   0.812   8.486  0.5643 -0.2027  0.2441
  109OSM   H15F11276   5.405   0.752   8.404 -1.9545 -1.9989  0.0005
  109OSM   H15G11277   5.344   0.916   8.451 -0.0968 -0.4527 -0.2598
  109OSM   C16F11278   5.215   0.758   8.520 -0.0805  0.0085  0.7889
  109OSM   H16F11279   5.171   0.820   8.601 -0.5075 -0.0517  0.6103
  109OSM   H16G11280   5.227   0.652   8.549 -1.2354 -0.3335  0.0879
  109OSM   C17F11281   5.129   0.772   8.393  0.1832 -0.4301 -0.2401
  109OSM   H17F11282   5.185   0.752   8.299  1.0664 -0.0711  0.1902
  109OSM   H17G11283   5.092   0.876   8.400 -0.4018 -0.6359 -0.2204
  109OSM   C18F11284   4.999   0.690   8.392 -0.8420 -0.2022 -0.2518
  109OSM   H18F11285   4.943   0.703   8.297  0.9450 -0.3698 -1.3803
  109OSM   H18G11286   4.940   0.721   8.480  1.2450  0.5113  0.9665
  109OSM   H18H11287   5.027   0.582   8.398  1.0926  0.2900  0.4978
  110OSM      N11288   5.673   6.380  10.060  0.2191 -0.5746 -0.4076
  110OSM    C1511289   5.744   6.276  10.152  0.3906 -0.3440  0.0378
  110OSM   H15A11290   5.729   6.306  10.255  0.7371  2.6575 -0.6816
  110OSM   H15B11291   5.848   6.284  10.122  0.2041 -0.4469 -0.6393
  110OSM   H15C11292   5.701   6.179  10.135 -1.4432  0.3645  0.4171
  110OSM    C1411293   5.526   6.347  10.047  0.5363  0.1068  0.0304
  110OSM   H14A11294   5.467   6.362  10.137 -1.1119  0.5225 -1.0715
  110OSM   H14B11295   5.510   6.244  10.018 -2.2538  0.6047 -0.4328
  110OSM   H14C11296   5.482   6.408   9.970  0.6203 -0.5535 -0.5482
  110OSM    C1311297   5.684   6.517  10.113 -0.2888 -0.0865 -0.7503
  110OSM   H13A11298   5.644   6.520  10.213  1.2735  2.4598 -0.1042
  110OSM   H13B11299   5.632   6.581  10.042  0.3022  0.6179 -0.5639
  110OSM   H13C11300   5.780   6.566  10.112 -0.0527 -0.5367 -0.3894
  110OSM    C1211301   5.739   6.376   9.922  1.0680  0.2835 -0.4106
  110OSM   H12A11302   5.752   6.273   9.891  0.9472  0.9734 -2.9539
  110OSM   H12B11303   5.841   6.409   9.933  1.8482 -1.6880 -1.1740
  110OSM    C1111304   5.662   6.454   9.810 -0.5560  0.7087  0.2145
  110OSM   H11A11305   5.570   6.394   9.798 -0.7650  0.9488  0.5885
  110OSM   H11B11306   5.716   6.449   9.714 -0.6875  1.1576  0.1154
  110OSM      P11307   5.503   6.663   9.818  0.0300 -0.1536  0.1600
  110OSM    O1311308   5.395   6.580   9.866 -0.3068 -0.3369  1.1422
  110OSM    O1411309   5.498   6.797   9.875 -0.0939  0.7777  0.0990
  110OSM    O1111310   5.507   6.666   9.660 -0.2471 -0.5524  0.0090
  110OSM    O1211311   5.642   6.594   9.845 -0.8249  0.3689  0.3040
  110OSM    C1S11312   5.416   6.578   9.587  0.0170  0.2723 -0.1862
  110OSM    H1S11313   5.312   6.606   9.615  0.8279  2.9883  0.4874
  110OSM    H1T11314   5.428   6.471   9.612 -2.0484 -0.3389 -1.5932
  110OSM     NF11315   5.350   6.514   9.355  0.0502 -0.0337  0.1571
  110OSM    HNF11316   5.382   6.438   9.300  1.1739 -0.5541  1.4834
  110OSM    C2S11317   5.444   6.596   9.431 -0.1454  0.0299 -0.1421
  110OSM    H2S11318   5.420   6.703   9.412 -1.1786 -0.0093  0.8869
  110OSM    C3S11319   5.590   6.564   9.403  0.1569  0.1058  0.0439
  110OSM    H3S11320   5.604   6.454   9.404  0.6585  0.0706 -2.6334
  110OSM     O311321   5.682   6.615   9.497  0.0397  0.5397 -0.0355
  110OSM    HO311322   5.624   6.653   9.564  0.4442  0.2048  0.5145
  110OSM    C4S11323   5.625   6.613   9.263 -0.7446 -0.1388  0.6674
  110OSM    H4S11324   5.621   6.722   9.255  2.7968  0.2456  2.3252
  110OSM    C5S11325   5.684   6.535   9.168  0.4595  0.5959  0.6075
  110OSM    H5S11326   5.725   6.437   9.196 -0.1956 -0.0472 -0.6097
  110OSM    C6S11327   5.723   6.586   9.031  0.7694 -0.2146 -0.2845
  110OSM    H6S11328   5.694   6.690   9.004  3.1917 -0.0644 -2.7966
  110OSM    H6T11329   5.670   6.520   8.958  2.4157 -2.5439  0.5045
  110OSM    C7S11330   5.873   6.578   8.993 -0.6460  0.4701 -0.2601
  110OSM    H7S11331   5.922   6.483   9.025  0.2156  0.4841 -1.4589
  110OSM    H7T11332   5.929   6.652   9.054  0.1085 -0.5372  0.3016
  110OSM    C8S11333   5.907   6.597   8.844 -0.4548  0.0576  0.9026
  110OSM    H8S11334   6.017   6.585   8.830 -0.6653 -3.3955  1.2395
  110OSM    H8T11335   5.866   6.692   8.804  0.5151  0.1074 -0.0210
  110OSM    C9S11336   5.861   6.494   8.738  0.0720 -0.4784  0.0393
  110OSM    H9S11337   5.754   6.476   8.761 -0.1038 -1.3195 -1.2696
  110OSM    H9T11338   5.916   6.400   8.763  1.2980 -0.2509 -1.6134
  110OSM   C10S11339   5.884   6.531   8.591  0.3166 -0.3351 -0.0790
  110OSM   H10S11340   5.881   6.434   8.538  2.4014 -0.4061 -0.1535
  110OSM   H10T11341   5.989   6.569   8.584  0.1678 -0.1236 -1.5591
  110OSM   C11S11342   5.779   6.627   8.543  0.3707  0.1399  0.3507
  110OSM   H11S11343   5.794   6.723   8.596  1.8607  0.5171 -0.6963
  110OSM   H11T11344   5.682   6.575   8.559  0.4276 -0.4244 -0.9353
  110OSM   C12S11345   5.787   6.644   8.387  0.0461 -0.0301  0.2591
  110OSM   H12S11346   5.876   6.704   8.359  1.7651 -2.1376  0.9485
  110OSM   H12T11347   5.704   6.713   8.359 -0.3695  0.3878  2.3128
  110OSM   C13S11348   5.805   6.523   8.303  0.4451  0.3797  0.4264
  110OSM   H13S11349   5.733   6.450   8.345  2.2792 -1.8021 -0.0209
  110OSM   H13T11350   5.904   6.474   8.307  0.2224  0.0045  1.8572
  110OSM   C14S11351   5.766   6.554   8.157 -0.8035  0.0446 -0.0880
  110OSM   H14S11352   5.656   6.558   8.145 -0.9401 -0.2564  0.9271
  110OSM   H14T11353   5.796   6.470   8.091 -1.6095 -0.7193  0.4926
  110OSM   C15S11354   5.829   6.673   8.083  1.1636 -0.9288 -0.2272
  110OSM   H15S11355   5.920   6.698   8.142 -0.4981  1.8066  1.4276
  110OSM   H15T11356   5.762   6.761   8.092  3.7122  1.2460 -1.1907
  110OSM   C16S11357   5.877   6.642   7.945  0.2407  0.5767 -0.4667
  110OSM   H16S11358   5.950   6.558   7.945  2.8870  2.7196  0.6810
  110OSM   H16T11359   5.932   6.723   7.892 -2.0923  1.7980 -1.1706
  110OSM   C17S11360   5.766   6.592   7.844 -0.0412 -0.2768  0.4061
  110OSM   H17S11361   5.729   6.488   7.861  1.2406 -0.5832  1.5005
  110OSM   H17T11362   5.807   6.591   7.741  0.0856  0.7037  0.4369
  110OSM   C18S11363   5.650   6.685   7.822 -0.1262 -0.0899  0.3378
  110OSM   H18S11364   5.559   6.651   7.767  0.0522 -1.1886  0.7036
  110OSM   H18T11365   5.681   6.787   7.789 -0.3279 -0.1325  0.0053
  110OSM   H18U11366   5.622   6.715   7.925  1.7454  0.7751  0.6365
  110OSM    C1F11367   5.217   6.531   9.357 -0.3772 -0.0088  0.1360
  110OSM     OF11368   5.164   6.614   9.431 -0.1598 -0.2130  0.1844
  110OSM    C2F11369   5.130   6.436   9.274  0.0774 -0.2760 -0.7214
  110OSM    H2F11370   5.129   6.339   9.327 -0.3705 -1.9447 -3.6098
  110OSM    H2G11371   5.183   6.421   9.178  2.0619  0.6621  0.1626
  110OSM    C3F11372   4.984   6.483   9.252  0.6992  1.0996 -0.9027
  110OSM    H3F11373   4.992   6.541   9.157  0.0801 -0.8728 -2.2134
  110OSM    H3G11374   4.945   6.541   9.338  1.2865 -1.3634  1.1534
  110OSM    C4F11375   4.884   6.374   9.226 -0.3239 -0.0470  0.2840
  110OSM    H4F11376   4.775   6.394   9.220 -0.3017 -0.3310 -1.5898
  110OSM    H4G11377   4.888   6.315   9.320  2.2501  1.3750  1.1541
  110OSM    C5F11378   4.917   6.271   9.118  0.4647  0.0517 -0.6374
  110OSM    H5F11379   4.861   6.180   9.148  2.1910 -0.5887  0.8824
  110OSM    H5G11380   5.025   6.246   9.122  0.7909  1.3930 -0.3350
  110OSM    C6F11381   4.889   6.318   8.975  0.2916 -0.6457  0.2383
  110OSM    H6F11382   4.929   6.421   8.963 -1.1745  0.0413  1.0357
  110OSM    H6G11383   4.780   6.325   8.954  0.5614 -0.8905 -1.4198
  110OSM    C7F11384   4.953   6.224   8.871  0.3227  0.6549 -0.2126
  110OSM    H7F11385   4.912   6.122   8.884  2.0313 -0.4445 -2.7584
  110OSM    H7G11386   5.060   6.214   8.899  0.5226 -3.2832 -1.7748
  110OSM    C8F11387   4.942   6.264   8.720  0.2039  0.0334 -0.3754
  110OSM    H8F11388   4.835   6.283   8.700  0.1409 -0.8224 -0.9164
  110OSM    H8G11389   4.987   6.181   8.660  2.6766  0.6637  0.4811
  110OSM    C9F11390   5.017   6.398   8.697 -0.2514  0.4701  0.7418
  110OSM    H9F11391   5.077   6.445   8.777  0.3550  1.0740 -0.0521
  110OSM   C10F11392   5.019   6.469   8.586  0.2972 -0.2750 -0.3148
  110OSM   H10F11393   5.073   6.565   8.579 -0.1013  0.2177  2.3130
  110OSM   C11F11394   4.954   6.437   8.447  0.1282  0.5344  0.4082
  110OSM   H11F11395   4.877   6.510   8.412 -1.5275 -1.2710  0.1216
  110OSM   H11G11396   4.895   6.344   8.461  0.7880 -0.0843 -0.7760
  110OSM   C12F11397   5.041   6.411   8.327 -1.0838  0.4706  0.5991
  110OSM   H12F11398   4.968   6.395   8.245  0.8472  0.3309 -1.1512
  110OSM   H12G11399   5.104   6.321   8.338 -0.5269  0.4367 -2.2541
  110OSM   C13F11400   5.148   6.519   8.286  0.6015  0.9422  0.4907
  110OSM   H13F11401   5.238   6.509   8.351 -0.0088 -2.0380  1.0205
  110OSM   H13G11402   5.100   6.618   8.297 -3.3148 -0.7362  0.1054
  110OSM   C14F11403   5.174   6.488   8.137 -0.2091  0.1305  0.0248
  110OSM   H14F11404   5.084   6.484   8.073 -0.0675 -2.2272 -0.1030
  110OSM   H14G11405   5.222   6.388   8.140  0.8500  0.6363  0.6760
  110OSM   C15F11406   5.289   6.578   8.091  0.5449  0.9313 -0.7142
  110OSM   H15F11407   5.370   6.573   8.167 -0.9731  0.3800  0.9399
  110OSM   H15G11408   5.262   6.685   8.100  0.8194  0.8282  2.6797
  110OSM   C16F11409   5.335   6.549   7.950  0.2108  0.1701 -0.0046
  110OSM   H16F11410   5.339   6.438   7.941 -1.3799  0.0243  0.8465
  110OSM   H16G11411   5.441   6.584   7.946  0.9945 -2.1151 -1.2162
  110OSM   C17F11412   5.254   6.615   7.834 -0.0627  0.4265 -0.1070
  110OSM   H17F11413   5.154   6.635   7.878  0.0008 -0.7514  0.5855
  110OSM   H17G11414   5.252   6.540   7.753 -0.3283  0.0366  0.2570
  110OSM   C18F11415   5.315   6.750   7.795  0.9652 -0.2660  0.4538
  110OSM   H18F11416   5.239   6.830   7.783 -0.0590 -1.4854 -1.7380
  110OSM   H18G11417   5.356   6.725   7.694 -2.0414 -1.8765 -0.4973
  110OSM   H18H11418   5.396   6.790   7.859  1.1848 -1.2068  0.7797
  111OSM      N11419   0.136   5.573  10.111 -0.3134 -0.0441  0.0415
  111OSM    C1511420   0.038   5.488  10.175 -0.0576 -0.1230 -0.3603
  111OSM   H15A11421   0.077   5.406  10.234  0.2105  1.0103  1.1012
  111OSM   H15B11422  -0.013   5.430  10.098  2.0432  0.6444 -2.4408
  111OSM   H15C11423  -0.039   5.542  10.229  0.2001 -0.3022  0.1935
  111OSM    C1411424   0.070   5.649  10.000  0.1113 -0.3149  0.1715
  111OSM   H14A11425   0.030   5.580   9.928 -0.3752  1.6653 -1.5421
  111OSM   H14B11426   0.130   5.725   9.952  3.1414 -3.3041 -1.2116
  111OSM   H14C11427  -0.013   5.705  10.041 -1.1166 -0.8943 -1.4517
  111OSM    C1311428   0.180   5.683  10.208 -0.1666  0.2717  0.5807
  111OSM   H13A11429   0.109   5.761  10.231 -0.2492 -0.2964  2.4643
  111OSM   H13B11430   0.265   5.741  10.176  0.5085 -0.9102  0.1479
  111OSM   H13C11431   0.214   5.651  10.306  0.3370  1.3423  0.7583
  111OSM    C1211432   0.256   5.493  10.064  0.1579  0.6914 -0.1355
  111OSM   H12A11433   0.298   5.444  10.151  0.7026  0.9503 -0.2447
  111OSM   H12B11434   0.330   5.571  10.048 -0.5787  2.2031  2.9141
  111OSM    C1111435   0.243   5.407   9.939 -0.3342  0.3099  0.1691
  111OSM   H11A11436   0.345   5.368   9.924 -0.7302 -0.5966 -0.2202
  111OSM   H11B11437   0.204   5.461   9.850  0.2081  0.4440  0.0085
  111OSM      P11438   0.028   5.257   9.886  0.4295  0.6051 -0.2722
  111OSM    O1311439   0.020   5.109   9.898  0.3091 -0.0897 -0.8062
  111OSM    O1411440  -0.091   5.335   9.931 -0.4275 -1.6676  0.4920
  111OSM    O1111441   0.076   5.300   9.743 -0.2865 -0.0819  0.0461
  111OSM    O1211442   0.162   5.290   9.962  0.2464  0.4413 -0.4184
  111OSM    C1S11443   0.158   5.212   9.672 -0.7314 -0.1912 -0.0302
  111OSM    H1S11444   0.125   5.106   9.680 -0.9281 -0.2647 -1.5117
  111OSM    H1T11445   0.262   5.226   9.710 -0.5931 -0.8597 -0.1530
  111OSM     NF11446   0.247   5.157   9.447 -0.5238  0.0889  0.6426
  111OSM    HNF11447   0.345   5.174   9.455 -0.5389  0.7301 -0.2985
  111OSM    C2S11448   0.165   5.255   9.520 -0.2628  1.1332 -0.2450
  111OSM    H2S11449   0.061   5.243   9.481 -0.2082 -1.0789  0.1619
  111OSM    C3S11450   0.197   5.400   9.494 -0.0244 -0.5716 -0.8992
  111OSM    H3S11451   0.290   5.426   9.548 -0.5881  0.5609 -0.4269
  111OSM     O311452   0.105   5.498   9.565 -0.1183  0.0798  0.8300
  111OSM    HO311453   0.048   5.442   9.619 -1.7458 -1.7227 -2.4257
  111OSM    C4S11454   0.209   5.427   9.351 -0.4387 -0.7913  0.3837
  111OSM    H4S11455   0.131   5.373   9.296 -0.0783  0.4883 -1.4820
  111OSM    C5S11456   0.310   5.493   9.292  0.6787 -0.5228 -0.3898
  111OSM    H5S11457   0.400   5.521   9.349  0.9050  0.9937 -1.4353
  111OSM    C6S11458   0.334   5.510   9.144  0.6779  0.7379  0.3231
  111OSM    H6S11459   0.423   5.575   9.133  0.4367  1.4835  2.4020
  111OSM    H6T11460   0.254   5.570   9.095  1.8494  3.0337  1.1034
  111OSM    C7S11461   0.374   5.381   9.066 -0.0750 -0.4156  0.3758
  111OSM    H7S11462   0.296   5.302   9.077  1.0111 -1.8806 -1.7797
  111OSM    H7T11463   0.470   5.339   9.104 -0.4200 -2.9534 -1.2882
  111OSM    C8S11464   0.404   5.425   8.914 -1.3488 -1.0681  0.3980
  111OSM    H8S11465   0.463   5.343   8.869  0.1937  1.3459 -2.2945
  111OSM    H8T11466   0.468   5.515   8.911  1.0570 -2.7145 -1.4528
  111OSM    C9S11467   0.287   5.456   8.820  0.5699  0.2144  0.6303
  111OSM    H9S11468   0.249   5.552   8.861  2.2077  1.2959 -0.2776
  111OSM    H9T11469   0.194   5.401   8.846 -1.2845  2.5026 -0.8037
  111OSM   C10S11470   0.310   5.487   8.674 -0.1578  1.0227 -0.1553
  111OSM   H10S11471   0.210   5.492   8.625 -0.2647 -0.4191 -0.1171
  111OSM   H10T11472   0.355   5.393   8.635 -1.2258  0.5393 -0.2525
  111OSM   C11S11473   0.389   5.615   8.653 -0.0569  0.5513  0.1985
  111OSM   H11S11474   0.493   5.614   8.693 -0.0139 -2.8334  0.3018
  111OSM   H11T11475   0.330   5.688   8.712 -0.4607  1.2360 -1.0134
  111OSM   C12S11476   0.384   5.655   8.507  0.5746  0.6000 -0.6530
  111OSM   H12S11477   0.277   5.637   8.482  0.3380 -0.9715  1.2448
  111OSM   H12T11478   0.450   5.595   8.441 -1.4648 -0.3235 -1.9304
  111OSM   C13S11479   0.425   5.797   8.472  0.9673 -0.1930  0.5517
  111OSM   H13S11480   0.533   5.808   8.497  1.3531 -2.9993  0.4737
  111OSM   H13T11481   0.361   5.877   8.514  1.8130 -0.0309  1.5794
  111OSM   C14S11482   0.405   5.829   8.317  0.2087 -0.5367  0.1294
  111OSM   H14S11483   0.299   5.835   8.285  0.2080  1.1298  0.3616
  111OSM   H14T11484   0.438   5.747   8.250 -1.0411  0.7606 -2.1990
  111OSM   C15S11485   0.473   5.952   8.268  0.5937 -0.6209 -1.1135
  111OSM   H15S11486   0.583   5.941   8.281  0.7128 -1.5903 -2.7505
  111OSM   H15T11487   0.431   6.030   8.335 -1.9907 -1.9461 -1.0693
  111OSM   C16S11488   0.458   5.988   8.121  0.5092  0.1969  0.6517
  111OSM   H16S11489   0.350   5.983   8.098  0.4594 -0.1111  0.9394
  111OSM   H16T11490   0.511   5.909   8.064  1.9558 -0.6153  2.9476
  111OSM   C17S11491   0.486   6.137   8.087  0.7394 -0.0389 -0.3403
  111OSM   H17S11492   0.510   6.139   7.979  2.4155  0.1538  0.0089
  111OSM   H17T11493   0.563   6.196   8.142  0.1572 -0.2018  0.6639
  111OSM   C18S11494   0.358   6.223   8.096 -0.8166  0.4450 -0.6210
  111OSM   H18S11495   0.326   6.236   8.202  0.1185 -2.7824  0.1890
  111OSM   H18T11496   0.274   6.164   8.055  0.0030 -1.0229 -0.2587
  111OSM   H18U11497   0.351   6.323   8.048  0.6127  1.4422  1.1304
  111OSM    C1F11498   0.214   5.035   9.400 -1.2437  0.0652 -0.4371
  111OSM     OF11499   0.095   5.005   9.396  0.4578  0.4534 -0.5681
  111OSM    C2F11500   0.316   4.943   9.359 -1.0595 -0.4550  0.5758
  111OSM    H2F11501   0.320   4.849   9.419  0.3997 -0.4120  0.5935
  111OSM    H2G11502   0.418   4.986   9.372 -1.6590  0.9033  0.9873
  111OSM    C3F11503   0.309   4.886   9.217  0.3949 -0.1616 -0.3146
  111OSM    H3F11504   0.210   4.835   9.209 -1.4308  3.1908 -0.7547
  111OSM    H3G11505   0.388   4.810   9.201 -1.7213 -2.6292  0.1523
  111OSM    C4F11506   0.334   4.986   9.115 -0.1009 -0.6955 -0.5173
  111OSM    H4F11507   0.431   5.033   9.142  0.5130 -2.3234  0.2195
  111OSM    H4G11508   0.261   5.069   9.123  1.7922  1.0724 -0.6251
  111OSM    C5F11509   0.341   4.933   8.977 -0.8548 -0.1021  0.3636
  111OSM    H5F11510   0.237   4.914   8.944 -0.6090 -3.5445  1.1453
  111OSM    H5G11511   0.398   4.837   8.976  0.5589  0.7072 -1.4989
  111OSM    C6F11512   0.401   5.032   8.873  0.1379 -0.3733  0.0949
  111OSM    H6F11513   0.508   5.051   8.897  0.0999  0.3670 -0.2775
  111OSM    H6G11514   0.351   5.131   8.863  1.0926  0.0317 -0.9534
  111OSM    C7F11515   0.391   4.973   8.729  0.1305  0.5825 -0.6289
  111OSM    H7F11516   0.316   4.890   8.724  1.8685 -1.0631 -0.5536
  111OSM    H7G11517   0.490   4.928   8.707  0.9441  0.7803  2.1890
  111OSM    C8F11518   0.365   5.080   8.617 -0.0875  0.1074 -1.0824
  111OSM    H8F11519   0.435   5.162   8.644 -2.3594  1.0293  2.7557
  111OSM    H8G11520   0.263   5.120   8.636  0.1391 -0.5575  2.0594
  111OSM    C9F11521   0.374   5.042   8.472 -0.1385 -0.1000 -0.3315
  111OSM    H9F11522   0.349   4.940   8.438 -0.5476  0.5961 -2.2601
  111OSM   C10F11523   0.419   5.120   8.381 -0.4174  0.5363  0.1205
  111OSM   H10F11524   0.422   5.070   8.283 -1.7038 -0.7405  0.7008
  111OSM   C11F11525   0.474   5.264   8.385 -0.6496 -0.2655  0.1672
  111OSM   H11F11526   0.584   5.256   8.366 -0.5239  0.1220  0.7207
  111OSM   H11G11527   0.463   5.315   8.483 -2.4797  0.5281 -0.4071
  111OSM   C12F11528   0.420   5.353   8.265  0.3478 -0.4976 -0.7992
  111OSM   H12F11529   0.422   5.290   8.173 -1.5837 -1.0460 -0.5213
  111OSM   H12G11530   0.478   5.444   8.240  0.1114  0.4173  1.7236
  111OSM   C13F11531   0.268   5.404   8.274 -0.3491 -0.0646 -0.0579
  111OSM   H13F11532   0.265   5.502   8.325  1.5615 -0.1670  0.2972
  111OSM   H13G11533   0.225   5.332   8.347  1.2754  0.3580  1.3815
  111OSM   C14F11534   0.198   5.419   8.142 -0.4413  0.6048 -0.1230
  111OSM   H14F11535   0.099   5.467   8.151 -1.0210 -0.2232 -1.6931
  111OSM   H14G11536   0.171   5.315   8.116 -1.3785  0.6375  0.6838
  111OSM   C15F11537   0.274   5.503   8.036  0.3772 -0.3332  0.2127
  111OSM   H15F11538   0.376   5.459   8.029  0.6970  0.5780 -1.1518
  111OSM   H15G11539   0.282   5.603   8.083 -0.5179 -0.5318  0.8073
  111OSM   C16F11540   0.204   5.521   7.899  0.1116  0.3962  0.1900
  111OSM   H16F11541   0.100   5.553   7.920 -1.8020 -3.7931 -1.6656
  111OSM   H16G11542   0.198   5.419   7.854  0.7582 -0.1747  1.3372
  111OSM   C17F11543   0.277   5.624   7.809  0.3049 -0.1477 -0.2115
  111OSM   H17F11544   0.252   5.587   7.708  0.0922 -0.2464 -0.1238
  111OSM   H17G11545   0.388   5.623   7.804  0.4903  2.4136  1.4908
  111OSM   C18F11546   0.230   5.769   7.838  0.4342 -0.1336 -0.3175
  111OSM   H18F11547   0.234   5.835   7.749 -0.6252 -0.1629 -0.4055
  111OSM   H18G11548   0.295   5.811   7.917  0.5017  0.3669 -0.6389
  111OSM   H18H11549   0.125   5.765   7.875  0.2202  1.6775 -0.6422
  112OSM      N11550   0.607   2.575   9.958 -0.1426  0.7804 -0.4271
  112OSM    C1511551   0.748   2.601   9.908  0.0650 -0.1003  0.1415
  112OSM   H15A11552   0.800   2.684   9.954  2.0144 -1.8209  1.1532
  112OSM   H15B11553   0.757   2.619   9.802  2.0754  1.6399  0.5501
  112OSM   H15C11554   0.803   2.513   9.936 -1.6117 -0.7622  1.5602
  112OSM    C1411555   0.617   2.533  10.099  0.1785  0.3163  0.2228
  112OSM   H14A11556   0.648   2.431  10.115  0.1350  0.1627 -0.6375
  112OSM   H14B11557   0.520   2.557  10.139 -0.2720 -0.5726 -0.3191
  112OSM   H14C11558   0.687   2.601  10.147 -0.3756  1.4679 -0.5569
  112OSM    C1311559   0.532   2.700   9.964 -0.1004  0.0175  0.0211
  112OSM   H13A11560   0.573   2.767  10.038 -1.4192  1.6867 -0.6995
  112OSM   H13B11561   0.427   2.702   9.987 -0.0066  1.7344  0.4380
  112OSM   H13C11562   0.549   2.748   9.868 -1.5842 -0.0813 -0.3137
  112OSM    C1211563   0.539   2.478   9.862  0.8947  0.0560 -0.4658
  112OSM   H12A11564   0.439   2.457   9.897  1.4150 -0.8439  0.5379
  112OSM   H12B11565   0.595   2.385   9.856  0.2723 -0.4784  1.3080
  112OSM    C1111566   0.528   2.539   9.726  0.0157 -1.2705  0.9631
  112OSM   H11A11567   0.506   2.648   9.724  0.7041 -1.1271  0.7569
  112OSM   H11B11568   0.437   2.490   9.686 -1.0985  0.2284  1.5577
  112OSM      P11569   0.703   2.384   9.597 -0.0858 -0.0136  0.1922
  112OSM    O1311570   0.849   2.393   9.582  0.9065  0.4846  0.2930
  112OSM    O1411571   0.659   2.272   9.685 -0.0101  0.6065  0.0037
  112OSM    O1111572   0.629   2.375   9.460 -0.1101 -0.5100 -0.1177
  112OSM    O1211573   0.651   2.521   9.656  0.0406  0.9478  0.1896
  112OSM    C1S11574   0.606   2.485   9.372  0.5956  0.3108 -0.0124
  112OSM    H1S11575   0.701   2.515   9.322  0.8035 -0.2002  0.0667
  112OSM    H1T11576   0.567   2.574   9.425  0.0892  1.0225 -1.5281
  112OSM     NF11577   0.507   2.567   9.180  0.2504 -0.3715  0.7590
  112OSM    HNF11578   0.460   2.652   9.202  1.2960  1.5877 -3.5649
  112OSM    C2S11579   0.494   2.454   9.268 -0.2090  0.1584 -0.4019
  112OSM    H2S11580   0.512   2.365   9.203  1.0415 -1.5513  2.1297
  112OSM    C3S11581   0.357   2.446   9.340  0.8413  0.4106  0.5022
  112OSM    H3S11582   0.355   2.531   9.412  0.3207 -0.4491  1.5372
  112OSM     O311583   0.339   2.320   9.410  0.3679 -0.1541  0.6767
  112OSM    HO311584   0.429   2.288   9.395  1.1323  1.6453  1.1336
  112OSM    C4S11585   0.257   2.461   9.231  0.4065  0.3136  0.5755
  112OSM    H4S11586   0.249   2.566   9.197 -0.3848  0.2368  0.5202
  112OSM    C5S11587   0.182   2.368   9.162  0.6447 -0.5648 -0.4642
  112OSM    H5S11588   0.185   2.268   9.207 -0.9679  0.1706  1.4430
  112OSM    C6S11589   0.084   2.394   9.048 -0.4107  0.2559  0.0850
  112OSM    H6S11590  -0.022   2.371   9.077  0.2524 -2.2341  0.8560
  112OSM    H6T11591   0.097   2.315   8.971 -4.2047  0.5190 -1.0299
  112OSM    C7S11592   0.087   2.537   8.989 -0.0611 -0.0945 -0.1275
  112OSM    H7S11593   0.187   2.556   8.944 -0.2095  0.9071 -0.0643
  112OSM    H7T11594   0.073   2.617   9.065  2.5646 -0.2267  0.5978
  112OSM    C8S11595  -0.027   2.555   8.879  0.6787  0.1870 -0.1487
  112OSM    H8S11596  -0.039   2.665   8.872 -0.9478 -0.0372 -1.2425
  112OSM    H8T11597  -0.123   2.517   8.920  0.1439  2.9772  1.4777
  112OSM    C9S11598   0.008   2.483   8.741  0.3112  0.8052  0.7472
  112OSM    H9S11599   0.051   2.383   8.762  0.4068 -0.2308 -3.4014
  112OSM    H9T11600   0.097   2.535   8.699  1.3990 -1.1876  0.4575
  112OSM   C10S11601  -0.118   2.472   8.645  0.0620  0.2001  0.1929
  112OSM   H10S11602  -0.168   2.571   8.635 -0.2973  0.0341  0.3198
  112OSM   H10T11603  -0.200   2.404   8.675  0.0020  0.0396 -0.3181
  112OSM   C11S11604  -0.078   2.438   8.503  0.3659  0.3071 -0.1753
  112OSM   H11S11605  -0.039   2.334   8.501 -1.3418 -0.3701  0.1559
  112OSM   H11T11606   0.002   2.504   8.462 -0.1418  0.1367 -1.4755
  112OSM   C12S11607  -0.185   2.445   8.401 -0.3339 -0.1399 -0.2016
  112OSM   H12S11608  -0.223   2.549   8.396  1.9306  0.8375  1.1569
  112OSM   H12T11609  -0.267   2.380   8.440 -0.4354 -0.3439 -0.7497
  112OSM   C13S11610  -0.134   2.396   8.266 -0.5926 -1.0471 -0.1567
  112OSM   H13S11611  -0.121   2.286   8.276 -1.4289 -1.0703  0.7824
  112OSM   H13T11612  -0.039   2.448   8.241 -0.3432  0.0526  2.7263
  112OSM   C14S11613  -0.255   2.418   8.171 -0.0467  0.2293  0.0471
  112OSM   H14S11614  -0.294   2.522   8.168 -1.8010 -0.4338 -2.3312
  112OSM   H14T11615  -0.336   2.348   8.200 -3.2154  2.4575 -2.6589
  112OSM   C15S11616  -0.213   2.387   8.026 -0.0355 -0.5480 -0.3190
  112OSM   H15S11617  -0.305   2.391   7.964 -0.4546 -0.3473  0.3005
  112OSM   H15T11618  -0.164   2.288   8.027 -1.2296 -1.1695 -0.9099
  112OSM   C16S11619  -0.109   2.482   7.963  0.1256 -0.2547 -0.5520
  112OSM   H16S11620  -0.012   2.485   8.018 -0.7000 -0.1404  0.9660
  112OSM   H16T11621  -0.155   2.583   7.964 -0.1440 -0.3552 -1.6712
  112OSM   C17S11622  -0.084   2.442   7.812 -0.2933 -0.7776 -1.2190
  112OSM   H17S11623  -0.044   2.339   7.814  1.4045 -0.1448 -0.5704
  112OSM   H17T11624   0.007   2.494   7.776 -1.6321  2.9632  0.3242
  112OSM   C18S11625  -0.195   2.459   7.707 -0.2135  0.3778  0.1841
  112OSM   H18S11626  -0.287   2.401   7.729 -0.9311  1.8416  1.1604
  112OSM   H18T11627  -0.145   2.418   7.617  1.8698  0.6515  1.1486
  112OSM   H18U11628  -0.225   2.564   7.693  1.6412  0.7077 -1.8749
  112OSM    C1F11629   0.575   2.567   9.063 -0.5538 -0.7230  0.5829
  112OSM     OF11630   0.648   2.467   9.032  0.4271 -0.4442  0.2334
  112OSM    C2F11631   0.560   2.688   8.980 -0.8725 -0.3784 -0.6735
  112OSM    H2F11632   0.660   2.712   8.937  0.1457  0.2245  1.8262
  112OSM    H2G11633   0.543   2.784   9.034 -0.2260 -1.2339  1.1392
  112OSM    C3F11634   0.450   2.673   8.868 -0.5942 -0.5520 -0.5546
  112OSM    H3F11635   0.352   2.651   8.916 -1.4008  3.0439 -0.3299
  112OSM    H3G11636   0.477   2.587   8.803 -0.6192  0.0292 -1.3335
  112OSM    C4F11637   0.425   2.801   8.792  0.1962 -0.0586 -0.5032
  112OSM    H4F11638   0.517   2.848   8.751  0.0485  0.9957  0.3457
  112OSM    H4G11639   0.387   2.875   8.865  2.9474  1.7280 -0.7223
  112OSM    C5F11640   0.322   2.769   8.686  0.4553  0.3842  0.1897
  112OSM    H5F11641   0.224   2.762   8.739 -0.1644  0.5139 -0.9238
  112OSM    H5G11642   0.346   2.671   8.639 -0.0573  1.1624 -1.7730
  112OSM    C6F11643   0.304   2.879   8.584 -0.4136 -0.1955 -0.2840
  112OSM    H6F11644   0.401   2.898   8.533 -0.1268 -0.7460  0.0427
  112OSM    H6G11645   0.267   2.970   8.635  2.5137  0.5548  0.6767
  112OSM    C7F11646   0.220   2.835   8.464  0.3910 -0.0761 -0.6005
  112OSM    H7F11647   0.128   2.785   8.504  0.0561  1.5775  0.8384
  112OSM    H7G11648   0.279   2.755   8.416 -0.1431 -0.8991  0.0796
  112OSM    C8F11649   0.194   2.943   8.360  0.9451 -0.0801 -0.2413
  112OSM    H8F11650   0.290   2.990   8.329  0.6063 -0.4891 -2.0175
  112OSM    H8G11651   0.127   3.020   8.405  1.2103  0.2067 -0.3334
  112OSM    C9F11652   0.123   2.890   8.237  0.6460 -0.5316  0.0508
  112OSM    H9F11653   0.027   2.842   8.259 -1.1180  0.5173 -4.2310
  112OSM   C10F11654   0.158   2.895   8.104 -0.0723  0.3070  1.0124
  112OSM   H10F11655   0.098   2.838   8.032 -2.6644 -0.8162  3.8651
  112OSM   C11F11656   0.289   2.950   8.053 -0.1594 -0.4841 -0.1425
  112OSM   H11F11657   0.332   2.895   7.967 -0.0690 -1.2643  0.3922
  112OSM   H11G11658   0.365   2.958   8.134 -0.6265  2.5401  0.1259
  112OSM   C12F11659   0.274   3.102   8.009  0.2795  0.3845 -0.2971
  112OSM   H12F11660   0.226   3.166   8.086  1.5941  1.1215 -0.0580
  112OSM   H12G11661   0.215   3.102   7.915 -0.0014 -1.7455 -0.1712
  112OSM   C13F11662   0.413   3.163   7.972  0.0017 -0.8945  0.6572
  112OSM   H13F11663   0.476   3.157   8.064  0.3792 -1.2373  0.3767
  112OSM   H13G11664   0.391   3.271   7.957  1.7149 -0.5003  0.7852
  112OSM   C14F11665   0.474   3.104   7.845  0.4461 -0.0314  0.4584
  112OSM   H14F11666   0.511   3.000   7.855 -1.5638 -0.7069  1.4026
  112OSM   H14G11667   0.560   3.173   7.827  0.3479  0.2829  1.1610
  112OSM   C15F11668   0.384   3.115   7.721 -0.3832  0.7642 -0.0995
  112OSM   H15F11669   0.361   3.222   7.698 -0.0475  0.8838  0.1148
  112OSM   H15G11670   0.294   3.050   7.727 -1.1154  1.5001 -2.2174
  112OSM   C16F11671   0.458   3.080   7.586 -0.3453 -0.7439 -0.0563
  112OSM   H16F11672   0.559   3.126   7.596 -0.4264 -0.5786  0.0104
  112OSM   H16G11673   0.403   3.137   7.508  0.5485  0.6251  0.2602
  112OSM   C17F11674   0.467   2.931   7.553  0.3507  0.1980 -0.6305
  112OSM   H17F11675   0.366   2.892   7.531  0.4462 -1.6882  1.7558
  112OSM   H17G11676   0.495   2.879   7.648 -2.0364 -1.2558 -0.6403
  112OSM   C18F11677   0.570   2.894   7.443  0.7646  0.3113 -0.2130
  112OSM   H18F11678   0.540   2.937   7.345 -1.6599  0.0416  0.3324
  112OSM   H18G11679   0.570   2.784   7.428  1.3319  0.3638 -0.6293
  112OSM   H18H11680   0.674   2.919   7.473  0.3206 -0.3052  2.0305
  113OSM      N11681   0.307   2.012   9.591  0.3283  0.0030  0.2542
  113OSM    C1511682   0.302   2.006   9.441 -0.5310 -0.2506  0.2998
  113OSM   H15A11683   0.370   1.931   9.403 -0.4873  0.5813 -1.3547
  113OSM   H15B11684   0.325   2.099   9.390 -0.5203  0.2242  1.1472
  113OSM   H15C11685   0.200   1.973   9.424 -1.2975  1.1858  1.8064
  113OSM    C1411686   0.277   1.868   9.631 -0.2084 -0.6825 -0.3891
  113OSM   H14A11687   0.179   1.837   9.598 -0.3910 -0.2074 -0.2940
  113OSM   H14B11688   0.300   1.848   9.735  1.2516 -0.2955 -0.6063
  113OSM   H14C11689   0.339   1.797   9.577  1.2499 -0.6114  1.1003
  113OSM    C1311690   0.441   2.057   9.635 -0.0325 -0.8268 -0.1417
  113OSM   H13A11691   0.451   2.164   9.625 -0.1327 -0.3825  3.3379
  113OSM   H13B11692   0.520   2.014   9.574  1.6372  1.7449  0.0657
  113OSM   H13C11693   0.463   2.043   9.740  1.4443  2.2788  0.0755
  113OSM    C1211694   0.208   2.109   9.649 -0.0969  0.3581  0.2005
  113OSM   H12A11695   0.251   2.203   9.616  0.6248 -0.5417 -1.5648
  113OSM   H12B11696   0.218   2.097   9.755 -1.0467 -3.4848  0.0189
  113OSM    C1111697   0.059   2.100   9.621 -0.3754 -0.0016 -0.0323
  113OSM   H11A11698   0.058   2.127   9.514  1.8171 -0.6954 -0.2845
  113OSM   H11B11699   0.017   2.190   9.670 -0.5604 -0.1960  0.1764
  113OSM      P11700  -0.151   1.954   9.607 -0.3101 -0.4342 -0.1250
  113OSM    O1311701  -0.192   1.815   9.643  0.4023 -0.0087  0.2897
  113OSM    O1411702  -0.237   2.065   9.657 -0.4637  0.0414 -0.6424
  113OSM    O1111703  -0.152   1.961   9.450 -0.1638 -0.2283 -0.3922
  113OSM    O1211704  -0.001   1.973   9.657 -0.0958  0.6835  0.6414
  113OSM    C1S11705  -0.056   1.872   9.386  0.3463  0.5560  0.5219
  113OSM    H1S11706  -0.083   1.766   9.407  1.1865  0.0473 -0.8342
  113OSM    H1T11707   0.048   1.889   9.423 -1.1338  1.5481  4.8568
  113OSM     NF11708   0.006   1.757   9.173 -0.6895  0.5664  0.6116
  113OSM    HNF11709   0.096   1.763   9.131 -1.4441  1.4253 -1.0156
  113OSM    C2S11710  -0.061   1.873   9.227  0.8396  0.2081 -0.2576
  113OSM    H2S11711  -0.168   1.870   9.197  0.9111 -1.7450 -0.4223
  113OSM    C3S11712  -0.006   2.001   9.171  0.4091 -1.0886 -0.4392
  113OSM    H3S11713   0.101   2.007   9.198  0.2425 -1.7811  0.4282
  113OSM     O311714  -0.069   2.117   9.239  0.6728  0.0329 -0.3074
  113OSM    HO311715  -0.119   2.087   9.316 -2.9567 -0.9105 -2.7470
  113OSM    C4S11716  -0.016   2.009   9.024 -0.0926  0.4061 -0.4575
  113OSM    H4S11717   0.072   1.966   8.974  1.2422  1.6894  0.6796
  113OSM    C5S11718  -0.106   2.081   8.956  0.2466 -0.0575  0.3282
  113OSM    H5S11719  -0.180   2.140   9.011  1.0751  1.8625 -0.5175
  113OSM    C6S11720  -0.100   2.100   8.805 -0.2932 -0.3319 -0.8994
  113OSM    H6S11721   0.005   2.101   8.769  0.2313 -1.1745  0.5370
  113OSM    H6T11722  -0.153   2.195   8.783 -3.3020 -1.2310  1.7390
  113OSM    C7S11723  -0.168   1.988   8.731  0.6100  0.4373  0.4447
  113OSM    H7S11724  -0.271   1.979   8.773  0.9776 -0.0685  1.2589
  113OSM    H7T11725  -0.104   1.898   8.743  2.5544  1.1860 -3.1279
  113OSM    C8S11726  -0.163   2.016   8.579 -0.4241  0.1563 -0.2382
  113OSM    H8S11727  -0.055   2.021   8.555 -0.3586 -0.9414 -0.2209
  113OSM    H8T11728  -0.212   2.114   8.557 -2.8860 -0.2240  2.8596
  113OSM    C9S11729  -0.225   1.892   8.505  0.2638 -0.3205 -0.2717
  113OSM    H9S11730  -0.335   1.890   8.523  0.1555  1.9626 -0.4039
  113OSM    H9T11731  -0.181   1.794   8.531 -0.6412 -0.3962  1.0505
  113OSM   C10S11732  -0.219   1.926   8.351  0.2349  0.8089  0.0222
  113OSM   H10S11733  -0.112   1.917   8.322 -0.0462 -0.1769 -0.7461
  113OSM   H10T11734  -0.272   2.021   8.327  0.8267  1.4364  1.1436
  113OSM   C11S11735  -0.284   1.817   8.263  0.3519 -0.9629  0.0514
  113OSM   H11S11736  -0.217   1.728   8.269  0.6694 -0.7231  0.1054
  113OSM   H11T11737  -0.274   1.848   8.157  0.0134  1.5866  0.6982
  113OSM   C12S11738  -0.417   1.774   8.311  0.0259  0.0154  0.4128
  113OSM   H12S11739  -0.487   1.859   8.323 -0.9460 -0.7018 -0.0148
  113OSM   H12T11740  -0.406   1.724   8.410 -0.7123 -0.4720  0.2559
  113OSM   C13S11741  -0.488   1.677   8.218 -0.0895 -0.1100 -0.2190
  113OSM   H13S11742  -0.427   1.585   8.202  1.3017  0.9146 -1.0316
  113OSM   H13T11743  -0.498   1.727   8.119  2.4689 -1.4787 -1.2723
  113OSM   C14S11744  -0.620   1.641   8.278  0.2163 -0.2667 -0.4913
  113OSM   H14S11745  -0.688   1.728   8.290  1.0586  0.4208 -0.6690
  113OSM   H14T11746  -0.612   1.611   8.384 -0.5150  1.2539  0.0257
  113OSM   C15S11747  -0.697   1.527   8.202 -0.1663 -0.6913  0.6134
  113OSM   H15S11748  -0.786   1.494   8.259 -0.2884  1.3518  1.6766
  113OSM   H15T11749  -0.631   1.439   8.186  3.0015  1.1331  2.4593
  113OSM   C16S11750  -0.747   1.561   8.056 -0.3361  0.0049 -0.0983
  113OSM   H16S11751  -0.662   1.597   7.994 -0.7640 -0.7526 -1.1818
  113OSM   H16T11752  -0.807   1.654   8.058  0.8457  0.7820  0.2169
  113OSM   C17S11753  -0.820   1.438   7.983 -0.0760 -1.0026 -0.4496
  113OSM   H17S11754  -0.749   1.353   7.974  2.5161  0.7709  1.7886
  113OSM   H17T11755  -0.848   1.466   7.880 -1.0225 -1.7764 -0.4232
  113OSM   C18S11756  -0.945   1.398   8.057  1.0325 -0.6818  0.3795
  113OSM   H18S11757  -0.999   1.493   8.078  0.2699 -0.3689 -2.6357
  113OSM   H18T11758  -0.926   1.330   8.144  0.1536 -0.4636  0.7615
  113OSM   H18U11759  -1.014   1.348   7.986  0.5958 -0.0208  0.3297
  113OSM    C1F11760  -0.051   1.632   9.183  0.2411  0.2155 -0.1342
  113OSM     OF11761  -0.167   1.622   9.223 -0.0968 -0.2581 -0.4301
  113OSM    C2F11762   0.030   1.516   9.139  0.4794  0.7259 -0.2619
  113OSM    H2F11763   0.030   1.445   9.224  1.2166  0.6863 -0.2913
  113OSM    H2G11764   0.132   1.552   9.113  0.4287  0.7571 -0.4148
  113OSM    C3F11765  -0.030   1.461   9.015  0.0594 -0.0954  0.7032
  113OSM    H3F11766  -0.045   1.550   8.950 -0.9217 -0.3396  0.5727
  113OSM    H3G11767  -0.129   1.412   9.027 -0.0493 -0.3006 -0.8139
  113OSM    C4F11768   0.053   1.348   8.949 -0.0657  0.0788  0.7771
  113OSM    H4F11769   0.153   1.383   8.918  0.4327 -1.6408  0.3198
  113OSM    H4G11770   0.001   1.317   8.856  1.4001  0.4557 -0.2066
  113OSM    C5F11771   0.081   1.219   9.040  0.2457 -0.4548 -0.2613
  113OSM    H5F11772  -0.001   1.171   9.097  1.7752 -1.4890  1.1883
  113OSM    H5G11773   0.160   1.250   9.113 -0.1009 -0.1150 -0.0316
  113OSM    C6F11774   0.134   1.111   8.948 -0.6863  0.0386  0.2031
  113OSM    H6F11775   0.057   1.068   8.880 -0.7177 -0.1669  0.3701
  113OSM    H6G11776   0.148   1.026   9.017 -3.0257 -0.4624  0.1533
  113OSM    C7F11777   0.267   1.147   8.876  0.3136 -1.0812  0.3821
  113OSM    H7F11778   0.323   1.210   8.949 -1.3976  0.6054  0.3044
  113OSM    H7G11779   0.240   1.209   8.788  1.1872 -0.8957  0.2296
  113OSM    C8F11780   0.339   1.025   8.822  0.5777  0.3594 -0.4739
  113OSM    H8F11781   0.282   0.989   8.733  0.6965 -2.6020  0.5429
  113OSM    H8G11782   0.330   0.940   8.893 -0.4136  1.0321  0.2244
  113OSM    C9F11783   0.487   1.045   8.806  0.0457  0.3201  0.5052
  113OSM    H9F11784   0.542   1.004   8.892  3.1002  1.8884 -0.5421
  113OSM   C10F11785   0.545   1.111   8.700  0.1345 -0.0898  0.4315
  113OSM   H10F11786   0.655   1.116   8.703  0.4261 -3.3254 -0.7321
  113OSM   C11F11787   0.468   1.173   8.585 -0.3902 -0.2129  1.0778
  113OSM   H11F11788   0.488   1.282   8.589 -0.7476 -0.0934  0.0508
  113OSM   H11G11789   0.359   1.159   8.604 -0.3352  0.6590  2.0836
  113OSM   C12F11790   0.499   1.099   8.448  0.5629  0.6025 -0.3695
  113OSM   H12F11791   0.609   1.099   8.432  1.1759  0.6608  3.0331
  113OSM   H12G11792   0.445   1.146   8.363 -1.9169  1.3510  1.5014
  113OSM   C13F11793   0.447   0.957   8.455  0.3011  0.2609 -0.2738
  113OSM   H13F11794   0.341   0.951   8.423 -0.1626 -1.0380  1.3490
  113OSM   H13G11795   0.452   0.916   8.558  0.0801 -0.7321 -0.6450
  113OSM   C14F11796   0.522   0.868   8.351 -0.4649  0.9172 -0.3359
  113OSM   H14F11797   0.475   0.768   8.341  0.9866  0.2549 -0.8539
  113OSM   H14G11798   0.627   0.865   8.389 -0.2883  2.7279 -0.5506
  113OSM   C15F11799   0.540   0.923   8.211  0.5256  0.4470 -0.3504
  113OSM   H15F11800   0.612   1.007   8.212  0.1068  0.8262  1.3746
  113OSM   H15G11801   0.442   0.958   8.172 -1.2409 -1.5203  2.0002
  113OSM   C16F11802   0.603   0.823   8.113  0.1648  0.7175 -0.7710
  113OSM   H16F11803   0.682   0.766   8.166  1.3586  2.4163 -0.6614
  113OSM   H16G11804   0.662   0.880   8.038  1.2258  0.4106 -0.1786
  113OSM   C17F11805   0.504   0.737   8.029  0.0932 -1.3867 -0.9018
  113OSM   H17F11806   0.574   0.677   7.967 -1.2343 -2.7024 -1.1761
  113OSM   H17G11807   0.436   0.808   7.978  0.2144  0.1077  0.9062
  113OSM   C18F11808   0.422   0.637   8.105 -0.8607  0.1235  0.1193
  113OSM   H18F11809   0.342   0.686   8.164  0.1434  0.7770  0.9558
  113OSM   H18G11810   0.499   0.591   8.170  1.1179  3.0229 -0.0063
  113OSM   H18H11811   0.374   0.561   8.039 -0.6311 -0.0556  0.1578
  114OSM      N11812   0.659   0.795   9.612 -0.5861  0.3165  0.0899
  114OSM    C1511813   0.552   0.824   9.716 -0.2512  0.0139 -0.1460
  114OSM   H15A11814   0.555   0.742   9.787 -1.9935 -0.7550 -0.8950
  114OSM   H15B11815   0.461   0.840   9.660 -1.2174 -1.1787  1.0016
  114OSM   H15C11816   0.576   0.912   9.774  0.1657  0.0084 -0.3078
  114OSM    C1411817   0.662   0.909   9.512  1.0520 -0.3122 -0.3816
  114OSM   H14A11818   0.696   1.001   9.558  1.9314 -0.3838 -0.8578
  114OSM   H14B11819   0.568   0.931   9.463  2.2284  2.3937 -1.6247
  114OSM   H14C11820   0.727   0.902   9.426  0.7942 -1.3536 -0.5091
  114OSM    C1311821   0.794   0.782   9.675  0.5385 -0.1021  0.3491
  114OSM   H13A11822   0.817   0.875   9.725  1.5872  0.4873 -1.1673
  114OSM   H13B11823   0.861   0.770   9.591 -1.1581  0.3330 -1.1229
  114OSM   H13C11824   0.805   0.712   9.757  2.1625  1.3278  1.4114
  114OSM    C1211825   0.628   0.667   9.539  0.2006  0.1985  0.5401
  114OSM   H12A11826   0.629   0.587   9.611 -0.1752 -0.1945  0.1099
  114OSM   H12B11827   0.711   0.640   9.475  0.7684  1.5001  0.6862
  114OSM    C1111828   0.496   0.659   9.463 -0.3025 -0.1477  0.1762
  114OSM   H11A11829   0.505   0.578   9.388 -0.0853  1.9205 -2.1618
  114OSM   H11B11830   0.488   0.745   9.393  0.8415  1.0129  1.4229
  114OSM      P11831   0.306   0.519   9.584  0.1677 -0.0512 -0.2191
  114OSM    O1311832   0.396   0.415   9.632 -0.0512  0.0438  0.3960
  114OSM    O1411833   0.189   0.543   9.669  0.2799 -0.4125  0.4377
  114OSM    O1111834   0.248   0.476   9.442 -0.0692 -0.2548  0.1506
  114OSM    O1211835   0.386   0.650   9.558  0.4391 -0.2788  0.7466
  114OSM    C1S11836   0.288   0.362   9.369  0.2296  0.9366 -0.1119
  114OSM    H1S11837   0.237   0.275   9.415  2.2588 -1.7097 -2.5305
  114OSM    H1T11838   0.395   0.334   9.379  0.2391  1.2851  0.9078
  114OSM     NF11839   0.211   0.247   9.161 -0.2965  0.6086  0.2817
  114OSM    HNF11840   0.254   0.220   9.075  1.2766 -3.3341  2.0500
  114OSM    C2S11841   0.237   0.375   9.218  0.0651 -0.3486 -0.1365
  114OSM    H2S11842   0.131   0.407   9.223 -0.2987 -1.6121  0.6620
  114OSM    C3S11843   0.316   0.474   9.138  0.1892  0.1892 -0.1659
  114OSM    H3S11844   0.421   0.436   9.141 -0.1279 -1.1548 -2.6085
  114OSM     O311845   0.334   0.603   9.194 -0.0474  0.4438  0.4737
  114OSM    HO311846   0.304   0.585   9.284 -1.1738 -2.2158 -0.3157
  114OSM    C4S11847   0.277   0.479   8.996  0.6664 -0.3316  0.8254
  114OSM    H4S11848   0.341   0.414   8.935 -1.1861  0.0658 -1.7129
  114OSM    C5S11849   0.187   0.558   8.938  0.3147  0.1085  0.5581
  114OSM    H5S11850   0.123   0.623   9.000 -1.9429 -0.3019 -1.2021
  114OSM    C6S11851   0.155   0.568   8.790  0.1912 -0.6110 -0.2345
  114OSM    H6S11852   0.147   0.677   8.771  1.5957  0.0226  2.3746
  114OSM    H6T11853   0.047   0.544   8.780 -0.3875  0.4359  2.4952
  114OSM    C7S11854   0.254   0.499   8.695 -1.0251  0.1583  0.1410
  114OSM    H7S11855   0.235   0.391   8.716  0.0614 -0.1798 -0.5362
  114OSM    H7T11856   0.356   0.533   8.720 -1.0981  0.1260  0.4876
  114OSM    C8S11857   0.235   0.519   8.546 -0.1271 -0.0666  0.1883
  114OSM    H8S11858   0.286   0.615   8.524 -0.0373  0.0191  0.7641
  114OSM    H8T11859   0.130   0.537   8.512 -0.1057  0.4881  0.4128
  114OSM    C9S11860   0.296   0.416   8.444 -0.5284 -0.3639 -0.4434
  114OSM    H9S11861   0.394   0.388   8.487 -0.8750  0.7948  1.1762
  114OSM    H9T11862   0.314   0.474   8.351 -1.6177  0.0872 -0.3890
  114OSM   C10S11863   0.210   0.293   8.419  0.0055  0.2414  0.1183
  114OSM   H10S11864   0.104   0.319   8.398 -0.2577 -1.8908 -1.5471
  114OSM   H10T11865   0.203   0.228   8.508 -0.7640 -0.9446 -0.7741
  114OSM   C11S11866   0.264   0.206   8.302  0.1140 -0.9139 -0.0494
  114OSM   H11S11867   0.375   0.209   8.314  0.0172  0.7931  0.6816
  114OSM   H11T11868   0.236   0.262   8.210  0.1902  0.0711  0.5068
  114OSM   C12S11869   0.200   0.068   8.290  0.6928  0.0978  0.6200
  114OSM   H12S11870   0.091   0.087   8.288  0.9818  2.0969  0.9190
  114OSM   H12T11871   0.221   0.011   8.384 -1.2048  0.2341  1.1629
  114OSM   C13S11872   0.232  -0.014   8.165  0.5282 -0.2958 -0.3586
  114OSM   H13S11873   0.228   0.051   8.075  0.4306 -1.9128 -1.5633
  114OSM   H13T11874   0.158  -0.093   8.142  0.0455  0.3277 -0.9794
  114OSM   C14S11875   0.368  -0.074   8.172  0.2483 -0.3354  0.5573
  114OSM   H14S11876   0.443   0.008   8.184  0.9326 -0.3712 -2.5828
  114OSM   H14T11877   0.385  -0.109   8.068  0.4607  1.2074  0.0472
  114OSM   C15S11878   0.382  -0.182   8.275 -0.1826 -0.3361  0.4924
  114OSM   H15S11879   0.295  -0.247   8.254 -0.5235  0.2490  0.0752
  114OSM   H15T11880   0.368  -0.135   8.375 -0.7489 -1.3860  0.9253
  114OSM   C16S11881   0.505  -0.269   8.264 -0.3685  0.6579 -0.2550
  114OSM   H16S11882   0.480  -0.358   8.324 -1.8244  0.2959 -1.3342
  114OSM   H16T11883   0.596  -0.216   8.302  1.4825 -1.1221 -1.9547
  114OSM   C17S11884   0.547  -0.310   8.123 -0.4488  0.5144 -0.2576
  114OSM   H17S11885   0.457  -0.329   8.061 -1.1871  1.5048  0.4790
  114OSM   H17T11886   0.606  -0.404   8.128  2.4303  2.2496  2.0617
  114OSM   C18S11887   0.647  -0.209   8.056 -0.5752 -0.0528 -0.4770
  114OSM   H18S11888   0.646  -0.236   7.949 -1.5243 -0.8600 -0.2794
  114OSM   H18T11889   0.746  -0.225   8.104 -2.0135 -0.0317  2.8107
  114OSM   H18U11890   0.605  -0.107   8.066 -2.6073 -0.7647 -1.1806
  114OSM    C1F11891   0.116   0.169   9.208 -0.2377 -0.3552 -0.6409
  114OSM     OF11892   0.039   0.213   9.295 -0.3652 -0.1817 -0.4867
  114OSM    C2F11893   0.107   0.037   9.160 -0.2337 -1.1791  0.3743
  114OSM    H2F11894   0.023  -0.014   9.212 -0.5138 -1.1728 -0.0740
  114OSM    H2G11895   0.200  -0.014   9.194  1.0975  0.9676  0.1643
  114OSM    C3F11896   0.112   0.036   9.007 -0.1294 -0.5754  0.5677
  114OSM    H3F11897   0.106  -0.069   8.974 -0.9580 -0.3230 -0.1248
  114OSM    H3G11898   0.212   0.074   8.977  0.5185 -3.7297 -1.7830
  114OSM    C4F11899   0.007   0.123   8.932  1.2936  0.4330 -0.3387
  114OSM    H4F11900  -0.005   0.224   8.976 -1.1527 -0.4080  1.1359
  114OSM    H4G11901  -0.091   0.072   8.942  1.0353  0.7778 -1.0530
  114OSM    C5F11902   0.035   0.138   8.782  0.5321 -0.0752  0.3458
  114OSM    H5F11903   0.057   0.036   8.744  1.4346  0.3288 -0.2688
  114OSM    H5G11904   0.130   0.194   8.768  0.4274 -0.1097 -0.5652
  114OSM    C6F11905  -0.077   0.214   8.717  0.1245 -0.2060  0.2144
  114OSM    H6F11906  -0.051   0.321   8.723 -0.9053  0.0002  1.6802
  114OSM    H6G11907  -0.169   0.200   8.777 -0.7574  1.1100 -0.7950
  114OSM    C7F11908  -0.106   0.170   8.575  0.1420  0.1668 -0.1191
  114OSM    H7F11909  -0.149   0.070   8.597  1.3767  0.1617  2.7027
  114OSM    H7G11910  -0.016   0.141   8.516 -1.1685 -1.7053 -1.3468
  114OSM    C8F11911  -0.194   0.275   8.516 -0.7211 -0.6423  0.5789
  114OSM    H8F11912  -0.142   0.374   8.518  0.9111 -1.4312 -0.5926
  114OSM    H8G11913  -0.277   0.281   8.590 -1.4725  2.7079 -0.3740
  114OSM    C9F11914  -0.233   0.241   8.374  0.2552  0.9025 -0.0752
  114OSM    H9F11915  -0.153   0.222   8.301  0.8424 -0.4476  0.8925
  114OSM   C10F11916  -0.351   0.260   8.325  0.2643  0.1856  0.4113
  114OSM   H10F11917  -0.371   0.226   8.222  2.7190  1.4601 -0.5931
  114OSM   C11F11918  -0.476   0.291   8.399 -0.4005 -0.3240 -0.1650
  114OSM   H11F11919  -0.453   0.353   8.489  1.4235  0.2328 -0.9787
  114OSM   H11G11920  -0.525   0.198   8.436 -1.1063  0.7667  1.8321
  114OSM   C12F11921  -0.581   0.373   8.328 -0.0204 -0.4645  0.7328
  114OSM   H12F11922  -0.656   0.408   8.401  1.0691  0.1566  1.5793
  114OSM   H12G11923  -0.634   0.314   8.250  0.8376 -1.4103  0.8424
  114OSM   C13F11924  -0.524   0.497   8.265  0.3002 -0.7228  0.3033
  114OSM   H13F11925  -0.451   0.478   8.183 -0.7206 -1.0068 -0.5578
  114OSM   H13G11926  -0.480   0.557   8.347 -1.6801 -0.1614  0.9905
  114OSM   C14F11927  -0.614   0.583   8.179  0.2605  0.1428 -0.6146
  114OSM   H14F11928  -0.652   0.524   8.093  0.6009  1.0701 -1.4202
  114OSM   H14G11929  -0.552   0.668   8.144  0.8169  0.7198  1.6073
  114OSM   C15F11930  -0.722   0.662   8.258 -0.2463  0.4942 -0.1282
  114OSM   H15F11931  -0.664   0.729   8.325  0.8152  0.9225 -1.4183
  114OSM   H15G11932  -0.786   0.591   8.314 -0.0583  0.8005  0.4906
  114OSM   C16F11933  -0.804   0.745   8.163 -0.4540 -0.4092  0.4344
  114OSM   H16F11934  -0.838   0.684   8.077 -0.7791  1.0113 -0.4779
  114OSM   H16G11935  -0.737   0.826   8.126  0.7268 -0.9640  1.2780
  114OSM   C17F11936  -0.932   0.799   8.234 -0.0008 -0.3526 -0.1820
  114OSM   H17F11937  -0.890   0.878   8.301  1.4849 -1.3662  0.1405
  114OSM   H17G11938  -0.970   0.719   8.301  0.2601 -1.2840 -1.1312
  114OSM   C18F11939  -1.026   0.872   8.141  0.0378 -0.8666  0.0809
  114OSM   H18F11940  -1.048   0.805   8.055 -1.3169 -0.9705  0.4840
  114OSM   H18G11941  -0.977   0.967   8.112 -0.9594 -0.0468  1.0154
  114OSM   H18H11942  -1.128   0.896   8.178 -0.1627  2.4573 -2.1739
  115OSM      N11943   3.552   4.007   5.228 -0.1801 -0.2418 -0.0930
  115OSM    C1511944   3.406   4.005   5.198 -0.1576  0.6704  0.6898
  115OSM   H15A11945   3.360   3.911   5.225  0.3147  0.1291 -0.3325
  115OSM   H15B11946   3.389   4.028   5.094  0.7068  0.6897  0.5457
  115OSM   H15C11947   3.351   4.083   5.249 -1.1226  0.7630 -0.4463
  115OSM    C1411948   3.621   3.891   5.151  0.5404 -0.0295 -0.1457
  115OSM   H14A11949   3.596   3.918   5.050 -1.0284  1.1372  0.5201
  115OSM   H14B11950   3.575   3.795   5.171  0.7276  0.1052  1.0175
  115OSM   H14C11951   3.728   3.875   5.159  0.6932  1.1313  0.2270
  115OSM    C1311952   3.607   4.139   5.181 -0.0269  0.1429 -0.3938
  115OSM   H13A11953   3.597   4.203   5.268 -0.9376 -0.8670  0.2812
  115OSM   H13B11954   3.552   4.174   5.095 -0.6825 -2.6544 -1.2296
  115OSM   H13C11955   3.711   4.131   5.153  0.2556 -1.7482  0.9686
  115OSM    C1211956   3.583   3.989   5.376  0.1145 -0.4143 -0.2285
  115OSM   H12A11957   3.685   4.019   5.394 -0.7973  4.0398 -1.0682
  115OSM   H12B11958   3.586   3.888   5.412  0.2332 -0.3313 -0.0046
  115OSM    C1111959   3.504   4.080   5.480 -0.2317  0.4032 -0.0184
  115OSM   H11A11960   3.534   4.047   5.581  0.7281  0.2294 -0.3549
  115OSM   H11B11961   3.395   4.060   5.473 -0.2840  0.3635  0.8745
  115OSM      P11962   3.408   4.319   5.457 -0.0168 -0.5635 -0.1949
  115OSM    O1311963   3.460   4.461   5.455 -0.2946  0.4056  0.0224
  115OSM    O1411964   3.306   4.279   5.359  0.6955 -0.1348  0.4218
  115OSM    O1111965   3.348   4.290   5.605 -0.6623 -0.1166  0.3491
  115OSM    O1211966   3.529   4.217   5.454  0.5126  0.1252  0.0425
  115OSM    C1S11967   3.382   4.375   5.711  0.3483  0.5298  0.3953
  115OSM    H1S11968   3.342   4.475   5.684  1.5104  0.3517 -2.3031
  115OSM    H1T11969   3.493   4.379   5.726  0.3222  1.3826  0.4318
  115OSM     NF11970   3.321   4.423   5.954  0.1743 -0.1619 -0.2826
  115OSM    HNF11971   3.407   4.412   6.003 -1.4859 -1.0306  2.7218
  115OSM    C2S11972   3.319   4.322   5.847  0.2010 -0.0936  0.0109
  115OSM    H2S11973   3.213   4.293   5.827 -0.0042 -0.2659  1.2553
  115OSM    C3S11974   3.389   4.190   5.895 -0.3224 -0.0743  0.2136
  115OSM    H3S11975   3.495   4.221   5.901  0.2966 -1.3333 -2.4104
  115OSM     O311976   3.393   4.082   5.802 -0.3805 -0.7829 -0.1287
  115OSM    HO311977   3.343   4.105   5.723 -0.5962 -1.1581 -0.1062
  115OSM    C4S11978   3.336   4.140   6.025  0.1352  0.5722  0.5002
  115OSM    H4S11979   3.230   4.111   6.035  0.4124 -1.3720 -1.4474
  115OSM    C5S11980   3.412   4.133   6.142 -0.2951 -0.2813  0.3169
  115OSM    H5S11981   3.514   4.172   6.153 -0.6951  0.4780  1.6563
  115OSM    C6S11982   3.359   4.094   6.281  0.0966  0.0505 -0.0737
  115OSM    H6S11983   3.411   4.002   6.317  0.9452  1.6970  3.3302
  115OSM    H6T11984   3.250   4.069   6.274  0.0451  0.4425 -0.7670
  115OSM    C7S11985   3.389   4.209   6.369  0.9529 -0.1578  0.1285
  115OSM    H7S11986   3.481   4.268   6.350  0.6054 -0.4538 -3.0169
  115OSM    H7T11987   3.395   4.180   6.476  1.9921  0.8159  0.3459
  115OSM    C8S11988   3.288   4.326   6.347 -1.0514  0.0929  0.1355
  115OSM    H8S11989   3.182   4.294   6.352 -1.2932  1.0194  1.5245
  115OSM    H8T11990   3.304   4.351   6.240 -1.3952 -2.7823 -0.6702
  115OSM    C9S11991   3.320   4.451   6.426  0.4637 -0.3239 -0.1073
  115OSM    H9S11992   3.254   4.529   6.381  0.9692 -0.5574 -1.2898
  115OSM    H9T11993   3.425   4.488   6.426  0.8593 -1.1140 -3.3542
  115OSM   C10S11994   3.273   4.432   6.568 -0.0578 -0.6394  0.3254
  115OSM   H10S11995   3.348   4.366   6.616 -0.7986 -2.5247 -0.9862
  115OSM   H10T11996   3.173   4.384   6.578  0.2893 -1.3875  0.2593
  115OSM   C11S11997   3.270   4.567   6.642  0.0562 -0.0821  0.3204
  115OSM   H11S11998   3.191   4.629   6.593  0.0435  0.1856  0.6767
  115OSM   H11T11999   3.364   4.623   6.624  0.6986 -1.6202 -1.5333
  115OSM   C12S12000   3.232   4.558   6.789 -0.2040 -0.8729  0.2907
  115OSM   H12S12001   3.250   4.648   6.853  2.5588 -0.5891 -0.7606
  115OSM   H12T12002   3.304   4.489   6.838 -0.2145 -1.1806 -0.1323
  115OSM   C13S12003   3.084   4.510   6.801 -0.0009 -1.2903  1.4653
  115OSM   H13S12004   3.068   4.410   6.756 -0.3553 -0.2316 -0.9001
  115OSM   H13T12005   3.017   4.583   6.750  0.8714 -0.0079  2.0952
  115OSM   C14S12006   3.040   4.502   6.939  0.3506 -0.0823  0.8056
  115OSM   H14S12007   3.048   4.602   6.987 -0.6512  0.1263  0.5577
  115OSM   H14T12008   3.095   4.431   7.005 -1.2133 -1.6485  0.5114
  115OSM   C15S12009   2.894   4.460   6.960 -0.3019 -0.1361 -0.2754
  115OSM   H15S12010   2.874   4.351   6.951 -0.7982 -0.3327  2.4283
  115OSM   H15T12011   2.826   4.500   6.881 -0.9650 -0.3686  0.1674
  115OSM   C16S12012   2.838   4.514   7.088  0.4498 -0.0726 -0.9230
  115OSM   H16S12013   2.841   4.625   7.079 -0.9384  0.4181  2.7813
  115OSM   H16T12014   2.910   4.488   7.169 -0.6381  0.4763  0.2547
  115OSM   C17S12015   2.692   4.463   7.129 -0.3855 -0.2957  0.6004
  115OSM   H17S12016   2.634   4.459   7.035  1.4680 -2.8250 -0.5594
  115OSM   H17T12017   2.642   4.534   7.199 -1.3683 -1.5095  1.1524
  115OSM   C18S12018   2.683   4.320   7.179  0.1490  0.3487  0.0812
  115OSM   H18S12019   2.733   4.309   7.278  1.1132  0.8603 -0.3350
  115OSM   H18T12020   2.733   4.250   7.108  1.3133 -0.5116  1.6641
  115OSM   H18U12021   2.577   4.289   7.173  0.2240  0.3448 -3.3073
  115OSM    C1F12022   3.252   4.539   5.943 -0.4126  1.1562  0.8832
  115OSM     OF12023   3.163   4.549   5.859 -0.1297  0.1599 -0.2298
  115OSM    C2F12024   3.291   4.655   6.030  0.5656  0.1426  0.1142
  115OSM    H2F12025   3.331   4.741   5.973 -0.6360  0.3757 -0.3935
  115OSM    H2G12026   3.366   4.609   6.099 -0.4673  1.8270  2.4715
  115OSM    C3F12027   3.170   4.690   6.119  0.5373  0.5287  0.2108
  115OSM    H3F12028   3.156   4.599   6.182  0.6546 -0.2552 -0.8639
  115OSM    H3G12029   3.076   4.718   6.066 -2.3119 -3.8060  2.3805
  115OSM    C4F12030   3.208   4.807   6.218  0.6503 -0.0707  0.9103
  115OSM    H4F12031   3.263   4.892   6.172 -1.4482  1.5085  1.1744
  115OSM    H4G12032   3.290   4.772   6.283 -0.0444 -0.2942  1.6745
  115OSM    C5F12033   3.095   4.861   6.309 -0.0159 -0.0338  0.8855
  115OSM    H5F12034   3.015   4.788   6.331 -0.2049  0.2906  1.2929
  115OSM    H5G12035   3.041   4.939   6.251 -1.5203 -1.8308 -0.2157
  115OSM    C6F12036   3.162   4.922   6.435 -0.1486  0.4144 -0.3489
  115OSM    H6F12037   3.242   4.991   6.398 -2.2512  2.4704 -1.2857
  115OSM    H6G12038   3.206   4.830   6.477 -1.7208 -0.4927 -0.6349
  115OSM    C7F12039   3.064   4.979   6.536  0.3305 -0.2622  0.0918
  115OSM    H7F12040   2.987   4.908   6.571 -0.6573  0.6811 -0.1353
  115OSM    H7G12041   3.005   5.057   6.484  0.4521  0.0303  0.3927
  115OSM    C8F12042   3.137   5.039   6.660 -0.1601 -0.1239 -1.1009
  115OSM    H8F12043   3.078   5.127   6.695 -1.0693 -0.9767 -0.4272
  115OSM    H8G12044   3.234   5.082   6.628  0.5766 -1.1633 -0.3246
  115OSM    C9F12045   3.141   4.948   6.781  0.1308  0.7739 -0.3139
  115OSM    H9F12046   3.214   4.867   6.773  0.5485  1.1290 -0.1101
  115OSM   C10F12047   3.059   4.946   6.890  0.1285 -0.3116  0.3408
  115OSM   H10F12048   3.071   4.871   6.970 -1.0482 -1.1901 -0.2787
  115OSM   C11F12049   2.931   5.024   6.916 -0.1584  0.3238  0.6136
  115OSM   H11F12050   2.893   5.054   6.817 -0.4002 -1.6920  0.0423
  115OSM   H11G12051   2.956   5.110   6.982 -0.0445 -0.1250  1.1664
  115OSM   C12F12052   2.829   4.939   6.991  0.2542 -1.0470 -0.3848
  115OSM   H12F12053   2.880   4.913   7.086 -1.0666 -1.2942  0.2829
  115OSM   H12G12054   2.793   4.852   6.931  1.7484 -0.8965 -1.5539
  115OSM   C13F12055   2.702   5.034   7.022 -0.1668  0.5237  0.1106
  115OSM   H13F12056   2.650   5.056   6.926  0.7224  0.0858 -0.4902
  115OSM   H13G12057   2.756   5.126   7.052 -1.3379  1.2359  0.0848
  115OSM   C14F12058   2.607   4.982   7.129  0.3594  0.1339 -0.0845
  115OSM   H14F12059   2.665   4.919   7.199 -0.7703 -0.9857 -0.1149
  115OSM   H14G12060   2.530   4.923   7.074 -0.3961  0.7662  0.2890
  115OSM   C15F12061   2.537   5.091   7.209  0.3236  0.1828  0.1355
  115OSM   H15F12062   2.482   5.154   7.136 -2.5393 -1.3316  0.8109
  115OSM   H15G12063   2.615   5.154   7.256  1.6948 -0.0342 -1.7494
  115OSM   C16F12064   2.439   5.049   7.323  0.3375  0.1739  0.1446
  115OSM   H16F12065   2.391   5.141   7.363 -2.0712 -0.9392  0.0009
  115OSM   H16G12066   2.486   4.974   7.390 -2.7638 -2.7590 -0.7278
  115OSM   C17F12067   2.317   4.985   7.258  0.4026 -0.0759  0.1933
  115OSM   H17F12068   2.339   4.909   7.179 -0.5271 -1.2142  1.0035
  115OSM   H17G12069   2.267   5.071   7.206 -0.0084 -0.7104 -0.4869
  115OSM   C18F12070   2.204   4.938   7.352 -0.3797 -0.1614  0.0050
  115OSM   H18F12071   2.212   4.993   7.448 -0.4466 -1.4618  0.7815
  115OSM   H18G12072   2.203   4.831   7.383  0.7171 -0.7907 -2.0014
  115OSM   H18H12073   2.109   4.954   7.297  0.6116  0.2855 -1.6272
  116OSM      N12074   2.545   2.004   5.711  0.2211  0.4084 -0.6875
  116OSM    C1512075   2.659   2.026   5.619 -0.8808 -0.4597 -0.1494
  116OSM   H15A12076   2.672   1.935   5.563  0.8286 -0.1853 -0.2425
  116OSM   H15B12077   2.754   2.035   5.669  0.5255 -2.8983 -2.1749
  116OSM   H15C12078   2.649   2.104   5.545  1.9596 -0.0259 -0.1782
  116OSM    C1412079   2.519   2.133   5.783 -0.6141 -0.2430 -0.4842
  116OSM   H14A12080   2.613   2.170   5.821 -0.4859  0.1050 -1.1225
  116OSM   H14B12081   2.457   2.131   5.872  0.2419 -1.7214  0.1028
  116OSM   H14C12082   2.479   2.203   5.711 -1.4329 -1.4646 -1.2538
  116OSM    C1312083   2.425   1.973   5.628 -0.9800 -0.2324 -0.2456
  116OSM   H13A12084   2.441   1.884   5.569 -3.0003  0.4150 -1.8639
  116OSM   H13B12085   2.408   2.052   5.556  3.3196  1.0800 -0.1284
  116OSM   H13C12086   2.345   1.955   5.698  0.5594 -0.0450  1.6539
  116OSM    C1212087   2.568   1.892   5.808  0.4083 -0.3185  0.2099
  116OSM   H12A12088   2.586   1.794   5.767 -0.5996 -0.7861  0.8416
  116OSM   H12B12089   2.474   1.876   5.858 -0.8447  0.5573 -1.7057
  116OSM    C1112090   2.669   1.925   5.921 -0.1938  0.4634  0.3493
  116OSM   H11A12091   2.654   1.842   5.993  1.0144 -0.2307 -0.1737
  116OSM   H11B12092   2.652   2.015   5.984  0.7529  0.6290  0.3766
  116OSM      P12093   2.865   1.790   5.823 -0.1101 -0.3169 -0.5347
  116OSM    O1312094   2.764   1.701   5.762 -0.5876 -0.1846  0.6973
  116OSM    O1412095   2.994   1.810   5.748 -0.1438  0.2839 -0.3876
  116OSM    O1112096   2.901   1.740   5.968  0.6989 -0.1156  0.0492
  116OSM    O1212097   2.797   1.928   5.865  0.4267  0.1532  0.5985
  116OSM    C1S12098   3.028   1.749   6.037 -0.4588 -0.2538  0.5367
  116OSM    H1S12099   3.065   1.854   6.041  0.6542 -0.6593  1.0474
  116OSM    H1T12100   3.108   1.699   5.978 -0.7444  0.4714 -0.5067
  116OSM     NF12101   3.156   1.739   6.252 -0.4334 -0.1740  0.3388
  116OSM    HNF12102   3.208   1.669   6.301 -0.1978  1.2541  2.2573
  116OSM    C2S12103   3.034   1.695   6.184  0.0997  0.3292  0.1181
  116OSM    H2S12104   2.947   1.741   6.236  1.8508  0.4969  3.1193
  116OSM    C3S12105   3.013   1.537   6.191 -0.7424 -0.9119  0.1540
  116OSM    H3S12106   3.090   1.480   6.135  0.4013  0.8467 -0.1623
  116OSM     O312107   2.889   1.499   6.130  0.6615 -0.1572  0.1722
  116OSM    HO312108   2.851   1.575   6.086  0.6161  0.4091  1.1646
  116OSM    C4S12109   3.006   1.493   6.335 -0.0105 -0.1074 -0.0340
  116OSM    H4S12110   2.920   1.535   6.390  0.0454 -0.9084  0.6872
  116OSM    C5S12111   3.072   1.396   6.397 -0.3465  0.1240  0.3490
  116OSM    H5S12112   3.141   1.337   6.335 -0.4034  0.9117 -0.4820
  116OSM    C6S12113   3.055   1.361   6.541  0.3741  0.0708  0.8374
  116OSM    H6S12114   3.160   1.341   6.572  1.2328  0.4888 -1.5650
  116OSM    H6T12115   2.993   1.269   6.545  0.1850  0.2322  2.6536
  116OSM    C7S12116   3.021   1.466   6.647  0.4153 -0.1935 -0.4153
  116OSM    H7S12117   2.925   1.516   6.621 -0.5518  0.5074  3.7718
  116OSM    H7T12118   3.103   1.538   6.670 -2.3646  2.3526  2.3873
  116OSM    C8S12119   3.005   1.406   6.794 -0.7842 -0.0831  0.3649
  116OSM    H8S12120   2.997   1.497   6.858  1.4995 -0.6459  1.5716
  116OSM    H8T12121   3.097   1.348   6.819 -0.3902 -1.4378 -3.6090
  116OSM    C9S12122   2.882   1.320   6.797 -0.5907  0.2890 -0.4940
  116OSM    H9S12123   2.870   1.241   6.720  0.1665 -1.5841  1.2274
  116OSM    H9T12124   2.797   1.381   6.759  1.2847  3.4880  0.0180
  116OSM   C10S12125   2.836   1.248   6.925 -0.0458  0.0459 -0.0532
  116OSM   H10S12126   2.919   1.189   6.969 -1.1304 -0.3357  1.5807
  116OSM   H10T12127   2.762   1.173   6.890  0.9219 -0.5900 -0.7966
  116OSM   C11S12128   2.776   1.347   7.027 -0.1026  0.1375 -0.7667
  116OSM   H11S12129   2.724   1.428   6.972  0.7305  0.4861 -1.0474
  116OSM   H11T12130   2.836   1.393   7.107 -1.4653 -0.3746  0.6047
  116OSM   C12S12131   2.669   1.278   7.117 -1.1819  0.1847  0.4326
  116OSM   H12S12132   2.578   1.243   7.062  0.0269 -0.2785 -1.3550
  116OSM   H12T12133   2.632   1.342   7.200 -0.6540  0.1356  0.7056
  116OSM   C13S12134   2.717   1.139   7.170  0.6273  0.4301 -1.0297
  116OSM   H13S12135   2.816   1.160   7.216  1.4486 -1.7489 -1.6940
  116OSM   H13T12136   2.721   1.058   7.094 -1.1189 -0.3639 -0.3420
  116OSM   C14S12137   2.615   1.083   7.278 -0.2670 -0.2217  0.9518
  116OSM   H14S12138   2.506   1.088   7.258 -0.3779 -2.0058  0.9393
  116OSM   H14T12139   2.628   1.137   7.374  2.9459 -1.2096  1.1940
  116OSM   C15S12140   2.658   0.938   7.307 -0.6936 -0.1572 -0.0706
  116OSM   H15S12141   2.763   0.920   7.337 -0.6173  0.0101 -0.2310
  116OSM   H15T12142   2.649   0.875   7.216  1.1492 -1.1332  0.3692
  116OSM   C16S12143   2.561   0.884   7.414  0.1746 -0.5772 -0.3848
  116OSM   H16S12144   2.457   0.907   7.382  0.4628  0.8505 -0.3762
  116OSM   H16T12145   2.565   0.941   7.509 -1.0665 -1.9763  0.5646
  116OSM   C17S12146   2.575   0.739   7.446  0.0393  0.4203 -0.2766
  116OSM   H17S12147   2.685   0.729   7.456  0.0537  0.8686  0.0286
  116OSM   H17T12148   2.558   0.669   7.361 -1.2986  1.7860 -1.1893
  116OSM   C18S12149   2.498   0.686   7.567 -0.0019 -0.6570 -0.1014
  116OSM   H18S12150   2.506   0.575   7.569  0.0208 -0.6650 -0.5215
  116OSM   H18T12151   2.390   0.713   7.565 -0.4089 -2.2381 -1.4826
  116OSM   H18U12152   2.535   0.726   7.664 -3.8612  0.7702  0.9675
  116OSM    C1F12153   3.191   1.861   6.272 -0.2139 -0.5890  0.5107
  116OSM     OF12154   3.104   1.949   6.269 -0.6314  0.4875  0.4542
  116OSM    C2F12155   3.334   1.913   6.297 -0.1007  0.9919 -0.2070
  116OSM    H2F12156   3.372   1.967   6.208 -1.5818  0.5850 -1.1179
  116OSM    H2G12157   3.402   1.825   6.292 -0.9802  0.3722 -1.8471
  116OSM    C3F12158   3.332   1.980   6.429 -0.9850 -0.3068  0.1637
  116OSM    H3F12159   3.277   2.076   6.416 -0.9812  0.0664  2.4969
  116OSM    H3G12160   3.438   2.008   6.447 -0.4795 -1.1464 -1.2926
  116OSM    C4F12161   3.286   1.902   6.550  0.5498  0.1427  0.4891
  116OSM    H4F12162   3.320   1.800   6.520 -1.0149  0.3198 -2.1795
  116OSM    H4G12163   3.176   1.913   6.558  0.6280  0.7934  0.7126
  116OSM    C5F12164   3.351   1.941   6.683  0.1805 -0.1171  0.4574
  116OSM    H5F12165   3.372   2.050   6.683  0.0787 -0.0968  0.4487
  116OSM    H5G12166   3.440   1.878   6.704 -0.3957 -0.7127  1.1677
  116OSM    C6F12167   3.246   1.922   6.796  0.2189  0.5692  0.2237
  116OSM    H6F12168   3.189   2.017   6.789  1.3497  1.1546 -2.0908
  116OSM    H6G12169   3.291   1.943   6.895  1.2343 -1.3860  0.2414
  116OSM    C7F12170   3.162   1.785   6.815 -0.0131 -0.5025  0.5865
  116OSM    H7F12171   3.229   1.701   6.788 -2.8894 -1.9749 -2.6657
  116OSM    H7G12172   3.085   1.776   6.735  0.5940 -0.1811 -0.0503
  116OSM    C8F12173   3.096   1.785   6.952  0.2332  0.3714 -1.1476
  116OSM    H8F12174   3.025   1.700   6.963  0.3452  0.4330  0.2071
  116OSM    H8G12175   3.033   1.875   6.968 -3.1890 -1.5782 -2.6325
  116OSM    C9F12176   3.200   1.763   7.056 -0.3489 -0.6580  0.3414
  116OSM    H9F12177   3.289   1.824   7.034 -0.9120 -0.5057 -1.6943
  116OSM   C10F12178   3.205   1.673   7.154  0.1255  0.0993  0.5504
  116OSM   H10F12179   3.303   1.652   7.198  0.5677  1.8806  0.4567
  116OSM   C11F12180   3.095   1.573   7.188 -0.3691 -0.7973 -0.7511
  116OSM   H11F12181   3.135   1.471   7.206  0.0956 -0.0941  3.2494
  116OSM   H11G12182   3.022   1.568   7.105 -0.3273 -1.4989 -0.7526
  116OSM   C12F12183   3.014   1.621   7.308 -0.1741  0.0892  0.0531
  116OSM   H12F12184   2.923   1.558   7.313 -1.0645  1.1436 -1.9264
  116OSM   H12G12185   2.975   1.725   7.309 -1.0769 -0.1619 -2.2703
  116OSM   C13F12186   3.100   1.599   7.436  0.3264  1.0064  0.2411
  116OSM   H13F12187   3.202   1.643   7.432  0.8021 -0.1273 -2.6310
  116OSM   H13G12188   3.124   1.492   7.457  0.8489  0.9822 -0.4365
  116OSM   C14F12189   3.039   1.664   7.566  0.0795 -0.2628  0.3163
  116OSM   H14F12190   2.931   1.642   7.582 -0.4882  1.0282 -1.4503
  116OSM   H14G12191   3.052   1.774   7.570 -2.1480 -0.0056  1.8464
  116OSM   C15F12192   3.106   1.596   7.688 -0.8664  0.4638  0.1706
  116OSM   H15F12193   3.215   1.614   7.677 -1.3168  1.8891 -2.9483
  116OSM   H15G12194   3.085   1.487   7.686 -1.4883  0.5858 -1.0417
  116OSM   C16F12195   3.069   1.667   7.813 -0.3019  0.2570 -0.0499
  116OSM   H16F12196   2.959   1.676   7.827 -0.0589  0.1110  2.5603
  116OSM   H16G12197   3.111   1.769   7.806 -0.6762  0.3238 -1.4761
  116OSM   C17F12198   3.115   1.585   7.941 -0.3701  0.3163  0.1025
  116OSM   H17F12199   3.100   1.652   8.029 -3.2668 -1.5634  1.1578
  116OSM   H17G12200   3.219   1.556   7.917 -0.8846 -1.5107 -0.0523
  116OSM   C18F12201   3.028   1.468   7.965  0.3261  0.6159 -0.4861
  116OSM   H18F12202   3.064   1.393   8.039 -1.6790 -0.5146 -0.6051
  116OSM   H18G12203   3.004   1.399   7.882 -1.1520 -1.1160  1.2937
  116OSM   H18H12204   2.930   1.509   7.997  1.1207  1.5725  0.8801
  117OSM      N12205   2.148   3.466   5.339  0.3763  0.4111  0.1277
  117OSM    C1512206   2.179   3.586   5.262 -0.2166 -0.5325 -0.2161
  117OSM   H15A12207   2.284   3.610   5.273 -0.5576  1.5248 -0.8559
  117OSM   H15B12208   2.122   3.676   5.279  2.9594  2.0592 -2.0844
  117OSM   H15C12209   2.158   3.570   5.157 -0.3281  0.3372 -0.3363
  117OSM    C1412210   2.004   3.418   5.308  0.1446 -0.5379  0.7548
  117OSM   H14A12211   1.997   3.369   5.212 -0.6408  0.7118  0.1353
  117OSM   H14B12212   1.933   3.500   5.315 -0.2853 -0.9303  1.0631
  117OSM   H14C12213   1.978   3.347   5.385  0.0531 -0.2128  1.0282
  117OSM    C1312214   2.249   3.364   5.291  0.1701 -0.3193 -0.0843
  117OSM   H13A12215   2.245   3.355   5.184  0.2813  0.1565 -0.1295
  117OSM   H13B12216   2.226   3.264   5.327  0.0728 -0.4357 -0.4612
  117OSM   H13C12217   2.349   3.381   5.326  0.9920  0.6100 -2.6819
  117OSM    C1212218   2.167   3.490   5.489 -0.2906  1.0014 -0.7998
  117OSM   H12A12219   2.102   3.570   5.522 -0.0279  1.3905 -1.2063
  117OSM   H12B12220   2.268   3.528   5.494  1.4489 -2.6549 -3.3637
  117OSM    C1112221   2.169   3.363   5.581 -0.2900  0.2618 -0.0870
  117OSM   H11A12222   2.080   3.300   5.558 -0.3797 -0.3965  1.9003
  117OSM   H11B12223   2.168   3.401   5.685  1.5108  2.8219 -0.9150
  117OSM      P12224   2.315   3.138   5.598 -0.1751  0.0857  0.1720
  117OSM    O1312225   2.252   3.053   5.493  0.2012 -0.0881 -0.4794
  117OSM    O1412226   2.454   3.102   5.620  0.5037  0.4823  0.1235
  117OSM    O1112227   2.226   3.118   5.733  0.2719 -0.9172  0.5100
  117OSM    O1212228   2.295   3.290   5.566  0.6758 -0.3318 -0.9395
  117OSM    C1S12229   2.225   2.993   5.795 -0.0953  0.2171 -0.8144
  117OSM    H1S12230   2.328   2.961   5.821  0.7441  1.4810 -2.3879
  117OSM    H1T12231   2.175   2.921   5.726 -0.1474  0.1274 -0.6821
  117OSM     NF12232   2.175   2.880   6.010  0.1344  0.1492  0.0048
  117OSM    HNF12233   2.114   2.803   5.996 -1.2040  1.4112 -1.5849
  117OSM    C2S12234   2.136   2.995   5.928  0.6663  0.2830 -0.7880
  117OSM    H2S12235   2.161   3.085   5.988 -1.3430  0.1235  0.3826
  117OSM    C3S12236   1.985   3.011   5.895 -0.8697  0.2107 -0.0875
  117OSM    H3S12237   1.951   2.924   5.836  1.2889 -1.8926  1.5973
  117OSM     O312238   1.946   3.121   5.803 -1.1185 -0.5783  0.0658
  117OSM    HO312239   2.034   3.149   5.776 -0.5785 -0.4918  1.8061
  117OSM    C4S12240   1.902   3.014   6.020 -0.5331  0.2644  0.7241
  117OSM    H4S12241   1.898   3.110   6.073  1.5782 -0.4879  2.3953
  117OSM    C5S12242   1.843   2.900   6.069 -0.3441 -0.0198 -0.1063
  117OSM    H5S12243   1.848   2.803   6.017 -2.4543  0.1794 -0.7863
  117OSM    C6S12244   1.770   2.904   6.198  0.1304 -0.5042 -1.0182
  117OSM    H6S12245   1.815   2.823   6.260 -1.5783  0.1301  1.1799
  117OSM    H6T12246   1.666   2.870   6.181 -0.4359 -0.0768  1.3321
  117OSM    C7S12247   1.759   3.024   6.294 -0.6370  0.2518 -0.0575
  117OSM    H7S12248   1.728   3.115   6.238 -0.1823  1.0032  0.8690
  117OSM    H7T12249   1.861   3.058   6.322 -1.0143  0.1607  1.5546
  117OSM    C8S12250   1.671   2.997   6.415 -0.4802 -0.0198 -0.0040
  117OSM    H8S12251   1.565   2.977   6.388 -0.3562  0.5465 -0.9519
  117OSM    H8T12252   1.675   3.092   6.472 -1.7462  1.9375 -2.9517
  117OSM    C9S12253   1.726   2.880   6.496  0.3814 -0.2871  0.5541
  117OSM    H9S12254   1.829   2.899   6.532  1.3796  2.3866 -3.1732
  117OSM    H9T12255   1.733   2.790   6.431  0.6597 -0.7191  1.1714
  117OSM   C10S12256   1.636   2.836   6.610  0.4212 -0.2639  0.3756
  117OSM   H10S12257   1.540   2.827   6.554  0.9709  2.2505 -1.1506
  117OSM   H10T12258   1.617   2.929   6.669  0.4941  0.0924 -0.1558
  117OSM   C11S12259   1.690   2.726   6.695 -0.3735 -0.2527 -0.4918
  117OSM   H11S12260   1.704   2.642   6.624 -1.1575  1.4775 -2.8376
  117OSM   H11T12261   1.619   2.693   6.773  0.8116  1.4776  1.4335
  117OSM   C12S12262   1.837   2.745   6.755 -0.0393  0.3575  0.3211
  117OSM   H12S12263   1.911   2.769   6.676 -0.3667 -0.4791 -0.2651
  117OSM   H12T12264   1.855   2.646   6.802  0.8367  0.9411  1.2594
  117OSM   C13S12265   1.836   2.850   6.872 -0.6475  0.6384  0.1367
  117OSM   H13S12266   1.759   2.809   6.941 -1.5239 -0.4599 -1.4300
  117OSM   H13T12267   1.798   2.949   6.840 -2.3516  1.6849  4.6334
  117OSM   C14S12268   1.967   2.871   6.941  0.2436  0.2713 -0.1573
  117OSM   H14S12269   2.031   2.917   6.862 -0.4890  0.8302 -0.4331
  117OSM   H14T12270   2.021   2.780   6.974  0.0076 -0.2299 -1.1119
  117OSM   C15S12271   1.956   2.976   7.055  0.6563  0.2320 -0.4689
  117OSM   H15S12272   1.890   2.939   7.137 -1.4384  2.0017 -1.2618
  117OSM   H15T12273   1.903   3.066   7.016 -0.0272  0.4122  0.8060
  117OSM   C16S12274   2.081   3.030   7.120 -0.2408 -0.2249 -0.1136
  117OSM   H16S12275   2.131   2.944   7.170 -0.6806  0.3667  1.3977
  117OSM   H16T12276   2.045   3.090   7.206  0.9469  0.8616 -0.3381
  117OSM   C17S12277   2.166   3.129   7.041  0.0538 -0.2024  0.6853
  117OSM   H17S12278   2.091   3.206   7.013 -0.0694 -0.4857  0.2281
  117OSM   H17T12279   2.209   3.073   6.955  0.4244  0.2761  0.5560
  117OSM   C18S12280   2.281   3.175   7.118 -0.3133 -0.2964 -0.3102
  117OSM   H18S12281   2.337   3.239   7.046 -0.6871  0.4360  0.0353
  117OSM   H18T12282   2.343   3.087   7.145  0.9922  0.7332  0.1593
  117OSM   H18U12283   2.259   3.229   7.213  0.4874  0.6041 -0.6236
  117OSM    C1F12284   2.300   2.878   6.072  0.6315  0.4464  0.2247
  117OSM     OF12285   2.353   2.986   6.090  0.0296 -0.4013 -0.3382
  117OSM    C2F12286   2.361   2.750   6.108  0.7287  0.4720  0.0452
  117OSM    H2F12287   2.351   2.678   6.024  1.4184 -0.2033  0.5316
  117OSM    H2G12288   2.308   2.706   6.195  2.0160  0.1908  0.7250
  117OSM    C3F12289   2.511   2.751   6.150 -1.1242  0.3718 -0.0093
  117OSM    H3F12290   2.511   2.828   6.230 -0.6677 -0.7442  1.0882
  117OSM    H3G12291   2.581   2.783   6.070 -0.6768  0.2499  0.3330
  117OSM    C4F12292   2.561   2.608   6.190  0.1318 -0.4569  0.8912
  117OSM    H4F12293   2.670   2.598   6.168  0.2982 -1.4669  2.0615
  117OSM    H4G12294   2.503   2.534   6.131  1.0179  1.7428 -3.1019
  117OSM    C5F12295   2.541   2.581   6.343  0.5964 -0.4719 -0.1812
  117OSM    H5F12296   2.432   2.592   6.363  0.9109  2.9384  0.1696
  117OSM    H5G12297   2.582   2.657   6.412  0.6009 -0.4930 -0.1603
  117OSM    C6F12298   2.597   2.448   6.385 -0.3324 -0.0765  0.6178
  117OSM    H6F12299   2.688   2.468   6.446  1.2601 -0.3268 -1.5731
  117OSM    H6G12300   2.637   2.408   6.290 -0.3078 -0.7571  0.9036
  117OSM    C7F12301   2.504   2.339   6.450 -0.1756 -0.4884  0.1961
  117OSM    H7F12302   2.568   2.260   6.496  0.8078  0.4537  0.4810
  117OSM    H7G12303   2.442   2.295   6.368 -1.5518 -0.4433  1.1657
  117OSM    C8F12304   2.404   2.380   6.566 -0.6277 -0.1262 -0.1904
  117OSM    H8F12305   2.322   2.306   6.566 -1.0019  0.2789 -0.4108
  117OSM    H8G12306   2.355   2.476   6.539 -1.2313 -0.6582 -1.0348
  117OSM    C9F12307   2.472   2.379   6.705  0.1286  0.9713  0.0127
  117OSM    H9F12308   2.533   2.291   6.732 -1.5487 -0.8285 -1.7365
  117OSM   C10F12309   2.475   2.484   6.786  0.0440 -0.3764 -0.0688
  117OSM   H10F12310   2.551   2.477   6.865  0.0449  0.0392 -0.0304
  117OSM   C11F12311   2.388   2.610   6.782 -0.4897 -0.5389 -0.8005
  117OSM   H11F12312   2.292   2.602   6.727 -0.3046  1.1421 -1.4367
  117OSM   H11G12313   2.448   2.699   6.754 -1.3481  1.0398  1.9849
  117OSM   C12F12314   2.333   2.633   6.926 -0.4314 -0.2341 -0.2796
  117OSM   H12F12315   2.269   2.547   6.957 -1.1598  0.3509 -0.1314
  117OSM   H12G12316   2.265   2.721   6.928 -0.8540 -0.5428  1.9677
  117OSM   C13F12317   2.447   2.649   7.030 -0.5661 -0.0169 -0.1987
  117OSM   H13F12318   2.524   2.698   6.968  0.8768 -0.6245  1.0325
  117OSM   H13G12319   2.485   2.550   7.064  0.6665  0.6348  0.3781
  117OSM   C14F12320   2.396   2.746   7.139 -0.6063 -0.1294  0.2581
  117OSM   H14F12321   2.305   2.701   7.184 -1.2392  1.2310  0.3542
  117OSM   H14G12322   2.377   2.851   7.108 -0.2073 -1.0888 -3.9454
  117OSM   C15F12323   2.499   2.754   7.261  0.4936 -0.7620 -0.2741
  117OSM   H15F12324   2.513   2.647   7.288 -1.7262 -1.4157 -1.4348
  117OSM   H15G12325   2.447   2.809   7.343 -1.3867 -0.3689 -1.6566
  117OSM   C16F12326   2.638   2.818   7.228 -0.3567  0.1248  0.0018
  117OSM   H16F12327   2.655   2.821   7.118 -0.6470  0.1431 -0.0448
  117OSM   H16G12328   2.703   2.748   7.285  0.2317  1.8621  1.5566
  117OSM   C17F12329   2.645   2.962   7.281 -0.5335  0.0845  0.2203
  117OSM   H17F12330   2.555   3.003   7.229 -1.7529 -2.5059  0.1404
  117OSM   H17G12331   2.620   2.956   7.390 -1.7609 -1.0243 -0.0888
  117OSM   C18F12332   2.776   3.034   7.259  0.5153  0.3105  0.4466
  117OSM   H18F12333   2.798   3.024   7.150 -0.7224 -2.6341  0.3842
  117OSM   H18G12334   2.864   2.978   7.299  1.1912  0.1816 -1.1330
  117OSM   H18H12335   2.783   3.142   7.285 -1.4546  0.9964 -1.5407
  118OSM      N12336   4.972   5.101   5.353  0.3242  0.4531  0.7833
  118OSM    C1512337   4.941   5.222   5.273  0.5908  0.4394  0.5847
  118OSM   H15A12338   4.990   5.309   5.313  1.8612 -0.5390  1.2480
  118OSM   H15B12339   4.835   5.232   5.256  0.6175  2.2208  1.2933
  118OSM   H15C12340   4.968   5.201   5.170 -0.4759  1.2538  0.1234
  118OSM    C1412341   5.118   5.084   5.317 -0.4080 -0.1603  0.1781
  118OSM   H14A12342   5.135   5.054   5.215  2.0834 -1.1788  0.8129
  118OSM   H14B12343   5.176   5.016   5.378  1.0702  0.7869 -0.1108
  118OSM   H14C12344   5.167   5.180   5.331  1.3742 -0.8721 -0.8065
  118OSM    C1312345   4.933   5.132   5.495 -0.0300  0.1901 -0.2138
  118OSM   H13A12346   4.955   5.234   5.522 -0.4182 -0.1226  1.4015
  118OSM   H13B12347   4.973   5.059   5.563 -0.8168  0.2420  0.3240
  118OSM   H13C12348   4.825   5.130   5.489  0.0500 -0.5172 -1.7603
  118OSM    C1212349   4.907   4.976   5.299  0.1120 -0.0062  0.0951
  118OSM   H12A12350   4.944   4.957   5.199 -0.8585 -0.4005 -0.2011
  118OSM   H12B12351   4.805   5.011   5.290  0.3372  1.0499  1.4596
  118OSM    C1112352   4.918   4.847   5.382  0.1002 -0.1851 -0.6479
  118OSM   H11A12353   4.875   4.756   5.335 -1.5917  0.0961  0.2781
  118OSM   H11B12354   4.866   4.862   5.479 -1.3132 -1.0983 -1.2412
  118OSM      P12355   5.106   4.795   5.548  0.7319  0.5429 -0.4579
  118OSM    O1312356   5.097   4.649   5.574 -0.2305  0.7893 -0.1160
  118OSM    O1412357   5.240   4.849   5.550 -0.3949  0.2583 -0.4925
  118OSM    O1112358   5.015   4.878   5.649  0.2383 -0.3996 -0.1021
  118OSM    O1212359   5.054   4.820   5.400 -0.0549 -0.1453  0.2878
  118OSM    C1S12360   5.040   4.844   5.789 -1.1374 -0.0956 -0.0112
  118OSM    H1S12361   5.146   4.846   5.822 -1.5983  0.1472  1.5070
  118OSM    H1T12362   5.007   4.740   5.808 -1.5192 -0.1079 -0.7138
  118OSM     NF12363   4.994   4.863   6.033  0.2598 -0.7843  0.2317
  118OSM    HNF12364   4.935   4.783   6.040 -0.4247 -0.5906 -2.3846
  118OSM    C2S12365   4.965   4.923   5.903 -0.6044 -0.6305 -0.2393
  118OSM    H2S12366   4.986   5.032   5.912 -1.9729 -0.2991 -0.7109
  118OSM    C3S12367   4.815   4.919   5.866  1.0252  0.1350 -0.7303
  118OSM    H3S12368   4.775   4.816   5.872  2.5619 -0.5373 -1.4852
  118OSM     O312369   4.788   4.945   5.732 -0.0483  0.0951 -0.5259
  118OSM    HO312370   4.877   4.945   5.697  0.1654  0.9274 -0.0095
  118OSM    C4S12371   4.742   5.016   5.955 -0.1879  0.0936 -0.3606
  118OSM    H4S12372   4.748   5.117   5.910 -1.5777  0.6163  0.5559
  118OSM    C5S12373   4.658   4.988   6.059 -0.2149 -0.5288 -0.0309
  118OSM    H5S12374   4.639   4.882   6.081 -0.7298 -0.4632 -0.1373
  118OSM    C6S12375   4.577   5.085   6.140  0.3748  0.1920  0.8147
  118OSM    H6S12376   4.470   5.057   6.143  0.4196 -0.0776  0.2087
  118OSM    H6T12377   4.590   5.190   6.105  1.7373 -0.2834 -0.2013
  118OSM    C7S12378   4.624   5.094   6.285 -0.0698  0.2783  0.2669
  118OSM    H7S12379   4.565   5.175   6.332 -0.8822 -0.5441  0.7147
  118OSM    H7T12380   4.728   5.130   6.299  0.0347  0.3478 -0.6729
  118OSM    C8S12381   4.600   4.963   6.367 -0.1096 -0.2308  0.2647
  118OSM    H8S12382   4.699   4.923   6.398  1.9411  4.3892  0.5176
  118OSM    H8T12383   4.545   4.897   6.295  2.6042  0.6600 -2.9056
  118OSM    C9S12384   4.517   4.997   6.494 -0.5740 -0.5558 -0.0785
  118OSM    H9S12385   4.424   5.046   6.459  0.6113  0.5062 -1.8534
  118OSM    H9T12386   4.580   5.063   6.557 -2.7701 -0.3840  2.1036
  118OSM   C10S12387   4.486   4.872   6.577  0.1123  0.6670 -0.2243
  118OSM   H10S12388   4.582   4.816   6.585 -0.5080 -0.3160  0.6294
  118OSM   H10T12389   4.411   4.817   6.515 -0.2337  0.5325  0.3080
  118OSM   C11S12390   4.454   4.891   6.727  0.5562 -0.2979 -0.2780
  118OSM   H11S12391   4.534   4.947   6.782 -0.1631  2.0802 -1.5062
  118OSM   H11T12392   4.444   4.800   6.789  2.5129 -0.4119 -0.0639
  118OSM   C12S12393   4.317   4.962   6.745  0.5111 -0.0385 -0.6634
  118OSM   H12S12394   4.245   4.911   6.677  0.1073  2.8187 -2.5277
  118OSM   H12T12395   4.320   5.068   6.713 -2.3711  0.6569  0.9925
  118OSM   C13S12396   4.243   4.964   6.885  0.0799  0.2360 -0.5414
  118OSM   H13S12397   4.240   4.856   6.911  2.1499  0.2832  0.0678
  118OSM   H13T12398   4.145   5.009   6.861 -0.2758 -0.9622 -1.4894
  118OSM   C14S12399   4.331   5.036   6.983 -0.1552  0.4355 -0.5821
  118OSM   H14S12400   4.313   5.145   6.970 -0.7182  0.4821  0.4900
  118OSM   H14T12401   4.440   5.014   6.971 -0.3446  0.0539 -1.7300
  118OSM   C15S12402   4.285   5.004   7.128  0.4035  0.1257  0.1576
  118OSM   H15S12403   4.280   4.894   7.146 -0.6269  0.2405  0.6533
  118OSM   H15T12404   4.179   5.036   7.132 -0.1520 -1.0917 -2.2652
  118OSM   C16S12405   4.369   5.082   7.234 -0.3092 -0.0516 -0.5368
  118OSM   H16S12406   4.369   5.193   7.225  0.9891 -0.0502 -0.6759
  118OSM   H16T12407   4.473   5.045   7.233  0.8329  2.8436  0.8164
  118OSM   C17S12408   4.316   5.037   7.369  0.8842 -0.1486  0.1831
  118OSM   H17S12409   4.306   4.926   7.369  0.3674 -0.1058  0.1738
  118OSM   H17T12410   4.213   5.076   7.384  1.2025  0.6348  0.3999
  118OSM   C18S12411   4.401   5.075   7.492  0.2078  0.1619  0.0152
  118OSM   H18S12412   4.361   5.046   7.592  0.3257  0.8477  0.2630
  118OSM   H18T12413   4.425   5.183   7.490  0.2365  0.1511 -1.1915
  118OSM   H18U12414   4.500   5.025   7.486 -0.6336 -1.9017  1.7877
  118OSM    C1F12415   5.111   4.872   6.097  0.2094  0.1804 -0.2420
  118OSM     OF12416   5.187   4.964   6.073 -0.1116  0.1832  0.3221
  118OSM    C2F12417   5.142   4.752   6.188  0.1501 -0.0468  0.0954
  118OSM    H2F12418   5.250   4.726   6.182  0.2923  0.6796 -0.5679
  118OSM    H2G12419   5.079   4.665   6.159 -2.5082  1.1926  1.8048
  118OSM    C3F12420   5.112   4.788   6.335 -0.0491  0.5971  0.6896
  118OSM    H3F12421   5.182   4.871   6.359  0.0213  0.5412  0.6793
  118OSM    H3G12422   5.145   4.702   6.397  0.5567  1.0430  1.0034
  118OSM    C4F12423   4.972   4.818   6.366 -0.4660 -0.0559 -0.2250
  118OSM    H4F12424   4.897   4.752   6.318  1.2027 -0.3785 -2.5054
  118OSM    H4G12425   4.958   4.920   6.324  1.0835  0.7676  1.1303
  118OSM    C5F12426   4.938   4.822   6.520 -0.2091 -0.0723 -0.6088
  118OSM    H5F12427   4.843   4.876   6.540 -0.9523 -1.1383 -1.1372
  118OSM    H5G12428   5.016   4.867   6.584  0.1854 -0.9424 -0.4616
  118OSM    C6F12429   4.899   4.681   6.568 -0.2555  0.6229  0.5881
  118OSM    H6F12430   4.979   4.609   6.542 -1.4904 -0.6946  0.3009
  118OSM    H6G12431   4.803   4.653   6.521  0.1152  3.3902 -2.1195
  118OSM    C7F12432   4.895   4.678   6.718 -0.1774 -0.2564  0.7210
  118OSM    H7F12433   4.821   4.753   6.755 -1.4016  0.5297 -2.9178
  118OSM    H7G12434   4.995   4.710   6.755 -0.7108  0.2125  1.8017
  118OSM    C8F12435   4.863   4.542   6.780  0.2205  0.4959  0.0051
  118OSM    H8F12436   4.896   4.548   6.886  0.9833  0.1984 -0.2057
  118OSM    H8G12437   4.917   4.460   6.728 -0.1730 -0.0765  0.4903
  118OSM    C9F12438   4.720   4.510   6.761 -0.0913  0.5156 -0.2963
  118OSM    H9F12439   4.694   4.479   6.659  1.5687 -0.8282 -0.3483
  118OSM   C10F12440   4.625   4.515   6.852 -0.5253 -0.3510 -0.1092
  118OSM   H10F12441   4.525   4.480   6.823 -0.7423 -1.5058  1.8446
  118OSM   C11F12442   4.638   4.558   6.996  0.0676 -0.3989  0.2812
  118OSM   H11F12443   4.739   4.538   7.040  0.8219  2.3025 -0.0669
  118OSM   H11G12444   4.577   4.482   7.049  1.7574 -0.9113  1.5965
  118OSM   C12F12445   4.585   4.695   7.028  0.6443 -0.3256  0.6595
  118OSM   H12F12446   4.492   4.716   6.972 -0.2226  4.5408  3.3438
  118OSM   H12G12447   4.661   4.767   6.991  2.1066 -2.1629 -0.1053
  118OSM   C13F12448   4.563   4.719   7.179  0.1216 -0.4842  0.2904
  118OSM   H13F12449   4.517   4.820   7.184 -2.5568 -1.5098 -1.4160
  118OSM   H13G12450   4.664   4.729   7.224  0.4506  0.7370 -0.6700
  118OSM   C14F12451   4.462   4.632   7.257 -0.0242 -0.3610 -0.2893
  118OSM   H14F12452   4.501   4.529   7.244  0.6719  0.0479 -1.6405
  118OSM   H14G12453   4.361   4.641   7.212  0.9336 -0.5802 -2.6227
  118OSM   C15F12454   4.460   4.676   7.407  1.0318 -0.1053 -0.1834
  118OSM   H15F12455   4.456   4.787   7.409  0.2702 -0.0555 -2.1508
  118OSM   H15G12456   4.556   4.649   7.456  1.2595  0.8696 -0.0806
  118OSM   C16F12457   4.343   4.612   7.481 -0.2891  0.2531 -0.4954
  118OSM   H16F12458   4.246   4.632   7.432 -0.8214 -2.9056 -0.9949
  118OSM   H16G12459   4.344   4.659   7.581 -0.3475 -0.1044 -0.3253
  118OSM   C17F12460   4.353   4.457   7.488  0.0701  0.3594  0.5574
  118OSM   H17F12461   4.455   4.433   7.526 -0.0423 -3.0013 -0.8910
  118OSM   H17G12462   4.348   4.406   7.389 -1.2049  2.8278 -0.7357
  118OSM   C18F12463   4.252   4.389   7.583  0.3078 -0.0191  0.0649
  118OSM   H18F12464   4.144   4.398   7.558 -0.0440 -1.0562  1.1267
  118OSM   H18G12465   4.252   4.424   7.688  0.3326  1.3184 -0.3718
  118OSM   H18H12466   4.273   4.280   7.578 -0.4052 -0.1027 -1.8463
  119OSM      N12467   5.254   4.652   5.201 -0.4082  0.2257 -0.0656
  119OSM    C1512468   5.130   4.569   5.250 -0.3332  0.2519 -0.1089
  119OSM   H15A12469   5.159   4.472   5.286 -2.1522  0.1708  1.2772
  119OSM   H15B12470   5.055   4.556   5.174 -0.2449 -1.5033  0.0793
  119OSM   H15C12471   5.091   4.632   5.329  0.5131  2.7089 -1.5293
  119OSM    C1412472   5.318   4.578   5.092  0.2114  0.2274  0.4411
  119OSM   H14A12473   5.341   4.481   5.134 -1.2359  0.1678  1.1335
  119OSM   H14B12474   5.402   4.625   5.041  0.9987  0.2607  1.7201
  119OSM   H14C12475   5.248   4.550   5.014  0.9321 -1.7604  0.4581
  119OSM    C1312476   5.201   4.784   5.148 -0.0039  0.0298  0.7285
  119OSM   H13A12477   5.131   4.772   5.066  1.9820 -0.2274 -1.0255
  119OSM   H13B12478   5.280   4.847   5.111  0.7238 -2.2096 -1.9278
  119OSM   H13C12479   5.154   4.839   5.228  1.5297  2.6999 -0.0813
  119OSM    C1212480   5.347   4.675   5.316 -0.0444 -0.1779  0.1490
  119OSM   H12A12481   5.309   4.751   5.383  0.4907  1.0555 -0.9120
  119OSM   H12B12482   5.439   4.718   5.283 -0.0670 -0.6372 -0.5326
  119OSM    C1112483   5.397   4.549   5.399 -0.4060  0.1991  0.2152
  119OSM   H11A12484   5.313   4.487   5.437  1.5057 -2.8116 -0.0505
  119OSM   H11B12485   5.449   4.593   5.487 -1.8006  0.2245  1.0441
  119OSM      P12486   5.486   4.311   5.323 -0.1755 -0.2782 -0.0197
  119OSM    O1312487   5.370   4.274   5.246 -0.5515 -0.2730 -0.4101
  119OSM    O1412488   5.613   4.256   5.279 -0.4394 -0.0270  0.1093
  119OSM    O1112489   5.456   4.272   5.480 -0.1386  0.1866  0.2430
  119OSM    O1212490   5.491   4.463   5.329 -0.1572 -0.3240 -0.1415
  119OSM    C1S12491   5.559   4.304   5.577  0.4789 -0.6571  0.2387
  119OSM    H1S12492   5.575   4.414   5.581  1.2001 -0.7327  4.8278
  119OSM    H1T12493   5.654   4.252   5.551  0.1781 -1.3274  0.4549
  119OSM     NF12494   5.612   4.312   5.817  0.1091 -0.3400 -0.0760
  119OSM    HNF12495   5.668   4.236   5.849  2.3641  1.8195  1.5966
  119OSM    C2S12496   5.510   4.276   5.721  0.5547 -0.1329  0.3717
  119OSM    H2S12497   5.423   4.344   5.728  0.1564 -0.3328 -1.8575
  119OSM    C3S12498   5.450   4.131   5.741 -0.0314 -0.5181  0.2777
  119OSM    H3S12499   5.530   4.054   5.741 -0.2284 -0.7233  0.2956
  119OSM     O312500   5.368   4.071   5.636  0.4500 -0.8865  0.7144
  119OSM    HO312501   5.379   4.136   5.566 -2.5964  0.2376  1.1313
  119OSM    C4S12502   5.382   4.117   5.871 -0.0028 -0.1465 -0.4788
  119OSM    H4S12503   5.452   4.116   5.956 -2.1118 -0.1335  1.3467
  119OSM    C5S12504   5.256   4.132   5.909 -0.4942  0.3163  0.5168
  119OSM    H5S12505   5.187   4.169   5.832  1.0135  0.6497 -0.7324
  119OSM    C6S12506   5.203   4.115   6.046  0.6343 -0.6387  0.2854
  119OSM    H6S12507   5.221   4.016   6.093 -2.3125 -0.9236  1.0472
  119OSM    H6T12508   5.093   4.130   6.047  0.8229  0.9767  0.0656
  119OSM    C7S12509   5.248   4.216   6.153 -0.0588  0.1647 -0.0105
  119OSM    H7S12510   5.221   4.320   6.125 -1.1611 -0.5105 -1.5906
  119OSM    H7T12511   5.358   4.202   6.164 -0.1137  0.7915  1.6380
  119OSM    C8S12512   5.184   4.182   6.291  0.7456  0.6452 -0.3582
  119OSM    H8S12513   5.247   4.252   6.350  1.6049 -1.0003  0.7554
  119OSM    H8T12514   5.199   4.076   6.319 -1.1479  0.2578 -0.6723
  119OSM    C9S12515   5.032   4.214   6.315 -0.0300 -0.0082 -0.0443
  119OSM    H9S12516   4.971   4.170   6.233 -3.7089  2.4308  1.1237
  119OSM    H9T12517   5.017   4.324   6.321  0.7885  0.0334  1.9542
  119OSM   C10S12518   4.976   4.138   6.436 -0.2910 -0.4262 -0.0846
  119OSM   H10S12519   4.993   4.029   6.440  0.1280 -0.3422  0.7300
  119OSM   H10T12520   4.867   4.154   6.449 -0.3689 -0.3647 -0.8107
  119OSM   C11S12521   5.047   4.191   6.565  0.2209 -0.4232  0.0987
  119OSM   H11S12522   5.026   4.300   6.564  1.8489 -0.0814  0.6835
  119OSM   H11T12523   5.157   4.178   6.566  0.4816  1.3079  2.6408
  119OSM   C12S12524   4.991   4.142   6.700  0.5482  0.9061 -0.3408
  119OSM   H12S12525   5.037   4.190   6.789 -1.0503  0.4777  0.7658
  119OSM   H12T12526   5.012   4.033   6.702 -0.3919  0.6995 -0.9838
  119OSM   C13S12527   4.836   4.152   6.721 -0.4772 -0.7116  0.4370
  119OSM   H13S12528   4.783   4.082   6.653 -0.6158 -1.4359  1.2679
  119OSM   H13T12529   4.802   4.251   6.684 -0.9511 -1.5497 -1.4590
  119OSM   C14S12530   4.790   4.127   6.865 -0.4218  0.1280 -0.2331
  119OSM   H14S12531   4.830   4.209   6.929 -1.3703 -0.4942  1.1903
  119OSM   H14T12532   4.828   4.034   6.912 -0.6725 -1.3160 -2.7293
  119OSM   C15S12533   4.639   4.136   6.880  0.3634 -0.3440  0.1667
  119OSM   H15S12534   4.593   4.045   6.834 -0.0828 -0.3187  0.5448
  119OSM   H15T12535   4.595   4.222   6.825 -0.1624 -0.7959 -0.1387
  119OSM   C16S12536   4.599   4.142   7.027 -0.0175  0.1198  0.0288
  119OSM   H16S12537   4.628   4.246   7.054  1.2576 -0.4127  0.7939
  119OSM   H16T12538   4.662   4.066   7.078  1.5178 -1.0195 -3.2360
  119OSM   C17S12539   4.450   4.105   7.045  0.6291  0.3168 -0.9495
  119OSM   H17S12540   4.422   4.001   7.015  0.5821 -0.8303  2.6284
  119OSM   H17T12541   4.389   4.172   6.981 -4.1441 -4.5115 -2.2423
  119OSM   C18S12542   4.400   4.124   7.192  0.2086  0.7737  0.3851
  119OSM   H18S12543   4.289   4.130   7.194  0.1602  0.2498 -0.4804
  119OSM   H18T12544   4.456   4.210   7.235  1.5887 -0.9024  2.1287
  119OSM   H18U12545   4.445   4.040   7.248  1.8866  0.2548 -1.6033
  119OSM    C1F12546   5.644   4.443   5.842 -0.8347 -0.0094  0.3618
  119OSM     OF12547   5.596   4.540   5.785 -0.5763  0.0939  0.0880
  119OSM    C2F12548   5.736   4.455   5.959  0.2086  1.0333  0.3098
  119OSM    H2F12549   5.838   4.471   5.918  0.0503 -1.1023 -1.0732
  119OSM    H2G12550   5.749   4.354   6.004 -1.9305  1.1669  1.3390
  119OSM    C3F12551   5.685   4.546   6.078  0.1590 -0.8070  0.6723
  119OSM    H3F12552   5.651   4.647   6.044 -1.0179 -1.1788  0.7001
  119OSM    H3G12553   5.773   4.568   6.142 -0.2520  0.9961  0.6926
  119OSM    C4F12554   5.566   4.493   6.158 -0.7404 -0.5829 -0.2524
  119OSM    H4F12555   5.573   4.382   6.152 -0.3840 -0.5256 -0.9825
  119OSM    H4G12556   5.470   4.509   6.105 -0.2599  0.2206 -0.9030
  119OSM    C5F12557   5.564   4.536   6.307  0.4799 -0.6338 -0.3820
  119OSM    H5F12558   5.554   4.646   6.320 -3.6165 -1.0306  1.2485
  119OSM    H5G12559   5.664   4.506   6.346  0.1354 -1.3056  0.0003
  119OSM    C6F12560   5.453   4.465   6.390 -0.1411 -0.9384 -0.5988
  119OSM    H6F12561   5.496   4.373   6.434  1.3922 -0.4269 -0.9691
  119OSM    H6G12562   5.376   4.430   6.318  0.0683 -1.9298 -0.3493
  119OSM    C7F12563   5.399   4.566   6.489 -0.1641  0.6597 -0.4332
  119OSM    H7F12564   5.349   4.645   6.430  1.8856  2.0341 -0.4151
  119OSM    H7G12565   5.483   4.609   6.548  0.3345 -1.2583  0.3335
  119OSM    C8F12566   5.294   4.515   6.577  0.2256  0.3637 -0.3841
  119OSM    H8F12567   5.208   4.470   6.523 -0.1375  0.9108 -0.2814
  119OSM    H8G12568   5.245   4.600   6.630 -0.1896 -1.5805  2.6023
  119OSM    C9F12569   5.341   4.407   6.673  0.5804  0.2299  0.7349
  119OSM    H9F12570   5.372   4.314   6.623 -1.4649 -1.1182  1.8272
  119OSM   C10F12571   5.343   4.415   6.808 -0.3467  1.0110  0.5922
  119OSM   H10F12572   5.386   4.335   6.870  0.0712  0.1199 -0.8128
  119OSM   C11F12573   5.279   4.521   6.883 -0.1452 -0.2948 -0.2272
  119OSM   H11F12574   5.204   4.580   6.826  0.1165  1.3597  1.0805
  119OSM   H11G12575   5.353   4.599   6.910 -1.1981  0.7285 -0.2024
  119OSM   C12F12576   5.214   4.468   7.015  0.0403  0.7442  0.3271
  119OSM   H12F12577   5.281   4.389   7.056 -0.7475 -0.9315 -1.4522
  119OSM   H12G12578   5.131   4.402   6.979 -0.8320  1.9908 -0.0019
  119OSM   C13F12579   5.153   4.566   7.119  0.1346 -0.3138  0.5234
  119OSM   H13F12580   5.076   4.625   7.064 -0.4942 -1.1031  0.5244
  119OSM   H13G12581   5.237   4.624   7.163  1.3091 -1.4956 -0.1114
  119OSM   C14F12582   5.075   4.485   7.228  0.2411  0.0841 -0.5606
  119OSM   H14F12583   5.005   4.418   7.172  0.7560 -1.0809  0.1718
  119OSM   H14G12584   5.040   4.551   7.311  3.2883 -1.2085  1.9296
  119OSM   C15F12585   5.165   4.392   7.315  0.5460 -0.6546  0.1493
  119OSM   H15F12586   5.192   4.295   7.268  2.9691 -0.4864  1.0321
  119OSM   H15G12587   5.106   4.353   7.400  0.7429 -0.8500  0.1960
  119OSM   C16F12588   5.290   4.465   7.378 -0.2853 -0.0400  0.6679
  119OSM   H16F12589   5.250   4.558   7.424 -0.0213 -0.0283  0.8781
  119OSM   H16G12590   5.359   4.495   7.296 -1.5297  0.8006 -0.0985
  119OSM   C17F12591   5.365   4.383   7.473  0.2479  0.9671  0.3079
  119OSM   H17F12592   5.395   4.291   7.418 -0.1789  0.9132  0.1605
  119OSM   H17G12593   5.303   4.359   7.562  0.6703  2.1982  0.9611
  119OSM   C18F12594   5.489   4.460   7.527  0.5167 -0.6767 -0.7135
  119OSM   H18F12595   5.461   4.544   7.593 -0.9431 -2.8052  1.5804
  119OSM   H18G12596   5.569   4.492   7.457  2.3464 -0.5523  1.3111
  119OSM   H18H12597   5.547   4.383   7.582  2.2685 -0.1327 -1.7311
  120OSM      N12598   3.867   2.364   5.147  0.2683 -0.3633 -0.2815
  120OSM    C1512599   3.838   2.493   5.082  0.1788 -0.2775  0.3691
  120OSM   H15A12600   3.907   2.575   5.091 -2.1874  1.8991 -0.1045
  120OSM   H15B12601   3.741   2.529   5.116 -1.6536 -3.4002 -1.1046
  120OSM   H15C12602   3.819   2.487   4.976 -1.3893 -0.2976  0.6231
  120OSM    C1412603   3.752   2.272   5.149  0.3260  0.4288 -0.3400
  120OSM   H14A12604   3.773   2.169   5.175 -0.2790  1.0596  3.1446
  120OSM   H14B12605   3.706   2.265   5.052  2.7469  1.0566 -1.5878
  120OSM   H14C12606   3.681   2.305   5.223  2.9313  3.9555  0.8409
  120OSM    C1312607   3.973   2.304   5.066  1.0628  0.4706  0.2178
  120OSM   H13A12608   3.990   2.207   5.111  0.4795  0.2566 -0.0188
  120OSM   H13B12609   4.064   2.363   5.069  1.8348 -0.6324  3.5658
  120OSM   H13C12610   3.935   2.280   4.968  3.9096 -1.5505 -0.5644
  120OSM    C1212611   3.906   2.399   5.287 -0.4744  0.2248 -0.5905
  120OSM   H12A12612   3.838   2.471   5.330 -1.6126 -0.6205 -0.9505
  120OSM   H12B12613   4.006   2.440   5.285  0.1034 -1.0289  0.8587
  120OSM    C1112614   3.908   2.276   5.389 -0.3731 -0.0619  0.3657
  120OSM   H11A12615   3.808   2.228   5.397 -1.2028  1.2383 -1.4349
  120OSM   H11B12616   3.926   2.314   5.491 -1.5645 -0.3980  0.7231
  120OSM      P12617   4.160   2.208   5.363 -0.0968  0.1461  0.1322
  120OSM    O1312618   4.230   2.111   5.270  0.7844  0.0265 -0.6034
  120OSM    O1412619   4.178   2.350   5.336 -0.3851  0.2523  0.2479
  120OSM    O1112620   4.209   2.169   5.501 -0.3281 -0.7973 -0.4683
  120OSM    O1212621   4.008   2.173   5.366  0.7678 -0.2439  0.3547
  120OSM    C1S12622   4.143   2.078   5.589  0.2634 -0.4799  0.2387
  120OSM    H1S12623   4.159   1.976   5.549  0.7983 -1.1389  2.0209
  120OSM    H1T12624   4.034   2.095   5.595  0.4053  0.3712  0.5417
  120OSM     NF12625   4.136   1.976   5.822 -0.6905  0.0240 -0.2552
  120OSM    HNF12626   4.085   2.014   5.899 -0.7117  2.4543 -1.3960
  120OSM    C2S12627   4.194   2.079   5.730  0.6788  0.1113  1.2049
  120OSM    H2S12628   4.301   2.050   5.727  0.0577 -2.4315 -2.4522
  120OSM    C3S12629   4.176   2.220   5.799  0.9148  0.5146  0.3310
  120OSM    H3S12630   4.070   2.244   5.822  0.8908  0.2736  0.4718
  120OSM     O312631   4.214   2.328   5.712  0.2387  0.1105 -0.2809
  120OSM    HO312632   4.208   2.289   5.625 -0.5339 -0.4729  0.0234
  120OSM    C4S12633   4.259   2.232   5.921 -0.3213 -0.0939 -0.6175
  120OSM    H4S12634   4.366   2.216   5.904 -0.3811 -1.0577 -0.1694
  120OSM    C5S12635   4.203   2.272   6.042 -0.5717  0.9207 -0.3842
  120OSM    H5S12636   4.096   2.295   6.046 -0.7971  0.3531 -2.1229
  120OSM    C6S12637   4.283   2.301   6.162  0.2424 -0.4011 -0.5382
  120OSM    H6S12638   4.285   2.408   6.190  4.2007 -0.1385 -1.3271
  120OSM    H6T12639   4.388   2.269   6.143 -1.0091 -4.8813 -1.1194
  120OSM    C7S12640   4.244   2.217   6.289  0.0651 -0.1200 -0.0990
  120OSM    H7S12641   4.249   2.107   6.274 -3.1402 -0.4632  0.5957
  120OSM    H7T12642   4.138   2.232   6.318  0.0262  0.0645 -0.3365
  120OSM    C8S12643   4.327   2.253   6.412 -0.0076 -0.2956  0.3718
  120OSM    H8S12644   4.294   2.356   6.437 -2.5850 -0.8267 -0.5459
  120OSM    H8T12645   4.432   2.242   6.377 -0.2756 -0.1852 -0.4935
  120OSM    C9S12646   4.316   2.153   6.524  0.1439 -0.8721 -0.4536
  120OSM    H9S12647   4.321   2.047   6.489  4.4279 -1.3358  0.9208
  120OSM    H9T12648   4.215   2.174   6.565  0.4669  1.2671 -0.6452
  120OSM   C10S12649   4.429   2.164   6.625  0.2635 -0.1558  0.0467
  120OSM   H10S12650   4.407   2.243   6.701  0.4390  0.5557 -0.6235
  120OSM   H10T12651   4.523   2.203   6.581  0.0478  2.0953  1.3693
  120OSM   C11S12652   4.472   2.033   6.698  0.1703 -0.4461 -0.1861
  120OSM   H11S12653   4.496   1.964   6.614  0.0218  0.9404 -1.4169
  120OSM   H11T12654   4.374   2.008   6.745  0.6552  1.3800  1.9675
  120OSM   C12S12655   4.592   2.035   6.795  0.0255 -0.1995 -0.3933
  120OSM   H12S12656   4.557   2.097   6.880  0.8831 -1.4176  0.8842
  120OSM   H12T12657   4.689   2.073   6.756  1.3489 -1.2517  1.7530
  120OSM   C13S12658   4.627   1.895   6.844  0.2135  0.2761  0.4159
  120OSM   H13S12659   4.542   1.827   6.868 -2.5838  2.9077 -1.2102
  120OSM   H13T12660   4.689   1.902   6.936  1.0023  0.5422 -0.1242
  120OSM   C14S12661   4.723   1.830   6.734 -0.2306 -0.0246  0.0651
  120OSM   H14S12662   4.809   1.899   6.721 -1.1938  0.8657 -2.1687
  120OSM   H14T12663   4.670   1.821   6.637 -2.4571 -1.1850  1.3097
  120OSM   C15S12664   4.773   1.694   6.771  0.2655  0.7175  0.1391
  120OSM   H15S12665   4.839   1.707   6.860  1.0862 -2.0021  0.0229
  120OSM   H15T12666   4.839   1.655   6.690  1.2668  0.7066  0.9355
  120OSM   C16S12667   4.675   1.576   6.781 -0.2609  0.0303 -0.2479
  120OSM   H16S12668   4.645   1.560   6.675  2.9060  1.2538 -1.4781
  120OSM   H16T12669   4.591   1.612   6.844 -0.1156 -0.1793  0.0678
  120OSM   C17S12670   4.734   1.442   6.846  0.4646 -0.3153  0.2915
  120OSM   H17S12671   4.808   1.399   6.775  1.2761  2.1232 -0.4252
  120OSM   H17T12672   4.649   1.373   6.863 -0.7430  1.3705  1.4095
  120OSM   C18S12673   4.805   1.471   6.976 -0.5102  0.1704  0.2412
  120OSM   H18S12674   4.836   1.371   7.014  1.0911  0.2523 -0.7787
  120OSM   H18T12675   4.737   1.518   7.050 -0.8908 -0.9580  0.6417
  120OSM   H18U12676   4.897   1.532   6.963 -0.6947  0.5907  0.8907
  120OSM    C1F12677   4.153   1.846   5.812 -0.0913  0.2472  0.4664
  120OSM     OF12678   4.204   1.797   5.707  0.2426  0.4589 -0.4369
  120OSM    C2F12679   4.116   1.757   5.925  0.1756 -0.2530 -0.5304
  120OSM    H2F12680   4.128   1.650   5.899  0.8134 -0.2966 -0.0939
  120OSM    H2G12681   4.010   1.770   5.955  0.4950  0.8536  0.1820
  120OSM    C3F12682   4.213   1.778   6.047  0.6430  0.8484  0.6128
  120OSM    H3F12683   4.238   1.886   6.056 -0.7927  1.2197  0.4389
  120OSM    H3G12684   4.299   1.712   6.020  0.3202  0.8607 -0.5152
  120OSM    C4F12685   4.165   1.736   6.184  0.4930  0.1198  0.2273
  120OSM    H4F12686   4.127   1.632   6.180 -0.8803  0.5901  0.3175
  120OSM    H4G12687   4.073   1.792   6.213 -0.5022 -0.5764 -1.4308
  120OSM    C5F12688   4.257   1.744   6.307 -0.1260  0.5241  0.0742
  120OSM    H5F12689   4.318   1.835   6.289  0.5034  0.1297  0.2089
  120OSM    H5G12690   4.309   1.646   6.312 -2.0726 -0.5191  1.6799
  120OSM    C6F12691   4.188   1.749   6.444  0.0136  0.0762  0.7479
  120OSM    H6F12692   4.097   1.685   6.443 -0.7150  1.0919 -0.7654
  120OSM    H6G12693   4.150   1.852   6.461 -4.4838 -1.4485  1.3087
  120OSM    C7F12694   4.275   1.707   6.563 -0.7437  0.7667  0.3408
  120OSM    H7F12695   4.369   1.764   6.549 -0.6913  0.5536 -0.1986
  120OSM    H7G12696   4.315   1.605   6.543  1.5999  1.7349 -0.2367
  120OSM    C8F12697   4.195   1.719   6.694  0.0235 -0.4186 -0.2965
  120OSM    H8F12698   4.095   1.673   6.677 -0.0453 -0.2509 -0.3413
  120OSM    H8G12699   4.163   1.824   6.709  0.4165 -0.0519 -1.7975
  120OSM    C9F12700   4.253   1.661   6.815 -0.2492 -0.3009  0.4652
  120OSM    H9F12701   4.322   1.575   6.809  0.7352  0.4194  1.1269
  120OSM   C10F12702   4.262   1.717   6.933  0.1315  0.5530  0.5751
  120OSM   H10F12703   4.305   1.649   7.008 -0.8785  0.9525  1.5388
  120OSM   C11F12704   4.197   1.849   6.979  0.2139 -0.1969 -0.9248
  120OSM   H11F12705   4.135   1.827   7.069  1.2691 -0.2721 -0.1946
  120OSM   H11G12706   4.135   1.901   6.904  0.0362  1.7853  0.5240
  120OSM   C12F12707   4.307   1.948   7.032  0.0086 -0.1052  0.0949
  120OSM   H12F12708   4.250   2.035   7.072 -0.5008 -0.0281 -0.7739
  120OSM   H12G12709   4.361   1.978   6.940  0.6297 -1.7872 -0.1267
  120OSM   C13F12710   4.387   1.873   7.134 -0.4403  0.2434  0.3408
  120OSM   H13F12711   4.433   1.780   7.093 -0.3839  0.8077 -0.9359
  120OSM   H13G12712   4.321   1.850   7.220 -1.4424  1.4824 -0.0685
  120OSM   C14F12713   4.491   1.964   7.200  0.0440  0.3144  0.4805
  120OSM   H14F12714   4.452   2.041   7.270  2.0871  1.2111  0.6906
  120OSM   H14G12715   4.535   2.020   7.115 -3.0114  1.0718 -0.7107
  120OSM   C15F12716   4.601   1.891   7.274  0.2028  0.1039 -0.5953
  120OSM   H15F12717   4.660   1.822   7.211  1.5027 -1.2435  1.9689
  120OSM   H15G12718   4.535   1.832   7.342  0.4448  0.0929 -0.3698
  120OSM   C16F12719   4.700   1.979   7.360  0.2554 -0.0941  0.8159
  120OSM   H16F12720   4.724   1.922   7.453 -2.1716 -1.5647  0.6305
  120OSM   H16G12721   4.637   2.065   7.392 -2.1876 -0.3705 -2.7422
  120OSM   C17F12722   4.819   2.024   7.271 -0.1318 -0.3771 -0.3132
  120OSM   H17F12723   4.884   2.091   7.332 -0.8103 -0.0945  0.1081
  120OSM   H17G12724   4.772   2.083   7.190 -1.8129 -0.0059  0.8728
  120OSM   C18F12725   4.913   1.906   7.232  0.2643 -0.8369  0.4441
  120OSM   H18F12726   4.934   1.854   7.328 -0.7536  0.7612  1.5824
  120OSM   H18G12727   5.008   1.947   7.192  0.1805  0.3046  1.3569
  120OSM   H18H12728   4.859   1.833   7.168  1.0514 -1.6160  0.6534
  121OSM      N12729   5.505   3.866   5.323  0.1003  0.6081  0.1920
  121OSM    C1512730   5.366   3.912   5.298  0.0500  0.2836  0.0709
  121OSM   H15A12731   5.296   3.847   5.349  0.4618  0.0789  0.3856
  121OSM   H15B12732   5.327   3.896   5.199  0.3690  3.4138 -0.6521
  121OSM   H15C12733   5.344   4.016   5.315  1.1040  0.2839  1.6957
  121OSM    C1412734   5.520   3.722   5.285 -0.4584  0.4294  0.4801
  121OSM   H14A12735   5.503   3.696   5.182 -0.1523 -3.1191  1.1692
  121OSM   H14B12736   5.450   3.660   5.340  0.5997  0.4152  1.8838
  121OSM   H14C12737   5.616   3.682   5.312 -1.5694 -1.8467  1.3945
  121OSM    C1312738   5.604   3.953   5.247  0.9785 -0.0016  0.1350
  121OSM   H13A12739   5.599   4.059   5.264  0.4950 -0.0462  0.2636
  121OSM   H13B12740   5.587   3.947   5.140 -1.8679 -1.1507  0.5648
  121OSM   H13C12741   5.705   3.931   5.280  0.7911 -1.3223 -0.1182
  121OSM    C1212742   5.529   3.875   5.472  0.2880  0.0965  0.2119
  121OSM   H12A12743   5.453   3.814   5.520 -0.3849  0.3468 -0.5293
  121OSM   H12B12744   5.500   3.976   5.496 -0.5174 -0.1538  0.3243
  121OSM    C1112745   5.669   3.856   5.537  0.3434 -0.1230 -0.3708
  121OSM   H11A12746   5.685   3.746   5.545 -3.1459 -0.7951 -1.2026
  121OSM   H11B12747   5.675   3.889   5.643  0.3043 -2.5138  0.4457
  121OSM      P12748   5.899   3.992   5.497  0.0962 -0.3168  0.1280
  121OSM    O1312749   5.995   3.978   5.386 -0.3187  0.4138  0.2529
  121OSM    O1412750   5.867   4.135   5.534  0.3043  0.3661 -0.0407
  121OSM    O1112751   5.954   3.922   5.629 -0.5204  0.2295 -0.0572
  121OSM    O1212752   5.765   3.919   5.456 -0.4358  0.3346  0.7017
  121OSM    C1S12753   5.978   4.013   5.750 -0.1225 -0.1065  0.7682
  121OSM    H1S12754   5.904   4.096   5.749  0.1083  0.1132 -0.4182
  121OSM    H1T12755   6.077   4.059   5.726 -0.1485  0.1197  1.0966
  121OSM     NF12756   5.981   4.030   5.989 -0.3077  0.1566 -0.4855
  121OSM    HNF12757   6.051   4.008   6.057  0.7004  1.5153 -1.0301
  121OSM    C2S12758   5.971   3.935   5.882 -0.6178 -0.3404  0.4006
  121OSM    H2S12759   5.868   3.892   5.889 -0.9235 -0.0426 -1.7294
  121OSM    C3S12760   6.068   3.810   5.877  0.0878 -0.5513  0.4132
  121OSM    H3S12761   6.172   3.849   5.866  0.3061 -1.4080 -0.6534
  121OSM     O312762   6.052   3.723   5.770  0.4666 -0.4053 -0.6237
  121OSM    HO312763   6.009   3.775   5.702  1.1583  0.6063 -0.3117
  121OSM    C4S12764   6.066   3.733   6.001 -0.8677 -0.1925 -0.3968
  121OSM    H4S12765   6.156   3.766   6.056 -0.8073  2.8422 -2.0988
  121OSM    C5S12766   5.975   3.649   6.057 -0.8230 -0.0442  1.1812
  121OSM    H5S12767   5.890   3.625   5.991  0.8340  0.9177 -1.4822
  121OSM    C6S12768   5.991   3.594   6.202  0.2518 -0.5920 -0.0755
  121OSM    H6S12769   6.099   3.589   6.228  0.4742 -0.1876 -0.8800
  121OSM    H6T12770   5.953   3.489   6.206  0.3727 -0.6310  0.0527
  121OSM    C7S12771   5.917   3.688   6.300  0.7307 -0.6754 -0.0945
  121OSM    H7S12772   5.807   3.679   6.284  0.8410 -0.1342 -1.2288
  121OSM    H7T12773   5.941   3.796   6.291 -1.2768  0.2919  3.7588
  121OSM    C8S12774   5.957   3.658   6.446 -0.1817 -0.1909 -0.2727
  121OSM    H8S12775   6.054   3.711   6.459  0.0857 -0.4215 -1.2379
  121OSM    H8T12776   5.962   3.547   6.459 -0.9018 -0.1623  0.2822
  121OSM    C9S12777   5.857   3.708   6.547 -0.1373  0.8631  0.5494
  121OSM    H9S12778   5.751   3.682   6.529  0.3783 -2.0509  1.2995
  121OSM    H9T12779   5.860   3.819   6.544 -3.2628  1.0384 -2.7778
  121OSM   C10S12780   5.894   3.676   6.688 -0.5229 -0.9123 -0.3325
  121OSM   H10S12781   6.003   3.664   6.707 -0.5418 -0.0670  0.3755
  121OSM   H10T12782   5.850   3.581   6.723 -2.2229 -0.3613 -0.8602
  121OSM   C11S12783   5.821   3.782   6.778  0.3483  0.3134 -0.5170
  121OSM   H11S12784   5.711   3.781   6.761  0.3358  2.1497 -0.7945
  121OSM   H11T12785   5.861   3.884   6.758  1.5515  0.0290  0.3707
  121OSM   C12S12786   5.836   3.761   6.931 -0.3989 -0.0728 -0.4573
  121OSM   H12S12787   5.931   3.796   6.975  0.5978 -2.6882 -0.3278
  121OSM   H12T12788   5.822   3.657   6.969 -4.2689  1.4632  3.0364
  121OSM   C13S12789   5.727   3.830   7.012 -0.0972  0.0111  0.2920
  121OSM   H13S12790   5.631   3.779   6.993 -1.6606  2.8413  0.0693
  121OSM   H13T12791   5.726   3.939   6.988 -1.4011 -0.0647 -0.0577
  121OSM   C14S12792   5.763   3.843   7.161 -0.3948  0.2383  0.1545
  121OSM   H14S12793   5.853   3.899   7.194 -0.2388  1.6542 -2.3824
  121OSM   H14T12794   5.785   3.741   7.198 -2.4039 -0.1698  0.3099
  121OSM   C15S12795   5.657   3.897   7.253  0.6756  0.7331 -0.2926
  121OSM   H15S12796   5.572   3.827   7.236 -0.1919  0.8916  2.8025
  121OSM   H15T12797   5.619   3.988   7.202  1.3670  1.0241 -0.2994
  121OSM   C16S12798   5.697   3.922   7.401 -0.0792  0.0063  0.1190
  121OSM   H16S12799   5.791   3.981   7.399  0.3040 -0.5735  0.7900
  121OSM   H16T12800   5.713   3.817   7.432 -1.2183 -0.2049  0.0471
  121OSM   C17S12801   5.593   4.000   7.476  0.0447  0.0091 -0.1794
  121OSM   H17S12802   5.493   3.963   7.445  0.1543 -0.2581 -0.2097
  121OSM   H17T12803   5.612   4.108   7.458  2.0053  0.1464  2.1563
  121OSM   C18S12804   5.605   3.978   7.626  0.5301 -0.5707 -0.0007
  121OSM   H18S12805   5.634   3.872   7.644  0.7170 -0.9897 -2.4856
  121OSM   H18T12806   5.511   3.996   7.683  1.2349 -1.9437  1.7098
  121OSM   H18U12807   5.683   4.044   7.671 -0.1348 -0.0233  0.3723
  121OSM    C1F12808   5.901   4.128   6.019 -0.7545  0.5343  0.0959
  121OSM     OF12809   5.799   4.144   5.956 -0.3892  0.3498  0.2587
  121OSM    C2F12810   5.928   4.198   6.143  0.2442 -0.3206  0.1141
  121OSM    H2F12811   5.904   4.305   6.127  0.1162 -0.7115 -2.7573
  121OSM    H2G12812   6.037   4.200   6.166  0.3117  1.6945 -0.1427
  121OSM    C3F12813   5.836   4.152   6.263 -0.2691 -0.0439  0.1587
  121OSM    H3F12814   5.856   4.045   6.287 -0.0737  0.2563  1.3619
  121OSM    H3G12815   5.731   4.155   6.227 -0.1499 -3.1294 -0.7646
  121OSM    C4F12816   5.852   4.235   6.390 -0.4914  0.4401 -0.6155
  121OSM    H4F12817   5.825   4.340   6.364 -1.7849 -0.0421 -1.2655
  121OSM    H4G12818   5.960   4.229   6.418 -1.3388 -2.3060  2.7879
  121OSM    C5F12819   5.765   4.185   6.503  0.9126 -0.3533 -0.8562
  121OSM    H5F12820   5.793   4.079   6.525  0.0840 -0.2146  1.1019
  121OSM    H5G12821   5.661   4.177   6.464  0.3731  0.2960  0.4102
  121OSM    C6F12822   5.762   4.275   6.624  0.1404 -0.4840 -0.1957
  121OSM    H6F12823   5.709   4.365   6.588  0.3289 -0.1678  0.3084
  121OSM    H6G12824   5.866   4.296   6.655 -0.2725  1.6324 -0.1490
  121OSM    C7F12825   5.689   4.235   6.754 -0.2193  0.2966  0.6630
  121OSM    H7F12826   5.726   4.134   6.780  2.4046  0.4163 -2.0403
  121OSM    H7G12827   5.581   4.228   6.729  0.2547 -1.9229 -1.1083
  121OSM    C8F12828   5.702   4.332   6.871 -0.1430 -0.0214 -0.2015
  121OSM    H8F12829   5.625   4.303   6.947 -1.1395  0.4876 -0.9936
  121OSM    H8G12830   5.659   4.429   6.840  2.7159  1.6800  0.8245
  121OSM    C9F12831   5.846   4.353   6.922 -0.0074  0.5503  0.4615
  121OSM    H9F12832   5.927   4.387   6.856  0.0340 -0.5185 -0.0706
  121OSM   C10F12833   5.886   4.327   7.045  0.0470  0.5566 -0.7282
  121OSM   H10F12834   5.991   4.343   7.074 -0.4278  1.2180  0.7532
  121OSM   C11F12835   5.797   4.275   7.162 -0.8093 -0.4958 -0.8101
  121OSM   H11F12836   5.789   4.164   7.156  0.6063 -0.6452 -0.1833
  121OSM   H11G12837   5.695   4.318   7.171 -0.2028  0.6958  0.7628
  121OSM   C12F12838   5.860   4.293   7.298 -0.2487  0.1012 -0.1586
  121OSM   H12F12839   5.965   4.264   7.319 -0.5945 -0.2897  1.1426
  121OSM   H12G12840   5.797   4.229   7.364 -0.6756 -0.7715 -1.3849
  121OSM   C13F12841   5.859   4.439   7.335 -0.0913  0.3639  0.2938
  121OSM   H13F12842   5.757   4.482   7.347 -0.2833 -0.2803  1.1312
  121OSM   H13G12843   5.905   4.492   7.250 -1.0533  1.1538  0.2534
  121OSM   C14F12844   5.943   4.478   7.451  0.0390 -0.0084 -0.9380
  121OSM   H14F12845   5.912   4.579   7.485 -3.2998 -0.9310 -0.9139
  121OSM   H14G12846   6.053   4.478   7.435  0.2352 -1.3292  0.2703
  121OSM   C15F12847   5.915   4.383   7.577  0.3470 -0.7090 -0.4685
  121OSM   H15F12848   5.967   4.287   7.560 -1.3508 -1.7811  0.1504
  121OSM   H15G12849   5.807   4.356   7.578 -0.0883  0.6988  2.7013
  121OSM   C16F12850   5.937   4.455   7.712 -0.3767 -0.2933  0.3930
  121OSM   H16F12851   5.909   4.561   7.694 -0.3677 -0.2015  0.8991
  121OSM   H16G12852   6.046   4.455   7.734 -0.5202  2.0461  1.4107
  121OSM   C17F12853   5.865   4.388   7.828 -0.8211  0.1309  0.1264
  121OSM   H17F12854   5.757   4.413   7.818 -0.0678  2.9276 -2.1505
  121OSM   H17G12855   5.893   4.455   7.913  0.3309 -0.5278  0.2875
  121OSM   C18F12856   5.900   4.234   7.840  0.5398  0.0877  1.2779
  121OSM   H18F12857   5.993   4.198   7.790  0.5115 -0.3272  1.5138
  121OSM   H18G12858   5.822   4.188   7.775  0.5034  2.4988 -0.5022
  121OSM   H18H12859   5.903   4.198   7.945  1.9972 -1.4850  0.7558
  122OSM      N12860   2.755   5.768   5.580 -0.2667  0.2384  0.6528
  122OSM    C1512861   2.698   5.712   5.714 -0.2746  0.3254  0.1776
  122OSM   H15A12862   2.601   5.665   5.705 -1.2084  1.7821  2.0230
  122OSM   H15B12863   2.681   5.790   5.786 -1.8782  0.5351 -0.3975
  122OSM   H15C12864   2.768   5.649   5.766 -0.4065  0.7952  0.9364
  122OSM    C1412865   2.767   5.662   5.466 -0.0990 -0.0249 -0.4816
  122OSM   H14A12866   2.672   5.616   5.442 -0.0278  0.0484 -0.8953
  122OSM   H14B12867   2.823   5.574   5.495  0.4603  0.2549 -0.7033
  122OSM   H14C12868   2.794   5.707   5.372  0.3737  1.8557  0.4940
  122OSM    C1312869   2.665   5.866   5.507  0.4269  0.3500 -0.3751
  122OSM   H13A12870   2.633   5.949   5.568 -0.5419  0.6369 -1.2299
  122OSM   H13B12871   2.573   5.818   5.476 -1.0219  0.9719  2.6174
  122OSM   H13C12872   2.711   5.905   5.417 -0.8766  1.7794 -0.4889
  122OSM    C1212873   2.892   5.826   5.613 -0.1587  0.3808  1.0009
  122OSM   H12A12874   2.954   5.749   5.656  0.4182 -0.3453 -1.0357
  122OSM   H12B12875   2.871   5.902   5.688  1.0103  0.5968  1.1245
  122OSM    C1112876   2.969   5.898   5.496  0.5435 -0.1032 -0.2106
  122OSM   H11A12877   2.993   5.824   5.417 -2.2754 -1.7145  0.3315
  122OSM   H11B12878   3.073   5.916   5.532  0.3054  1.8324 -0.3559
  122OSM      P12879   2.942   6.159   5.501  0.3506  0.7927 -0.2127
  122OSM    O1312880   3.085   6.170   5.489 -0.1446 -0.3380  0.3033
  122OSM    O1412881   2.862   6.267   5.442  0.2371  1.1602 -0.2157
  122OSM    O1112882   2.907   6.158   5.662  0.3356  0.5571  0.2118
  122OSM    O1212883   2.901   6.014   5.443  0.7548  0.2102 -0.2992
  122OSM    C1S12884   2.778   6.163   5.718 -0.5072  0.5284 -0.9164
  122OSM    H1S12885   2.725   6.066   5.704 -0.5663  0.6316 -1.4088
  122OSM    H1T12886   2.714   6.239   5.667 -1.0948  0.2554 -0.6022
  122OSM     NF12887   2.663   6.159   5.930  0.4665  0.4521 -0.3388
  122OSM    HNF12888   2.588   6.222   5.944  1.5477  1.5310  0.8742
  122OSM    C2S12889   2.789   6.195   5.873  0.4240 -0.1130 -0.0137
  122OSM    H2S12890   2.877   6.137   5.907  1.1577  1.1511  0.2865
  122OSM    C3S12891   2.824   6.345   5.898 -0.2673  0.0855 -0.1298
  122OSM    H3S12892   2.740   6.414   5.873  1.5162  1.5604 -2.4837
  122OSM     O312893   2.930   6.387   5.805  0.1162 -0.1809  0.2040
  122OSM    HO312894   2.924   6.322   5.735 -0.2549 -0.1278  0.1833
  122OSM    C4S12895   2.859   6.379   6.045 -0.5503  0.8581 -0.7483
  122OSM    H4S12896   2.769   6.407   6.103  0.3395 -0.0424  1.1527
  122OSM    C5S12897   2.984   6.376   6.100 -0.3165 -0.5290  0.1675
  122OSM    H5S12898   3.070   6.364   6.032 -0.5705  1.2032 -0.5190
  122OSM    C6S12899   3.008   6.395   6.251 -0.3801 -0.0221  0.4695
  122OSM    H6S12900   2.936   6.463   6.300  2.2657  1.8109  2.0834
  122OSM    H6T12901   3.105   6.449   6.257 -0.5651  0.3496  0.1991
  122OSM    C7S12902   3.011   6.265   6.335 -0.3624 -0.0378  0.5624
  122OSM    H7S12903   3.078   6.192   6.285  0.2892  2.8573 -3.2450
  122OSM    H7T12904   2.911   6.216   6.331 -0.6197  0.5818 -1.4236
  122OSM    C8S12905   3.047   6.290   6.485 -0.4072 -0.1254  0.4162
  122OSM    H8S12906   2.972   6.363   6.524  1.2586  1.5021  0.7042
  122OSM    H8T12907   3.146   6.340   6.492 -1.2194  1.6996 -0.4475
  122OSM    C9S12908   3.052   6.153   6.565 -0.2580 -0.6791 -0.7427
  122OSM    H9S12909   3.115   6.083   6.507 -0.7006  0.2589 -2.4114
  122OSM    H9T12910   2.949   6.114   6.575 -1.3737  2.1456 -0.1377
  122OSM   C10S12911   3.100   6.167   6.709 -0.7684 -0.3074 -0.3905
  122OSM   H10S12912   3.037   6.230   6.775  1.5306  1.5119  0.2042
  122OSM   H10T12913   3.194   6.226   6.701 -0.3883 -1.0144 -1.2898
  122OSM   C11S12914   3.136   6.034   6.777  0.5804 -1.1524 -0.3460
  122OSM   H11S12915   3.226   6.006   6.718 -0.0967  1.1133 -2.6745
  122OSM   H11T12916   3.052   5.964   6.759  0.1479 -0.6197 -0.4344
  122OSM   C12S12917   3.160   6.057   6.928 -0.2225 -0.3123 -0.2455
  122OSM   H12S12918   3.064   6.085   6.977 -1.0426 -0.6727 -1.5987
  122OSM   H12T12919   3.231   6.142   6.936 -2.5320  1.7782 -0.5806
  122OSM   C13S12920   3.220   5.938   6.989 -0.4197 -0.2601  0.4514
  122OSM   H13S12921   3.314   5.923   6.931 -1.9392  0.5518 -2.4011
  122OSM   H13T12922   3.153   5.855   6.958 -1.0062  0.5462 -0.5006
  122OSM   C14S12923   3.234   5.943   7.145 -0.4885 -0.1820  0.8006
  122OSM   H14S12924   3.137   5.980   7.186 -1.2220 -1.9781  0.7742
  122OSM   H14T12925   3.308   6.023   7.168 -2.0475  1.0778  1.6647
  122OSM   C15S12926   3.285   5.807   7.203 -0.0309 -0.3587  0.2930
  122OSM   H15S12927   3.390   5.785   7.175 -0.0463 -1.0332  0.7428
  122OSM   H15T12928   3.213   5.724   7.184 -0.9767  0.2940  0.9459
  122OSM   C16S12929   3.301   5.822   7.358  0.3938 -0.3334  0.4821
  122OSM   H16S12930   3.206   5.858   7.402 -0.0267 -1.1246  0.2370
  122OSM   H16T12931   3.385   5.891   7.379 -0.5865  1.2091 -0.4499
  122OSM   C17S12932   3.318   5.684   7.415  0.1129  0.1154 -0.2905
  122OSM   H17S12933   3.385   5.618   7.355  0.4647 -0.9064  1.1823
  122OSM   H17T12934   3.219   5.632   7.417  0.3337 -0.6702 -3.5403
  122OSM   C18S12935   3.365   5.675   7.563 -0.2256 -0.2310  0.0565
  122OSM   H18S12936   3.468   5.714   7.580 -1.2873  1.8082  2.4064
  122OSM   H18T12937   3.369   5.573   7.606  1.8447  0.3829  1.4983
  122OSM   H18U12938   3.293   5.728   7.628 -0.4504 -1.7566  1.0875
  122OSM    C1F12939   2.636   6.034   5.977 -0.1968 -0.5268 -0.3464
  122OSM     OF12940   2.705   5.935   5.942  0.3320 -0.3060 -0.8443
  122OSM    C2F12941   2.523   6.016   6.073 -0.2102  0.7582  0.4696
  122OSM    H2F12942   2.520   5.905   6.075 -0.1967  0.7256 -0.5503
  122OSM    H2G12943   2.430   6.057   6.027  1.4835  2.0006 -2.0838
  122OSM    C3F12944   2.538   6.085   6.207  0.8397 -0.2141 -0.4647
  122OSM    H3F12945   2.436   6.078   6.250  1.8538 -1.0550  1.9970
  122OSM    H3G12946   2.555   6.194   6.198 -0.0616 -0.1058 -0.9965
  122OSM    C4F12947   2.651   6.032   6.293  0.3416  0.4837 -0.1636
  122OSM    H4F12948   2.752   6.060   6.256  0.6036  1.0644  0.9258
  122OSM    H4G12949   2.654   5.920   6.296  1.8319  0.5046  0.0512
  122OSM    C5F12950   2.634   6.078   6.434 -0.7485  0.0514  0.1313
  122OSM    H5F12951   2.599   6.183   6.439 -0.4688  0.2820 -1.9757
  122OSM    H5G12952   2.731   6.068   6.488 -0.2661  2.3235 -0.2499
  122OSM    C6F12953   2.545   5.987   6.522  0.1123  1.0031 -0.3224
  122OSM    H6F12954   2.583   5.884   6.506 -0.2081  1.0539 -1.5045
  122OSM    H6G12955   2.438   5.985   6.490  0.4381 -1.4281 -1.5180
  122OSM    C7F12956   2.550   6.019   6.666 -0.0532  0.3128  0.1533
  122OSM    H7F12957   2.470   6.093   6.685 -1.0319 -0.7798  0.3694
  122OSM    H7G12958   2.641   6.081   6.681 -0.4735  1.4851 -1.8023
  122OSM    C8F12959   2.552   5.898   6.764 -0.4386 -0.2570 -0.7231
  122OSM    H8F12960   2.653   5.855   6.749 -0.0029  1.3087 -2.8314
  122OSM    H8G12961   2.479   5.818   6.736 -0.5992 -1.0028  1.6684
  122OSM    C9F12962   2.523   5.939   6.908  0.0143 -0.4119  0.2479
  122OSM    H9F12963   2.419   5.958   6.937  0.7167  0.6951  2.1862
  122OSM   C10F12964   2.618   5.957   7.003  0.4142 -0.1691  0.2893
  122OSM   H10F12965   2.588   5.987   7.105  0.5137 -0.6332  0.4619
  122OSM   C11F12966   2.766   5.932   6.990  0.4475 -0.4657  0.3596
  122OSM   H11F12967   2.821   6.027   7.003 -0.7537 -0.0923  3.6242
  122OSM   H11G12968   2.797   5.897   6.889  0.8008  2.4030 -0.6203
  122OSM   C12F12969   2.816   5.848   7.109 -0.0305 -0.1255  0.3132
  122OSM   H12F12970   2.917   5.804   7.092 -0.9704 -3.0770  1.6644
  122OSM   H12G12971   2.751   5.758   7.117 -0.0816 -0.0053  1.4246
  122OSM   C13F12972   2.822   5.931   7.237 -0.4047  0.1991  0.5302
  122OSM   H13F12973   2.737   6.002   7.245  0.7000  1.4979  0.9967
  122OSM   H13G12974   2.903   6.006   7.220 -0.1347  0.0583  1.1775
  122OSM   C14F12975   2.855   5.845   7.355  0.2439  0.0748  0.8150
  122OSM   H14F12976   2.947   5.787   7.332 -2.0063 -3.1144 -1.0594
  122OSM   H14G12977   2.781   5.764   7.376  1.9055 -1.6266  0.3209
  122OSM   C15F12978   2.884   5.925   7.481  0.1620 -0.4352 -0.4085
  122OSM   H15F12979   2.798   5.993   7.497  1.0154  0.3700  1.0523
  122OSM   H15G12980   2.967   5.993   7.451 -0.1392 -0.6877 -1.8507
  122OSM   C16F12981   2.898   5.842   7.601  0.3889  0.0949 -0.4997
  122OSM   H16F12982   2.994   5.787   7.598  0.3898  0.0807 -0.2389
  122OSM   H16G12983   2.817   5.767   7.608  1.8370 -1.3870  2.2873
  122OSM   C17F12984   2.882   5.923   7.723  0.1479 -0.0917  0.0455
  122OSM   H17F12985   2.781   5.968   7.730  1.1341  2.1715  0.7599
  122OSM   H17G12986   2.953   6.007   7.712 -0.7772  0.6722 -0.1189
  122OSM   C18F12987   2.920   5.863   7.858  0.0338  0.1744  0.5233
  122OSM   H18F12988   3.031   5.850   7.853  0.1103 -1.0560  3.5684
  122OSM   H18G12989   2.876   5.761   7.868 -4.2495  1.4264 -2.4951
  122OSM   H18H12990   2.882   5.930   7.937 -1.4756 -0.3852  0.2979
  123OSM      N12991   2.273   0.713   5.575 -0.3648 -0.2292 -0.4067
  123OSM    C1512992   2.286   0.568   5.627 -0.3536 -0.0954 -0.1047
  123OSM   H15A12993   2.349   0.562   5.715 -0.1537 -0.2890 -0.2586
  123OSM   H15B12994   2.331   0.508   5.549 -1.7123  0.2883 -1.2262
  123OSM   H15C12995   2.191   0.533   5.663 -0.5493  1.0977  0.6003
  123OSM    C1412996   2.404   0.763   5.532 -0.5366  0.1923  0.3050
  123OSM   H14A12997   2.446   0.699   5.456 -0.8068  1.2393 -0.7700
  123OSM   H14B12998   2.481   0.764   5.607  0.3341 -0.1314 -0.5610
  123OSM   H14C12999   2.406   0.867   5.500  1.3611 -0.1822 -0.9059
  123OSM    C1313000   2.187   0.696   5.449 -0.4741 -0.4138  0.4940
  123OSM   H13A13001   2.093   0.650   5.476 -0.0415 -1.1992  0.6699
  123OSM   H13B13002   2.230   0.653   5.361 -1.2762  1.0069 -0.6509
  123OSM   H13C13003   2.167   0.800   5.424  0.2087 -0.5162 -0.4966
  123OSM    C1213004   2.210   0.808   5.674 -0.0829  0.1378 -0.5447
  123OSM   H12A13005   2.122   0.758   5.712  0.7646 -1.3687 -0.4615
  123OSM   H12B13006   2.177   0.899   5.626  2.8256  2.5681  1.6463
  123OSM    C1113007   2.296   0.847   5.801  0.4214 -0.4467  0.1509
  123OSM   H11A13008   2.354   0.764   5.847  1.5486  0.1452 -0.1674
  123OSM   H11B13009   2.235   0.893   5.881 -2.0219  0.7794 -2.2447
  123OSM      P13010   2.355   1.087   5.723 -0.0811 -0.2550  0.2263
  123OSM    O1313011   2.480   1.153   5.676 -0.2107  0.3650 -0.1711
  123OSM    O1413012   2.247   1.103   5.630  0.8944 -0.2104  0.1549
  123OSM    O1113013   2.314   1.140   5.868 -0.1237 -0.0840  0.7151
  123OSM    O1213014   2.391   0.939   5.755  0.5004  0.2307 -0.3692
  123OSM    C1S13015   2.389   1.230   5.945 -0.1620  0.0191 -0.4326
  123OSM    H1S13016   2.431   1.321   5.896  0.4457  0.6306  1.1695
  123OSM    H1T13017   2.486   1.185   5.973 -0.7408 -0.8448  0.2302
  123OSM     NF13018   2.428   1.340   6.162  0.0482 -0.2692 -0.0980
  123OSM    HNF13019   2.443   1.293   6.249  0.5985  0.7357  0.3677
  123OSM    C2S13020   2.319   1.292   6.080 -0.2503  0.1005 -0.0086
  123OSM    H2S13021   2.253   1.378   6.055 -1.2997 -0.3695  1.0381
  123OSM    C3S13022   2.243   1.173   6.142  0.3214 -0.8620 -0.0155
  123OSM    H3S13023   2.319   1.094   6.152 -0.4338 -1.4271  1.7129
  123OSM     O313024   2.141   1.107   6.067  0.0794 -0.5347 -0.2373
  123OSM    HO313025   2.179   1.099   5.979  1.3372 -2.5722  0.4089
  123OSM    C4S13026   2.176   1.228   6.263  0.0949 -0.7763 -0.1411
  123OSM    H4S13027   2.133   1.329   6.255 -1.2175 -1.3856 -1.0894
  123OSM    C5S13028   2.170   1.164   6.381  0.3432  0.0458 -0.0698
  123OSM    H5S13029   2.210   1.063   6.398  0.0291 -0.5075 -2.3556
  123OSM    C6S13030   2.102   1.236   6.499 -0.0594 -0.2408 -1.0159
  123OSM    H6S13031   2.177   1.216   6.578  0.3495 -1.8060 -1.7673
  123OSM    H6T13032   2.004   1.190   6.524 -0.2933  1.3096  1.2141
  123OSM    C7S13033   2.075   1.386   6.492  0.8856 -0.2445  0.1317
  123OSM    H7S13034   1.992   1.406   6.421  1.5041  1.5668 -0.1385
  123OSM    H7T13035   2.161   1.439   6.446 -0.3556 -1.1227 -3.4640
  123OSM    C8S13036   2.034   1.439   6.629  0.3137 -0.1171 -0.0147
  123OSM    H8S13037   2.114   1.421   6.703 -0.2823  0.0229  0.6783
  123OSM    H8T13038   1.953   1.373   6.667  0.1890  0.5729  0.9411
  123OSM    C9S13039   1.985   1.585   6.614 -0.3163  0.5246 -0.0819
  123OSM    H9S13040   1.933   1.597   6.517  1.5290  0.1564 -1.1738
  123OSM    H9T13041   2.074   1.652   6.620  0.3408 -0.3082 -0.3514
  123OSM   C10S13042   1.907   1.633   6.738 -0.3221  0.4350 -0.2317
  123OSM   H10S13043   1.817   1.576   6.770 -0.0303  0.3285  0.4102
  123OSM   H10T13044   1.867   1.732   6.707 -2.3956 -0.4243 -0.4932
  123OSM   C11S13045   1.989   1.644   6.864  0.4445  0.4081 -0.2147
  123OSM   H11S13046   1.994   1.752   6.890  0.8646  0.4318 -0.3749
  123OSM   H11T13047   2.095   1.620   6.839  0.0805  0.7850 -2.3223
  123OSM   C12S13048   1.955   1.554   6.984 -0.0409 -0.2902 -0.0097
  123OSM   H12S13049   2.006   1.458   6.965 -2.5482 -1.6307 -0.4264
  123OSM   H12T13050   1.847   1.529   6.992 -0.3484  0.2903 -1.8493
  123OSM   C13S13051   1.996   1.618   7.121 -0.7217 -0.1420 -0.3715
  123OSM   H13S13052   1.973   1.559   7.212 -1.5017  1.9113  0.8415
  123OSM   H13T13053   1.935   1.711   7.132 -0.6375  0.1765 -2.3050
  123OSM   C14S13054   2.147   1.652   7.115  0.3248  0.2392 -0.3581
  123OSM   H14S13055   2.169   1.722   7.032 -1.7477  0.7111 -0.5592
  123OSM   H14T13056   2.192   1.554   7.089  0.0945  0.3008 -1.0007
  123OSM   C15S13057   2.216   1.707   7.241 -0.5031 -0.4458  0.4267
  123OSM   H15S13058   2.317   1.738   7.206  0.6474  0.8491  4.3510
  123OSM   H15T13059   2.224   1.648   7.335  0.0975  2.5789  2.4275
  123OSM   C16S13060   2.150   1.843   7.290  0.2591  0.1804  0.4508
  123OSM   H16S13061   2.040   1.827   7.297  0.2760  0.2958  1.0136
  123OSM   H16T13062   2.169   1.924   7.216 -0.1131  0.4178  0.6090
  123OSM   C17S13063   2.210   1.891   7.430 -0.3990  0.1975  0.7753
  123OSM   H17S13064   2.306   1.936   7.397 -0.1849 -1.8588 -1.6378
  123OSM   H17T13065   2.242   1.805   7.493  1.4561  1.2230  1.3267
  123OSM   C18S13066   2.125   1.994   7.505 -0.2722  0.0478 -0.1738
  123OSM   H18S13067   2.032   1.941   7.533 -0.5732 -1.6571 -3.8255
  123OSM   H18T13068   2.098   2.092   7.460 -2.1155 -0.3125  0.0688
  123OSM   H18U13069   2.169   2.017   7.604  2.7755 -0.9264 -1.1890
  123OSM    C1F13070   2.502   1.452   6.135  0.2763 -0.4525  0.3573
  123OSM     OF13071   2.521   1.495   6.018  0.0275 -0.7011 -0.0032
  123OSM    C2F13072   2.568   1.525   6.258  0.5963 -0.7546  0.3721
  123OSM    H2F13073   2.667   1.475   6.261 -0.2653 -2.5490  0.0495
  123OSM    H2G13074   2.509   1.497   6.349  3.5826 -3.3823  1.6968
  123OSM    C3F13075   2.575   1.681   6.235 -0.3407  0.5820 -0.8026
  123OSM    H3F13076   2.616   1.682   6.131  0.3103 -0.7516 -0.5838
  123OSM    H3G13077   2.648   1.716   6.310  2.1221 -3.6752 -0.8973
  123OSM    C4F13078   2.439   1.749   6.233  0.5091  0.3620 -0.6434
  123OSM    H4F13079   2.374   1.713   6.316 -0.1893  2.7002 -0.0872
  123OSM    H4G13080   2.378   1.723   6.143 -1.7227 -1.8584  1.3530
  123OSM    C5F13081   2.445   1.903   6.249 -0.5558  0.6873 -0.3660
  123OSM    H5F13082   2.527   1.929   6.179  0.6403 -0.2950  0.6129
  123OSM    H5G13083   2.475   1.921   6.354  1.1258  0.5195 -0.7978
  123OSM    C6F13084   2.315   1.979   6.200  0.3259  1.5413 -0.0753
  123OSM    H6F13085   2.286   1.950   6.097 -2.5511 -0.3246  1.1420
  123OSM    H6G13086   2.343   2.087   6.202 -1.1234  1.9282  0.6341
  123OSM    C7F13087   2.190   1.954   6.297  0.0796 -0.0080  0.0607
  123OSM    H7F13088   2.171   1.848   6.323 -1.9557  0.5278  0.9903
  123OSM    H7G13089   2.096   1.989   6.248 -0.8151 -1.5468  0.5979
  123OSM    C8F13090   2.193   2.031   6.424  0.2063 -0.6617  1.2570
  123OSM    H8F13091   2.195   2.141   6.409  2.7753 -0.9868 -1.9581
  123OSM    H8G13092   2.294   2.010   6.466  1.7904  0.8470 -1.4855
  123OSM    C9F13093   2.077   1.987   6.510  0.3620  0.4570  0.1388
  123OSM    H9F13094   1.991   1.956   6.449 -0.3208  1.3513  0.6346
  123OSM   C10F13095   2.081   1.958   6.643 -0.6641 -0.2086  0.3270
  123OSM   H10F13096   1.984   1.937   6.690 -1.0466 -1.6854 -1.0408
  123OSM   C11F13097   2.196   1.961   6.735  0.1149  0.5266 -0.5490
  123OSM   H11F13098   2.295   1.981   6.689  0.3882  2.1656  0.6555
  123OSM   H11G13099   2.193   1.868   6.796  2.7158  0.4580 -0.4335
  123OSM   C12F13100   2.168   2.074   6.843 -0.2286  0.6284  0.2676
  123OSM   H12F13101   2.070   2.050   6.891 -0.9836 -2.0392 -2.3140
  123OSM   H12G13102   2.149   2.172   6.794  4.0430 -0.1656 -3.6403
  123OSM   C13F13103   2.297   2.081   6.929  0.6013 -0.2539  0.6189
  123OSM   H13F13104   2.390   2.048   6.879  0.6105 -1.8065  1.5813
  123OSM   H13G13105   2.280   2.006   7.010 -0.1884  0.2227  0.9074
  123OSM   C14F13106   2.322   2.212   7.001 -0.9564  0.3783  0.3599
  123OSM   H14F13107   2.239   2.243   7.068  1.2149  3.4502  1.9588
  123OSM   H14G13108   2.317   2.301   6.934 -1.1451  0.2712  0.2331
  123OSM   C15F13109   2.454   2.231   7.082 -0.4297  0.1254  0.4247
  123OSM   H15F13110   2.439   2.183   7.181  1.8692  2.2121  1.9038
  123OSM   H15G13111   2.464   2.341   7.097 -0.2551  0.1544  0.1263
  123OSM   C16F13112   2.583   2.186   7.013 -0.3325  0.2065 -0.6891
  123OSM   H16F13113   2.607   2.230   6.914 -1.1676 -0.1006 -1.0338
  123OSM   H16G13114   2.563   2.077   7.003 -0.3894  0.3804 -2.9456
  123OSM   C17F13115   2.707   2.215   7.104  0.4273 -0.0379 -0.2000
  123OSM   H17F13116   2.803   2.175   7.065  0.7764 -2.1779  2.4806
  123OSM   H17G13117   2.703   2.148   7.193  0.6785 -1.2924 -1.1096
  123OSM   C18F13118   2.728   2.358   7.162  0.3494  0.1940  0.2258
  123OSM   H18F13119   2.806   2.362   7.241  0.2568  1.4123  0.2682
  123OSM   H18G13120   2.630   2.385   7.206 -0.4834 -2.6230  0.3154
  123OSM   H18H13121   2.766   2.427   7.084  1.9065 -0.4989  0.3340
  124OSM      N13122   0.905   4.067   5.214  0.7732 -0.9063  0.2560
  124OSM    C1513123   0.986   4.024   5.094 -0.0485 -0.5531  0.0071
  124OSM   H15A13124   1.054   3.942   5.112  2.5276  1.3259 -0.5521
  124OSM   H15B13125   1.042   4.109   5.058 -1.7592  1.3943  1.7258
  124OSM   H15C13126   0.921   3.989   5.016 -2.5016 -2.5784  2.7239
  124OSM    C1413127   0.822   4.188   5.175 -0.2424  0.2013  0.0986
  124OSM   H14A13128   0.879   4.280   5.177  1.6053 -0.8910 -0.1835
  124OSM   H14B13129   0.735   4.202   5.238 -0.9496 -2.2036 -0.2423
  124OSM   H14C13130   0.792   4.173   5.072 -1.7800  1.4027  0.3383
  124OSM    C1313131   0.802   3.957   5.249  0.3891  0.1319  0.3449
  124OSM   H13A13132   0.740   3.989   5.332  2.0823 -0.1125  1.7608
  124OSM   H13B13133   0.853   3.865   5.271  2.8120  0.8802 -1.6089
  124OSM   H13C13134   0.741   3.938   5.162 -0.4221 -1.5599  1.2379
  124OSM    C1213135   0.986   4.101   5.332  0.5826 -0.1432 -0.2522
  124OSM   H12A13136   1.032   4.014   5.376 -2.3234 -1.0388  1.2735
  124OSM   H12B13137   0.926   4.131   5.416  2.0847 -0.7065  1.0660
  124OSM    C1113138   1.096   4.205   5.312  0.0797  0.1204  0.1911
  124OSM   H11A13139   1.149   4.191   5.216  0.4605  1.3261  0.2179
  124OSM   H11B13140   1.163   4.195   5.400  0.7150 -2.4797 -0.4999
  124OSM      P13141   1.109   4.472   5.298 -0.1730  0.4037 -0.3121
  124OSM    O1313142   1.228   4.446   5.214  0.1752 -0.2725  0.1975
  124OSM    O1413143   1.031   4.581   5.251  0.1814 -0.1679  0.0159
  124OSM    O1113144   1.147   4.503   5.445  0.2207 -0.6318 -0.1688
  124OSM    O1213145   1.036   4.330   5.307 -0.0554 -0.5483  0.6092
  124OSM    C1S13146   1.046   4.520   5.546 -0.5781  0.6920 -0.9157
  124OSM    H1S13147   0.941   4.505   5.513 -0.2363 -1.8490 -1.0659
  124OSM    H1T13148   1.060   4.617   5.599 -1.4530 -0.1316  0.9133
  124OSM     NF13149   0.935   4.439   5.748  0.1634 -0.2730 -0.3646
  124OSM    HNF13150   0.940   4.501   5.826 -0.5231 -1.8126  0.9509
  124OSM    C2S13151   1.053   4.416   5.665 -0.6218 -0.2254 -0.0602
  124OSM    H2S13152   1.047   4.313   5.624  0.3763  0.2060 -1.3579
  124OSM    C3S13153   1.192   4.448   5.732 -0.0909  0.1557 -0.1520
  124OSM    H3S13154   1.188   4.556   5.758 -2.2407  0.5659 -1.9076
  124OSM     O313155   1.302   4.438   5.642 -0.9157 -0.1437  0.1336
  124OSM    HO313156   1.267   4.465   5.557  1.4155  2.3337 -0.1578
  124OSM    C4S13157   1.203   4.365   5.853  0.3332 -0.2433  0.1327
  124OSM    H4S13158   1.156   4.413   5.940  0.0121  0.4384 -0.4042
  124OSM    C5S13159   1.253   4.241   5.859 -0.3346 -0.4499  0.0829
  124OSM    H5S13160   1.291   4.195   5.767  0.1670 -0.0736  0.1035
  124OSM    C6S13161   1.245   4.152   5.981  0.0692 -0.9237 -0.3132
  124OSM    H6S13162   1.334   4.086   5.992 -0.2537 -1.2992  0.1361
  124OSM    H6T13163   1.156   4.087   5.971 -0.5407  0.1694 -2.6718
  124OSM    C7S13164   1.238   4.212   6.124  0.5046 -0.1771  0.4246
  124OSM    H7S13165   1.156   4.288   6.124  1.2840  0.6739  0.6156
  124OSM    H7T13166   1.332   4.264   6.150  0.3620  0.5422 -0.4570
  124OSM    C8S13167   1.204   4.105   6.228 -0.1261  0.4468 -0.3423
  124OSM    H8S13168   1.280   4.025   6.220  0.8252  1.3005 -0.0876
  124OSM    H8T13169   1.107   4.060   6.199  1.2820 -4.0003  1.0938
  124OSM    C9S13170   1.217   4.174   6.371 -0.6077 -0.1331  0.0856
  124OSM    H9S13171   1.143   4.257   6.370  0.7660  1.1408  0.7028
  124OSM    H9T13172   1.316   4.223   6.385 -0.6399 -0.2344  0.6738
  124OSM   C10S13173   1.196   4.081   6.483 -0.0588  0.4193  0.1855
  124OSM   H10S13174   1.287   4.021   6.504 -0.3347 -0.0035  0.1805
  124OSM   H10T13175   1.115   4.011   6.453  1.4178 -2.0852  1.7236
  124OSM   C11S13176   1.149   4.142   6.619 -0.0377 -0.3766 -0.4541
  124OSM   H11S13177   1.103   4.070   6.691 -1.1110 -1.1856 -1.9027
  124OSM   H11T13178   1.062   4.204   6.589 -0.3666 -0.1334  0.9113
  124OSM   C12S13179   1.260   4.214   6.695 -0.5036  0.3610  0.2202
  124OSM   H12S13180   1.312   4.289   6.632 -0.7704  0.5449  0.2162
  124OSM   H12T13181   1.337   4.137   6.717  0.0079  0.6411 -0.5461
  124OSM   C13S13182   1.220   4.274   6.833  0.8397 -0.2943  0.5305
  124OSM   H13S13183   1.146   4.357   6.822  0.5846 -0.6320 -0.4062
  124OSM   H13T13184   1.311   4.310   6.884  1.2756  1.4504 -1.3613
  124OSM   C14S13185   1.155   4.169   6.926  0.3563 -0.4614 -0.6473
  124OSM   H14S13186   1.217   4.078   6.938  1.0641  0.1571  0.5277
  124OSM   H14T13187   1.057   4.144   6.881  1.1166 -0.2232 -2.5585
  124OSM   C15S13188   1.113   4.222   7.069 -0.0644 -0.0841 -0.6195
  124OSM   H15S13189   1.066   4.146   7.135 -1.0277 -0.4196 -1.6684
  124OSM   H15T13190   1.025   4.289   7.060 -1.7023 -1.9346  0.7208
  124OSM   C16S13191   1.223   4.288   7.149 -0.3604  0.3507 -0.4651
  124OSM   H16S13192   1.258   4.371   7.084  1.0119 -0.1246 -0.3535
  124OSM   H16T13193   1.306   4.215   7.154 -0.2556  0.4489 -0.7577
  124OSM   C17S13194   1.182   4.357   7.281  0.4516  0.0707  0.3762
  124OSM   H17S13195   1.146   4.276   7.348 -0.1477 -0.7918 -0.9465
  124OSM   H17T13196   1.086   4.412   7.269 -2.1039 -3.5334  2.3772
  124OSM   C18S13197   1.293   4.440   7.349 -0.2921 -0.6190  0.9254
  124OSM   H18S13198   1.258   4.483   7.445 -0.3925  2.1003 -0.2448
  124OSM   H18T13199   1.316   4.518   7.273 -1.8668 -0.3939  0.6419
  124OSM   H18U13200   1.385   4.379   7.362 -0.2561 -0.3202  2.1482
  124OSM    C1F13201   0.815   4.395   5.710  0.5451  0.1415 -0.3042
  124OSM     OF13202   0.802   4.321   5.614 -0.0967  0.2695 -0.4069
  124OSM    C2F13203   0.703   4.436   5.800  1.0816  0.0233  0.4109
  124OSM    H2F13204   0.598   4.433   5.763  0.4099 -0.5921  2.2037
  124OSM    H2G13205   0.710   4.544   5.825 -2.0675  0.1181  1.3898
  124OSM    C3F13206   0.692   4.357   5.933 -0.0642  0.0217  0.5598
  124OSM    H3F13207   0.792   4.368   5.981  0.3488  0.9132 -0.4896
  124OSM    H3G13208   0.674   4.248   5.920  1.3439 -0.4027  1.8788
  124OSM    C4F13209   0.581   4.407   6.024  0.3065  1.2055  0.0312
  124OSM    H4F13210   0.477   4.392   5.987 -0.0756  1.7092  0.8738
  124OSM    H4G13211   0.595   4.516   6.038  1.9868  0.6526  3.7814
  124OSM    C5F13212   0.590   4.345   6.163  0.3049  0.9563  0.0440
  124OSM    H5F13213   0.604   4.236   6.145  2.0839  0.7620  2.1817
  124OSM    H5G13214   0.499   4.360   6.225 -0.2242 -0.1947 -0.4336
  124OSM    C6F13215   0.703   4.389   6.247 -0.7113  0.2939 -0.4202
  124OSM    H6F13216   0.795   4.399   6.185  0.5574 -0.0428  1.3275
  124OSM    H6G13217   0.728   4.313   6.324 -0.0643  1.9558  1.0758
  124OSM    C7F13218   0.690   4.530   6.320  0.3320  0.2094  0.1587
  124OSM    H7F13219   0.662   4.608   6.246  1.8633  0.1578 -0.5096
  124OSM    H7G13220   0.787   4.563   6.363 -0.0996  0.3897  1.0139
  124OSM    C8F13221   0.595   4.538   6.444  0.8122 -0.0129 -0.5310
  124OSM    H8F13222   0.499   4.510   6.396  0.7392 -0.2022 -0.2762
  124OSM    H8G13223   0.592   4.644   6.479  1.8762 -0.4397  0.9162
  124OSM    C9F13224   0.643   4.449   6.553  0.2758 -0.0991  0.6814
  124OSM    H9F13225   0.652   4.341   6.532  0.6687 -0.1942  1.3015
  124OSM   C10F13226   0.680   4.487   6.677  0.2039  0.1655  0.5993
  124OSM   H10F13227   0.722   4.410   6.743  0.0281  0.5395  1.1491
  124OSM   C11F13228   0.685   4.631   6.720 -0.1376 -0.2091  0.1029
  124OSM   H11F13229   0.701   4.709   6.642 -0.2404  1.7590  1.9525
  124OSM   H11G13230   0.769   4.650   6.789 -0.7226 -0.4861  0.9031
  124OSM   C12F13231   0.554   4.665   6.792 -0.2995  0.0328 -0.1922
  124OSM   H12F13232   0.467   4.637   6.727  0.3946 -0.8014 -0.7888
  124OSM   H12G13233   0.545   4.775   6.793 -2.4188 -0.0736 -1.2251
  124OSM   C13F13234   0.548   4.623   6.939  0.2595  0.5046 -0.0211
  124OSM   H13F13235   0.549   4.513   6.955  0.5668  0.1840 -2.0918
  124OSM   H13G13236   0.446   4.649   6.978  0.0905  0.2310 -0.2818
  124OSM   C14F13237   0.655   4.697   7.026 -0.1980  0.4971 -0.2366
  124OSM   H14F13238   0.636   4.803   6.999 -1.2700  0.0638 -1.2880
  124OSM   H14G13239   0.752   4.651   6.996  0.9755  2.1444  0.8288
  124OSM   C15F13240   0.623   4.686   7.175  0.0063 -0.5378  0.2446
  124OSM   H15F13241   0.718   4.677   7.230  0.5227  0.9541 -0.3597
  124OSM   H15G13242   0.567   4.591   7.191  1.8572 -1.4509  1.6477
  124OSM   C16F13243   0.539   4.799   7.234 -0.3275 -0.1400 -0.1216
  124OSM   H16F13244   0.454   4.819   7.166 -2.0897 -1.8642  1.4451
  124OSM   H16G13245   0.600   4.889   7.255 -0.8928 -0.0399  1.2345
  124OSM   C17F13246   0.482   4.768   7.376 -0.0950 -0.7746 -0.0731
  124OSM   H17F13247   0.562   4.767   7.452 -0.8143 -2.1412  0.7093
  124OSM   H17G13248   0.442   4.664   7.381  0.5400 -1.0120  0.1288
  124OSM   C18F13249   0.371   4.861   7.419 -0.2413 -0.4903 -0.8629
  124OSM   H18F13250   0.269   4.851   7.377 -0.8441  1.7090 -0.0380
  124OSM   H18G13251   0.408   4.959   7.384 -0.3326 -0.4479 -0.8412
  124OSM   H18H13252   0.357   4.861   7.530 -1.2864  1.2711 -0.9630
  125OSM      N13253   6.183   1.554   5.649  0.7379 -0.5034  0.8022
  125OSM    C1513254   6.296   1.586   5.744 -0.0298  0.2360  0.8205
  125OSM   H15A13255   6.285   1.514   5.823 -2.3130 -0.9549 -0.4785
  125OSM   H15B13256   6.281   1.687   5.780 -0.5346  0.3267  0.3690
  125OSM   H15C13257   6.392   1.581   5.695 -0.8136  0.1633 -0.7722
  125OSM    C1413258   6.164   1.666   5.554 -0.4118  0.4952  0.4719
  125OSM   H14A13259   6.249   1.687   5.491  0.2394  2.0603  1.7830
  125OSM   H14B13260   6.154   1.763   5.600  0.2885  0.8899 -0.2005
  125OSM   H14C13261   6.070   1.652   5.503 -0.1115  1.8057 -0.4837
  125OSM    C1313262   6.222   1.429   5.588  0.5265  0.2391 -0.0270
  125OSM   H13A13263   6.318   1.423   5.539 -1.1900 -5.1839 -3.5933
  125OSM   H13B13264   6.151   1.411   5.509 -0.9797 -0.6579  1.4955
  125OSM   H13C13265   6.217   1.343   5.652  2.1516  0.9623  1.1436
  125OSM    C1213266   6.056   1.519   5.736 -0.5098  0.3744 -0.0052
  125OSM   H12A13267   6.044   1.595   5.811 -0.2829 -0.7762  1.2419
  125OSM   H12B13268   6.076   1.429   5.793 -2.1080  0.5795  0.9607
  125OSM    C1113269   5.921   1.474   5.665  0.1054 -0.6892  0.2290
  125OSM   H11A13270   5.851   1.468   5.750 -1.1256  2.6692 -0.3757
  125OSM   H11B13271   5.922   1.376   5.612 -1.9129 -1.0554  0.8064
  125OSM      P13272   5.804   1.703   5.606  0.0153 -0.0174  0.0800
  125OSM    O1313273   5.876   1.807   5.526 -0.1121 -0.0460 -0.2136
  125OSM    O1413274   5.659   1.678   5.579 -0.0707  0.3193 -0.1596
  125OSM    O1113275   5.833   1.711   5.764 -0.5019 -0.4437  0.0112
  125OSM    O1213276   5.880   1.572   5.570 -0.0847  0.1687 -0.2446
  125OSM    C1S13277   5.757   1.812   5.837 -0.3297 -0.1378  0.5393
  125OSM    H1S13278   5.677   1.857   5.775 -0.7084 -0.1659  1.0008
  125OSM    H1T13279   5.823   1.899   5.854  0.1794 -0.6189  1.1120
  125OSM     NF13280   5.630   1.861   6.039  0.3516  0.4854 -0.5125
  125OSM    HNF13281   5.660   1.945   6.084 -0.2145  0.0434  0.7159
  125OSM    C2S13282   5.718   1.760   5.977  0.1822  0.2671  0.2173
  125OSM    H2S13283   5.665   1.664   5.962  2.6233 -1.0715 -0.5022
  125OSM    C3S13284   5.852   1.728   6.060 -0.4491  0.6841 -0.0877
  125OSM    H3S13285   5.905   1.824   6.074  0.3835  0.4054 -1.2236
  125OSM     O313286   5.939   1.628   5.995 -0.1181  0.3111  0.2665
  125OSM    HO313287   5.903   1.625   5.906 -0.6281 -1.1728  0.4838
  125OSM    C4S13288   5.802   1.678   6.192 -0.0442  0.2511 -0.3627
  125OSM    H4S13289   5.758   1.577   6.193 -1.3239  0.7649 -1.6380
  125OSM    C5S13290   5.826   1.743   6.308  0.1890  0.0535 -0.0897
  125OSM    H5S13291   5.874   1.841   6.300 -3.2233  1.7669 -1.0968
  125OSM    C6S13292   5.800   1.697   6.448 -0.9740 -0.7095 -1.0304
  125OSM    H6S13293   5.900   1.700   6.496 -0.6310 -1.9749 -1.5980
  125OSM    H6T13294   5.774   1.589   6.437  1.4947 -1.4526 -0.1965
  125OSM    C7S13295   5.693   1.778   6.521  0.8489 -0.2652  0.4830
  125OSM    H7S13296   5.595   1.769   6.470 -0.1743  1.8200  1.9877
  125OSM    H7T13297   5.718   1.885   6.532 -0.3144 -0.1604  2.4077
  125OSM    C8S13298   5.673   1.740   6.666  0.0295  0.5765 -0.4292
  125OSM    H8S13299   5.648   1.632   6.675 -0.3543  0.7850  1.2418
  125OSM    H8T13300   5.587   1.790   6.714  0.7443  1.1620  0.2679
  125OSM    C9S13301   5.795   1.767   6.759  0.6568 -0.0121  0.0221
  125OSM    H9S13302   5.785   1.872   6.792 -0.0968  0.1624 -0.7203
  125OSM    H9T13303   5.889   1.751   6.701  0.7907 -0.6704  0.4127
  125OSM   C10S13304   5.801   1.675   6.879  0.1651  0.0659 -0.4707
  125OSM   H10S13305   5.908   1.676   6.906  0.7899 -0.0945 -2.7031
  125OSM   H10T13306   5.776   1.571   6.849  0.6978 -0.8861  2.1140
  125OSM   C11S13307   5.707   1.719   6.992 -0.9834  0.3468  0.4191
  125OSM   H11S13308   5.603   1.702   6.958 -1.5158  1.9011  1.1733
  125OSM   H11T13309   5.732   1.823   7.021  0.3626  0.6109 -1.5255
  125OSM   C12S13310   5.731   1.632   7.122 -0.4681 -0.1428  0.3925
  125OSM   H12S13311   5.836   1.661   7.146 -0.6051  1.5953 -0.8832
  125OSM   H12T13312   5.720   1.523   7.105  2.1106 -0.4133  0.0415
  125OSM   C13S13313   5.650   1.671   7.248 -0.0991  0.1238  0.4655
  125OSM   H13S13314   5.544   1.646   7.225  0.7223 -2.1093 -1.2635
  125OSM   H13T13315   5.653   1.778   7.278  1.4159  0.5643 -1.1364
  125OSM   C14S13316   5.674   1.579   7.373 -0.0336 -0.9656 -0.4600
  125OSM   H14S13317   5.779   1.585   7.411 -0.5587  0.8731  0.8620
  125OSM   H14T13318   5.658   1.473   7.343  2.4876 -2.0482  1.5758
  125OSM   C15S13319   5.564   1.601   7.481 -0.1843 -0.6409 -0.1359
  125OSM   H15S13320   5.462   1.595   7.435 -0.1347  1.0010 -0.5379
  125OSM   H15T13321   5.579   1.709   7.501 -3.9118  0.2596 -1.2377
  125OSM   C16S13322   5.581   1.503   7.599 -0.1823  0.8461  0.1909
  125OSM   H16S13323   5.620   1.407   7.560 -0.8875  0.0436  1.3891
  125OSM   H16T13324   5.475   1.491   7.631 -1.1519 -0.5148 -3.1779
  125OSM   C17S13325   5.682   1.544   7.705 -0.0239  0.7793 -0.5337
  125OSM   H17S13326   5.778   1.557   7.652  1.1118 -3.9264 -0.0922
  125OSM   H17T13327   5.697   1.452   7.766 -2.6059 -0.8000 -2.0684
  125OSM   C18S13328   5.651   1.669   7.787 -0.0798  0.4214 -0.1406
  125OSM   H18S13329   5.665   1.760   7.725 -1.2716  1.4005  0.9769
  125OSM   H18T13330   5.698   1.672   7.888  1.4522  0.7750 -0.8404
  125OSM   H18U13331   5.541   1.671   7.805 -0.1112  0.2324 -0.3047
  125OSM    C1F13332   5.501   1.849   6.008  0.1999 -0.4205  0.0602
  125OSM     OF13333   5.457   1.758   5.937  0.1329  0.2873 -0.1939
  125OSM    C2F13334   5.415   1.961   6.064  0.3732 -0.1516  0.7574
  125OSM    H2F13335   5.374   2.016   5.976  0.8678 -1.9580 -0.6746
  125OSM    H2G13336   5.474   2.025   6.132 -0.0002 -0.9286  1.8413
  125OSM    C3F13337   5.298   1.907   6.142  0.2360  0.2838 -0.3907
  125OSM    H3F13338   5.244   1.824   6.092 -1.3180  0.9535  0.1187
  125OSM    H3G13339   5.225   1.988   6.164  0.8111  0.5345  0.6810
  125OSM    C4F13340   5.339   1.842   6.278  0.2074 -0.3089  0.2408
  125OSM    H4F13341   5.379   1.930   6.333 -2.0539  1.3031 -0.5762
  125OSM    H4G13342   5.413   1.760   6.265 -0.4364 -0.8829  0.1325
  125OSM    C5F13343   5.212   1.797   6.358 -0.3586 -0.6147 -0.1897
  125OSM    H5F13344   5.163   1.709   6.309 -1.0291 -0.7041  0.6199
  125OSM    H5G13345   5.144   1.883   6.341  1.6794  1.5912  2.0603
  125OSM    C6F13346   5.243   1.790   6.507  0.1239  0.4223 -0.5687
  125OSM    H6F13347   5.304   1.879   6.535 -1.5887  1.5451 -0.2417
  125OSM    H6G13348   5.322   1.711   6.517 -0.7056 -0.1697  2.5493
  125OSM    C7F13349   5.125   1.760   6.591  0.1844 -0.7548 -1.4417
  125OSM    H7F13350   5.057   1.690   6.538  0.1450 -2.0037  0.1769
  125OSM    H7G13351   5.057   1.843   6.620  0.4218 -1.8901  3.2510
  125OSM    C8F13352   5.171   1.703   6.723 -0.5838 -0.4026 -0.4777
  125OSM    H8F13353   5.081   1.709   6.787  0.3889 -0.0752  0.9118
  125OSM    H8G13354   5.245   1.771   6.771 -0.2691 -1.8594  1.1625
  125OSM    C9F13355   5.211   1.557   6.732  0.6311  0.2197  0.2411
  125OSM    H9F13356   5.235   1.515   6.633  0.3338  0.3419  0.1173
  125OSM   C10F13357   5.246   1.500   6.852  0.5554  0.2726  0.2277
  125OSM   H10F13358   5.277   1.396   6.869  0.2138 -0.3033 -2.2706
  125OSM   C11F13359   5.232   1.574   6.984  0.5781 -0.5109  0.0198
  125OSM   H11F13360   5.127   1.610   6.985  0.5304 -0.5816 -1.0077
  125OSM   H11G13361   5.311   1.651   6.993  2.3397 -2.1933 -0.3467
  125OSM   C12F13362   5.219   1.484   7.109  0.3984 -0.0599  0.5119
  125OSM   H12F13363   5.303   1.414   7.127 -0.1180 -0.4668  1.3791
  125OSM   H12G13364   5.130   1.418   7.105  1.6120 -1.8076  1.0299
  125OSM   C13F13365   5.196   1.571   7.233  0.3210  0.4729  0.7162
  125OSM   H13F13366   5.100   1.623   7.215 -0.5083 -1.1720  0.1923
  125OSM   H13G13367   5.287   1.633   7.242  0.9769 -0.3744  0.1078
  125OSM   C14F13368   5.179   1.497   7.367 -0.0771 -0.1188 -0.3795
  125OSM   H14F13369   5.071   1.470   7.364 -0.5388  1.2599  1.6347
  125OSM   H14G13370   5.192   1.565   7.454  0.6586 -0.8485  0.0994
  125OSM   C15F13371   5.274   1.372   7.384  0.6735  0.0076  0.2089
  125OSM   H15F13372   5.379   1.408   7.384  0.0268  2.0451  0.6146
  125OSM   H15G13373   5.275   1.303   7.298  3.7661  0.8778 -0.5803
  125OSM   C16F13374   5.240   1.302   7.518  0.0231 -0.4017  0.5761
  125OSM   H16F13375   5.134   1.267   7.522 -0.6605  1.5990  0.8792
  125OSM   H16G13376   5.259   1.373   7.601  0.0763  0.8883 -0.5163
  125OSM   C17F13377   5.343   1.198   7.558  0.9883 -0.2022  0.0601
  125OSM   H17F13378   5.445   1.241   7.555  1.0242 -0.3200 -1.1412
  125OSM   H17G13379   5.338   1.111   7.488 -0.2149 -1.7734  2.0075
  125OSM   C18F13380   5.313   1.146   7.701  0.2825 -0.7642  0.3575
  125OSM   H18F13381   5.409   1.151   7.757 -0.0862  4.1387  0.9119
  125OSM   H18G13382   5.273   1.042   7.696  0.2860 -0.7547 -4.5461
  125OSM   H18H13383   5.247   1.214   7.758 -1.2147 -1.1295 -0.8596
  126OSM      N13384   3.841   0.552   5.130 -0.0295 -0.2558 -0.3994
  126OSM    C1513385   3.937   0.490   5.038  0.1796 -0.6047  0.1868
  126OSM   H15A13386   3.927   0.524   4.936 -0.7760 -0.5903  0.2724
  126OSM   H15B13387   3.924   0.383   5.041  1.4873 -0.7681  1.0870
  126OSM   H15C13388   4.038   0.508   5.073  0.3318  0.5051 -0.7386
  126OSM    C1413389   3.876   0.695   5.147 -0.3052 -1.0001 -0.3138
  126OSM   H14A13390   3.981   0.708   5.169  0.3994 -0.9009 -3.2624
  126OSM   H14B13391   3.823   0.736   5.231  2.6397 -0.6299  1.4965
  126OSM   H14C13392   3.850   0.750   5.057  0.4202 -0.8538 -0.4365
  126OSM    C1313393   3.705   0.544   5.060 -0.2212 -0.1530 -0.1027
  126OSM   H13A13394   3.690   0.444   5.023  0.5575 -0.1298 -0.5143
  126OSM   H13B13395   3.689   0.602   4.970 -2.1019 -1.4941 -0.6872
  126OSM   H13C13396   3.627   0.571   5.130  0.7921  1.0861  0.6054
  126OSM    C1213397   3.842   0.483   5.260  0.1382 -0.4103 -0.4692
  126OSM   H12A13398   3.946   0.486   5.290 -0.1329  2.0451  0.4194
  126OSM   H12B13399   3.821   0.380   5.236 -0.9046 -0.4170  0.3877
  126OSM    C1113400   3.761   0.527   5.388 -0.6930  0.3883  0.1086
  126OSM   H11A13401   3.808   0.463   5.466 -1.5214  2.0877  2.1151
  126OSM   H11B13402   3.654   0.501   5.369 -0.4252 -0.3318 -0.4331
  126OSM      P13403   3.901   0.721   5.502  0.2905  0.1496  0.4891
  126OSM    O1313404   4.020   0.631   5.483  0.1430  0.0172  0.8663
  126OSM    O1413405   3.917   0.862   5.458 -0.0006 -0.5722 -0.0784
  126OSM    O1113406   3.862   0.711   5.653  0.0616  0.3381  0.4456
  126OSM    O1213407   3.780   0.663   5.427 -0.0988 -0.2837 -0.4013
  126OSM    C1S13408   3.756   0.793   5.692  0.5263 -0.8829  0.5777
  126OSM    H1S13409   3.665   0.782   5.628 -0.0241  0.6109  1.0723
  126OSM    H1T13410   3.772   0.902   5.683 -0.5146 -0.7040  0.7695
  126OSM     NF13411   3.598   0.851   5.865 -0.5867  0.1753 -0.0438
  126OSM    HNF13412   3.592   0.945   5.897 -3.2225  0.1239 -0.1237
  126OSM    C2S13413   3.724   0.785   5.846 -0.6342 -0.3430  1.0102
  126OSM    H2S13414   3.713   0.680   5.883 -2.1692  0.1719  2.1070
  126OSM    C3S13415   3.835   0.846   5.933  0.1199  0.5731 -0.0715
  126OSM    H3S13416   3.841   0.951   5.896  1.2305  0.3112 -0.6906
  126OSM     O313417   3.965   0.788   5.908  0.0094 -0.3527  0.0726
  126OSM    HO313418   3.954   0.748   5.821  0.6335 -0.3709 -0.0012
  126OSM    C4S13419   3.808   0.842   6.084  0.4041 -0.3936 -0.7877
  126OSM    H4S13420   3.790   0.739   6.119  0.4691 -1.2787 -3.1338
  126OSM    C5S13421   3.807   0.949   6.168  0.6503  0.1950 -1.2120
  126OSM    H5S13422   3.828   1.052   6.137  4.0299  0.4189  1.2606
  126OSM    C6S13423   3.765   0.920   6.315  0.1988 -0.0358  0.1711
  126OSM    H6S13424   3.783   1.011   6.375  1.5950  0.6809 -1.2642
  126OSM    H6T13425   3.830   0.838   6.351  1.1667 -0.4252 -2.2812
  126OSM    C7S13426   3.612   0.891   6.318  0.0893  0.3893 -0.1766
  126OSM    H7S13427   3.599   0.797   6.260  0.5336  0.2455 -0.0505
  126OSM    H7T13428   3.554   0.978   6.281 -1.9818 -0.5021  0.8313
  126OSM    C8S13429   3.552   0.857   6.453  0.0373 -0.3435 -0.5442
  126OSM    H8S13430   3.561   0.948   6.516 -0.1209 -0.6055 -0.1421
  126OSM    H8T13431   3.617   0.781   6.500  2.4500 -0.2617 -3.4317
  126OSM    C9S13432   3.412   0.806   6.458  0.4062 -0.5164 -0.1332
  126OSM    H9S13433   3.375   0.776   6.558 -0.9278  1.2915 -0.0483
  126OSM    H9T13434   3.389   0.711   6.405 -1.2528 -0.0659 -0.2763
  126OSM   C10S13435   3.296   0.909   6.415  0.0589  1.1834 -0.3179
  126OSM   H10S13436   3.197   0.872   6.449 -0.6806  2.7797 -0.6006
  126OSM   H10T13437   3.308   0.902   6.305  1.2824  2.6449 -0.3149
  126OSM   C11S13438   3.299   1.059   6.462 -0.1181 -0.8276  0.4462
  126OSM   H11S13439   3.211   1.121   6.434  1.2871  0.8658 -0.4070
  126OSM   H11T13440   3.392   1.109   6.428  0.3923  0.5264  3.4751
  126OSM   C12S13441   3.318   1.062   6.617 -0.1596  0.5868  0.4587
  126OSM   H12S13442   3.344   1.162   6.658  1.0857  0.6552 -0.4316
  126OSM   H12T13443   3.409   1.001   6.637 -0.0876 -0.1139 -1.7218
  126OSM   C13S13444   3.188   1.017   6.688  0.0381  0.1373 -0.3725
  126OSM   H13S13445   3.184   0.908   6.667 -0.1258  0.1689 -0.5138
  126OSM   H13T13446   3.102   1.071   6.643 -0.1118 -1.0915 -1.6618
  126OSM   C14S13447   3.178   1.023   6.839 -0.1458 -0.0030  0.4817
  126OSM   H14S13448   3.130   1.120   6.864 -2.5749 -0.9615 -0.2133
  126OSM   H14T13449   3.283   1.024   6.877 -0.1683 -0.2087  0.5531
  126OSM   C15S13450   3.086   0.913   6.904  0.2085 -0.4804 -0.5443
  126OSM   H15S13451   3.121   0.813   6.871  0.4915 -0.1545 -1.2639
  126OSM   H15T13452   2.984   0.933   6.865 -0.7311 -1.0620  1.5066
  126OSM   C16S13453   3.061   0.924   7.055 -0.2527  0.0801 -0.1162
  126OSM   H16S13454   3.043   1.031   7.077  1.3603  0.7209 -1.6979
  126OSM   H16T13455   3.152   0.880   7.100 -0.0665 -1.6858 -2.0436
  126OSM   C17S13456   2.937   0.842   7.099 -0.4447 -0.2076 -0.5378
  126OSM   H17S13457   2.852   0.890   7.046  0.8006  2.5288 -0.2538
  126OSM   H17T13458   2.926   0.846   7.210  0.5878  0.2784 -0.4348
  126OSM   C18S13459   2.926   0.691   7.071 -0.1818 -0.4580  0.5249
  126OSM   H18S13460   2.993   0.627   7.131  1.6907  1.6860  0.8411
  126OSM   H18T13461   2.947   0.678   6.963  0.0782  0.9353  0.3802
  126OSM   H18U13462   2.818   0.668   7.084 -0.5655  0.9852  0.1713
  126OSM    C1F13463   3.486   0.796   5.831  0.3128 -0.3569  0.7468
  126OSM     OF13464   3.491   0.686   5.771  0.4727 -0.1507 -0.4510
  126OSM    C2F13465   3.357   0.881   5.857 -0.9561  0.0488 -0.5145
  126OSM    H2F13466   3.337   0.937   5.763 -0.8370  0.0661 -0.5297
  126OSM    H2G13467   3.387   0.950   5.939 -2.2076  0.9896 -0.8258
  126OSM    C3F13468   3.228   0.803   5.895 -0.3851 -0.4387  0.6828
  126OSM    H3F13469   3.200   0.732   5.815 -0.6760  3.1474 -2.7272
  126OSM    H3G13470   3.143   0.874   5.911 -1.6308 -1.2616 -1.8831
  126OSM    C4F13471   3.243   0.737   6.033  0.4532  0.1035  0.5460
  126OSM    H4F13472   3.298   0.817   6.088  1.6098 -1.1470  1.2923
  126OSM    H4G13473   3.312   0.650   6.022  0.5079  0.2419 -0.2379
  126OSM    C5F13474   3.109   0.688   6.089 -0.7848  1.0077 -0.4104
  126OSM    H5F13475   3.078   0.597   6.034 -0.7019 -0.1936  1.4271
  126OSM    H5G13476   3.033   0.769   6.085  0.2215  1.9775 -0.1939
  126OSM    C6F13477   3.114   0.648   6.240 -0.1453  0.3513  0.0298
  126OSM    H6F13478   3.009   0.622   6.263 -1.3297  2.1817 -2.7365
  126OSM    H6G13479   3.136   0.741   6.297 -3.5198  0.9453  0.5712
  126OSM    C7F13480   3.194   0.522   6.264 -0.2853  0.0597 -0.5637
  126OSM    H7F13481   3.300   0.551   6.245 -0.4467  0.3114 -1.1097
  126OSM    H7G13482   3.159   0.449   6.187 -0.4033 -2.7020  1.9434
  126OSM    C8F13483   3.191   0.484   6.414 -0.0237 -0.0978  1.4212
  126OSM    H8F13484   3.086   0.457   6.439 -1.9319  0.4987 -4.3597
  126OSM    H8G13485   3.197   0.574   6.478 -1.7267  1.6414 -0.6995
  126OSM    C9F13486   3.282   0.375   6.463  0.0073  0.4073  0.1561
  126OSM    H9F13487   3.295   0.295   6.389 -2.6708 -0.5322  0.6120
  126OSM   C10F13488   3.331   0.364   6.584  0.0825 -0.4798 -0.8467
  126OSM   H10F13489   3.392   0.277   6.616  0.9878  0.0475 -1.1081
  126OSM   C11F13490   3.299   0.453   6.700  0.1141  0.7151  0.1618
  126OSM   H11F13491   3.249   0.390   6.777 -1.8685  1.4061 -0.4872
  126OSM   H11G13492   3.223   0.526   6.666 -2.1236 -1.0154  1.1076
  126OSM   C12F13493   3.412   0.525   6.760 -0.3462  0.0199 -0.1912
  126OSM   H12F13494   3.467   0.585   6.684 -2.6766  2.1520 -0.3051
  126OSM   H12G13495   3.483   0.455   6.810  1.9317  1.4828 -1.2179
  126OSM   C13F13496   3.373   0.639   6.862  0.1568 -0.2901 -0.7359
  126OSM   H13F13497   3.302   0.594   6.934  1.2775 -4.0034 -1.7463
  126OSM   H13G13498   3.322   0.718   6.803 -0.9623 -0.4872 -0.0555
  126OSM   C14F13499   3.496   0.695   6.930 -0.6364  0.3673 -0.2744
  126OSM   H14F13500   3.557   0.751   6.857  1.4735  0.4557  1.4607
  126OSM   H14G13501   3.540   0.605   6.977 -1.1712 -0.2821 -1.0022
  126OSM   C15F13502   3.465   0.790   7.045 -0.4235  0.6858  0.0531
  126OSM   H15F13503   3.407   0.872   6.997 -0.9567 -0.3419 -1.1209
  126OSM   H15G13504   3.562   0.838   7.073  0.0544  0.9738 -1.9471
  126OSM   C16F13505   3.400   0.715   7.161  0.0172 -0.3780  0.2119
  126OSM   H16F13506   3.459   0.624   7.186 -0.0660 -0.3477  0.5222
  126OSM   H16G13507   3.296   0.696   7.127  0.1423  0.1273 -0.4682
  126OSM   C17F13508   3.370   0.811   7.285  0.0825  0.1687 -0.0961
  126OSM   H17F13509   3.289   0.761   7.343 -0.8046  1.8704  0.2082
  126OSM   H17G13510   3.330   0.910   7.254 -3.0735 -1.1410 -0.5807
  126OSM   C18F13511   3.492   0.830   7.379 -0.4018  0.0895 -0.1711
  126OSM   H18F13512   3.461   0.893   7.465  0.5355 -1.8640  1.7047
  126OSM   H18G13513   3.583   0.855   7.321 -0.3999 -2.1314 -1.2699
  126OSM   H18H13514   3.512   0.731   7.426 -1.1712 -0.4073 -0.8484
  127OSM      N13515   1.460   1.041   5.325 -0.4439  0.1630  0.2965
  127OSM    C1513516   1.422   1.164   5.399 -0.0726  0.2723 -0.9724
  127OSM   H15A13517   1.331   1.155   5.457  0.8218  2.8282  1.0458
  127OSM   H15B13518   1.420   1.252   5.336  0.7910  2.8909  2.3621
  127OSM   H15C13519   1.493   1.181   5.479 -1.3396  0.6403  0.1061
  127OSM    C1413520   1.349   1.007   5.224 -0.2144 -1.0249 -0.2934
  127OSM   H14A13521   1.381   0.923   5.164 -0.6851 -2.6359  1.6140
  127OSM   H14B13522   1.328   1.099   5.171  1.6125 -0.4191 -0.0166
  127OSM   H14C13523   1.257   0.983   5.275  0.4114 -0.9220  0.8990
  127OSM    C1313524   1.580   1.079   5.247  0.8151 -0.3525 -0.0461
  127OSM   H13A13525   1.620   0.989   5.204 -1.9511 -0.0544 -3.7036
  127OSM   H13B13526   1.645   1.137   5.311 -1.2223  0.6873  1.1995
  127OSM   H13C13527   1.552   1.135   5.159  2.3905 -0.4542 -0.6569
  127OSM    C1213528   1.477   0.931   5.420  0.1129  0.0134  0.2306
  127OSM   H12A13529   1.517   0.852   5.359  0.2068  0.5180 -0.3644
  127OSM   H12B13530   1.380   0.901   5.459 -0.8061 -0.1764 -2.0374
  127OSM    C1113531   1.564   0.956   5.544 -0.8084  0.1773 -0.0402
  127OSM   H11A13532   1.572   0.867   5.610  0.5816 -0.1317 -0.5989
  127OSM   H11B13533   1.515   1.028   5.613  1.2718  0.5658  1.1108
  127OSM      P13534   1.822   0.920   5.501  0.3034 -0.3456  0.2588
  127OSM    O1313535   1.815   0.797   5.414 -0.6367 -0.8613 -0.6740
  127OSM    O1413536   1.926   1.018   5.469  0.0642 -0.2112 -0.2030
  127OSM    O1113537   1.838   0.888   5.658  0.0926 -0.5937 -0.1407
  127OSM    O1213538   1.689   1.009   5.511 -0.1408 -0.0137 -0.2393
  127OSM    C1S13539   1.894   0.987   5.745 -0.4854 -0.1440  0.6254
  127OSM    H1S13540   1.858   1.089   5.716  0.0241 -0.5052 -1.4436
  127OSM    H1T13541   2.004   0.991   5.737 -0.5512  1.7324  0.1162
  127OSM     NF13542   1.875   1.094   5.978  0.2832 -0.0979  0.9738
  127OSM    HNF13543   1.943   1.095   6.051  0.9376  1.9273  0.4067
  127OSM    C2S13544   1.857   0.983   5.896  0.4176  0.3494 -0.7461
  127OSM    H2S13545   1.748   0.961   5.899  0.3071  0.9874  0.4825
  127OSM    C3S13546   1.915   0.851   5.958 -0.1575  0.3677 -0.0203
  127OSM    H3S13547   2.021   0.876   5.980 -0.2418  0.1478  0.6460
  127OSM     O313548   1.890   0.732   5.876 -0.2990 -0.2728 -0.8064
  127OSM    HO313549   1.865   0.783   5.798 -2.3514 -1.2395 -0.8426
  127OSM    C4S13550   1.863   0.808   6.088  0.5916 -0.3086 -0.1524
  127OSM    H4S13551   1.757   0.783   6.075  0.2652  0.9133  0.0175
  127OSM    C5S13552   1.938   0.802   6.197  0.0748  0.3603  0.1461
  127OSM    H5S13553   2.043   0.834   6.200  0.5334 -1.0783  0.3171
  127OSM    C6S13554   1.895   0.763   6.330  0.0779 -0.1850 -0.1826
  127OSM    H6S13555   1.967   0.691   6.375  0.8684  0.3938 -0.4840
  127OSM    H6T13556   1.796   0.713   6.325 -1.1072  2.0695 -0.4804
  127OSM    C7S13557   1.891   0.885   6.421 -0.1852  0.2800 -0.0049
  127OSM    H7S13558   1.801   0.944   6.395 -0.5647 -0.6117 -0.7653
  127OSM    H7T13559   1.978   0.949   6.395  0.0491  0.1172  0.3629
  127OSM    C8S13560   1.887   0.850   6.568 -0.0261  1.0250  0.3961
  127OSM    H8S13561   1.961   0.768   6.580  0.2665  1.1343 -0.6154
  127OSM    H8T13562   1.783   0.815   6.587 -0.5880  0.4546 -3.1213
  127OSM    C9S13563   1.924   0.958   6.664 -1.0467 -0.5499 -0.0179
  127OSM    H9S13564   1.861   1.046   6.641  0.0930  0.0440 -0.9765
  127OSM    H9T13565   2.032   0.983   6.656 -0.6913 -1.9899 -0.0143
  127OSM   C10S13566   1.901   0.920   6.811  0.3879 -0.7771  0.1382
  127OSM   H10S13567   1.969   0.837   6.840 -0.8133 -1.8948 -0.1155
  127OSM   H10T13568   1.796   0.882   6.818 -0.8132  2.3104  0.5361
  127OSM   C11S13569   1.913   1.048   6.896  0.4366 -0.0633 -0.3348
  127OSM   H11S13570   1.872   1.039   6.999 -0.2878  2.2686 -0.3622
  127OSM   H11T13571   1.848   1.131   6.862 -2.5114 -2.0643  0.0023
  127OSM   C12S13572   2.057   1.081   6.908  0.1840 -0.0366 -0.0171
  127OSM   H12S13573   2.105   1.117   6.814  1.5630 -1.9166 -0.0897
  127OSM   H12T13574   2.125   0.995   6.924  0.1409 -0.0372  0.1639
  127OSM   C13S13575   2.071   1.171   7.038  0.1284 -0.6509  0.2617
  127OSM   H13S13576   1.982   1.238   7.034  1.1340  0.7055 -0.2072
  127OSM   H13T13577   2.161   1.235   7.032  1.1788 -1.8819  1.9892
  127OSM   C14S13578   2.075   1.092   7.167  0.1942  0.5024  0.1096
  127OSM   H14S13579   2.177   1.048   7.176 -0.1638 -0.4198 -0.1863
  127OSM   H14T13580   2.006   1.005   7.166 -0.7060  1.2082 -0.1074
  127OSM   C15S13581   2.037   1.173   7.296  0.0527  0.0642 -0.2204
  127OSM   H15S13582   1.955   1.114   7.340  0.7361 -1.3595 -0.7835
  127OSM   H15T13583   1.994   1.271   7.266 -0.5269 -0.4558 -1.1494
  127OSM   C16S13584   2.145   1.197   7.410 -0.2686 -0.3374  0.2067
  127OSM   H16S13585   2.201   1.107   7.442  0.5883  0.3559  0.6823
  127OSM   H16T13586   2.099   1.254   7.494  0.4928 -0.6273  0.8314
  127OSM   C17S13587   2.247   1.301   7.365 -0.4929 -0.0288  0.0891
  127OSM   H17S13588   2.184   1.388   7.336  0.9428  1.8329  2.2123
  127OSM   H17T13589   2.297   1.253   7.277 -0.1684  0.8228 -0.2053
  127OSM   C18S13590   2.352   1.346   7.471 -0.5080 -0.7096  0.4220
  127OSM   H18S13591   2.289   1.395   7.548  1.3374  1.7018  0.5545
  127OSM   H18T13592   2.423   1.416   7.422  1.3925 -2.2799  0.8123
  127OSM   H18U13593   2.406   1.264   7.523  0.5619  0.8024  1.8260
  127OSM    C1F13594   1.806   1.206   5.956  0.5936  0.7468  0.3590
  127OSM     OF13595   1.708   1.210   5.880  0.0477  0.8010 -0.2015
  127OSM    C2F13596   1.843   1.323   6.038 -0.3625  0.5791  0.7725
  127OSM    H2F13597   1.951   1.344   6.019 -0.3383 -1.4743 -1.9253
  127OSM    H2G13598   1.829   1.295   6.144 -0.6395  0.8695  0.8131
  127OSM    C3F13599   1.766   1.458   6.016  0.2005 -0.6799  0.0641
  127OSM    H3F13600   1.658   1.434   6.006  0.5565 -2.1789 -0.4398
  127OSM    H3G13601   1.796   1.513   5.924 -2.1925  0.4927 -0.1011
  127OSM    C4F13602   1.781   1.563   6.131  0.8991  0.1275  0.2116
  127OSM    H4F13603   1.739   1.652   6.079 -0.4203 -0.8438 -0.4438
  127OSM    H4G13604   1.890   1.582   6.144  1.6722 -0.3726 -3.9324
  127OSM    C5F13605   1.699   1.527   6.254 -0.5248 -0.2038  0.4757
  127OSM    H5F13606   1.735   1.431   6.297  0.3360 -1.3013 -2.4746
  127OSM    H5G13607   1.598   1.509   6.211  0.0730  0.2827 -1.1904
  127OSM    C6F13608   1.693   1.650   6.347  0.0264 -0.4412  0.4162
  127OSM    H6F13609   1.640   1.734   6.298  0.0921 -1.0350 -0.6919
  127OSM    H6G13610   1.793   1.685   6.381  0.4129 -2.0503  1.0524
  127OSM    C7F13611   1.606   1.625   6.474 -1.5040  0.0343  0.2098
  127OSM    H7F13612   1.659   1.542   6.524 -0.2819  0.9017  0.4028
  127OSM    H7G13613   1.515   1.577   6.430 -1.5102 -0.6969  1.0014
  127OSM    C8F13614   1.571   1.745   6.563 -0.2055 -0.5109  0.6919
  127OSM    H8F13615   1.556   1.840   6.507  0.7160 -2.7717 -3.8111
  127OSM    H8G13616   1.647   1.775   6.638 -1.4901  0.1513  1.7649
  127OSM    C9F13617   1.439   1.727   6.635 -0.0925 -0.1559 -0.1063
  127OSM    H9F13618   1.361   1.678   6.576  0.1311  0.8282 -1.2636
  127OSM   C10F13619   1.409   1.769   6.761  0.1250  0.5689 -1.1756
  127OSM   H10F13620   1.311   1.750   6.806  0.1853  0.6067 -1.0268
  127OSM   C11F13621   1.503   1.836   6.871  0.1463  0.1322 -0.1787
  127OSM   H11F13622   1.533   1.939   6.843  2.8456  0.1864  2.3548
  127OSM   H11G13623   1.595   1.774   6.878 -0.8961 -1.5725 -1.0743
  127OSM   C12F13624   1.437   1.832   7.016 -0.5155  0.4653 -0.3857
  127OSM   H12F13625   1.334   1.873   7.008 -1.0982 -1.2072 -2.2412
  127OSM   H12G13626   1.506   1.891   7.080 -0.7156  0.0406  0.2183
  127OSM   C13F13627   1.422   1.684   7.061  1.2994  0.0239 -0.5056
  127OSM   H13F13628   1.498   1.618   7.014  1.2804 -0.3962  0.0355
  127OSM   H13G13629   1.323   1.648   7.025  2.4660 -0.6193 -3.3127
  127OSM   C14F13630   1.418   1.669   7.210 -0.0108 -0.6934 -0.7789
  127OSM   H14F13631   1.338   1.595   7.229 -0.1027 -1.6607 -4.2593
  127OSM   H14G13632   1.387   1.766   7.255 -0.2968 -1.1365 -0.0109
  127OSM   C15F13633   1.557   1.631   7.272  0.1742 -0.3066  0.1352
  127OSM   H15F13634   1.615   1.725   7.289 -1.8653  1.0083  0.1812
  127OSM   H15G13635   1.600   1.565   7.194  1.3876  1.7004 -0.9710
  127OSM   C16F13636   1.541   1.558   7.407  0.2332  0.5672 -0.8244
  127OSM   H16F13637   1.461   1.482   7.401 -0.9317  1.7410 -0.6688
  127OSM   H16G13638   1.503   1.624   7.488 -2.3612  1.1077 -2.3487
  127OSM   C17F13639   1.670   1.486   7.449  0.3599  0.1199 -0.3078
  127OSM   H17F13640   1.662   1.445   7.552  0.4323 -2.2823 -1.1961
  127OSM   H17G13641   1.750   1.562   7.460  1.7042 -1.2307 -0.4695
  127OSM   C18F13642   1.718   1.372   7.354 -0.0653 -0.3006 -0.4616
  127OSM   H18F13643   1.798   1.311   7.401 -0.2961  1.6826  2.7674
  127OSM   H18G13644   1.759   1.402   7.255 -0.5056  0.1310 -0.5168
  127OSM   H18H13645   1.634   1.301   7.336  1.0674 -1.3555 -1.7764
  128OSM      N13646   6.712   5.458   5.202 -0.3637  0.1217 -0.1285
  128OSM    C1513647   6.600   5.537   5.159 -0.7018 -0.2499  0.2493
  128OSM   H15A13648   6.510   5.495   5.200 -0.1415 -0.9937  0.7561
  128OSM   H15B13649   6.590   5.552   5.052  2.7307  1.9794  0.0855
  128OSM   H15C13650   6.615   5.631   5.209  0.4680 -1.0017  1.3716
  128OSM    C1413651   6.836   5.530   5.167  0.9385 -0.0618 -0.3905
  128OSM   H14A13652   6.915   5.486   5.226 -1.5270 -2.5296  1.3770
  128OSM   H14B13653   6.822   5.632   5.202 -0.5539 -0.8577  1.5398
  128OSM   H14C13654   6.871   5.529   5.065  1.7107  2.4740 -0.2333
  128OSM    C1313655   6.699   5.451   5.351 -0.2747  0.4563  0.1618
  128OSM   H13A13656   6.691   5.544   5.406 -2.0004 -0.7793  2.1466
  128OSM   H13B13657   6.783   5.408   5.402  0.6066  1.3054 -0.5346
  128OSM   H13C13658   6.608   5.401   5.380  0.1552 -0.6285 -0.3092
  128OSM    C1213659   6.720   5.319   5.138  0.5837  1.1070 -0.5355
  128OSM   H12A13660   6.811   5.268   5.164  0.4952  0.6520 -1.0906
  128OSM   H12B13661   6.735   5.336   5.032 -0.7848  1.4805 -0.7017
  128OSM    C1113662   6.599   5.230   5.159  0.0557  0.2507  0.1860
  128OSM   H11A13663   6.614   5.138   5.098  1.2391  0.5065  0.0833
  128OSM   H11B13664   6.510   5.274   5.109 -0.6471  0.1002  1.2732
  128OSM      P13665   6.639   5.075   5.372  0.3824  0.0588 -0.0220
  128OSM    O1313666   6.563   4.950   5.353  0.0763 -0.2106  0.7021
  128OSM    O1413667   6.780   5.071   5.331  0.3202  0.4440 -0.1337
  128OSM    O1113668   6.636   5.103   5.522 -0.4849 -0.7195  0.1301
  128OSM    O1213669   6.572   5.195   5.301  0.0273 -0.0271  0.0485
  128OSM    C1S13670   6.562   5.211   5.587 -0.5387  1.1137 -0.4643
  128OSM    H1S13671   6.455   5.210   5.557 -1.3556 -4.9399  1.3174
  128OSM    H1T13672   6.605   5.312   5.569  0.3433  0.7961 -0.1542
  128OSM     NF13673   6.496   5.310   5.794  0.6200 -0.0869  0.3154
  128OSM    HNF13674   6.556   5.386   5.818  1.7941 -0.1687 -2.0665
  128OSM    C2S13675   6.567   5.195   5.738  0.1162 -0.1234 -0.0979
  128OSM    H2S13676   6.508   5.103   5.755 -1.9739  0.5644 -2.9149
  128OSM    C3S13677   6.713   5.176   5.795  0.2148 -0.7292  0.9128
  128OSM    H3S13678   6.767   5.270   5.771 -2.3275  0.5430 -0.1885
  128OSM     O313679   6.782   5.060   5.744 -0.4206  0.5749 -0.2602
  128OSM    HO313680   6.716   5.029   5.681  0.4756  0.8598 -1.3659
  128OSM    C4S13681   6.698   5.179   5.941  0.1235  0.2745 -0.1612
  128OSM    H4S13682   6.657   5.092   5.994  0.7768  0.2054  0.2554
  128OSM    C5S13683   6.745   5.288   6.015  0.0945 -0.2347 -0.1203
  128OSM    H5S13684   6.794   5.371   5.962  0.3268 -0.8087 -0.8174
  128OSM    C6S13685   6.740   5.319   6.159 -0.3182 -0.7556  0.3688
  128OSM    H6S13686   6.834   5.368   6.190 -0.8059  0.8396 -0.5417
  128OSM    H6T13687   6.739   5.220   6.209  1.2619 -2.1397 -2.1479
  128OSM    C7S13688   6.626   5.410   6.197 -0.1226  0.1133 -1.0819
  128OSM    H7S13689   6.525   5.363   6.201  0.2523 -0.6521 -0.2028
  128OSM    H7T13690   6.619   5.500   6.133  1.2383 -0.3718 -1.9447
  128OSM    C8S13691   6.644   5.468   6.336 -0.2209  0.1515  0.1122
  128OSM    H8S13692   6.604   5.571   6.332  1.7456  0.9823  0.5310
  128OSM    H8T13693   6.752   5.480   6.362 -0.9188  0.2532  3.5422
  128OSM    C9S13694   6.577   5.391   6.450  0.4713 -0.7629  0.3561
  128OSM    H9S13695   6.613   5.289   6.476 -0.9294 -1.5816 -0.7741
  128OSM    H9T13696   6.468   5.389   6.429  0.2673  1.7465  0.8277
  128OSM   C10S13697   6.591   5.473   6.578 -0.4379 -0.3898  0.2326
  128OSM   H10S13698   6.565   5.578   6.552  0.7594 -0.3873 -1.0330
  128OSM   H10T13699   6.692   5.455   6.623 -0.5152 -0.8233  0.2365
  128OSM   C11S13700   6.500   5.436   6.695  0.6385  0.5351  0.1433
  128OSM   H11S13701   6.501   5.326   6.712  1.0886  0.1115 -2.2666
  128OSM   H11T13702   6.392   5.455   6.674  0.9774  3.3170  0.4646
  128OSM   C12S13703   6.534   5.513   6.823 -0.4137  0.5023  0.4991
  128OSM   H12S13704   6.499   5.616   6.804 -2.0959 -0.6401 -3.7106
  128OSM   H12T13705   6.645   5.515   6.833 -0.6045  1.2107  3.1483
  128OSM   C13S13706   6.478   5.446   6.956  0.0104 -0.0535  0.6811
  128OSM   H13S13707   6.512   5.340   6.961 -1.1496 -0.4373  0.7129
  128OSM   H13T13708   6.367   5.443   6.953 -0.0398  1.5513 -1.6608
  128OSM   C14S13709   6.527   5.530   7.082 -0.2322  0.1808 -0.0903
  128OSM   H14S13710   6.459   5.510   7.168  0.1356 -1.0070 -0.0626
  128OSM   H14T13711   6.507   5.633   7.047 -0.4733  0.5855  1.1721
  128OSM   C15S13712   6.677   5.515   7.125  0.1855  1.1883 -0.0084
  128OSM   H15S13713   6.688   5.581   7.214  0.3326  1.7953 -0.4655
  128OSM   H15T13714   6.753   5.558   7.056  0.4769 -0.7908 -0.9808
  128OSM   C16S13715   6.718   5.369   7.150 -0.0157 -0.3952 -0.7811
  128OSM   H16S13716   6.713   5.308   7.057 -0.4169 -2.4544  0.5252
  128OSM   H16T13717   6.650   5.337   7.232  1.1215  0.3535  0.4972
  128OSM   C17S13718   6.869   5.353   7.185 -0.5733 -0.0183  0.3669
  128OSM   H17S13719   6.884   5.411   7.279 -2.6476  0.9883  0.1390
  128OSM   H17T13720   6.927   5.412   7.111 -0.4623  0.5586  0.9046
  128OSM   C18S13721   6.911   5.210   7.205 -0.2579 -0.2493  0.0649
  128OSM   H18S13722   6.848   5.148   7.272 -1.0608  0.2433 -0.2165
  128OSM   H18T13723   7.011   5.209   7.255 -0.1022  0.6007 -0.2047
  128OSM   H18U13724   6.921   5.168   7.103  1.0894  3.4439 -1.5174
  128OSM    C1F13725   6.362   5.320   5.790  0.0180 -0.4699  0.7249
  128OSM     OF13726   6.290   5.232   5.744 -0.5011 -0.1151  0.0181
  128OSM    C2F13727   6.290   5.443   5.843  0.0564 -0.0474 -0.1516
  128OSM    H2F13728   6.231   5.496   5.766  0.7909  3.3186  1.3993
  128OSM    H2G13729   6.372   5.513   5.871  0.3971 -0.9613  1.3000
  128OSM    C3F13730   6.211   5.411   5.970  0.2062  0.2814  0.2369
  128OSM    H3F13731   6.258   5.340   6.042  0.6575 -0.7535 -1.0460
  128OSM    H3G13732   6.121   5.361   5.928  0.8997  0.4120 -1.4904
  128OSM    C4F13733   6.193   5.543   6.044  0.2953  0.1274 -0.5454
  128OSM    H4F13734   6.151   5.622   5.978 -0.3683 -0.0354 -0.3222
  128OSM    H4G13735   6.294   5.581   6.069 -0.4733  2.1370 -0.3851
  128OSM    C5F13736   6.103   5.531   6.168 -0.2805  0.1529  0.2542
  128OSM    H5F13737   6.137   5.441   6.223  1.1926  0.0943 -0.6905
  128OSM    H5G13738   5.997   5.529   6.134 -0.8302  2.1407  1.6826
  128OSM    C6F13739   6.123   5.659   6.249 -0.4473  0.5660 -0.3521
  128OSM    H6F13740   6.083   5.740   6.184 -0.6394  0.2425 -0.6409
  128OSM    H6G13741   6.230   5.679   6.274 -0.3316 -2.2721  1.9405
  128OSM    C7F13742   6.041   5.649   6.375 -0.7826  0.6489  0.3410
  128OSM    H7F13743   5.941   5.604   6.356 -0.4370 -0.4178  0.9483
  128OSM    H7G13744   6.020   5.752   6.409 -5.1437  0.2123 -0.4280
  128OSM    C8F13745   6.103   5.560   6.485  0.2174 -0.2738  0.4131
  128OSM    H8F13746   6.125   5.462   6.440 -3.1797 -0.1726 -1.8341
  128OSM    H8G13747   6.017   5.532   6.550  1.6207 -1.0198  2.0178
  128OSM    C9F13748   6.224   5.625   6.549 -0.7818  0.7931  0.7859
  128OSM    H9F13749   6.321   5.616   6.498 -0.7328  0.5832  0.9135
  128OSM   C10F13750   6.231   5.690   6.669 -0.5867  0.9109  0.3997
  128OSM   H10F13751   6.331   5.713   6.710  0.9530 -2.6596 -0.9766
  128OSM   C11F13752   6.115   5.732   6.766 -0.3138 -0.0624  0.2824
  128OSM   H11F13753   6.016   5.701   6.727 -1.0038 -0.3318  2.1246
  128OSM   H11G13754   6.113   5.843   6.769 -1.2928 -0.0838  1.1985
  128OSM   C12F13755   6.136   5.672   6.905 -0.4748  0.1328  0.5219
  128OSM   H12F13756   6.222   5.716   6.960  0.2577 -1.5974  0.8535
  128OSM   H12G13757   6.156   5.562   6.909 -0.3791  0.1179 -0.2425
  128OSM   C13F13758   6.021   5.698   6.995 -0.2312 -0.0467  0.1993
  128OSM   H13F13759   5.935   5.643   6.953 -2.6045  2.3641  1.5632
  128OSM   H13G13760   5.981   5.801   6.986 -2.5284 -0.9140 -0.3529
  128OSM   C14F13761   6.055   5.660   7.143 -0.1833 -0.0665  0.1254
  128OSM   H14F13762   5.967   5.691   7.204  0.8391  0.9089  1.1532
  128OSM   H14G13763   6.136   5.728   7.176  0.2050  0.4473 -1.7972
  128OSM   C15F13764   6.104   5.516   7.157  0.9890  0.4899 -0.2815
  128OSM   H15F13765   6.208   5.507   7.119  1.2137  0.5494  0.3235
  128OSM   H15G13766   6.025   5.449   7.114 -1.2290  1.8013  1.5352
  128OSM   C16F13767   6.125   5.467   7.300 -0.2392 -0.4100  0.1319
  128OSM   H16F13768   6.030   5.470   7.358 -1.0267  1.5108 -1.1444
  128OSM   H16G13769   6.182   5.550   7.348 -2.4713  0.5213  1.3430
  128OSM   C17F13770   6.181   5.324   7.315  0.9675 -0.4195  0.0928
  128OSM   H17F13771   6.250   5.294   7.234  1.5379  0.8380  0.0853
  128OSM   H17G13772   6.093   5.261   7.290 -0.6839  2.0931 -0.8274
  128OSM   C18F13773   6.218   5.281   7.458 -0.0023  0.0739 -0.2039
  128OSM   H18F13774   6.312   5.326   7.494  0.6143 -1.7295  0.5735
  128OSM   H18G13775   6.228   5.170   7.461 -2.1054 -0.1497  2.5264
  128OSM   H18H13776   6.135   5.302   7.529 -0.4982 -2.5570  0.1177
  129OSM      N13777   4.524   0.376   5.225 -0.2287  0.6929 -0.0965
  129OSM    C1513778   4.505   0.429   5.086  0.3276 -0.3257  1.0985
  129OSM   H15A13779   4.450   0.359   5.025 -0.1400  0.0418  1.0904
  129OSM   H15B13780   4.599   0.444   5.035 -0.3370  0.8783  0.1459
  129OSM   H15C13781   4.455   0.525   5.074  0.7265 -0.2768 -0.5178
  129OSM    C1413782   4.598   0.252   5.218  0.9942 -0.3245  0.1913
  129OSM   H14A13783   4.530   0.180   5.176 -0.7918  2.7395 -2.6440
  129OSM   H14B13784   4.646   0.210   5.306 -2.3499 -2.7178  1.0332
  129OSM   H14C13785   4.681   0.263   5.150  0.8380 -0.5326 -0.0315
  129OSM    C1313786   4.604   0.480   5.291  0.0072 -0.6658  0.3567
  129OSM   H13A13787   4.556   0.576   5.297  1.2828 -0.0674  1.8508
  129OSM   H13B13788   4.702   0.495   5.247 -0.0848 -0.5318  0.1973
  129OSM   H13C13789   4.617   0.452   5.395 -0.6412  3.2217  1.6451
  129OSM    C1213790   4.393   0.360   5.293  0.2458 -0.1068 -0.3160
  129OSM   H12A13791   4.337   0.286   5.239  1.4428 -1.0226 -0.3474
  129OSM   H12B13792   4.343   0.456   5.283  0.2856 -0.0469  0.0350
  129OSM    C1113793   4.388   0.323   5.445  0.0096  0.3883  0.8481
  129OSM   H11A13794   4.285   0.327   5.485 -0.2461 -1.5914  0.4832
  129OSM   H11B13795   4.448   0.402   5.497  0.9147  1.6210 -1.8720
  129OSM      P13796   4.369   0.056   5.433  0.1596 -0.2825  0.0886
  129OSM    O1313797   4.347   0.048   5.290  0.1283  0.0079  0.6642
  129OSM    O1413798   4.450  -0.058   5.488  0.3944 -0.2392 -0.3768
  129OSM    O1113799   4.229   0.065   5.509 -0.0946  0.0474 -0.8648
  129OSM    O1213800   4.439   0.194   5.469 -0.0558  0.1011 -0.0330
  129OSM    C1S13801   4.163  -0.045   5.577  0.0783 -0.4443  0.6303
  129OSM    H1S13802   4.179  -0.143   5.528 -0.7334  0.2960 -1.1748
  129OSM    H1T13803   4.053  -0.032   5.570  0.1576  1.0345  1.5996
  129OSM     NF13804   4.165  -0.170   5.787  0.1892 -0.1311  0.3750
  129OSM    HNF13805   4.074  -0.175   5.828 -0.0470 -0.9967 -0.2252
  129OSM    C2S13806   4.209  -0.047   5.723  0.5021  0.1673  0.4064
  129OSM    H2S13807   4.320  -0.053   5.728  0.5503  0.5518 -0.0871
  129OSM    C3S13808   4.164   0.080   5.790  0.7232 -0.1493 -0.1425
  129OSM    H3S13809   4.056   0.096   5.767  0.5318 -0.7297  0.3241
  129OSM     O313810   4.222   0.198   5.739  0.5027 -0.2036  0.1125
  129OSM    HO313811   4.288   0.161   5.679  0.3483  0.4493 -0.4706
  129OSM    C4S13812   4.170   0.074   5.944  0.0124  0.1635  0.0725
  129OSM    H4S13813   4.092   0.018   5.998 -1.2682  0.3981 -1.4582
  129OSM    C5S13814   4.284   0.121   6.011  0.3705 -0.4428  0.2999
  129OSM    H5S13815   4.362   0.162   5.944 -0.1831 -0.0620 -0.1203
  129OSM    C6S13816   4.305   0.109   6.150  0.0499  0.2893  0.3024
  129OSM    H6S13817   4.340   0.206   6.192  0.2535 -0.4867  2.0139
  129OSM    H6T13818   4.381   0.034   6.180 -1.4459 -1.1114  0.6739
  129OSM    C7S13819   4.182   0.075   6.238  0.0560  0.3209  0.2575
  129OSM    H7S13820   4.131  -0.016   6.200 -0.0493  1.3048 -2.1842
  129OSM    H7T13821   4.105   0.155   6.239 -0.4405 -0.1516  0.1480
  129OSM    C8S13822   4.216   0.059   6.385  0.6728 -0.2140 -0.1595
  129OSM    H8S13823   4.260   0.154   6.422  1.3137 -0.6227  0.1511
  129OSM    H8T13824   4.297  -0.017   6.381  0.9644  0.1398 -1.9940
  129OSM    C9S13825   4.102   0.012   6.471 -0.2532  0.3789 -0.9441
  129OSM    H9S13826   4.065  -0.087   6.438  0.9810 -0.4396  0.0348
  129OSM    H9T13827   4.013   0.079   6.468 -0.2997  0.5533  1.8392
  129OSM   C10S13828   4.147  -0.011   6.613 -0.0259 -0.6314  0.5866
  129OSM   H10S13829   4.256  -0.020   6.632  0.0364  2.6878  2.5596
  129OSM   H10T13830   4.104  -0.101   6.662 -1.6136  0.0350  0.4662
  129OSM   C11S13831   4.113   0.095   6.716  0.3371 -0.5614 -0.2406
  129OSM   H11S13832   4.005   0.108   6.738  0.6450  0.5019  0.7657
  129OSM   H11T13833   4.133   0.194   6.671 -1.8625  0.7135  1.3851
  129OSM   C12S13834   4.188   0.081   6.848 -0.2692 -0.1782  0.3855
  129OSM   H12S13835   4.166   0.170   6.910  1.5404  0.3331  0.3574
  129OSM   H12T13836   4.297   0.081   6.827 -0.0874 -1.2181  1.2373
  129OSM   C13S13837   4.146  -0.051   6.929  0.4615  0.3079 -0.0496
  129OSM   H13S13838   4.180  -0.135   6.864  1.6334 -0.0797  1.0206
  129OSM   H13T13839   4.035  -0.052   6.935  0.4244 -0.0085 -0.7199
  129OSM   C14S13840   4.206  -0.067   7.064 -0.3993  0.4041 -0.1510
  129OSM   H14S13841   4.195  -0.174   7.091  3.1564 -0.1686 -0.4381
  129OSM   H14T13842   4.159  -0.001   7.140 -0.0469  2.4334 -1.6018
  129OSM   C15S13843   4.357  -0.055   7.071 -0.3812  0.2110 -0.2871
  129OSM   H15S13844   4.371   0.055   7.075 -2.6591  0.5746 -1.0269
  129OSM   H15T13845   4.397  -0.096   6.975 -0.7771 -0.1754 -0.2904
  129OSM   C16S13846   4.428  -0.139   7.173 -0.2155 -0.1390  0.1316
  129OSM   H16S13847   4.395  -0.244   7.157 -0.2025 -0.4711  2.0908
  129OSM   H16T13848   4.387  -0.110   7.272  2.6650 -0.2798  1.4751
  129OSM   C17S13849   4.583  -0.141   7.173  0.0822 -0.3542 -0.3335
  129OSM   H17S13850   4.627  -0.128   7.072 -0.3658 -0.0802 -0.4968
  129OSM   H17T13851   4.618  -0.239   7.212  0.2079 -0.3349 -0.3974
  129OSM   C18S13852   4.647  -0.022   7.254 -0.1880 -0.9401 -0.0166
  129OSM   H18S13853   4.606  -0.025   7.357 -0.1633 -0.3030  0.0186
  129OSM   H18T13854   4.629   0.079   7.210  1.1482  0.5131  2.5494
  129OSM   H18U13855   4.758  -0.031   7.260 -0.0917 -0.7895 -1.3165
  129OSM    C1F13856   4.211  -0.298   5.747 -0.4053  0.0248  0.1672
  129OSM     OF13857   4.287  -0.303   5.651 -0.6033  0.5474 -0.3824
  129OSM    C2F13858   4.150  -0.410   5.822 -0.4487  0.1047 -0.4519
  129OSM    H2F13859   4.081  -0.461   5.751  0.3726 -1.4286 -0.1920
  129OSM    H2G13860   4.078  -0.368   5.895 -1.1868  1.0984 -1.7079
  129OSM    C3F13861   4.249  -0.498   5.911  0.6715  0.6429 -0.1714
  129OSM    H3F13862   4.319  -0.553   5.845 -0.3998 -0.7723 -0.1773
  129OSM    H3G13863   4.185  -0.570   5.967  0.9921 -0.0449 -0.6754
  129OSM    C4F13864   4.329  -0.408   6.006  0.2118  0.1073  0.7740
  129OSM    H4F13865   4.252  -0.352   6.063 -1.4072 -0.3952 -0.8066
  129OSM    H4G13866   4.404  -0.343   5.956 -0.8002  1.4815  0.9977
  129OSM    C5F13867   4.393  -0.497   6.114 -1.2053 -0.0679  0.8878
  129OSM    H5F13868   4.490  -0.546   6.092 -1.3071 -0.2278  0.8020
  129OSM    H5G13869   4.324  -0.578   6.145 -1.7659  0.8780  2.2388
  129OSM    C6F13870   4.409  -0.412   6.242  0.5549 -0.2666  0.1448
  129OSM    H6F13871   4.314  -0.367   6.280  1.3408  1.1309  0.5384
  129OSM    H6G13872   4.484  -0.333   6.223  0.0802  0.1860  0.1182
  129OSM    C7F13873   4.456  -0.503   6.356  0.2501  0.3054  0.4784
  129OSM    H7F13874   4.532  -0.575   6.321  1.5932  2.9803 -2.6052
  129OSM    H7G13875   4.368  -0.567   6.381 -1.1305  0.9607 -2.2923
  129OSM    C8F13876   4.528  -0.423   6.469  0.5537 -0.3282 -0.4164
  129OSM    H8F13877   4.614  -0.374   6.418 -0.5142  0.9448 -1.0419
  129OSM    H8G13878   4.575  -0.497   6.537  0.1951 -1.3519 -1.2448
  129OSM    C9F13879   4.446  -0.318   6.535  0.1786 -0.0335 -0.2285
  129OSM    H9F13880   4.355  -0.291   6.480 -0.6789  0.0415  1.1827
  129OSM   C10F13881   4.454  -0.272   6.664  0.0070 -0.3303  0.8613
  129OSM   H10F13882   4.382  -0.194   6.691 -0.6789  0.1350 -2.0017
  129OSM   C11F13883   4.554  -0.313   6.771  0.0357 -0.1830 -0.2713
  129OSM   H11F13884   4.599  -0.219   6.811  1.0854 -1.0315  0.6015
  129OSM   H11G13885   4.631  -0.375   6.721 -0.9509 -0.5141 -1.4106
  129OSM   C12F13886   4.479  -0.384   6.894  0.2007  0.3442  0.0441
  129OSM   H12F13887   4.402  -0.451   6.850  0.4065  0.0987  0.0562
  129OSM   H12G13888   4.431  -0.299   6.947  0.9134  1.4546 -1.0156
  129OSM   C13F13889   4.576  -0.470   6.982 -0.2107 -0.1515 -0.0483
  129OSM   H13F13890   4.660  -0.404   7.011  0.1433 -0.0284 -1.2840
  129OSM   H13G13891   4.618  -0.554   6.922  0.0964 -0.2790  0.3448
  129OSM   C14F13892   4.520  -0.530   7.113 -0.5008 -0.1271  0.1608
  129OSM   H14F13893   4.438  -0.602   7.094  0.0079 -0.8423  0.6353
  129OSM   H14G13894   4.481  -0.447   7.176  0.0551  1.5938 -1.6127
  129OSM   C15F13895   4.617  -0.598   7.205  0.6227 -0.5156  0.1750
  129OSM   H15F13896   4.555  -0.636   7.289  0.5333  1.5690  1.1347
  129OSM   H15G13897   4.694  -0.528   7.245  2.8244 -2.4182 -0.5740
  129OSM   C16F13898   4.683  -0.718   7.145 -0.9066  0.0586  0.9275
  129OSM   H16F13899   4.774  -0.697   7.084 -0.4655 -0.3927  1.4208
  129OSM   H16G13900   4.616  -0.768   7.073  0.9314 -0.9363 -0.1570
  129OSM   C17F13901   4.746  -0.802   7.256  0.3480 -0.0281  1.0670
  129OSM   H17F13902   4.663  -0.861   7.300 -0.9603 -0.3174 -1.5743
  129OSM   H17G13903   4.789  -0.739   7.336  2.9126  0.4449 -0.5673
  129OSM   C18F13904   4.857  -0.893   7.212  0.9416  0.0975  0.3128
  129OSM   H18F13905   4.931  -0.928   7.287  0.0394 -1.3436  0.5592
  129OSM   H18G13906   4.918  -0.832   7.142  1.4749 -0.6933  0.0765
  129OSM   H18H13907   4.817  -0.976   7.150  0.7464  0.6970 -0.3861
  130OSM      N13908   7.089   2.390   5.422 -0.9241 -0.0218 -0.5130
  130OSM    C1513909   7.093   2.308   5.552 -0.5151 -0.9901  0.3501
  130OSM   H15A13910   7.066   2.361   5.641  0.0053 -1.0245  0.5293
  130OSM   H15B13911   7.198   2.282   5.557  0.2304  1.1916 -1.7790
  130OSM   H15C13912   7.041   2.215   5.535 -0.1373 -0.6339 -3.8473
  130OSM    C1413913   7.187   2.502   5.447 -0.3319 -0.2643  0.0835
  130OSM   H14A13914   7.157   2.568   5.527  2.1007 -0.7720  1.5079
  130OSM   H14B13915   7.220   2.554   5.359  1.7198 -0.2769  0.7958
  130OSM   H14C13916   7.279   2.464   5.488 -0.5398  0.7445  1.5852
  130OSM    C1313917   7.132   2.311   5.301  0.2038  0.1766  0.5557
  130OSM   H13A13918   7.153   2.378   5.219 -2.2261 -0.2375 -0.5079
  130OSM   H13B13919   7.061   2.235   5.270 -0.5393  0.7852  0.7335
  130OSM   H13C13920   7.230   2.272   5.326  0.6083  1.4073  0.9476
  130OSM    C1213921   6.951   2.439   5.400 -0.4640  0.2332  0.1401
  130OSM   H12A13922   6.880   2.359   5.388  0.4034 -0.5679  0.2473
  130OSM   H12B13923   6.951   2.513   5.320 -0.9719 -0.8861 -0.9252
  130OSM    C1113924   6.892   2.510   5.524 -0.0409 -0.2789  0.3847
  130OSM   H11A13925   6.882   2.456   5.620 -0.2085 -1.9626 -0.5510
  130OSM   H11B13926   6.785   2.527   5.502  0.0024  0.1636  0.4977
  130OSM      P13927   6.984   2.680   5.697 -0.0445 -0.1398 -0.0925
  130OSM    O1313928   7.068   2.802   5.686  0.2536 -0.8101  0.7744
  130OSM    O1413929   6.859   2.693   5.772  0.3642  0.7824 -0.1181
  130OSM    O1113930   7.069   2.563   5.757  0.4075  0.1133  0.0685
  130OSM    O1213931   6.945   2.641   5.547 -0.0325  0.6435 -0.3139
  130OSM    C1S13932   7.208   2.562   5.774  0.1415  0.3622 -0.1407
  130OSM    H1S13933   7.252   2.645   5.715 -1.2485  1.4955  0.3402
  130OSM    H1T13934   7.252   2.467   5.739  1.5601  0.4902  1.1947
  130OSM     NF13935   7.375   2.560   5.956 -0.6815  0.2889  0.1110
  130OSM    HNF13936   7.400   2.481   6.011 -1.6538 -0.4967 -0.5476
  130OSM    C2S13937   7.235   2.562   5.925  0.2966 -0.1015 -0.2138
  130OSM    H2S13938   7.193   2.656   5.966  0.9980 -0.0223  0.3331
  130OSM    C3S13939   7.165   2.440   5.998 -0.9880 -0.4346 -0.4655
  130OSM    H3S13940   7.192   2.336   5.970  0.7123  0.1121 -0.9692
  130OSM     O313941   7.028   2.438   5.975 -0.5188  0.1653  0.2225
  130OSM    HO313942   7.016   2.509   5.912 -1.4263 -0.7780 -0.7103
  130OSM    C4S13943   7.190   2.450   6.145  0.0193 -0.1378 -0.1290
  130OSM    H4S13944   7.112   2.511   6.193  1.0181 -0.4303  1.9651
  130OSM    C5S13945   7.275   2.371   6.213 -0.2322 -0.5569  0.6176
  130OSM    H5S13946   7.333   2.304   6.148  1.2410  0.8744  0.4036
  130OSM    C6S13947   7.297   2.373   6.363  0.3497 -0.7539 -0.2492
  130OSM    H6S13948   7.402   2.388   6.397 -0.3397  1.2985  1.1819
  130OSM    H6T13949   7.254   2.279   6.405 -0.6155  0.0706  0.6586
  130OSM    C7S13950   7.219   2.487   6.447 -0.0599  0.3901  0.6698
  130OSM    H7S13951   7.112   2.479   6.419  0.1330  2.2452 -0.7602
  130OSM    H7T13952   7.254   2.590   6.426  1.2466 -0.0687  0.4840
  130OSM    C8S13953   7.237   2.459   6.598  0.3258  0.4419 -0.0917
  130OSM    H8S13954   7.344   2.465   6.630  0.9652  1.9265 -2.3260
  130OSM    H8T13955   7.201   2.356   6.614 -0.8598  0.8426 -0.1157
  130OSM    C9S13956   7.169   2.560   6.687  0.0823  0.6919 -0.5719
  130OSM    H9S13957   7.059   2.546   6.674  0.3191 -2.9247  0.4431
  130OSM    H9T13958   7.202   2.660   6.650  3.3200  0.0717  0.3818
  130OSM   C10S13959   7.226   2.548   6.832 -0.1045  0.6544 -0.2966
  130OSM   H10S13960   7.199   2.645   6.881 -0.8969  1.2890 -1.9226
  130OSM   H10T13961   7.337   2.547   6.831 -0.0773  0.3676  0.8883
  130OSM   C11S13962   7.179   2.427   6.907  0.2878 -0.0298  0.3434
  130OSM   H11S13963   7.227   2.342   6.854  0.0977  0.1271 -0.0859
  130OSM   H11T13964   7.068   2.424   6.898  0.2836  1.0892 -0.1500
  130OSM   C12S13965   7.226   2.424   7.054 -0.3579 -0.1596 -0.0747
  130OSM   H12S13966   7.335   2.423   7.071 -0.3215  2.8274  0.4206
  130OSM   H12T13967   7.166   2.349   7.111 -2.7343  0.8716 -1.0548
  130OSM   C13S13968   7.187   2.543   7.137  0.2415  0.0045 -0.4822
  130OSM   H13S13969   7.081   2.530   7.167  0.8451 -0.3424  1.6488
  130OSM   H13T13970   7.207   2.643   7.093  2.1094  0.4872  1.3215
  130OSM   C14S13971   7.265   2.554   7.277 -0.2280  0.1694  0.1692
  130OSM   H14S13972   7.373   2.570   7.260 -0.2191  2.6012  2.0218
  130OSM   H14T13973   7.256   2.454   7.325  3.4429  0.3361  1.5340
  130OSM   C15S13974   7.211   2.665   7.368 -0.6373  0.0050 -0.3067
  130OSM   H15S13975   7.111   2.641   7.410 -0.4457  0.7562  0.6015
  130OSM   H15T13976   7.213   2.756   7.304  1.6224  1.4056  1.5765
  130OSM   C16S13977   7.309   2.693   7.490 -0.0785  0.1278 -0.3844
  130OSM   H16S13978   7.412   2.725   7.463  0.0810 -0.8776 -1.0516
  130OSM   H16T13979   7.331   2.601   7.549  0.6006 -0.2121 -1.1359
  130OSM   C17S13980   7.251   2.803   7.583 -0.1401  0.6784 -0.2322
  130OSM   H17S13981   7.146   2.771   7.602  0.1780 -0.5266 -0.4447
  130OSM   H17T13982   7.238   2.898   7.526 -0.9785  2.2456  2.3864
  130OSM   C18S13983   7.338   2.805   7.706 -0.5427 -0.1315 -1.1073
  130OSM   H18S13984   7.337   2.702   7.747 -1.3547 -0.8883 -2.9492
  130OSM   H18T13985   7.306   2.885   7.777  0.7191  0.4228 -1.1172
  130OSM   H18U13986   7.447   2.827   7.694 -0.2606 -0.9485 -0.2074
  130OSM    C1F13987   7.461   2.657   5.920  0.0320  0.1558  0.0555
  130OSM     OF13988   7.441   2.735   5.829 -0.6383  0.6417 -0.2458
  130OSM    C2F13989   7.598   2.644   5.985 -0.3308 -0.5667 -0.3962
  130OSM    H2F13990   7.654   2.738   5.967 -2.8308  0.9108 -0.9250
  130OSM    H2G13991   7.667   2.569   5.943  1.4232  0.5689  0.3268
  130OSM    C3F13992   7.599   2.606   6.140 -0.5577 -0.2900  1.2090
  130OSM    H3F13993   7.706   2.604   6.170  0.2214  0.8965 -1.2104
  130OSM    H3G13994   7.562   2.502   6.151 -0.2924 -0.4732  0.4532
  130OSM    C4F13995   7.526   2.698   6.224  0.4740  0.2218  0.1584
  130OSM    H4F13996   7.415   2.691   6.213  0.7045 -1.9357 -1.2533
  130OSM    H4G13997   7.554   2.802   6.197 -0.8100  0.4915 -0.2196
  130OSM    C5F13998   7.561   2.666   6.370  0.0782  0.0418 -0.1172
  130OSM    H5F13999   7.671   2.652   6.381  0.7467  0.3888 -4.4915
  130OSM    H5G14000   7.513   2.570   6.400  0.0570  0.1813  0.2967
  130OSM    C6F14001   7.516   2.769   6.480  0.0120 -0.6190 -0.3714
  130OSM    H6F14002   7.408   2.760   6.507  0.2938  0.3457  1.1701
  130OSM    H6G14003   7.519   2.874   6.444 -0.0587  0.7645  3.2631
  130OSM    C7F14004   7.601   2.748   6.607  0.7758 -0.5064 -0.9563
  130OSM    H7F14005   7.702   2.789   6.585 -0.0190  2.5965  0.6224
  130OSM    H7G14006   7.608   2.638   6.620  0.4654 -0.4248 -0.0151
  130OSM    C8F14007   7.545   2.802   6.739 -0.3542  0.4589 -0.0925
  130OSM    H8F14008   7.452   2.747   6.765 -0.2671  0.5827  0.4979
  130OSM    H8G14009   7.512   2.906   6.720  1.9803  1.6721  1.9778
  130OSM    C9F14010   7.628   2.792   6.857 -0.7273 -0.0024  0.0073
  130OSM    H9F14011   7.737   2.785   6.852 -0.6749  0.4549  0.4328
  130OSM   C10F14012   7.584   2.804   6.982 -0.4026  0.2291 -0.2745
  130OSM   H10F14013   7.660   2.808   7.061 -0.6101  3.4645 -0.1079
  130OSM   C11F14014   7.451   2.820   7.043  1.4789  0.0421  0.4523
  130OSM   H11F14015   7.400   2.729   7.083 -1.5771  2.0912  1.6261
  130OSM   H11G14016   7.375   2.862   6.974 -0.7575  1.4769  3.5649
  130OSM   C12F14017   7.443   2.926   7.155 -0.6366 -0.2464 -0.0328
  130OSM   H12F14018   7.495   2.885   7.245 -2.0273  3.2294  2.5622
  130OSM   H12G14019   7.339   2.944   7.187 -0.6417 -0.6704  0.1996
  130OSM   C13F14020   7.495   3.066   7.106  0.7817  0.1418  0.0977
  130OSM   H13F14021   7.423   3.093   7.025  0.4100  0.6192  0.5782
  130OSM   H13G14022   7.593   3.064   7.052  2.0136  1.2239  2.1813
  130OSM   C14F14023   7.497   3.168   7.216 -0.2592  0.4821  0.0031
  130OSM   H14F14024   7.523   3.112   7.309 -1.0044  1.0615  0.5748
  130OSM   H14G14025   7.406   3.230   7.228  0.5589  2.1076 -1.8266
  130OSM   C15F14026   7.603   3.275   7.195  0.5604  0.5348  0.8028
  130OSM   H15F14027   7.603   3.314   7.091 -1.0192  0.9618  0.9509
  130OSM   H15G14028   7.706   3.232   7.189  0.6345  0.8027 -4.4325
  130OSM   C16F14029   7.598   3.389   7.300 -0.2195  0.1752  0.5329
  130OSM   H16F14030   7.699   3.435   7.296 -0.2133  0.5073  3.0407
  130OSM   H16G14031   7.572   3.350   7.401  0.4203 -0.5264  0.4428
  130OSM   C17F14032   7.494   3.489   7.254  0.1947  0.2277 -0.5309
  130OSM   H17F14033   7.391   3.451   7.268  1.0239 -1.6783  0.8785
  130OSM   H17G14034   7.520   3.525   7.152  2.3959  0.9296  0.2222
  130OSM   C18F14035   7.508   3.607   7.349 -0.0094 -0.0433  0.2941
  130OSM   H18F14036   7.490   3.568   7.451 -2.0818 -2.3729 -0.8572
  130OSM   H18G14037   7.441   3.694   7.335  0.0598 -0.2999 -1.9677
  130OSM   H18H14038   7.614   3.641   7.358  0.0637 -0.3340  0.5745
  131OSM      N14039   0.946   0.701   5.210 -1.2010 -1.2322  0.0977
  131OSM    C1514040   1.081   0.725   5.156 -0.2228 -0.5210  0.0562
  131OSM   H15A14041   1.119   0.819   5.193  0.8561 -0.7918 -0.3211
  131OSM   H15B14042   1.085   0.717   5.048  1.7327  0.6535  0.0038
  131OSM   H15C14043   1.140   0.645   5.198  1.2728  0.9903  0.9239
  131OSM    C1414044   0.869   0.823   5.172 -0.7552  0.5156  0.3133
  131OSM   H14A14045   0.775   0.834   5.222  0.2712 -0.6269  2.6186
  131OSM   H14B14046   0.859   0.826   5.064  0.9689 -0.3302  0.0926
  131OSM   H14C14047   0.924   0.909   5.208 -1.9653  0.3373  2.7720
  131OSM    C1314048   0.873   0.594   5.137 -0.5614 -0.5060 -0.8537
  131OSM   H13A14049   0.781   0.558   5.180 -0.4722 -1.3137 -1.3078
  131OSM   H13B14050   0.933   0.504   5.140 -0.8287 -0.6570  2.0626
  131OSM   H13C14051   0.858   0.618   5.033 -0.0601 -1.9242 -1.2836
  131OSM    C1214052   0.951   0.662   5.359  0.4045  0.5769 -0.6181
  131OSM   H12A14053   0.854   0.670   5.405  1.4024  0.7987  1.5954
  131OSM   H12B14054   0.987   0.749   5.413  1.7836  0.5490 -1.4549
  131OSM    C1114055   1.029   0.537   5.407 -1.0011  0.4997  0.5678
  131OSM   H11A14056   0.990   0.449   5.350  0.9439  1.6279 -2.7414
  131OSM   H11B14057   1.007   0.520   5.515 -1.4623 -3.1984  0.0433
  131OSM      P14058   1.277   0.614   5.476 -0.6614 -0.2798  0.2359
  131OSM    O1314059   1.415   0.570   5.452  0.0814  0.5120 -0.1952
  131OSM    O1414060   1.249   0.756   5.447 -0.1030  0.0960  0.1499
  131OSM    O1114061   1.241   0.583   5.626  0.1989 -0.0106 -0.1052
  131OSM    O1214062   1.172   0.537   5.397 -0.1564  0.9829  0.0625
  131OSM    C1S14063   1.324   0.643   5.727 -0.1668 -1.0381 -0.8023
  131OSM    H1S14064   1.377   0.735   5.696 -2.4714  1.6416  2.5001
  131OSM    H1T14065   1.399   0.567   5.757  1.7549 -0.0792 -2.9121
  131OSM     NF14066   1.308   0.785   5.922 -0.5628  0.0487  0.1911
  131OSM    HNF14067   1.357   0.752   6.002 -1.7008 -2.5340 -0.0897
  131OSM    C2S14068   1.243   0.686   5.847  0.7866 -0.4106 -0.1995
  131OSM    H2S14069   1.152   0.736   5.807  1.6541 -0.1296 -1.9164
  131OSM    C3S14070   1.198   0.557   5.921  0.2498 -0.9119  0.0529
  131OSM    H3S14071   1.295   0.507   5.940  0.0894 -3.1023 -3.7715
  131OSM     O314072   1.125   0.474   5.836 -0.0331  0.8864  0.1796
  131OSM    HO314073   1.143   0.502   5.746 -1.4449 -1.7665 -1.0599
  131OSM    C4S14074   1.122   0.589   6.048  0.3636  1.0006  0.2084
  131OSM    H4S14075   1.034   0.654   6.036 -0.5276 -0.1581  0.2248
  131OSM    C5S14076   1.148   0.538   6.178 -0.6183 -0.1457 -0.3611
  131OSM    H5S14077   1.240   0.479   6.194  0.6577  1.9185  0.3439
  131OSM    C6S14078   1.067   0.575   6.297  0.4694  0.6734 -0.2270
  131OSM    H6S14079   1.098   0.504   6.376  0.6617 -0.3179 -1.1749
  131OSM    H6T14080   0.962   0.560   6.263  0.4775 -0.3971  0.2072
  131OSM    C7S14081   1.107   0.725   6.329  0.1081  0.1016 -0.0741
  131OSM    H7S14082   1.093   0.789   6.240  0.8231  1.0737  0.4916
  131OSM    H7T14083   1.213   0.732   6.362 -0.1448 -0.8671  1.0183
  131OSM    C8S14084   1.012   0.789   6.433 -0.1065 -0.2616 -0.3148
  131OSM    H8S14085   1.041   0.756   6.535 -0.0982 -0.0375 -0.2439
  131OSM    H8T14086   0.910   0.765   6.396  0.2605  0.5966 -1.9811
  131OSM    C9S14087   1.030   0.942   6.429 -0.6588 -0.3400  0.4025
  131OSM    H9S14088   1.025   0.975   6.322 -1.3361  4.8808  1.7633
  131OSM    H9T14089   1.126   0.985   6.464 -0.5669 -0.8443  0.7751
  131OSM   C10S14090   0.912   1.024   6.486 -0.2508 -0.1453  0.9295
  131OSM   H10S14091   0.814   0.999   6.440  0.0877 -1.7392  1.0192
  131OSM   H10T14092   0.918   1.135   6.479 -3.4960  0.0338 -0.9614
  131OSM   C11S14093   0.900   1.009   6.632 -0.1188  1.0584 -0.6265
  131OSM   H11S14094   0.991   1.049   6.680  0.1417  2.3785 -2.1582
  131OSM   H11T14095   0.882   0.902   6.657 -0.5422  1.4650  0.9568
  131OSM   C12S14096   0.774   1.080   6.682 -0.1213  0.4496  0.8399
  131OSM   H12S14097   0.690   1.044   6.618 -0.0981 -0.5004  1.3366
  131OSM   H12T14098   0.793   1.188   6.660 -0.3924 -0.1390 -3.0986
  131OSM   C13S14099   0.751   1.054   6.836 -1.1526 -0.5028 -0.7632
  131OSM   H13S14100   0.813   1.121   6.899 -1.3559 -0.8172 -0.2311
  131OSM   H13T14101   0.768   0.950   6.869 -0.5494  0.4075  2.0839
  131OSM   C14S14102   0.603   1.088   6.864  0.4292  0.6375 -0.7180
  131OSM   H14S14103   0.543   1.002   6.825  0.7455 -1.2462  2.5591
  131OSM   H14T14104   0.572   1.188   6.827 -1.7794  0.0677 -0.6046
  131OSM   C15S14105   0.567   1.092   7.017 -0.5111  0.0674  0.7563
  131OSM   H15S14106   0.643   1.032   7.073  1.2395 -0.1417 -1.6932
  131OSM   H15T14107   0.467   1.044   7.018 -0.7354  0.5303  2.1822
  131OSM   C16S14108   0.552   1.228   7.071  0.5234 -0.1348 -0.2213
  131OSM   H16S14109   0.488   1.299   7.014  0.1512  0.2212  0.6358
  131OSM   H16T14110   0.645   1.288   7.058 -0.4296  1.1300 -1.5342
  131OSM   C17S14111   0.520   1.231   7.223 -0.4133 -0.0833  0.1093
  131OSM   H17S14112   0.608   1.197   7.280  0.0022  0.1350 -0.3910
  131OSM   H17T14113   0.437   1.160   7.242 -0.3990 -0.2421 -0.4101
  131OSM   C18S14114   0.478   1.371   7.254 -0.0599 -0.0449 -0.3142
  131OSM   H18S14115   0.558   1.439   7.218 -0.8306  0.4595 -1.1138
  131OSM   H18T14116   0.472   1.370   7.365  0.2007  0.1840 -0.2978
  131OSM   H18U14117   0.380   1.388   7.205 -1.1614  0.9664  2.0689
  131OSM    C1F14118   1.330   0.909   5.876 -0.2731 -0.7587 -0.0935
  131OSM     OF14119   1.287   0.940   5.763 -0.3962 -0.0551  0.5857
  131OSM    C2F14120   1.420   0.994   5.964 -0.0457  0.6486  0.4267
  131OSM    H2F14121   1.437   1.094   5.919 -0.2646  1.2534  1.6520
  131OSM    H2G14122   1.519   0.948   5.983 -0.0123  0.9887  1.0627
  131OSM    C3F14123   1.355   1.031   6.101  0.1183  0.0816  0.0302
  131OSM    H3F14124   1.339   0.946   6.170  2.4685 -0.5058 -0.0336
  131OSM    H3G14125   1.257   1.079   6.083  0.2235  1.3755  2.4336
  131OSM    C4F14126   1.445   1.138   6.167 -0.6357  0.5262  0.0779
  131OSM    H4F14127   1.420   1.234   6.116  0.6119  1.0536  0.4335
  131OSM    H4G14128   1.548   1.118   6.131 -0.6349  0.4515  0.1220
  131OSM    C5F14129   1.440   1.142   6.316  0.2856 -0.8086 -0.4969
  131OSM    H5F14130   1.442   1.033   6.338  0.9714 -0.7918 -0.4452
  131OSM    H5G14131   1.354   1.199   6.357  1.2263 -0.5769  1.2838
  131OSM    C6F14132   1.566   1.188   6.391 -0.3090 -0.4425 -0.1278
  131OSM    H6F14133   1.571   1.299   6.380  0.8712 -0.1786  2.3423
  131OSM    H6G14134   1.650   1.145   6.334  0.4482  0.1665  0.5080
  131OSM    C7F14135   1.578   1.144   6.541 -0.0330 -0.7453 -0.1375
  131OSM    H7F14136   1.678   1.180   6.573 -1.3085  3.0464  0.0533
  131OSM    H7G14137   1.578   1.033   6.546 -2.1425 -0.8658 -1.5150
  131OSM    C8F14138   1.468   1.201   6.635 -0.1232 -0.2153  0.3785
  131OSM    H8F14139   1.494   1.150   6.730  1.4404  1.2603  0.7921
  131OSM    H8G14140   1.373   1.157   6.598 -0.6588  2.5727 -1.9636
  131OSM    C9F14141   1.485   1.351   6.650 -0.5888  0.1131 -0.5149
  131OSM    H9F14142   1.439   1.417   6.575 -3.2948  0.6504  1.4889
  131OSM   C10F14143   1.531   1.409   6.766  0.8767 -0.3759 -0.4170
  131OSM   H10F14144   1.528   1.518   6.779  2.8127 -0.3282 -0.1315
  131OSM   C11F14145   1.569   1.334   6.892 -0.0098 -0.0399 -0.5205
  131OSM   H11F14146   1.635   1.395   6.958  1.4604 -1.4881 -0.5935
  131OSM   H11G14147   1.640   1.250   6.880  1.1977  0.9873 -0.8368
  131OSM   C12F14148   1.439   1.296   6.971  0.5138  0.3386 -0.6354
  131OSM   H12F14149   1.378   1.226   6.909  0.0948  0.9269 -0.8904
  131OSM   H12G14150   1.382   1.387   6.999  0.4019  0.2254 -0.4910
  131OSM   C13F14151   1.460   1.215   7.099 -0.6139 -0.6150  0.4692
  131OSM   H13F14152   1.370   1.217   7.166  0.0228  0.0291  1.3379
  131OSM   H13G14153   1.544   1.270   7.147 -0.2635  0.6947 -1.5244
  131OSM   C14F14154   1.516   1.078   7.078 -0.2894  0.0025 -0.5753
  131OSM   H14F14155   1.617   1.077   7.032 -1.5342  2.5633 -3.7482
  131OSM   H14G14156   1.441   1.036   7.008 -0.1415 -1.2788  0.0096
  131OSM   C15F14157   1.527   0.985   7.198  0.3152 -0.2920 -0.5622
  131OSM   H15F14158   1.434   0.991   7.258  0.4308 -4.0506  0.2883
  131OSM   H15G14159   1.613   1.007   7.265 -0.2403  0.5501 -0.1240
  131OSM   C16F14160   1.526   0.838   7.150 -0.3516  0.3629 -0.0935
  131OSM   H16F14161   1.443   0.819   7.079 -1.2220  2.8388  0.1815
  131OSM   H16G14162   1.492   0.768   7.229 -2.5785 -1.3016 -2.3722
  131OSM   C17F14163   1.664   0.797   7.098  0.2865  0.1616  0.4486
  131OSM   H17F14164   1.738   0.819   7.178 -0.7041  0.7479  1.2390
  131OSM   H17G14165   1.698   0.854   7.009  0.5734 -0.7676 -0.0456
  131OSM   C18F14166   1.683   0.650   7.061  0.9626 -0.0708 -0.6536
  131OSM   H18F14167   1.661   0.583   7.146  1.3927 -0.9942 -1.2582
  131OSM   H18G14168   1.788   0.630   7.033  0.9699  0.4821 -1.0420
  131OSM   H18H14169   1.611   0.618   6.983 -1.4565 -1.4175  1.9549
  132OSM      N14170   1.212   6.480   5.218 -0.1757 -0.1775 -0.5358
  132OSM    C1514171   1.084   6.509   5.146  0.0466  0.3444  1.0364
  132OSM   H15A14172   1.108   6.588   5.077  1.8297 -1.0676 -0.0549
  132OSM   H15B14173   0.997   6.528   5.206 -0.6390 -0.3746  0.2868
  132OSM   H15C14174   1.062   6.420   5.090 -0.4476  0.3954  1.1453
  132OSM    C1414175   1.328   6.457   5.130  0.1410  0.2774 -0.5225
  132OSM   H14A14176   1.405   6.422   5.198 -0.8877  1.7148  1.5062
  132OSM   H14B14177   1.357   6.550   5.084  0.6186  1.1895  1.4719
  132OSM   H14C14178   1.312   6.381   5.055  2.1934 -0.9155  0.1620
  132OSM    C1314179   1.248   6.594   5.308  0.5405  0.0925 -0.3575
  132OSM   H13A14180   1.250   6.689   5.257  0.2495 -0.4006 -1.2972
  132OSM   H13B14181   1.340   6.572   5.360  2.2258  2.5527 -2.0693
  132OSM   H13C14182   1.170   6.604   5.383 -0.1169  0.2817 -1.0552
  132OSM    C1214183   1.188   6.358   5.310 -0.4442  0.1436  1.3252
  132OSM   H12A14184   1.145   6.287   5.242 -0.3422  0.7611  0.6026
  132OSM   H12B14185   1.109   6.372   5.382 -0.8195 -1.7924  1.3283
  132OSM    C1114186   1.303   6.293   5.383 -0.2108  0.8165  0.7109
  132OSM   H11A14187   1.379   6.274   5.303 -1.5970  1.6636 -0.8644
  132OSM   H11B14188   1.271   6.192   5.417 -0.5915  0.2514 -1.1900
  132OSM      P14189   1.484   6.416   5.520 -0.0160  0.1302  0.4535
  132OSM    O1314190   1.575   6.304   5.507 -0.4332  0.4648  0.2440
  132OSM    O1414191   1.513   6.534   5.431 -0.2656  0.2292 -0.3363
  132OSM    O1114192   1.492   6.469   5.669 -0.6863 -0.0549 -0.0794
  132OSM    O1214193   1.336   6.372   5.496  0.1679 -0.0072 -0.6202
  132OSM    C1S14194   1.398   6.564   5.718 -0.1172  0.8563 -0.1068
  132OSM    H1S14195   1.295   6.530   5.693  0.0984  1.9042 -2.7523
  132OSM    H1T14196   1.419   6.667   5.682 -0.3045  0.4237 -1.5023
  132OSM     NF14197   1.294   6.654   5.933 -0.0866  0.4051  0.2732
  132OSM    HNF14198   1.330   6.739   5.972 -2.3205  1.9006 -0.6693
  132OSM    C2S14199   1.405   6.565   5.877  0.4815 -0.0798 -0.1000
  132OSM    H2S14200   1.398   6.467   5.928  1.5831 -1.6461 -2.7878
  132OSM    C3S14201   1.544   6.617   5.924  0.1189  0.7560  0.2376
  132OSM    H3S14202   1.552   6.723   5.891 -2.1531  0.5262 -1.3326
  132OSM     O314203   1.649   6.555   5.854 -0.3090 -0.2143  0.7502
  132OSM    HO314204   1.600   6.499   5.793 -0.2881  0.8176 -0.2476
  132OSM    C4S14205   1.557   6.607   6.074  0.1914  0.3052  0.9121
  132OSM    H4S14206   1.561   6.702   6.128  0.0776 -0.6038  2.5930
  132OSM    C5S14207   1.575   6.500   6.149  0.2650 -0.6469  0.2783
  132OSM    H5S14208   1.570   6.404   6.096 -1.7306  0.0192 -0.8359
  132OSM    C6S14209   1.599   6.495   6.292 -0.0472 -0.2753 -0.2665
  132OSM    H6S14210   1.690   6.435   6.314  0.9467  1.4737  0.5968
  132OSM    H6T14211   1.508   6.445   6.331 -1.3281 -0.4942 -3.2619
  132OSM    C7S14212   1.622   6.622   6.376  0.5213 -0.0315  0.0811
  132OSM    H7S14213   1.528   6.676   6.402 -0.3888 -1.2797 -0.5460
  132OSM    H7T14214   1.690   6.698   6.333  0.6942 -1.0258 -1.4372
  132OSM    C8S14215   1.672   6.593   6.516 -1.9017  1.0589 -0.0362
  132OSM    H8S14216   1.779   6.567   6.505 -2.1216  0.5496 -1.1539
  132OSM    H8T14217   1.627   6.503   6.562  0.8323 -0.2908  0.1809
  132OSM    C9S14218   1.677   6.722   6.596  0.3027 -0.5709 -0.5856
  132OSM    H9S14219   1.580   6.777   6.597  0.8183  0.4731 -2.4630
  132OSM    H9T14220   1.754   6.792   6.556 -0.0103 -0.4240 -0.9413
  132OSM   C10S14221   1.704   6.694   6.737 -0.1879 -0.2120  0.5991
  132OSM   H10S14222   1.802   6.645   6.756  0.5758  1.5367  1.3905
  132OSM   H10T14223   1.627   6.624   6.775  2.4156 -3.2524  0.6952
  132OSM   C11S14224   1.706   6.824   6.816 -0.2038 -0.0871  0.1722
  132OSM   H11S14225   1.609   6.877   6.814 -0.5775 -0.7675 -0.2165
  132OSM   H11T14226   1.792   6.886   6.784  1.2013 -0.6028  2.6706
  132OSM   C12S14227   1.730   6.776   6.964  0.8783 -0.2133  0.1848
  132OSM   H12S14228   1.772   6.861   7.022  2.8010 -1.0827  0.1424
  132OSM   H12T14229   1.807   6.696   6.956 -0.4656 -1.3970 -1.3306
  132OSM   C13S14230   1.610   6.731   7.044  0.4063 -1.2416  0.0984
  132OSM   H13S14231   1.609   6.620   7.046  2.8861 -1.3253 -0.0683
  132OSM   H13T14232   1.517   6.752   6.986  2.5574 -0.5559 -3.3859
  132OSM   C14S14233   1.597   6.786   7.195 -0.3716 -0.2554 -0.7019
  132OSM   H14S14234   1.547   6.885   7.190  1.0996  0.4894 -1.4344
  132OSM   H14T14235   1.701   6.808   7.228 -1.6720  2.2400  2.2140
  132OSM   C15S14236   1.510   6.708   7.298  0.5993  0.1340  0.2588
  132OSM   H15S14237   1.504   6.605   7.256 -0.7675  0.7033 -1.0236
  132OSM   H15T14238   1.409   6.753   7.285  0.5062 -0.0975  0.1783
  132OSM   C16S14239   1.560   6.725   7.442 -0.0087  0.3711 -0.8996
  132OSM   H16S14240   1.481   6.704   7.518  1.7929  0.5866  1.1434
  132OSM   H16T14241   1.594   6.829   7.463 -0.1516 -0.0039  1.5648
  132OSM   C17S14242   1.672   6.634   7.488 -0.0581  0.2718  0.2722
  132OSM   H17S14243   1.695   6.681   7.586  1.2055 -0.4680  0.3522
  132OSM   H17T14244   1.761   6.651   7.424 -1.0189  2.4525 -0.5708
  132OSM   C18S14245   1.633   6.484   7.509 -0.0823 -0.0201  0.0063
  132OSM   H18S14246   1.727   6.439   7.548  0.6295  0.2390 -1.3356
  132OSM   H18T14247   1.601   6.435   7.415  4.3605  0.8593 -2.2072
  132OSM   H18U14248   1.557   6.483   7.590 -0.3981 -0.1670 -0.2920
  132OSM    C1F14249   1.158   6.635   5.904 -0.7733  0.2710 -0.3059
  132OSM     OF14250   1.123   6.529   5.860  0.4973 -0.1940 -0.4004
  132OSM    C2F14251   1.065   6.745   5.930  0.9759  0.7020 -0.0488
  132OSM    H2F14252   1.007   6.779   5.841 -1.2966  1.3677  1.6130
  132OSM    H2G14253   1.130   6.826   5.969  2.2041 -0.2874  0.0258
  132OSM    C3F14254   0.964   6.705   6.043  0.7132 -0.2322 -0.0332
  132OSM    H3F14255   0.906   6.613   6.023  0.8069 -0.2595 -0.1784
  132OSM    H3G14256   0.891   6.788   6.037  0.1203 -0.4964  2.4436
  132OSM    C4F14257   1.030   6.689   6.179 -0.9207  0.0473 -0.4521
  132OSM    H4F14258   0.967   6.722   6.265 -1.4722  1.9210 -1.5276
  132OSM    H4G14259   1.123   6.750   6.180  0.4017 -1.8306  1.4710
  132OSM    C5F14260   1.089   6.546   6.202  0.4033  0.1541 -0.6693
  132OSM    H5F14261   1.149   6.522   6.111  1.1689  2.2241 -0.7583
  132OSM    H5G14262   1.008   6.472   6.216  0.8888 -0.0574  1.2622
  132OSM    C6F14263   1.193   6.539   6.324  0.0848  0.0104  0.3415
  132OSM    H6F14264   1.274   6.614   6.312  0.4016 -0.3525  0.1755
  132OSM    H6G14265   1.244   6.440   6.331 -0.5410 -0.4341 -0.9623
  132OSM    C7F14266   1.124   6.575   6.456 -0.0770 -1.0088 -0.1528
  132OSM    H7F14267   1.022   6.532   6.447 -1.0631  1.4739 -1.9801
  132OSM    H7G14268   1.114   6.684   6.475 -0.1244 -0.7341 -1.6610
  132OSM    C8F14269   1.196   6.524   6.582  0.5829  0.3190 -0.4242
  132OSM    H8F14270   1.226   6.418   6.566 -0.4403  0.0352 -0.5041
  132OSM    H8G14271   1.121   6.519   6.663 -0.7673  2.6223 -1.4473
  132OSM    C9F14272   1.312   6.612   6.621 -0.5112 -0.2060 -0.7389
  132OSM    H9F14273   1.390   6.621   6.544  1.8381 -0.3737  1.4876
  132OSM   C10F14274   1.326   6.672   6.738  0.1710  0.3181 -0.5389
  132OSM   H10F14275   1.419   6.728   6.754 -0.3368  0.9649  0.2313
  132OSM   C11F14276   1.218   6.675   6.848 -0.1736  0.6881  0.3868
  132OSM   H11F14277   1.118   6.682   6.800  1.6149  1.3012 -3.6287
  132OSM   H11G14278   1.240   6.769   6.903 -1.8351  1.7090 -0.6136
  132OSM   C12F14279   1.233   6.543   6.934 -0.8943 -0.4126  0.3862
  132OSM   H12F14280   1.333   6.548   6.980 -0.7073  2.0632 -0.1461
  132OSM   H12G14281   1.212   6.459   6.864  0.6405 -0.6181  0.1431
  132OSM   C13F14282   1.126   6.536   7.040 -0.2699 -0.1262  0.2309
  132OSM   H13F14283   1.112   6.635   7.089  1.2234  0.4967 -0.5228
  132OSM   H13G14284   1.148   6.469   7.125 -0.9648  1.0205  1.3452
  132OSM   C14F14285   0.990   6.490   6.991  0.2112 -0.6603  0.2263
  132OSM   H14F14286   0.993   6.388   6.948 -0.2108 -0.9327  0.8209
  132OSM   H14G14287   0.953   6.553   6.907  0.5584  2.1330  2.0261
  132OSM   C15F14288   0.884   6.493   7.109 -0.2711  0.0714  0.3787
  132OSM   H15F14289   0.891   6.598   7.145  2.1940  0.1972 -0.2978
  132OSM   H15G14290   0.895   6.422   7.194 -1.5142 -0.7915 -0.1439
  132OSM   C16F14291   0.741   6.460   7.052 -0.3880 -0.4509  0.0367
  132OSM   H16F14292   0.730   6.352   7.029  2.0155 -1.1399  1.7169
  132OSM   H16G14293   0.718   6.527   6.967 -0.7237  0.8107  1.0815
  132OSM   C17F14294   0.629   6.481   7.144 -0.1709  0.5109 -0.5261
  132OSM   H17F14295   0.530   6.470   7.094 -0.8509 -1.0514  1.0563
  132OSM   H17G14296   0.627   6.586   7.180 -1.3720 -0.6706  3.2726
  132OSM   C18F14297   0.628   6.382   7.269  0.2588  0.1047 -0.4935
  132OSM   H18F14298   0.523   6.385   7.304  0.8319 -0.2238  1.4327
  132OSM   H18G14299   0.693   6.420   7.352 -1.9678  2.4357  0.3165
  132OSM   H18H14300   0.657   6.279   7.240  1.8367 -0.2078  1.8119
  133SAPE     N14301   2.877   3.943   9.601 -0.2051 -0.1715 -0.1589
  133SAPE   HN114302   2.835   4.000   9.525 -1.0818 -0.6870 -0.0789
  133SAPE   HN214303   2.980   3.956   9.608 -0.1104 -1.3424  0.9342
  133SAPE   HN314304   2.878   3.849   9.555 -0.3586 -0.4519  0.4055
  133SAPE   C1214305   2.807   3.918   9.728 -0.3801  0.7393 -0.3713
  133SAPE  H12A14306   2.820   4.005   9.795 -0.0627  0.4217 -0.0215
  133SAPE  H12B14307   2.857   3.830   9.773 -0.7910 -0.0077 -1.3258
  133SAPE   C1114308   2.658   3.893   9.723 -0.1491 -1.0248  0.1277
  133SAPE  H11A14309   2.602   3.989   9.716 -0.0187 -0.8942  0.7641
  133SAPE  H11B14310   2.622   3.845   9.816 -0.7224  1.8605  1.5242
  133SAPE     P14311   2.489   3.752   9.570 -0.1276 -0.1004 -0.0623
  133SAPE   O1314312   2.498   3.609   9.599  0.9721  0.1699  0.0216
  133SAPE   O1414313   2.379   3.819   9.646  0.1732 -0.1541 -0.0354
  133SAPE   O1214314   2.635   3.801   9.616 -0.0099  0.4634 -1.3260
  133SAPE   O1114315   2.485   3.786   9.419  0.6623  0.0248  0.6595
  133SAPE    C114316   2.479   3.682   9.325 -0.3224  0.6719 -0.1835
  133SAPE    HA14317   2.421   3.591   9.349 -2.5736  1.8517 -0.8700
  133SAPE    HB14318   2.446   3.723   9.227 -0.1992 -1.4523 -1.1531
  133SAPE    C214319   2.620   3.626   9.284 -0.7216  0.1699 -0.5111
  133SAPE    HS14320   2.685   3.655   9.369  0.4458 -0.9284 -0.9966
  133SAPE   O2114321   2.658   3.699   9.163  0.0385 -0.1204 -0.3589
  133SAPE   C2114322   2.788   3.704   9.141  0.3520 -0.0408 -0.3137
  133SAPE   O2214323   2.867   3.663   9.227  0.1807 -0.1499 -0.2160
  133SAPE   C2214324   2.815   3.782   9.017  0.2219  0.8398 -0.5857
  133SAPE   H2R14325   2.767   3.732   8.930  1.0544 -1.4501  0.1863
  133SAPE   H2S14326   2.767   3.881   9.035 -1.6596  0.1306 -1.4013
  133SAPE    C314327   2.622   3.471   9.259 -0.0960 -0.0099  0.1369
  133SAPE    HX14328   2.582   3.427   9.352 -0.1096  1.9826  1.1208
  133SAPE    HY14329   2.725   3.430   9.251  0.7145  2.0211 -0.4167
  133SAPE   O3114330   2.536   3.446   9.154  0.3065 -0.6602  0.3316
  133SAPE   C3114331   2.595   3.436   9.034  0.3562  0.1230 -0.7601
  133SAPE   O3214332   2.716   3.438   9.015  0.0387  0.1311  0.1671
  133SAPE   C3214333   2.497   3.413   8.914 -0.6865 -0.0889 -0.5080
  133SAPE   H2X14334   2.464   3.511   8.874  0.9504  0.1762 -1.2957
  133SAPE   H2Y14335   2.410   3.358   8.956  0.1817  0.4151  2.1969
  133SAPE   C2314336   2.963   3.801   9.007  0.0516  0.0563 -0.3943
  133SAPE   H3R14337   3.004   3.842   9.101 -0.1144 -0.5793 -0.0421
  133SAPE   H3S14338   2.983   3.879   8.930  0.4900 -1.6899 -2.1338
  133SAPE   C2414339   3.043   3.678   8.962 -0.6285  0.6363  0.1356
  133SAPE   H4R14340   3.028   3.597   9.037  0.6281 -0.3748 -0.6653
  133SAPE   H4S14341   3.154   3.687   8.968 -0.5341 -0.6209  0.7241
  133SAPE   C2514342   3.006   3.637   8.822 -1.2296 -0.5978  0.3378
  133SAPE   H5R14343   2.924   3.564   8.813  0.1478 -2.0513 -1.2466
  133SAPE   C2614344   3.067   3.681   8.710  0.0306 -0.5598  0.0518
  133SAPE   H6R14345   3.032   3.633   8.617 -1.8481 -1.2045  1.0330
  133SAPE   C2714346   3.175   3.780   8.701 -0.2088 -0.4514 -0.4104
  133SAPE   H7R14347   3.173   3.857   8.780 -1.4548 -0.6210 -0.2563
  133SAPE   H7S14348   3.159   3.835   8.605 -1.1163  0.1384  0.0605
  133SAPE   C2814349   3.316   3.719   8.696  0.6113 -0.2111  0.5201
  133SAPE   H8R14350   3.361   3.699   8.794  4.2906  0.2262 -0.9199
  133SAPE   C2914351   3.391   3.669   8.601  0.2414 -0.2835 -0.3058
  133SAPE   H9R14352   3.487   3.626   8.631 -0.4543 -0.1478  2.3643
  133SAPE  C21014353   3.351   3.668   8.454  0.1430 -0.0657  0.7094
  133SAPE  H10R14354   3.378   3.766   8.408  1.3765 -0.7677 -0.1387
  133SAPE  H10S14355   3.242   3.655   8.437  0.5639 -0.4453 -2.4926
  133SAPE  C21114356   3.429   3.563   8.380 -0.1489 -0.3437 -0.8114
  133SAPE  H11R14357   3.532   3.552   8.419  0.3427  1.6602 -1.4250
  133SAPE  C21214358   3.392   3.490   8.272 -1.2731  1.0116 -0.0758
  133SAPE  H12R14359   3.463   3.422   8.223 -1.2768  0.1688  1.0308
  133SAPE  C21314360   3.257   3.484   8.212  0.2873  0.4953  0.6014
  133SAPE  H13R14361   3.266   3.421   8.121 -0.8834  0.8445  0.2289
  133SAPE  H13S14362   3.224   3.582   8.172  1.3750  0.1768 -1.1933
  133SAPE  C21414363   3.154   3.421   8.303 -0.1223 -0.2493  0.4383
  133SAPE  H14R14364   3.187   3.431   8.407  0.0279  1.3569  0.2654
  133SAPE  C21514365   3.051   3.341   8.273  0.4276 -0.3534 -0.2466
  133SAPE  H15R14366   2.996   3.300   8.360  1.3975 -0.4175  0.3531
  133SAPE  C21614367   3.005   3.304   8.132  0.3929  1.1659  0.5144
  133SAPE  H16R14368   3.050   3.366   8.052 -1.1984  1.5122 -0.1449
  133SAPE  H16S14369   2.895   3.298   8.119  0.5239 -3.6132 -0.2453
  133SAPE  C21714370   3.063   3.158   8.114 -0.1486  0.0979 -0.2782
  133SAPE  H17R14371   3.010   3.087   8.181  0.1699  1.2126  1.2086
  133SAPE  H17S14372   3.171   3.165   8.139 -0.4627 -1.1141  1.6254
  133SAPE  C21814373   3.032   3.109   7.973  0.0916  0.7710  0.2926
  133SAPE  H18R14374   3.067   3.004   7.969  0.6806  0.9334  1.0029
  133SAPE  H18S14375   3.096   3.159   7.898 -0.2559  0.4850 -0.2003
  133SAPE  C21914376   2.879   3.107   7.928  0.0638  0.1069  0.0115
  133SAPE  H19R14377   2.869   3.192   7.857  1.7238  1.3533  1.1627
  133SAPE  H19S14378   2.812   3.136   8.011 -1.7779 -0.4400 -1.2344
  133SAPE  C22014379   2.843   2.978   7.851 -0.1437  0.2792 -0.1274
  133SAPE  H20R14380   2.754   3.004   7.790  0.1654  2.8783  0.4339
  133SAPE  H20S14381   2.818   2.901   7.928 -0.1317 -1.8515 -2.1677
  133SAPE  H20T14382   2.930   2.951   7.788  0.6261 -0.0958  1.0596
  133SAPE   C3314383   2.556   3.329   8.797 -0.4097  0.2867 -0.4854
  133SAPE   H3X14384   2.485   3.283   8.725  1.1686 -1.4984 -0.9797
  133SAPE   H3Y14385   2.606   3.243   8.848  0.9663 -0.8810 -3.5659
  133SAPE   C3414386   2.676   3.392   8.717 -0.3297  0.5225  0.3513
  133SAPE   H4X14387   2.688   3.322   8.631  2.7499  1.0205  0.2569
  133SAPE   H4Y14388   2.774   3.385   8.767 -1.1220  0.5963  1.9692
  133SAPE   C3514389   2.657   3.526   8.639 -0.4651  0.6949  0.3107
  133SAPE   H5X14390   2.682   3.600   8.718  1.6021 -0.8611  1.2073
  133SAPE   H5Y14391   2.551   3.524   8.605 -0.7668 -0.1961  1.2399
  133SAPE   C3614392   2.745   3.539   8.518 -0.2405 -0.1351  0.0260
  133SAPE   H6X14393   2.723   3.479   8.426 -0.2935  2.4491 -1.7488
  133SAPE   H6Y14394   2.847   3.513   8.555  0.0878 -1.3301 -1.5917
  133SAPE   C3714395   2.744   3.681   8.459 -0.4334  0.6942 -0.3466
  133SAPE   H7X14396   2.753   3.751   8.546 -0.3182 -0.0522  0.2523
  133SAPE   H7Y14397   2.643   3.708   8.420 -0.5553  2.2873  0.9293
  133SAPE   C3814398   2.852   3.712   8.357  0.3229  0.5252 -0.1016
  133SAPE   H8X14399   2.832   3.629   8.287 -2.8188  0.6270  0.5618
  133SAPE   H8Y14400   2.951   3.695   8.405 -0.3685  1.3512  1.6869
  133SAPE   C3914401   2.834   3.849   8.290  0.0951 -0.9346 -1.0844
  133SAPE   H9X14402   2.822   3.926   8.369  0.7608 -1.4129 -0.4990
  133SAPE   H9Y14403   2.746   3.829   8.226  0.0359  0.1368 -1.3452
  133SAPE  C31014404   2.944   3.890   8.187  0.1295  0.3880 -0.3678
  133SAPE  H10X14405   2.911   3.988   8.147 -3.4084 -0.4661  0.1381
  133SAPE  H10Y14406   2.937   3.822   8.100 -2.9215  0.2508 -0.1389
  133SAPE  C31114407   3.084   3.900   8.242 -0.2839 -0.5764  0.3588
  133SAPE  H11X14408   3.113   3.803   8.288  0.1997 -0.9240 -0.6502
  133SAPE  H11Y14409   3.087   3.980   8.320  0.4591 -1.8680  1.7112
  133SAPE  C31214410   3.191   3.939   8.139 -0.4373  1.0166  0.1398
  133SAPE  H12X14411   3.222   3.856   8.073  2.1955  2.5008 -0.6373
  133SAPE  H12Y14412   3.283   3.962   8.197 -0.4145  1.9090 -0.2298
  133SAPE  C31314413   3.161   4.071   8.066 -0.6968  0.5798 -0.4241
  133SAPE  H13X14414   3.173   4.155   8.138 -3.6823  0.2978  0.5348
  133SAPE  H13Y14415   3.057   4.060   8.028 -0.7370  1.8488 -0.7205
  133SAPE  C31414416   3.255   4.103   7.943  0.2363  0.0172  0.2839
  133SAPE  H14X14417   3.285   4.011   7.888  0.1192  1.5391 -2.5003
  133SAPE  H14Y14418   3.339   4.164   7.981  2.1740 -1.8687 -0.6979
  133SAPE  C31514419   3.182   4.176   7.835  0.2330 -0.1419  0.8620
  133SAPE  H15X14420   3.136   4.266   7.883 -1.3276 -0.0965 -0.6358
  133SAPE  H15Y14421   3.100   4.114   7.795 -1.3984  1.8286  0.9554
  133SAPE  C31614422   3.270   4.224   7.721  0.8145  0.5479 -0.1103
  133SAPE  H16X14423   3.315   4.128   7.687  0.7516  0.2118  0.7095
  133SAPE  H16Y14424   3.350   4.288   7.764  0.6148 -0.4311  1.8428
  133SAPE  C31714425   3.203   4.301   7.617  0.0442  0.9904  0.3266
  133SAPE  H17X14426   3.165   4.393   7.666  0.3628  0.9994  0.5618
  133SAPE  H17Y14427   3.117   4.243   7.576 -0.1588  0.1426  1.8705
  133SAPE  C31814428   3.287   4.349   7.503 -0.2959  0.0565 -0.4143
  133SAPE  H18X14429   3.323   4.258   7.449  0.2418  0.1808 -0.2727
  133SAPE  H18Y14430   3.376   4.406   7.537 -2.0189  1.2623  2.3841
  133SAPE  H18Z14431   3.224   4.403   7.429 -1.1759 -0.7581 -0.2732
  134SAPE     N14432   4.963   2.924   9.672  0.5045 -0.4311  0.6587
  134SAPE   HN114433   4.909   2.836   9.687  2.5195 -1.8752 -0.0524
  134SAPE   HN214434   4.948   2.991   9.749 -2.0239  1.3755 -1.2295
  134SAPE   HN314435   4.921   2.982   9.597  0.6851 -0.3878  0.5902
  134SAPE   C1214436   5.111   2.912   9.651 -0.1003  0.2568 -0.2969
  134SAPE  H12A14437   5.128   2.868   9.551  0.5956  0.6556 -0.3579
  134SAPE  H12B14438   5.149   2.841   9.728  1.9730 -0.1010 -1.5726
  134SAPE   C1114439   5.168   3.050   9.653 -0.2158 -0.4233 -0.4747
  134SAPE  H11A14440   5.277   3.031   9.657 -0.4849 -1.9785  0.0545
  134SAPE  H11B14441   5.134   3.115   9.736  1.0250 -1.3186  0.7654
  134SAPE     P14442   5.061   3.228   9.478  0.1563  0.1278  0.4052
  134SAPE   O1314443   4.935   3.239   9.561 -0.3798  0.0479 -0.1556
  134SAPE   O1414444   5.154   3.348   9.491  0.3303  0.5863 -0.0188
  134SAPE   O1214445   5.139   3.103   9.521  0.1903 -0.2049  0.0087
  134SAPE   O1114446   5.021   3.187   9.337 -0.1002  0.2265 -0.0773
  134SAPE    C114447   5.065   3.064   9.272  0.3750  0.3581 -0.3065
  134SAPE    HA14448   5.039   2.975   9.334 -1.2509 -0.7991 -2.5286
  134SAPE    HB14449   5.007   3.061   9.178 -0.7959  1.0984  0.3769
  134SAPE    C214450   5.219   3.061   9.241 -0.3130  0.3395  0.0262
  134SAPE    HS14451   5.270   3.060   9.340 -0.7250 -2.5170  0.2972
  134SAPE   O2114452   5.267   3.158   9.147  0.1947  0.2315  0.0611
  134SAPE   C2114453   5.354   3.242   9.188  0.6636  0.1538 -0.1157
  134SAPE   O2214454   5.402   3.250   9.300  0.0857  0.3055  0.0528
  134SAPE   C2214455   5.402   3.318   9.066 -0.5412 -0.2270  0.0302
  134SAPE   H2R14456   5.419   3.245   8.984  0.5921 -0.3665  0.3691
  134SAPE   H2S14457   5.328   3.393   9.031 -0.1319  0.1691  0.0104
  134SAPE    C314458   5.258   2.920   9.184  0.0710 -0.5912 -0.4691
  134SAPE    HX14459   5.225   2.929   9.078 -0.1750  0.4260 -0.3190
  134SAPE    HY14460   5.208   2.839   9.241 -3.4054  0.0171 -2.3087
  134SAPE   O3114461   5.398   2.897   9.177  0.0279 -0.3624  0.0937
  134SAPE   C3114462   5.450   2.834   9.280 -0.0829 -0.2729 -0.0130
  134SAPE   O3214463   5.397   2.787   9.381 -0.0846  0.0161 -0.9579
  134SAPE   C3214464   5.604   2.845   9.259  0.0617  0.3136  0.4980
  134SAPE   H2X14465   5.621   2.927   9.185  1.0448 -0.0843  0.2593
  134SAPE   H2Y14466   5.639   2.746   9.221 -3.8297 -1.5097  1.1411
  134SAPE   C2314467   5.527   3.398   9.094  0.7702  0.4469  0.2116
  134SAPE   H3R14468   5.602   3.316   9.109 -1.6652 -1.8323  0.6389
  134SAPE   H3S14469   5.526   3.438   9.198  1.1891  0.7606  0.0959
  134SAPE   C2414470   5.577   3.497   8.993  0.0946  0.1734 -0.4526
  134SAPE   H4R14471   5.573   3.449   8.893 -0.8859 -0.9072  0.0739
  134SAPE   H4S14472   5.683   3.513   9.023 -0.1192 -0.5451  0.7431
  134SAPE   C2514473   5.501   3.626   8.998 -0.3870  0.4182 -0.0636
  134SAPE   H5R14474   5.416   3.632   9.068 -0.1457 -1.1815  0.3968
  134SAPE   C2614475   5.532   3.733   8.913 -0.6101  0.6883 -0.2164
  134SAPE   H6R14476   5.464   3.818   8.926  2.2105  3.4638 -2.2364
  134SAPE   C2714477   5.637   3.745   8.804 -0.7368 -0.8694  0.3915
  134SAPE   H7R14478   5.680   3.650   8.764  2.1244  1.1187 -1.6013
  134SAPE   H7S14479   5.723   3.804   8.841 -0.8089 -1.3722  1.4154
  134SAPE   C2814480   5.580   3.815   8.691  0.4593 -0.0598  0.0420
  134SAPE   H8R14481   5.494   3.769   8.640  1.1156 -1.2133 -0.0610
  134SAPE   C2914482   5.638   3.922   8.630 -0.2559 -0.3856 -0.1297
  134SAPE   H9R14483   5.582   3.979   8.555  1.6362 -1.5573 -2.5596
  134SAPE  C21014484   5.758   4.006   8.659 -0.0422  0.0615  0.4824
  134SAPE  H10R14485   5.797   4.045   8.562 -1.4300  1.5967  0.5022
  134SAPE  H10S14486   5.849   3.949   8.689 -0.4096 -0.4992  0.5391
  134SAPE  C21114487   5.734   4.120   8.754  0.2563 -1.3032 -0.2678
  134SAPE  H11R14488   5.757   4.092   8.858 -0.9329  0.5873  0.5498
  134SAPE  C21214489   5.691   4.244   8.717  0.6948  1.4008  0.8663
  134SAPE  H12R14490   5.683   4.319   8.797 -2.7881 -1.3862  3.4935
  134SAPE  C21314491   5.658   4.286   8.572 -0.0658  0.1382 -0.0875
  134SAPE  H13R14492   5.569   4.228   8.538  0.1037  0.5998 -1.3614
  134SAPE  H13S14493   5.741   4.257   8.505 -0.7298  1.4462 -1.5470
  134SAPE  C21414494   5.623   4.428   8.551 -0.6028 -0.6333  0.2665
  134SAPE  H14R14495   5.624   4.496   8.637  0.3046  0.2859 -0.4391
  134SAPE  C21514496   5.612   4.488   8.430  0.7591 -0.1341  0.3846
  134SAPE  H15R14497   5.574   4.592   8.426 -3.0410 -1.4253 -1.4551
  134SAPE  C21614498   5.631   4.423   8.295 -0.2017  0.6613  0.1227
  134SAPE  H16R14499   5.690   4.331   8.316  0.3033  0.8646 -0.3832
  134SAPE  H16S14500   5.689   4.491   8.228 -0.6875  0.8988 -0.0585
  134SAPE  C21714501   5.499   4.386   8.230  0.0680 -0.1730  0.0457
  134SAPE  H17R14502   5.435   4.473   8.205 -0.7262 -1.0167 -0.9160
  134SAPE  H17S14503   5.444   4.320   8.300 -0.7574 -1.5699 -1.8304
  134SAPE  C21814504   5.516   4.306   8.100  0.0746 -0.3508  0.2712
  134SAPE  H18R14505   5.544   4.201   8.123  1.9767  0.3629  1.4999
  134SAPE  H18S14506   5.596   4.365   8.050 -2.5062  2.6127 -0.7840
  134SAPE  C21914507   5.395   4.310   8.013  0.2752  0.3466 -0.4503
  134SAPE  H19R14508   5.350   4.411   8.023 -1.2405 -0.3322 -0.0696
  134SAPE  H19S14509   5.320   4.240   8.055  1.2339  0.4071  1.4928
  134SAPE  C22014510   5.409   4.284   7.865 -0.1985  0.2266 -0.4733
  134SAPE  H20R14511   5.461   4.367   7.814 -0.7902 -0.4134 -2.1983
  134SAPE  H20S14512   5.305   4.282   7.826 -0.6632  3.9906  0.1867
  134SAPE  H20T14513   5.455   4.184   7.848 -2.4991 -0.8622 -0.8347
  134SAPE   C3314514   5.679   2.897   9.386 -0.6191  0.7492 -0.2203
  134SAPE   H3X14515   5.653   2.841   9.479 -1.4744 -0.9206 -1.4170
  134SAPE   H3Y14516   5.639   3.001   9.389  1.4498  1.5743 -0.1866
  134SAPE   C3414517   5.832   2.878   9.370 -0.2087  1.0075 -0.3752
  134SAPE   H4X14518   5.864   2.772   9.374 -0.6358  0.7688 -2.1247
  134SAPE   H4Y14519   5.885   2.925   9.455 -0.6226 -1.5128  1.3661
  134SAPE   C3514520   5.887   2.917   9.231 -0.3764  0.1836  0.4564
  134SAPE   H5X14521   5.844   3.016   9.204  0.3765  0.0372 -1.4164
  134SAPE   H5Y14522   5.847   2.849   9.153 -1.1414  0.8675  0.2400
  134SAPE   C3614523   6.039   2.922   9.230 -0.1480 -0.0956  0.7211
  134SAPE   H6X14524   6.088   2.829   9.265  1.3712  0.2857 -0.3319
  134SAPE   H6Y14525   6.072   3.006   9.296  0.3900 -1.0880  1.7590
  134SAPE   C3714526   6.087   2.939   9.086 -0.0105  0.1127 -0.4499
  134SAPE   H7X14527   6.015   3.014   9.047  1.0620  2.5225  1.9022
  134SAPE   H7Y14528   6.066   2.836   9.049  2.0109 -0.1062 -1.1058
  134SAPE   C3814529   6.238   2.967   9.085  0.1029 -0.4045  0.1880
  134SAPE   H8X14530   6.283   2.887   9.148  1.3618  0.8419  0.9209
  134SAPE   H8Y14531   6.274   3.058   9.137  2.4863 -0.4024 -1.3603
  134SAPE   C3914532   6.297   2.938   8.947 -0.1033  0.4144 -0.0839
  134SAPE   H9X14533   6.230   2.863   8.901  0.7021  0.1228 -0.8167
  134SAPE   H9Y14534   6.400   2.901   8.964  0.1871  0.4469 -1.5763
  134SAPE  C31014535   6.281   3.061   8.860 -0.1704 -0.4433  0.3675
  134SAPE  H10X14536   6.363   3.125   8.900  0.3190 -0.9610  0.1885
  134SAPE  H10Y14537   6.187   3.117   8.883  0.7558  2.0027 -1.3104
  134SAPE  C31114538   6.298   3.024   8.710  0.3900  0.3350  0.0475
  134SAPE  H11X14539   6.379   2.948   8.701  0.9452  0.8276  0.7606
  134SAPE  H11Y14540   6.335   3.116   8.661 -0.2998  0.5124 -0.1439
  134SAPE  C31214541   6.162   2.963   8.646  0.0566 -0.1459  0.0703
  134SAPE  H12X14542   6.095   3.052   8.654 -1.6926 -1.1947 -2.0328
  134SAPE  H12Y14543   6.119   2.891   8.719  0.2285  0.4324  0.7512
  134SAPE  C31314544   6.176   2.925   8.500 -0.6417 -0.0983 -0.2356
  134SAPE  H13X14545   6.282   2.910   8.472 -1.0587 -2.0780 -0.8845
  134SAPE  H13Y14546   6.123   2.988   8.425  0.7650  0.4624 -0.7878
  134SAPE  C31414547   6.113   2.790   8.480 -0.0870  0.0979 -0.6086
  134SAPE  H14X14548   6.003   2.783   8.497  0.4592  0.1714  4.5217
  134SAPE  H14Y14549   6.162   2.727   8.557 -0.6511  0.3795 -0.0102
  134SAPE  C31514550   6.155   2.723   8.349  0.6938  0.2744 -0.6068
  134SAPE  H15X14551   6.266   2.711   8.343  1.0596 -0.2420  3.7256
  134SAPE  H15Y14552   6.119   2.779   8.260 -2.8415 -1.0298 -0.1191
  134SAPE  C31614553   6.097   2.578   8.340  0.1690 -0.0662 -0.7301
  134SAPE  H16X14554   5.989   2.600   8.330 -0.0697  0.0154  1.6574
  134SAPE  H16Y14555   6.118   2.537   8.441 -0.6565  0.0905 -0.4884
  134SAPE  C31714556   6.138   2.494   8.216  0.2822 -0.9163 -0.2452
  134SAPE  H17X14557   6.090   2.394   8.226 -0.7180 -0.3430  0.9701
  134SAPE  H17Y14558   6.249   2.489   8.207  0.6359  0.9913  2.1366
  134SAPE  C31814559   6.079   2.544   8.079  0.2003  0.5700 -0.5714
  134SAPE  H18X14560   6.092   2.652   8.057  2.1232 -0.0248 -2.7196
  134SAPE  H18Y14561   5.974   2.511   8.067  0.7718 -0.6944 -2.5963
  134SAPE  H18Z14562   6.132   2.486   8.001 -4.6392 -2.4959 -1.9843
  135SAPE     N14563   4.644   2.105   9.350 -0.2884 -0.1501  0.2071
  135SAPE   HN114564   4.572   2.044   9.306 -1.7382  2.2263 -0.9028
  135SAPE   HN214565   4.616   2.204   9.333 -3.0313 -0.9548 -0.4498
  135SAPE   HN314566   4.736   2.090   9.304 -0.4337  0.2457 -0.2208
  135SAPE   C1214567   4.666   2.080   9.497  0.4288  0.3432  0.0632
  135SAPE  H12A14568   4.687   1.972   9.511  1.2778  0.4217 -0.5315
  135SAPE  H12B14569   4.569   2.104   9.544 -1.0641 -1.7317 -1.7567
  135SAPE   C1114570   4.785   2.162   9.550 -0.4279  0.4207 -0.3745
  135SAPE  H11A14571   4.777   2.162   9.660 -0.3939  0.2692 -0.3712
  135SAPE  H11B14572   4.775   2.264   9.509  0.3405  0.5365 -0.2867
  135SAPE     P14573   5.048   2.139   9.558 -0.4543 -0.1004  0.0922
  135SAPE   O1314574   5.060   2.282   9.569  0.1939  0.4188 -0.5243
  135SAPE   O1414575   5.085   2.055   9.672 -0.2977 -0.4323  0.3164
  135SAPE   O1214576   4.907   2.097   9.501 -0.4361  0.9629 -0.6907
  135SAPE   O1114577   5.144   2.095   9.440  0.2962 -0.1549 -0.2985
  135SAPE    C114578   5.102   2.071   9.305 -0.1901  0.2798 -0.8507
  135SAPE    HA14579   5.193   2.040   9.248  2.1675  3.1601  1.0402
  135SAPE    HB14580   5.019   1.997   9.301 -1.6997  1.5245  2.8376
  135SAPE    C214581   5.060   2.198   9.231 -0.1322  0.3310  0.2757
  135SAPE    HS14582   4.981   2.246   9.293  0.1524 -0.1794  1.0508
  135SAPE   O2114583   5.013   2.172   9.100  0.6802  0.5453  0.6255
  135SAPE   C2114584   4.910   2.093   9.077  0.1324  0.6825  1.0048
  135SAPE   O2214585   4.842   2.038   9.161  0.9195  0.1760 -0.8051
  135SAPE   C2214586   4.884   2.053   8.926 -0.2531  0.5475 -0.6155
  135SAPE   H2R14587   4.977   2.006   8.887  0.2171  0.3288  0.7310
  135SAPE   H2S14588   4.808   1.974   8.916  0.9393 -0.6086 -0.7921
  135SAPE    C314589   5.175   2.306   9.232  0.0232 -0.1169  0.0769
  135SAPE    HX14590   5.205   2.314   9.339  2.7345 -1.2700 -0.5051
  135SAPE    HY14591   5.140   2.401   9.187 -0.4404 -0.4158 -0.2083
  135SAPE   O3114592   5.294   2.251   9.164 -0.6450 -0.3733 -0.2788
  135SAPE   C3114593   5.280   2.246   9.034  0.5397 -0.1189  0.1000
  135SAPE   O3214594   5.201   2.306   8.968  0.2852  0.1278 -0.1518
  135SAPE   C3214595   5.390   2.157   8.985 -0.0674 -0.1752 -0.1628
  135SAPE   H2X14596   5.418   2.082   9.062  0.2914  0.8947  0.7655
  135SAPE   H2Y14597   5.486   2.209   8.968 -1.9367  3.3879 -0.6533
  135SAPE   C2314598   4.844   2.178   8.843  0.0864 -0.1328 -0.6605
  135SAPE   H3R14599   4.927   2.251   8.840  0.1679 -0.2369 -1.0844
  135SAPE   H3S14600   4.755   2.221   8.893  0.0073 -2.2776  1.2232
  135SAPE   C2414601   4.803   2.137   8.702  0.3068 -0.7052 -0.5130
  135SAPE   H4R14602   4.705   2.087   8.691 -1.2486  1.9547  0.3524
  135SAPE   H4S14603   4.878   2.065   8.663 -0.0222 -1.9787  1.0707
  135SAPE   C2514604   4.784   2.266   8.629 -0.1101 -0.0874 -0.0916
  135SAPE   H5R14605   4.708   2.331   8.674  0.2801 -1.3285  2.5509
  135SAPE   C2614606   4.851   2.307   8.521  0.0953 -0.7708 -0.9745
  135SAPE   H6R14607   4.813   2.398   8.472  2.8382  0.4193 -1.1042
  135SAPE   C2714608   4.960   2.222   8.447 -0.3328  0.2499 -0.3381
  135SAPE   H7R14609   4.922   2.218   8.343 -0.6349  0.0639 -0.2237
  135SAPE   H7S14610   4.974   2.117   8.480  3.5266  0.4319 -0.9902
  135SAPE   C2814611   5.090   2.289   8.465  0.1077 -0.6291 -0.3557
  135SAPE   H8R14612   5.137   2.295   8.564  0.7932  0.1289 -0.7046
  135SAPE   C2914613   5.152   2.338   8.358  0.1823  0.4499 -0.8470
  135SAPE   H9R14614   5.257   2.368   8.376  0.8518 -1.2926 -1.6400
  135SAPE  C21014615   5.106   2.359   8.215  0.1359 -0.2752 -0.5339
  135SAPE  H10R14616   5.178   2.425   8.163 -0.5530  0.7970 -0.1485
  135SAPE  H10S14617   5.007   2.409   8.221 -0.3182 -1.2563  0.5772
  135SAPE  C21114618   5.078   2.234   8.120 -0.3503 -0.6796 -0.6151
  135SAPE  H11R14619   4.977   2.243   8.078 -0.0360  2.0339 -0.9966
  135SAPE  C21214620   5.154   2.122   8.101  0.3822  0.2623 -0.4908
  135SAPE  H12R14621   5.125   2.046   8.026  2.2297 -1.5151  0.4726
  135SAPE  C21314622   5.283   2.091   8.169 -0.3670  0.0847 -0.3195
  135SAPE  H13R14623   5.266   1.997   8.227  1.1167  0.4216  0.7488
  135SAPE  H13S14624   5.305   2.174   8.240 -2.6600  1.1369 -0.7563
  135SAPE  C21414625   5.395   2.076   8.075  0.2541 -0.0588  0.1208
  135SAPE  H14R14626   5.421   2.169   8.022 -0.6261 -0.1150 -0.4360
  135SAPE  C21514627   5.448   1.960   8.029 -0.3475 -0.2619 -0.0008
  135SAPE  H15R14628   5.519   1.959   7.945  1.0675 -0.5308  1.1743
  135SAPE  C21614629   5.406   1.824   8.081  0.1126 -0.0200 -0.8629
  135SAPE  H16R14630   5.402   1.765   7.987 -2.0385  1.5376 -1.8279
  135SAPE  H16S14631   5.301   1.816   8.114  0.7719 -0.5476  1.2776
  135SAPE  C21714632   5.497   1.744   8.177  0.3550  0.5369  0.2517
  135SAPE  H17R14633   5.605   1.752   8.149  0.9983 -0.2542  2.2905
  135SAPE  H17S14634   5.465   1.638   8.174  1.8487  0.0493  0.3566
  135SAPE  C21814635   5.498   1.790   8.327  0.8782 -0.0682  0.5020
  135SAPE  H18R14636   5.397   1.777   8.371  0.6416 -1.4094 -0.3843
  135SAPE  H18S14637   5.495   1.902   8.328 -1.0778 -0.0084 -1.5880
  135SAPE  C21914638   5.619   1.736   8.404 -0.2329 -0.3716 -0.0905
  135SAPE  H19R14639   5.714   1.786   8.374 -0.3175  0.8488  1.5089
  135SAPE  H19S14640   5.625   1.628   8.382 -0.1298 -0.5466  0.7815
  135SAPE  C22014641   5.600   1.755   8.561  0.8543  0.0823 -0.4789
  135SAPE  H20R14642   5.507   1.700   8.588  0.8834  0.2849  0.0590
  135SAPE  H20S14643   5.600   1.864   8.582 -1.8482 -0.1370  1.1854
  135SAPE  H20T14644   5.693   1.710   8.602  2.2103  1.0618 -2.3263
  135SAPE   C3314645   5.348   2.080   8.859  0.2602  0.2400 -0.8793
  135SAPE   H3X14646   5.248   2.033   8.872 -0.1720  1.4496  0.5462
  135SAPE   H3Y14647   5.410   1.988   8.850  0.0842  0.0141  0.0421
  135SAPE   C3414648   5.346   2.164   8.733  0.2736 -0.2088  0.5930
  135SAPE   H4X14649   5.254   2.223   8.718  0.2671 -0.3399  0.0980
  135SAPE   H4Y14650   5.342   2.088   8.652 -3.2222 -1.6741  1.9406
  135SAPE   C3514651   5.475   2.238   8.697  0.0913 -0.1990 -0.2022
  135SAPE   H5X14652   5.552   2.158   8.704  0.4287  0.1515  0.1871
  135SAPE   H5Y14653   5.493   2.312   8.778 -0.2951 -0.5135  0.1748
  135SAPE   C3614654   5.481   2.301   8.557  0.2037  0.4720  0.3085
  135SAPE   H6X14655   5.384   2.354   8.542  0.9036  1.3346 -1.4490
  135SAPE   H6Y14656   5.485   2.217   8.485  1.4853 -0.1445  1.0712
  135SAPE   C3714657   5.584   2.403   8.534 -0.6101 -1.0788  0.1432
  135SAPE   H7X14658   5.684   2.359   8.555  0.1558  0.3307 -0.3710
  135SAPE   H7Y14659   5.569   2.486   8.605  1.4878 -0.3494 -0.1987
  135SAPE   C3814660   5.588   2.477   8.396  0.2612  0.3336  0.0572
  135SAPE   H8X14661   5.676   2.545   8.401  2.7046 -2.3337 -2.9625
  135SAPE   H8Y14662   5.489   2.529   8.393 -0.2271 -0.4941  1.0748
  135SAPE   C3914663   5.586   2.390   8.275  0.3635  0.0131  0.1868
  135SAPE   H9X14664   5.493   2.336   8.248 -0.5476  0.7555  1.6926
  135SAPE   H9Y14665   5.671   2.321   8.290  0.7554  0.1003 -1.4332
  135SAPE  C31014666   5.626   2.478   8.147  1.0920 -0.3974 -0.7622
  135SAPE  H10X14667   5.631   2.415   8.056 -0.3054  0.8087 -1.7180
  135SAPE  H10Y14668   5.723   2.531   8.159  1.2687 -1.2499  2.6329
  135SAPE  C31114669   5.520   2.582   8.096  0.0369 -0.6001 -0.6781
  135SAPE  H11X14670   5.511   2.660   8.174  1.5901 -0.2204 -0.8400
  135SAPE  H11Y14671   5.429   2.520   8.079 -0.0970 -0.8859  0.9659
  135SAPE  C31214672   5.573   2.640   7.962 -0.1342  0.2181 -0.5732
  135SAPE  H12X14673   5.676   2.681   7.966  0.2693 -0.6180 -1.7207
  135SAPE  H12Y14674   5.509   2.726   7.937  0.1121  1.6379  3.0561
  135SAPE  C31314675   5.583   2.546   7.844 -0.0768  0.0669  0.2563
  135SAPE  H13X14676   5.502   2.470   7.849 -0.0851  0.1436  1.5755
  135SAPE  H13Y14677   5.677   2.488   7.858 -0.7467 -1.0157  0.4049
  135SAPE  C31414678   5.580   2.604   7.701 -0.0642  0.4026 -0.7560
  135SAPE  H14X14679   5.654   2.686   7.685 -2.8488  2.7212 -2.6612
  135SAPE  H14Y14680   5.482   2.653   7.683  0.0259 -0.0804 -2.7803
  135SAPE  C31514681   5.585   2.500   7.593  0.0789 -0.6000  0.1029
  135SAPE  H15X14682   5.545   2.398   7.616  1.2089 -1.2388 -0.6474
  135SAPE  H15Y14683   5.688   2.460   7.586 -0.0264 -0.6237 -1.6671
  135SAPE  C31614684   5.520   2.559   7.466 -0.3710 -0.1850 -0.5067
  135SAPE  H16X14685   5.569   2.658   7.456 -0.9019  0.3127  1.4653
  135SAPE  H16Y14686   5.410   2.571   7.464 -0.3005  1.0297  1.3443
  135SAPE  C31714687   5.551   2.456   7.356 -0.0358  0.1220  0.0790
  135SAPE  H17X14688   5.494   2.363   7.379 -2.3994  1.3971 -0.3824
  135SAPE  H17Y14689   5.659   2.429   7.362 -0.5898 -2.3975 -0.1146
  135SAPE  C31814690   5.509   2.491   7.209  0.6877  0.3902 -0.1439
  135SAPE  H18X14691   5.525   2.402   7.144  1.0914  0.9183 -0.7772
  135SAPE  H18Y14692   5.574   2.573   7.173 -2.8040  1.9188 -3.7337
  135SAPE  H18Z14693   5.404   2.525   7.199  0.1075 -1.1879  0.2138
  136SAPE     N14694   1.578   2.886   9.797  0.8582  0.9363 -0.2296
  136SAPE   HN114695   1.539   2.913   9.890  1.5014  1.2722 -0.0530
  136SAPE   HN214696   1.657   2.818   9.805 -1.0784 -1.2516  4.3188
  136SAPE   HN314697   1.610   2.976   9.758  1.7759  1.4080  1.5020
  136SAPE   C1214698   1.475   2.821   9.707  0.3321  0.0419 -0.2901
  136SAPE  H12A14699   1.478   2.873   9.608  0.0400 -1.7345 -1.2825
  136SAPE  H12B14700   1.377   2.832   9.759  0.2978 -1.1651 -0.0907
  136SAPE   C1114701   1.489   2.675   9.697 -0.5271  0.4458  0.0067
  136SAPE  H11A14702   1.476   2.624   9.796 -2.5209  0.3089 -0.2827
  136SAPE  H11B14703   1.593   2.659   9.663 -0.4243 -1.9143  1.2037
  136SAPE     P14704   1.402   2.466   9.559  0.0396  0.0007  0.2626
  136SAPE   O1314705   1.325   2.395   9.662  0.2262  0.0541 -0.0441
  136SAPE   O1414706   1.339   2.455   9.425  0.1519 -0.2816 -0.5042
  136SAPE   O1214707   1.401   2.623   9.600  0.4429  0.5409  0.3529
  136SAPE   O1114708   1.550   2.422   9.558  0.0309 -0.1368  0.3795
  136SAPE    C114709   1.658   2.470   9.474 -0.6753  0.4308  0.5074
  136SAPE    HA14710   1.651   2.578   9.450 -1.3868  0.3651  0.3841
  136SAPE    HB14711   1.745   2.467   9.542  0.5746  1.5745 -0.9669
  136SAPE    C214712   1.690   2.386   9.350 -0.1313  0.5341  0.1233
  136SAPE    HS14713   1.783   2.417   9.297  0.0129  0.0111  0.0570
  136SAPE   O2114714   1.582   2.376   9.267 -0.3281 -0.1307  0.6086
  136SAPE   C2114715   1.550   2.494   9.200  0.4329  0.3149 -0.0459
  136SAPE   O2214716   1.610   2.600   9.214 -0.5365 -0.3182 -0.0350
  136SAPE   C2214717   1.448   2.465   9.085  0.0302  0.3693 -0.8633
  136SAPE   H2R14718   1.467   2.368   9.035 -2.7103  0.2727 -1.8934
  136SAPE   H2S14719   1.351   2.452   9.137 -0.0829  0.8055 -0.9579
  136SAPE    C314720   1.718   2.238   9.395  0.7438 -0.5155 -0.2828
  136SAPE    HX14721   1.627   2.221   9.457  0.0546  2.5766 -0.2797
  136SAPE    HY14722   1.813   2.238   9.452  1.1618 -0.5511 -0.9699
  136SAPE   O3114723   1.718   2.148   9.279  0.3394  0.0375 -0.1565
  136SAPE   C3114724   1.830   2.167   9.210 -0.3307 -0.4807 -0.6849
  136SAPE   O3214725   1.922   2.243   9.239 -0.2226 -0.0639 -0.3797
  136SAPE   C3214726   1.821   2.085   9.077 -0.0028  0.5501  0.0397
  136SAPE   H2X14727   1.727   2.026   9.086  0.5904 -0.1494  2.9080
  136SAPE   H2Y14728   1.894   2.001   9.076 -2.1387 -1.4468 -1.4797
  136SAPE   C2314729   1.438   2.582   8.970  0.9850 -0.5140  0.2632
  136SAPE   H3R14730   1.539   2.596   8.924  0.8385 -2.9903 -1.0256
  136SAPE   H3S14731   1.400   2.673   9.020  1.3194 -0.5750  0.6315
  136SAPE   C2414732   1.334   2.544   8.860  0.6260 -0.7054  0.0694
  136SAPE   H4R14733   1.351   2.610   8.772  0.0572 -1.9202 -0.9812
  136SAPE   H4S14734   1.231   2.559   8.898  0.3552  0.6929 -1.1241
  136SAPE   C2514735   1.338   2.403   8.816  0.4591 -0.5449 -0.1234
  136SAPE   H5R14736   1.323   2.328   8.895 -2.1900 -0.3863 -0.4006
  136SAPE   C2614737   1.356   2.348   8.693 -0.1370  0.5207  0.1188
  136SAPE   H6R14738   1.360   2.238   8.689 -0.7405  0.4095  1.8730
  136SAPE   C2714739   1.384   2.422   8.563  0.4123  0.3833 -0.1046
  136SAPE   H7R14740   1.473   2.376   8.515 -0.3960 -1.3829  0.0339
  136SAPE   H7S14741   1.409   2.529   8.580  0.7301  0.1642  0.9315
  136SAPE   C2814742   1.254   2.414   8.491 -0.3216  0.7992  0.2943
  136SAPE   H8R14743   1.166   2.392   8.554 -0.5062  0.1729 -0.1795
  136SAPE   C2914744   1.238   2.421   8.354 -0.1720  0.3400  0.0055
  136SAPE   H9R14745   1.136   2.414   8.315  0.1408  0.3150 -0.8441
  136SAPE  C21014746   1.350   2.425   8.256 -0.9657 -0.4418 -0.7683
  136SAPE  H10R14747   1.437   2.386   8.312 -0.7988  1.1489  0.1264
  136SAPE  H10S14748   1.375   2.531   8.234 -1.7772 -0.3043 -1.0677
  136SAPE  C21114749   1.322   2.348   8.130 -0.4412 -0.5026  0.5163
  136SAPE  H11R14750   1.327   2.238   8.140  0.1955 -0.4836  0.4644
  136SAPE  C21214751   1.270   2.395   8.011  0.5976 -0.8110 -0.3003
  136SAPE  H12R14752   1.256   2.326   7.926  0.1919  2.3696 -3.0209
  136SAPE  C21314753   1.250   2.541   7.980 -0.5562 -0.0741 -0.5727
  136SAPE  H13R14754   1.346   2.590   8.007 -1.1452  1.5246 -1.2690
  136SAPE  H13S14755   1.170   2.575   8.050 -0.5558 -2.5919  0.7638
  136SAPE  C21414756   1.213   2.566   7.832 -0.2044  0.3063 -0.3093
  136SAPE  H14R14757   1.224   2.478   7.766 -1.2397 -0.2595  0.2426
  136SAPE  C21514758   1.128   2.654   7.776  0.3884  0.1316 -0.1610
  136SAPE  H15R14759   1.107   2.654   7.668 -1.8254  0.2968  0.2069
  136SAPE  C21614760   1.053   2.767   7.852  0.9089 -0.5011  0.2037
  136SAPE  H16R14761   1.106   2.863   7.831 -0.8659  0.2912 -0.8577
  136SAPE  H16S14762   1.045   2.737   7.959  0.3207 -3.1731 -0.5236
  136SAPE  C21714763   0.914   2.780   7.784 -0.7696 -0.0397  0.3909
  136SAPE  H17R14764   0.865   2.680   7.786  3.2117 -2.1847  0.6888
  136SAPE  H17S14765   0.916   2.818   7.680  1.9474  3.4072  1.5100
  136SAPE  C21814766   0.832   2.878   7.865 -0.1643  0.1713 -0.4328
  136SAPE  H18R14767   0.858   2.871   7.973  0.4742 -2.1615 -0.6842
  136SAPE  H18S14768   0.723   2.860   7.857  0.1035 -1.4775 -0.6892
  136SAPE  C21914769   0.872   3.025   7.837  0.3887  0.1161  0.0023
  136SAPE  H19R14770   0.974   3.061   7.863  0.9645 -1.5847  0.2756
  136SAPE  H19S14771   0.809   3.084   7.906  0.7266  1.9741 -1.2031
  136SAPE  C22014772   0.843   3.073   7.698  0.7488 -0.0254  0.0008
  136SAPE  H20R14773   0.735   3.067   7.672  0.9422  0.8411 -1.0568
  136SAPE  H20S14774   0.901   3.016   7.623 -0.2974 -0.4371 -0.5139
  136SAPE  H20T14775   0.875   3.179   7.688  2.0676 -0.2322  1.5962
  136SAPE   C3314776   1.846   2.175   8.954  0.4415 -0.0753  0.7372
  136SAPE   H3X14777   1.845   2.112   8.863  2.4797  0.7100  0.0990
  136SAPE   H3Y14778   1.943   2.231   8.954 -1.1668  2.9787 -0.8873
  136SAPE   C3414779   1.740   2.281   8.935  0.0229  0.3408 -0.0183
  136SAPE   H4X14780   1.744   2.356   9.016 -1.5047 -0.4596  0.8508
  136SAPE   H4Y14781   1.642   2.229   8.941  1.1347 -2.0273 -1.0936
  136SAPE   C3514782   1.746   2.357   8.801 -0.0459 -0.1579 -0.0125
  136SAPE   H5X14783   1.846   2.406   8.792 -0.1080 -0.3282 -2.0118
  136SAPE   H5Y14784   1.667   2.435   8.797 -0.5404 -0.6886 -0.8866
  136SAPE   C3614785   1.737   2.278   8.668 -0.3707 -0.6219  0.0470
  136SAPE   H6X14786   1.636   2.245   8.637 -0.8718  1.0827 -0.2071
  136SAPE   H6Y14787   1.804   2.190   8.671 -1.3417 -1.4583 -1.6087
  136SAPE   C3714788   1.777   2.373   8.559  0.1078 -0.5070  0.7779
  136SAPE   H7X14789   1.876   2.421   8.574  0.0326 -0.0859 -0.0255
  136SAPE   H7Y14790   1.713   2.463   8.568  3.2172  2.0288 -0.3504
  136SAPE   C3814791   1.784   2.305   8.420  0.0874 -0.2831  0.0522
  136SAPE   H8X14792   1.717   2.216   8.420 -0.2596 -0.0340 -0.7144
  136SAPE   H8Y14793   1.884   2.258   8.406 -0.6103 -2.0521  0.7021
  136SAPE   C3914794   1.732   2.393   8.306  0.3188 -0.5866 -0.9684
  136SAPE   H9X14795   1.763   2.500   8.311  0.5026 -0.4937 -3.1218
  136SAPE   H9Y14796   1.622   2.409   8.312  0.6006  1.0906  1.3714
  136SAPE  C31014797   1.786   2.346   8.178  0.2678 -0.1687  0.0854
  136SAPE  H10X14798   1.786   2.235   8.175 -2.1551 -0.2396  0.3531
  136SAPE  H10Y14799   1.894   2.370   8.175 -0.2691  2.4972 -0.3706
  136SAPE  C31114800   1.724   2.411   8.053 -0.6636  0.0830 -0.5162
  136SAPE  H11X14801   1.717   2.522   8.048  1.3789  0.2735  0.1787
  136SAPE  H11Y14802   1.617   2.381   8.042 -0.6363 -0.5336  0.7855
  136SAPE  C31214803   1.788   2.361   7.921  0.1519  0.0991 -0.3473
  136SAPE  H12X14804   1.767   2.252   7.923  0.2299 -0.0240 -3.0771
  136SAPE  H12Y14805   1.897   2.378   7.910  0.6470 -2.4899 -0.1193
  136SAPE  C31314806   1.723   2.420   7.800  0.0655  0.4079 -0.1578
  136SAPE  H13X14807   1.725   2.531   7.790  0.0099  0.4998  0.8220
  136SAPE  H13Y14808   1.618   2.386   7.806 -0.9095  2.4855 -3.0709
  136SAPE  C31414809   1.782   2.353   7.679 -0.9691  0.2336 -0.0580
  136SAPE  H14X14810   1.804   2.246   7.699 -2.2003 -0.1441 -0.6579
  136SAPE  H14Y14811   1.868   2.398   7.623 -0.1824 -1.0119  0.1190
  136SAPE  C31514812   1.678   2.318   7.570  0.1732 -0.4833 -0.4987
  136SAPE  H15X14813   1.638   2.416   7.536  0.0869  0.2508  1.5505
  136SAPE  H15Y14814   1.592   2.271   7.623 -1.6102  1.2307 -1.7384
  136SAPE  C31614815   1.720   2.219   7.454 -0.0922  0.8828  0.1200
  136SAPE  H16X14816   1.816   2.251   7.408  2.0098  0.4006  3.8270
  136SAPE  H16Y14817   1.640   2.208   7.377 -0.3143 -0.7688  0.5464
  136SAPE  C31714818   1.737   2.073   7.517  0.0623  0.1107  0.1465
  136SAPE  H17X14819   1.649   2.067   7.585 -0.1366  1.7614  0.0770
  136SAPE  H17Y14820   1.824   2.081   7.585 -0.5345  0.8513  0.8353
  136SAPE  C31814821   1.738   1.960   7.418 -0.3785  0.2307 -0.3210
  136SAPE  H18X14822   1.637   1.958   7.371 -0.5912  1.4567  0.0412
  136SAPE  H18Y14823   1.768   1.867   7.470  1.1557  0.8361 -0.0860
  136SAPE  H18Z14824   1.819   1.986   7.347  1.1277  0.5235  1.4423
  137SAPE     N14825   5.759   5.334   9.955  0.3045 -0.0942  0.2904
  137SAPE   HN114826   5.708   5.353   9.866  2.0977  0.4052 -0.6762
  137SAPE   HN214827   5.844   5.277   9.939  0.0372 -0.4269  0.0435
  137SAPE   HN314828   5.699   5.274  10.015  0.1086  1.1101  1.3692
  137SAPE   C1214829   5.803   5.459  10.017 -0.2665 -0.0565 -0.3954
  137SAPE  H12A14830   5.880   5.508   9.953 -0.2335  2.7467  1.6089
  137SAPE  H12B14831   5.840   5.430  10.118 -1.3504  0.8865  0.2951
  137SAPE   C1114832   5.683   5.552  10.034  0.4194  0.8232 -0.2678
  137SAPE  H11A14833   5.726   5.640  10.086  2.3986  0.1565 -0.6668
  137SAPE  H11B14834   5.601   5.516  10.100  1.1814 -0.8586 -0.1760
  137SAPE     P14835   5.658   5.689   9.797 -0.0624 -0.0801  0.0838
  137SAPE   O1314836   5.716   5.814   9.850 -0.7478  0.0500 -0.4133
  137SAPE   O1414837   5.729   5.628   9.684 -0.0351 -0.2650  0.0026
  137SAPE   O1214838   5.636   5.580   9.902 -0.0594 -0.1771 -0.6126
  137SAPE   O1114839   5.512   5.717   9.740  0.2134 -0.2603 -0.1820
  137SAPE    C114840   5.401   5.634   9.757 -0.0001 -0.1978  0.4884
  137SAPE    HA14841   5.398   5.602   9.863  0.3767  2.8140  1.5123
  137SAPE    HB14842   5.306   5.687   9.735  0.7396  1.4544  1.1435
  137SAPE    C214843   5.407   5.511   9.663  0.1376 -0.5497 -0.1022
  137SAPE    HS14844   5.491   5.451   9.706  0.9372  2.4339  2.9914
  137SAPE   O2114845   5.436   5.556   9.529 -0.3305  0.3022 -0.2460
  137SAPE   C2114846   5.505   5.475   9.443  0.4353 -0.2203  0.1725
  137SAPE   O2214847   5.543   5.366   9.475  0.5214  0.5553  1.0240
  137SAPE   C2214848   5.531   5.553   9.313  0.6429  0.6987 -0.1362
  137SAPE   H2R14849   5.497   5.656   9.334 -1.6089  0.2496 -1.3038
  137SAPE   H2S14850   5.642   5.553   9.306  0.7086 -2.1031 -0.4491
  137SAPE    C314851   5.280   5.419   9.668  0.5435 -0.5030 -0.9488
  137SAPE    HX14852   5.266   5.392   9.775  1.7905 -0.0485 -0.6543
  137SAPE    HY14853   5.299   5.323   9.615 -2.8373 -1.9506  0.1783
  137SAPE   O3114854   5.157   5.477   9.617 -0.6108 -0.0224  0.2088
  137SAPE   C3114855   5.139   5.451   9.490  0.1710 -0.3646  0.1444
  137SAPE   O3214856   5.211   5.383   9.420  1.1971 -0.7488 -0.4161
  137SAPE   C3214857   5.001   5.502   9.455 -0.0979  0.5840 -0.2248
  137SAPE   H2X14858   5.008   5.611   9.434  0.5953  0.8878  1.4501
  137SAPE   H2Y14859   4.943   5.485   9.549  0.7299  0.9321  0.3567
  137SAPE   C2314860   5.466   5.470   9.199 -0.0512  0.2012 -0.1878
  137SAPE   H3R14861   5.366   5.427   9.224 -1.5730  3.5484  0.0625
  137SAPE   H3S14862   5.529   5.381   9.177  0.6277  0.4023  0.8951
  137SAPE   C2414863   5.434   5.561   9.077 -0.0585 -0.8091  0.0362
  137SAPE   H4R14864   5.531   5.591   9.033  0.9075 -1.1017  1.8533
  137SAPE   H4S14865   5.381   5.653   9.110 -1.6638 -0.9797 -1.8963
  137SAPE   C2514866   5.340   5.501   8.979  0.6436  0.3290  0.2770
  137SAPE   H5R14867   5.256   5.450   9.029  0.9854 -1.0446 -0.4831
  137SAPE   C2614868   5.332   5.516   8.846 -0.2503 -0.3046 -0.2138
  137SAPE   H6R14869   5.256   5.462   8.788  0.9284 -1.8012 -0.4288
  137SAPE   C2714870   5.431   5.595   8.761  0.0065 -0.3282 -0.4874
  137SAPE   H7R14871   5.512   5.633   8.827  0.2912 -0.2924 -0.8567
  137SAPE   H7S14872   5.389   5.672   8.693  2.7617 -1.1368 -3.3030
  137SAPE   C2814873   5.520   5.499   8.681  1.5072 -0.0280  0.9452
  137SAPE   H8R14874   5.591   5.436   8.736  1.1217 -0.8885  0.4831
  137SAPE   C2914875   5.512   5.490   8.546  0.4589 -0.1331  0.4906
  137SAPE   H9R14876   5.569   5.411   8.496  2.3999  0.5054  1.6065
  137SAPE  C21014877   5.420   5.563   8.451  0.2315 -0.6133 -0.2573
  137SAPE  H10R14878   5.370   5.644   8.509  1.7341  0.7401 -0.7663
  137SAPE  H10S14879   5.344   5.490   8.417 -0.1789  0.7042 -2.3563
  137SAPE  C21114880   5.480   5.625   8.329 -0.0644 -0.0398  0.9453
  137SAPE  H11R14881   5.503   5.731   8.346 -1.4119  0.0536  2.4348
  137SAPE  C21214882   5.494   5.567   8.208 -0.0906 -0.0832  0.1541
  137SAPE  H12R14883   5.537   5.626   8.127  0.5220  2.5658  2.2774
  137SAPE  C21314884   5.454   5.428   8.171  0.1427  0.1414  0.3156
  137SAPE  H13R14885   5.385   5.386   8.248  0.6626 -1.6135 -0.1393
  137SAPE  H13S14886   5.547   5.368   8.175  0.2888  0.2880 -0.7165
  137SAPE  C21414887   5.385   5.411   8.036  0.2577 -0.2001 -0.0396
  137SAPE  H14R14888   5.281   5.446   8.029  0.2319 -0.7106 -4.3349
  137SAPE  C21514889   5.450   5.391   7.920  0.1255  0.2689  0.4564
  137SAPE  H15R14890   5.397   5.368   7.826  2.4132 -0.8845 -0.6431
  137SAPE  C21614891   5.598   5.377   7.905 -0.0674  0.2758  0.2372
  137SAPE  H16R14892   5.640   5.308   7.980 -2.2070 -0.7705  0.5707
  137SAPE  H16S14893   5.637   5.477   7.933 -0.2804  0.9391 -1.7030
  137SAPE  C21714894   5.650   5.344   7.767 -0.8674  0.2648 -0.0566
  137SAPE  H17R14895   5.617   5.422   7.695  0.3851  1.2489  0.3986
  137SAPE  H17S14896   5.619   5.247   7.723 -2.4165  0.0018  1.4878
  137SAPE  C21814897   5.804   5.327   7.776 -0.0661 -0.0063 -0.0365
  137SAPE  H18R14898   5.819   5.235   7.837 -0.6214 -0.3046 -0.3453
  137SAPE  H18S14899   5.849   5.418   7.820  0.2055 -0.6870  1.1427
  137SAPE  C21914900   5.880   5.305   7.639  0.5509 -0.3232  0.9329
  137SAPE  H19R14901   5.986   5.288   7.668  0.7279  0.2839  0.6592
  137SAPE  H19S14902   5.881   5.407   7.594 -1.1366 -0.4798  0.4654
  137SAPE  C22014903   5.835   5.206   7.533 -0.0022 -0.1128  1.0741
  137SAPE  H20R14904   5.734   5.245   7.508  0.1984  0.1940  0.7207
  137SAPE  H20S14905   5.821   5.103   7.571  2.7339 -0.1982  2.0638
  137SAPE  H20T14906   5.906   5.209   7.447 -0.0720  1.2575  1.0406
  137SAPE   C3314907   4.924   5.427   9.338  0.0689  0.2630 -0.2214
  137SAPE   H3X14908   4.823   5.472   9.323  1.2929  3.1866 -0.3253
  137SAPE   H3Y14909   4.897   5.323   9.365 -0.4300  0.2847 -0.6001
  137SAPE   C3414910   5.001   5.416   9.207 -0.1724  0.2111 -0.0391
  137SAPE   H4X14911   5.083   5.341   9.216 -1.9726 -1.7488  1.1749
  137SAPE   H4Y14912   5.028   5.520   9.180  0.2903  0.4121  1.1331
  137SAPE   C3514913   4.912   5.367   9.082 -0.2092  0.6690 -0.4908
  137SAPE   H5X14914   4.836   5.447   9.077  1.4978  2.5356  1.2852
  137SAPE   H5Y14915   4.857   5.274   9.110  0.5405  0.7428  1.4343
  137SAPE   C3614916   4.995   5.357   8.956  0.6717  0.0927 -0.4199
  137SAPE   H6X14917   5.092   5.306   8.977  1.2090  0.6441 -1.4690
  137SAPE   H6Y14918   5.026   5.460   8.928 -0.9353  0.0289 -2.6868
  137SAPE   C3714919   4.908   5.289   8.847 -0.3916 -0.2060  0.1101
  137SAPE   H7X14920   4.822   5.358   8.833  0.1880  0.9853  2.0521
  137SAPE   H7Y14921   4.864   5.193   8.880 -0.1033  0.2698  2.0006
  137SAPE   C3814922   4.983   5.276   8.704 -0.0242 -0.2580  0.1370
  137SAPE   H8X14923   5.028   5.376   8.686 -1.7218  0.7793  1.3074
  137SAPE   H8Y14924   4.901   5.257   8.631 -0.8696 -1.2230  1.2863
  137SAPE   C3914925   5.076   5.157   8.690  0.8435 -0.4322 -0.4941
  137SAPE   H9X14926   5.025   5.065   8.726 -1.3018  0.2807 -1.5972
  137SAPE   H9Y14927   5.167   5.176   8.752 -0.2409  2.0123  0.4772
  137SAPE  C31014928   5.096   5.133   8.539  0.0162 -0.1660 -0.0002
  137SAPE  H10X14929   5.150   5.209   8.479 -1.5203 -0.7524 -2.2423
  137SAPE  H10Y14930   5.003   5.125   8.479 -0.5143  1.4339  0.5625
  137SAPE  C31114931   5.165   4.996   8.533 -0.0158  0.4799  0.0481
  137SAPE  H11X14932   5.091   4.921   8.568 -0.4350  0.5191 -0.7251
  137SAPE  H11Y14933   5.253   4.989   8.600  0.0195 -0.6865 -0.0865
  137SAPE  C31214934   5.198   4.949   8.389 -0.6709 -0.9711 -0.2913
  137SAPE  H12X14935   5.248   5.029   8.330 -2.1019  0.2926  0.1566
  137SAPE  H12Y14936   5.097   4.942   8.345 -1.3344  1.6976  0.5883
  137SAPE  C31314937   5.283   4.825   8.374  0.3070  0.1121 -0.6418
  137SAPE  H13X14938   5.261   4.764   8.464 -1.3532  1.7055  0.1028
  137SAPE  H13Y14939   5.391   4.847   8.371  0.0386  1.4469 -1.1251
  137SAPE  C31414940   5.252   4.743   8.254  0.4451 -0.6891 -0.0141
  137SAPE  H14X14941   5.143   4.723   8.265  0.2285 -1.2898 -2.5632
  137SAPE  H14Y14942   5.300   4.643   8.253  3.6188  0.7340  0.4694
  137SAPE  C31514943   5.268   4.818   8.121  0.1601 -0.0130 -0.2898
  137SAPE  H15X14944   5.359   4.881   8.116  1.3805 -1.5460  1.2036
  137SAPE  H15Y14945   5.184   4.890   8.120 -0.7114 -1.0149 -0.8388
  137SAPE  C31614946   5.267   4.732   7.992 -0.5516 -0.8049 -0.1921
  137SAPE  H16X14947   5.369   4.692   7.979  0.4086  1.7134 -1.0755
  137SAPE  H16Y14948   5.237   4.802   7.910 -1.8675 -1.4226 -0.2685
  137SAPE  C31714949   5.170   4.619   7.984 -0.0454  0.6162  0.0365
  137SAPE  H17X14950   5.065   4.644   8.009  0.0718 -0.0189  1.2402
  137SAPE  H17Y14951   5.196   4.542   8.060 -1.4389  0.2529  0.1718
  137SAPE  C31814952   5.182   4.543   7.847 -0.1618 -0.1776 -0.6223
  137SAPE  H18X14953   5.287   4.541   7.811 -0.1935  0.8019 -0.7740
  137SAPE  H18Y14954   5.110   4.592   7.778 -0.9237  1.4722  1.2481
  137SAPE  H18Z14955   5.140   4.441   7.865 -0.6625  0.2013  0.4367
  138SAPE     N14956   2.549   5.690   9.668  0.4117  0.0384 -0.5883
  138SAPE   HN114957   2.565   5.705   9.567 -0.7293 -0.2072 -0.8228
  138SAPE   HN214958   2.538   5.588   9.685  0.5770  0.2209  0.8105
  138SAPE   HN314959   2.467   5.741   9.708  0.2655 -1.2541  0.8630
  138SAPE   C1214960   2.663   5.742   9.749 -0.4595  0.8644 -0.7954
  138SAPE  H12A14961   2.755   5.715   9.694 -0.8879  0.9617 -1.5652
  138SAPE  H12B14962   2.649   5.706   9.854  0.5885  1.8206 -0.3062
  138SAPE   C1114963   2.665   5.888   9.762  0.1420 -0.5602  0.2794
  138SAPE  H11A14964   2.745   5.927   9.828  0.6587  2.8239 -2.1084
  138SAPE  H11B14965   2.571   5.920   9.812 -0.0645 -0.8399  0.0738
  138SAPE     P14966   2.730   6.082   9.598 -0.1364  0.0099 -0.1146
  138SAPE   O1314967   2.624   6.180   9.638  0.4116  0.4215  0.2101
  138SAPE   O1414968   2.856   6.085   9.675  0.2592  0.6013  0.5794
  138SAPE   O1214969   2.669   5.940   9.629 -0.9588 -0.1979  0.5700
  138SAPE   O1114970   2.754   6.087   9.447  0.5842 -0.8630  0.0663
  138SAPE    C114971   2.785   5.968   9.369  0.0916  0.2214 -0.4112
  138SAPE    HA14972   2.711   5.889   9.392 -1.5553  1.3868 -1.5099
  138SAPE    HB14973   2.764   5.988   9.262 -0.0997  0.8065 -0.2662
  138SAPE    C214974   2.933   5.908   9.388  0.2532 -0.2125  0.1351
  138SAPE    HS14975   2.937   5.884   9.497 -2.6441 -1.4349  0.0605
  138SAPE   O2114976   3.036   6.001   9.348  0.5916  0.2631 -0.1810
  138SAPE   C2114977   3.113   6.051   9.443 -0.2194 -0.5977  0.4757
  138SAPE   O2214978   3.124   6.026   9.558  0.1820 -0.0004 -0.7880
  138SAPE   C2214979   3.196   6.156   9.365  0.4611  0.2837  0.3432
  138SAPE   H2R14980   3.229   6.109   9.270 -1.9088  0.1072 -0.4675
  138SAPE   H2S14981   3.123   6.235   9.337  0.8109 -0.0498 -1.7013
  138SAPE    C314982   2.957   5.771   9.314 -0.2648 -0.1575  0.3007
  138SAPE    HX14983   2.896   5.695   9.368 -1.6441  1.2368  0.7919
  138SAPE    HY14984   3.064   5.746   9.331 -0.6466 -0.4711  2.6542
  138SAPE   O3114985   2.910   5.778   9.179 -0.6925 -0.3649 -0.1789
  138SAPE   C3114986   3.002   5.819   9.094 -0.3293  0.0712  0.1514
  138SAPE   O3214987   3.119   5.834   9.124 -0.2019  0.0788  0.4403
  138SAPE   C3214988   2.943   5.848   8.957  0.6664 -0.6646  0.1466
  138SAPE   H2X14989   2.881   5.761   8.926  0.1101 -0.8337  1.6724
  138SAPE   H2Y14990   3.019   5.861   8.877  1.1612 -2.1528  0.3479
  138SAPE   C2314991   3.301   6.224   9.454  0.1437 -0.8789 -0.0988
  138SAPE   H3R14992   3.377   6.146   9.477  2.0774  0.0750 -2.8063
  138SAPE   H3S14993   3.246   6.252   9.547 -1.9209  1.4309 -1.8776
  138SAPE   C2414994   3.371   6.345   9.398 -0.5045  0.7757 -0.1439
  138SAPE   H4R14995   3.423   6.327   9.301 -0.1646  1.0466 -0.0174
  138SAPE   H4S14996   3.459   6.371   9.462 -1.2365 -0.0084  1.2087
  138SAPE   C2514997   3.281   6.466   9.391  0.3624 -0.4988 -0.3500
  138SAPE   H5R14998   3.245   6.502   9.488  2.4930  0.8746 -0.0109
  138SAPE   C2614999   3.215   6.521   9.285  0.6353  0.0264  0.2866
  138SAPE   H6R15000   3.138   6.598   9.296  0.1612 -0.6528  2.0733
  138SAPE   C2715001   3.240   6.487   9.142  0.4274 -0.0415  0.1152
  138SAPE   H7R15002   3.176   6.555   9.083  0.5463  0.1872  0.2449
  138SAPE   H7S15003   3.205   6.388   9.106  1.0697 -1.1945  2.4977
  138SAPE   C2815004   3.380   6.499   9.078 -0.7094  0.2879 -0.0548
  138SAPE   H8R15005   3.464   6.509   9.149 -1.2291  2.5385  0.3143
  138SAPE   C2915006   3.406   6.502   8.945  0.2227 -0.6373 -0.7372
  138SAPE   H9R15007   3.513   6.505   8.919  0.4309  0.7743  0.1460
  138SAPE  C21015008   3.310   6.504   8.830  1.0645  0.3392 -0.1268
  138SAPE  H10R15009   3.204   6.505   8.860 -0.0068  2.8647 -3.3472
  138SAPE  H10S15010   3.323   6.407   8.777  4.8863 -0.5751  2.0984
  138SAPE  C21115011   3.338   6.636   8.756  1.1263  0.2597  0.8477
  138SAPE  H11R15012   3.315   6.730   8.807  1.6119  0.4119  0.7933
  138SAPE  C21215013   3.365   6.644   8.625 -0.4576 -0.4450  0.7024
  138SAPE  H12R15014   3.395   6.741   8.582 -1.7472 -0.4493 -0.2674
  138SAPE  C21315015   3.381   6.532   8.530 -0.7850 -0.3436 -0.1074
  138SAPE  H13R15016   3.318   6.570   8.447 -0.6876  0.5933  0.2322
  138SAPE  H13S15017   3.336   6.434   8.557  0.9176 -1.4129 -1.0120
  138SAPE  C21415018   3.530   6.492   8.502 -0.3141 -0.1991 -0.0848
  138SAPE  H14R15019   3.565   6.436   8.590 -0.0855 -0.0918 -0.1073
  138SAPE  C21515020   3.608   6.512   8.398  0.1739 -0.0799  0.2409
  138SAPE  H15R15021   3.703   6.457   8.397 -0.2852 -0.9465 -1.9466
  138SAPE  C21615022   3.561   6.570   8.260 -0.0724  0.1805  0.2095
  138SAPE  H16R15023   3.579   6.679   8.256 -1.9966  0.4994 -0.3927
  138SAPE  H16S15024   3.454   6.556   8.236  0.1015 -0.3020 -0.3016
  138SAPE  C21715025   3.647   6.501   8.144 -1.1889 -0.6989  0.3684
  138SAPE  H17R15026   3.614   6.530   8.042  0.4949 -0.3144 -0.0977
  138SAPE  H17S15027   3.648   6.391   8.161  3.1334 -0.5764  2.1937
  138SAPE  C21815028   3.793   6.546   8.132  0.0938  0.2187 -0.3301
  138SAPE  H18R15029   3.836   6.518   8.231  1.4564  0.0638 -0.9382
  138SAPE  H18S15030   3.806   6.654   8.110  1.8921  0.4291  1.4226
  138SAPE  C21915031   3.867   6.469   8.023  0.1602 -0.4339  0.8501
  138SAPE  H19R15032   3.967   6.519   8.016 -0.1821  0.6285  2.7290
  138SAPE  H19S15033   3.811   6.495   7.930  0.5451 -0.4809  0.6032
  138SAPE  C22015034   3.872   6.321   8.031 -0.5349  0.3569  0.6129
  138SAPE  H20R15035   3.930   6.278   7.946 -2.4671 -0.4958 -0.3329
  138SAPE  H20S15036   3.770   6.277   8.030 -0.1917 -0.7001 -3.1380
  138SAPE  H20T15037   3.923   6.291   8.124 -1.6058  2.7846  2.0756
  138SAPE   C3315038   2.858   5.978   8.971  0.6261 -0.1402  0.1632
  138SAPE   H3X15039   2.779   5.974   9.050  0.0364 -4.0144 -0.4238
  138SAPE   H3Y15040   2.819   6.005   8.871  1.7224 -0.3307 -0.3269
  138SAPE   C3415041   2.938   6.105   8.995  0.4636  0.0807 -0.2752
  138SAPE   H4X15042   2.974   6.100   9.101  0.5631 -1.5034 -0.3526
  138SAPE   H4Y15043   2.872   6.194   8.989  1.5797  1.0231  0.6812
  138SAPE   C3515044   3.053   6.123   8.893  0.2915 -0.1862 -0.0981
  138SAPE   H5X15045   3.130   6.043   8.889  2.5630  1.8955 -1.0058
  138SAPE   H5Y15046   3.110   6.216   8.915  1.2044 -0.2726 -1.8906
  138SAPE   C3615047   2.999   6.144   8.748 -0.3076  0.3417 -0.1391
  138SAPE   H6X15048   2.899   6.191   8.755 -0.4125  0.5898 -2.4075
  138SAPE   H6Y15049   2.966   6.050   8.698  1.4336 -0.3168 -0.1224
  138SAPE   C3715050   3.079   6.234   8.650 -0.7877  0.4681  0.1778
  138SAPE   H7X15051   3.184   6.196   8.650 -1.7504 -2.4502 -0.5260
  138SAPE   H7Y15052   3.089   6.341   8.676 -1.0198  0.3101  0.9500
  138SAPE   C3815053   3.015   6.224   8.510  0.1553 -0.0276 -0.0700
  138SAPE   H8X15054   2.908   6.247   8.527  0.8074  3.0119  0.4909
  138SAPE   H8Y15055   3.020   6.121   8.470  0.4010  0.7748 -2.2630
  138SAPE   C3915056   3.071   6.322   8.403  0.1040  0.4942 -0.4564
  138SAPE   H9X15057   3.173   6.288   8.372 -1.3263 -2.7156 -2.1876
  138SAPE   H9Y15058   3.072   6.419   8.457 -0.3807  0.0813  0.2923
  138SAPE  C31015059   2.986   6.337   8.281 -0.4065 -0.1992 -0.1332
  138SAPE  H10X15060   2.886   6.368   8.319 -0.2912  1.2790 -0.9897
  138SAPE  H10Y15061   2.968   6.238   8.234 -0.4219 -0.0463 -0.4441
  138SAPE  C31115062   3.052   6.442   8.194 -0.2031 -0.8965  0.0736
  138SAPE  H11X15063   3.153   6.404   8.170 -0.1427 -0.6565 -0.0520
  138SAPE  H11Y15064   3.067   6.530   8.261  0.3734 -1.9387  1.3420
  138SAPE  C31215065   2.973   6.470   8.072  0.4980  0.3233  0.4338
  138SAPE  H12X15066   2.879   6.511   8.115  1.7398  4.0247 -0.0419
  138SAPE  H12Y15067   2.954   6.371   8.025  1.6409 -0.1663  0.9730
  138SAPE  C31315068   3.031   6.573   7.967  0.2402 -0.1299 -0.7929
  138SAPE  H13X15069   3.142   6.573   7.972  0.2970 -0.2971 -1.8541
  138SAPE  H13Y15070   3.002   6.679   7.988 -0.7354  0.0809 -2.9391
  138SAPE  C31415071   2.980   6.537   7.825  0.6313 -0.7436  0.0014
  138SAPE  H14X15072   2.871   6.557   7.833  0.7406 -0.7498  1.9329
  138SAPE  H14Y15073   2.987   6.426   7.818 -2.3487 -0.9653 -0.7072
  138SAPE  C31515074   3.058   6.589   7.706 -0.2094 -0.1711 -0.9078
  138SAPE  H15X15075   3.159   6.543   7.713  0.1270  0.7088  0.6486
  138SAPE  H15Y15076   3.089   6.696   7.707  0.3772 -0.3269  0.2625
  138SAPE  C31615077   2.996   6.572   7.573  0.7119  0.0302 -0.1884
  138SAPE  H16X15078   3.080   6.573   7.501  0.7640  0.4649 -0.1235
  138SAPE  H16Y15079   2.932   6.662   7.570 -0.2105 -0.4195  2.8238
  138SAPE  C31715080   2.898   6.456   7.543 -0.0256  0.2264  0.0642
  138SAPE  H17X15081   2.804   6.478   7.599 -0.9116  1.0226 -1.6680
  138SAPE  H17Y15082   2.933   6.355   7.571 -0.2424  0.3460  0.7985
  138SAPE  C31815083   2.854   6.462   7.402 -0.1933 -0.1549  0.1070
  138SAPE  H18X15084   2.785   6.548   7.387  0.3655  0.1553 -0.8163
  138SAPE  H18Y15085   2.817   6.361   7.372  0.9938 -0.6201  0.1506
  138SAPE  H18Z15086   2.936   6.490   7.332  0.9691  0.4386  1.6547
  139SAPE     N15087   2.201   6.262   9.830  0.1450 -0.3259  0.5153
  139SAPE   HN115088   2.266   6.181   9.830  0.2426 -0.2522  1.4562
  139SAPE   HN215089   2.245   6.355   9.818 -0.4704 -0.0923  0.0105
  139SAPE   HN315090   2.160   6.252   9.925  1.0762 -0.6094  0.9054
  139SAPE   C1215091   2.099   6.245   9.727  0.3713 -0.1277 -0.3007
  139SAPE  H12A15092   2.135   6.281   9.628 -0.8856  1.7661 -0.1002
  139SAPE  H12B15093   2.010   6.305   9.754  0.0038 -0.1079 -1.4713
  139SAPE   C1115094   2.064   6.093   9.717  0.0332 -0.0554 -0.5614
  139SAPE  H11A15095   2.008   6.068   9.625 -2.4075 -3.4744  1.6271
  139SAPE  H11B15096   1.993   6.065   9.798 -1.5944 -0.4392 -2.0789
  139SAPE     P15097   2.194   5.861   9.678  0.2009 -0.1518  0.0300
  139SAPE   O1315098   2.317   5.792   9.724 -0.3599 -0.1842  0.5918
  139SAPE   O1415099   2.074   5.781   9.695 -0.6274  0.3216 -0.4082
  139SAPE   O1215100   2.180   6.004   9.740 -0.9575  0.3056 -0.2434
  139SAPE   O1115101   2.216   5.900   9.528 -0.0754  0.2623 -0.0049
  139SAPE    C115102   2.339   5.977   9.499 -0.4406  0.4700 -0.2033
  139SAPE    HA15103   2.375   6.049   9.575 -0.7222 -0.1588  0.5316
  139SAPE    HB15104   2.420   5.910   9.462 -0.5004  0.7874 -0.9437
  139SAPE    C215105   2.312   6.069   9.376  0.3566  0.1439  0.2427
  139SAPE    HS15106   2.238   6.146   9.408 -1.2622 -0.3940 -1.9926
  139SAPE   O2115107   2.270   5.979   9.269 -0.2675  0.0164 -0.2857
  139SAPE   C2115108   2.160   6.028   9.199  0.0692  0.2446 -0.2888
  139SAPE   O2215109   2.124   6.141   9.216  0.1954 -0.2364  0.5183
  139SAPE   C2215110   2.109   5.923   9.099 -0.0159 -0.3648  0.3512
  139SAPE   H2R15111   2.199   5.881   9.050 -0.3355 -0.0307 -0.5506
  139SAPE   H2S15112   2.072   5.836   9.157  4.0664 -0.8390  2.6200
  139SAPE    C315113   2.445   6.144   9.330  0.1829  0.5410 -0.9500
  139SAPE    HX15114   2.525   6.067   9.323  0.9580  0.5034  4.0377
  139SAPE    HY15115   2.461   6.221   9.409 -2.7879  0.7164 -0.4022
  139SAPE   O3115116   2.426   6.208   9.200  0.4328  0.4894 -0.6660
  139SAPE   C3115117   2.531   6.223   9.129  0.3475  0.0369 -0.2280
  139SAPE   O3215118   2.646   6.206   9.167  0.3722 -0.0891  0.2237
  139SAPE   C3215119   2.479   6.270   8.987  0.1270 -0.4212  0.3022
  139SAPE   H2X15120   2.471   6.381   8.988  0.6640 -0.3792  0.0303
  139SAPE   H2Y15121   2.382   6.217   8.979 -1.0379  1.6313  0.1512
  139SAPE   C2315122   2.001   5.954   8.987 -0.6171 -0.1999  0.2779
  139SAPE   H3R15123   1.930   6.023   9.037  2.1769  0.2766  4.0787
  139SAPE   H3S15124   1.950   5.865   8.945  1.7382 -1.9401  0.8734
  139SAPE   C2415125   2.045   6.018   8.849 -0.2080  0.4361 -0.0310
  139SAPE   H4R15126   1.965   5.994   8.776  0.8597 -2.1361 -0.4600
  139SAPE   H4S15127   2.136   5.967   8.811 -0.6198  0.0553 -0.5277
  139SAPE   C2515128   2.059   6.172   8.859  0.0454 -0.3652  1.2455
  139SAPE   H5R15129   2.014   6.226   8.943 -0.4521  2.2688 -0.5772
  139SAPE   C2615130   2.101   6.245   8.752 -0.2143 -0.1884 -0.1423
  139SAPE   H6R15131   2.102   6.355   8.758  1.4278 -0.2483  1.5598
  139SAPE   C2715132   2.133   6.187   8.615 -0.5535  0.3523  0.3316
  139SAPE   H7R15133   2.202   6.101   8.626 -1.9325 -0.7533  0.6520
  139SAPE   H7S15134   2.203   6.257   8.565  1.4156  0.4188  2.9469
  139SAPE   C2815135   2.015   6.149   8.533 -0.1715  0.1241  0.2673
  139SAPE   H8R15136   1.913   6.164   8.571 -1.2577 -1.7559 -1.6726
  139SAPE   C2915137   2.029   6.086   8.414 -0.3960 -0.5128  0.0760
  139SAPE   H9R15138   1.939   6.044   8.368 -0.5275  0.8483 -0.9794
  139SAPE  C21015139   2.159   6.041   8.351  0.3608  0.9531  0.0416
  139SAPE  H10R15140   2.196   5.948   8.397 -1.1543  0.3814  0.1479
  139SAPE  H10S15141   2.234   6.121   8.371  1.0705  0.3510 -0.1456
  139SAPE  C21115142   2.162   6.026   8.203  0.2049  0.5049 -0.2452
  139SAPE  H11R15143   2.083   6.074   8.144  0.5687  2.0623  0.4876
  139SAPE  C21215144   2.257   5.960   8.142  0.2990  0.3365 -0.1992
  139SAPE  H12R15145   2.248   5.966   8.033  0.5940  1.5434 -0.1633
  139SAPE  C21315146   2.380   5.894   8.190  0.3028 -0.3829 -0.1535
  139SAPE  H13R15147   2.412   5.932   8.289 -0.1536 -1.7507  0.5552
  139SAPE  H13S15148   2.456   5.914   8.112  1.0145 -1.0471  0.3521
  139SAPE  C21415149   2.348   5.748   8.196  0.2068 -0.1611  0.6147
  139SAPE  H14R15150   2.271   5.709   8.264 -1.6019 -0.7372 -1.6455
  139SAPE  C21515151   2.384   5.652   8.109 -0.3649  0.5908 -0.0441
  139SAPE  H15R15152   2.335   5.555   8.121 -0.3951  0.5230 -0.6487
  139SAPE  C21615153   2.472   5.671   7.982  0.3714 -0.6266 -0.0222
  139SAPE  H16R15154   2.525   5.579   7.948  1.5894 -0.2384  0.7891
  139SAPE  H16S15155   2.549   5.743   8.017  0.5376 -0.9765  0.3474
  139SAPE  C21715156   2.402   5.724   7.860 -0.2044 -0.1459  0.6656
  139SAPE  H17R15157   2.481   5.751   7.786 -1.6152 -0.4285 -1.0004
  139SAPE  H17S15158   2.350   5.819   7.883  1.5476  0.6756  1.4898
  139SAPE  C21815159   2.293   5.626   7.804 -0.1268  0.2994  0.2543
  139SAPE  H18R15160   2.214   5.601   7.878 -0.0261  0.7136  0.5011
  139SAPE  H18S15161   2.352   5.533   7.784 -3.0174 -1.4600 -0.7459
  139SAPE  C21915162   2.250   5.661   7.655  0.7391  0.6210 -0.2051
  139SAPE  H19R15163   2.337   5.700   7.598  1.4276 -0.7468 -0.1243
  139SAPE  H19S15164   2.181   5.748   7.662  1.5178  1.0918  2.6171
  139SAPE  C22015165   2.180   5.546   7.573 -0.2644 -0.0820  0.0919
  139SAPE  H20R15166   2.086   5.514   7.624  0.3219  1.1604  2.0752
  139SAPE  H20S15167   2.250   5.459   7.573 -0.2919 -0.1059 -0.3161
  139SAPE  H20T15168   2.157   5.566   7.467 -0.0237  1.9161  0.3879
  139SAPE   C3315169   2.566   6.235   8.862  0.9164  0.2791 -0.7312
  139SAPE   H3X15170   2.593   6.127   8.866 -1.7094 -0.4252  0.4966
  139SAPE   H3Y15171   2.667   6.279   8.880  1.6714 -1.2854 -0.9590
  139SAPE   C3415172   2.499   6.278   8.735 -0.1170 -0.6494 -0.0633
  139SAPE   H4X15173   2.485   6.388   8.734 -2.3419 -0.8336  1.7340
  139SAPE   H4Y15174   2.395   6.243   8.720  0.6869 -2.0682 -3.2349
  139SAPE   C3515175   2.572   6.226   8.614  0.2588  0.3630  0.3704
  139SAPE   H5X15176   2.573   6.115   8.606 -0.6359  0.4835 -2.5659
  139SAPE   H5Y15177   2.677   6.262   8.620 -0.1370  1.6164  0.0935
  139SAPE   C3615178   2.507   6.265   8.483 -0.6246  0.1827  0.4939
  139SAPE   H6X15179   2.449   6.360   8.486 -0.2861  0.3667  1.2745
  139SAPE   H6Y15180   2.441   6.178   8.457  1.3903 -0.8934 -1.3624
  139SAPE   C3715181   2.601   6.262   8.359 -0.3042 -0.7655 -0.0788
  139SAPE   H7X15182   2.652   6.164   8.349 -1.7094 -1.5485  0.1030
  139SAPE   H7Y15183   2.678   6.335   8.390 -0.8703 -0.3865  0.4449
  139SAPE   C3815184   2.526   6.289   8.233  0.6575 -0.6184 -0.1893
  139SAPE   H8X15185   2.461   6.379   8.242  3.0517  1.1227  1.1463
  139SAPE   H8Y15186   2.458   6.205   8.210 -0.6102 -0.4645  2.5851
  139SAPE   C3915187   2.635   6.313   8.127  0.4611 -0.1372 -0.5583
  139SAPE   H9X15188   2.709   6.231   8.129  0.4984 -0.1733 -2.0147
  139SAPE   H9Y15189   2.695   6.404   8.148 -0.9254  0.7306 -0.1932
  139SAPE  C31015190   2.576   6.337   7.986  0.3719 -0.0072  0.0239
  139SAPE  H10X15191   2.650   6.389   7.921 -0.2261  2.8647  1.4698
  139SAPE  H10Y15192   2.502   6.419   7.988  0.6174  0.2052  0.6076
  139SAPE  C31115193   2.520   6.208   7.927  0.6271 -0.0579 -0.3238
  139SAPE  H11X15194   2.416   6.198   7.963  1.6249 -2.1153  2.3927
  139SAPE  H11Y15195   2.581   6.125   7.970  0.8234  0.0115 -0.4648
  139SAPE  C31215196   2.538   6.196   7.773  0.2520  0.2921 -0.7300
  139SAPE  H12X15197   2.648   6.204   7.760  0.3090 -1.1978 -1.3279
  139SAPE  H12Y15198   2.484   6.283   7.731 -1.0781  1.0520  2.2521
  139SAPE  C31315199   2.487   6.067   7.708 -0.1813 -0.6484 -0.4306
  139SAPE  H13X15200   2.379   6.057   7.728  0.1703  0.4678  2.4668
  139SAPE  H13Y15201   2.536   5.976   7.750 -0.0421 -0.8475 -1.0070
  139SAPE  C31415202   2.530   6.058   7.559 -0.1016  0.2477  0.0431
  139SAPE  H14X15203   2.509   5.958   7.516  0.9432  1.8282 -4.6968
  139SAPE  H14Y15204   2.638   6.084   7.558  0.6522 -2.1422  3.3760
  139SAPE  C31515205   2.465   6.168   7.470 -0.8331 -0.3150 -0.0014
  139SAPE  H15X15206   2.486   6.267   7.516 -0.7424  0.1042 -0.9196
  139SAPE  H15Y15207   2.354   6.166   7.469 -0.9058  1.5426  0.0664
  139SAPE  C31615208   2.520   6.193   7.332 -0.2467  0.3672 -0.5930
  139SAPE  H16X15209   2.629   6.214   7.341 -0.8581  2.9635  2.5866
  139SAPE  H16Y15210   2.501   6.094   7.284  0.8127  0.5408 -1.4121
  139SAPE  C31715211   2.445   6.300   7.248  0.1807 -0.6704  0.3164
  139SAPE  H17X15212   2.452   6.398   7.300 -0.2461 -1.7972  2.6517
  139SAPE  H17Y15213   2.335   6.281   7.242 -0.0132  0.2620  0.6387
  139SAPE  C31815214   2.489   6.318   7.099 -0.0550 -0.4621 -0.6743
  139SAPE  H18X15215   2.478   6.223   7.042  2.5018 -0.3802 -1.4555
  139SAPE  H18Y15216   2.593   6.357   7.094 -0.7866  1.5507 -1.4707
  139SAPE  H18Z15217   2.436   6.398   7.044  0.8857  1.2713  0.8047
  140SAPE     N15218   5.396   0.955   9.715 -0.3918  0.3161 -0.0360
  140SAPE   HN115219   5.402   0.994   9.619 -1.3233 -2.0113 -1.1218
  140SAPE   HN215220   5.297   0.923   9.726  0.0410 -1.4727 -0.9516
  140SAPE   HN315221   5.424   1.029   9.782 -0.6142  0.0215  0.3919
  140SAPE   C1215222   5.479   0.836   9.738  0.8852 -0.0873  0.2961
  140SAPE  H12A15223   5.442   0.754   9.672  2.2333 -0.3972 -0.1008
  140SAPE  H12B15224   5.470   0.797   9.842  0.3195 -2.0495 -0.4483
  140SAPE   C1115225   5.628   0.844   9.700  0.1117 -0.4602  0.4635
  140SAPE  H11A15226   5.688   0.759   9.740 -0.9029 -1.1929  0.4586
  140SAPE  H11B15227   5.668   0.930   9.758  1.8744 -0.4024 -0.7453
  140SAPE     P15228   5.674   0.744   9.474  0.0140  0.5659 -0.5461
  140SAPE   O1315229   5.815   0.696   9.481 -0.0931 -0.4625  0.0458
  140SAPE   O1415230   5.568   0.640   9.497  0.1888  0.1503 -0.0252
  140SAPE   O1215231   5.639   0.864   9.562  0.2796  0.1196 -0.2221
  140SAPE   O1115232   5.651   0.801   9.332  0.2792  0.0392  0.0192
  140SAPE    C115233   5.519   0.860   9.317 -0.1988  0.2165 -0.3047
  140SAPE    HA15234   5.441   0.782   9.327  1.3073 -1.3091  0.0430
  140SAPE    HB15235   5.502   0.945   9.387 -1.9043  0.0132 -0.4310
  140SAPE    C215236   5.487   0.921   9.173 -0.3454 -0.3578 -1.1490
  140SAPE    HS15237   5.379   0.899   9.156 -0.6614 -0.1563  0.4815
  140SAPE   O2115238   5.561   0.854   9.079 -0.5330 -0.5403 -0.0349
  140SAPE   C2115239   5.554   0.724   9.063 -0.2936 -0.3096 -0.7113
  140SAPE   O2215240   5.472   0.652   9.124 -0.1428  0.3787 -0.4259
  140SAPE   C2215241   5.660   0.674   8.968 -0.3436 -0.1218  0.1961
  140SAPE   H2R15242   5.618   0.604   8.893 -0.2523  0.2082 -0.1630
  140SAPE   H2S15243   5.713   0.758   8.920  3.1513 -0.5641  2.8158
  140SAPE    C315244   5.510   1.072   9.178 -1.0694  0.6438 -0.1176
  140SAPE    HX15245   5.612   1.091   9.216  0.1804 -0.1753 -2.8483
  140SAPE    HY15246   5.441   1.128   9.244  0.4686  3.6220 -0.8844
  140SAPE   O3115247   5.494   1.127   9.047  0.3863  0.5686 -1.0908
  140SAPE   C3115248   5.613   1.152   8.985  0.0250 -0.1103 -0.0654
  140SAPE   O3215249   5.725   1.136   9.033 -0.0044  0.3763 -0.4612
  140SAPE   C3215250   5.588   1.192   8.841  0.0505 -0.3522  0.0724
  140SAPE   H2X15251   5.502   1.262   8.839 -1.1962 -1.8333 -1.0536
  140SAPE   H2Y15252   5.563   1.104   8.777  1.5162 -0.5522 -0.2769
  140SAPE   C2315253   5.765   0.590   9.039  0.5584 -0.1795 -0.3338
  140SAPE   H3R15254   5.720   0.492   9.066 -1.9478  1.9135  4.3639
  140SAPE   H3S15255   5.808   0.635   9.131  0.3792 -1.5705  0.4584
  140SAPE   C2415256   5.891   0.569   8.940  0.9360  0.2670  0.6262
  140SAPE   H4R15257   5.929   0.673   8.934 -1.3362  1.1004 -0.2660
  140SAPE   H4S15258   5.832   0.554   8.847  1.8006  1.3863 -0.1271
  140SAPE   C2515259   5.993   0.472   8.974  0.0218  0.1008  0.2582
  140SAPE   H5R15260   6.075   0.503   9.039  1.3254 -4.4968  1.1685
  140SAPE   C2615261   5.991   0.340   8.933  0.0904 -0.4031 -0.2700
  140SAPE   H6R15262   6.072   0.275   8.970  1.2297  2.5465  2.9762
  140SAPE   C2715263   5.887   0.264   8.845 -0.0588 -0.1839 -1.0271
  140SAPE   H7R15264   5.923   0.168   8.802  0.9584  0.2851 -1.2539
  140SAPE   H7S15265   5.866   0.322   8.753  0.0323 -0.3346 -1.1439
  140SAPE   C2815266   5.749   0.242   8.910  0.5176  0.6552  0.2019
  140SAPE   H8R15267   5.770   0.192   9.006  2.6514 -0.5135 -0.8030
  140SAPE   C2915268   5.628   0.270   8.853  0.3620 -0.3810  0.0955
  140SAPE   H9R15269   5.538   0.237   8.908  0.0713 -0.0484 -0.1758
  140SAPE  C21015270   5.607   0.331   8.715  1.0122  0.1415  0.2560
  140SAPE  H10R15271   5.674   0.419   8.709 -0.7512  1.4303 -2.3790
  140SAPE  H10S15272   5.504   0.371   8.709  1.2465  0.9868  1.5552
  140SAPE  C21115273   5.632   0.228   8.610  0.0208 -0.2941  0.4308
  140SAPE  H11R15274   5.733   0.186   8.614 -0.0975 -0.5605  0.6674
  140SAPE  C21215275   5.551   0.206   8.504  1.1436 -0.0763 -0.6443
  140SAPE  H12R15276   5.579   0.133   8.427 -1.1633  0.3883 -2.0279
  140SAPE  C21315277   5.417   0.280   8.474 -0.4305 -0.6640 -0.0298
  140SAPE  H13R15278   5.369   0.313   8.568  2.2630 -0.2304  1.2639
  140SAPE  H13S15279   5.356   0.206   8.417  0.2862 -1.6183  0.4228
  140SAPE  C21415280   5.446   0.397   8.382  0.1227 -0.4876 -0.4946
  140SAPE  H14R15281   5.535   0.453   8.414  1.0051 -0.4887 -2.7635
  140SAPE  C21515282   5.355   0.440   8.296  0.1561  0.1340 -0.6799
  140SAPE  H15R15283   5.358   0.529   8.232  0.7860  0.7517  0.2008
  140SAPE  C21615284   5.217   0.374   8.289  0.3258 -0.3109  0.2483
  140SAPE  H16R15285   5.143   0.447   8.249 -0.2626 -1.2163 -0.3542
  140SAPE  H16S15286   5.173   0.330   8.381  1.4947  0.2697  1.1117
  140SAPE  C21715287   5.226   0.264   8.179 -0.4065 -0.0385  1.3075
  140SAPE  H17R15288   5.302   0.192   8.216 -1.8242 -0.8691  2.7702
  140SAPE  H17S15289   5.261   0.304   8.082 -1.6515 -2.6654 -0.3611
  140SAPE  C21815290   5.091   0.188   8.153 -0.0890 -0.3086 -0.0548
  140SAPE  H18R15291   5.122   0.105   8.087  1.5507  1.3625 -1.5074
  140SAPE  H18S15292   5.027   0.255   8.090  0.0485  0.0778  0.2112
  140SAPE  C21915293   5.017   0.146   8.282 -0.2408  0.1240  0.5397
  140SAPE  H19R15294   4.964   0.237   8.316 -0.6069  0.9631 -2.0212
  140SAPE  H19S15295   5.089   0.112   8.359 -1.3602 -0.6405  1.2797
  140SAPE  C22015296   4.917   0.032   8.257  0.3447 -0.4917  0.5173
  140SAPE  H20R15297   4.870   0.000   8.352 -1.2682  0.5042  0.0936
  140SAPE  H20S15298   4.971  -0.055   8.213 -0.1498 -0.2622 -0.5726
  140SAPE  H20T15299   4.844   0.071   8.183 -0.8544 -3.7244 -0.1631
  140SAPE   C3315300   5.702   1.270   8.775  0.6054 -0.1724  0.0643
  140SAPE   H3X15301   5.799   1.215   8.783  0.5620 -1.0214 -3.4999
  140SAPE   H3Y15302   5.719   1.372   8.815 -2.6320 -0.8040  3.5290
  140SAPE   C3415303   5.698   1.260   8.620  0.3004  0.3609 -0.2553
  140SAPE   H4X15304   5.702   1.151   8.599 -0.8241 -0.2706  2.4346
  140SAPE   H4Y15305   5.788   1.302   8.570  0.7837 -1.1829 -0.7573
  140SAPE   C3515306   5.578   1.340   8.554  0.0464  0.9006  0.8056
  140SAPE   H5X15307   5.588   1.446   8.586 -0.6473  2.0381 -2.3979
  140SAPE   H5Y15308   5.481   1.296   8.586  1.6927 -0.6212  4.1469
  140SAPE   C3615309   5.586   1.334   8.405 -0.0111 -0.4192 -0.0695
  140SAPE   H6X15310   5.680   1.384   8.370 -0.2069  0.3904  0.5183
  140SAPE   H6Y15311   5.502   1.399   8.373 -1.8506 -2.5337  0.2594
  140SAPE   C3715312   5.577   1.190   8.353  0.3002  0.1315  0.1603
  140SAPE   H7X15313   5.515   1.126   8.418  1.8088 -2.2716 -0.6297
  140SAPE   H7Y15314   5.676   1.144   8.369 -0.5070 -1.5763  0.3953
  140SAPE   C3815315   5.557   1.182   8.200  0.2747 -0.1446  0.2908
  140SAPE   H8X15316   5.653   1.212   8.153 -0.1966 -0.3516 -0.8262
  140SAPE   H8Y15317   5.479   1.255   8.170  0.6449  0.6883  1.3114
  140SAPE   C3915318   5.523   1.033   8.150 -0.3678 -0.0382 -0.6320
  140SAPE   H9X15319   5.444   0.993   8.217 -1.1371  2.2402 -0.0843
  140SAPE   H9Y15320   5.606   0.960   8.155 -0.1932 -0.0532 -2.8015
  140SAPE  C31015321   5.479   1.027   8.002 -0.2971 -0.1641  1.0513
  140SAPE  H10X15322   5.551   1.071   7.930  1.3928 -0.8154  2.2824
  140SAPE  H10Y15323   5.385   1.084   7.991 -1.0660 -1.8298 -2.6322
  140SAPE  C31115324   5.448   0.879   7.958  0.1800  0.6692  0.6834
  140SAPE  H11X15325   5.536   0.824   7.998  0.7941  1.2100  0.0845
  140SAPE  H11Y15326   5.439   0.857   7.850 -0.8128 -1.7054  1.1914
  140SAPE  C31215327   5.321   0.813   8.029  0.2831  0.1169  1.0258
  140SAPE  H12X15328   5.255   0.898   8.054  2.0096  2.1646 -0.9219
  140SAPE  H12Y15329   5.356   0.757   8.118 -1.2010 -2.9907 -0.1907
  140SAPE  C31315330   5.256   0.709   7.934 -0.6245 -0.1052 -0.3589
  140SAPE  H13X15331   5.318   0.628   7.891 -0.9221  0.0011 -0.9942
  140SAPE  H13Y15332   5.225   0.769   7.846 -2.7515  1.2114  1.1835
  140SAPE  C31415333   5.135   0.641   7.997 -0.2741  0.3083 -0.3660
  140SAPE  H14X15334   5.066   0.727   8.007 -1.5756 -0.6846 -0.4982
  140SAPE  H14Y15335   5.160   0.596   8.096  1.1796  1.5216 -0.1535
  140SAPE  C31515336   5.070   0.540   7.913  0.5197  0.0667  0.9174
  140SAPE  H15X15337   4.976   0.502   7.959 -0.1635  0.1363 -0.3703
  140SAPE  H15Y15338   5.139   0.456   7.888  1.5680  0.8814  1.0253
  140SAPE  C31615339   5.043   0.588   7.773 -0.2761  0.7013  0.3105
  140SAPE  H16X15340   5.127   0.563   7.705  0.1493 -0.3525  1.1909
  140SAPE  H16Y15341   5.024   0.697   7.779 -0.3285  0.7180 -0.1868
  140SAPE  C31715342   4.909   0.531   7.713  0.3093 -0.0645 -0.4229
  140SAPE  H17X15343   4.831   0.565   7.785  1.6627  2.1595  0.1118
  140SAPE  H17Y15344   4.917   0.420   7.716 -0.1475 -0.0897  0.4221
  140SAPE  C31815345   4.876   0.597   7.581  0.1912 -0.5960 -0.3405
  140SAPE  H18X15346   4.774   0.572   7.543 -0.1762 -0.0953  0.2786
  140SAPE  H18Y15347   4.953   0.585   7.502 -0.1541 -0.7800 -0.6510
  140SAPE  H18Z15348   4.871   0.705   7.606 -1.8984 -0.5466 -0.7965
  141SAPE     N15349   6.495   2.371   9.885  0.0372 -0.2176  0.3654
  141SAPE   HN115350   6.413   2.410   9.834 -1.1947 -0.4968  2.0366
  141SAPE   HN215351   6.553   2.325   9.812  0.2882  2.4412 -1.2617
  141SAPE   HN315352   6.469   2.302   9.958 -0.8657 -0.2764  0.0026
  141SAPE   C1215353   6.571   2.486   9.942  0.6653  0.6699  0.1303
  141SAPE  H12A15354   6.677   2.454   9.949  1.4223  3.1232  1.0063
  141SAPE  H12B15355   6.526   2.521  10.037  1.3188  0.7260  0.4266
  141SAPE   C1115356   6.555   2.611   9.860 -0.0003  0.1946  0.0885
  141SAPE  H11A15357   6.606   2.601   9.762  0.8931 -1.0210  0.6619
  141SAPE  H11B15358   6.619   2.693   9.900  0.9957 -0.1309 -0.7901
  141SAPE     P15359   6.313   2.617   9.744 -0.4992  0.1108  0.2081
  141SAPE   O1315360   6.282   2.476   9.768  0.2630 -0.4078  0.5796
  141SAPE   O1415361   6.203   2.705   9.755 -0.1925 -0.5250 -0.1619
  141SAPE   O1215362   6.420   2.657   9.850 -0.2546  0.1553  0.2507
  141SAPE   O1115363   6.381   2.638   9.609  0.2110 -0.2660 -0.1338
  141SAPE    C115364   6.392   2.540   9.508 -0.8720 -0.7375  0.7960
  141SAPE    HA15365   6.323   2.454   9.523 -1.3974 -0.7621 -1.5056
  141SAPE    HB15366   6.353   2.579   9.412 -2.0037  0.4790  1.7030
  141SAPE    C215367   6.540   2.499   9.471  0.0738  0.0974 -0.4157
  141SAPE    HS15368   6.577   2.443   9.560 -1.2990  1.2765  0.9571
  141SAPE   O2115369   6.621   2.620   9.451  0.3170  0.5230  0.0053
  141SAPE   C2115370   6.753   2.591   9.466  0.4474 -0.0531 -0.2047
  141SAPE   O2215371   6.801   2.491   9.523  0.3196 -0.5436  0.4191
  141SAPE   C2215372   6.840   2.687   9.385 -0.2400  0.7243  0.5583
  141SAPE   H2R15373   6.878   2.753   9.466  1.6112  0.5808 -0.1647
  141SAPE   H2S15374   6.928   2.631   9.349  0.0108  0.8483  0.9686
  141SAPE    C315375   6.546   2.404   9.354  0.1723 -0.0797 -0.4267
  141SAPE    HX15376   6.484   2.317   9.383 -2.0713  1.3432 -0.6847
  141SAPE    HY15377   6.652   2.372   9.351 -0.6725 -3.0707 -2.1724
  141SAPE   O3115378   6.489   2.464   9.232 -0.8711 -0.3357  0.1383
  141SAPE   C3115379   6.362   2.442   9.209 -0.5078  0.3598 -0.3783
  141SAPE   O3215380   6.287   2.363   9.268  0.3667 -0.5447 -0.0843
  141SAPE   C3215381   6.324   2.527   9.088 -0.4346 -0.0207 -0.1223
  141SAPE   H2X15382   6.354   2.632   9.110  1.3777 -0.8410  1.6441
  141SAPE   H2Y15383   6.216   2.516   9.065 -0.6534  0.3892  0.7035
  141SAPE   C2315384   6.761   2.775   9.290 -0.7416 -0.1611  0.3268
  141SAPE   H3R15385   6.690   2.839   9.347 -0.9394  0.2233 -0.3407
  141SAPE   H3S15386   6.690   2.717   9.227 -0.4093 -0.6853  0.4309
  141SAPE   C2415387   6.856   2.866   9.212  0.3032 -0.0649  0.2128
  141SAPE   H4R15388   6.920   2.913   9.291 -0.9890 -0.9092  1.8280
  141SAPE   H4S15389   6.793   2.941   9.160  0.6860  0.5614  0.6308
  141SAPE   C2515390   6.935   2.806   9.105  0.0634  0.4044  0.1444
  141SAPE   H5R15391   7.041   2.801   9.131 -0.2297  0.4172  1.3724
  141SAPE   C2615392   6.897   2.754   8.988  0.1790  0.1046  0.3720
  141SAPE   H6R15393   6.966   2.706   8.916 -2.0201  0.2644 -1.9883
  141SAPE   C2715394   6.755   2.741   8.942 -0.0523 -0.9568 -0.9552
  141SAPE   H7R15395   6.697   2.684   9.018  2.8478 -0.7302  1.6449
  141SAPE   H7S15396   6.763   2.678   8.851 -0.6890 -1.6145 -0.5641
  141SAPE   C2815397   6.685   2.867   8.893  0.2279  0.9399 -0.6349
  141SAPE   H8R15398   6.612   2.909   8.965  2.0581 -0.2048  2.0551
  141SAPE   C2915399   6.691   2.918   8.775 -0.5873 -0.1748 -0.0880
  141SAPE   H9R15400   6.642   3.015   8.757 -0.7767 -0.1500  0.5284
  141SAPE  C21015401   6.770   2.861   8.657 -1.3876  0.4608 -0.1751
  141SAPE  H10R15402   6.805   2.757   8.673  1.0616  1.6412  3.6622
  141SAPE  H10S15403   6.870   2.910   8.663 -0.9424 -0.4582 -0.0186
  141SAPE  C21115404   6.715   2.884   8.519 -0.5207 -0.5598 -0.4521
  141SAPE  H11R15405   6.606   2.873   8.517 -0.4861 -1.0825  0.1399
  141SAPE  C21215406   6.786   2.932   8.413  0.6609 -0.0811  0.6339
  141SAPE  H12R15407   6.725   2.941   8.323 -0.7821 -0.2395  1.5587
  141SAPE  C21315408   6.935   2.965   8.408 -0.4248  0.2390  0.7588
  141SAPE  H13R15409   7.002   2.876   8.412 -0.9799 -0.2114  0.2973
  141SAPE  H13S15410   6.965   3.029   8.494 -0.7153  0.3174  0.7993
  141SAPE  C21415411   6.977   3.048   8.286 -0.6457  0.5058 -0.5799
  141SAPE  H14R15412   6.988   3.156   8.304 -0.1645  0.4380 -0.4515
  141SAPE  C21515413   6.996   3.004   8.167 -0.5672  0.3661 -0.4674
  141SAPE  H15R15414   7.012   3.075   8.084 -2.1186 -0.1266 -1.2377
  141SAPE  C21615415   7.000   2.858   8.130 -0.5002  0.0802 -0.9217
  141SAPE  H16R15416   7.011   2.785   8.213  1.7398 -1.4089 -2.4180
  141SAPE  H16S15417   7.087   2.843   8.063 -0.6040 -0.3453 -0.9670
  141SAPE  C21715418   6.871   2.818   8.048  0.0418  0.0018 -0.6365
  141SAPE  H17R15419   6.779   2.846   8.104 -1.2434  1.0702 -3.1227
  141SAPE  H17S15420   6.882   2.710   8.026  2.0282 -0.1918  1.0335
  141SAPE  C21815421   6.872   2.889   7.912  0.5693  0.3209  0.3406
  141SAPE  H18R15422   6.969   2.882   7.858 -0.2759 -0.0917 -1.1827
  141SAPE  H18S15423   6.840   2.994   7.929 -1.3017 -0.1382 -0.1172
  141SAPE  C21915424   6.771   2.829   7.809 -0.4146 -0.2546  0.0389
  141SAPE  H19R15425   6.671   2.839   7.856 -0.4071 -1.5014  0.3519
  141SAPE  H19S15426   6.790   2.722   7.785 -0.2474 -0.0890 -0.5837
  141SAPE  C22015427   6.764   2.907   7.675 -0.5287 -0.1476  0.1635
  141SAPE  H20R15428   6.867   2.907   7.633 -0.4253  1.7240  0.3406
  141SAPE  H20S15429   6.736   3.013   7.689 -0.3624 -0.0177 -0.4353
  141SAPE  H20T15430   6.711   2.847   7.598  1.6844  0.6227 -2.1051
  141SAPE   C3315431   6.416   2.478   8.970  0.6011 -0.8131  0.8383
  141SAPE   H3X15432   6.406   2.369   8.948  0.4424 -0.6883  0.2597
  141SAPE   H3Y15433   6.525   2.492   8.982  0.9791 -0.2667 -2.3563
  141SAPE   C3415434   6.384   2.548   8.837 -0.0393 -0.6062 -0.3161
  141SAPE   H4X15435   6.426   2.651   8.828 -0.6718 -0.1972  1.0931
  141SAPE   H4Y15436   6.275   2.558   8.820  0.2314 -0.3178 -2.0896
  141SAPE   C3515437   6.449   2.476   8.720  0.4827 -0.4514 -0.1512
  141SAPE   H5X15438   6.406   2.374   8.712  0.2546 -0.2883 -1.1201
  141SAPE   H5Y15439   6.558   2.465   8.739  0.9139  1.7328 -1.0740
  141SAPE   C3615440   6.440   2.551   8.590 -0.3733  0.6850  1.2689
  141SAPE   H6X15441   6.462   2.659   8.600  1.4175  0.6945 -1.5899
  141SAPE   H6Y15442   6.334   2.539   8.561  0.5813 -2.7336 -1.4748
  141SAPE   C3715443   6.520   2.491   8.480 -0.8040  0.5576  0.1950
  141SAPE   H7X15444   6.483   2.390   8.450  0.7381  0.5407 -1.8232
  141SAPE   H7Y15445   6.625   2.485   8.516 -0.0066  3.7304 -1.2314
  141SAPE   C3815446   6.506   2.560   8.339  0.0296  0.0801 -0.0815
  141SAPE   H8X15447   6.538   2.667   8.339 -2.1206  0.7877  1.0909
  141SAPE   H8Y15448   6.400   2.566   8.308  0.4924  0.2920 -1.6927
  141SAPE   C3915449   6.570   2.479   8.218  0.6532 -0.4390  0.3624
  141SAPE   H9X15450   6.525   2.378   8.205  0.7884 -0.5932  1.0365
  141SAPE   H9Y15451   6.679   2.463   8.231  0.6278 -1.5804 -0.6927
  141SAPE  C31015452   6.557   2.557   8.086  0.3656  0.2008 -0.4977
  141SAPE  H10X15453   6.633   2.638   8.089 -2.7311  3.3091  0.4544
  141SAPE  H10Y15454   6.462   2.614   8.088  0.7430  0.8063  1.2849
  141SAPE  C31115455   6.562   2.467   7.958  0.1953 -0.2312 -0.7244
  141SAPE  H11X15456   6.497   2.377   7.967 -0.8190  0.5026 -0.6097
  141SAPE  H11Y15457   6.667   2.431   7.956  1.0288  1.9443  0.4707
  141SAPE  C31215458   6.532   2.539   7.823 -0.1069 -0.1913 -1.3949
  141SAPE  H12X15459   6.627   2.596   7.810  0.5630 -0.6162  1.0328
  141SAPE  H12Y15460   6.449   2.609   7.843  1.5565  1.7135 -0.8592
  141SAPE  C31315461   6.505   2.431   7.711  0.1680 -0.7448  0.2952
  141SAPE  H13X15462   6.403   2.394   7.736 -0.1443  1.3824  2.5214
  141SAPE  H13Y15463   6.570   2.341   7.713 -1.1796 -1.7438  0.7294
  141SAPE  C31415464   6.512   2.503   7.573 -0.1734 -0.7164 -0.9850
  141SAPE  H14X15465   6.452   2.597   7.582  0.9055 -0.0001 -1.0697
  141SAPE  H14Y15466   6.464   2.445   7.491  3.0404 -1.0734 -2.8049
  141SAPE  C31515467   6.649   2.541   7.524  0.9211 -0.1869 -0.1145
  141SAPE  H15X15468   6.706   2.445   7.527 -1.4462 -1.6742  0.1515
  141SAPE  H15Y15469   6.700   2.603   7.601  2.0613 -0.8575 -0.3175
  141SAPE  C31615470   6.648   2.609   7.388 -0.6519 -0.3378  0.1803
  141SAPE  H16X15471   6.725   2.689   7.387  0.7595 -1.6514 -0.2583
  141SAPE  H16Y15472   6.547   2.647   7.362 -0.5131 -1.2194 -1.9097
  141SAPE  C31715473   6.695   2.508   7.279 -0.5651  0.3729  0.1496
  141SAPE  H17X15474   6.639   2.412   7.286 -0.9492  0.1476 -3.6174
  141SAPE  H17Y15475   6.805   2.493   7.276 -0.6377 -0.0748 -1.5392
  141SAPE  C31815476   6.641   2.551   7.137 -0.0726 -0.0161  0.2701
  141SAPE  H18X15477   6.685   2.491   7.054  0.6150  0.1874  0.4834
  141SAPE  H18Y15478   6.675   2.656   7.124 -0.0355 -0.1616 -0.9528
  141SAPE  H18Z15479   6.530   2.556   7.137 -0.0856 -0.3050  0.2706
  142SAPE     N15480   6.765   1.750   9.766 -0.2687  0.2096 -0.5286
  142SAPE   HN115481   6.694   1.734   9.840  0.6271  0.6322  0.4486
  142SAPE   HN215482   6.828   1.668   9.770  0.3422  0.6590 -0.8878
  142SAPE   HN315483   6.813   1.837   9.796 -0.0013  0.4071 -1.4960
  142SAPE   C1215484   6.706   1.772   9.632 -0.0386  0.7946  0.1931
  142SAPE  H12A15485   6.670   1.677   9.588 -0.6496  0.2541  1.7806
  142SAPE  H12B15486   6.785   1.823   9.573 -1.1215  0.9676 -1.1689
  142SAPE   C1115487   6.581   1.870   9.631  0.8945  0.4162 -0.4003
  142SAPE  H11A15488   6.494   1.828   9.686  0.4537  1.4866 -0.2513
  142SAPE  H11B15489   6.557   1.891   9.525 -0.4018  1.6697  0.1094
  142SAPE     P15490   6.571   2.133   9.619  0.2074  0.3505  0.2656
  142SAPE   O1315491   6.422   2.128   9.604 -0.0371 -0.2539  0.0907
  142SAPE   O1415492   6.633   2.245   9.695 -0.0259 -0.1181 -0.1093
  142SAPE   O1215493   6.614   2.000   9.687  0.1951  0.7466  0.3036
  142SAPE   O1115494   6.628   2.130   9.469 -0.0072  0.0241  0.3615
  142SAPE    C115495   6.770   2.146   9.450  0.5619 -0.1995  0.1554
  142SAPE    HA15496   6.813   2.244   9.482 -1.0258  1.3557 -2.1325
  142SAPE    HB15497   6.812   2.070   9.519  0.6784  0.0429  0.3572
  142SAPE    C215498   6.817   2.099   9.310  0.3723  0.8658 -0.2440
  142SAPE    HS15499   6.927   2.080   9.314  0.4483  0.5485 -2.5815
  142SAPE   O2115500   6.775   2.196   9.207  0.3125  0.1520 -0.0885
  142SAPE   C2115501   6.846   2.303   9.206 -0.3413 -0.0881  0.0930
  142SAPE   O2215502   6.945   2.330   9.276  0.0890  0.0822 -0.0282
  142SAPE   C2215503   6.797   2.396   9.089  0.2752  0.0154 -0.3199
  142SAPE   H2R15504   6.688   2.376   9.090  0.2836 -0.0109  0.8019
  142SAPE   H2S15505   6.803   2.502   9.120 -0.1033 -0.5092  1.6726
  142SAPE    C315506   6.764   1.951   9.275  0.1287  0.0183  0.5443
  142SAPE    HX15507   6.655   1.935   9.286  0.7632 -5.7993  1.3954
  142SAPE    HY15508   6.815   1.886   9.349  1.4490  0.6653  0.2358
  142SAPE   O3115509   6.807   1.931   9.139 -0.4054  0.1344  1.3108
  142SAPE   C3115510   6.774   1.801   9.097 -0.2529  0.9820  0.1943
  142SAPE   O3215511   6.716   1.715   9.161 -0.7988 -0.3504 -0.1393
  142SAPE   C3215512   6.825   1.789   8.960  0.6841 -0.1454  0.0678
  142SAPE   H2X15513   6.870   1.888   8.940 -1.2149  0.5230 -1.0558
  142SAPE   H2Y15514   6.744   1.769   8.887  0.4327  1.3893 -0.0996
  142SAPE   C2315515   6.842   2.354   8.942  0.9059  0.1494 -0.1432
  142SAPE   H3R15516   6.945   2.314   8.934  0.2276 -1.8344  0.2563
  142SAPE   H3S15517   6.844   2.445   8.880  0.1227 -0.0899 -0.5328
  142SAPE   C2415518   6.744   2.252   8.885  0.1408  0.7996 -0.1808
  142SAPE   H4R15519   6.638   2.284   8.893 -0.0630 -0.3628  3.8217
  142SAPE   H4S15520   6.744   2.162   8.950  0.3833  0.6073 -0.4411
  142SAPE   C2515521   6.777   2.203   8.743 -0.3042 -0.5405  0.5029
  142SAPE   H5R15522   6.872   2.250   8.713 -0.2075 -0.3110  1.1652
  142SAPE   C2615523   6.716   2.118   8.658 -0.2494  0.7081  0.1558
  142SAPE   H6R15524   6.757   2.095   8.558  0.5446 -0.2084  0.6726
  142SAPE   C2715525   6.585   2.045   8.698  0.3422  0.0076 -0.0339
  142SAPE   H7R15526   6.595   2.024   8.806 -0.9652  0.0064  0.1008
  142SAPE   H7S15527   6.585   1.946   8.647  0.6241  0.1127 -0.2388
  142SAPE   C2815528   6.450   2.105   8.665  0.2600  0.0780  0.3555
  142SAPE   H8R15529   6.387   2.145   8.745 -1.8755 -2.0701 -0.1394
  142SAPE   C2915530   6.408   2.118   8.536 -0.2171  0.0128  0.4981
  142SAPE   H9R15531   6.310   2.166   8.518 -0.7646 -0.3783  2.2027
  142SAPE  C21015532   6.462   2.065   8.410  0.2109 -0.2680  1.0945
  142SAPE  H10R15533   6.557   2.013   8.434  0.8165 -0.2634 -1.0658
  142SAPE  H10S15534   6.491   2.152   8.347  0.8820  0.1713  1.9712
  142SAPE  C21115535   6.372   1.981   8.329  0.0022  0.4151 -0.0359
  142SAPE  H11R15536   6.334   1.899   8.391  0.7100 -0.7672 -1.1255
  142SAPE  C21215537   6.314   2.005   8.213  0.6515  0.3255  0.8612
  142SAPE  H12R15538   6.231   1.944   8.176  2.2238 -0.5009 -1.4950
  142SAPE  C21315539   6.344   2.113   8.115 -0.3352 -0.2793  0.2304
  142SAPE  H13R15540   6.438   2.169   8.139  1.4146 -1.8535 -2.4982
  142SAPE  H13S15541   6.261   2.187   8.108 -1.0567 -1.2472 -2.3281
  142SAPE  C21415542   6.354   2.042   7.987  0.0153 -0.2755  0.4151
  142SAPE  H14R15543   6.263   2.043   7.925 -1.0199  0.0602  1.8990
  142SAPE  C21515544   6.465   1.994   7.940  0.1089 -0.3755  0.6270
  142SAPE  H15R15545   6.468   1.960   7.835  0.6156 -0.1853  0.5754
  142SAPE  C21615546   6.608   1.998   8.000 -0.0444  0.9585  0.2712
  142SAPE  H16R15547   6.640   1.895   8.026  0.2171  1.0412  0.2795
  142SAPE  H16S15548   6.607   2.067   8.087 -3.0604  0.1014  1.0537
  142SAPE  C21715549   6.702   2.049   7.894  0.6625  0.1489  0.3016
  142SAPE  H17R15550   6.664   2.153   7.880 -0.8337 -0.1930  1.5498
  142SAPE  H17S15551   6.698   1.996   7.796  0.3605  1.7233 -0.5788
  142SAPE  C21815552   6.844   2.042   7.938 -0.1552 -0.2753 -0.0223
  142SAPE  H18R15553   6.864   1.934   7.952 -3.2335 -1.0153 -0.5658
  142SAPE  H18S15554   6.854   2.106   8.028 -1.4424 -1.6104  1.1289
  142SAPE  C21915555   6.952   2.088   7.841 -0.3671  0.3149  0.6032
  142SAPE  H19R15556   7.044   2.085   7.903  0.3109  2.1361 -0.2659
  142SAPE  H19S15557   6.933   2.191   7.806 -1.2929  0.1818  0.6919
  142SAPE  C22015558   6.966   1.994   7.721  0.6249 -0.4064 -0.4378
  142SAPE  H20R15559   6.969   1.886   7.745  1.5676 -0.4015 -0.4811
  142SAPE  H20S15560   7.051   2.020   7.654  0.7048 -0.0998 -0.2194
  142SAPE  H20T15561   6.876   2.011   7.657  0.7188  1.2116 -0.1872
  142SAPE   C3315562   6.932   1.682   8.935  0.2790  0.6431  0.7919
  142SAPE   H3X15563   6.925   1.603   9.012 -0.9430 -0.1196 -0.0727
  142SAPE   H3Y15564   7.028   1.739   8.938 -0.6042  2.2695 -0.2002
  142SAPE   C3415565   6.897   1.621   8.799 -0.0595  0.4154 -0.0895
  142SAPE   H4X15566   6.886   1.699   8.720  0.2881  0.6548  0.0977
  142SAPE   H4Y15567   6.803   1.564   8.816 -0.7851  2.1113  2.0677
  142SAPE   C3515568   7.012   1.529   8.754  0.9553  0.8297 -0.8670
  142SAPE   H5X15569   7.026   1.445   8.825 -0.9779  0.7442 -0.5470
  142SAPE   H5Y15570   7.109   1.584   8.760  1.9846 -1.0133  0.1619
  142SAPE   C3615571   7.006   1.492   8.604 -0.2369 -0.4530  0.4041
  142SAPE   H6X15572   6.964   1.580   8.551 -1.2688  1.7659  4.4828
  142SAPE   H6Y15573   6.926   1.416   8.598  1.0171 -1.8276  0.5394
  142SAPE   C3715574   7.149   1.465   8.542 -0.1266  0.0849 -0.1153
  142SAPE   H7X15575   7.208   1.387   8.595 -1.2814 -0.4173  0.4549
  142SAPE   H7Y15576   7.209   1.559   8.548 -0.7579  0.5657 -1.0439
  142SAPE   C3815577   7.126   1.412   8.395  0.3267  0.7883 -0.7996
  142SAPE   H8X15578   7.094   1.500   8.335  0.8444  2.1280  0.8126
  142SAPE   H8Y15579   7.042   1.339   8.399  0.1558  0.9919 -0.6711
  142SAPE   C3915580   7.254   1.349   8.343  0.0697 -0.8810  0.0514
  142SAPE   H9X15581   7.282   1.277   8.424 -0.4977 -2.3274 -1.0103
  142SAPE   H9Y15582   7.346   1.411   8.334 -0.0292 -0.9316 -1.4908
  142SAPE  C31015583   7.239   1.274   8.216 -0.5510 -0.2003  0.6716
  142SAPE  H10X15584   7.219   1.345   8.133  0.6949 -0.4533  0.1364
  142SAPE  H10Y15585   7.164   1.193   8.231  0.1993 -1.4648 -1.9173
  142SAPE  C31115586   7.376   1.217   8.175 -0.2993 -0.0487 -0.1791
  142SAPE  H11X15587   7.354   1.134   8.105 -2.6463 -0.4866  0.9664
  142SAPE  H11Y15588   7.424   1.181   8.269 -0.7752 -0.9758 -0.2737
  142SAPE  C31215589   7.465   1.325   8.109 -1.1108  0.0606 -0.4883
  142SAPE  H12X15590   7.474   1.399   8.191 -0.3467 -3.1649  2.5627
  142SAPE  H12Y15591   7.417   1.375   8.023  0.0423 -1.1281 -1.8948
  142SAPE  C31315592   7.616   1.276   8.084  0.1364 -0.3380  1.0425
  142SAPE  H13X15593   7.647   1.218   8.174  0.3637 -0.2734  1.0066
  142SAPE  H13Y15594   7.677   1.369   8.079 -0.0400 -0.2261  0.9400
  142SAPE  C31415595   7.633   1.202   7.958  0.1756  0.3426  0.0578
  142SAPE  H14X15596   7.543   1.136   7.966  1.0355 -0.7032  1.7771
  142SAPE  H14Y15597   7.719   1.133   7.967  0.7823  0.9084 -1.2018
  142SAPE  C31515598   7.627   1.279   7.823 -0.0931  0.3268  0.1767
  142SAPE  H15X15599   7.721   1.321   7.779 -0.1874 -1.9676 -2.4788
  142SAPE  H15Y15600   7.558   1.365   7.838 -0.8918 -0.3679  0.5770
  142SAPE  C31615601   7.555   1.190   7.719 -0.0561  0.3884 -0.2748
  142SAPE  H16X15602   7.482   1.244   7.656 -0.9761 -0.6549 -0.1276
  142SAPE  H16Y15603   7.489   1.128   7.784 -0.2539  1.4535  0.5604
  142SAPE  C31715604   7.626   1.096   7.626 -0.1898 -0.5163 -0.0475
  142SAPE  H17X15605   7.674   1.013   7.684 -1.5219 -1.6025 -0.4354
  142SAPE  H17Y15606   7.697   1.153   7.562 -0.2345  2.3021  2.2124
  142SAPE  C31815607   7.534   1.025   7.529  0.4469 -0.3785  0.3841
  142SAPE  H18X15608   7.579   0.938   7.477  0.9598  0.5482 -0.7740
  142SAPE  H18Y15609   7.517   1.091   7.441  0.5310 -3.0686 -1.7539
  142SAPE  H18Z15610   7.447   1.009   7.596  1.5493 -0.6724  1.8107
  143SAPE     N15611   1.202   0.566   9.568 -0.4648 -0.6941  0.3197
  143SAPE   HN115612   1.136   0.532   9.640 -0.0259 -0.4388  0.8483
  143SAPE   HN215613   1.148   0.643   9.523  1.2598  1.3703  1.5666
  143SAPE   HN315614   1.225   0.488   9.504  1.9851 -1.7363  2.3185
  143SAPE   C1215615   1.315   0.634   9.638  0.5831  0.2538 -0.3723
  143SAPE  H12A15616   1.403   0.567   9.644  0.8496  0.6768  0.5035
  143SAPE  H12B15617   1.291   0.653   9.745  0.7847  0.7245 -0.4077
  143SAPE   C1115618   1.354   0.767   9.574 -0.0409 -0.1758  0.1435
  143SAPE  H11A15619   1.360   0.753   9.464  0.7464 -0.8962  0.2689
  143SAPE  H11B15620   1.456   0.792   9.612 -0.2423 -0.3752  0.8260
  143SAPE     P15621   1.120   0.902   9.539 -0.3429 -0.1707  0.0218
  143SAPE   O1315622   1.060   0.769   9.512 -0.2153 -0.2985 -0.0150
  143SAPE   O1415623   1.041   1.005   9.616 -0.4942  0.8896 -0.1305
  143SAPE   O1215624   1.259   0.873   9.607  0.0949 -0.0620 -0.0311
  143SAPE   O1115625   1.155   0.958   9.400 -0.4053  0.0486  0.2445
  143SAPE    C115626   1.281   1.022   9.368 -0.5136  0.2543 -0.1066
  143SAPE    HA15627   1.290   1.126   9.406 -1.3862  0.8125 -1.3440
  143SAPE    HB15628   1.370   0.973   9.413  0.5344  2.2047  0.0578
  143SAPE    C215629   1.308   1.025   9.212  0.5864 -0.0457 -0.3422
  143SAPE    HS15630   1.218   1.073   9.169  1.8369  0.4512 -2.5281
  143SAPE   O2115631   1.340   0.892   9.168 -0.1994 -0.3509  0.4838
  143SAPE   C2115632   1.239   0.817   9.122 -0.4938  0.6194 -0.3243
  143SAPE   O2215633   1.119   0.845   9.125  0.2878  0.3118 -0.2880
  143SAPE   C2215634   1.303   0.687   9.067 -0.8224 -0.1278  0.1979
  143SAPE   H2R15635   1.364   0.718   8.980 -0.2823  0.0860  0.6500
  143SAPE   H2S15636   1.365   0.637   9.144  0.6296 -4.3179 -3.2520
  143SAPE    C315637   1.425   1.127   9.188 -0.0872 -0.1093  0.2419
  143SAPE    HX15638   1.502   1.074   9.249 -0.3294 -1.8831 -0.8946
  143SAPE    HY15639   1.408   1.226   9.235  1.4041  0.7291 -0.9003
  143SAPE   O3115640   1.463   1.156   9.050 -0.0050 -0.5453 -0.8016
  143SAPE   C3115641   1.379   1.243   8.992 -1.0625  0.0321  0.0043
  143SAPE   O3215642   1.282   1.299   9.041 -0.0260  0.6547  0.3657
  143SAPE   C3215643   1.434   1.279   8.854  0.0719 -0.0281  0.3078
  143SAPE   H2X15644   1.420   1.195   8.782  1.4767  0.2127 -0.2780
  143SAPE   H2Y15645   1.542   1.302   8.862  0.6311 -0.9400 -3.1768
  143SAPE   C2315646   1.194   0.588   9.022  0.3431 -0.2224 -0.0655
  143SAPE   H3R15647   1.119   0.645   8.963  3.2275  2.5929 -1.3293
  143SAPE   H3S15648   1.151   0.537   9.110  2.3039 -0.2914  0.9076
  143SAPE   C2415649   1.257   0.478   8.925 -0.2526  0.0501 -0.2232
  143SAPE   H4R15650   1.308   0.531   8.842  1.9035 -0.2411  0.8238
  143SAPE   H4S15651   1.188   0.409   8.872  0.0865  0.5181 -1.2962
  143SAPE   C2515652   1.356   0.394   9.002 -0.6798 -0.0102  0.4065
  143SAPE   H5R15653   1.323   0.376   9.105  0.2165  0.2702  0.7471
  143SAPE   C2615654   1.482   0.355   8.966 -0.7519 -0.2055 -0.1897
  143SAPE   H6R15655   1.552   0.300   9.031  0.9352  0.9457 -0.9701
  143SAPE   C2715656   1.539   0.392   8.831  0.4428  0.4486 -0.5081
  143SAPE   H7R15657   1.466   0.454   8.773 -1.3730 -2.4825 -1.6182
  143SAPE   H7S15658   1.552   0.303   8.765  2.7546  0.0229  0.4274
  143SAPE   C2815659   1.675   0.456   8.823  0.0624  0.3107 -0.6784
  143SAPE   H8R15660   1.726   0.481   8.917 -0.6710  1.4838 -0.5714
  143SAPE   C2915661   1.737   0.479   8.704  0.1244 -0.6359 -0.8812
  143SAPE   H9R15662   1.832   0.533   8.697 -0.7399  0.8364 -1.8355
  143SAPE  C21015663   1.684   0.454   8.562 -0.0042 -0.1090 -0.7210
  143SAPE  H10R15664   1.669   0.554   8.517  2.9356  0.6341 -0.2848
  143SAPE  H10S15665   1.582   0.410   8.567 -0.3202  0.7115  0.3838
  143SAPE  C21115666   1.788   0.371   8.487 -0.0761  0.0405  0.4943
  143SAPE  H11R15667   1.818   0.276   8.535 -0.0413  0.0945  0.5803
  143SAPE  C21215668   1.822   0.393   8.356  0.4410  0.3601 -0.4572
  143SAPE  H12R15669   1.876   0.312   8.305  3.0621  2.1332 -0.7167
  143SAPE  C21315670   1.788   0.511   8.269 -0.1128  0.7724 -0.5277
  143SAPE  H13R15671   1.762   0.606   8.321 -1.6267 -0.8474  1.8749
  143SAPE  H13S15672   1.696   0.486   8.212  1.1847 -3.3933 -1.1323
  143SAPE  C21415673   1.900   0.546   8.176 -0.0340 -0.4341 -0.4262
  143SAPE  H14R15674   2.001   0.522   8.212 -0.7446 -1.5616  0.9220
  143SAPE  C21515675   1.893   0.593   8.050 -0.2470 -0.5583  0.7491
  143SAPE  H15R15676   1.990   0.608   8.000  0.3253 -1.0710  1.6790
  143SAPE  C21615677   1.761   0.637   7.989  0.0451  0.0571 -0.1720
  143SAPE  H16R15678   1.797   0.735   7.950 -0.0568  0.5189  0.8668
  143SAPE  H16S15679   1.687   0.667   8.066  0.5866  0.0722  0.3475
  143SAPE  C21715680   1.706   0.541   7.878 -0.3538 -0.3853 -0.3173
  143SAPE  H17R15681   1.651   0.465   7.937 -0.6809 -0.7408 -1.0659
  143SAPE  H17S15682   1.792   0.492   7.828  1.1019 -0.3731  2.0260
  143SAPE  C21815683   1.632   0.612   7.766 -0.2146 -0.1797 -0.7534
  143SAPE  H18R15684   1.545   0.660   7.815 -1.0018 -0.5052 -1.8011
  143SAPE  H18S15685   1.604   0.531   7.696  1.4697 -2.1968  0.7762
  143SAPE  C21915686   1.716   0.721   7.690 -0.0993  0.1060 -0.0159
  143SAPE  H19R15687   1.812   0.678   7.656  0.0254  0.0801  0.3723
  143SAPE  H19S15688   1.740   0.799   7.765 -1.2078 -1.6860  2.3199
  143SAPE  C22015689   1.653   0.772   7.563  0.4149 -0.3266  0.2859
  143SAPE  H20R15690   1.636   0.686   7.495  0.9206 -0.3189  0.1435
  143SAPE  H20S15691   1.706   0.853   7.507  0.4999  0.5905  1.6553
  143SAPE  H20T15692   1.555   0.816   7.590  0.7405  0.2119  0.6001
  143SAPE   C3315693   1.361   1.413   8.807 -0.4976  0.4898  0.6558
  143SAPE   H3X15694   1.387   1.494   8.878 -2.1925  1.6731 -0.0052
  143SAPE   H3Y15695   1.251   1.407   8.812 -0.8087  3.8114  0.1574
  143SAPE   C3415696   1.395   1.448   8.658 -0.0194  0.0959  0.0737
  143SAPE   H4X15697   1.504   1.435   8.640  0.2804  2.9127 -0.6582
  143SAPE   H4Y15698   1.380   1.556   8.633 -0.0918 -0.3669 -2.0218
  143SAPE   C3515699   1.320   1.359   8.561 -0.3416 -0.1594 -0.3774
  143SAPE   H5X15700   1.213   1.384   8.572 -0.4561 -0.3983 -0.9028
  143SAPE   H5Y15701   1.329   1.249   8.578  2.3394 -0.0967 -0.9600
  143SAPE   C3615702   1.361   1.391   8.422  0.0099 -0.6381  0.6172
  143SAPE   H6X15703   1.469   1.366   8.412  0.8980  2.8978 -0.2604
  143SAPE   H6Y15704   1.367   1.501   8.406 -2.4065 -0.6618 -0.8768
  143SAPE   C3715705   1.270   1.328   8.321 -0.6119  0.5232 -0.2158
  143SAPE   H7X15706   1.165   1.359   8.341 -1.3813 -1.8050 -0.3066
  143SAPE   H7Y15707   1.295   1.220   8.324  0.6810  0.8003  2.4885
  143SAPE   C3815708   1.283   1.380   8.180 -0.5374  0.1549  0.3882
  143SAPE   H8X15709   1.368   1.325   8.134 -0.2175  1.9551 -1.3327
  143SAPE   H8Y15710   1.306   1.489   8.178 -0.9981  0.2664  1.0028
  143SAPE   C3915711   1.155   1.366   8.099 -0.2550  0.6745 -0.1119
  143SAPE   H9X15712   1.168   1.403   7.995 -0.4988  0.6054 -0.1672
  143SAPE   H9Y15713   1.082   1.443   8.132  0.5291  1.1244  0.6073
  143SAPE  C31015714   1.095   1.222   8.097  0.1919  0.5065 -0.1101
  143SAPE  H10X15715   1.051   1.191   8.194  3.2801 -1.6040  0.7756
  143SAPE  H10Y15716   1.168   1.140   8.087 -0.5548 -0.4423  1.7865
  143SAPE  C31115717   0.986   1.193   7.984  0.3365 -0.4482  0.5287
  143SAPE  H11X15718   0.957   1.086   7.997 -1.0335 -0.3915 -1.5434
  143SAPE  H11Y15719   1.036   1.204   7.885  1.0623  0.2705  0.9639
  143SAPE  C31215720   0.851   1.275   7.994  0.0054  0.1612 -0.4608
  143SAPE  H12X15721   0.889   1.377   8.017  1.1154 -1.1312  4.5265
  143SAPE  H12Y15722   0.804   1.237   8.087  0.7237 -1.6686 -0.8135
  143SAPE  C31315723   0.757   1.269   7.876 -0.3946  0.5726  0.0298
  143SAPE  H13X15724   0.659   1.314   7.902 -0.7606  0.4073 -1.0060
  143SAPE  H13Y15725   0.733   1.162   7.857 -1.3672  0.7429  0.2409
  143SAPE  C31415726   0.805   1.341   7.744  0.6125 -0.2421 -0.0569
  143SAPE  H14X15727   0.731   1.316   7.666  0.0385  0.1971  0.3417
  143SAPE  H14Y15728   0.904   1.305   7.708  1.3563  2.3074 -0.8366
  143SAPE  C31515729   0.803   1.492   7.762 -0.1178 -0.8774 -0.4707
  143SAPE  H15X15730   0.884   1.521   7.833  0.7066  1.4021 -2.2379
  143SAPE  H15Y15731   0.708   1.525   7.808  0.1248  1.3794 -1.4840
  143SAPE  C31615732   0.820   1.569   7.633 -0.1187  0.3922 -0.4146
  143SAPE  H16X15733   0.790   1.500   7.552 -2.6059 -0.7869  1.3806
  143SAPE  H16Y15734   0.924   1.600   7.611  0.6175 -0.2734  1.8706
  143SAPE  C31715735   0.735   1.689   7.630  0.0281 -0.1233  0.4103
  143SAPE  H17X15736   0.628   1.659   7.624  0.0372 -0.3288  1.2069
  143SAPE  H17Y15737   0.766   1.752   7.544 -0.0925  2.3454  2.0568
  143SAPE  C31815738   0.751   1.781   7.747  0.1777 -0.1882 -0.3289
  143SAPE  H18X15739   0.859   1.804   7.760  0.3254 -1.8431  2.0392
  143SAPE  H18Y15740   0.717   1.735   7.842 -0.2242 -0.0659 -0.4098
  143SAPE  H18Z15741   0.699   1.879   7.738  1.7433  0.7328  0.3558
  144SAPE     N15742   5.379   0.501   9.370  0.5286 -0.1544 -0.3275
  144SAPE   HN115743   5.373   0.404   9.408 -1.7364  1.0110  2.6455
  144SAPE   HN215744   5.417   0.507   9.273 -1.3498  0.2875 -1.0708
  144SAPE   HN315745   5.440   0.559   9.432  1.4477 -0.8724 -0.5301
  144SAPE   C1215746   5.244   0.562   9.350  1.4350 -0.3266  0.1681
  144SAPE  H12A15747   5.201   0.520   9.257 -0.5144  3.9698 -1.1657
  144SAPE  H12B15748   5.256   0.670   9.326 -0.7097 -0.3784 -1.3759
  144SAPE   C1115749   5.147   0.540   9.470  0.2876 -0.3882  0.2507
  144SAPE  H11A15750   5.143   0.435   9.505  1.5235 -0.7262 -0.5463
  144SAPE  H11B15751   5.041   0.559   9.441 -0.1557 -1.7519  0.9190
  144SAPE     P15752   5.085   0.726   9.638  0.3611  0.1190  0.2195
  144SAPE   O1315753   4.984   0.668   9.724  0.1098 -0.0892 -0.0922
  144SAPE   O1415754   5.159   0.838   9.701  0.3049 -0.0960  0.0748
  144SAPE   O1215755   5.194   0.624   9.582 -0.0139  0.2796  0.4433
  144SAPE   O1115756   5.013   0.781   9.508 -0.6195  0.0457  0.5507
  144SAPE    C115757   4.872   0.801   9.510 -0.0398  1.2079  0.5970
  144SAPE    HA15758   4.823   0.805   9.609 -2.5995 -1.5264 -0.4199
  144SAPE    HB15759   4.848   0.900   9.465 -2.2526  0.9702  1.1524
  144SAPE    C215760   4.795   0.691   9.421  0.1909  0.1622 -0.2542
  144SAPE    HS15761   4.806   0.600   9.484  0.8155  1.2988  1.3306
  144SAPE   O2115762   4.874   0.662   9.300 -0.1378  0.1153  0.1371
  144SAPE   C2115763   4.897   0.760   9.209 -0.0881 -0.4398  0.1558
  144SAPE   O2215764   4.875   0.877   9.217 -0.1744 -0.2739  0.0582
  144SAPE   C2215765   4.978   0.689   9.108 -0.1608  0.2580  0.1413
  144SAPE   H2R15766   5.058   0.631   9.159  1.2485  1.8550 -0.1682
  144SAPE   H2S15767   4.908   0.620   9.057 -1.4256 -0.1053  2.2711
  144SAPE    C315768   4.647   0.731   9.395  0.4991 -0.0706 -0.1854
  144SAPE    HX15769   4.671   0.825   9.341  2.2153 -0.6021 -0.4053
  144SAPE    HY15770   4.601   0.754   9.494  2.5329 -0.6445  0.9771
  144SAPE   O3115771   4.571   0.639   9.323 -0.1894  0.0028 -0.2258
  144SAPE   C3115772   4.544   0.661   9.199 -0.3558  0.1052 -0.2713
  144SAPE   O3215773   4.600   0.745   9.131  0.2399  0.2331  0.1759
  144SAPE   C3215774   4.455   0.542   9.142  0.2887  0.1317 -0.1554
  144SAPE   H2X15775   4.370   0.524   9.212  1.6941  0.1617  1.6078
  144SAPE   H2Y15776   4.516   0.450   9.142 -1.4894 -1.1568  2.2416
  144SAPE   C2315777   5.049   0.791   9.014 -0.4865 -0.1678  0.0806
  144SAPE   H3R15778   5.135   0.840   9.064  3.2613 -3.0286 -2.8849
  144SAPE   H3S15779   4.976   0.867   8.980  0.4749  0.8607  0.2611
  144SAPE   C2415780   5.100   0.722   8.890 -0.8974 -0.2161  1.0897
  144SAPE   H4R15781   5.147   0.798   8.823  0.1830 -2.8273 -1.3459
  144SAPE   H4S15782   5.014   0.678   8.836  0.2429  0.0943 -1.0848
  144SAPE   C2515783   5.209   0.619   8.902  0.4944  0.0963 -0.0293
  144SAPE   H5R15784   5.278   0.627   8.988 -1.3038  0.6656  1.4215
  144SAPE   C2615785   5.213   0.503   8.837  0.1914 -0.1271  0.1224
  144SAPE   H6R15786   5.282   0.429   8.881 -2.1360 -0.6042  3.3412
  144SAPE   C2715787   5.121   0.458   8.724  0.5867 -0.1350 -0.1442
  144SAPE   H7R15788   5.173   0.400   8.645 -0.7122 -2.3340  0.5458
  144SAPE   H7S15789   5.065   0.543   8.679 -2.0993 -0.4865  2.2592
  144SAPE   C2815790   5.002   0.380   8.780  0.0126 -0.7860  0.4802
  144SAPE   H8R15791   4.919   0.441   8.820  1.1449  1.0452  0.1529
  144SAPE   C2915792   4.991   0.248   8.769 -0.0515 -0.4815 -0.0082
  144SAPE   H9R15793   4.900   0.212   8.820 -1.1108  1.4878 -0.3993
  144SAPE  C21015794   5.075   0.133   8.717  0.8149 -0.3738 -0.1869
  144SAPE  H10R15795   5.083   0.146   8.607 -0.5219 -1.1045 -0.3806
  144SAPE  H10S15796   5.013   0.043   8.733 -1.3936  0.9329 -0.9871
  144SAPE  C21115797   5.218   0.102   8.768  0.5055 -0.3011  0.0703
  144SAPE  H11R15798   5.283   0.188   8.789  0.7257 -0.6512  0.8564
  144SAPE  C21215799   5.269  -0.014   8.806 -0.5748  0.0059  0.0001
  144SAPE  H12R15800   5.368  -0.019   8.854 -1.4811  4.8734  3.0690
  144SAPE  C21315801   5.197  -0.151   8.803  0.1599 -1.4855  0.3083
  144SAPE  H13R15802   5.100  -0.141   8.856  0.7327 -1.6379  1.4038
  144SAPE  H13S15803   5.247  -0.223   8.872 -0.1074  0.9634  3.2580
  144SAPE  C21415804   5.185  -0.197   8.658 -0.4140 -0.3036  0.2620
  144SAPE  H14R15805   5.275  -0.210   8.597 -1.2884 -2.7318 -0.6079
  144SAPE  C21515806   5.078  -0.247   8.596  0.0067  0.0163 -0.1635
  144SAPE  H15R15807   5.087  -0.282   8.492 -2.7723 -1.0650 -0.1192
  144SAPE  C21615808   4.937  -0.266   8.644 -0.7791  0.1909  0.0743
  144SAPE  H16R15809   4.872  -0.216   8.569 -1.1344 -0.2761  0.0696
  144SAPE  H16S15810   4.926  -0.213   8.741  0.7457  0.0242  0.3692
  144SAPE  C21715811   4.893  -0.414   8.655 -0.0755  0.1168  0.3953
  144SAPE  H17R15812   4.938  -0.471   8.572 -1.1958 -1.7021  0.9709
  144SAPE  H17S15813   4.782  -0.418   8.656 -0.1761  2.0341  1.1108
  144SAPE  C21815814   4.956  -0.471   8.785 -0.3650 -0.3000 -0.2165
  144SAPE  H18R15815   5.062  -0.438   8.778 -0.2180 -0.7925 -0.3614
  144SAPE  H18S15816   4.949  -0.582   8.783  1.1659 -0.4124  0.0961
  144SAPE  C21915817   4.889  -0.399   8.905  0.0801 -0.0563  0.5442
  144SAPE  H19R15818   4.781  -0.409   8.883  0.6330 -2.6354 -1.4005
  144SAPE  H19S15819   4.922  -0.294   8.917  0.0142  0.0622 -0.2348
  144SAPE  C22015820   4.914  -0.473   9.042 -0.4535  0.0565 -0.3400
  144SAPE  H20R15821   4.827  -0.539   9.066 -1.1477  0.9024 -0.4675
  144SAPE  H20S15822   4.904  -0.404   9.129  2.1163 -1.4418  1.2778
  144SAPE  H20T15823   5.012  -0.525   9.040  0.2337  1.2746 -3.1231
  144SAPE   C3315824   4.424   0.561   8.993  0.2367 -0.2490  0.0985
  144SAPE   H3X15825   4.370   0.657   8.980 -0.1930 -0.6192 -0.9433
  144SAPE   H3Y15826   4.345   0.486   8.968 -0.1666  0.2344 -0.1043
  144SAPE   C3415827   4.543   0.556   8.891 -0.4099  0.3691 -0.2254
  144SAPE   H4X15828   4.590   0.457   8.908 -1.5635 -0.0515  0.7228
  144SAPE   H4Y15829   4.615   0.641   8.895  1.1765 -0.9407 -0.1710
  144SAPE   C3515830   4.505   0.554   8.744  0.4041 -0.5170 -0.3040
  144SAPE   H5X15831   4.480   0.661   8.727  1.5224  0.0341  1.2720
  144SAPE   H5Y15832   4.411   0.498   8.723 -0.9901  0.2283  3.1734
  144SAPE   C3615833   4.613   0.505   8.637  0.2942 -0.4945 -0.2875
  144SAPE   H6X15834   4.716   0.532   8.670  0.2731  0.0161 -0.6372
  144SAPE   H6Y15835   4.602   0.554   8.539  1.1112 -0.3727 -0.3269
  144SAPE   C3715836   4.613   0.357   8.618  0.3431  0.2696 -0.3395
  144SAPE   H7X15837   4.512   0.310   8.610  0.5941 -0.0187 -2.1032
  144SAPE   H7Y15838   4.647   0.310   8.713 -0.1882 -1.2838 -0.8792
  144SAPE   C3815839   4.703   0.311   8.512 -0.0218  0.8105  0.1136
  144SAPE   H8X15840   4.719   0.202   8.528 -0.2986  0.7647  0.0867
  144SAPE   H8Y15841   4.804   0.352   8.536 -0.2009  1.0704  0.4191
  144SAPE   C3915842   4.682   0.366   8.370 -0.2420 -0.7516  0.5566
  144SAPE   H9X15843   4.759   0.315   8.308  2.4135 -0.1243  3.1243
  144SAPE   H9Y15844   4.698   0.475   8.357 -1.4835 -0.6145  0.0536
  144SAPE  C31015845   4.534   0.350   8.325  0.1764  0.6115  0.7962
  144SAPE  H10X15846   4.467   0.431   8.359 -0.6430  1.2892 -2.1482
  144SAPE  H10Y15847   4.490   0.253   8.358  0.2611 -0.2518 -1.4034
  144SAPE  C31115848   4.508   0.347   8.171 -0.4673 -0.2906 -0.4176
  144SAPE  H11X15849   4.552   0.437   8.123 -1.0304 -0.3296 -1.0253
  144SAPE  H11Y15850   4.398   0.343   8.156 -0.9348  0.5217  2.2761
  144SAPE  C31215851   4.575   0.223   8.099 -0.8052 -0.1706 -0.1155
  144SAPE  H12X15852   4.561   0.125   8.148 -0.7424 -0.4457 -0.6429
  144SAPE  H12Y15853   4.684   0.243   8.091 -1.0388  1.7951  0.9548
  144SAPE  C31315854   4.512   0.207   7.963 -0.0338  0.5321 -0.6042
  144SAPE  H13X15855   4.514   0.308   7.917 -2.9933  0.6427 -0.6440
  144SAPE  H13Y15856   4.402   0.193   7.964 -0.4772  2.4273 -4.1099
  144SAPE  C31415857   4.594   0.101   7.881 -0.5979 -0.6713 -0.2607
  144SAPE  H14X15858   4.605   0.012   7.947  2.2881  1.2823  2.1822
  144SAPE  H14Y15859   4.695   0.139   7.854 -0.4051 -0.0280  1.2749
  144SAPE  C31515860   4.519   0.056   7.753 -0.3496  0.2433 -0.0611
  144SAPE  H15X15861   4.424   0.028   7.804 -0.1204  2.3195  1.6394
  144SAPE  H15Y15862   4.573  -0.031   7.710 -0.3141  0.9101 -1.4017
  144SAPE  C31615863   4.502   0.167   7.646  1.1097  0.2268 -0.0013
  144SAPE  H16X15864   4.590   0.234   7.636 -1.2792  3.3054 -2.3419
  144SAPE  H16Y15865   4.434   0.242   7.691  1.4602 -0.3769  1.6115
  144SAPE  C31715866   4.439   0.124   7.506 -0.1666 -0.1978 -0.2999
  144SAPE  H17X15867   4.447   0.014   7.494 -0.2542 -0.1223 -1.0991
  144SAPE  H17Y15868   4.500   0.185   7.436  0.7136  0.3675  0.9183
  144SAPE  C31815869   4.290   0.166   7.493 -0.2254  0.1870 -0.0947
  144SAPE  H18X15870   4.242   0.138   7.590 -0.5643  2.7457  0.5616
  144SAPE  H18Y15871   4.224   0.118   7.418 -1.6425  3.4836 -1.1619
  144SAPE  H18Z15872   4.275   0.275   7.480  0.2430  0.1375 -1.1158
  145SAPE     N15873   1.280   7.079   9.738  0.3799  0.6068 -0.4363
  145SAPE   HN115874   1.359   7.121   9.791 -0.1398  0.6917  0.2684
  145SAPE   HN215875   1.221   7.027   9.805  1.6470  0.3797  0.5466
  145SAPE   HN315876   1.321   7.007   9.674  0.8636  0.0813  0.4391
  145SAPE   C1215877   1.220   7.188   9.650 -0.0074 -0.2616 -0.4250
  145SAPE  H12A15878   1.175   7.268   9.713 -1.1946 -0.0969 -1.4483
  145SAPE  H12B15879   1.140   7.132   9.597  0.2359 -1.7111  0.6850
  145SAPE   C1115880   1.315   7.230   9.544 -0.9844 -0.7120  0.1489
  145SAPE  H11A15881   1.254   7.283   9.468 -2.5806  1.1692  2.5659
  145SAPE  H11B15882   1.355   7.140   9.493 -0.1345 -1.3095  1.8058
  145SAPE     P15883   1.426   7.473   9.579 -0.3303 -0.5298  0.0491
  145SAPE   O1315884   1.303   7.536   9.635 -0.2694 -0.7022  0.2971
  145SAPE   O1415885   1.553   7.526   9.636  0.8455 -0.1165 -0.4261
  145SAPE   O1215886   1.425   7.310   9.595  0.0881  0.5975 -0.3813
  145SAPE   O1115887   1.438   7.494   9.421 -0.5026 -0.0363  0.5367
  145SAPE    C115888   1.496   7.405   9.318 -0.0198 -0.7382 -0.9123
  145SAPE    HA15889   1.498   7.297   9.344  1.3962 -0.4679  0.2115
  145SAPE    HB15890   1.445   7.423   9.221 -2.1628  0.1854  0.3267
  145SAPE    C215891   1.653   7.442   9.312  0.1354 -0.1326 -0.4044
  145SAPE    HS15892   1.693   7.418   9.412  2.8067  0.2330 -1.3051
  145SAPE   O2115893   1.653   7.580   9.280 -0.2367  0.1634  0.0985
  145SAPE   C2115894   1.761   7.649   9.287  0.1130  0.1835  0.5139
  145SAPE   O2215895   1.867   7.615   9.330 -1.1289  0.0878  1.1325
  145SAPE   C2215896   1.738   7.784   9.219 -0.8802  0.3223  0.2628
  145SAPE   H2R15897   1.823   7.796   9.149  0.1845 -4.2126  0.4362
  145SAPE   H2S15898   1.644   7.775   9.160 -1.3340  3.0269  0.4460
  145SAPE    C315899   1.736   7.350   9.214  0.3547  0.8307  0.3199
  145SAPE    HX15900   1.734   7.250   9.261 -0.1225  1.2224  1.1495
  145SAPE    HY15901   1.841   7.386   9.220  0.0534  1.6480  0.9108
  145SAPE   O3115902   1.683   7.340   9.081 -0.2987 -0.9973  0.0719
  145SAPE   C3115903   1.771   7.292   8.999  0.3862 -0.1916 -0.0198
  145SAPE   O3215904   1.886   7.259   9.025  0.0571  0.9358  0.2400
  145SAPE   C3215905   1.700   7.291   8.864 -0.1840 -0.4566 -0.2497
  145SAPE   H2X15906   1.660   7.393   8.849 -0.7989 -0.7516 -0.7013
  145SAPE   H2Y15907   1.617   7.221   8.891 -1.4447  1.8081  2.1701
  145SAPE   C2315908   1.714   7.896   9.318  0.0142 -0.0126 -0.2062
  145SAPE   H3R15909   1.806   7.904   9.380  2.3635 -1.9217 -3.1190
  145SAPE   H3S15910   1.635   7.862   9.388  0.8771  0.4299  1.0224
  145SAPE   C2415911   1.669   8.029   9.257 -0.0776  0.2855  0.4659
  145SAPE   H4R15912   1.630   8.081   9.347 -2.3866 -0.4726 -0.0398
  145SAPE   H4S15913   1.582   8.007   9.192 -0.3547 -1.9435  1.4827
  145SAPE   C2515914   1.782   8.094   9.177 -0.1269 -0.3053 -0.3598
  145SAPE   H5R15915   1.871   8.112   9.239 -1.2650  0.4322  1.1097
  145SAPE   C2615916   1.783   8.124   9.046 -0.2598  0.4742 -0.0976
  145SAPE   H6R15917   1.882   8.148   9.005  0.1348  1.6309  1.4360
  145SAPE   C2715918   1.667   8.099   8.952 -0.3983  0.3003 -0.4395
  145SAPE   H7R15919   1.591   8.180   8.956  0.5146  1.1967 -0.9824
  145SAPE   H7S15920   1.606   8.012   8.985 -2.0159  0.8187 -1.9362
  145SAPE   C2815921   1.713   8.071   8.806 -0.4186  0.1118  0.3611
  145SAPE   H8R15922   1.808   8.020   8.786 -0.3393  0.2419  0.4086
  145SAPE   C2915923   1.640   8.083   8.693 -0.0719  0.0908  0.8248
  145SAPE   H9R15924   1.683   8.064   8.594  0.6120  2.6100  0.5629
  145SAPE  C21015925   1.490   8.119   8.674 -0.1071 -0.0548 -0.0333
  145SAPE  H10R15926   1.476   8.192   8.591  0.3189 -1.4673 -1.4173
  145SAPE  H10S15927   1.452   8.170   8.765  0.1235 -0.7558  0.4646
  145SAPE  C21115928   1.400   8.002   8.648  1.0168  0.1701  0.2081
  145SAPE  H11R15929   1.449   7.908   8.620 -1.2352 -1.2763  0.8588
  145SAPE  C21215930   1.269   7.986   8.665 -0.3367 -0.4907  0.7524
  145SAPE  H12R15931   1.217   7.896   8.629 -0.1982 -0.5591  0.7230
  145SAPE  C21315932   1.192   8.101   8.709  0.1883 -0.1007  0.8738
  145SAPE  H13R15933   1.236   8.196   8.674 -1.2510  0.4452  0.4774
  145SAPE  H13S15934   1.197   8.113   8.819  0.8910  0.3328  0.7970
  145SAPE  C21415935   1.039   8.083   8.674 -0.0619  0.0954  0.4997
  145SAPE  H14R15936   0.981   8.010   8.732 -1.4161  0.3080 -0.5228
  145SAPE  C21515937   0.969   8.166   8.590 -0.1012  0.5844 -0.1704
  145SAPE  H15R15938   0.864   8.146   8.565  0.5665 -2.7939 -0.6357
  145SAPE  C21615939   1.043   8.269   8.502 -0.0382 -0.3698  0.1032
  145SAPE  H16R15940   1.120   8.322   8.562 -0.4930 -0.1410  0.4988
  145SAPE  H16S15941   0.973   8.353   8.479 -0.3027 -1.0391 -1.7120
  145SAPE  C21715942   1.102   8.211   8.375  0.0646 -0.5933  1.0093
  145SAPE  H17R15943   1.170   8.125   8.389 -1.1225 -1.7631 -0.1794
  145SAPE  H17S15944   1.147   8.291   8.312  0.4118 -1.3583  0.2727
  145SAPE  C21815945   0.998   8.153   8.270  1.1252  0.3144 -0.2925
  145SAPE  H18R15946   1.039   8.166   8.167 -1.3598 -1.2368 -1.5595
  145SAPE  H18S15947   0.902   8.205   8.252  0.6421 -1.3347 -3.1659
  145SAPE  C21915948   0.989   7.996   8.264  0.2507  0.3995 -0.0961
  145SAPE  H19R15949   0.928   7.974   8.354  1.0720 -2.7011 -0.1959
  145SAPE  H19S15950   1.084   7.945   8.291  0.2379 -0.3144 -1.2900
  145SAPE  C22015951   0.931   7.958   8.127  0.1324  0.4300  0.3472
  145SAPE  H20R15952   1.007   7.952   8.047  0.9398  1.7839  0.9687
  145SAPE  H20S15953   0.849   8.024   8.090 -1.7097 -0.1995  2.9627
  145SAPE  H20T15954   0.891   7.856   8.148  1.3370  0.2203  1.7865
  145SAPE   C3315955   1.789   7.252   8.743  0.8683 -0.3826  0.3317
  145SAPE   H3X15956   1.827   7.149   8.764  2.3369 -0.3035 -1.6891
  145SAPE   H3Y15957   1.881   7.311   8.727  0.5156  0.7222  2.1205
  145SAPE   C3415958   1.704   7.252   8.617 -0.0307 -0.0081  0.5374
  145SAPE   H4X15959   1.644   7.345   8.611 -0.5579 -0.3819 -0.2960
  145SAPE   H4Y15960   1.628   7.171   8.624 -1.2909  1.0152 -0.7006
  145SAPE   C3515961   1.791   7.220   8.495  0.8096  0.7098  0.0764
  145SAPE   H5X15962   1.856   7.135   8.525 -1.1645 -1.8072 -2.2222
  145SAPE   H5Y15963   1.862   7.304   8.483  2.5463 -0.6253  0.5660
  145SAPE   C3615964   1.725   7.197   8.363  0.0903 -0.1328 -0.7142
  145SAPE   H6X15965   1.645   7.121   8.381 -1.9166  2.1822  0.7857
  145SAPE   H6Y15966   1.797   7.174   8.282  0.1481 -0.6493 -0.5194
  145SAPE   C3715967   1.643   7.322   8.318  0.3482 -0.1181  0.1525
  145SAPE   H7X15968   1.718   7.404   8.320  0.8314 -0.5474  2.6154
  145SAPE   H7Y15969   1.550   7.335   8.377 -0.4795  1.7486 -1.4350
  145SAPE   C3815970   1.602   7.306   8.166  0.0386  0.2764  0.4611
  145SAPE   H8X15971   1.516   7.236   8.164  0.0826  0.1751  1.4472
  145SAPE   H8Y15972   1.694   7.259   8.126  0.4511 -2.8264  4.3379
  145SAPE   C3915973   1.574   7.433   8.085  0.4568  0.7801 -0.2216
  145SAPE   H9X15974   1.654   7.506   8.110  1.5033 -0.5010  0.3002
  145SAPE   H9Y15975   1.476   7.477   8.113 -0.9329 -1.7758 -0.8431
  145SAPE  C31015976   1.572   7.407   7.936  0.0726 -0.3467 -0.6665
  145SAPE  H10X15977   1.668   7.364   7.901 -0.4190 -1.3388 -0.8341
  145SAPE  H10Y15978   1.558   7.502   7.878 -0.3521 -0.5797 -0.9499
  145SAPE  C31115979   1.453   7.338   7.877  0.7246  1.0759 -0.3013
  145SAPE  H11X15980   1.349   7.374   7.892 -0.3435 -1.8481 -0.0674
  145SAPE  H11Y15981   1.449   7.240   7.928 -0.4448  0.2197 -1.9649
  145SAPE  C31215982   1.475   7.318   7.729  0.0543  0.5578  0.3620
  145SAPE  H12X15983   1.583   7.309   7.703  0.1047  3.5264 -0.8346
  145SAPE  H12Y15984   1.438   7.415   7.690  1.0090  0.5147 -0.7395
  145SAPE  C31315985   1.389   7.204   7.676 -0.1544 -0.1940 -0.6425
  145SAPE  H13X15986   1.282   7.234   7.676 -0.3677 -0.8822 -2.0396
  145SAPE  H13Y15987   1.407   7.109   7.731  0.5471  0.9433  1.1962
  145SAPE  C31415988   1.421   7.186   7.527  0.6423  0.4776  0.7440
  145SAPE  H14X15989   1.506   7.116   7.513 -0.6911 -0.6934 -2.2556
  145SAPE  H14Y15990   1.454   7.285   7.488  1.2466  0.5631  1.4462
  145SAPE  C31515991   1.306   7.139   7.440  0.2758 -0.1014  0.0540
  145SAPE  H15X15992   1.224   7.212   7.452 -0.1852 -0.3562 -1.3284
  145SAPE  H15Y15993   1.293   7.031   7.463  3.8489 -0.8092 -0.5238
  145SAPE  C31615994   1.340   7.141   7.288  0.2694 -0.2524 -0.5565
  145SAPE  H16X15995   1.448   7.114   7.290  0.0404 -1.1810  0.2971
  145SAPE  H16Y15996   1.331   7.243   7.246 -1.2756 -1.5504 -3.7219
  145SAPE  C31715997   1.263   7.037   7.198  0.3717 -0.3818 -0.3234
  145SAPE  H17X15998   1.155   7.062   7.208  0.8707  1.9524 -0.2451
  145SAPE  H17Y15999   1.280   6.933   7.235  3.2568  0.0655 -0.2127
  145SAPE  C31816000   1.312   7.047   7.053  0.3004 -0.1963 -0.1678
  145SAPE  H18X16001   1.283   7.150   7.022  1.7699  0.1861 -0.3493
  145SAPE  H18Y16002   1.257   6.982   6.982 -1.6479  1.1149  0.0575
  145SAPE  H18Z16003   1.421   7.034   7.032  0.4994 -1.1576  1.3171
  146SAPE     N16004   6.013   0.853   9.330  0.5441 -0.4334 -0.5031
  146SAPE   HN116005   5.955   0.872   9.246 -2.6833  1.3380  1.8852
  146SAPE   HN216006   5.986   0.762   9.372  0.2419 -0.0581  0.1455
  146SAPE   HN316007   5.988   0.930   9.396 -0.1004 -0.6285 -0.5093
  146SAPE   C1216008   6.159   0.844   9.282 -0.4583  0.2269  0.3315
  146SAPE  H12A16009   6.191   0.946   9.255 -1.5534  0.6550  0.6138
  146SAPE  H12B16010   6.152   0.780   9.191 -0.6189  0.3892  0.2317
  146SAPE   C1116011   6.254   0.782   9.379 -0.2534  0.2698 -0.1499
  146SAPE  H11A16012   6.281   0.843   9.467  0.4479 -1.0535  0.5829
  146SAPE  H11B16013   6.352   0.771   9.328  1.1059  2.1692  1.8821
  146SAPE     P16014   6.226   0.518   9.369  0.0542  0.4864 -0.1224
  146SAPE   O1316015   6.325   0.450   9.455 -0.0355 -0.7233  0.0328
  146SAPE   O1416016   6.103   0.441   9.351 -0.3090 -0.2136 -0.4820
  146SAPE   O1216017   6.196   0.660   9.430  0.3417 -0.1175  0.4015
  146SAPE   O1116018   6.284   0.554   9.227  0.1194  0.3589  0.0962
  146SAPE    C116019   6.361   0.462   9.149 -0.4542 -0.2765  0.9066
  146SAPE    HA16020   6.344   0.360   9.188  0.1068 -0.2739  1.1641
  146SAPE    HB16021   6.344   0.482   9.041  0.6355  3.6875  1.2921
  146SAPE    C216022   6.515   0.489   9.156  0.3961  0.0786 -0.6623
  146SAPE    HS16023   6.546   0.508   9.261 -0.7387 -1.3320 -0.0396
  146SAPE   O2116024   6.538   0.602   9.073 -0.1975 -0.5975 -0.5008
  146SAPE   C2116025   6.563   0.724   9.127 -0.5106  0.0835  0.4854
  146SAPE   O2216026   6.605   0.743   9.241  0.3597 -0.7819 -0.4993
  146SAPE   C2216027   6.544   0.828   9.016 -0.5442 -0.0083  0.6885
  146SAPE   H2R16028   6.619   0.797   8.939 -1.3095 -0.4374  0.1055
  146SAPE   H2S16029   6.441   0.813   8.976 -0.1569 -5.1290  0.9178
  146SAPE    C316030   6.606   0.367   9.099  0.4375 -0.3007  0.2837
  146SAPE    HX16031   6.616   0.287   9.175 -1.2827 -0.7050  0.1406
  146SAPE    HY16032   6.705   0.414   9.083  1.4311 -2.3803  0.0881
  146SAPE   O3116033   6.557   0.318   8.969  0.3232  0.2605 -0.5156
  146SAPE   C3116034   6.496   0.207   8.959  0.1689 -0.0908  0.6150
  146SAPE   O3216035   6.472   0.129   9.049 -0.1994 -0.2456  0.3837
  146SAPE   C3216036   6.442   0.195   8.815 -0.2702  0.6290 -0.9704
  146SAPE   H2X16037   6.527   0.203   8.744 -1.4162  0.8147 -2.3562
  146SAPE   H2Y16038   6.377   0.281   8.785  0.0050  0.6173 -1.6031
  146SAPE   C2316039   6.562   0.970   9.059 -1.1950  0.3572 -0.7293
  146SAPE   H3R16040   6.655   0.966   9.119  0.6953 -2.3494 -3.5705
  146SAPE   H3S16041   6.473   0.995   9.121 -0.8856  1.6351 -0.7854
  146SAPE   C2416042   6.577   1.062   8.946 -0.1520 -0.3009  0.0645
  146SAPE   H4R16043   6.490   1.059   8.876  0.9222 -1.8072 -1.2718
  146SAPE   H4S16044   6.667   1.037   8.886 -1.2485 -1.0709 -1.3489
  146SAPE   C2516045   6.576   1.210   8.991  0.4009  0.1635  0.8062
  146SAPE   H5R16046   6.553   1.230   9.097 -1.0806 -1.5643  0.8621
  146SAPE   C2616047   6.590   1.313   8.902 -0.0558  0.6169 -0.0498
  146SAPE   H6R16048   6.564   1.413   8.942 -1.0899  0.4638 -0.3077
  146SAPE   C2716049   6.620   1.302   8.750 -0.0782  0.1289 -0.3133
  146SAPE   H7R16050   6.692   1.218   8.733  1.5795  1.4286  0.0039
  146SAPE   H7S16051   6.664   1.390   8.699 -0.8783 -0.6735 -2.4853
  146SAPE   C2816052   6.487   1.268   8.678 -0.6528  0.2084  0.1926
  146SAPE   H8R16053   6.394   1.251   8.735 -0.4985  0.4847  0.5257
  146SAPE   C2916054   6.474   1.234   8.545 -0.4005  0.2829 -0.3333
  146SAPE   H9R16055   6.378   1.208   8.499 -0.1586  1.0635 -1.3357
  146SAPE  C21016056   6.580   1.237   8.445 -0.4857  0.0745  1.0255
  146SAPE  H10R16057   6.660   1.302   8.489 -0.1615 -0.5124  1.3102
  146SAPE  H10S16058   6.547   1.295   8.356 -0.3527 -0.5486  0.5677
  146SAPE  C21116059   6.633   1.096   8.423 -0.4129  0.1643 -0.5585
  146SAPE  H11R16060   6.645   1.032   8.512  3.7923 -1.2117 -1.8843
  146SAPE  C21216061   6.689   1.054   8.311 -0.1470  0.3532 -0.3783
  146SAPE  H12R16062   6.741   0.957   8.303  1.8189  1.4941 -2.3902
  146SAPE  C21316063   6.719   1.143   8.191 -0.1916  0.0080  0.2544
  146SAPE  H13R16064   6.712   1.252   8.209 -4.3104  0.3535 -2.2607
  146SAPE  H13S16065   6.631   1.122   8.127 -0.0646  0.3181 -0.0212
  146SAPE  C21416066   6.845   1.120   8.117 -0.0980 -0.0856 -0.1277
  146SAPE  H14R16067   6.924   1.082   8.185 -1.4300 -2.4859  0.2133
  146SAPE  C21516068   6.867   1.121   7.981 -0.0602 -0.3744 -0.3019
  146SAPE  H15R16069   6.963   1.080   7.946 -0.4170 -0.3096 -1.3937
  146SAPE  C21616070   6.765   1.172   7.890  0.0988 -0.1939  0.9549
  146SAPE  H16R16071   6.811   1.253   7.830 -0.1577 -1.5394 -1.1312
  146SAPE  H16S16072   6.677   1.220   7.939  0.8376  1.6483  0.5603
  146SAPE  C21716073   6.704   1.063   7.793 -0.2617 -0.5127 -0.5405
  146SAPE  H17R16074   6.785   0.992   7.764 -0.5003 -1.3616  0.7590
  146SAPE  H17S16075   6.669   1.124   7.707  1.2318 -1.1789 -1.6776
  146SAPE  C21816076   6.584   0.979   7.863 -0.4440  0.3727  0.7450
  146SAPE  H18R16077   6.492   1.028   7.826  0.4301  0.9687 -0.7431
  146SAPE  H18S16078   6.583   0.991   7.973 -0.3493 -1.0437  0.9215
  146SAPE  C21916079   6.584   0.828   7.830  0.7422 -0.3260  0.0142
  146SAPE  H19R16080   6.559   0.801   7.726 -0.6798 -2.0174  0.7372
  146SAPE  H19S16081   6.507   0.774   7.889  1.6893 -1.0419  0.6478
  146SAPE  C22016082   6.715   0.758   7.873  0.4943 -0.1518 -0.1271
  146SAPE  H20R16083   6.795   0.801   7.809  0.4178 -0.4121 -0.3987
  146SAPE  H20S16084   6.700   0.648   7.874  0.9048 -0.2521  2.7825
  146SAPE  H20T16085   6.742   0.805   7.970 -1.0653 -0.2676  0.3847
  146SAPE   C3316086   6.367   0.064   8.783  0.1345 -0.0127 -0.3570
  146SAPE   H3X16087   6.260   0.091   8.775  0.1552 -0.1257 -1.0744
  146SAPE   H3Y16088   6.373  -0.009   8.867  1.4619  0.1762 -0.2682
  146SAPE   C3416089   6.405  -0.008   8.649 -0.2665 -0.1924  0.4106
  146SAPE   H4X16090   6.349  -0.104   8.650 -1.4008  0.4491  0.7828
  146SAPE   H4Y16091   6.516  -0.016   8.655 -0.2563  0.6402  2.0363
  146SAPE   C3516092   6.383   0.079   8.527  0.2208  0.8265  0.6661
  146SAPE   H5X16093   6.428   0.181   8.535 -1.4399  1.5027  1.8017
  146SAPE   H5Y16094   6.272   0.080   8.531  0.0376 -3.9609  2.4990
  146SAPE   C3616095   6.443   0.011   8.398 -0.5249 -0.2931 -0.0983
  146SAPE   H6X16096   6.425  -0.097   8.414 -1.8655  0.2410  2.4035
  146SAPE   H6Y16097   6.553   0.025   8.393 -0.3164 -1.2692  1.1764
  146SAPE   C3716098   6.377   0.069   8.269  0.6818 -0.0679 -0.3508
  146SAPE   H7X16099   6.436   0.159   8.243 -1.2367  1.1085 -0.8010
  146SAPE   H7Y16100   6.280   0.106   8.309  0.8743 -0.9289  0.9955
  146SAPE   C3816101   6.369  -0.027   8.152  0.1197 -0.5148 -0.8647
  146SAPE   H8X16102   6.327  -0.125   8.186 -0.4691  0.2823  0.8042
  146SAPE   H8Y16103   6.474  -0.041   8.117  0.4195 -0.6164  0.0533
  146SAPE   C3916104   6.291   0.027   8.031  0.3497 -0.0032 -0.1582
  146SAPE   H9X16105   6.299   0.138   8.032  0.3769 -0.0005  1.3088
  146SAPE   H9Y16106   6.183   0.006   8.047  0.7489 -0.5957  2.0766
  146SAPE  C31016107   6.349  -0.037   7.903 -0.0824 -0.3858 -0.7608
  146SAPE  H10X16108   6.299  -0.135   7.889 -0.8823 -1.1115  4.9609
  146SAPE  H10Y16109   6.459  -0.049   7.914 -0.1909 -1.0475 -0.3680
  146SAPE  C31116110   6.314   0.048   7.790  0.6687  0.0203  0.3636
  146SAPE  H11X16111   6.371   0.143   7.798  0.4655  0.0767  1.2358
  146SAPE  H11Y16112   6.210   0.085   7.782  1.3580  1.6810 -1.8077
  146SAPE  C31216113   6.344  -0.005   7.651  0.0351  0.4156  0.6477
  146SAPE  H12X16114   6.281  -0.091   7.618  1.3468  0.2192 -1.5628
  146SAPE  H12Y16115   6.449  -0.040   7.659  0.0056  0.0278 -0.5258
  146SAPE  C31316116   6.349   0.109   7.548  0.2244  0.2023  0.0864
  146SAPE  H13X16117   6.405   0.194   7.595  1.1841 -0.7387  0.6924
  146SAPE  H13Y16118   6.243   0.132   7.524  0.7488  1.6838 -0.9677
  146SAPE  C31416119   6.413   0.055   7.416 -0.4871  0.2248  0.6167
  146SAPE  H14X16120   6.352  -0.032   7.382 -0.0004 -0.3561  1.1944
  146SAPE  H14Y16121   6.516   0.020   7.439 -0.7684 -0.3738  1.0277
  146SAPE  C31516122   6.416   0.163   7.304  0.0346 -0.1015  0.4075
  146SAPE  H15X16123   6.455   0.123   7.208 -2.6319  2.6832 -2.0355
  146SAPE  H15Y16124   6.492   0.231   7.346  0.4468  0.6682 -1.4943
  146SAPE  C31616125   6.290   0.242   7.265 -0.3715 -0.2485 -0.8765
  146SAPE  H16X16126   6.312   0.312   7.181  2.0105  0.8742  0.5712
  146SAPE  H16Y16127   6.262   0.310   7.348 -0.7411  1.1304 -2.0809
  146SAPE  C31716128   6.174   0.152   7.239 -0.6489  0.1933  0.1573
  146SAPE  H17X16129   6.179   0.067   7.310  1.8098 -0.1045 -0.2755
  146SAPE  H17Y16130   6.198   0.098   7.146  2.7943 -1.0347  1.5911
  146SAPE  C31816131   6.032   0.212   7.220 -0.4083 -0.2526 -0.3349
  146SAPE  H18X16132   6.026   0.254   7.117 -2.5417 -0.3758 -0.3042
  146SAPE  H18Y16133   6.018   0.284   7.303  1.9325  0.9919 -0.9178
  146SAPE  H18Z16134   5.957   0.131   7.231  0.2250 -0.4640  3.8347
  147SAPE     N16135   3.751   3.868   5.955 -0.0764 -0.4725  0.2542
  147SAPE   HN116136   3.677   3.852   6.027 -0.7942  1.2469 -0.0499
  147SAPE   HN216137   3.756   3.775   5.908  4.6666 -0.9626  1.3135
  147SAPE   HN316138   3.841   3.902   5.994  0.6134 -2.2056  0.2907
  147SAPE   C1216139   3.696   3.962   5.854  0.1159  0.1346  0.1944
  147SAPE  H12A16140   3.647   4.043   5.912  0.4076  0.5100 -0.0766
  147SAPE  H12B16141   3.615   3.916   5.794  1.4357 -2.8967  0.5624
  147SAPE   C1116142   3.800   4.013   5.747 -0.0254  1.1712 -1.0002
  147SAPE  H11A16143   3.744   4.077   5.676 -1.3399 -0.9166 -1.9471
  147SAPE  H11B16144   3.835   3.922   5.695  2.1012  0.5809  1.2383
  147SAPE     P16145   4.010   4.158   5.724 -0.2094  0.2511  0.0012
  147SAPE   O1316146   4.056   4.076   5.610  0.0990  0.4319 -0.2003
  147SAPE   O1416147   3.929   4.278   5.690  0.0063  0.0723 -0.2666
  147SAPE   O1216148   3.916   4.068   5.811  0.3668 -0.0981 -0.6597
  147SAPE   O1116149   4.133   4.194   5.817 -0.6597 -0.0140  0.1743
  147SAPE    C116150   4.212   4.099   5.889  0.2905  0.1780  0.0636
  147SAPE    HA16151   4.258   4.029   5.816 -1.5069 -0.6768 -0.2862
  147SAPE    HB16152   4.296   4.161   5.928 -0.3829  0.0957  1.7199
  147SAPE    C216153   4.154   4.022   6.004 -0.0241  0.0407 -0.5372
  147SAPE    HS16154   4.067   3.962   5.968  0.3261 -0.2377 -0.9244
  147SAPE   O2116155   4.118   4.111   6.113 -0.3916  0.2673  0.0603
  147SAPE   C2116156   4.000   4.084   6.164 -0.6810  0.5494 -0.3072
  147SAPE   O2216157   3.925   3.989   6.141  0.1286  0.6025  0.6286
  147SAPE   C2216158   3.961   4.209   6.250 -0.3726 -0.6519  0.0038
  147SAPE   H2R16159   3.962   4.170   6.354 -3.8528 -3.2686 -0.7392
  147SAPE   H2S16160   4.038   4.289   6.250 -1.2147  0.1920  0.8181
  147SAPE    C316161   4.258   3.927   6.065  0.4971 -0.3196 -0.0516
  147SAPE    HX16162   4.338   4.000   6.090 -2.3834  3.0722 -0.0293
  147SAPE    HY16163   4.291   3.863   5.980  1.6631  2.0279 -1.4874
  147SAPE   O3116164   4.209   3.844   6.179  0.3121  0.1590 -0.0367
  147SAPE   C3116165   4.139   3.741   6.143 -0.3617 -0.7398 -0.0857
  147SAPE   O3216166   4.089   3.721   6.036  0.4207 -0.0231  0.2111
  147SAPE   C3216167   4.135   3.640   6.257 -0.9356  0.0790  0.1237
  147SAPE   H2X16168   4.130   3.703   6.348  0.7863  1.2226 -0.5145
  147SAPE   H2Y16169   4.232   3.586   6.262 -0.9590  0.0811  0.6207
  147SAPE   C2316170   3.823   4.269   6.206 -0.5821 -0.3017  0.6602
  147SAPE   H3R16171   3.752   4.188   6.179  0.5965 -1.9481  2.2727
  147SAPE   H3S16172   3.844   4.333   6.118 -0.8487  0.9265  1.4505
  147SAPE   C2416173   3.757   4.350   6.320 -0.4413 -0.3496 -0.2091
  147SAPE   H4R16174   3.661   4.391   6.280  0.4641 -0.9434 -3.3100
  147SAPE   H4S16175   3.823   4.432   6.353 -0.1154 -1.0235  0.8341
  147SAPE   C2516176   3.740   4.256   6.432  0.1892 -0.0717  0.1611
  147SAPE   H5R16177   3.719   4.152   6.406  0.8815 -0.4275  0.9969
  147SAPE   C2616178   3.737   4.280   6.561  0.3427 -0.3603  0.0310
  147SAPE   H6R16179   3.717   4.194   6.628  1.0595  0.7612  1.7490
  147SAPE   C2716180   3.760   4.413   6.629 -0.1786 -0.2016  0.1012
  147SAPE   H7R16181   3.805   4.490   6.562  0.5693 -1.3279 -0.7175
  147SAPE   H7S16182   3.839   4.401   6.706 -1.9459 -1.3748  1.8198
  147SAPE   C2816183   3.639   4.464   6.705  0.8226 -0.0996 -0.1072
  147SAPE   H8R16184   3.546   4.465   6.645  0.6018  2.3330  0.1617
  147SAPE   C2916185   3.630   4.482   6.837  0.0532  0.2271  0.1274
  147SAPE   H9R16186   3.534   4.523   6.870 -0.6547 -0.5416 -0.9205
  147SAPE  C21016187   3.739   4.474   6.943 -0.0211 -0.0731  0.0989
  147SAPE  H10R16188   3.751   4.582   6.967 -1.2313  0.5626 -1.9311
  147SAPE  H10S16189   3.837   4.446   6.898 -0.7671 -1.7132 -0.5925
  147SAPE  C21116190   3.713   4.383   7.067  0.1309  0.0111  0.4926
  147SAPE  H11R16191   3.768   4.289   7.085 -1.9947 -1.0241  2.0242
  147SAPE  C21216192   3.601   4.398   7.150 -0.5473 -0.4091 -0.3249
  147SAPE  H12R16193   3.574   4.319   7.221 -0.0107  0.3489  0.7510
  147SAPE  C21316194   3.497   4.506   7.150 -0.2810 -0.9672 -0.0493
  147SAPE  H13R16195   3.399   4.454   7.146 -0.8187 -0.0474 -4.7332
  147SAPE  H13S16196   3.505   4.582   7.070 -0.5354  0.0099  0.8297
  147SAPE  C21416197   3.505   4.595   7.273  0.4743 -0.3357  0.2350
  147SAPE  H14R16198   3.595   4.578   7.333  0.4555 -0.9779  0.0894
  147SAPE  C21516199   3.408   4.682   7.318 -0.1739  0.1586 -0.3421
  147SAPE  H15R16200   3.409   4.744   7.409 -0.6210  1.5547 -1.2525
  147SAPE  C21616201   3.279   4.711   7.235  0.0391 -0.0538  0.4355
  147SAPE  H16R16202   3.290   4.673   7.131 -0.9002  0.6636  0.0645
  147SAPE  H16S16203   3.265   4.821   7.230  0.0266  0.0518  2.1609
  147SAPE  C21716204   3.151   4.645   7.286  0.1547  0.1193 -0.2710
  147SAPE  H17R16205   3.170   4.536   7.286 -1.0170 -0.1023 -0.1401
  147SAPE  H17S16206   3.070   4.660   7.211  1.3327  1.1489 -1.3700
  147SAPE  C21816207   3.093   4.701   7.417 -0.0255  0.1266 -0.1056
  147SAPE  H18R16208   3.093   4.812   7.412  0.8646  0.1344 -0.0425
  147SAPE  H18S16209   3.154   4.670   7.504  0.8816  1.7850 -0.1065
  147SAPE  C21916210   2.949   4.649   7.433 -0.7629 -0.4363 -0.4702
  147SAPE  H19R16211   2.897   4.658   7.335  1.9097 -0.3306 -1.9960
  147SAPE  H19S16212   2.895   4.708   7.510  0.6942 -0.2617  0.4694
  147SAPE  C22016213   2.937   4.502   7.465 -0.2336 -0.3080  0.1343
  147SAPE  H20R16214   2.940   4.489   7.575 -0.7331 -0.3254  0.1476
  147SAPE  H20S16215   3.019   4.448   7.413 -0.3638 -0.4411  0.0682
  147SAPE  H20T16216   2.846   4.459   7.418  0.6626 -0.7839 -1.2458
  147SAPE   C3316217   4.024   3.541   6.251  0.5066  0.9903  0.7464
  147SAPE   H3X16218   4.037   3.466   6.332  2.2682  0.2405 -0.1558
  147SAPE   H3Y16219   4.044   3.475   6.163  0.5441 -1.2936  2.3750
  147SAPE   C3416220   3.883   3.594   6.251  0.2719  0.4446  0.2478
  147SAPE   H4X16221   3.808   3.517   6.220  0.3738  0.9706 -1.4137
  147SAPE   H4Y16222   3.885   3.652   6.156  2.4387 -0.7003 -0.4913
  147SAPE   C3516223   3.833   3.673   6.377 -0.1439 -0.1027 -0.2184
  147SAPE   H5X16224   3.917   3.743   6.400 -0.4692  0.0125  0.6559
  147SAPE   H5Y16225   3.814   3.609   6.465 -1.1958 -2.8122 -2.2627
  147SAPE   C3616226   3.708   3.759   6.344 -0.6951  0.2978 -0.3371
  147SAPE   H6X16227   3.626   3.685   6.332 -0.4624 -0.9313  4.0076
  147SAPE   H6Y16228   3.723   3.818   6.251 -1.7521  0.8785 -0.1567
  147SAPE   C3716229   3.673   3.850   6.463  0.0423 -0.2889  0.9259
  147SAPE   H7X16230   3.589   3.920   6.440  2.1111  1.7076 -1.0453
  147SAPE   H7Y16231   3.765   3.910   6.478 -0.0886  0.3371 -0.5493
  147SAPE   C3816232   3.640   3.774   6.590  1.3476  0.0548 -0.4845
  147SAPE   H8X16233   3.717   3.698   6.616  1.2007 -0.4783 -1.5491
  147SAPE   H8Y16234   3.540   3.725   6.595  0.1585  2.4568  1.5266
  147SAPE   C3916235   3.632   3.869   6.702 -1.0952  0.6471  0.0524
  147SAPE   H9X16236   3.728   3.922   6.724 -0.7813  0.1996 -0.2083
  147SAPE   H9Y16237   3.622   3.805   6.793  3.4563 -0.3492  0.1002
  147SAPE  C31016238   3.522   3.973   6.718  0.7081 -0.0878 -0.4718
  147SAPE  H10X16239   3.433   3.906   6.719  2.1945 -2.1619  0.7411
  147SAPE  H10Y16240   3.501   4.041   6.633 -2.7184  0.3598  0.5679
  147SAPE  C31116241   3.549   4.064   6.843  0.3564  0.2887  0.8732
  147SAPE  H11X16242   3.632   4.135   6.822  0.5459 -0.2419 -0.2267
  147SAPE  H11Y16243   3.590   3.990   6.915 -0.3523  1.2829  2.3478
  147SAPE  C31216244   3.423   4.137   6.893  0.6328  0.0740 -0.2767
  147SAPE  H12X16245   3.363   4.175   6.807  2.0518  2.3005 -0.3528
  147SAPE  H12Y16246   3.449   4.217   6.965  0.6712  0.0160 -0.2264
  147SAPE  C31316247   3.341   4.043   6.981  1.2200  0.4594  0.3014
  147SAPE  H13X16248   3.402   3.978   7.047 -2.1385 -0.5696  2.6569
  147SAPE  H13Y16249   3.296   3.969   6.911  0.1858  0.8038  0.5891
  147SAPE  C31416250   3.242   4.109   7.083  0.0818  0.2728  0.3152
  147SAPE  H14X16251   3.171   4.170   7.023  0.4957  0.3759 -0.0766
  147SAPE  H14Y16252   3.309   4.167   7.150 -0.9455  0.4806  1.1846
  147SAPE  C31516253   3.154   4.018   7.161  0.3579  0.3239 -0.4349
  147SAPE  H15X16254   3.213   3.944   7.218 -0.9110 -0.0766  0.3879
  147SAPE  H15Y16255   3.095   3.957   7.090  1.2892  0.9725 -1.8326
  147SAPE  C31616256   3.062   4.085   7.261 -0.5370 -0.0873 -0.7471
  147SAPE  H16X16257   3.031   4.178   7.209  1.6325 -0.2697 -2.5256
  147SAPE  H16Y16258   3.125   4.133   7.339 -0.3514 -0.6412 -0.5489
  147SAPE  C31716259   2.953   4.002   7.324  0.3867  0.3482 -0.1072
  147SAPE  H17X16260   2.863   3.999   7.258 -0.6120  0.4059  1.2068
  147SAPE  H17Y16261   2.913   4.060   7.410 -2.5934  0.7731 -1.6411
  147SAPE  C31816262   2.988   3.862   7.358  0.2939 -0.0555  0.7888
  147SAPE  H18X16263   3.017   3.799   7.271 -2.0908  0.8667 -0.7503
  147SAPE  H18Y16264   2.921   3.810   7.430  0.5966 -2.7290 -0.7358
  147SAPE  H18Z16265   3.080   3.864   7.421 -0.7681 -0.1638  2.3951
  148SAPE     N16266   3.876   3.003   5.534  0.3482 -0.3284 -0.4700
  148SAPE   HN116267   3.931   2.994   5.622 -1.0963 -0.7049  0.4336
  148SAPE   HN216268   3.926   3.012   5.444 -3.2855 -0.1488 -2.6938
  148SAPE   HN316269   3.828   3.094   5.549  0.4044 -0.1442 -1.3372
  148SAPE   C1216270   3.779   2.890   5.523  0.4796 -0.0488 -0.4589
  148SAPE  H12A16271   3.830   2.792   5.539  1.5716  0.5838  0.0008
  148SAPE  H12B16272   3.733   2.898   5.422  0.2740  1.9941 -0.2299
  148SAPE   C1116273   3.660   2.907   5.625 -0.0937 -0.2340 -0.0430
  148SAPE  H11A16274   3.704   2.889   5.726  1.9730 -0.8594 -0.9872
  148SAPE  H11B16275   3.600   2.816   5.603 -0.6503  0.5735 -2.0572
  148SAPE     P16276   3.438   3.061   5.599  0.3068  0.8354  0.0415
  148SAPE   O1316277   3.416   3.200   5.625 -0.4526 -0.3579 -0.0594
  148SAPE   O1416278   3.375   3.004   5.477 -0.5875  0.1307  0.1074
  148SAPE   O1216279   3.594   3.035   5.601 -0.1244  0.1051 -0.4849
  148SAPE   O1116280   3.382   2.974   5.717  0.6638  0.5413  0.1736
  148SAPE    C116281   3.288   3.021   5.813 -0.1773  0.3244 -0.2639
  148SAPE    HA16282   3.195   3.064   5.770 -1.1248 -0.4077  0.9887
  148SAPE    HB16283   3.250   2.929   5.862  0.0266  0.0754 -0.5719
  148SAPE    C216284   3.357   3.124   5.904 -0.5750  0.5392  0.5115
  148SAPE    HS16285   3.380   3.210   5.838  3.1440 -1.6775 -1.3892
  148SAPE   O2116286   3.473   3.069   5.961 -0.3124 -0.2156  0.1627
  148SAPE   C2116287   3.565   3.153   5.991 -0.3406 -0.3224  0.5288
  148SAPE   O2216288   3.562   3.276   5.979  0.6857 -0.1254  0.0155
  148SAPE   C2216289   3.674   3.074   6.059 -0.0753 -0.1179  0.1273
  148SAPE   H2R16290   3.621   2.996   6.117 -0.4873 -0.4869 -0.7272
  148SAPE   H2S16291   3.725   3.005   5.988 -1.8065 -0.6570 -0.6374
  148SAPE    C316292   3.262   3.171   6.024 -0.0823 -0.2263  0.0964
  148SAPE    HX16293   3.168   3.220   5.993 -0.2471  0.7037  1.9025
  148SAPE    HY16294   3.318   3.246   6.084  0.6818 -0.1255 -0.7180
  148SAPE   O3116295   3.220   3.058   6.101 -0.6190  0.0231  0.3351
  148SAPE   C3116296   3.282   3.026   6.211 -0.4583  0.7070  0.0806
  148SAPE   O3216297   3.355   3.102   6.272 -0.3703  0.0688  0.6319
  148SAPE   C3216298   3.229   2.893   6.274 -0.0520  0.5517  0.1601
  148SAPE   H2X16299   3.271   2.809   6.214 -0.1846  0.2518  0.4864
  148SAPE   H2Y16300   3.123   2.897   6.241  0.0705  0.4384 -0.2528
  148SAPE   C2316301   3.770   3.159   6.153 -0.1015 -0.2239  0.1971
  148SAPE   H3R16302   3.705   3.229   6.209  1.3539  0.9209  0.4968
  148SAPE   H3S16303   3.832   3.222   6.086 -0.5426  2.2608  1.9786
  148SAPE   C2416304   3.848   3.070   6.258  0.2886  0.1266  0.1043
  148SAPE   H4R16305   3.914   3.137   6.318  1.5394 -0.3319 -0.7275
  148SAPE   H4S16306   3.920   3.007   6.201  1.2296  0.3297  1.0267
  148SAPE   C2516307   3.767   2.978   6.356 -0.8280 -0.2788  0.2752
  148SAPE   H5R16308   3.658   2.986   6.347 -0.6040  0.4271 -2.7308
  148SAPE   C2616309   3.811   2.869   6.433 -0.1330  0.2910  0.2296
  148SAPE   H6R16310   3.750   2.808   6.500  0.3360 -1.2948 -0.7408
  148SAPE   C2716311   3.962   2.838   6.445  0.7198 -0.3999  0.8440
  148SAPE   H7R16312   3.987   2.819   6.552  1.6004  0.5947  0.8323
  148SAPE   H7S16313   4.028   2.923   6.418  0.4548 -0.9584 -1.8416
  148SAPE   C2816314   4.013   2.722   6.361  0.8510 -0.3129 -0.0982
  148SAPE   H8R16315   3.980   2.724   6.256 -0.8832  0.6091  0.4164
  148SAPE   C2916316   4.063   2.605   6.401  0.5201 -0.4348  0.6528
  148SAPE   H9R16317   4.081   2.530   6.322 -1.4551 -1.9977  1.6116
  148SAPE  C21016318   4.103   2.571   6.538 -0.0556 -0.1886 -0.2549
  148SAPE  H10R16319   4.077   2.646   6.616 -1.5149 -0.0765 -0.8250
  148SAPE  H10S16320   4.214   2.566   6.540 -0.0593 -1.9942 -1.9979
  148SAPE  C21116321   4.053   2.429   6.576  0.1798 -0.1866 -0.1969
  148SAPE  H11R16322   4.035   2.359   6.492  1.3233 -1.7181  0.7910
  148SAPE  C21216323   4.038   2.375   6.698  0.0998  0.1947 -0.1663
  148SAPE  H12R16324   4.016   2.268   6.712  1.8841  0.0524  2.1189
  148SAPE  C21316325   4.065   2.456   6.824  0.7354 -0.4984  0.2170
  148SAPE  H13R16326   3.973   2.490   6.875  1.4149  1.7040  0.0609
  148SAPE  H13S16327   4.114   2.554   6.805  0.7069 -0.4704  0.2895
  148SAPE  C21416328   4.154   2.371   6.919  0.7518 -0.5324  0.5794
  148SAPE  H14R16329   4.249   2.334   6.878 -0.0822 -0.4408 -1.5747
  148SAPE  C21516330   4.106   2.302   7.025 -0.2783  0.3282  0.3422
  148SAPE  H15R16331   4.176   2.238   7.080  1.1399  1.2298 -0.3251
  148SAPE  C21616332   3.965   2.299   7.078 -0.4406 -0.3668 -0.3196
  148SAPE  H16R16333   3.907   2.221   7.024 -0.9521  0.5110 -1.0733
  148SAPE  H16S16334   3.905   2.391   7.056  1.6351  0.9823 -0.6483
  148SAPE  C21716335   3.962   2.260   7.227  0.2508  0.0929 -0.7045
  148SAPE  H17R16336   3.861   2.292   7.261  0.0166  0.2693 -1.5366
  148SAPE  H17S16337   4.042   2.313   7.283 -0.5510 -2.8383  3.7157
  148SAPE  C21816338   3.963   2.115   7.261 -0.6286  0.0400  0.2422
  148SAPE  H18R16339   4.069   2.083   7.257 -1.1714 -1.8798  0.0059
  148SAPE  H18S16340   3.905   2.060   7.183  1.8871 -2.8332  0.2029
  148SAPE  C21916341   3.900   2.078   7.393 -0.4147  0.4849 -0.5127
  148SAPE  H19R16342   3.789   2.086   7.397 -0.4066  0.0878  3.1126
  148SAPE  H19S16343   3.942   2.145   7.471 -1.5993 -0.7309  1.2473
  148SAPE  C22016344   3.931   1.936   7.445 -0.0269 -0.0977 -0.5356
  148SAPE  H20R16345   3.881   1.855   7.388 -0.7545 -0.9248  1.2106
  148SAPE  H20S16346   3.895   1.915   7.547 -0.0266  1.9563 -0.0632
  148SAPE  H20T16347   4.041   1.921   7.433  0.0354  0.1775 -0.3297
  148SAPE   C3316348   3.225   2.889   6.426 -0.0205  0.3987 -0.1265
  148SAPE   H3X16349   3.156   2.805   6.450  0.0052 -0.3099 -2.3490
  148SAPE   H3Y16350   3.201   2.987   6.474 -0.6432  0.1629  0.0491
  148SAPE   C3416351   3.358   2.848   6.488 -0.0999 -0.5649 -0.8899
  148SAPE   H4X16352   3.446   2.909   6.458  1.7418 -2.3545  0.5943
  148SAPE   H4Y16353   3.389   2.744   6.465  0.4245 -0.1953 -1.9112
  148SAPE   C3516354   3.348   2.857   6.648  0.8203  0.1477  0.0034
  148SAPE   H5X16355   3.250   2.817   6.682  1.9883 -0.1650  3.3306
  148SAPE   H5Y16356   3.357   2.965   6.672  1.3702  0.8062 -2.8159
  148SAPE   C3616357   3.454   2.778   6.717 -0.3114  0.8022  0.2769
  148SAPE   H6X16358   3.491   2.698   6.649 -2.6367 -0.6227  0.5631
  148SAPE   H6Y16359   3.435   2.732   6.816  0.2239 -0.6857 -0.2761
  148SAPE   C3716360   3.570   2.868   6.746  0.1582 -0.5510 -0.4922
  148SAPE   H7X16361   3.519   2.954   6.794 -0.1236 -1.9556  1.9600
  148SAPE   H7Y16362   3.613   2.899   6.649 -4.1298  1.8381 -1.9034
  148SAPE   C3816363   3.673   2.812   6.844  0.4385 -0.7313  1.0299
  148SAPE   H8X16364   3.719   2.719   6.806  2.5199  0.4745  0.4523
  148SAPE   H8Y16365   3.623   2.790   6.941 -0.5162  1.8066  1.2034
  148SAPE   C3916366   3.773   2.917   6.878  0.0305 -0.4734 -0.0609
  148SAPE   H9X16367   3.730   2.991   6.948 -1.4311  0.0971 -1.5095
  148SAPE   H9Y16368   3.810   2.980   6.795 -0.3865  0.3034  0.3339
  148SAPE  C31016369   3.902   2.848   6.942  0.5596 -0.4287 -0.1102
  148SAPE  H10X16370   3.967   2.799   6.866  2.4875 -1.9047  2.3468
  148SAPE  H10Y16371   3.870   2.772   7.016 -1.9469  1.0457  0.4434
  148SAPE  C31116372   3.977   2.951   7.032  0.6021  0.6919 -0.0613
  148SAPE  H11X16373   3.912   2.996   7.109  0.2176 -3.0503  2.0356
  148SAPE  H11Y16374   4.003   3.036   6.964  0.2032 -0.4020 -1.6507
  148SAPE  C31216375   4.098   2.902   7.100 -0.0695 -0.0692  0.5832
  148SAPE  H12X16376   4.149   2.980   7.160  1.4138 -0.6078  0.0724
  148SAPE  H12Y16377   4.172   2.873   7.022  0.9544 -1.9769  2.1718
  148SAPE  C31316378   4.076   2.778   7.190  0.2061  0.0611  0.0600
  148SAPE  H13X16379   4.010   2.702   7.144  1.4461 -1.8674  1.3183
  148SAPE  H13Y16380   4.030   2.821   7.282 -1.4883  2.3723 -1.7226
  148SAPE  C31416381   4.210   2.710   7.228 -0.3220  0.0779  0.1351
  148SAPE  H14X16382   4.286   2.789   7.247 -0.8411  0.6776 -0.2506
  148SAPE  H14Y16383   4.235   2.649   7.138 -0.0412  1.1601 -0.5357
  148SAPE  C31516384   4.208   2.615   7.343 -0.0191 -0.5575 -0.2639
  148SAPE  H15X16385   4.136   2.532   7.328 -1.4593  0.5565  0.1924
  148SAPE  H15Y16386   4.164   2.679   7.423  2.6701  1.9103 -0.5853
  148SAPE  C31616387   4.338   2.554   7.400 -0.5709  0.2880  0.4552
  148SAPE  H16X16388   4.314   2.518   7.502  1.5768 -0.5622  0.7237
  148SAPE  H16Y16389   4.415   2.633   7.411 -0.9606  0.5932  1.0410
  148SAPE  C31716390   4.387   2.422   7.322 -0.1397  0.5925  0.1810
  148SAPE  H17X16391   4.410   2.441   7.215  0.7619  0.5832  0.3674
  148SAPE  H17Y16392   4.320   2.334   7.330  1.2443 -0.3300  3.5601
  148SAPE  C31816393   4.533   2.375   7.361 -0.3555  0.2120  0.1792
  148SAPE  H18X16394   4.601   2.462   7.365 -0.0375 -0.0009 -0.4320
  148SAPE  H18Y16395   4.567   2.296   7.290  1.7610  0.4532  0.8534
  148SAPE  H18Z16396   4.531   2.320   7.458  1.4501 -0.6337 -0.2274
  149SAPE     N16397   2.659   3.258   5.698  0.7608 -0.5361 -0.4451
  149SAPE   HN116398   2.647   3.257   5.802  1.8016 -0.3452 -0.3060
  149SAPE   HN216399   2.597   3.186   5.655  0.2488  0.5078 -1.4910
  149SAPE   HN316400   2.760   3.250   5.674  0.9792  0.7868 -0.0175
  149SAPE   C1216401   2.600   3.388   5.643  0.4339 -0.5869 -0.5119
  149SAPE  H12A16402   2.573   3.455   5.727 -2.6008 -0.6658 -1.3099
  149SAPE  H12B16403   2.516   3.360   5.576  0.1977 -1.2440  0.0443
  149SAPE   C1116404   2.710   3.457   5.565  0.6810  0.2916 -0.1815
  149SAPE  H11A16405   2.674   3.553   5.523 -1.1999  0.1134  0.9318
  149SAPE  H11B16406   2.719   3.390   5.476  1.9909 -1.2436  1.0520
  149SAPE     P16407   2.869   3.601   5.723  0.4757  0.3332 -0.0783
  149SAPE   O1316408   3.017   3.607   5.742  0.3401  0.1157 -0.2390
  149SAPE   O1416409   2.792   3.720   5.670 -0.0116 -0.2264  0.5100
  149SAPE   O1216410   2.838   3.482   5.635 -0.2296  0.2240  0.2639
  149SAPE   O1116411   2.810   3.555   5.861 -0.0654  0.2007 -0.4010
  149SAPE    C116412   2.732   3.646   5.936 -0.1908  0.0186 -0.2871
  149SAPE    HA16413   2.658   3.699   5.872  0.2778  0.2737 -0.6245
  149SAPE    HB16414   2.686   3.583   6.015  0.5590  0.9823  0.9427
  149SAPE    C216415   2.819   3.756   5.993  0.5130 -0.7579  0.2224
  149SAPE    HS16416   2.868   3.815   5.913 -1.9716  1.4306  0.1834
  149SAPE   O2116417   2.910   3.686   6.080  0.5386 -0.0132 -0.6463
  149SAPE   C2116418   3.012   3.762   6.119  0.0934  1.2514 -0.6502
  149SAPE   O2216419   3.039   3.874   6.081  0.3814 -0.2997  0.1786
  149SAPE   C2216420   3.085   3.678   6.226 -0.2377 -0.0918 -0.6778
  149SAPE   H2R16421   3.013   3.622   6.289 -1.0028  1.8318  0.2314
  149SAPE   H2S16422   3.157   3.611   6.173  0.9098 -0.0178  0.7258
  149SAPE    C316423   2.736   3.857   6.075 -0.3542  0.3920 -0.5891
  149SAPE    HX16424   2.645   3.882   6.015 -0.5358  0.2728 -0.3634
  149SAPE    HY16425   2.786   3.956   6.080  0.7659 -0.2106  0.7999
  149SAPE   O3116426   2.713   3.796   6.204  0.1577  0.7027 -0.1327
  149SAPE   C3116427   2.596   3.741   6.219  0.2802  0.3714  0.3277
  149SAPE   O3216428   2.501   3.755   6.145  0.6532 -0.1525 -0.2031
  149SAPE   C3216429   2.607   3.634   6.334 -0.3246 -0.3811  0.0606
  149SAPE   H2X16430   2.710   3.591   6.329  0.5138  1.6130 -1.6548
  149SAPE   H2Y16431   2.531   3.557   6.310 -0.2492 -0.4589  0.0684
  149SAPE   C2316432   3.175   3.770   6.307 -0.2281  0.6628 -0.3138
  149SAPE   H3R16433   3.228   3.841   6.240  1.3550 -1.2500 -1.2017
  149SAPE   H3S16434   3.242   3.702   6.364 -0.0971 -0.4862 -1.7446
  149SAPE   C2416435   3.091   3.854   6.409  0.0370  0.8424  0.7750
  149SAPE   H4R16436   3.015   3.786   6.453 -0.3826 -0.2709 -1.5436
  149SAPE   H4S16437   3.040   3.935   6.351  1.1185 -0.1845 -1.7418
  149SAPE   C2516438   3.182   3.912   6.515 -0.4430  0.0359  0.3419
  149SAPE   H5R16439   3.283   3.882   6.484 -0.5645  1.0823 -1.1824
  149SAPE   C2616440   3.164   4.016   6.595 -0.0197  0.2472  0.3437
  149SAPE   H6R16441   3.247   4.039   6.663 -0.2515 -0.6892  0.9657
  149SAPE   C2716442   3.039   4.102   6.615 -0.5771 -0.5117  1.0934
  149SAPE   H7R16443   2.958   4.073   6.545  1.8058 -1.0858 -1.6164
  149SAPE   H7S16444   3.072   4.207   6.598  1.4793 -1.3808 -0.7947
  149SAPE   C2816445   2.989   4.107   6.760 -0.4785  0.7492  0.2816
  149SAPE   H8R16446   3.058   4.118   6.845 -1.5896 -1.0317  1.4682
  149SAPE   C2916447   2.857   4.111   6.796 -0.1920  0.0395 -0.0334
  149SAPE   H9R16448   2.831   4.126   6.902 -1.9890 -1.8268 -0.1468
  149SAPE  C21016449   2.731   4.105   6.717  0.5427  0.3584  0.4535
  149SAPE  H10R16450   2.705   3.997   6.707 -0.7461  0.7895 -1.2622
  149SAPE  H10S16451   2.749   4.160   6.622 -1.5243  3.3833  1.6697
  149SAPE  C21116452   2.609   4.174   6.774  0.2024 -0.1999 -0.5458
  149SAPE  H11R16453   2.577   4.264   6.720  2.0402 -0.1810 -1.6854
  149SAPE  C21216454   2.527   4.112   6.860  0.0900  0.5453  0.9506
  149SAPE  H12R16455   2.437   4.171   6.880 -0.3026  1.2021 -2.3446
  149SAPE  C21316456   2.544   3.982   6.934  0.3132 -0.1425  0.5067
  149SAPE  H13R16457   2.645   3.987   6.979  0.1636  0.1139  0.8126
  149SAPE  H13S16458   2.558   3.902   6.858 -0.8832  1.1897 -1.1940
  149SAPE  C21416459   2.433   3.930   7.023 -0.1387  0.7355  0.3590
  149SAPE  H14R16460   2.327   3.948   7.000 -0.8008 -0.7751  2.0011
  149SAPE  C21516461   2.462   3.869   7.139  0.3954  0.9486 -0.1769
  149SAPE  H15R16462   2.374   3.849   7.202 -0.6061  0.5034 -1.6744
  149SAPE  C21616463   2.587   3.846   7.217 -0.9568 -0.7720 -0.0637
  149SAPE  H16R16464   2.580   3.900   7.314  0.3584 -2.6083  1.1136
  149SAPE  H16S16465   2.684   3.882   7.175 -2.3677  0.6174 -2.3364
  149SAPE  C21716466   2.604   3.701   7.258  0.3394  0.1678  0.3708
  149SAPE  H17R16467   2.503   3.658   7.272 -0.3055  1.7996  1.0263
  149SAPE  H17S16468   2.648   3.698   7.360 -0.7655 -0.5239  0.8383
  149SAPE  C21816469   2.689   3.626   7.155 -0.0917  0.2411  0.4360
  149SAPE  H18R16470   2.792   3.648   7.189 -0.1530  0.8006  0.2666
  149SAPE  H18S16471   2.665   3.661   7.052 -0.5787 -0.5947  0.2564
  149SAPE  C21916472   2.679   3.472   7.176 -0.2376 -0.7492  0.2883
  149SAPE  H19R16473   2.709   3.442   7.278 -1.1976 -2.0555  0.2221
  149SAPE  H19S16474   2.750   3.428   7.102 -1.5920  2.0418 -2.9972
  149SAPE  C22016475   2.538   3.408   7.140 -0.0442 -0.0692  0.4250
  149SAPE  H20R16476   2.462   3.442   7.213 -0.0005 -0.6422  0.7436
  149SAPE  H20S16477   2.538   3.297   7.149  0.4725 -0.0557  0.6362
  149SAPE  H20T16478   2.506   3.431   7.036 -0.1020  0.1250  0.4846
  149SAPE   C3316479   2.570   3.680   6.468 -0.3596  0.1178  0.2164
  149SAPE   H3X16480   2.461   3.700   6.475 -0.8499 -1.8617 -0.9115
  149SAPE   H3Y16481   2.627   3.773   6.489 -1.4556  0.8526  0.0026
  149SAPE   C3416482   2.606   3.563   6.555  0.5899 -0.6013 -0.0694
  149SAPE   H4X16483   2.701   3.512   6.527  2.1939  0.8836  2.2875
  149SAPE   H4Y16484   2.548   3.470   6.539  1.3775 -1.0921 -0.1683
  149SAPE   C3516485   2.606   3.593   6.704 -0.0003  0.1265 -0.4007
  149SAPE   H5X16486   2.617   3.499   6.761  1.4209  0.4674 -0.0728
  149SAPE   H5Y16487   2.516   3.646   6.744  0.1827 -0.2923  0.5976
  149SAPE   C3616488   2.729   3.685   6.739 -0.5757 -0.1521  0.1639
  149SAPE   H6X16489   2.730   3.703   6.848  0.0029  0.4422  0.0679
  149SAPE   H6Y16490   2.705   3.788   6.705 -0.4094  0.1373  0.8956
  149SAPE   C3716491   2.865   3.614   6.708  0.3152  0.6547  0.0481
  149SAPE   H7X16492   2.880   3.601   6.599 -0.1372  0.3645  0.0150
  149SAPE   H7Y16493   2.854   3.509   6.744 -0.6570  0.2494 -1.3314
  149SAPE   C3816494   2.987   3.693   6.768  0.1595  0.4661 -0.3037
  149SAPE   H8X16495   2.941   3.754   6.848  2.0398  0.6364  0.7079
  149SAPE   H8Y16496   3.016   3.766   6.689  0.5602  0.5677 -0.0680
  149SAPE   C3916497   3.098   3.600   6.827 -0.6724  0.1734 -0.0805
  149SAPE   H9X16498   3.151   3.554   6.741 -0.6794  1.8267 -1.0004
  149SAPE   H9Y16499   3.056   3.521   6.894  0.3204 -2.4081 -2.2954
  149SAPE  C31016500   3.196   3.691   6.907 -0.0244  0.2014  0.2795
  149SAPE  H10X16501   3.149   3.757   6.983 -1.2129  2.1273 -1.9872
  149SAPE  H10Y16502   3.248   3.754   6.832  0.0292  0.0282  0.1696
  149SAPE  C31116503   3.312   3.624   6.977  0.2576  0.2755 -0.5662
  149SAPE  H11X16504   3.403   3.687   6.967  0.6294 -0.0975  0.2870
  149SAPE  H11Y16505   3.348   3.542   6.910 -0.2786 -0.4062 -0.0359
  149SAPE  C31216506   3.298   3.594   7.119 -0.4060  0.1094 -0.1060
  149SAPE  H12X16507   3.300   3.691   7.174  1.2547 -0.2129  0.4687
  149SAPE  H12Y16508   3.390   3.537   7.146  0.1335  0.8783 -0.2887
  149SAPE  C31316509   3.176   3.521   7.168 -0.1029 -0.1411  0.2834
  149SAPE  H13X16510   3.180   3.423   7.115  0.9549 -0.9937  1.8555
  149SAPE  H13Y16511   3.086   3.569   7.126  0.1010  0.0096  0.0140
  149SAPE  C31416512   3.175   3.514   7.322  0.7026  1.0715 -0.3110
  149SAPE  H14X16513   3.179   3.619   7.358  1.2041  0.7277  0.6940
  149SAPE  H14Y16514   3.263   3.464   7.369  0.1269  0.5173  0.1927
  149SAPE  C31516515   3.045   3.460   7.380 -0.0180  0.2981 -0.7120
  149SAPE  H15X16516   2.960   3.525   7.351  0.6170  0.7914 -1.4861
  149SAPE  H15Y16517   3.062   3.462   7.490  0.8763 -2.5433 -0.7001
  149SAPE  C31616518   2.999   3.315   7.349  0.1610 -0.3372  0.7110
  149SAPE  H16X16519   2.960   3.325   7.245 -0.6748  0.6046  1.0980
  149SAPE  H16Y16520   2.908   3.294   7.408  0.2379  1.0872  1.3720
  149SAPE  C31716521   3.107   3.208   7.365  0.1876  0.2544  0.1422
  149SAPE  H17X16522   3.196   3.242   7.308 -0.4045  2.5426  0.4863
  149SAPE  H17Y16523   3.072   3.115   7.317 -1.2655  0.9739 -0.2592
  149SAPE  C31816524   3.138   3.181   7.510 -0.5518 -0.9479 -0.6510
  149SAPE  H18X16525   3.096   3.259   7.576 -2.1313 -3.3834  1.4133
  149SAPE  H18Y16526   3.242   3.154   7.538 -0.5636 -0.7505 -0.4189
  149SAPE  H18Z16527   3.084   3.091   7.546 -0.8312 -0.3404  0.4703
  150SAPE     N16528   3.045   4.287   5.403 -0.3011  0.0073 -0.1680
  150SAPE   HN116529   2.995   4.241   5.324  1.3765 -0.2198 -1.1476
  150SAPE   HN216530   3.035   4.390   5.409 -2.5485 -0.1884  0.3573
  150SAPE   HN316531   3.147   4.275   5.385 -0.3665 -1.7594  0.4650
  150SAPE   C1216532   2.998   4.229   5.533 -0.8784  0.0720  0.1592
  150SAPE  H12A16533   3.072   4.246   5.614  0.8511  0.7289 -1.4734
  150SAPE  H12B16534   3.002   4.119   5.523  1.0043 -0.1029  2.0749
  150SAPE   C1116535   2.850   4.263   5.569  0.0907  0.1909 -0.3274
  150SAPE  H11A16536   2.845   4.374   5.561 -0.6429  0.5930  3.8405
  150SAPE  H11B16537   2.830   4.229   5.673 -1.5721 -1.6695 -1.1732
  150SAPE     P16538   2.600   4.197   5.526 -0.3149  0.2209 -0.2723
  150SAPE   O1316539   2.508   4.194   5.415  0.8188  0.2743 -0.0049
  150SAPE   O1416540   2.591   4.077   5.611  0.3129 -0.6625  0.2582
  150SAPE   O1216541   2.755   4.217   5.475  0.6659 -0.0115  0.4573
  150SAPE   O1116542   2.580   4.325   5.621  0.4871 -0.1918 -0.1443
  150SAPE    C116543   2.450   4.344   5.676  0.0158  0.4850  0.0850
  150SAPE    HA16544   2.394   4.410   5.606  0.3030  0.6059 -0.0314
  150SAPE    HB16545   2.395   4.248   5.690  1.2015 -0.2442 -0.1451
  150SAPE    C216546   2.469   4.404   5.819  0.5931 -0.4683 -0.8867
  150SAPE    HS16547   2.504   4.505   5.790 -0.4931  0.3853  0.6374
  150SAPE   O2116548   2.572   4.343   5.896  0.1127  0.1274  0.2758
  150SAPE   C2116549   2.695   4.395   5.886 -0.1312  0.1130 -0.1161
  150SAPE   O2216550   2.732   4.495   5.827 -0.1799  0.1419  0.0977
  150SAPE   C2216551   2.784   4.298   5.966  0.6521 -0.7991 -0.0919
  150SAPE   H2R16552   2.727   4.261   6.054 -1.8030  2.9470  0.1048
  150SAPE   H2S16553   2.799   4.216   5.892 -0.5403 -0.3060 -0.8953
  150SAPE    C316554   2.333   4.417   5.899 -0.2297 -0.0023 -0.4820
  150SAPE    HX16555   2.260   4.456   5.824  1.0625 -0.0393 -1.8134
  150SAPE    HY16556   2.358   4.493   5.976 -0.6725 -1.6555  1.3418
  150SAPE   O3116557   2.294   4.303   5.970 -0.3182  0.5857  0.1959
  150SAPE   C3116558   2.179   4.237   5.929  0.0670 -0.3494 -0.1512
  150SAPE   O3216559   2.113   4.286   5.836  0.4362 -0.2531  0.2117
  150SAPE   C3216560   2.134   4.119   5.996 -0.0831 -0.4974  0.0201
  150SAPE   H2X16561   2.164   4.125   6.103 -0.5592  1.9438  0.0735
  150SAPE   H2Y16562   2.189   4.037   5.946  1.5926  0.2333  0.6119
  150SAPE   C2316563   2.915   4.367   6.017 -0.8910  0.0682  0.3315
  150SAPE   H3R16564   2.913   4.475   5.994 -3.6658  0.0098 -0.0936
  150SAPE   H3S16565   3.003   4.320   5.968 -0.7799  2.7533 -2.2909
  150SAPE   C2416566   2.937   4.356   6.164 -0.0963  0.2479 -0.1191
  150SAPE   H4R16567   2.871   4.422   6.225 -1.0121 -1.9341  1.4079
  150SAPE   H4S16568   3.036   4.399   6.187 -0.0431 -0.0904  0.3060
  150SAPE   C2516569   2.930   4.218   6.229 -0.0666  0.7699  0.4370
  150SAPE   H5R16570   3.025   4.163   6.229 -1.2531 -1.3909  0.6027
  150SAPE   C2616571   2.834   4.156   6.293  0.0908  0.1495  0.2334
  150SAPE   H6R16572   2.853   4.062   6.346 -1.8524 -1.6917 -2.0766
  150SAPE   C2716573   2.689   4.191   6.316 -0.7381 -0.2643  0.1965
  150SAPE   H7R16574   2.673   4.300   6.302  3.7214  0.9946  2.7291
  150SAPE   H7S16575   2.666   4.176   6.424 -1.1202  0.0199  0.1534
  150SAPE   C2816576   2.591   4.111   6.239  0.1289  0.6365  0.0227
  150SAPE   H8R16577   2.620   4.077   6.139  0.3223  2.0953 -0.4426
  150SAPE   C2916578   2.477   4.062   6.284  0.4128  0.4577 -0.0306
  150SAPE   H9R16579   2.417   4.010   6.207  1.4570  1.6469 -1.7152
  150SAPE  C21016580   2.423   4.074   6.419  0.1489 -1.1749  0.2181
  150SAPE  H10R16581   2.408   4.182   6.443 -2.8468 -0.8689 -2.3265
  150SAPE  H10S16582   2.485   4.024   6.496  0.9947 -2.2236 -1.1232
  150SAPE  C21116583   2.283   4.008   6.438  0.2105  0.7690 -0.7979
  150SAPE  H11R16584   2.273   3.911   6.388 -0.7204  1.3325 -1.7469
  150SAPE  C21216585   2.177   4.045   6.513 -0.9251  0.8517 -0.0786
  150SAPE  H12R16586   2.093   3.974   6.516  0.0493 -0.3806 -0.9088
  150SAPE  C21316587   2.176   4.167   6.597 -0.8946 -0.4712  0.1508
  150SAPE  H13R16588   2.210   4.252   6.534 -0.1134 -1.0422 -0.2186
  150SAPE  H13S16589   2.254   4.160   6.675 -1.3696 -0.7707  0.6082
  150SAPE  C21416590   2.039   4.203   6.640  0.4342 -0.0810 -0.3649
  150SAPE  H14R16591   1.992   4.289   6.591  2.7974  2.0782  0.9137
  150SAPE  C21516592   1.983   4.158   6.755  0.2588 -0.4059  0.9118
  150SAPE  H15R16593   1.895   4.211   6.794  0.7920  0.8394  0.4753
  150SAPE  C21616594   2.042   4.063   6.857 -0.9737  0.0690  0.0624
  150SAPE  H16R16595   2.148   4.035   6.842 -1.2370 -0.7068 -0.3933
  150SAPE  H16S16596   1.988   3.969   6.833  1.1862 -1.5345  1.1286
  150SAPE  C21716597   2.005   4.093   7.002 -0.2861  0.0957  0.4314
  150SAPE  H17R16598   2.028   4.003   7.062 -0.6018 -1.9315 -2.2889
  150SAPE  H17S16599   1.897   4.120   7.001  0.0772  1.6571  0.7525
  150SAPE  C21816600   2.086   4.207   7.061  0.5509 -1.0891  0.3865
  150SAPE  H18R16601   2.031   4.302   7.052  1.2342 -0.6967  0.2766
  150SAPE  H18S16602   2.175   4.223   6.996 -1.6075 -2.8483 -3.3712
  150SAPE  C21916603   2.138   4.189   7.202 -0.0385  0.4711 -0.3823
  150SAPE  H19R16604   2.211   4.106   7.214  0.8639  1.2525 -0.3470
  150SAPE  H19S16605   2.047   4.160   7.258 -1.1853  3.3119 -0.6173
  150SAPE  C22016606   2.201   4.316   7.276 -0.7716  0.5942 -0.6208
  150SAPE  H20R16607   2.142   4.411   7.280  0.6380  1.4529  2.0338
  150SAPE  H20S16608   2.297   4.347   7.230  0.0719  3.0709  2.4676
  150SAPE  H20T16609   2.222   4.282   7.379 -2.2186 -1.9254 -1.0740
  150SAPE   C3316610   1.978   4.100   5.981  0.5825  0.7838  0.3304
  150SAPE   H3X16611   1.963   3.994   6.010  2.9181  0.2549 -0.1689
  150SAPE   H3Y16612   1.930   4.115   5.882  3.6721  0.7618 -1.2939
  150SAPE   C3416613   1.912   4.180   6.099  0.2921 -0.2750  0.0016
  150SAPE   H4X16614   1.942   4.286   6.087 -1.7749  0.2365 -0.9558
  150SAPE   H4Y16615   1.952   4.135   6.193 -0.2215  0.6452  0.6828
  150SAPE   C3516616   1.760   4.182   6.107  0.7716 -0.0168 -0.1922
  150SAPE   H5X16617   1.727   4.235   6.014  1.6088  0.1159 -0.4219
  150SAPE   H5Y16618   1.717   4.247   6.186  0.3086 -0.2492 -0.2483
  150SAPE   C3616619   1.693   4.037   6.104  0.0878 -0.3027 -0.8882
  150SAPE   H6X16620   1.735   3.969   6.027  2.1276 -0.5347  0.3403
  150SAPE   H6Y16621   1.587   4.037   6.073 -0.5417 -1.6190  1.1210
  150SAPE   C3716622   1.707   3.955   6.233  0.4720 -0.2665  0.4986
  150SAPE   H7X16623   1.814   3.957   6.262  0.1466 -0.7420  1.8389
  150SAPE   H7Y16624   1.683   3.847   6.221 -0.8855  0.1774 -1.0331
  150SAPE   C3816625   1.626   4.002   6.352 -0.4878  0.3183 -0.0546
  150SAPE   H8X16626   1.515   3.993   6.343 -0.6555  1.7023  0.3815
  150SAPE   H8Y16627   1.648   4.109   6.371 -0.1839 -0.0406  1.8712
  150SAPE   C3916628   1.673   3.930   6.475 -0.1255 -0.4382 -0.6234
  150SAPE   H9X16629   1.772   3.971   6.500 -0.3497 -0.5112  0.4652
  150SAPE   H9Y16630   1.678   3.819   6.468 -0.5343 -0.5889  1.0179
  150SAPE  C31016631   1.587   3.963   6.598 -0.4401  0.3765  0.0967
  150SAPE  H10X16632   1.484   3.936   6.564 -0.3290  0.1989 -0.1025
  150SAPE  H10Y16633   1.576   4.071   6.622  1.3422  0.1801  2.0764
  150SAPE  C31116634   1.644   3.890   6.727  0.0332  0.3098  0.4123
  150SAPE  H11X16635   1.726   3.954   6.764 -0.0168  0.3418  0.4674
  150SAPE  H11Y16636   1.676   3.788   6.695 -2.5370 -1.5834  3.2963
  150SAPE  C31216637   1.536   3.875   6.838  0.8226 -0.0796  0.3082
  150SAPE  H12X16638   1.454   3.811   6.799  0.3774 -0.1239  1.2977
  150SAPE  H12Y16639   1.496   3.978   6.838 -0.0085 -0.2658 -3.1641
  150SAPE  C31316640   1.580   3.797   6.966 -0.6497  0.9268 -0.1640
  150SAPE  H13X16641   1.643   3.709   6.939 -0.9839  0.6738 -0.1255
  150SAPE  H13Y16642   1.490   3.756   7.016 -0.5263  1.3655  0.4261
  150SAPE  C31416643   1.641   3.875   7.076 -0.4650 -0.1475  0.1040
  150SAPE  H14X16644   1.592   3.974   7.086  1.1384  0.8578 -1.4251
  150SAPE  H14Y16645   1.746   3.907   7.055 -0.4768  0.9780  1.6183
  150SAPE  C31516646   1.646   3.823   7.222  0.0921  0.9365  0.1791
  150SAPE  H15X16647   1.551   3.849   7.274  0.5632  2.1252  0.4661
  150SAPE  H15Y16648   1.726   3.871   7.282  0.8826 -0.4076  0.2488
  150SAPE  C31616649   1.646   3.668   7.240 -0.4384  0.7204 -0.0629
  150SAPE  H16X16650   1.697   3.622   7.153 -0.9745 -2.3637  1.1471
  150SAPE  H16Y16651   1.546   3.620   7.228  0.2207 -0.8741  0.5663
  150SAPE  C31716652   1.702   3.612   7.374 -0.4450  0.8062 -0.0906
  150SAPE  H17X16653   1.799   3.663   7.393 -0.5218  0.5294  1.0916
  150SAPE  H17Y16654   1.720   3.505   7.348 -0.0708  0.9614 -0.5028
  150SAPE  C31816655   1.613   3.631   7.496  0.3382  0.5116  0.2091
  150SAPE  H18X16656   1.518   3.575   7.491  0.6198  0.1304 -1.1428
  150SAPE  H18Y16657   1.594   3.740   7.512  0.0539  0.5349 -0.2841
  150SAPE  H18Z16658   1.669   3.580   7.578  2.6243 -1.7176 -2.5303
  151SAPE     N16659   4.832   2.118   5.344  0.6023  0.0499  0.5393
  151SAPE   HN116660   4.768   2.138   5.424 -1.3277  0.1938 -0.9770
  151SAPE   HN216661   4.775   2.120   5.257  2.3168 -0.8321 -0.6633
  151SAPE   HN316662   4.869   2.021   5.354 -2.6987 -1.6220 -1.6352
  151SAPE   C1216663   4.948   2.213   5.354  0.0322  0.7973 -0.6737
  151SAPE  H12A16664   5.035   2.162   5.307  0.3606 -1.0822  1.7535
  151SAPE  H12B16665   4.971   2.232   5.461 -1.7821  0.0293 -0.1173
  151SAPE   C1116666   4.930   2.342   5.270 -0.2581  0.0585 -0.0225
  151SAPE  H11A16667   4.893   2.319   5.167  0.5223 -2.5899  0.2079
  151SAPE  H11B16668   5.034   2.379   5.252  0.2685 -0.2536  2.1306
  151SAPE     P16669   4.883   2.560   5.408  0.2249  0.2684 -0.0584
  151SAPE   O1316670   5.007   2.628   5.350 -0.0737  0.1393 -0.0546
  151SAPE   O1416671   4.762   2.637   5.448 -0.4007 -1.0670  0.6179
  151SAPE   O1216672   4.828   2.432   5.323 -0.1829  0.7561  0.4137
  151SAPE   O1116673   4.936   2.491   5.537 -0.2253 -0.1478 -0.1975
  151SAPE    C116674   4.845   2.437   5.633 -0.0310 -0.2921  0.4503
  151SAPE    HA16675   4.766   2.508   5.665 -1.0149 -2.0471  2.0960
  151SAPE    HB16676   4.797   2.351   5.581  1.5671  0.1557 -1.9414
  151SAPE    C216677   4.919   2.390   5.765 -0.3851  0.3104 -0.3691
  151SAPE    HS16678   4.991   2.311   5.734 -1.8592 -0.3071 -2.4015
  151SAPE   O2116679   4.816   2.345   5.853 -0.0753 -0.0951 -0.1484
  151SAPE   C2116680   4.789   2.215   5.847 -0.3012  0.1263  0.3909
  151SAPE   O2216681   4.861   2.135   5.792 -0.2850  0.1370  0.0739
  151SAPE   C2216682   4.667   2.179   5.926  0.0752 -0.3656 -0.3259
  151SAPE   H2R16683   4.628   2.270   5.977  2.4624  1.6614 -1.8819
  151SAPE   H2S16684   4.599   2.160   5.841 -0.1052  0.3182 -0.3377
  151SAPE    C316685   4.999   2.512   5.825 -0.4388  0.4881 -0.0450
  151SAPE    HX16686   4.924   2.594   5.827 -0.3313  0.5719  0.8445
  151SAPE    HY16687   5.077   2.548   5.755  1.3417 -1.2076  0.9912
  151SAPE   O3116688   5.046   2.488   5.958 -0.3973 -0.0243 -0.1063
  151SAPE   C3116689   5.147   2.407   5.966  0.8120  0.2575  0.3175
  151SAPE   O3216690   5.209   2.370   5.870  0.0697  0.1066  1.0577
  151SAPE   C3216691   5.179   2.363   6.109  0.3773  0.3065  0.2730
  151SAPE   H2X16692   5.126   2.269   6.136 -1.9359  0.5934 -2.7391
  151SAPE   H2Y16693   5.156   2.450   6.175 -0.3682  1.8746 -1.9406
  151SAPE   C2316694   4.684   2.054   6.014  0.0314  0.1267 -0.3824
  151SAPE   H3R16695   4.790   2.038   6.039 -0.0072 -0.5026 -0.5937
  151SAPE   H3S16696   4.648   1.964   5.959 -0.0804  0.7299 -1.3148
  151SAPE   C2416697   4.593   2.055   6.138 -0.3381 -0.4794 -0.0166
  151SAPE   H4R16698   4.490   2.055   6.096  0.4967 -2.1857 -2.2137
  151SAPE   H4S16699   4.601   2.144   6.205  0.0678  0.8070 -1.6931
  151SAPE   C2516700   4.618   1.926   6.212 -0.4907  0.0929 -0.4426
  151SAPE   H5R16701   4.584   1.836   6.158  0.7744  0.8072 -2.5606
  151SAPE   C2616702   4.691   1.911   6.319 -0.4178 -0.1806 -0.3027
  151SAPE   H6R16703   4.726   1.809   6.340  0.0126  0.0829  0.3100
  151SAPE   C2716704   4.769   2.013   6.398  0.0511 -0.5053 -0.8607
  151SAPE   H7R16705   4.771   1.977   6.503  1.2196  3.0403  0.5026
  151SAPE   H7S16706   4.708   2.106   6.408  1.3254  0.2491  0.2685
  151SAPE   C2816707   4.899   2.056   6.353 -0.8202 -0.2505  0.0297
  151SAPE   H8R16708   4.912   2.033   6.246  0.8413  1.5022 -0.1995
  151SAPE   C2916709   5.002   2.123   6.419 -0.0299  0.2654  0.3461
  151SAPE   H9R16710   5.099   2.129   6.369 -0.8497  0.8762 -1.2566
  151SAPE  C21016711   4.975   2.185   6.553  0.8254  0.0368 -0.5980
  151SAPE  H10R16712   4.889   2.136   6.604  0.6081  0.7459 -0.2659
  151SAPE  H10S16713   4.949   2.293   6.540  3.0584  0.5484 -1.1751
  151SAPE  C21116714   5.098   2.179   6.637  0.5022  0.2375 -0.3057
  151SAPE  H11R16715   5.188   2.207   6.579  0.1691  0.8615 -0.5405
  151SAPE  C21216716   5.107   2.147   6.772 -0.9058 -0.6128  0.6443
  151SAPE  H12R16717   5.202   2.154   6.828 -0.2913  0.4595 -0.4905
  151SAPE  C21316718   5.010   2.110   6.878  0.3703 -0.2252 -0.0403
  151SAPE  H13R16719   5.067   2.061   6.959  1.4570 -0.6928 -1.0667
  151SAPE  H13S16720   4.932   2.040   6.841 -2.3245  1.4915  1.9602
  151SAPE  C21416721   4.931   2.232   6.934  0.5548  0.0843  0.0232
  151SAPE  H14R16722   4.853   2.267   6.864  0.3716  0.9529  0.6474
  151SAPE  C21516723   4.964   2.310   7.037 -0.2378 -0.4983  0.0553
  151SAPE  H15R16724   4.903   2.398   7.062 -0.4335 -0.7869  0.6143
  151SAPE  C21616725   5.082   2.285   7.129  1.2484  0.9950  0.1273
  151SAPE  H16R16726   5.170   2.342   7.092  2.1075 -0.4059 -0.0474
  151SAPE  H16S16727   5.103   2.176   7.124 -0.5350  0.6604 -1.1311
  151SAPE  C21716728   5.053   2.325   7.274 -0.1469  0.4239 -0.1741
  151SAPE  H17R16729   4.955   2.277   7.294  0.7285 -1.0104  0.8264
  151SAPE  H17S16730   5.040   2.436   7.281  0.4359  0.3822  2.3086
  151SAPE  C21816731   5.168   2.268   7.357  0.6385  0.6249 -0.0104
  151SAPE  H18R16732   5.257   2.331   7.334 -0.6982  3.1718  1.2880
  151SAPE  H18S16733   5.196   2.165   7.329  1.7031  0.3270  1.9129
  151SAPE  C21916734   5.159   2.286   7.515 -0.3673  0.3116 -0.5790
  151SAPE  H19R16735   5.132   2.391   7.540 -2.4254 -0.1650 -0.6443
  151SAPE  H19S16736   5.260   2.262   7.556 -0.3310 -2.8585 -2.2865
  151SAPE  C22016737   5.054   2.199   7.588  0.3684  0.5594 -0.5689
  151SAPE  H20R16738   4.953   2.245   7.578 -0.1870 -0.7258 -1.0980
  151SAPE  H20S16739   5.044   2.095   7.551 -2.4145 -0.1354  1.7266
  151SAPE  H20T16740   5.073   2.199   7.698  0.6758  1.5741 -0.6143
  151SAPE   C3316741   5.329   2.329   6.129  0.3096 -0.0346  0.6310
  151SAPE   H3X16742   5.386   2.418   6.093 -0.0350  0.3320  0.9884
  151SAPE   H3Y16743   5.372   2.242   6.075  2.1413  1.7092 -0.8727
  151SAPE   C3416744   5.361   2.294   6.275 -0.2580  0.4020  0.2264
  151SAPE   H4X16745   5.328   2.189   6.293  1.3249 -0.2109 -0.2443
  151SAPE   H4Y16746   5.313   2.365   6.345 -3.0531 -2.0144  0.9468
  151SAPE   C3516747   5.511   2.290   6.287  0.0786 -0.0274 -0.4047
  151SAPE   H5X16748   5.546   2.386   6.243 -0.2048  1.2774  2.0418
  151SAPE   H5Y16749   5.556   2.212   6.222  0.5026  0.7417 -1.0712
  151SAPE   C3616750   5.563   2.299   6.435  0.0835 -0.5539  0.5755
  151SAPE   H6X16751   5.509   2.382   6.487  1.0138  0.5221 -0.1188
  151SAPE   H6Y16752   5.672   2.317   6.440 -0.3950  3.0858  0.9452
  151SAPE   C3716753   5.524   2.167   6.498  0.1462  0.3624 -0.6408
  151SAPE   H7X16754   5.557   2.073   6.447 -1.9837 -1.2629  0.7771
  151SAPE   H7Y16755   5.413   2.167   6.509  0.4090  1.4932  3.0079
  151SAPE   C3816756   5.571   2.151   6.648 -0.4683  0.1081 -0.1550
  151SAPE   H8X16757   5.593   2.254   6.685  1.2219  0.1650 -1.2606
  151SAPE   H8Y16758   5.666   2.095   6.650 -0.1561  0.5979 -1.1419
  151SAPE   C3916759   5.462   2.093   6.739 -0.4473 -0.1129  0.0143
  151SAPE   H9X16760   5.414   2.000   6.700  1.4851 -1.3212  0.4000
  151SAPE   H9Y16761   5.389   2.176   6.744 -1.5017 -1.0638  0.9050
  151SAPE  C31016762   5.508   2.054   6.874  0.3491 -0.1383  0.0749
  151SAPE  H10X16763   5.557   2.145   6.916  0.2749 -0.2486  0.4073
  151SAPE  H10Y16764   5.588   1.977   6.876 -1.1223 -1.7599 -0.7633
  151SAPE  C31116765   5.399   1.984   6.964 -0.0791  0.0615 -0.4085
  151SAPE  H11X16766   5.384   1.884   6.918 -0.6879  0.6070 -1.4090
  151SAPE  H11Y16767   5.303   2.039   6.956 -0.7535 -1.3798 -3.1991
  151SAPE  C31216768   5.446   1.986   7.112 -0.7829 -0.2363 -0.3841
  151SAPE  H12X16769   5.480   2.089   7.136 -2.1998 -0.2886  2.1514
  151SAPE  H12Y16770   5.521   1.905   7.122  0.3045  0.8018  0.2377
  151SAPE  C31316771   5.339   1.947   7.212  0.2851 -0.3530  0.0717
  151SAPE  H13X16772   5.295   1.847   7.194 -1.9242  0.1993  1.8677
  151SAPE  H13Y16773   5.249   2.011   7.198 -0.4840 -1.8138 -2.0323
  151SAPE  C31416774   5.378   1.967   7.357  0.1102  0.1632 -0.0007
  151SAPE  H14X16775   5.394   2.069   7.397  0.2631  0.0426  0.2491
  151SAPE  H14Y16776   5.480   1.923   7.368 -0.0650 -0.0428  0.8533
  151SAPE  C31516777   5.292   1.885   7.451 -0.2335  0.2881  0.6331
  151SAPE  H15X16778   5.276   1.784   7.407 -0.2078  0.6126 -0.1296
  151SAPE  H15Y16779   5.192   1.933   7.451 -0.3451  0.1220  2.3696
  151SAPE  C31616780   5.356   1.872   7.593  0.0583  0.5875  0.3306
  151SAPE  H16X16781   5.357   1.972   7.641 -0.9564  0.3337  0.9019
  151SAPE  H16Y16782   5.460   1.833   7.579 -0.1143  0.8264 -2.1126
  151SAPE  C31716783   5.259   1.796   7.687  0.1524 -0.7342 -0.4537
  151SAPE  H17X16784   5.318   1.768   7.778 -0.7050 -0.1535  0.2927
  151SAPE  H17Y16785   5.226   1.701   7.641  0.8773  0.2594 -3.1956
  151SAPE  C31816786   5.143   1.878   7.746  0.0314 -0.4129 -0.2100
  151SAPE  H18X16787   5.086   1.929   7.665 -1.5020 -0.0299  1.0770
  151SAPE  H18Y16788   5.174   1.949   7.825 -1.6049 -0.8736  0.9068
  151SAPE  H18Z16789   5.079   1.806   7.801  1.2013 -3.2776 -2.3275
  152SAPE     N16790   1.745   5.145   5.396  0.1819 -0.1715  0.4091
  152SAPE   HN116791   1.751   5.145   5.293  0.9780  0.4531  0.4413
  152SAPE   HN216792   1.751   5.049   5.435 -3.1071 -1.1677 -1.2158
  152SAPE   HN316793   1.660   5.189   5.437 -1.8854 -1.6103 -2.0699
  152SAPE   C1216794   1.868   5.213   5.448  0.8906  0.5158 -0.6464
  152SAPE  H12A16795   1.860   5.230   5.557  2.9869  4.1941 -0.9114
  152SAPE  H12B16796   1.888   5.311   5.401  1.9712  0.2393 -0.7805
  152SAPE   C1116797   1.988   5.137   5.429 -0.2612  0.7054 -0.6826
  152SAPE  H11A16798   2.062   5.194   5.489 -0.9600 -0.4681  1.4028
  152SAPE  H11B16799   2.014   5.126   5.322  0.2021 -0.7390 -0.4458
  152SAPE     P16800   2.075   4.893   5.495 -0.2031 -0.0605 -0.8180
  152SAPE   O1316801   2.020   4.764   5.468  0.4451  0.2587  0.2690
  152SAPE   O1416802   2.196   4.928   5.417 -0.2621 -0.2377 -0.0188
  152SAPE   O1216803   1.964   5.006   5.483 -0.1160 -0.4934  0.2332
  152SAPE   O1116804   2.120   4.894   5.650 -0.3226 -0.8020  0.6616
  152SAPE    C116805   2.006   4.891   5.739  0.0123 -0.2355 -1.3074
  152SAPE    HA16806   1.911   4.857   5.691 -1.6846  2.4279 -0.0657
  152SAPE    HB16807   2.038   4.810   5.808  0.6535  0.4444 -0.7965
  152SAPE    C216808   1.989   5.016   5.822  1.2279  0.1951  0.3581
  152SAPE    HS16809   1.943   5.085   5.748  2.8840 -1.9993 -2.9766
  152SAPE   O2116810   2.112   5.055   5.879 -0.6769 -0.7493 -0.2978
  152SAPE   C2116811   2.153   5.169   5.838 -0.5001  0.1166  0.4599
  152SAPE   O2216812   2.095   5.239   5.759 -0.2653 -0.2820  0.1765
  152SAPE   C2216813   2.280   5.203   5.900 -0.1311 -0.5476  0.2353
  152SAPE   H2R16814   2.311   5.114   5.958 -1.8881 -3.7771 -3.3313
  152SAPE   H2S16815   2.370   5.211   5.835 -0.2580 -0.8625  0.0146
  152SAPE    C316816   1.883   4.981   5.932  0.4489  0.1031 -0.2034
  152SAPE    HX16817   1.933   4.910   6.000  0.1925 -2.7133 -2.7564
  152SAPE    HY16818   1.796   4.922   5.897 -0.1802  1.5563 -1.2131
  152SAPE   O3116819   1.840   5.097   6.021  0.0539  0.4798  0.7661
  152SAPE   C3116820   1.710   5.136   6.004 -0.8938  0.3953 -0.0825
  152SAPE   O3216821   1.625   5.080   5.936  0.1468 -0.3197 -0.0321
  152SAPE   C3216822   1.680   5.262   6.088 -0.1063 -1.1803 -0.0762
  152SAPE   H2X16823   1.616   5.322   6.018 -1.3582 -0.5011  1.5708
  152SAPE   H2Y16824   1.768   5.324   6.113 -1.4506  1.3598 -1.2451
  152SAPE   C2316825   2.266   5.326   5.996  0.0882 -0.3256 -0.2288
  152SAPE   H3R16826   2.220   5.413   5.945 -3.5138 -0.4955  2.3804
  152SAPE   H3S16827   2.366   5.360   6.032  0.2756 -0.0371 -0.9940
  152SAPE   C2416828   2.189   5.299   6.128  0.2311  0.7347 -0.4212
  152SAPE   H4R16829   2.088   5.258   6.105  0.6802 -0.3228 -0.5512
  152SAPE   H4S16830   2.173   5.395   6.181 -3.4556  0.9192 -1.5728
  152SAPE   C2516831   2.268   5.202   6.215 -0.2206 -0.1453 -0.0359
  152SAPE   H5R16832   2.348   5.254   6.271 -1.1906 -1.0534  2.3478
  152SAPE   C2616833   2.261   5.069   6.238  0.1013 -0.3378 -0.4183
  152SAPE   H6R16834   2.338   5.010   6.291 -0.6762 -1.5308 -0.5779
  152SAPE   C2716835   2.148   4.977   6.177 -0.2721 -0.3927 -0.8291
  152SAPE   H7R16836   2.087   5.044   6.112 -0.7915  1.4123  1.3928
  152SAPE   H7S16837   2.079   4.960   6.262  1.2577 -1.9379  0.1644
  152SAPE   C2816838   2.187   4.854   6.100  0.0074 -0.6105 -0.0748
  152SAPE   H8R16839   2.267   4.857   6.025  2.4334  1.1813  2.4088
  152SAPE   C2916840   2.141   4.732   6.127  0.1577 -0.6645 -0.0117
  152SAPE   H9R16841   2.182   4.648   6.069  0.1318 -0.2218 -0.6800
  152SAPE  C21016842   2.034   4.690   6.217 -0.2434 -0.0215 -0.0062
  152SAPE  H10R16843   1.970   4.614   6.168 -1.8916  1.1084  0.3036
  152SAPE  H10S16844   1.967   4.776   6.239 -0.3176  0.1970 -1.0463
  152SAPE  C21116845   2.098   4.619   6.336  0.1910 -0.4547  0.1030
  152SAPE  H11R16846   2.141   4.518   6.324 -1.7396 -1.2608 -0.4199
  152SAPE  C21216847   2.108   4.661   6.463 -0.2984 -0.3646 -0.8096
  152SAPE  H12R16848   2.158   4.611   6.546 -0.2702  0.4579 -0.3136
  152SAPE  C21316849   2.051   4.788   6.518 -1.3081  0.2640 -0.1715
  152SAPE  H13R16850   2.002   4.755   6.612  0.7434 -1.6086  0.3172
  152SAPE  H13S16851   1.966   4.826   6.457 -1.4623 -0.6293 -0.5297
  152SAPE  C21416852   2.150   4.897   6.559 -0.8116 -0.3225  0.3296
  152SAPE  H14R16853   2.242   4.865   6.610  1.4807  1.1344 -2.5163
  152SAPE  C21516854   2.136   5.032   6.538 -0.5045  0.5812 -0.2622
  152SAPE  H15R16855   2.229   5.084   6.564  0.5346 -1.0570 -0.5129
  152SAPE  C21616856   2.021   5.101   6.482  0.6717  0.3162  0.3793
  152SAPE  H16R16857   1.933   5.037   6.459  1.0322  0.2629 -0.9336
  152SAPE  H16S16858   2.053   5.155   6.391 -0.5719  2.1690  0.9705
  152SAPE  C21716859   1.972   5.219   6.573  0.1723 -0.0501  0.2466
  152SAPE  H17R16860   1.874   5.251   6.531 -0.8651  0.6103  2.9407
  152SAPE  H17S16861   2.037   5.309   6.564  0.1975  0.0726  1.5045
  152SAPE  C21816862   1.940   5.183   6.728 -0.2036 -0.1979 -0.3228
  152SAPE  H18R16863   1.904   5.274   6.779 -2.1244 -2.2801  2.3212
  152SAPE  H18S16864   2.038   5.155   6.773 -0.0097 -0.3053 -0.8034
  152SAPE  C21916865   1.821   5.089   6.750 -0.0729  0.0942 -0.7083
  152SAPE  H19R16866   1.835   4.996   6.691 -1.9024 -0.1176 -0.8621
  152SAPE  H19S16867   1.729   5.140   6.716 -1.1253  0.6117  2.6068
  152SAPE  C22016868   1.809   5.065   6.897 -0.4471  0.0639 -0.6974
  152SAPE  H20R16869   1.892   5.002   6.935 -1.0036 -1.1719 -1.4458
  152SAPE  H20S16870   1.723   5.000   6.925  0.0749 -0.3715 -0.0733
  152SAPE  H20T16871   1.809   5.157   6.958 -0.0250  0.7010 -1.6428
  152SAPE   C3316872   1.583   5.249   6.209 -0.0138  0.3130 -0.1640
  152SAPE   H3X16873   1.491   5.190   6.189 -0.0754  0.2009  0.4154
  152SAPE   H3Y16874   1.544   5.350   6.235  1.3730  0.4588  1.5320
  152SAPE   C3416875   1.652   5.199   6.332  0.7166 -0.0061 -0.0817
  152SAPE   H4X16876   1.730   5.273   6.359 -0.3864  1.4025 -0.6688
  152SAPE   H4Y16877   1.699   5.102   6.305 -1.4388 -1.0355 -0.3804
  152SAPE   C3516878   1.561   5.180   6.452 -0.1469  1.2820 -0.2243
  152SAPE   H5X16879   1.612   5.118   6.529 -0.2588  0.2204 -0.9796
  152SAPE   H5Y16880   1.469   5.125   6.421  1.0423 -0.4104 -0.9731
  152SAPE   C3616881   1.509   5.308   6.529 -0.0781  0.2528 -0.4975
  152SAPE   H6X16882   1.428   5.350   6.466  1.5851  0.7800 -2.4039
  152SAPE   H6Y16883   1.589   5.384   6.538  1.0384 -0.9721  0.2725
  152SAPE   C3716884   1.452   5.274   6.672 -0.3099 -0.1577  0.3075
  152SAPE   H7X16885   1.537   5.271   6.743  0.0084 -0.4825 -0.0805
  152SAPE   H7Y16886   1.403   5.175   6.664  0.9890 -0.8740  0.9588
  152SAPE   C3816887   1.354   5.386   6.717  0.1216  0.0782  0.0559
  152SAPE   H8X16888   1.274   5.406   6.643 -2.6712 -0.6236  2.6852
  152SAPE   H8Y16889   1.419   5.471   6.747 -0.4884  0.1143  1.3303
  152SAPE   C3916890   1.282   5.352   6.853  0.2532  0.5591  0.1411
  152SAPE   H9X16891   1.214   5.266   6.836  2.6153 -1.5126  0.5135
  152SAPE   H9Y16892   1.217   5.439   6.878 -1.9672 -0.8985 -0.2902
  152SAPE  C31016893   1.379   5.310   6.961 -0.5958 -0.6323 -0.8575
  152SAPE  H10X16894   1.434   5.401   6.994 -2.8640  0.1263  1.1339
  152SAPE  H10Y16895   1.442   5.221   6.942 -1.3003 -1.9065  2.1435
  152SAPE  C31116896   1.303   5.250   7.086 -0.0024 -0.3150  0.3775
  152SAPE  H11X16897   1.232   5.170   7.055 -0.3406  0.2823 -0.4538
  152SAPE  H11Y16898   1.237   5.324   7.135 -0.2594 -0.1717 -0.1736
  152SAPE  C31216899   1.401   5.193   7.190  0.4435 -0.3717 -0.8044
  152SAPE  H12X16900   1.345   5.170   7.284  0.2374  0.9404 -0.5884
  152SAPE  H12Y16901   1.465   5.279   7.219 -0.4164 -0.1081  0.4346
  152SAPE  C31316902   1.488   5.072   7.148  0.2979  0.3686  1.1504
  152SAPE  H13X16903   1.562   5.115   7.078  0.1533  0.4482  1.0455
  152SAPE  H13Y16904   1.429   4.995   7.092  1.0995  0.8661 -0.4281
  152SAPE  C31416905   1.556   4.983   7.259 -0.1662  0.1595 -0.0014
  152SAPE  H14X16906   1.639   4.925   7.215  0.9443  1.8783 -0.2795
  152SAPE  H14Y16907   1.487   4.911   7.309  0.6695 -0.2851  0.5329
  152SAPE  C31516908   1.621   5.049   7.384 -0.5283 -0.0038 -0.7460
  152SAPE  H15X16909   1.540   5.095   7.444 -1.4040 -0.2047 -1.7313
  152SAPE  H15Y16910   1.680   5.133   7.342 -0.9210 -0.3631 -2.0544
  152SAPE  C31616911   1.715   4.954   7.461 -0.3206  0.2076 -0.1325
  152SAPE  H16X16912   1.816   4.962   7.414 -0.3080 -1.1325 -0.4010
  152SAPE  H16Y16913   1.671   4.852   7.456  1.0096 -0.4890  1.4528
  152SAPE  C31716914   1.724   5.007   7.610  1.0499  0.0144 -0.3221
  152SAPE  H17X16915   1.761   4.928   7.679  0.4875  0.3703  0.3953
  152SAPE  H17Y16916   1.618   5.025   7.639  0.7312 -1.9500 -0.1359
  152SAPE  C31816917   1.822   5.128   7.615 -0.8959  0.2887 -0.0449
  152SAPE  H18X16918   1.816   5.160   7.721 -0.4614 -0.8485  0.3417
  152SAPE  H18Y16919   1.786   5.219   7.563 -0.9694  0.7843  0.8501
  152SAPE  H18Z16920   1.926   5.096   7.595  0.1278  1.4836  2.7865
  153SAPE     N16921   5.466   4.979   5.651  0.1326 -0.4258 -0.2709
  153SAPE   HN116922   5.384   4.956   5.592 -0.9364 -0.5438  1.2077
  153SAPE   HN216923   5.506   5.070   5.619  0.0507  0.0968  1.0288
  153SAPE   HN316924   5.525   4.895   5.638  0.7022 -0.1095  0.2381
  153SAPE   C1216925   5.422   4.996   5.796 -0.2186 -0.1780 -0.1348
  153SAPE  H12A16926   5.496   4.944   5.858 -0.2393  0.3839  0.3712
  153SAPE  H12B16927   5.325   4.942   5.809  0.5900 -1.5945  0.1520
  153SAPE   C1116928   5.427   5.144   5.847  0.3147 -0.1317  0.4628
  153SAPE  H11A16929   5.474   5.136   5.947  1.3918  0.7405  0.0562
  153SAPE  H11B16930   5.328   5.193   5.855  0.6329  0.8636 -1.1066
  153SAPE     P16931   5.551   5.369   5.824  0.1126 -0.6957  0.3648
  153SAPE   O1316932   5.689   5.384   5.771 -0.2892  0.0724  0.4244
  153SAPE   O1416933   5.461   5.480   5.783 -0.3063  0.0651 -0.3561
  153SAPE   O1216934   5.504   5.233   5.761  0.1797  0.6777 -0.2040
  153SAPE   O1116935   5.562   5.364   5.980 -0.6469 -0.4495 -0.5743
  153SAPE    C116936   5.688   5.334   6.051  0.9042 -0.7191  0.3234
  153SAPE    HA16937   5.776   5.380   6.002 -0.2390  0.8739 -0.3313
  153SAPE    HB16938   5.675   5.374   6.154  1.0217 -1.5512  0.6722
  153SAPE    C216939   5.729   5.187   6.069 -0.2014 -0.4199 -0.1512
  153SAPE    HS16940   5.737   5.140   5.968  5.2919 -0.8978  0.1826
  153SAPE   O2116941   5.630   5.138   6.156  0.3569 -0.0757 -0.3330
  153SAPE   C2116942   5.618   5.007   6.151  0.5682 -0.5520 -0.5684
  153SAPE   O2216943   5.677   4.933   6.076  0.3411 -0.0780 -0.1021
  153SAPE   C2216944   5.507   4.958   6.240  0.3414 -0.4672 -0.5245
  153SAPE   H2R16945   5.412   4.996   6.199  0.0931  1.4216  1.6149
  153SAPE   H2S16946   5.505   4.847   6.248  1.1656 -0.3522  2.8867
  153SAPE    C316947   5.876   5.181   6.134  0.0561  0.6288  0.1967
  153SAPE    HX16948   5.956   5.209   6.062 -0.0378  2.0535  0.6206
  153SAPE    HY16949   5.908   5.076   6.153 -0.0093  0.2278 -1.6685
  153SAPE   O3116950   5.893   5.261   6.252 -0.0544 -0.0134 -0.2351
  153SAPE   C3116951   5.847   5.203   6.360 -0.0978 -0.1738 -0.0498
  153SAPE   O3216952   5.814   5.085   6.360 -0.2201  0.4884 -0.2930
  153SAPE   C3216953   5.851   5.300   6.480  0.6537 -0.2182  0.9560
  153SAPE   H2X16954   5.814   5.397   6.440 -0.7705 -0.4537  1.6227
  153SAPE   H2Y16955   5.955   5.313   6.516  0.6235 -0.2042  1.0392
  153SAPE   C2316956   5.518   5.015   6.383 -0.0336 -0.5870 -0.2762
  153SAPE   H3R16957   5.533   5.124   6.397  0.2872 -0.9011  2.2463
  153SAPE   H3S16958   5.602   4.967   6.437  3.4977  3.3212 -1.7330
  153SAPE   C2416959   5.392   4.987   6.467 -0.0562  0.6826 -0.3451
  153SAPE   H4R16960   5.376   4.877   6.462  1.8871  0.4226 -3.9360
  153SAPE   H4S16961   5.306   5.036   6.416 -0.7057 -0.5498 -0.4744
  153SAPE   C2516962   5.394   5.039   6.611 -0.4813  0.0570  0.0181
  153SAPE   H5R16963   5.348   5.137   6.626  0.9363  0.9134 -1.0351
  153SAPE   C2616964   5.440   4.967   6.715 -1.2540 -0.0240  0.4792
  153SAPE   H6R16965   5.421   5.006   6.816  1.5799 -2.0226  1.9141
  153SAPE   C2716966   5.499   4.823   6.707  0.1022 -0.0179  0.1065
  153SAPE   H7R16967   5.544   4.797   6.609 -1.9402  3.5463 -2.0294
  153SAPE   H7S16968   5.411   4.756   6.715 -0.7057  0.8543 -1.0651
  153SAPE   C2816969   5.603   4.793   6.816  0.3068 -0.4158 -0.4415
  153SAPE   H8R16970   5.557   4.774   6.914 -0.8002 -0.2547 -0.9103
  153SAPE   C2916971   5.739   4.796   6.813  0.7149  0.0308 -0.7177
  153SAPE   H9R16972   5.787   4.796   6.912  0.2486 -0.7504 -0.4760
  153SAPE  C21016973   5.830   4.842   6.707  0.1532 -0.2131  0.0238
  153SAPE  H10R16974   5.904   4.914   6.748 -0.5858 -0.1196  1.2390
  153SAPE  H10S16975   5.761   4.907   6.648 -0.7304  0.3666  1.6437
  153SAPE  C21116976   5.905   4.737   6.625  0.1753 -0.0935 -0.3656
  153SAPE  H11R16977   5.851   4.708   6.533 -0.1153 -0.6839 -0.0105
  153SAPE  C21216978   6.011   4.663   6.654  0.9845 -0.1440  0.1042
  153SAPE  H12R16979   6.065   4.601   6.581  1.1330  0.3936 -0.2545
  153SAPE  C21316980   6.096   4.675   6.781  1.2813  0.0921  0.2797
  153SAPE  H13R16981   6.028   4.679   6.869  0.7479 -1.8059 -0.0011
  153SAPE  H13S16982   6.158   4.767   6.778 -0.3868  1.2409 -0.4558
  153SAPE  C21416983   6.179   4.552   6.815  0.4743  0.3337  0.3412
  153SAPE  H14R16984   6.147   4.457   6.771  0.4012  1.1763 -1.5214
  153SAPE  C21516985   6.250   4.546   6.931  0.3669  0.0050 -0.0563
  153SAPE  H15R16986   6.325   4.465   6.938 -0.3368 -0.9363 -2.3477
  153SAPE  C21616987   6.267   4.643   7.043  0.7991 -0.3159 -0.3527
  153SAPE  H16R16988   6.266   4.590   7.141  1.5995 -1.2937 -0.8522
  153SAPE  H16S16989   6.185   4.717   7.052  0.8676 -0.3487  0.6131
  153SAPE  C21716990   6.394   4.722   7.031  0.3604 -0.6869 -0.9310
  153SAPE  H17R16991   6.414   4.753   6.926 -0.0618  0.0782 -0.7971
  153SAPE  H17S16992   6.471   4.648   7.061 -1.3168 -2.6049 -1.1414
  153SAPE  C21816993   6.402   4.846   7.123 -0.1508 -0.1804 -0.1547
  153SAPE  H18R16994   6.389   4.819   7.230  0.2694 -0.2618 -0.1215
  153SAPE  H18S16995   6.308   4.902   7.103 -1.2149 -2.4529 -2.1234
  153SAPE  C21916996   6.529   4.929   7.102 -0.4795 -0.9076 -0.2293
  153SAPE  H19R16997   6.517   4.975   7.001 -3.6280 -0.9651  0.0321
  153SAPE  H19S16998   6.613   4.856   7.105 -1.0534 -1.8035 -2.9409
  153SAPE  C22016999   6.550   5.038   7.206 -0.3219  0.2424 -0.1979
  153SAPE  H20R17000   6.547   4.990   7.306 -3.4596 -1.2854 -0.8856
  153SAPE  H20S17001   6.473   5.118   7.209  1.2048  1.7816  2.7232
  153SAPE  H20T17002   6.648   5.077   7.173  0.5675 -1.5278  0.2201
  153SAPE   C3317003   5.752   5.274   6.602  0.5510  1.0601 -0.2084
  153SAPE   H3X17004   5.774   5.182   6.660  2.6416  0.9375 -1.1263
  153SAPE   H3Y17005   5.654   5.270   6.551  1.5090 -1.2464 -2.0550
  153SAPE   C3417006   5.747   5.405   6.687 -0.4930  0.7072  0.7152
  153SAPE   H4X17007   5.713   5.488   6.621 -3.6888 -0.3791  0.8173
  153SAPE   H4Y17008   5.851   5.426   6.719 -0.3601  2.0343 -0.4846
  153SAPE   C3517009   5.652   5.399   6.803 -1.2950  0.0380 -0.3356
  153SAPE   H5X17010   5.546   5.388   6.770 -0.5121  0.2318 -3.1588
  153SAPE   H5Y17011   5.653   5.492   6.863 -0.1788  1.0698 -1.8902
  153SAPE   C3617012   5.670   5.281   6.905  0.7150 -0.5755 -0.0285
  153SAPE   H6X17013   5.774   5.270   6.944  1.2224 -3.3974 -1.8773
  153SAPE   H6Y17014   5.645   5.186   6.853  0.9825 -0.1602 -0.9554
  153SAPE   C3717015   5.576   5.304   7.023 -0.2916 -0.8414  0.2632
  153SAPE   H7X17016   5.479   5.340   6.981  0.5470  0.3234 -0.7612
  153SAPE   H7Y17017   5.625   5.389   7.075  1.2759 -1.0937 -0.7252
  153SAPE   C3817018   5.567   5.194   7.124 -0.0418  0.2859  0.2102
  153SAPE   H8X17019   5.671   5.157   7.141 -0.1932  0.0887  0.7194
  153SAPE   H8Y17020   5.521   5.104   7.078 -1.4823  2.0024 -1.8600
  153SAPE   C3917021   5.494   5.238   7.249 -0.0105  0.0593  0.1901
  153SAPE   H9X17022   5.398   5.281   7.211 -0.0303  1.2228  1.4778
  153SAPE   H9Y17023   5.546   5.319   7.305 -1.5531  2.4631 -1.5971
  153SAPE  C31017024   5.487   5.133   7.355 -0.4464  0.3117  0.0572
  153SAPE  H10X17025   5.584   5.130   7.408 -1.2865  2.1025  1.8026
  153SAPE  H10Y17026   5.474   5.040   7.294  1.1962  0.0075  0.1335
  153SAPE  C31117027   5.384   5.163   7.459  0.7145 -0.4849 -0.2749
  153SAPE  H11X17028   5.283   5.168   7.414  0.0754 -3.3008  0.6508
  153SAPE  H11Y17029   5.415   5.260   7.504  0.9519 -1.3357  1.5200
  153SAPE  C31217030   5.391   5.041   7.558  0.5834  0.2900  0.1735
  153SAPE  H12X17031   5.499   5.028   7.579  1.1356  2.2828 -1.1467
  153SAPE  H12Y17032   5.355   4.949   7.507  2.3362 -0.8049  0.8023
  153SAPE  C31317033   5.316   5.051   7.687  0.4219 -0.1675 -0.0720
  153SAPE  H13X17034   5.361   5.130   7.750 -3.5490  1.3676  1.1157
  153SAPE  H13Y17035   5.330   4.955   7.742  0.1280  0.4455  1.0922
  153SAPE  C31417036   5.166   5.085   7.658 -0.0513 -0.5954 -0.0683
  153SAPE  H14X17037   5.131   5.005   7.590  1.2541 -0.9722 -0.3227
  153SAPE  H14Y17038   5.157   5.183   7.606 -1.4530 -1.2515 -1.1437
  153SAPE  C31517039   5.079   5.099   7.785 -0.0289 -0.2131  0.2361
  153SAPE  H15X17040   5.103   5.017   7.855  2.0883  1.0770  1.1015
  153SAPE  H15Y17041   4.971   5.101   7.758  0.2346 -0.0774 -0.8723
  153SAPE  C31617042   5.111   5.223   7.871 -0.3469  0.1180 -0.1449
  153SAPE  H16X17043   5.110   5.312   7.805 -0.2401  0.1470 -0.1072
  153SAPE  H16Y17044   5.218   5.217   7.901  0.3072 -0.2588 -2.3806
  153SAPE  C31717045   5.017   5.250   7.989 -0.0094 -0.5538  0.6564
  153SAPE  H17X17046   4.913   5.266   7.952  0.1003 -0.2359  0.4824
  153SAPE  H17Y17047   5.035   5.345   8.044 -1.1606 -0.4571  0.8972
  153SAPE  C31817048   5.013   5.135   8.084 -0.3276  0.1994 -0.1547
  153SAPE  H18X17049   4.961   5.046   8.042  0.0887  0.2413 -0.7829
  153SAPE  H18Y17050   4.962   5.168   8.177 -1.7269  0.5251 -1.0059
  153SAPE  H18Z17051   5.110   5.104   8.128 -0.8862 -1.3701  0.0221
  154SAPE     N17052   0.321   5.791   5.336 -0.1017 -0.1670  0.8554
  154SAPE   HN117053   0.405   5.745   5.298 -1.2166 -0.7230 -1.1021
  154SAPE   HN217054   0.244   5.769   5.270  0.8329 -2.9947  0.5934
  154SAPE   HN317055   0.340   5.893   5.336 -0.0011 -0.1482 -1.0887
  154SAPE   C1217056   0.310   5.725   5.468 -0.7936 -0.1784  0.0889
  154SAPE  H12A17057   0.299   5.615   5.464 -0.0681 -0.2600  0.2185
  154SAPE  H12B17058   0.221   5.774   5.511 -0.7754  1.5515 -1.6830
  154SAPE   C1117059   0.447   5.752   5.537  0.2870 -0.5804 -0.3165
  154SAPE  H11A17060   0.444   5.726   5.645  0.8652 -1.6775 -0.5467
  154SAPE  H11B17061   0.485   5.856   5.529  0.4752 -0.6434 -0.2595
  154SAPE     P17062   0.699   5.670   5.514 -0.0321 -0.0854 -0.0567
  154SAPE   O1317063   0.765   5.541   5.476 -0.1213  0.1877  0.3122
  154SAPE   O1417064   0.740   5.801   5.449  0.3039  0.0583  0.0106
  154SAPE   O1217065   0.543   5.664   5.481 -0.3753 -0.2701  0.1105
  154SAPE   O1117066   0.699   5.685   5.674 -0.3115  0.2412 -0.1794
  154SAPE    C117067   0.763   5.806   5.724 -0.0722 -0.4379 -0.6273
  154SAPE    HA17068   0.862   5.822   5.676  0.1450 -1.8763 -0.7071
  154SAPE    HB17069   0.704   5.896   5.698  0.1559 -0.6116 -1.8094
  154SAPE    C217070   0.771   5.803   5.875 -0.0941  0.0293 -0.2236
  154SAPE    HS17071   0.804   5.904   5.907 -0.6883 -0.9107  3.9525
  154SAPE   O2117072   0.863   5.701   5.924  0.2879 -0.1146  0.0586
  154SAPE   C2117073   0.991   5.712   5.879 -0.3224 -0.0311 -0.6090
  154SAPE   O2217074   1.040   5.804   5.817 -0.8377 -0.1672 -0.0423
  154SAPE   C2217075   1.079   5.598   5.941  0.2000  0.1988 -0.4442
  154SAPE   H2R17076   1.067   5.592   6.051 -1.9509 -1.2324 -0.6934
  154SAPE   H2S17077   1.039   5.500   5.907  4.6475 -1.7402 -0.8286
  154SAPE    C317078   0.630   5.782   5.945  0.3213 -0.1174 -0.8289
  154SAPE    HX17079   0.601   5.681   5.912 -2.3668  0.5294 -0.6956
  154SAPE    HY17080   0.569   5.865   5.904  0.5368  0.4692 -0.0027
  154SAPE   O3117081   0.631   5.788   6.090  0.4361 -0.1705 -0.1427
  154SAPE   C3117082   0.666   5.906   6.141 -0.0714 -0.2851  0.1209
  154SAPE   O3217083   0.684   6.005   6.080  0.5927 -0.6614  0.1518
  154SAPE   C3217084   0.684   5.905   6.295 -0.6640 -0.2542  0.2168
  154SAPE   H2X17085   0.707   6.008   6.329  1.5977 -0.3152 -0.9511
  154SAPE   H2Y17086   0.779   5.850   6.315  0.3374  2.2013  3.0305
  154SAPE   C2317087   1.228   5.606   5.909 -0.6123 -0.3251 -0.2486
  154SAPE   H3R17088   1.267   5.705   5.939  0.8420 -0.1615 -2.4446
  154SAPE   H3S17089   1.235   5.600   5.798 -2.2259  0.0050 -0.4005
  154SAPE   C2417090   1.310   5.505   5.988 -0.3939 -0.2023 -0.1526
  154SAPE   H4R17091   1.312   5.544   6.092 -0.2597 -1.8146  0.4894
  154SAPE   H4S17092   1.412   5.515   5.946  0.1539  0.3833  1.2599
  154SAPE   C2517093   1.259   5.366   5.974  0.4108 -0.0964  0.5135
  154SAPE   H5R17094   1.275   5.325   5.873  1.1073 -0.6361  0.8383
  154SAPE   C2617095   1.207   5.278   6.069  0.9580 -0.1736  0.0906
  154SAPE   H6R17096   1.174   5.178   6.036 -1.0531  0.7394 -0.8348
  154SAPE   C2717097   1.192   5.306   6.216  0.0831  0.1564 -0.2198
  154SAPE   H7R17098   1.189   5.417   6.223 -0.5001  0.0306  2.7996
  154SAPE   H7S17099   1.288   5.287   6.270 -0.4620 -0.8827  0.4295
  154SAPE   C2817100   1.084   5.231   6.293 -0.1271  0.0969 -0.2723
  154SAPE   H8R17101   1.080   5.121   6.290 -0.3418  0.1063 -0.3757
  154SAPE   C2917102   0.985   5.289   6.362 -0.4111 -0.0870  0.6980
  154SAPE   H9R17103   0.911   5.223   6.410  0.1097 -1.1055  0.1454
  154SAPE  C21017104   0.976   5.437   6.393  0.3729 -0.2724  0.8978
  154SAPE  H10R17105   0.959   5.488   6.296 -0.9448 -1.1687  0.6327
  154SAPE  H10S17106   1.067   5.473   6.445  0.4248  0.3607  0.3886
  154SAPE  C21117107   0.855   5.479   6.471  0.1516  0.4906 -0.1092
  154SAPE  H11R17108   0.760   5.485   6.416  0.5764 -0.0390 -0.9221
  154SAPE  C21217109   0.852   5.494   6.607 -0.2872  0.8182  0.6154
  154SAPE  H12R17110   0.763   5.523   6.664 -0.8801 -1.0940  0.7315
  154SAPE  C21317111   0.974   5.471   6.695 -0.4170 -0.3678 -0.5960
  154SAPE  H13R17112   1.012   5.574   6.712 -0.0632 -0.0385 -2.9978
  154SAPE  H13S17113   1.059   5.413   6.652  0.4165 -0.9374  1.6728
  154SAPE  C21417114   0.936   5.397   6.819  0.0328  0.3179  0.2863
  154SAPE  H14R17115   0.910   5.292   6.798 -1.0827  0.3667  1.3128
  154SAPE  C21517116   0.931   5.450   6.950  0.7766  0.1037 -0.4220
  154SAPE  H15R17117   0.876   5.397   7.029  0.4607 -1.3176 -1.5614
  154SAPE  C21617118   0.951   5.591   6.984 -0.0553 -0.1191 -0.2789
  154SAPE  H16R17119   0.890   5.642   6.907 -1.7219 -1.9295 -0.2194
  154SAPE  H16S17120   1.058   5.622   6.986 -0.5359  1.6125  0.0961
  154SAPE  C21717121   0.891   5.616   7.124 -0.0236 -0.2113 -0.8411
  154SAPE  H17R17122   0.786   5.584   7.142  0.0638 -0.0807 -0.0926
  154SAPE  H17S17123   0.893   5.725   7.142 -1.9547 -0.5271  1.8191
  154SAPE  C21817124   0.977   5.558   7.236  0.1924 -0.6352  0.2178
  154SAPE  H18R17125   1.085   5.580   7.224  0.7222 -1.4372  2.7849
  154SAPE  H18S17126   0.978   5.447   7.232  1.0912 -0.7087  1.8098
  154SAPE  C21917127   0.952   5.600   7.384  0.5226 -0.1558 -0.3395
  154SAPE  H19R17128   0.982   5.512   7.446  0.6915  1.3046  1.7526
  154SAPE  H19S17129   0.844   5.619   7.397  0.4880 -1.2353  1.2893
  154SAPE  C22017130   1.041   5.718   7.421 -0.3194  0.4449  0.4099
  154SAPE  H20R17131   1.013   5.776   7.511 -1.5086 -0.1647  0.4499
  154SAPE  H20S17132   1.033   5.779   7.328 -1.7893 -2.5153 -1.5628
  154SAPE  H20T17133   1.147   5.688   7.435 -0.1392  0.3454 -0.9503
  154SAPE   C3317134   0.567   5.842   6.365  0.0665  0.0332 -0.7886
  154SAPE   H3X17135   0.557   5.741   6.320  0.4278 -0.4331  0.1720
  154SAPE   H3Y17136   0.478   5.908   6.351  0.7222  1.1027 -0.0234
  154SAPE   C3417137   0.587   5.831   6.514  0.2464  0.2103 -0.3749
  154SAPE   H4X17138   0.682   5.786   6.552 -0.1347  2.2756  3.4973
  154SAPE   H4Y17139   0.510   5.758   6.547  1.1946 -1.1166 -0.9787
  154SAPE   C3517140   0.565   5.956   6.587 -0.4206 -0.6589  0.0686
  154SAPE   H5X17141   0.460   5.990   6.575 -0.6881 -2.0959 -2.2151
  154SAPE   H5Y17142   0.637   6.032   6.549 -1.2129  0.0910  0.0347
  154SAPE   C3617143   0.587   5.930   6.732 -0.3347  0.0427 -0.2010
  154SAPE   H6X17144   0.690   5.897   6.757 -0.2384  1.4000  1.3042
  154SAPE   H6Y17145   0.513   5.852   6.760  0.8587 -0.7833  0.7515
  154SAPE   C3717146   0.552   6.048   6.824  0.1067 -0.9148 -0.7318
  154SAPE   H7X17147   0.441   6.055   6.821 -0.1637 -1.7380  2.9613
  154SAPE   H7Y17148   0.587   6.143   6.778 -1.3972 -0.2662 -0.6101
  154SAPE   C3817149   0.603   6.044   6.966  0.3131 -0.0158 -0.1348
  154SAPE   H8X17150   0.580   6.144   7.009  1.5359  0.5699 -0.7812
  154SAPE   H8Y17151   0.714   6.041   6.963  0.3452  0.0595  0.6909
  154SAPE   C3917152   0.560   5.937   7.067  0.6850 -0.0734  0.4299
  154SAPE   H9X17153   0.614   5.841   7.079 -0.0281 -0.2597  2.6378
  154SAPE   H9Y17154   0.456   5.910   7.041  0.8912  0.7600 -1.4202
  154SAPE  C31017155   0.556   5.995   7.211 -0.1290  0.2004  0.1360
  154SAPE  H10X17156   0.494   6.087   7.213 -1.4496 -0.6753  0.6329
  154SAPE  H10Y17157   0.661   6.017   7.242  0.4951 -2.7081  0.3791
  154SAPE  C31117158   0.488   5.909   7.314 -0.5343  0.6402  0.0821
  154SAPE  H11X17159   0.398   5.865   7.265 -0.2945  0.9396 -0.6337
  154SAPE  H11Y17160   0.445   5.966   7.399  0.7292  0.5417  0.8096
  154SAPE  C31217161   0.571   5.788   7.367  0.5746  0.4684 -0.1433
  154SAPE  H12X17162   0.662   5.837   7.407 -1.8519  2.8434  2.9481
  154SAPE  H12Y17163   0.587   5.724   7.278  2.2128  2.5377 -1.4385
  154SAPE  C31317164   0.488   5.727   7.485 -0.0570  0.3152 -0.2204
  154SAPE  H13X17165   0.385   5.710   7.445 -0.4549 -0.7060  1.1748
  154SAPE  H13Y17166   0.489   5.800   7.568 -0.4733  1.4593 -1.1843
  154SAPE  C31417167   0.553   5.593   7.530 -0.0800 -0.5133  0.2068
  154SAPE  H14X17168   0.523   5.569   7.634  2.7840  0.3934  1.3512
  154SAPE  H14Y17169   0.662   5.611   7.544 -0.3773  1.7291  0.0290
  154SAPE  C31517170   0.518   5.483   7.434 -0.3320  0.5327  0.1124
  154SAPE  H15X17171   0.553   5.511   7.333 -0.2389 -0.4841 -0.1471
  154SAPE  H15Y17172   0.409   5.464   7.427 -0.0089 -1.1660 -0.7994
  154SAPE  C31617173   0.583   5.350   7.480 -0.0338 -0.2100  0.6520
  154SAPE  H16X17174   0.497   5.279   7.476 -1.1815  1.1724 -0.3805
  154SAPE  H16Y17175   0.623   5.369   7.582 -0.9255 -0.8180  1.1352
  154SAPE  C31717176   0.683   5.291   7.385 -0.7404 -0.0301  0.3491
  154SAPE  H17X17177   0.766   5.362   7.366  0.8132 -1.8559 -0.0793
  154SAPE  H17Y17178   0.640   5.278   7.283 -0.6522  2.0992  0.0040
  154SAPE  C31817179   0.745   5.162   7.439 -0.9464  0.2893 -0.4318
  154SAPE  H18X17180   0.855   5.168   7.435 -0.8909  0.3617  0.7821
  154SAPE  H18Y17181   0.721   5.079   7.369  0.6958 -0.4946 -0.0948
  154SAPE  H18Z17182   0.722   5.128   7.543 -1.1035  2.0954  0.1598
  155SAPE     N17183   2.923   7.180   5.229 -0.0711 -0.2603  0.4700
  155SAPE   HN117184   2.852   7.229   5.172 -0.9089 -2.5375 -0.5838
  155SAPE   HN217185   2.937   7.082   5.198  0.1115 -0.7999  2.1199
  155SAPE   HN317186   2.890   7.178   5.328  0.0476  1.0623  0.5412
  155SAPE   C1217187   3.049   7.258   5.236  0.2543  0.5118  0.2788
  155SAPE  H12A17188   3.042   7.321   5.144  2.1854  0.4262  0.0228
  155SAPE  H12B17189   3.122   7.174   5.229 -1.4079 -0.9017 -0.8183
  155SAPE   C1117190   3.058   7.353   5.362  0.2864  0.3822 -0.2669
  155SAPE  H11A17191   2.964   7.412   5.367  0.9520  1.3837  1.2679
  155SAPE  H11B17192   3.143   7.425   5.353 -0.4415  1.0665 -2.0627
  155SAPE     P17193   3.200   7.197   5.530 -0.3639  0.1746 -0.2182
  155SAPE   O1317194   3.190   7.064   5.469 -0.7048 -0.0383 -0.1167
  155SAPE   O1417195   3.324   7.284   5.500  0.1724  0.0022 -0.1923
  155SAPE   O1217196   3.073   7.276   5.486  0.1666 -0.5893  0.2403
  155SAPE   O1117197   3.181   7.187   5.685  0.2480  0.0016  0.1383
  155SAPE    C117198   3.120   7.070   5.741  0.1481 -0.0167  0.5560
  155SAPE    HA17199   3.158   6.973   5.702  1.1482 -0.5834  2.7567
  155SAPE    HB17200   3.153   7.078   5.847 -1.6523 -1.6943  1.3087
  155SAPE    C217201   2.962   7.083   5.750 -0.4985  0.0812 -0.3237
  155SAPE    HS17202   2.923   7.074   5.647  0.7383 -1.2548 -0.7161
  155SAPE   O2117203   2.933   7.207   5.822  0.1598 -0.8873  0.2929
  155SAPE   C2117204   2.821   7.255   5.788  0.3578 -0.1696 -0.1890
  155SAPE   O2217205   2.727   7.194   5.729 -0.1040  0.0179  0.1700
  155SAPE   C2217206   2.808   7.400   5.839 -0.0958 -0.4538  0.7858
  155SAPE   H2R17207   2.828   7.401   5.948 -2.0186 -1.2183  1.1768
  155SAPE   H2S17208   2.882   7.467   5.790 -0.4893 -0.0114  0.7948
  155SAPE    C317209   2.903   6.966   5.831 -0.1814 -0.5733 -0.1258
  155SAPE    HX17210   2.918   6.872   5.774  1.1412 -0.7427  0.4703
  155SAPE    HY17211   2.792   6.974   5.829 -0.1416 -0.2243 -1.2150
  155SAPE   O3117212   2.947   6.970   5.974 -0.3911  0.3911 -0.4921
  155SAPE   C3117213   3.013   6.868   6.037  0.0199 -0.1098  0.0977
  155SAPE   O3217214   3.056   6.770   5.981 -0.3706  0.0209 -0.1962
  155SAPE   C3217215   3.019   6.892   6.184 -0.0163  0.0265  0.2712
  155SAPE   H2X17216   2.912   6.889   6.212 -0.2145 -0.8027 -0.4974
  155SAPE   H2Y17217   3.066   6.988   6.213  0.6110  0.2231 -1.2756
  155SAPE   C2317218   2.659   7.449   5.810 -1.0599  0.3990 -0.8454
  155SAPE   H3R17219   2.640   7.437   5.701 -2.0437 -2.4705 -0.4479
  155SAPE   H3S17220   2.657   7.554   5.848 -0.3229  0.1704 -0.1584
  155SAPE   C2417221   2.551   7.381   5.899 -0.4917  0.0826 -0.6344
  155SAPE   H4R17222   2.511   7.285   5.861 -0.9684  0.2229 -0.5023
  155SAPE   H4S17223   2.460   7.444   5.892  1.6226  3.4461 -0.0715
  155SAPE   C2517224   2.590   7.377   6.045 -0.3115  0.0764  0.0635
  155SAPE   H5R17225   2.603   7.472   6.099 -1.6439 -0.1564  0.8243
  155SAPE   C2617226   2.618   7.266   6.113  0.0016 -0.0311  0.0465
  155SAPE   H6R17227   2.651   7.279   6.217 -0.8267 -0.0485  0.3169
  155SAPE   C2717228   2.607   7.125   6.066  0.1269  0.3957 -0.2004
  155SAPE   H7R17229   2.707   7.077   6.068 -1.2902 -2.8008  1.9384
  155SAPE   H7S17230   2.570   7.124   5.961  0.4110  0.6796 -0.3083
  155SAPE   C2817231   2.519   7.041   6.156  0.4296  0.1320 -0.4588
  155SAPE   H8R17232   2.440   7.089   6.216 -0.3599 -1.7086  0.0475
  155SAPE   C2917233   2.537   6.910   6.190  0.0235  0.7296 -0.2633
  155SAPE   H9R17234   2.459   6.861   6.249  1.3397 -0.5002  0.5389
  155SAPE  C21017235   2.643   6.808   6.152 -0.0061 -0.3602 -0.7719
  155SAPE  H10R17236   2.709   6.816   6.241 -1.3782 -2.5490  0.5564
  155SAPE  H10S17237   2.703   6.847   6.067  0.0500 -0.9725 -1.0155
  155SAPE  C21117238   2.605   6.665   6.130  0.5780  0.3692  0.1303
  155SAPE  H11R17239   2.592   6.629   6.027 -0.0025 -0.4502  0.4808
  155SAPE  C21217240   2.581   6.571   6.222  0.3354  0.6847 -0.2178
  155SAPE  H12R17241   2.564   6.463   6.207  1.3627  0.5791 -0.7303
  155SAPE  C21317242   2.576   6.599   6.367  0.4613  0.0041 -0.0117
  155SAPE  H13R17243   2.572   6.709   6.380  1.2009 -0.1790  2.0550
  155SAPE  H13S17244   2.668   6.570   6.421  1.1297  2.1454  0.0874
  155SAPE  C21417245   2.452   6.525   6.414 -0.1824  0.6264  0.7806
  155SAPE  H14R17246   2.370   6.513   6.342  1.2083  0.8463 -0.9067
  155SAPE  C21517247   2.423   6.493   6.544  0.1956  0.0560  0.6940
  155SAPE  H15R17248   2.325   6.452   6.574 -0.2202  0.9992  0.6560
  155SAPE  C21617249   2.498   6.527   6.665 -0.1080  0.6971 -0.5907
  155SAPE  H16R17250   2.430   6.559   6.747  0.5802  1.7221 -0.4063
  155SAPE  H16S17251   2.565   6.613   6.643  1.6616 -0.3422  0.5109
  155SAPE  C21717252   2.593   6.424   6.715 -0.2242  0.3209  0.0819
  155SAPE  H17R17253   2.661   6.381   6.638 -0.9499 -0.6525 -0.0388
  155SAPE  H17S17254   2.544   6.339   6.768  1.6461  0.5917  2.4066
  155SAPE  C21817255   2.685   6.470   6.825  0.3400  0.0549 -0.4207
  155SAPE  H18R17256   2.630   6.501   6.917 -0.2064 -0.1312 -0.6829
  155SAPE  H18S17257   2.745   6.555   6.788 -1.6379  1.7469  0.0752
  155SAPE  C21917258   2.785   6.364   6.884  0.5133  0.8584  0.3419
  155SAPE  H19R17259   2.842   6.324   6.797 -2.7937 -3.0080 -0.3510
  155SAPE  H19S17260   2.727   6.277   6.921  1.1140  0.4969  0.4403
  155SAPE  C22017261   2.885   6.416   6.987  1.1530  0.5808 -0.3181
  155SAPE  H20R17262   2.931   6.326   7.034 -1.3503 -0.2119  0.8069
  155SAPE  H20S17263   2.832   6.462   7.073  1.3501 -0.4782  0.3846
  155SAPE  H20T17264   2.960   6.489   6.951  1.1668  1.8194  2.0275
  155SAPE   C3317265   3.104   6.788   6.253  0.1197 -0.3067 -0.3248
  155SAPE   H3X17266   3.213   6.795   6.235  0.3968 -1.2597  0.9190
  155SAPE   H3Y17267   3.069   6.694   6.205 -0.9146  0.3758 -0.9803
  155SAPE   C3417268   3.079   6.782   6.405  0.3201 -0.0241 -0.3663
  155SAPE   H4X17269   2.971   6.790   6.430  0.6401  0.9214  0.8255
  155SAPE   H4Y17270   3.121   6.870   6.459  3.0697 -2.6159  2.0689
  155SAPE   C3517271   3.132   6.654   6.477  0.4371 -0.0998 -0.4202
  155SAPE   H5X17272   3.239   6.631   6.454  0.4694  0.9788 -1.4152
  155SAPE   H5Y17273   3.058   6.572   6.466  0.2124 -0.2874  1.9562
  155SAPE   C3617274   3.126   6.685   6.631  0.3622  1.0312  0.8209
  155SAPE   H6X17275   3.023   6.723   6.649  0.9376  3.4126 -0.4905
  155SAPE   H6Y17276   3.196   6.770   6.651  0.1218  0.9255  2.2601
  155SAPE   C3717277   3.154   6.559   6.714  0.1671 -0.1784 -0.5412
  155SAPE   H7X17278   3.243   6.511   6.668  0.9692  1.2192 -0.4996
  155SAPE   H7Y17279   3.076   6.482   6.701  2.0439 -2.4795  0.8717
  155SAPE   C3817280   3.189   6.587   6.863  0.0207  0.2113  0.2295
  155SAPE   H8X17281   3.096   6.624   6.912 -0.2184 -1.7222  1.3320
  155SAPE   H8Y17282   3.265   6.668   6.864  1.1712 -0.5753 -3.8861
  155SAPE   C3917283   3.250   6.467   6.942 -0.6357 -0.1763  0.5547
  155SAPE   H9X17284   3.341   6.438   6.886 -0.8788  0.6611 -0.2915
  155SAPE   H9Y17285   3.177   6.385   6.928  0.8589 -1.1390 -2.1138
  155SAPE  C31017286   3.264   6.499   7.090  0.1485 -0.5014 -0.1989
  155SAPE  H10X17287   3.172   6.527   7.144  0.7567 -0.4550  0.8309
  155SAPE  H10Y17288   3.343   6.577   7.101  1.8190 -1.6600 -2.7768
  155SAPE  C31117289   3.310   6.381   7.174 -0.0935  0.6251 -0.1435
  155SAPE  H11X17290   3.411   6.347   7.144 -0.7620 -0.6838 -1.0577
  155SAPE  H11Y17291   3.240   6.296   7.155  0.4439 -0.0887  1.0045
  155SAPE  C31217292   3.303   6.409   7.323 -0.8462  0.9173  0.1047
  155SAPE  H12X17293   3.198   6.438   7.347 -0.9502  0.5451  0.1117
  155SAPE  H12Y17294   3.383   6.481   7.350  0.7760 -1.1180  0.9951
  155SAPE  C31317295   3.337   6.280   7.400 -0.5079 -1.0352 -0.8592
  155SAPE  H13X17296   3.428   6.233   7.357  1.5306  2.0903 -0.2687
  155SAPE  H13Y17297   3.252   6.212   7.376 -2.7220  1.9116 -1.9892
  155SAPE  C31417298   3.356   6.288   7.553  0.1137 -0.0531 -0.3867
  155SAPE  H14X17299   3.277   6.364   7.573 -2.0420 -1.9487 -1.2303
  155SAPE  H14Y17300   3.447   6.340   7.591 -0.5179  1.3604 -0.7442
  155SAPE  C31517301   3.329   6.161   7.639 -0.2063 -0.1025  0.3707
  155SAPE  H15X17302   3.248   6.114   7.579 -2.3720  2.3127  1.2059
  155SAPE  H15Y17303   3.294   6.174   7.743  0.5834  1.5823  0.4504
  155SAPE  C31617304   3.454   6.060   7.641  0.1681 -0.6550  0.0202
  155SAPE  H16X17305   3.485   6.054   7.534 -0.2471 -0.3477 -0.1203
  155SAPE  H16Y17306   3.423   5.960   7.678 -1.0826 -0.5282 -0.6172
  155SAPE  C31717307   3.550   6.114   7.742 -0.0430 -0.7222 -0.4280
  155SAPE  H17X17308   3.562   6.223   7.731 -0.5816 -0.7088 -0.8888
  155SAPE  H17Y17309   3.644   6.062   7.710  0.0094 -2.6525  2.4555
  155SAPE  C31817310   3.524   6.061   7.890  0.2194  0.1524  0.1438
  155SAPE  H18X17311   3.539   5.952   7.909  0.9247 -0.0906 -1.5761
  155SAPE  H18Y17312   3.417   6.076   7.912 -0.2142 -0.1567 -1.5498
  155SAPE  H18Z17313   3.593   6.112   7.960  1.5094 -1.1433 -0.1269
  156SAPE     N17314   1.389   5.587   5.276 -0.2983 -0.0259 -0.3784
  156SAPE   HN117315   1.352   5.493   5.302  1.0921 -0.2607  0.9028
  156SAPE   HN217316   1.394   5.576   5.173 -1.7647 -1.0956 -0.3752
  156SAPE   HN317317   1.483   5.593   5.318 -0.7508  1.5361  0.4921
  156SAPE   C1217318   1.303   5.703   5.320 -0.2023  0.1809  0.0021
  156SAPE  H12A17319   1.203   5.685   5.276 -0.7491 -1.1317  1.6458
  156SAPE  H12B17320   1.346   5.790   5.266  2.8843 -1.4771 -0.4457
  156SAPE   C1117321   1.307   5.709   5.473 -0.4176  0.4332 -0.2032
  156SAPE  H11A17322   1.294   5.614   5.529  3.4506 -0.2577 -0.2240
  156SAPE  H11B17323   1.224   5.772   5.512 -1.4275 -0.7089 -0.4583
  156SAPE     P17324   1.467   5.924   5.504 -0.2888 -0.0964  0.2816
  156SAPE   O1317325   1.605   5.947   5.539 -0.3575 -0.2196 -0.2578
  156SAPE   O1417326   1.420   5.977   5.378  0.3104 -0.0383 -0.2007
  156SAPE   O1217327   1.433   5.768   5.511 -0.2202  0.3538 -0.8209
  156SAPE   O1117328   1.375   5.973   5.621 -0.0115  0.4467 -0.2891
  156SAPE    C117329   1.408   5.932   5.758  0.2477 -0.9455 -0.1028
  156SAPE    HA17330   1.304   5.928   5.797 -0.6418  0.0961 -2.2107
  156SAPE    HB17331   1.449   5.832   5.785  0.5841 -0.8503 -0.2596
  156SAPE    C217332   1.493   6.035   5.825  0.6961 -0.3872 -0.0412
  156SAPE    HS17333   1.590   6.031   5.771  0.4155 -1.2425 -0.4943
  156SAPE   O2117334   1.498   5.991   5.959 -0.0491  0.0522  0.1730
  156SAPE   C2117335   1.592   6.058   6.029  0.5220 -0.1556 -0.3203
  156SAPE   O2217336   1.686   6.119   5.985 -0.1523  0.3922  0.2738
  156SAPE   C2217337   1.554   6.030   6.181  0.1235  0.3806  1.1242
  156SAPE   H2R17338   1.445   6.052   6.186  0.1046  1.0109 -1.0327
  156SAPE   H2S17339   1.559   5.922   6.207 -1.8554  0.5202  2.3735
  156SAPE    C317340   1.425   6.172   5.810 -0.3619  0.0856  0.1608
  156SAPE    HX17341   1.425   6.191   5.700  1.0562  1.9870  0.4453
  156SAPE    HY17342   1.482   6.253   5.860  0.5061 -0.5209  0.1763
  156SAPE   O3117343   1.288   6.167   5.857 -0.3903  0.4745 -0.9351
  156SAPE   C3117344   1.266   6.206   5.988  0.2369  0.5718  0.5316
  156SAPE   O3217345   1.346   6.258   6.057 -0.1312  0.0284 -1.0233
  156SAPE   C3217346   1.116   6.189   6.010  0.2053 -0.3585 -0.3778
  156SAPE   H2X17347   1.075   6.126   5.929  1.1647 -0.5781 -0.7090
  156SAPE   H2Y17348   1.089   6.296   6.013  0.1296 -0.4022  0.7901
  156SAPE   C2317349   1.641   6.097   6.283  0.7147 -0.2899 -0.0692
  156SAPE   H3R17350   1.654   6.207   6.274 -2.6441  0.2519  0.5120
  156SAPE   H3S17351   1.741   6.047   6.279  0.5035 -0.7032 -0.3214
  156SAPE   C2417352   1.599   6.068   6.430  1.2064  0.1664  0.5582
  156SAPE   H4R17353   1.690   6.093   6.487  0.8083  1.8614  0.4989
  156SAPE   H4S17354   1.579   5.960   6.448 -0.5990  0.5188  0.8181
  156SAPE   C2517355   1.482   6.142   6.479  0.1903 -0.7836  0.1185
  156SAPE   H5R17356   1.389   6.126   6.424 -0.9899  1.3133  1.3646
  156SAPE   C2617357   1.484   6.207   6.597  0.3573  0.1231  0.5696
  156SAPE   H6R17358   1.402   6.279   6.614 -0.4844  0.3676 -3.4900
  156SAPE   C2717359   1.597   6.220   6.691  0.0058  0.3680 -0.5146
  156SAPE   H7R17360   1.593   6.314   6.751 -2.1762  0.8559 -1.3122
  156SAPE   H7S17361   1.691   6.248   6.639 -0.0342 -1.8956 -1.9402
  156SAPE   C2817362   1.631   6.092   6.775 -0.6839 -0.1151  0.4297
  156SAPE   H8R17363   1.665   6.007   6.714 -1.8395 -0.4086  0.1755
  156SAPE   C2917364   1.615   6.075   6.905  0.0028  0.4946 -0.3150
  156SAPE   H9R17365   1.652   5.991   6.967 -0.1495  1.8910  1.7801
  156SAPE  C21017366   1.560   6.178   6.997  0.6696  0.3589  0.5459
  156SAPE  H10R17367   1.507   6.120   7.075  0.2085 -2.1537 -1.5029
  156SAPE  H10S17368   1.481   6.234   6.942 -1.0823 -0.8414  1.7649
  156SAPE  C21117369   1.665   6.269   7.053  0.0613  0.0927 -0.5426
  156SAPE  H11R17370   1.678   6.363   6.997 -0.1402  0.7414  0.4759
  156SAPE  C21217371   1.719   6.263   7.175 -0.6444 -0.1380 -0.7047
  156SAPE  H12R17372   1.787   6.340   7.211  0.3906 -1.7765  1.0479
  156SAPE  C21317373   1.688   6.148   7.273 -0.1864  0.4587  0.3827
  156SAPE  H13R17374   1.704   6.048   7.228 -0.3398  0.4522  0.3418
  156SAPE  H13S17375   1.579   6.147   7.294 -0.3511 -2.6415 -0.1995
  156SAPE  C21417376   1.767   6.144   7.397 -0.0563  0.3447 -0.3682
  156SAPE  H14R17377   1.859   6.203   7.410 -1.5492  2.5193  0.9522
  156SAPE  C21517378   1.726   6.061   7.501 -0.4514  0.0126  0.1736
  156SAPE  H15R17379   1.779   6.060   7.598 -0.6830 -2.0295  0.3130
  156SAPE  C21617380   1.594   5.990   7.507  0.3830 -0.4528 -0.0683
  156SAPE  H16R17381   1.602   5.882   7.486 -2.2478 -0.8903  0.7210
  156SAPE  H16S17382   1.518   6.031   7.437  1.1643  0.3912 -0.4485
  156SAPE  C21717383   1.534   5.991   7.653 -0.1967  0.0583  0.0644
  156SAPE  H17R17384   1.515   6.092   7.695  0.1159 -0.6083  1.8997
  156SAPE  H17S17385   1.611   5.943   7.718  2.7932  2.9514 -1.0311
  156SAPE  C21817386   1.414   5.897   7.669  0.1479  0.2218  0.2682
  156SAPE  H18R17387   1.431   5.813   7.598  1.0710  2.9352 -2.9834
  156SAPE  H18S17388   1.326   5.949   7.626  0.4804 -0.8808 -1.8966
  156SAPE  C21917389   1.385   5.856   7.812  0.5264  0.8164  0.4189
  156SAPE  H19R17390   1.389   5.943   7.882 -1.0025 -0.2023  1.8243
  156SAPE  H19S17391   1.457   5.789   7.865 -1.1662 -1.1633  0.3073
  156SAPE  C22017392   1.250   5.796   7.834  0.3566  0.7100  0.1371
  156SAPE  H20R17393   1.232   5.690   7.805 -2.6077  1.2664 -0.3995
  156SAPE  H20S17394   1.170   5.858   7.789  0.0763 -1.5798 -2.8221
  156SAPE  H20T17395   1.215   5.799   7.939 -2.9463  1.4531 -0.8659
  156SAPE   C3317396   1.101   6.134   6.152 -0.2802  1.0095 -0.0543
  156SAPE   H3X17397   0.990   6.127   6.161 -0.4864  3.1340 -0.3470
  156SAPE   H3Y17398   1.145   6.196   6.234  0.3993  1.0010 -0.4069
  156SAPE   C3417399   1.143   5.984   6.166  0.0399  0.0817  0.5899
  156SAPE   H4X17400   1.250   5.964   6.142  0.0677  1.0922 -0.1508
  156SAPE   H4Y17401   1.092   5.916   6.094  0.7042  0.2097 -0.0092
  156SAPE   C3517402   1.131   5.942   6.312  0.1754  0.6501  0.5241
  156SAPE   H5X17403   1.024   5.937   6.339  0.1929 -2.5945  0.3672
  156SAPE   H5Y17404   1.176   6.018   6.379 -0.1715  0.4238  1.0151
  156SAPE   C3617405   1.202   5.803   6.335  0.2061 -0.2114 -0.6962
  156SAPE   H6X17406   1.311   5.803   6.313  0.3237 -1.9676 -0.2085
  156SAPE   H6Y17407   1.160   5.727   6.266 -2.2071  0.3413  0.0684
  156SAPE   C3717408   1.185   5.748   6.480  0.1272  0.2471 -0.5905
  156SAPE   H7X17409   1.214   5.641   6.470  0.2464  0.1856  0.3306
  156SAPE   H7Y17410   1.077   5.747   6.507 -0.1542 -0.1837 -1.7012
  156SAPE   C3817411   1.284   5.809   6.577  0.4266 -0.4752 -0.1134
  156SAPE   H8X17412   1.265   5.919   6.575  0.9542 -0.3479  1.0139
  156SAPE   H8Y17413   1.389   5.781   6.555  0.2596 -2.4367  1.3333
  156SAPE   C3917414   1.251   5.749   6.717  0.7263 -0.4812  0.2930
  156SAPE   H9X17415   1.238   5.639   6.710 -2.3339 -0.2580  1.0392
  156SAPE   H9Y17416   1.149   5.785   6.741  0.1580 -1.0007 -1.2319
  156SAPE  C31017417   1.356   5.785   6.823 -0.1655  1.2961  0.1017
  156SAPE  H10X17418   1.355   5.896   6.835  0.2240  1.2769  0.3489
  156SAPE  H10Y17419   1.448   5.745   6.777 -1.5235 -1.1115 -0.6768
  156SAPE  C31117420   1.330   5.705   6.956 -0.2434  0.0897  0.7024
  156SAPE  H11X17421   1.322   5.597   6.930  2.3974 -0.2149  0.9026
  156SAPE  H11Y17422   1.233   5.741   6.995 -0.8721 -0.8102  0.0235
  156SAPE  C31217423   1.456   5.718   7.047  0.5149 -0.4965  0.2170
  156SAPE  H12X17424   1.470   5.826   7.065  0.7502 -0.4966  0.0285
  156SAPE  H12Y17425   1.541   5.691   6.981  0.2457  1.5025 -1.0280
  156SAPE  C31317426   1.444   5.639   7.179  0.1641  0.0957  1.3414
  156SAPE  H13X17427   1.414   5.533   7.162  0.5313  0.0533  0.9474
  156SAPE  H13Y17428   1.358   5.690   7.227 -2.3354 -0.1246 -2.4791
  156SAPE  C31417429   1.575   5.652   7.258  0.3199 -0.1210  0.1645
  156SAPE  H14X17430   1.593   5.761   7.269  0.2781 -0.1674  0.7297
  156SAPE  H14Y17431   1.661   5.615   7.198 -0.1337  0.4955 -0.9039
  156SAPE  C31517432   1.577   5.597   7.396  0.2651  0.9032 -0.0859
  156SAPE  H15X17433   1.530   5.496   7.394  0.7857  0.6587 -0.1030
  156SAPE  H15Y17434   1.520   5.661   7.466 -0.7318 -1.9646  1.9089
  156SAPE  C31617435   1.709   5.598   7.461 -0.2024 -0.5801  0.9122
  156SAPE  H16X17436   1.733   5.700   7.498  2.3465 -0.6821 -0.2352
  156SAPE  H16Y17437   1.789   5.561   7.393 -0.4159 -0.2933  0.5007
  156SAPE  C31717438   1.724   5.524   7.594  0.1018  0.0641  0.6171
  156SAPE  H17X17439   1.821   5.546   7.643 -0.3375  0.7944  1.1858
  156SAPE  H17Y17440   1.714   5.419   7.559 -1.8977  0.8249 -1.3824
  156SAPE  C31817441   1.617   5.540   7.705  0.3863 -0.0611 -0.4753
  156SAPE  H18X17442   1.613   5.650   7.722  0.5502  0.0263 -1.0091
  156SAPE  H18Y17443   1.650   5.499   7.803 -1.5410  0.8228  0.6007
  156SAPE  H18Z17444   1.517   5.498   7.681 -0.7886  0.2459  3.1883
  157SAPE     N17445   5.304   1.139   5.384  0.3650 -0.1115 -0.2146
  157SAPE   HN117446   5.348   1.053   5.423 -0.5991 -0.1008  1.0003
  157SAPE   HN217447   5.201   1.126   5.386  0.0759  1.1900 -2.8644
  157SAPE   HN317448   5.336   1.162   5.288  1.2308 -1.0772 -0.1817
  157SAPE   C1217449   5.355   1.256   5.464  0.1343 -0.0193  0.1681
  157SAPE  H12A17450   5.270   1.324   5.486  0.5670 -0.4719  3.9957
  157SAPE  H12B17451   5.423   1.307   5.392 -1.6043  0.2526 -1.3369
  157SAPE   C1117452   5.431   1.223   5.591 -0.3920  0.9209  0.0399
  157SAPE  H11A17453   5.349   1.183   5.655 -0.4025  0.4041 -0.2933
  157SAPE  H11B17454   5.489   1.300   5.645  0.9169  0.4942 -0.6926
  157SAPE     P17455   5.552   0.991   5.660  0.0645  0.0548  0.2271
  157SAPE   O1317456   5.424   0.915   5.664 -0.6369  0.2404  0.0318
  157SAPE   O1417457   5.667   0.907   5.617  0.1702 -0.0010  0.1574
  157SAPE   O1217458   5.533   1.119   5.569 -0.3268  0.3986  0.2303
  157SAPE   O1117459   5.581   1.037   5.801  0.1589 -0.3417  0.1380
  157SAPE    C117460   5.688   1.127   5.831 -0.4342 -0.0175  0.6497
  157SAPE    HA17461   5.778   1.067   5.857 -0.8932 -1.7495 -1.4784
  157SAPE    HB17462   5.715   1.193   5.746  1.8419 -1.7680 -0.0719
  157SAPE    C217463   5.665   1.207   5.961  0.3772 -0.5126  0.1432
  157SAPE    HS17464   5.764   1.242   5.999  0.6165  1.0027 -1.7197
  157SAPE   O2117465   5.596   1.128   6.055 -0.2573 -0.4873  0.4792
  157SAPE   C2117466   5.658   1.038   6.125 -0.2267 -0.0095  0.0367
  157SAPE   O2217467   5.780   1.021   6.120 -1.2729  0.5216  0.2204
  157SAPE   C2217468   5.555   0.956   6.199  0.1557  0.2929 -0.1849
  157SAPE   H2R17469   5.498   1.011   6.277 -1.0668 -0.1260 -0.7579
  157SAPE   H2S17470   5.480   0.926   6.122 -3.1113  3.7052  1.3526
  157SAPE    C317471   5.589   1.333   5.938 -0.1151 -0.5594  0.2819
  157SAPE    HX17472   5.497   1.298   5.886 -0.4709  0.0209  0.5161
  157SAPE    HY17473   5.654   1.397   5.875 -1.0504  1.0233  0.8735
  157SAPE   O3117474   5.566   1.402   6.063  0.7428 -0.3033  0.3153
  157SAPE   C3117475   5.436   1.403   6.100 -0.2136 -0.3032 -0.1222
  157SAPE   O3217476   5.346   1.334   6.052 -0.2601 -0.2114 -0.0840
  157SAPE   C3217477   5.412   1.493   6.218  0.1003 -0.4362 -0.4016
  157SAPE   H2X17478   5.319   1.553   6.202  1.9726  3.0896  0.7607
  157SAPE   H2Y17479   5.493   1.568   6.225 -1.7635  1.6906 -0.2408
  157SAPE   C2317480   5.619   0.822   6.256 -0.5285 -0.0460 -0.3794
  157SAPE   H3R17481   5.669   0.780   6.166 -2.1325  1.5591 -2.1456
  157SAPE   H3S17482   5.541   0.753   6.296 -0.2846  1.4393  2.9812
  157SAPE   C2417483   5.724   0.844   6.354  0.0109  0.1441  0.1941
  157SAPE   H4R17484   5.804   0.904   6.307 -3.3315  3.9616 -1.1578
  157SAPE   H4S17485   5.752   0.739   6.380 -1.2634 -0.4776 -0.8290
  157SAPE   C2517486   5.687   0.897   6.486  0.2486 -0.3259 -0.4354
  157SAPE   H5R17487   5.701   1.006   6.490  0.6962 -0.3933 -0.0825
  157SAPE   C2617488   5.630   0.837   6.587  0.3073 -0.2233 -0.1731
  157SAPE   H6R17489   5.631   0.885   6.686  2.8966 -2.1132  0.8491
  157SAPE   C2717490   5.582   0.694   6.599  0.8547  0.5766  0.2543
  157SAPE   H7R17491   5.557   0.654   6.498 -0.2373 -0.0416  0.7551
  157SAPE   H7S17492   5.491   0.683   6.662  0.8760  0.5423  0.2790
  157SAPE   C2817493   5.671   0.591   6.662  0.3936 -0.2113 -0.3712
  157SAPE   H8R17494   5.705   0.512   6.594  2.7888  0.8801 -0.5471
  157SAPE   C2917495   5.714   0.599   6.789 -0.3282  0.3506  0.1283
  157SAPE   H9R17496   5.766   0.505   6.816 -1.9331  0.1968  3.2059
  157SAPE  C21017497   5.668   0.676   6.903  0.0334  0.0839 -0.4945
  157SAPE  H10R17498   5.640   0.615   6.992  1.0487  1.5528  0.8825
  157SAPE  H10S17499   5.581   0.743   6.884  0.5432  0.8029 -0.3177
  157SAPE  C21117500   5.768   0.771   6.945  0.2717  0.7080 -0.7273
  157SAPE  H11R17501   5.784   0.859   6.880  0.4785  0.5447 -0.8982
  157SAPE  C21217502   5.860   0.744   7.045 -0.8212  0.2839  1.0329
  157SAPE  H12R17503   5.927   0.825   7.077 -2.6418  0.8910  3.6292
  157SAPE  C21317504   5.858   0.625   7.132  0.5913  0.3321  0.2673
  157SAPE  H13R17505   5.964   0.589   7.132  0.4045 -0.5301  3.5603
  157SAPE  H13S17506   5.818   0.544   7.067  3.2116  2.0346 -3.9331
  157SAPE  C21417507   5.804   0.630   7.266  0.0850  0.3366 -0.0954
  157SAPE  H14R17508   5.694   0.632   7.270 -0.0011 -2.3758  1.3741
  157SAPE  C21517509   5.864   0.604   7.383  0.4370 -0.1118 -0.0408
  157SAPE  H15R17510   5.798   0.589   7.470  0.2018 -0.6912 -0.3162
  157SAPE  C21617511   6.008   0.582   7.414 -0.3459  0.1139  0.3410
  157SAPE  H16R17512   6.074   0.609   7.328 -2.8319  2.9572 -0.8362
  157SAPE  H16S17513   6.026   0.472   7.424 -0.8496 -0.4499 -3.5384
  157SAPE  C21717514   6.068   0.664   7.528  0.2530  0.3179 -0.1135
  157SAPE  H17R17515   5.988   0.686   7.602  0.6436  1.5033 -0.0303
  157SAPE  H17S17516   6.109   0.759   7.489  1.1609  0.8252  1.9812
  157SAPE  C21817517   6.174   0.588   7.607 -0.3208 -0.1279  0.5927
  157SAPE  H18R17518   6.142   0.486   7.635 -1.5723  0.8444  3.0174
  157SAPE  H18S17519   6.187   0.641   7.704  0.5384 -0.0856  0.4644
  157SAPE  C21917520   6.312   0.587   7.537 -0.1926 -0.0904 -0.1664
  157SAPE  H19R17521   6.345   0.692   7.523  0.6589 -0.4030 -0.5817
  157SAPE  H19S17522   6.303   0.541   7.436 -0.2092  0.7379 -0.5509
  157SAPE  C22017523   6.417   0.508   7.613  0.1455  0.7949 -0.2215
  157SAPE  H20R17524   6.495   0.447   7.563  1.3646  1.7124  0.5178
  157SAPE  H20S17525   6.362   0.430   7.670  3.2297 -1.1766  0.2815
  157SAPE  H20T17526   6.472   0.557   7.697 -0.0510  1.4139 -0.4462
  157SAPE   C3317527   5.406   1.410   6.351 -0.6270 -0.2724 -0.3594
  157SAPE   H3X17528   5.348   1.318   6.333 -1.8117  0.5154 -0.6964
  157SAPE   H3Y17529   5.352   1.459   6.435  1.0543 -1.3189  1.4207
  157SAPE   C3417530   5.544   1.384   6.404  0.0085 -0.4128 -0.2824
  157SAPE   H4X17531   5.592   1.483   6.421 -1.8518  0.3380  0.8322
  157SAPE   H4Y17532   5.605   1.334   6.326  1.3435  1.1778 -0.3165
  157SAPE   C3517533   5.548   1.298   6.525  0.0226  0.0044  0.2204
  157SAPE   H5X17534   5.499   1.201   6.505  0.5015 -0.1048 -0.4994
  157SAPE   H5Y17535   5.493   1.354   6.603  0.2663 -0.0265  0.4189
  157SAPE   C3617536   5.688   1.294   6.588  0.9406 -0.0244 -0.6647
  157SAPE   H6X17537   5.756   1.374   6.552  0.7126  0.5542  0.1479
  157SAPE   H6Y17538   5.729   1.194   6.562  1.3491  0.5539 -2.3672
  157SAPE   C3717539   5.675   1.314   6.737 -0.2929  0.0646 -0.1510
  157SAPE   H7X17540   5.630   1.415   6.750  0.7720  0.7239 -1.3505
  157SAPE   H7Y17541   5.776   1.313   6.784 -0.0606  0.3872 -0.6497
  157SAPE   C3817542   5.576   1.213   6.806 -0.0373 -0.4202 -0.2115
  157SAPE   H8X17543   5.599   1.119   6.751  1.7137  0.4870 -1.1247
  157SAPE   H8Y17544   5.470   1.239   6.786 -0.6210 -1.6493  1.0623
  157SAPE   C3917545   5.584   1.202   6.964  0.9542 -0.2493  0.0618
  157SAPE   H9X17546   5.481   1.184   7.000  0.0139  0.2214 -2.2323
  157SAPE   H9Y17547   5.616   1.294   7.018 -0.3208 -0.0968  0.5973
  157SAPE  C31017548   5.673   1.093   7.021  0.0434 -0.0754 -0.3902
  157SAPE  H10X17549   5.772   1.101   6.972 -0.5296  1.3247 -1.3799
  157SAPE  H10Y17550   5.637   0.992   6.992  0.7282  0.0847 -1.9378
  157SAPE  C31117551   5.685   1.123   7.171 -0.3335  0.2562 -0.0123
  157SAPE  H11X17552   5.582   1.107   7.210 -0.7473 -1.9424 -1.8498
  157SAPE  H11Y17553   5.723   1.228   7.179  1.4780 -0.3804  0.1730
  157SAPE  C31217554   5.790   1.034   7.248 -0.0511 -0.5845  0.1788
  157SAPE  H12X17555   5.879   1.032   7.182  0.0467  0.5928  0.2542
  157SAPE  H12Y17556   5.759   0.928   7.260 -1.1448 -0.4047 -0.8452
  157SAPE  C31317557   5.840   1.091   7.380  0.7061 -0.5061  0.6963
  157SAPE  H13X17558   5.756   1.085   7.453 -0.2968  0.0146 -0.3847
  157SAPE  H13Y17559   5.861   1.200   7.376  0.7560 -0.5560 -0.5885
  157SAPE  C31417560   5.957   1.008   7.441  0.3922  0.1086  0.3854
  157SAPE  H14X17561   6.035   1.017   7.363  1.4670 -0.5982  1.3601
  157SAPE  H14Y17562   5.935   0.900   7.428 -1.4030  0.5607 -0.6746
  157SAPE  C31517563   6.008   1.054   7.583 -0.9849  0.2128  0.2292
  157SAPE  H15X17564   6.054   1.155   7.572 -0.8393  0.4511  2.4798
  157SAPE  H15Y17565   6.093   0.986   7.605  1.7652  2.7650 -1.6028
  157SAPE  C31617566   5.898   1.057   7.690  0.2895  0.1147 -0.0772
  157SAPE  H16X17567   5.827   0.971   7.684  0.6763 -0.2733  0.7006
  157SAPE  H16Y17568   5.849   1.156   7.681  0.9637  0.2919 -2.3670
  157SAPE  C31717569   5.951   1.072   7.838  0.3586  0.1065  0.2584
  157SAPE  H17X17570   5.960   1.181   7.854 -1.3950  0.5785 -1.5833
  157SAPE  H17Y17571   6.055   1.034   7.831 -0.0209 -1.0879  0.8369
  157SAPE  C31817572   5.875   0.994   7.938  0.0279 -0.9938 -0.3894
  157SAPE  H18X17573   5.767   1.016   7.924  0.0312 -1.9177 -2.1749
  157SAPE  H18Y17574   5.899   1.024   8.042 -1.3449  1.6055 -0.7308
  157SAPE  H18Z17575   5.891   0.887   7.913  1.5247 -1.2368  1.3921
  158SAPE     N17576   0.797   6.303   5.644 -0.6812 -0.1760  0.8612
  158SAPE   HN117577   0.899   6.320   5.652 -0.5588 -1.2296  1.9340
  158SAPE   HN217578   0.743   6.390   5.662  1.1010  1.0717  0.3357
  158SAPE   HN317579   0.769   6.224   5.706  0.5071 -0.3059  1.2557
  158SAPE   C1217580   0.787   6.272   5.492 -0.1623  0.1565  0.0068
  158SAPE  H12A17581   0.890   6.272   5.450 -1.2807  2.0861 -3.1164
  158SAPE  H12B17582   0.738   6.359   5.443 -1.0378  1.5882  3.1786
  158SAPE   C1117583   0.710   6.134   5.480 -0.3761  0.1702  0.0080
  158SAPE  H11A17584   0.771   6.071   5.549 -0.0819  0.8726  0.4027
  158SAPE  H11B17585   0.710   6.095   5.376  0.6384  0.6140 -0.1693
  158SAPE     P17586   0.464   6.182   5.399  0.0595 -0.2273  0.3128
  158SAPE   O1317587   0.530   6.247   5.280 -0.6723  0.0032  0.2046
  158SAPE   O1417588   0.399   6.057   5.361  0.5391  0.0087 -0.1588
  158SAPE   O1217589   0.575   6.150   5.516  0.4455  0.4457  0.2924
  158SAPE   O1117590   0.354   6.262   5.471 -0.5486 -0.6453  0.0394
  158SAPE    C117591   0.305   6.238   5.604 -0.0383  0.3877  0.5788
  158SAPE    HA17592   0.198   6.268   5.599 -0.0618  0.1356 -0.9848
  158SAPE    HB17593   0.316   6.130   5.625  0.3403  0.0196 -1.2875
  158SAPE    C217594   0.373   6.334   5.708 -0.0434 -0.3871  0.7726
  158SAPE    HS17595   0.481   6.308   5.718 -0.5086 -3.1250 -0.4290
  158SAPE   O2117596   0.305   6.329   5.830  0.2915 -0.3935  0.2680
  158SAPE   C2117597   0.356   6.236   5.912 -0.1841 -0.0935  0.5031
  158SAPE   O2217598   0.448   6.165   5.885 -0.0889  0.3493 -0.5850
  158SAPE   C2217599   0.279   6.224   6.039  0.2027 -0.2455 -1.2816
  158SAPE   H2R17600   0.240   6.324   6.069 -2.2730 -1.2406 -0.8936
  158SAPE   H2S17601   0.192   6.158   6.020  0.0744 -0.8795  1.1979
  158SAPE    C317602   0.371   6.483   5.657 -0.5590 -0.5530 -0.2360
  158SAPE    HX17603   0.263   6.503   5.636 -0.2241  0.6928 -0.8595
  158SAPE    HY17604   0.426   6.513   5.565  0.6599  0.2467  0.7185
  158SAPE   O3117605   0.417   6.572   5.759  0.3529  0.0539 -0.5972
  158SAPE   C3117606   0.545   6.582   5.784  0.0491 -0.0207  0.3688
  158SAPE   O3217607   0.626   6.505   5.731 -0.0758  0.0019 -0.5486
  158SAPE   C3217608   0.563   6.681   5.898 -0.0918  0.5021 -0.0603
  158SAPE   H2X17609   0.494   6.767   5.882 -2.8431 -1.6832 -0.7447
  158SAPE   H2Y17610   0.666   6.722   5.898  0.5894 -1.1184  0.6599
  158SAPE   C2317611   0.351   6.155   6.157 -0.3142  0.2232  0.7784
  158SAPE   H3R17612   0.443   6.210   6.187  1.8566 -1.8316 -1.5468
  158SAPE   H3S17613   0.390   6.058   6.121 -4.0572 -1.0239 -0.3352
  158SAPE   C2417614   0.251   6.117   6.271 -0.1562  0.2574 -0.5850
  158SAPE   H4R17615   0.317   6.079   6.352 -1.4212 -0.2392  0.2389
  158SAPE   H4S17616   0.195   6.031   6.227  2.3061 -1.1592 -1.1305
  158SAPE   C2517617   0.169   6.234   6.326  0.2315  0.3452  0.0540
  158SAPE   H5R17618   0.071   6.256   6.281  1.3791  2.1310 -1.7424
  158SAPE   C2617619   0.218   6.315   6.423  0.1535  0.3282 -0.3027
  158SAPE   H6R17620   0.155   6.400   6.454 -0.5002 -0.1803 -0.2173
  158SAPE   C2717621   0.347   6.299   6.503  0.3440 -0.1598  0.0515
  158SAPE   H7R17622   0.436   6.264   6.446  0.1895  1.7017 -1.4002
  158SAPE   H7S17623   0.320   6.216   6.572 -2.7173  0.6859  0.0426
  158SAPE   C2817624   0.383   6.425   6.578 -0.1181 -0.2847 -0.5417
  158SAPE   H8R17625   0.416   6.494   6.500 -2.8012  0.0711 -1.4805
  158SAPE   C2917626   0.383   6.453   6.713 -0.4628  0.7168 -0.4651
  158SAPE   H9R17627   0.415   6.551   6.751  0.6037  0.0447  0.4391
  158SAPE  C21017628   0.339   6.362   6.828 -0.0077 -0.0825 -0.3167
  158SAPE  H10R17629   0.394   6.379   6.923 -1.3870 -0.9835  0.6853
  158SAPE  H10S17630   0.328   6.254   6.806  0.8697 -0.3550  0.5239
  158SAPE  C21117631   0.202   6.403   6.871 -0.0290  0.0496 -0.0642
  158SAPE  H11R17632   0.185   6.512   6.876  1.5065  0.2909  0.3354
  158SAPE  C21217633   0.092   6.335   6.892 -0.0061 -0.7515 -0.1444
  158SAPE  H12R17634   0.006   6.401   6.913  1.3133  0.9147  0.2368
  158SAPE  C21317635   0.074   6.194   6.890  0.0217  0.3055 -0.3169
  158SAPE  H13R17636   0.073   6.145   6.791  1.8914 -2.1428  0.7673
  158SAPE  H13S17637  -0.028   6.174   6.929  1.1675 -4.8990  0.7936
  158SAPE  C21417638   0.160   6.103   6.978 -0.3830 -0.0052  0.0235
  158SAPE  H14R17639   0.257   6.079   6.932  0.8972  3.8345  0.3530
  158SAPE  C21517640   0.157   6.082   7.112 -0.1447 -0.1647  0.3725
  158SAPE  H15R17641   0.226   6.007   7.153  0.9083 -0.2865 -1.5028
  158SAPE  C21617642   0.045   6.133   7.203 -0.0785 -0.4606  0.1829
  158SAPE  H16R17643   0.013   6.046   7.264  2.2302 -0.2375  1.8556
  158SAPE  H16S17644  -0.034   6.181   7.142  1.1104  0.5792 -0.6163
  158SAPE  C21717645   0.101   6.249   7.291 -0.3901 -0.4017 -0.3023
  158SAPE  H17R17646   0.014   6.296   7.342 -0.5345  0.6316 -1.4531
  158SAPE  H17S17647   0.150   6.326   7.228  2.2045 -0.5798  1.3515
  158SAPE  C21817648   0.205   6.214   7.402 -0.1114  0.1141  0.4207
  158SAPE  H18R17649   0.234   6.313   7.444 -1.0324  1.1093 -1.1724
  158SAPE  H18S17650   0.305   6.174   7.376  0.6602  2.2043 -0.0716
  158SAPE  C21917651   0.141   6.144   7.521  0.4526 -0.6608 -0.0221
  158SAPE  H19R17652   0.098   6.045   7.492 -0.2999  0.0120 -1.2906
  158SAPE  H19S17653   0.054   6.200   7.560  1.6986  0.9947  0.4901
  158SAPE  C22017654   0.248   6.112   7.627 -0.3307 -0.1091 -0.1554
  158SAPE  H20R17655   0.201   6.078   7.721  0.1733 -2.4850 -0.6924
  158SAPE  H20S17656   0.323   6.190   7.652  0.3324  0.2355 -2.8956
  158SAPE  H20T17657   0.314   6.027   7.599 -1.0364 -0.6303 -0.2718
  158SAPE   C3317658   0.512   6.611   6.033 -0.2958  0.3768  0.3891
  158SAPE   H3X17659   0.404   6.595   6.010 -0.4809  2.7381 -0.6595
  158SAPE   H3Y17660   0.516   6.681   6.119  1.4982  0.1333  0.5449
  158SAPE   C3417661   0.601   6.491   6.081  1.0043  0.1391  1.2267
  158SAPE   H4X17662   0.705   6.508   6.045  0.7764 -0.4203  0.2594
  158SAPE   H4Y17663   0.574   6.401   6.021 -0.8778  2.3539 -1.4951
  158SAPE   C3517664   0.597   6.460   6.228  0.4330  0.0410  0.1345
  158SAPE   H5X17665   0.501   6.407   6.249  1.6443 -3.0500 -1.6196
  158SAPE   H5Y17666   0.606   6.553   6.289  2.4943 -2.0534  3.2885
  158SAPE   C3617667   0.703   6.363   6.267 -0.7771  0.3711 -0.1067
  158SAPE   H6X17668   0.799   6.382   6.214 -0.5500 -2.4057 -0.8252
  158SAPE   H6Y17669   0.672   6.260   6.241  1.0658 -0.2837  0.1166
  158SAPE   C3717670   0.741   6.359   6.412 -1.0384  0.1840 -0.6405
  158SAPE   H7X17671   0.753   6.466   6.438 -0.5473 -0.2593  1.0385
  158SAPE   H7Y17672   0.656   6.323   6.473 -0.4139  0.4428  0.4015
  158SAPE   C3817673   0.867   6.281   6.436  0.2829  0.0091  0.7092
  158SAPE   H8X17674   0.950   6.329   6.380  0.2201  0.3234  0.8846
  158SAPE   H8Y17675   0.831   6.188   6.387 -1.8846  1.6387 -1.0232
  158SAPE   C3917676   0.928   6.277   6.578 -0.8421  0.4336  0.3551
  158SAPE   H9X17677   0.855   6.245   6.656  2.0433 -0.6732  2.8207
  158SAPE   H9Y17678   0.944   6.383   6.607 -1.7752  0.6509  0.1222
  158SAPE  C31017679   1.051   6.184   6.595  0.5766 -0.3368 -0.0384
  158SAPE  H10X17680   1.126   6.203   6.516 -1.4717 -0.4777 -2.1200
  158SAPE  H10Y17681   1.006   6.083   6.582 -0.5938 -0.0198  1.3005
  158SAPE  C31117682   1.115   6.190   6.739 -0.5695  0.6501  0.2507
  158SAPE  H11X17683   1.115   6.294   6.777 -1.7157  0.6278  0.3443
  158SAPE  H11Y17684   1.221   6.156   6.740 -0.2912  1.4945  1.1111
  158SAPE  C31217685   1.049   6.101   6.840 -0.2472  0.2380  0.7945
  158SAPE  H12X17686   1.033   6.003   6.792 -1.1884 -0.0822  1.7299
  158SAPE  H12Y17687   0.949   6.147   6.856 -0.9475 -0.4575 -1.2423
  158SAPE  C31317688   1.138   6.095   6.973 -0.3306  0.4434 -0.3772
  158SAPE  H13X17689   1.209   6.180   6.986  0.0409 -0.1226  1.6465
  158SAPE  H13Y17690   1.202   6.005   6.964 -0.7412 -0.1236  1.8007
  158SAPE  C31417691   1.042   6.091   7.094 -0.3071  0.2147 -0.1594
  158SAPE  H14X17692   0.962   6.019   7.069 -0.7131  1.0951 -1.4708
  158SAPE  H14Y17693   0.995   6.192   7.096 -1.2044 -0.1437 -1.6801
  158SAPE  C31517694   1.105   6.051   7.222  0.0457  0.3479 -0.7736
  158SAPE  H15X17695   1.186   6.123   7.245 -0.4216  0.5865  0.1689
  158SAPE  H15Y17696   1.155   5.952   7.222  2.8373  1.6732 -0.0056
  158SAPE  C31617697   1.003   6.058   7.347  0.2433 -0.7239 -0.4391
  158SAPE  H16X17698   0.931   5.974   7.339 -1.1343  0.3233  0.3456
  158SAPE  H16Y17699   0.942   6.151   7.339 -0.1841 -0.8833  0.6666
  158SAPE  C31717700   1.074   6.057   7.485  0.5223  0.6318  0.2862
  158SAPE  H17X17701   1.109   5.953   7.503 -0.4150  0.5430  1.7321
  158SAPE  H17Y17702   0.995   6.073   7.561  0.5351  1.9522  0.0475
  158SAPE  C31817703   1.175   6.165   7.510  0.2739  0.4679  0.0029
  158SAPE  H18X17704   1.263   6.157   7.443  0.0377 -2.1181 -0.1117
  158SAPE  H18Y17705   1.200   6.145   7.616  1.9768 -2.1424 -0.7812
  158SAPE  H18Z17706   1.136   6.268   7.501  1.5898  1.0317  0.6288
  159SAPE     N17707   0.941   1.990   5.802 -0.0695 -0.0945  0.4109
  159SAPE   HN117708   0.856   2.043   5.829  0.3064  0.7130  0.0329
  159SAPE   HN217709   0.918   1.890   5.819  1.8244 -0.5375  0.5378
  159SAPE   HN317710   1.012   2.009   5.876 -0.6085 -1.3965  1.3063
  159SAPE   C1217711   0.979   2.002   5.658  0.2754  0.7492  0.1858
  159SAPE  H12A17712   1.084   1.966   5.653 -0.3499 -1.0779 -0.3955
  159SAPE  H12B17713   0.986   2.105   5.614 -1.3908 -0.1902 -2.5304
  159SAPE   C1117714   0.882   1.917   5.574 -0.6710 -0.5288 -0.1292
  159SAPE  H11A17715   0.902   1.815   5.613  0.2618  0.3602  1.8820
  159SAPE  H11B17716   0.901   1.914   5.464 -1.9905  0.7721 -0.4297
  159SAPE     P17717   0.614   1.911   5.506  0.1150  0.3351  0.0889
  159SAPE   O1317718   0.512   2.018   5.509  0.8779  0.7331 -0.1742
  159SAPE   O1417719   0.666   1.876   5.372  0.3798 -0.6563 -0.1357
  159SAPE   O1217720   0.742   1.956   5.596 -0.4034 -0.3001  0.1778
  159SAPE   O1117721   0.561   1.778   5.571 -0.3823 -0.3281  1.0639
  159SAPE    C117722   0.627   1.719   5.685 -0.3748  0.1508 -0.7583
  159SAPE    HA17723   0.686   1.633   5.646 -0.7945 -0.0182 -1.0189
  159SAPE    HB17724   0.695   1.776   5.753 -0.7666  1.2296 -1.2515
  159SAPE    C217725   0.512   1.652   5.772 -0.4004  0.2106  0.6336
  159SAPE    HS17726   0.456   1.586   5.703  1.4229 -0.2982 -0.4428
  159SAPE   O2117727   0.450   1.752   5.844  0.3199  0.6861  0.1295
  159SAPE   C2117728   0.323   1.723   5.882  0.1475 -0.0839  0.7369
  159SAPE   O2217729   0.266   1.621   5.847  0.6969 -0.4893  0.4514
  159SAPE   C2217730   0.258   1.838   5.963 -0.1899 -0.4970  0.0148
  159SAPE   H2R17731   0.271   1.936   5.912 -0.8938 -0.3081  0.1826
  159SAPE   H2S17732   0.149   1.818   5.968 -0.4618  0.2959 -1.8024
  159SAPE    C317733   0.565   1.548   5.877  0.8113  0.3895  0.6539
  159SAPE    HX17734   0.635   1.481   5.823  0.7377  1.3943 -0.7380
  159SAPE    HY17735   0.477   1.491   5.914  2.1479 -1.1972  1.5206
  159SAPE   O3117736   0.633   1.611   5.993 -0.0509 -0.3617 -0.2957
  159SAPE   C3117737   0.722   1.525   6.057 -0.4082  0.2242 -1.0059
  159SAPE   O3217738   0.754   1.416   6.014  0.6410  0.1308  0.0393
  159SAPE   C3217739   0.779   1.589   6.182 -0.3457 -0.7009 -0.4916
  159SAPE   H2X17740   0.845   1.677   6.165  0.1854 -1.2903 -1.5895
  159SAPE   H2Y17741   0.850   1.513   6.222  2.3210  1.7972 -0.0698
  159SAPE   C2317742   0.316   1.855   6.105  0.2305 -0.5854  0.4460
  159SAPE   H3R17743   0.264   1.939   6.156 -0.1992  0.9303 -2.2888
  159SAPE   H3S17744   0.422   1.887   6.100 -0.2116  1.7296  3.2389
  159SAPE   C2417745   0.295   1.736   6.202 -0.4186 -0.3533 -0.6384
  159SAPE   H4R17746   0.335   1.772   6.299  0.0696 -1.4637 -0.4059
  159SAPE   H4S17747   0.361   1.654   6.166 -0.6954 -1.1505  0.6005
  159SAPE   C2517748   0.151   1.693   6.229 -1.1755 -0.1159  0.4784
  159SAPE   H5R17749   0.122   1.624   6.148  0.6712  2.6351 -2.7981
  159SAPE   C2617750   0.075   1.725   6.337  0.5297 -0.5098  0.5927
  159SAPE   H6R17751  -0.029   1.690   6.336  1.2956 -3.2029  2.8074
  159SAPE   C2717752   0.114   1.815   6.453 -0.8283  0.1890 -0.5190
  159SAPE   H7R17753   0.017   1.858   6.486  0.2564  2.2111  0.1849
  159SAPE   H7S17754   0.151   1.910   6.409 -1.0321  0.6977  0.3763
  159SAPE   C2817755   0.198   1.763   6.574 -0.2220  0.1721  0.3938
  159SAPE   H8R17756   0.303   1.743   6.548 -0.4720  0.0698 -0.5952
  159SAPE   C2917757   0.143   1.730   6.692 -0.0945  0.6208  0.0866
  159SAPE   H9R17758   0.209   1.684   6.767 -0.6872 -0.0927  0.1865
  159SAPE  C21017759   0.005   1.758   6.749 -0.1659 -0.3230  0.3964
  159SAPE  H10R17760  -0.049   1.666   6.780  0.4886 -1.2816 -1.1905
  159SAPE  H10S17761  -0.067   1.813   6.685  0.2239 -1.1700 -0.8089
  159SAPE  C21117762   0.038   1.839   6.871  0.0041 -0.4441 -0.3704
  159SAPE  H11R17763   0.057   1.945   6.848 -0.7804 -0.0074  0.8601
  159SAPE  C21217764   0.051   1.799   7.002 -0.1060  0.4137  0.1378
  159SAPE  H12R17765   0.081   1.869   7.081 -0.6425  2.4907 -1.3853
  159SAPE  C21317766   0.040   1.648   7.041 -0.4355 -0.2735 -0.3668
  159SAPE  H13R17767   0.051   1.584   6.951  2.0246 -2.7773  1.5204
  159SAPE  H13S17768  -0.060   1.637   7.088 -0.9689 -1.8345 -1.7692
  159SAPE  C21417769   0.149   1.607   7.141  0.1897 -0.0606  0.2405
  159SAPE  H14R17770   0.255   1.621   7.116  0.5741  2.3115  2.7237
  159SAPE  C21517771   0.130   1.534   7.255 -0.7166  0.8729  1.0982
  159SAPE  H15R17772   0.218   1.507   7.316  0.4952  0.0726 -0.8943
  159SAPE  C21617773   0.005   1.483   7.317 -0.0643 -0.0326  0.2119
  159SAPE  H16R17774  -0.065   1.454   7.235  3.3061 -3.8251 -1.6727
  159SAPE  H16S17775  -0.037   1.562   7.383 -0.9021  0.5575 -0.9943
  159SAPE  C21717776   0.020   1.351   7.397  0.0864 -0.3869 -0.0685
  159SAPE  H17R17777   0.081   1.363   7.489  1.4559  0.0809 -1.0135
  159SAPE  H17S17778   0.078   1.278   7.336  0.8170 -1.2513  1.6013
  159SAPE  C21817779  -0.121   1.295   7.438 -0.8182 -0.5276  0.7033
  159SAPE  H18R17780  -0.180   1.302   7.344 -1.6246  0.8965  1.2831
  159SAPE  H18S17781  -0.177   1.363   7.506 -0.5156 -0.4843  0.9125
  159SAPE  C21917782  -0.118   1.153   7.507  0.4240  0.4405  0.2346
  159SAPE  H19R17783  -0.078   1.165   7.610  1.6032 -1.4907  0.0449
  159SAPE  H19S17784  -0.054   1.082   7.451 -0.7528 -0.7885  0.3991
  159SAPE  C22017785  -0.259   1.087   7.514 -0.1835 -0.6929 -0.3852
  159SAPE  H20R17786  -0.297   1.065   7.412 -0.0179 -1.1611 -0.3501
  159SAPE  H20S17787  -0.330   1.156   7.564  0.1456  0.3914 -1.3780
  159SAPE  H20T17788  -0.262   0.986   7.561  1.4263 -0.6851 -0.1960
  159SAPE   C3317789   0.667   1.619   6.287 -0.6617  0.4083  0.0949
  159SAPE   H3X17790   0.594   1.690   6.245  0.3148  0.7629 -1.0655
  159SAPE   H3Y17791   0.730   1.681   6.355  0.5153  0.4016 -0.9455
  159SAPE   C3417792   0.592   1.501   6.352 -0.4732 -0.5420  0.0786
  159SAPE   H4X17793   0.544   1.440   6.271 -0.7580  2.0529 -1.8201
  159SAPE   H4Y17794   0.507   1.543   6.410 -0.1031  0.8538 -0.3709
  159SAPE   C3517795   0.683   1.416   6.442 -0.1142  0.2254 -0.5171
  159SAPE   H5X17796   0.751   1.353   6.381 -0.4057  1.0748 -1.7730
  159SAPE   H5Y17797   0.613   1.347   6.492  0.9106  0.2612  1.0278
  159SAPE   C3617798   0.760   1.502   6.547  0.5213 -0.4362 -0.8498
  159SAPE   H6X17799   0.820   1.578   6.493 -0.6841 -0.4853 -2.3414
  159SAPE   H6Y17800   0.823   1.443   6.617  0.6107  1.2437  0.5511
  159SAPE   C3717801   0.671   1.590   6.636 -0.5265 -0.5453 -0.0797
  159SAPE   H7X17802   0.601   1.650   6.573  0.0852 -1.0327 -1.2501
  159SAPE   H7Y17803   0.739   1.655   6.696 -1.1684 -0.7631  0.9110
  159SAPE   C3817804   0.587   1.507   6.736  0.1950 -0.6517 -0.1432
  159SAPE   H8X17805   0.670   1.455   6.788  0.1745  0.8448  1.4685
  159SAPE   H8Y17806   0.527   1.434   6.677  1.7536 -0.7194 -1.7217
  159SAPE   C3917807   0.507   1.598   6.837  0.5337  0.4916 -0.0955
  159SAPE   H9X17808   0.422   1.544   6.883  1.7976 -1.8813 -0.3633
  159SAPE   H9Y17809   0.458   1.679   6.778 -1.2573 -1.6665 -1.7680
  159SAPE  C31017810   0.590   1.665   6.947  0.4160  0.4069 -0.0026
  159SAPE  H10X17811   0.668   1.722   6.893  1.5806  1.0241  2.2143
  159SAPE  H10Y17812   0.634   1.582   7.006 -0.3790  1.6318  2.4605
  159SAPE  C31117813   0.510   1.755   7.043  0.3578  0.5093  0.2074
  159SAPE  H11X17814   0.439   1.690   7.099  0.3256 -1.3804 -1.8884
  159SAPE  H11Y17815   0.447   1.831   6.992 -0.2804 -0.3429 -0.3037
  159SAPE  C31217816   0.592   1.817   7.151  0.1821  0.4966  0.0499
  159SAPE  H12X17817   0.649   1.902   7.109 -1.8654  1.2846 -1.2976
  159SAPE  H12Y17818   0.664   1.738   7.182 -0.5232 -0.7708 -1.4127
  159SAPE  C31317819   0.521   1.862   7.280 -0.2108 -0.0639 -0.2536
  159SAPE  H13X17820   0.453   1.946   7.254  1.6989  1.6171 -0.0549
  159SAPE  H13Y17821   0.598   1.890   7.354 -3.0173  1.1807  2.4187
  159SAPE  C31417822   0.433   1.755   7.349 -0.0751 -0.0845 -0.1272
  159SAPE  H14X17823   0.511   1.677   7.359  3.1559  2.8960 -0.1437
  159SAPE  H14Y17824   0.352   1.717   7.282  1.7336  1.9421 -3.7767
  159SAPE  C31517825   0.372   1.795   7.485  0.0976  0.3221  0.1599
  159SAPE  H15X17826   0.288   1.867   7.471 -0.5850 -0.4486  0.2590
  159SAPE  H15Y17827   0.454   1.847   7.538 -0.1392  1.1590 -0.2702
  159SAPE  C31617828   0.312   1.682   7.569 -0.4421  0.3529  0.5671
  159SAPE  H16X17829   0.383   1.598   7.588  1.1666  1.1088 -1.6791
  159SAPE  H16Y17830   0.230   1.639   7.507  0.8115  0.7354 -1.4700
  159SAPE  C31717831   0.263   1.722   7.704  0.2301 -0.3510 -0.3161
  159SAPE  H17X17832   0.193   1.644   7.739 -0.3661 -0.1948 -1.1203
  159SAPE  H17Y17833   0.190   1.805   7.696  1.5822  1.0907  1.4225
  159SAPE  C31817834   0.378   1.741   7.800 -0.8220  0.2589  0.1198
  159SAPE  H18X17835   0.457   1.797   7.744  1.0562  0.2566  2.5959
  159SAPE  H18Y17836   0.415   1.641   7.830 -2.7772 -1.1505 -1.8771
  159SAPE  H18Z17837   0.354   1.800   7.891 -1.5167 -0.5719  0.4873
  160SAPE     N17838   1.539   0.220   5.556  0.4054  0.2853 -0.3520
  160SAPE   HN117839   1.625   0.261   5.600 -1.2736  1.5262  1.9854
  160SAPE   HN217840   1.559   0.117   5.557 -2.2662 -0.3044  0.1849
  160SAPE   HN317841   1.539   0.242   5.455  0.1578 -2.2031 -0.9749
  160SAPE   C1217842   1.412   0.258   5.624  0.4632 -0.2073 -0.0681
  160SAPE  H12A17843   1.417   0.369   5.630 -2.2549  0.0467 -0.9127
  160SAPE  H12B17844   1.397   0.210   5.723 -1.5827 -0.0148 -0.2357
  160SAPE   C1117845   1.285   0.217   5.537 -0.5483 -0.0442  0.4176
  160SAPE  H11A17846   1.312   0.266   5.441  1.5678 -0.2118  0.8690
  160SAPE  H11B17847   1.197   0.273   5.573  0.2854  0.4636  1.7504
  160SAPE     P17848   1.145  -0.003   5.544 -0.0771 -0.1132  0.0295
  160SAPE   O1317849   1.062   0.025   5.423 -0.4016  0.3125 -0.1981
  160SAPE   O1417850   1.172  -0.143   5.579  0.5638  0.3861  0.1818
  160SAPE   O1217851   1.282   0.075   5.513  0.0634 -0.3736  0.1121
  160SAPE   O1117852   1.089   0.069   5.683 -0.0338  0.9630 -0.1451
  160SAPE    C117853   1.167   0.055   5.802 -0.1753 -0.0479  1.4141
  160SAPE    HA17854   1.264   0.007   5.776 -0.6468 -0.3352  0.1277
  160SAPE    HB17855   1.192   0.155   5.845 -1.2568  0.7526  0.2658
  160SAPE    C217856   1.093  -0.032   5.901  0.1287  0.0529 -0.5687
  160SAPE    HS17857   1.050  -0.116   5.842  0.8243 -0.6518 -0.0924
  160SAPE   O2117858   0.996   0.059   5.961  0.5472  0.1252 -0.3880
  160SAPE   C2117859   0.907  -0.010   6.030  0.2855 -0.0214 -0.2113
  160SAPE   O2217860   0.884  -0.131   6.024 -0.0448  1.0995 -0.2605
  160SAPE   C2217861   0.828   0.083   6.123 -0.5794  0.0311  0.5550
  160SAPE   H2R17862   0.861   0.186   6.102  0.3636 -0.2385  0.6731
  160SAPE   H2S17863   0.725   0.070   6.083 -0.5910  2.0683 -0.1821
  160SAPE    C317864   1.184  -0.096   6.007  0.6491 -0.2924  0.9620
  160SAPE    HX17865   1.223  -0.181   5.947 -1.8131  0.3191 -1.7770
  160SAPE    HY17866   1.126  -0.139   6.091 -0.6463  2.5928  1.6404
  160SAPE   O3117867   1.291  -0.010   6.042 -0.1350 -0.1284 -0.5496
  160SAPE   C3117868   1.269   0.075   6.141 -0.5658  0.7611 -0.0808
  160SAPE   O3217869   1.161   0.076   6.194 -0.8381 -0.4611 -0.2823
  160SAPE   C3217870   1.393   0.163   6.171 -0.3964 -0.4236 -0.4595
  160SAPE   H2X17871   1.398   0.224   6.079 -0.6208 -2.4090 -1.8533
  160SAPE   H2Y17872   1.477   0.092   6.188 -0.8124 -1.1085 -1.1704
  160SAPE   C2317873   0.833   0.043   6.272  1.0388  0.2386 -1.0573
  160SAPE   H3R17874   0.925   0.091   6.312 -0.2883 -0.5623  3.6634
  160SAPE   H3S17875   0.829  -0.066   6.293  0.1005  0.2292 -1.2457
  160SAPE   C2417876   0.719   0.106   6.345 -0.9294  0.3546 -0.1478
  160SAPE   H4R17877   0.754   0.101   6.450  1.3338 -1.2168 -0.8969
  160SAPE   H4S17878   0.631   0.038   6.348 -0.4327 -0.4894 -2.4719
  160SAPE   C2517879   0.682   0.252   6.309 -0.4538  0.1302  0.2910
  160SAPE   H5R17880   0.600   0.268   6.238 -0.3332 -0.7692 -0.0619
  160SAPE   C2617881   0.730   0.359   6.371 -0.8407  0.5897 -0.1793
  160SAPE   H6R17882   0.702   0.463   6.348  0.1948  0.7030 -0.9796
  160SAPE   C2717883   0.829   0.344   6.486 -0.3496  0.1262  0.2077
  160SAPE   H7R17884   0.929   0.307   6.454  0.4169  1.0066  1.4871
  160SAPE   H7S17885   0.792   0.273   6.563 -1.1489 -3.4639 -3.1842
  160SAPE   C2817886   0.866   0.480   6.552  0.2319  0.3691  0.2443
  160SAPE   H8R17887   0.829   0.570   6.500 -2.0670  0.5587  2.0506
  160SAPE   C2917888   0.951   0.492   6.658  0.2597 -0.1122  0.1061
  160SAPE   H9R17889   0.978   0.593   6.693  1.3156 -0.1250 -0.6268
  160SAPE  C21017890   1.017   0.388   6.739  0.4012  0.3532  0.7895
  160SAPE  H10R17891   0.954   0.297   6.734 -0.4448  0.8898  1.3302
  160SAPE  H10S17892   1.022   0.427   6.843  1.2543  0.1363  0.8373
  160SAPE  C21117893   1.149   0.342   6.691 -0.6292 -0.4421 -0.5271
  160SAPE  H11R17894   1.158   0.319   6.583 -1.8798 -0.3326 -0.6727
  160SAPE  C21217895   1.259   0.317   6.770 -0.6720 -0.4973  0.2707
  160SAPE  H12R17896   1.349   0.265   6.736 -0.4569  0.5334 -0.8265
  160SAPE  C21317897   1.249   0.323   6.924 -0.2240 -0.1814  1.1568
  160SAPE  H13R17898   1.224   0.424   6.961  0.3108  0.7170 -0.7857
  160SAPE  H13S17899   1.355   0.311   6.953  0.3526 -1.3678 -1.1859
  160SAPE  C21417900   1.173   0.225   7.003 -0.1924 -0.5553  0.6353
  160SAPE  H14R17901   1.111   0.154   6.946  1.0398 -1.6628  0.6187
  160SAPE  C21517902   1.175   0.211   7.138  0.5598 -0.2783  0.0965
  160SAPE  H15R17903   1.112   0.131   7.179 -0.6133  0.9822  0.8365
  160SAPE  C21617904   1.252   0.301   7.231 -0.1297  0.5023 -0.0652
  160SAPE  H16R17905   1.329   0.361   7.180  0.5661  1.1288  1.6649
  160SAPE  H16S17906   1.303   0.232   7.302  1.3764  1.1697 -0.4735
  160SAPE  C21717907   1.161   0.415   7.291 -0.9479 -0.0018  0.2822
  160SAPE  H17R17908   1.076   0.378   7.353 -0.9156 -0.6616 -0.0576
  160SAPE  H17S17909   1.120   0.476   7.208 -0.8030  3.1067  2.3202
  160SAPE  C21817910   1.257   0.504   7.373 -0.1468  0.6886  0.4306
  160SAPE  H18R17911   1.334   0.544   7.303  0.1409  1.4725  1.1793
  160SAPE  H18S17912   1.309   0.437   7.444 -1.4638 -1.5633 -0.6390
  160SAPE  C21917913   1.190   0.628   7.426  0.1282 -0.7582 -0.2808
  160SAPE  H19R17914   1.102   0.604   7.489  1.6191  0.6937  2.5618
  160SAPE  H19S17915   1.144   0.673   7.335  2.5187 -1.7824 -2.1064
  160SAPE  C22017916   1.280   0.734   7.492 -0.2739 -0.5491  0.4237
  160SAPE  H20R17917   1.332   0.679   7.573 -1.0700 -2.2809 -0.1981
  160SAPE  H20S17918   1.211   0.813   7.528 -1.6894 -1.7646  0.4909
  160SAPE  H20T17919   1.343   0.778   7.411 -1.1772  0.0104  0.0055
  160SAPE   C3317920   1.360   0.243   6.296  0.1093  0.6086  0.5162
  160SAPE   H3X17921   1.339   0.173   6.380 -1.4940  0.6065  0.1387
  160SAPE   H3Y17922   1.269   0.305   6.281  1.5868  2.9321  0.6590
  160SAPE   C3417923   1.480   0.335   6.328  0.0152 -0.7713  0.2795
  160SAPE   H4X17924   1.495   0.400   6.239  0.9473 -0.2484  0.8022
  160SAPE   H4Y17925   1.575   0.280   6.345  0.8509  1.0003  1.5936
  160SAPE   C3517926   1.460   0.427   6.446 -0.2762 -0.2369  0.2529
  160SAPE   H5X17927   1.463   0.366   6.539  0.0982 -0.9770 -0.2400
  160SAPE   H5Y17928   1.365   0.484   6.434  0.9322  1.7465 -0.3480
  160SAPE   C3617929   1.565   0.535   6.446 -0.0448  0.2666 -0.5484
  160SAPE   H6X17930   1.536   0.622   6.385  1.2532 -0.7648 -2.7375
  160SAPE   H6Y17931   1.652   0.489   6.395  0.2916 -0.8107  0.9265
  160SAPE   C3717932   1.622   0.565   6.586  0.3274 -0.0595  0.3978
  160SAPE   H7X17933   1.717   0.619   6.565 -0.0775 -0.5312 -3.3174
  160SAPE   H7Y17934   1.651   0.465   6.624 -0.5578 -0.0774  1.0519
  160SAPE   C3817935   1.536   0.629   6.702 -0.2181 -0.1056 -0.0991
  160SAPE   H8X17936   1.606   0.661   6.782 -0.1942  0.5758 -0.3867
  160SAPE   H8Y17937   1.474   0.544   6.738  3.2168 -2.4698  0.8291
  160SAPE   C3917938   1.467   0.758   6.660  0.8281 -0.5013  0.0856
  160SAPE   H9X17939   1.407   0.760   6.566  1.6205  0.3628 -0.4093
  160SAPE   H9Y17940   1.552   0.825   6.635  1.5995 -1.0273  1.2135
  160SAPE  C31017941   1.387   0.812   6.773  0.6442 -0.4515  0.0035
  160SAPE  H10X17942   1.342   0.908   6.741  0.3073 -0.1712  1.2560
  160SAPE  H10Y17943   1.451   0.840   6.859  0.5994  1.6800 -0.5998
  160SAPE  C31117944   1.270   0.718   6.825 -0.2497 -0.3248 -0.5747
  160SAPE  H11X17945   1.319   0.631   6.872  2.6768  0.9960 -0.9530
  160SAPE  H11Y17946   1.212   0.688   6.735 -0.8120  1.5026 -0.8772
  160SAPE  C31217947   1.178   0.793   6.911  0.1614 -0.6547 -0.3653
  160SAPE  H12X17948   1.111   0.856   6.850 -0.1605 -0.5540  0.0896
  160SAPE  H12Y17949   1.239   0.851   6.983  2.1923 -2.0527 -0.8640
  160SAPE  C31317950   1.087   0.693   6.992  0.5874  0.5291 -0.3605
  160SAPE  H13X17951   1.159   0.641   7.060  2.9956  1.0071 -2.3905
  160SAPE  H13Y17952   1.053   0.608   6.930  1.2000  0.0733 -0.0862
  160SAPE  C31417953   0.960   0.757   7.054 -0.5294 -0.2473 -0.5750
  160SAPE  H14X17954   0.886   0.784   6.976 -0.3444 -0.7462 -0.9284
  160SAPE  H14Y17955   0.991   0.850   7.105  0.6561 -1.2571  0.6274
  160SAPE  C31517956   0.899   0.656   7.152  0.4973 -0.0356  1.1403
  160SAPE  H15X17957   0.965   0.654   7.242  3.4485 -0.8377 -0.9052
  160SAPE  H15Y17958   0.915   0.559   7.100  1.0312  0.9838 -0.6554
  160SAPE  C31617959   0.753   0.681   7.184  0.1309  0.2417 -0.8520
  160SAPE  H16X17960   0.708   0.584   7.211 -0.7394  0.4971 -1.3468
  160SAPE  H16Y17961   0.698   0.737   7.105 -0.6155 -0.3941 -0.7866
  160SAPE  C31717962   0.736   0.776   7.305  0.4586  0.1209 -0.5594
  160SAPE  H17X17963   0.809   0.859   7.302  3.8572 -2.6569 -0.7509
  160SAPE  H17Y17964   0.762   0.721   7.398  1.3958 -2.1956 -2.1012
  160SAPE  C31817965   0.596   0.828   7.326 -0.8081  0.6189  0.2256
  160SAPE  H18X17966   0.563   0.869   7.228  1.5693  3.0633  0.3481
  160SAPE  H18Y17967   0.610   0.910   7.399  1.4242  1.7386 -1.3291
  160SAPE  H18Z17968   0.521   0.756   7.364 -1.4035  1.1852  0.1325
  161SOPE     N17969   3.031   2.635   9.859  0.3706  0.1351 -0.1435
  161SOPE   HN117970   3.112   2.584   9.816 -2.1234 -3.3019 -1.1686
  161SOPE   HN217971   3.058   2.649   9.958  0.1930 -1.6714  0.1925
  161SOPE   HN317972   2.953   2.567   9.860  0.2966  0.0370 -3.2628
  161SOPE   C1217973   2.993   2.757   9.785 -0.4184 -0.1584  0.2059
  161SOPE  H12A17974   2.976   2.844   9.852  0.6951  0.1326  0.1351
  161SOPE  H12B17975   2.905   2.738   9.720  0.9527 -2.0970 -1.2119
  161SOPE   C1117976   3.115   2.803   9.707  0.6023  0.0731  0.0334
  161SOPE  H11A17977   3.081   2.883   9.639 -1.5410 -0.6172  0.2071
  161SOPE  H11B17978   3.133   2.715   9.641 -0.8816  0.5464 -1.0502
  161SOPE     P17979   3.355   2.910   9.717 -0.2864 -0.2969 -0.1826
  161SOPE   O1317980   3.468   2.893   9.806  0.3784 -0.0072  0.0729
  161SOPE   O1417981   3.318   3.043   9.686 -0.0007 -0.5143  0.1256
  161SOPE   O1217982   3.227   2.835   9.782 -0.0996 -0.0617  0.1605
  161SOPE   O1117983   3.388   2.843   9.585  0.2994  0.0451  0.4399
  161SOPE    C117984   3.424   2.711   9.557  0.0395 -0.0001 -0.1325
  161SOPE    HA17985   3.357   2.638   9.608  1.8087 -2.1998 -0.7806
  161SOPE    HB17986   3.534   2.709   9.577  0.1037  0.0951 -0.4670
  161SOPE    C217987   3.410   2.677   9.414  0.1566 -0.3524 -0.2683
  161SOPE    HS17988   3.391   2.569   9.399 -2.6741  0.0348  0.0153
  161SOPE   O2117989   3.521   2.726   9.339 -0.3375 -0.3907 -0.0455
  161SOPE   C2117990   3.617   2.634   9.316  0.5904  0.0436  0.1840
  161SOPE   O2217991   3.606   2.519   9.353 -0.3452 -0.4736 -0.3133
  161SOPE   C2217992   3.717   2.683   9.213  0.2248  0.2456  0.3218
  161SOPE   H2R17993   3.808   2.724   9.262 -0.6496  1.4231  1.0077
  161SOPE   H2S17994   3.683   2.775   9.161  1.9463 -0.1356 -1.6269
  161SOPE    C317995   3.287   2.748   9.356  0.4653  0.1604  0.8124
  161SOPE    HX17996   3.297   2.858   9.366  1.7429  0.1583 -0.1863
  161SOPE    HY17997   3.201   2.726   9.422  0.7232  0.6558  1.3230
  161SOPE   O3117998   3.254   2.714   9.221  0.7266  0.3445  0.2761
  161SOPE   C3117999   3.295   2.794   9.121 -0.5159  0.8437  0.4342
  161SOPE   O3218000   3.351   2.903   9.133  0.6360 -0.7314 -0.2731
  161SOPE   C3218001   3.275   2.722   8.985 -0.2023 -1.0277  0.7851
  161SOPE   H2X18002   3.202   2.639   8.998 -0.3032 -0.9618  0.6503
  161SOPE   H2Y18003   3.372   2.673   8.959 -1.1799 -2.0158 -1.3041
  161SOPE   C2318004   3.752   2.565   9.121  0.7173 -0.4441  0.0941
  161SOPE   H3R18005   3.788   2.483   9.187  1.2008  0.8436  1.4838
  161SOPE   H3S18006   3.831   2.605   9.054 -2.3000  1.2951 -2.7670
  161SOPE   C2418007   3.632   2.519   9.036  0.2550  1.0559 -0.7713
  161SOPE   H4R18008   3.564   2.453   9.095  1.0256  2.8090  2.3016
  161SOPE   H4S18009   3.566   2.603   9.004  1.3705  1.8077 -1.1356
  161SOPE   C2518010   3.678   2.441   8.913 -0.5608  0.0228  0.3312
  161SOPE   H5R18011   3.725   2.507   8.837  0.8655 -0.3390  0.8802
  161SOPE   H5S18012   3.756   2.367   8.941  0.5886  0.6943 -0.9830
  161SOPE   C2618013   3.562   2.370   8.837 -0.2855  0.3115 -0.4637
  161SOPE   H6R18014   3.516   2.295   8.905 -0.5395  0.2561 -0.6944
  161SOPE   H6S18015   3.482   2.442   8.809 -1.0685 -0.8751 -1.4224
  161SOPE   C2718016   3.614   2.295   8.715  0.1396  0.3550  0.5102
  161SOPE   H7R18017   3.683   2.357   8.653 -1.5017 -0.1178 -1.9506
  161SOPE   H7S18018   3.658   2.199   8.747 -3.3626 -2.4198 -2.1776
  161SOPE   C2818019   3.502   2.258   8.613 -0.3202 -0.3677  0.2307
  161SOPE   H8R18020   3.426   2.195   8.664  0.6127 -2.3127 -0.6939
  161SOPE   H8S18021   3.450   2.350   8.579  2.5892  1.4434  0.3566
  161SOPE   C2918022   3.559   2.156   8.519  0.1962 -0.1720  0.2423
  161SOPE   H9118023   3.567   2.050   8.550  0.5421  0.2896  1.8109
  161SOPE  C21018024   3.609   2.186   8.398  0.5657 -0.5754 -0.1366
  161SOPE  H10118025   3.640   2.101   8.336  3.2933  0.5678 -0.4751
  161SOPE  C21118026   3.612   2.323   8.325 -0.8155 -0.4488 -0.7773
  161SOPE  H11R18027   3.721   2.348   8.326 -1.2513  1.6354 -1.0724
  161SOPE  H11S18028   3.557   2.406   8.373 -1.7492 -0.9449 -0.9614
  161SOPE  C21218029   3.579   2.300   8.178 -0.3397  0.2961  0.5192
  161SOPE  H12R18030   3.489   2.236   8.164  0.9014 -1.7138  1.3133
  161SOPE  H12S18031   3.657   2.229   8.146 -0.8013  0.6262 -1.4364
  161SOPE  C21318032   3.579   2.430   8.093  0.0969  0.2666  0.7704
  161SOPE  H13R18033   3.679   2.477   8.100 -0.3199  1.1565  0.9276
  161SOPE  H13S18034   3.507   2.498   8.144 -0.7533 -0.4513  0.5684
  161SOPE  C21418035   3.531   2.410   7.950  0.3488 -0.4682  0.0060
  161SOPE  H14R18036   3.513   2.513   7.911  0.3412 -0.7388 -0.7175
  161SOPE  H14S18037   3.437   2.352   7.962 -0.1885  0.1057 -1.2011
  161SOPE  C21518038   3.633   2.345   7.850 -0.8336 -0.0740  0.2744
  161SOPE  H15R18039   3.701   2.423   7.809  1.7301 -1.2082  2.0883
  161SOPE  H15S18040   3.575   2.300   7.767  1.2979 -2.3054 -0.1053
  161SOPE  C21618041   3.727   2.238   7.902 -0.1325 -0.0153 -0.3306
  161SOPE  H16R18042   3.676   2.160   7.962  1.6993  0.3254  1.7959
  161SOPE  H16S18043   3.802   2.294   7.962 -0.3629 -0.1657  0.1043
  161SOPE  C21718044   3.798   2.161   7.787  0.2580 -0.7421 -0.1697
  161SOPE  H17R18045   3.870   2.212   7.720  1.0314 -0.2465  1.0046
  161SOPE  H17S18046   3.714   2.120   7.726  0.7177 -0.8187 -0.7544
  161SOPE  C21818047   3.875   2.044   7.841 -0.5744 -0.3132  0.0328
  161SOPE  H18R18048   3.820   1.979   7.912 -0.5031 -1.6203 -1.0631
  161SOPE  H18S18049   3.968   2.085   7.886  0.7852 -0.3978 -2.5109
  161SOPE  H18T18050   3.909   1.974   7.761 -0.7630 -1.9267  1.3212
  161SOPE   C3318051   3.236   2.815   8.868 -0.3389  0.9238 -0.5925
  161SOPE   H3X18052   3.149   2.883   8.882  0.2164  1.3162  1.1880
  161SOPE   H3Y18053   3.206   2.747   8.785 -1.1109  0.6504 -0.1049
  161SOPE   C3418054   3.344   2.914   8.813 -0.3911  0.3144  0.0223
  161SOPE   H4X18055   3.346   2.989   8.895  1.7355 -1.3915  1.6488
  161SOPE   H4Y18056   3.302   2.966   8.724  0.4386  1.2182  0.1448
  161SOPE   C3518057   3.494   2.868   8.795 -0.4071  0.3745  0.0633
  161SOPE   H5X18058   3.543   2.837   8.890  0.2753  1.9773  0.2581
  161SOPE   H5Y18059   3.555   2.953   8.758 -0.5552  0.2266 -0.5273
  161SOPE   C3618060   3.505   2.764   8.678  0.1314 -0.2023 -0.9362
  161SOPE   H6X18061   3.459   2.807   8.586  2.9439  0.3712 -2.1743
  161SOPE   H6Y18062   3.464   2.663   8.700  1.3955 -0.1220  2.3454
  161SOPE   C3718063   3.648   2.739   8.630 -0.1323  0.1950  0.2123
  161SOPE   H7X18064   3.713   2.703   8.713 -1.0471 -1.6869  0.1645
  161SOPE   H7Y18065   3.686   2.840   8.606 -0.7329  0.3819  0.0277
  161SOPE   C3818066   3.667   2.652   8.502  0.4547  1.0384  0.7953
  161SOPE   H8X18067   3.603   2.682   8.417  0.2676 -0.8610  0.2068
  161SOPE   H8Y18068   3.615   2.556   8.521 -0.1929  1.2841  0.2917
  161SOPE   C3918069   3.814   2.611   8.476 -0.3587  0.2051 -0.3476
  161SOPE   H9X18070   3.807   2.512   8.425 -0.1553  0.1463 -0.2658
  161SOPE   H9Y18071   3.863   2.584   8.573 -1.1219 -0.2302 -0.0757
  161SOPE  C31018072   3.905   2.706   8.397 -0.1775 -0.7675  0.1341
  161SOPE  H10X18073   4.007   2.663   8.390  0.8736  1.3781  1.4128
  161SOPE  H10Y18074   3.912   2.802   8.452  2.6062  0.1550 -1.6326
  161SOPE  C31118075   3.854   2.722   8.250  0.9673 -0.1660 -0.2194
  161SOPE  H11X18076   3.774   2.797   8.258  1.2364  0.0870  0.1278
  161SOPE  H11Y18077   3.820   2.627   8.203  0.1088  0.1410 -0.2256
  161SOPE  C31218078   3.950   2.798   8.161 -0.5571 -0.2133  1.2651
  161SOPE  H12X18079   4.048   2.746   8.154 -0.8575 -0.8726  1.7793
  161SOPE  H12Y18080   3.967   2.896   8.211  1.9769  0.6921 -1.1278
  161SOPE  C31318081   3.890   2.827   8.018  0.0446  0.5240  0.1921
  161SOPE  H13X18082   3.798   2.888   8.028 -1.4884 -1.5824 -0.4257
  161SOPE  H13Y18083   3.868   2.728   7.971 -0.8321  0.1840  1.2856
  161SOPE  C31418084   3.998   2.900   7.932 -0.2970  0.4173  0.1186
  161SOPE  H14X18085   4.081   2.830   7.909  0.9219  0.9059  2.6939
  161SOPE  H14Y18086   4.041   2.981   7.994  0.1067 -0.4155  0.9360
  161SOPE  C31518087   3.934   2.954   7.800  0.2058 -0.4066 -0.0131
  161SOPE  H15X18088   4.008   3.006   7.736 -1.2837  1.7016 -0.1105
  161SOPE  H15Y18089   3.852   3.024   7.828  1.5581  1.5473 -0.7090
  161SOPE  C31618090   3.871   2.842   7.715  0.9895  0.2027  0.3870
  161SOPE  H16X18091   3.772   2.810   7.757  0.4268 -4.0819 -3.3564
  161SOPE  H16Y18092   3.934   2.755   7.746  1.0934 -0.0345 -0.4742
  161SOPE  C31718093   3.884   2.863   7.567  0.3087 -0.2977  0.2407
  161SOPE  H17X18094   3.918   2.769   7.518 -1.6314 -0.2051 -1.4332
  161SOPE  H17Y18095   3.964   2.938   7.546  0.8624 -0.9009  0.1538
  161SOPE  C31818096   3.747   2.900   7.492  1.0290  0.4030 -0.0576
  161SOPE  H18X18097   3.759   2.917   7.383 -0.3654 -2.1463 -0.6678
  161SOPE  H18Y18098   3.700   2.991   7.535 -0.1540 -0.6435  0.9368
  161SOPE  H18Z18099   3.682   2.813   7.514  2.6644 -0.8016  0.2190
  162SOPE     N18100   3.305   1.798   9.773  0.1635 -0.0876 -0.1009
  162SOPE   HN118101   3.271   1.755   9.684 -1.0914  2.5675 -1.0291
  162SOPE   HN218102   3.231   1.858   9.816  1.2201  1.6348 -0.5587
  162SOPE   HN318103   3.384   1.862   9.751 -0.0881 -0.3449 -1.9944
  162SOPE   C1218104   3.344   1.688   9.869  0.2099 -0.6717 -0.2212
  162SOPE  H12A18105   3.253   1.632   9.900  0.4308 -0.6172  0.5423
  162SOPE  H12B18106   3.405   1.731   9.951 -1.4620  1.8674 -0.2161
  162SOPE   C1118107   3.429   1.580   9.794  0.0403 -0.3082  0.7307
  162SOPE  H11A18108   3.366   1.501   9.749 -0.1003  1.1700 -1.8569
  162SOPE  H11B18109   3.475   1.540   9.887  1.1770 -1.6816 -0.3760
  162SOPE     P18110   3.624   1.559   9.621 -0.2496  0.3324  0.1360
  162SOPE   O1318111   3.698   1.466   9.708  0.0961  0.4776 -0.0805
  162SOPE   O1418112   3.702   1.658   9.546  0.7392  0.6016 -0.4883
  162SOPE   O1218113   3.522   1.644   9.704  0.0096 -0.0669  0.3519
  162SOPE   O1118114   3.530   1.485   9.523 -0.1166  0.3869 -0.0074
  162SOPE    C118115   3.426   1.556   9.455  0.1618  0.3308  0.0695
  162SOPE    HA18116   3.446   1.662   9.428 -0.1531 -0.3185 -3.1770
  162SOPE    HB18117   3.337   1.559   9.521 -0.7131  1.7345 -1.1267
  162SOPE    C218118   3.366   1.487   9.324 -0.5833  0.3405 -0.6295
  162SOPE    HS18119   3.378   1.379   9.347 -1.5088  0.4272  0.3125
  162SOPE   O2118120   3.449   1.537   9.216  0.2588 -0.1695  0.4458
  162SOPE   C2118121   3.531   1.447   9.153  0.4763 -0.5952 -0.8117
  162SOPE   O2218122   3.521   1.328   9.167 -0.8294 -0.3276  0.0316
  162SOPE   C2218123   3.627   1.514   9.054  0.4853  0.0912 -0.1321
  162SOPE   H2R18124   3.707   1.564   9.113  0.5160  1.6684 -1.4269
  162SOPE   H2S18125   3.578   1.600   9.002  0.9235  1.1075  1.0798
  162SOPE    C318126   3.214   1.532   9.298  0.5730 -1.1457  0.9034
  162SOPE    HX18127   3.234   1.640   9.285 -0.3394 -1.1035 -0.3231
  162SOPE    HY18128   3.139   1.527   9.379 -0.3686  0.4347  0.1812
  162SOPE   O3118129   3.169   1.493   9.166  0.0225 -0.6768 -0.2220
  162SOPE   C3118130   3.084   1.397   9.162  0.9219  0.0834  0.3538
  162SOPE   O3218131   3.039   1.334   9.251 -0.2634 -0.3491 -0.0007
  162SOPE   C3218132   3.048   1.371   9.016 -0.5527  0.2683 -0.3356
  162SOPE   H2X18133   3.023   1.471   8.976 -2.1430  0.8740  1.9855
  162SOPE   H2Y18134   2.961   1.303   9.023  0.0351 -0.3520  1.7286
  162SOPE   C2318135   3.694   1.413   8.960 -0.2603  0.3015  0.6028
  162SOPE   H3R18136   3.736   1.337   9.029 -0.1794  2.5464  3.1928
  162SOPE   H3S18137   3.784   1.461   8.918  0.7803  1.1228  3.5208
  162SOPE   C2418138   3.603   1.364   8.846 -0.1037 -1.3826 -0.1040
  162SOPE   H4R18139   3.531   1.298   8.899 -0.3415  0.5431  2.1645
  162SOPE   H4S18140   3.552   1.458   8.813  2.6953 -0.3220 -1.7696
  162SOPE   C2518141   3.673   1.306   8.724 -0.1093 -0.0625  0.1836
  162SOPE   H5R18142   3.753   1.378   8.699 -0.1191  1.3106  3.5282
  162SOPE   H5S18143   3.721   1.214   8.765  1.0530  0.8038  0.8142
  162SOPE   C2618144   3.577   1.279   8.607 -0.0288 -0.3252  0.1468
  162SOPE   H6R18145   3.492   1.219   8.646 -0.5858  0.7466  0.6364
  162SOPE   H6S18146   3.552   1.378   8.562 -0.2592 -0.1870  0.5676
  162SOPE   C2718147   3.648   1.194   8.498 -0.6006  0.2172 -0.2267
  162SOPE   H7R18148   3.746   1.234   8.465 -0.9619 -1.8765 -4.5749
  162SOPE   H7S18149   3.674   1.095   8.542 -0.0690 -1.0478 -3.1254
  162SOPE   C2818150   3.570   1.171   8.365  0.5073 -0.4679 -0.4961
  162SOPE   H8R18151   3.634   1.097   8.311  1.5341 -0.7887  1.1001
  162SOPE   H8S18152   3.473   1.122   8.385 -0.2981  1.5585  0.8542
  162SOPE   C2918153   3.551   1.289   8.269 -1.0683 -0.6228 -0.1749
  162SOPE   H9118154   3.527   1.383   8.320 -1.1398 -0.2157 -0.9521
  162SOPE  C21018155   3.538   1.278   8.138  0.3186  0.3239  1.3902
  162SOPE  H10118156   3.526   1.369   8.077  2.6117 -1.0192 -1.2733
  162SOPE  C21118157   3.525   1.141   8.069  0.1276 -0.2189 -0.2802
  162SOPE  H11R18158   3.445   1.083   8.120 -1.7928  0.8162 -1.9675
  162SOPE  H11S18159   3.623   1.089   8.062 -0.7546 -1.7288 -2.4968
  162SOPE  C21218160   3.481   1.155   7.919 -0.4686  0.2046 -0.2984
  162SOPE  H12R18161   3.490   1.055   7.873 -0.3849  0.1575 -0.1790
  162SOPE  H12S18162   3.546   1.227   7.864  0.4126  0.2673  0.7817
  162SOPE  C21318163   3.343   1.213   7.904  0.4093  0.1681  0.1293
  162SOPE  H13R18164   3.355   1.319   7.933  2.0604 -0.1908  0.8990
  162SOPE  H13S18165   3.263   1.178   7.973  1.4469  0.0402  1.3178
  162SOPE  C21418166   3.293   1.204   7.760 -0.8022  0.7846  0.1642
  162SOPE  H14R18167   3.387   1.209   7.701  1.0902 -0.6902  2.8357
  162SOPE  H14S18168   3.235   1.297   7.740  1.8920  2.5842  0.1792
  162SOPE  C21518169   3.213   1.075   7.730 -0.0881 -0.0027  0.3673
  162SOPE  H15R18170   3.126   1.076   7.800 -2.4092  2.2633 -2.2494
  162SOPE  H15S18171   3.285   0.992   7.742  1.0846  0.7486 -1.0584
  162SOPE  C21618172   3.156   1.066   7.582  0.7720 -1.0459 -0.6570
  162SOPE  H16R18173   3.235   1.092   7.509  1.8277 -1.4921  0.2954
  162SOPE  H16S18174   3.076   1.141   7.564  0.3202 -0.9622  1.3913
  162SOPE  C21718175   3.109   0.923   7.545  0.4232 -0.2189 -0.0136
  162SOPE  H17R18176   3.192   0.853   7.566 -0.4955 -1.4695 -0.3987
  162SOPE  H17S18177   3.095   0.911   7.435 -0.5545 -1.2887  0.2105
  162SOPE  C21818178   2.979   0.880   7.613 -0.1359  0.2350 -0.8734
  162SOPE  H18R18179   2.995   0.904   7.720  0.9660  2.0508 -1.4131
  162SOPE  H18S18180   2.960   0.773   7.590  1.1056 -0.0152 -0.7635
  162SOPE  H18T18181   2.883   0.922   7.576 -0.7666 -0.5611 -0.1942
  162SOPE   C3318182   3.163   1.304   8.943  0.6281 -0.2131 -0.0442
  162SOPE   H3X18183   3.203   1.208   8.984  1.5412  0.2176  0.0953
  162SOPE   H3Y18184   3.255   1.365   8.932  1.0987 -1.1757 -1.8894
  162SOPE   C3418185   3.119   1.272   8.797  0.0007  0.3831  0.2161
  162SOPE   H4X18186   3.049   1.350   8.760 -2.4937 -0.4204  2.8928
  162SOPE   H4Y18187   3.043   1.192   8.804 -0.2123  0.4610 -0.9381
  162SOPE   C3518188   3.238   1.231   8.707  0.1029  0.1051  0.2296
  162SOPE   H5X18189   3.289   1.143   8.753 -2.9554 -2.5762 -1.1411
  162SOPE   H5Y18190   3.297   1.323   8.690 -0.8924  0.2310 -3.2918
  162SOPE   C3618191   3.195   1.196   8.564  0.5526  0.0111  0.0020
  162SOPE   H6X18192   3.149   1.096   8.574  1.5137 -0.3183  1.5423
  162SOPE   H6Y18193   3.273   1.179   8.487  1.4222  0.9192  0.6554
  162SOPE   C3718194   3.102   1.306   8.500 -0.2191 -0.1196 -0.2442
  162SOPE   H7X18195   3.155   1.404   8.497 -2.2980  1.0420 -0.9332
  162SOPE   H7Y18196   3.008   1.316   8.557  1.0817  0.5615  1.8930
  162SOPE   C3818197   3.075   1.268   8.354 -0.0942 -0.6526 -0.0099
  162SOPE   H8X18198   3.171   1.267   8.299  0.3192 -0.0474  0.6764
  162SOPE   H8Y18199   3.021   1.347   8.298  3.0391  0.8745 -1.1146
  162SOPE   C3918200   2.994   1.138   8.343  0.1109  0.3333  0.1433
  162SOPE   H9X18201   2.894   1.145   8.391 -0.5759  0.0968 -1.1941
  162SOPE   H9Y18202   3.052   1.053   8.387 -1.9876 -1.4217 -0.2879
  162SOPE  C31018203   2.960   1.116   8.190  0.4536  0.5725  0.3012
  162SOPE  H10X18204   3.060   1.111   8.143 -0.2581  2.9849 -1.6882
  162SOPE  H10Y18205   2.921   1.213   8.151 -0.3489  0.8304  1.6669
  162SOPE  C31118206   2.884   0.987   8.136  0.3888 -0.1637 -1.0749
  162SOPE  H11X18207   2.781   0.986   8.177 -0.1578  2.9351 -2.1152
  162SOPE  H11Y18208   2.935   0.900   8.182 -1.6616 -0.5733  0.5727
  162SOPE  C31218209   2.879   0.968   7.993 -0.4052 -0.5403  0.2633
  162SOPE  H12X18210   2.805   0.897   7.953  0.5427 -2.8388  2.3222
  162SOPE  H12Y18211   2.982   0.943   7.958  1.1848  2.6782  2.1046
  162SOPE  C31318212   2.833   1.095   7.916 -0.6898  0.2546 -0.0358
  162SOPE  H13X18213   2.865   1.074   7.811 -0.7258 -0.0401  0.0126
  162SOPE  H13Y18214   2.892   1.182   7.951 -0.0509 -0.0642 -0.3097
  162SOPE  C31418215   2.683   1.115   7.905 -0.5305  0.5655  0.2693
  162SOPE  H14X18216   2.645   1.098   8.008 -0.6455  0.2175  0.1691
  162SOPE  H14Y18217   2.635   1.044   7.835 -0.8142  0.2586  0.7665
  162SOPE  C31518218   2.649   1.264   7.869 -0.4530  0.9112  0.6681
  162SOPE  H15X18219   2.693   1.338   7.939  1.3910 -0.8588  1.4606
  162SOPE  H15Y18220   2.540   1.267   7.891 -0.0135 -0.3409  3.3622
  162SOPE  C31618221   2.689   1.287   7.721  0.4419  0.8989  0.0052
  162SOPE  H16X18222   2.652   1.203   7.659  0.7241 -0.0377  1.0719
  162SOPE  H16Y18223   2.800   1.283   7.714  0.3573  1.0391 -1.8430
  162SOPE  C31718224   2.629   1.419   7.664  0.0073 -0.2259  0.8013
  162SOPE  H17X18225   2.522   1.404   7.691  0.2715  0.5098  2.3876
  162SOPE  H17Y18226   2.646   1.425   7.555 -0.4431  0.1070  0.7465
  162SOPE  C31818227   2.675   1.543   7.737 -0.0679 -0.3666 -0.3096
  162SOPE  H18X18228   2.786   1.541   7.731 -0.1193 -2.6187 -1.8023
  162SOPE  H18Y18229   2.637   1.538   7.841  0.9297 -1.5591  0.0240
  162SOPE  H18Z18230   2.639   1.640   7.696  0.9743 -0.5011 -1.6131
  163SOPE     N18231   5.336   1.621   9.621  0.0659  0.2360  0.6081
  163SOPE   HN118232   5.275   1.678   9.560 -0.3214  0.7387  1.4494
  163SOPE   HN218233   5.310   1.652   9.717 -2.3270  1.2536 -0.2912
  163SOPE   HN318234   5.436   1.642   9.599  0.0224 -1.2720 -1.3215
  163SOPE   C1218235   5.308   1.465   9.591 -0.3529 -0.6440 -0.2166
  163SOPE  H12A18236   5.206   1.440   9.628  0.0580 -2.3114 -0.1674
  163SOPE  H12B18237   5.397   1.422   9.641  0.4179  0.5666 -0.4923
  163SOPE   C1118238   5.329   1.432   9.446  0.0085  0.4394 -0.0345
  163SOPE  H11A18239   5.436   1.440   9.415 -0.7609  2.3924 -2.5568
  163SOPE  H11B18240   5.284   1.513   9.385 -1.8217 -0.4428  0.1005
  163SOPE     P18241   5.106   1.296   9.387  0.2816  0.1313 -0.5286
  163SOPE   O1318242   5.048   1.417   9.452 -0.2252  0.4830  0.5681
  163SOPE   O1418243   5.065   1.162   9.436 -0.3979  0.3077 -0.3381
  163SOPE   O1218244   5.266   1.307   9.404  0.1390 -0.5726  0.2017
  163SOPE   O1118245   5.099   1.308   9.229 -0.0757 -0.0952 -0.0129
  163SOPE    C118246   5.112   1.192   9.144  0.2828  0.0729 -0.3725
  163SOPE    HA18247   5.016   1.136   9.141 -0.0366  0.4054  1.8528
  163SOPE    HB18248   5.186   1.121   9.184  1.6697  1.5793 -0.1479
  163SOPE    C218249   5.143   1.241   8.995 -0.2076 -0.7639  0.1488
  163SOPE    HS18250   5.230   1.310   8.991  0.9721 -2.1755  0.5375
  163SOPE   O2118251   5.023   1.309   8.944 -0.0562  0.2128 -0.0840
  163SOPE   C2118252   5.011   1.437   8.966  0.5103 -0.1328  0.6370
  163SOPE   O2218253   5.096   1.512   9.013 -0.7269  0.4096  0.1846
  163SOPE   C2218254   4.876   1.483   8.916  0.2897 -0.3102  0.0580
  163SOPE   H2R18255   4.800   1.408   8.949 -0.2947 -0.2415 -1.1005
  163SOPE   H2S18256   4.875   1.494   8.806  0.3325 -0.2242  0.0659
  163SOPE    C318257   5.185   1.133   8.900  0.4667  0.4066  0.6674
  163SOPE    HX18258   5.110   1.051   8.909  1.0789 -0.2160  0.1417
  163SOPE    HY18259   5.278   1.093   8.945  0.9163 -1.0002 -1.4028
  163SOPE   O3118260   5.215   1.178   8.770 -0.1252 -0.9260 -0.0806
  163SOPE   C3118261   5.128   1.171   8.666 -0.3076  0.2111 -0.6680
  163SOPE   O3218262   5.020   1.114   8.672 -0.0594 -0.2796  0.1483
  163SOPE   C3218263   5.192   1.227   8.540  0.2010  0.0891 -0.0460
  163SOPE   H2X18264   5.252   1.139   8.505  1.0426  0.5513  0.2098
  163SOPE   H2Y18265   5.263   1.309   8.563 -0.8902  1.0514 -0.0212
  163SOPE   C2318266   4.833   1.615   8.994 -0.1829  0.3904 -0.1227
  163SOPE   H3R18267   4.902   1.701   8.980 -0.2724  0.5292  0.2765
  163SOPE   H3S18268   4.817   1.598   9.103  1.2070  3.0823  0.5765
  163SOPE   C2418269   4.696   1.660   8.931  0.5305 -0.0985  0.4379
  163SOPE   H4R18270   4.621   1.578   8.936  1.4843 -1.1153 -1.1689
  163SOPE   H4S18271   4.652   1.747   8.984  1.9162  1.5837 -1.0443
  163SOPE   C2518272   4.712   1.703   8.785 -0.8608 -0.3704  0.4534
  163SOPE   H5R18273   4.805   1.763   8.777  0.1715 -2.1456 -3.4622
  163SOPE   H5S18274   4.728   1.616   8.717  2.6931  0.6779 -0.2524
  163SOPE   C2618275   4.601   1.798   8.731  0.2030 -0.1385  0.1080
  163SOPE   H6R18276   4.566   1.857   8.819 -1.4379 -0.3472 -0.3755
  163SOPE   H6S18277   4.637   1.867   8.652 -0.3599 -1.3411 -1.2384
  163SOPE   C2718278   4.487   1.718   8.682  0.1479 -0.9424 -0.5280
  163SOPE   H7R18279   4.468   1.636   8.754  0.6201 -0.6597 -0.0677
  163SOPE   H7S18280   4.404   1.790   8.705  3.1434  1.9295  2.5528
  163SOPE   C2818281   4.487   1.677   8.531  0.1212  0.0770  0.0562
  163SOPE   H8R18282   4.495   1.777   8.483  0.4940 -0.5692 -1.2837
  163SOPE   H8S18283   4.574   1.611   8.511  0.8488  0.5922  1.3609
  163SOPE   C2918284   4.365   1.609   8.476 -0.3814  0.2034  0.0059
  163SOPE   H9118285   4.320   1.539   8.548  2.1910  1.4709  3.0971
  163SOPE  C21018286   4.301   1.638   8.360 -1.0064  0.0042  0.1371
  163SOPE  H10118287   4.219   1.569   8.336 -0.6580 -0.8984  1.3980
  163SOPE  C21118288   4.353   1.730   8.251 -0.9167 -0.7653 -0.2372
  163SOPE  H11R18289   4.450   1.779   8.276 -2.3491  1.7423  0.7874
  163SOPE  H11S18290   4.283   1.816   8.246 -1.0248 -0.6686  2.0535
  163SOPE  C21218291   4.365   1.649   8.120  0.0292 -0.7200  0.2886
  163SOPE  H12R18292   4.262   1.625   8.086  0.1016 -0.0367 -0.4470
  163SOPE  H12S18293   4.421   1.554   8.135 -0.5217 -1.1031 -0.0741
  163SOPE  C21318294   4.435   1.726   8.002 -0.5096  0.0485  0.2547
  163SOPE  H13R18295   4.465   1.645   7.933  2.6089  0.0683  1.4236
  163SOPE  H13S18296   4.527   1.780   8.032  0.3768 -0.6972 -1.0540
  163SOPE  C21418297   4.353   1.833   7.919  0.5037  0.3380 -0.1928
  163SOPE  H14R18298   4.308   1.902   7.993 -0.8157  0.8763 -1.4337
  163SOPE  H14S18299   4.269   1.768   7.885  0.8635 -1.3956  1.9653
  163SOPE  C21518300   4.414   1.896   7.795  0.0117 -0.0402 -0.1187
  163SOPE  H15R18301   4.439   1.819   7.719 -0.2904  0.4713 -0.7444
  163SOPE  H15S18302   4.507   1.945   7.830  0.2089 -0.2897 -0.2905
  163SOPE  C21618303   4.327   2.007   7.733 -0.3609 -0.0291  0.1667
  163SOPE  H16R18304   4.326   2.099   7.795 -2.0862  0.5904 -0.6963
  163SOPE  H16S18305   4.222   1.971   7.727 -1.2895  2.4093  0.5301
  163SOPE  C21718306   4.384   2.034   7.588  0.4323 -0.4136 -0.2557
  163SOPE  H17R18307   4.400   1.944   7.526  1.1818 -1.8499  1.8900
  163SOPE  H17S18308   4.488   2.070   7.605  0.8106 -0.6761 -1.9009
  163SOPE  C21818309   4.303   2.136   7.505  0.1277 -0.0599 -0.0289
  163SOPE  H18R18310   4.349   2.154   7.406 -1.1073  1.2105 -0.4053
  163SOPE  H18S18311   4.285   2.231   7.560 -0.3376  0.9586 -1.8601
  163SOPE  H18T18312   4.204   2.089   7.489 -1.0488  0.8656  3.4791
  163SOPE   C3318313   5.099   1.273   8.428  0.1759 -0.4579  0.1550
  163SOPE   H3X18314   5.054   1.365   8.470 -0.2975  0.4680 -2.2266
  163SOPE   H3Y18315   5.031   1.186   8.419  0.7894 -0.9072 -0.2714
  163SOPE   C3418316   5.158   1.317   8.303  0.4292 -0.0489  0.1401
  163SOPE   H4X18317   5.242   1.257   8.263  0.2787  1.1502 -2.1431
  163SOPE   H4Y18318   5.197   1.421   8.304  0.2226  0.0965 -2.0629
  163SOPE   C3518319   5.052   1.318   8.189 -0.0915  0.3768  0.8666
  163SOPE   H5X18320   4.956   1.367   8.216  0.6220  2.3510  0.0254
  163SOPE   H5Y18321   5.032   1.212   8.165  0.0074  1.1103 -3.0872
  163SOPE   C3618322   5.119   1.383   8.068  0.0170 -0.7022  0.5909
  163SOPE   H6X18323   5.192   1.306   8.034 -2.6567 -3.0101 -0.3306
  163SOPE   H6Y18324   5.172   1.475   8.100 -0.2327  0.2648 -1.5916
  163SOPE   C3718325   5.018   1.403   7.954  0.0772 -0.1466 -0.1430
  163SOPE   H7X18326   4.935   1.458   8.004 -0.0620 -0.9609  0.5615
  163SOPE   H7Y18327   4.978   1.304   7.922  1.2862 -1.2439  1.5560
  163SOPE   C3818328   5.069   1.478   7.835  0.1882  0.4326 -0.7705
  163SOPE   H8X18329   5.165   1.428   7.811  1.1157 -0.2519  3.5964
  163SOPE   H8Y18330   5.089   1.581   7.872  0.3579  0.2206 -0.2687
  163SOPE   C3918331   4.971   1.475   7.725  0.2240 -0.4516  0.1989
  163SOPE   H9X18332   4.925   1.375   7.711  0.6273 -0.6657  0.3893
  163SOPE   H9Y18333   5.022   1.512   7.633  0.4397 -1.7423 -0.2176
  163SOPE  C31018334   4.852   1.563   7.756 -0.6762  0.3185  0.4593
  163SOPE  H10X18335   4.889   1.651   7.812  1.3121 -0.6126  0.7107
  163SOPE  H10Y18336   4.787   1.499   7.819 -2.2526 -0.5935 -1.9246
  163SOPE  C31118337   4.781   1.616   7.632 -0.3071 -0.0129  0.2027
  163SOPE  H11X18338   4.841   1.691   7.577 -0.0183  2.1566  3.2071
  163SOPE  H11Y18339   4.693   1.672   7.670  1.1984  4.1227 -1.8095
  163SOPE  C31218340   4.736   1.510   7.536 -0.3479 -0.3204  0.9008
  163SOPE  H12X18341   4.710   1.416   7.590 -0.5540 -1.3944 -0.9800
  163SOPE  H12Y18342   4.828   1.488   7.479 -0.8584  0.1832 -0.1534
  163SOPE  C31318343   4.608   1.554   7.454 -0.7461 -0.3309 -0.4891
  163SOPE  H13X18344   4.618   1.654   7.408 -0.1310 -0.4741 -0.6766
  163SOPE  H13Y18345   4.518   1.553   7.520 -1.2316 -1.0690 -1.1398
  163SOPE  C31418346   4.580   1.466   7.327 -0.0665 -0.2076 -0.5899
  163SOPE  H14X18347   4.589   1.358   7.352  0.6853  0.3048  1.6238
  163SOPE  H14Y18348   4.653   1.474   7.243  0.0290 -3.6481 -0.9712
  163SOPE  C31518349   4.440   1.479   7.256  0.0746 -0.1852  0.0858
  163SOPE  H15X18350   4.418   1.586   7.235  0.0825 -0.4235 -1.2627
  163SOPE  H15Y18351   4.358   1.442   7.320 -1.6527 -0.8206 -2.3400
  163SOPE  C31618352   4.446   1.394   7.124  0.3058 -1.2606 -0.4469
  163SOPE  H16X18353   4.553   1.387   7.099  0.7155 -0.1941  0.8797
  163SOPE  H16Y18354   4.386   1.442   7.043  1.4922 -1.7980 -1.6883
  163SOPE  C31718355   4.395   1.253   7.158 -0.4802  0.0433  0.6746
  163SOPE  H17X18356   4.284   1.250   7.170 -0.8286  1.1635 -1.5882
  163SOPE  H17Y18357   4.438   1.202   7.246 -0.7125 -0.2620  0.6114
  163SOPE  C31818358   4.420   1.152   7.043 -0.4195  0.1178  0.3087
  163SOPE  H18X18359   4.389   1.198   6.947  0.4443  0.5514  0.2356
  163SOPE  H18Y18360   4.362   1.060   7.069 -0.6679  0.7790  2.2728
  163SOPE  H18Z18361   4.530   1.142   7.040 -0.2934  1.5704 -1.0965
  164SOPE     N18362   5.672   5.144   9.571 -0.2740  0.5584  0.2606
  164SOPE   HN118363   5.727   5.132   9.659  1.0190  0.4712 -0.5321
  164SOPE   HN218364   5.619   5.233   9.567 -0.9600  0.1983  1.1335
  164SOPE   HN318365   5.600   5.073   9.596 -0.2676  0.8211  1.0693
  164SOPE   C1218366   5.746   5.120   9.444  0.2779  0.5714 -0.7171
  164SOPE  H12A18367   5.820   5.203   9.443  2.6783 -1.3922  0.7372
  164SOPE  H12B18368   5.674   5.115   9.360 -1.3693 -2.5996  0.7205
  164SOPE   C1118369   5.834   4.992   9.456 -0.0315 -0.6288 -1.2336
  164SOPE  H11A18370   5.903   4.989   9.369  1.7055  0.7631  0.0110
  164SOPE  H11B18371   5.772   4.901   9.449  1.0321 -1.8825  2.9899
  164SOPE     P18372   5.961   4.858   9.652  0.6222  0.4117 -0.0591
  164SOPE   O1318373   5.845   4.775   9.686 -0.0900  0.6983 -0.2488
  164SOPE   O1418374   6.054   4.891   9.764 -0.2153 -0.4252  0.7811
  164SOPE   O1218375   5.908   4.989   9.581 -0.2785 -0.0464  0.4456
  164SOPE   O1118376   6.041   4.792   9.535 -0.8722  0.1495 -0.3842
  164SOPE    C118377   6.076   4.660   9.531 -0.0194  0.0686 -0.3373
  164SOPE    HA18378   6.006   4.609   9.601  2.5075 -0.3917  1.9806
  164SOPE    HB18379   6.181   4.649   9.565  0.2543 -1.4824 -1.5418
  164SOPE    C218380   6.066   4.601   9.388  0.6422  0.1796  0.6253
  164SOPE    HS18381   6.103   4.496   9.387 -1.8144 -0.8674  3.4733
  164SOPE   O2118382   6.145   4.690   9.294  0.0611  0.1197 -0.1150
  164SOPE   C2118383   6.273   4.685   9.310  0.3611 -0.1160  0.4883
  164SOPE   O2218384   6.336   4.619   9.391  0.5542 -0.1431  0.1290
  164SOPE   C2218385   6.341   4.780   9.214 -0.4913 -0.0501 -0.1844
  164SOPE   H2R18386   6.449   4.771   9.237  0.5401  4.9171 -1.8286
  164SOPE   H2S18387   6.315   4.886   9.238 -0.1781 -0.3913  1.9160
  164SOPE    C318388   5.913   4.600   9.352 -0.2722 -0.2537 -0.7268
  164SOPE    HX18389   5.883   4.706   9.364  1.9246  0.5556 -1.7999
  164SOPE    HY18390   5.858   4.550   9.434 -2.4194  2.1345 -0.5928
  164SOPE   O3118391   5.884   4.544   9.227  0.1055 -0.2050  0.0687
  164SOPE   C3118392   5.889   4.624   9.116  0.4345  0.3808 -0.0718
  164SOPE   O3218393   5.903   4.747   9.115  0.9171 -0.1020 -0.1788
  164SOPE   C3218394   5.865   4.547   8.984 -0.3987 -0.6183 -0.2779
  164SOPE   H2X18395   5.791   4.468   9.009  0.5590 -0.7906  2.3428
  164SOPE   H2Y18396   5.965   4.512   8.954 -0.3639 -0.1951 -0.6621
  164SOPE   C2318397   6.321   4.746   9.066 -0.1823 -0.8632 -0.5427
  164SOPE   H3R18398   6.390   4.808   9.005 -0.0743 -0.9870 -0.5485
  164SOPE   H3S18399   6.219   4.770   9.031  0.0229  1.0677  0.0927
  164SOPE   C2418400   6.348   4.604   9.019 -0.0204  0.1499 -0.9187
  164SOPE   H4R18401   6.443   4.565   9.063  0.3392  0.0191 -1.8013
  164SOPE   H4S18402   6.266   4.539   9.056  0.0212  1.8122  2.5379
  164SOPE   C2518403   6.361   4.588   8.864 -0.5383  0.2070 -0.6751
  164SOPE   H5R18404   6.276   4.648   8.825 -0.1724  2.1922  1.3725
  164SOPE   H5S18405   6.459   4.623   8.826 -1.0827  1.2757 -1.1341
  164SOPE   C2618406   6.352   4.433   8.842  0.2009  0.4324 -0.0632
  164SOPE   H6R18407   6.423   4.391   8.916 -0.1716 -1.2253 -0.6226
  164SOPE   H6S18408   6.247   4.411   8.869  0.2357 -2.8352 -2.1325
  164SOPE   C2718409   6.385   4.375   8.702 -0.0433  0.6661 -0.2846
  164SOPE   H7R18410   6.472   4.427   8.657  1.1334 -1.1640 -0.2270
  164SOPE   H7S18411   6.414   4.267   8.709 -2.8012 -0.0786  1.0352
  164SOPE   C2818412   6.268   4.387   8.600 -0.6119  0.1685 -0.0575
  164SOPE   H8R18413   6.238   4.494   8.604  1.6859  0.8364  0.8734
  164SOPE   H8S18414   6.321   4.361   8.505  2.7086  1.7523  1.2157
  164SOPE   C2918415   6.149   4.299   8.630  0.2655 -0.0693  0.1646
  164SOPE   H9118416   6.094   4.332   8.720 -2.2458 -0.3409 -1.1962
  164SOPE  C21018417   6.110   4.185   8.567 -0.0009  0.8111  0.1093
  164SOPE  H10118418   6.018   4.133   8.597  0.4011  0.9681  1.6684
  164SOPE  C21118419   6.172   4.132   8.432  0.1474 -0.7580  0.4969
  164SOPE  H11R18420   6.142   4.027   8.413 -0.7246 -0.5560  0.7331
  164SOPE  H11S18421   6.282   4.138   8.446  0.0900  1.5398  0.4507
  164SOPE  C21218422   6.115   4.217   8.312  0.6018 -0.0301  0.5469
  164SOPE  H12R18423   6.165   4.181   8.220  2.2033  1.7789  0.6643
  164SOPE  H12S18424   6.140   4.322   8.339 -0.8981  0.4422  0.2131
  164SOPE  C21318425   5.962   4.203   8.297 -0.0558  0.1792  0.3320
  164SOPE  H13R18426   5.930   4.238   8.196  1.7488  0.4288 -0.1921
  164SOPE  H13S18427   5.902   4.248   8.379  0.2715 -0.8098  1.1414
  164SOPE  C21418428   5.920   4.054   8.295  0.1325 -0.2911 -0.0813
  164SOPE  H14R18429   5.955   3.997   8.384 -1.8338 -0.8098  0.4047
  164SOPE  H14S18430   5.964   4.009   8.204 -0.6960 -0.1643 -0.5581
  164SOPE  C21518431   5.772   4.041   8.275 -0.1753  0.2508 -0.2273
  164SOPE  H15R18432   5.738   4.086   8.180  1.3254  0.7497 -0.5610
  164SOPE  H15S18433   5.732   4.100   8.360  0.2529  2.1919 -1.3117
  164SOPE  C21618434   5.723   3.895   8.270 -0.4582 -0.8891 -0.4682
  164SOPE  H16R18435   5.612   3.897   8.270 -0.4628 -1.0422 -0.7467
  164SOPE  H16S18436   5.751   3.838   8.362  0.4186  1.1418  0.5802
  164SOPE  C21718437   5.765   3.811   8.147 -0.1389  0.1037  0.0293
  164SOPE  H17R18438   5.733   3.707   8.167 -3.4478  1.1596  0.9305
  164SOPE  H17S18439   5.875   3.821   8.135  0.1502 -3.5402 -1.5843
  164SOPE  C21818440   5.716   3.857   8.012  0.7179 -0.3777  0.2674
  164SOPE  H18R18441   5.755   3.955   7.976 -2.5230  0.8134 -0.3609
  164SOPE  H18S18442   5.605   3.869   8.007  0.5881  0.1800  2.8469
  164SOPE  H18T18443   5.729   3.780   7.934  0.9842  0.4885 -0.5560
  164SOPE   C3318444   5.788   4.638   8.888 -0.0352 -0.5521 -0.3190
  164SOPE   H3X18445   5.725   4.715   8.940 -0.9814 -0.2915 -1.7954
  164SOPE   H3Y18446   5.717   4.580   8.826 -1.7988  2.8603 -1.7611
  164SOPE   C3418447   5.877   4.713   8.782  0.2436 -0.2590  0.2993
  164SOPE   H4X18448   5.974   4.742   8.826  0.0717  0.1010  0.4414
  164SOPE   H4Y18449   5.816   4.798   8.744  0.7314 -0.0725 -0.0817
  164SOPE   C3518450   5.916   4.623   8.657  0.5799 -1.1015 -0.3061
  164SOPE   H5X18451   5.835   4.553   8.627  0.5342 -1.0731 -0.2489
  164SOPE   H5Y18452   6.006   4.564   8.684  0.4837 -0.2731  2.0367
  164SOPE   C3618453   5.951   4.709   8.536 -0.1312 -0.0188 -0.2267
  164SOPE   H6X18454   6.038   4.773   8.561  2.0228 -2.1062 -1.8387
  164SOPE   H6Y18455   5.854   4.760   8.519  0.0509 -0.1731 -1.9650
  164SOPE   C3718456   5.987   4.633   8.403 -1.0179 -1.0114  0.2980
  164SOPE   H7X18457   5.887   4.602   8.366 -2.2555  0.0042  2.5752
  164SOPE   H7Y18458   6.058   4.548   8.418  1.8864  0.6247 -2.8913
  164SOPE   C3818459   6.032   4.729   8.293  0.3079  0.2202  0.7019
  164SOPE   H8X18460   6.122   4.778   8.337  0.5600  0.7603 -0.3717
  164SOPE   H8Y18461   5.953   4.807   8.287  1.2231  1.3151  2.1858
  164SOPE   C3918462   6.057   4.673   8.151  0.0553 -0.0002  0.8144
  164SOPE   H9X18463   6.066   4.752   8.073  0.2310 -0.5405  0.2866
  164SOPE   H9Y18464   5.963   4.615   8.143 -1.3657  2.2607  0.2625
  164SOPE  C31018465   6.179   4.588   8.139 -0.2921  0.1394  0.0899
  164SOPE  H10X18466   6.182   4.520   8.226 -0.9633  0.9608  0.7783
  164SOPE  H10Y18467   6.263   4.661   8.136 -0.5269  0.3931 -1.9762
  164SOPE  C31118468   6.183   4.509   8.007  0.1671  0.3240 -0.0118
  164SOPE  H11X18469   6.171   4.586   7.928 -1.1116 -0.5285 -0.6894
  164SOPE  H11Y18470   6.091   4.447   7.999  1.0825 -1.2245  0.8377
  164SOPE  C31218471   6.312   4.429   7.965  0.4813  0.2353  0.3788
  164SOPE  H12X18472   6.335   4.359   8.047 -1.0725  1.2714  1.7622
  164SOPE  H12Y18473   6.389   4.508   7.962 -0.3499  1.1145  1.4248
  164SOPE  C31318474   6.289   4.367   7.823 -0.9201  0.2127  0.1614
  164SOPE  H13X18475   6.269   4.453   7.755 -1.3226  1.5634  1.9198
  164SOPE  H13Y18476   6.198   4.303   7.831 -0.6011 -0.1422  1.0720
  164SOPE  C31418477   6.416   4.295   7.780  0.5026  0.3444 -0.1907
  164SOPE  H14X18478   6.427   4.219   7.860 -0.7861 -1.1179 -1.3457
  164SOPE  H14Y18479   6.507   4.358   7.787 -0.1886  1.4083 -0.5832
  164SOPE  C31518480   6.409   4.196   7.670  0.6770  0.7248  0.1937
  164SOPE  H15X18481   6.311   4.147   7.683  0.2215  0.8765 -2.2054
  164SOPE  H15Y18482   6.489   4.119   7.676  1.1582  1.2063  0.0861
  164SOPE  C31618483   6.428   4.252   7.527  0.3113  0.2996  0.1602
  164SOPE  H16X18484   6.442   4.164   7.461  0.0845 -1.8158  2.7699
  164SOPE  H16Y18485   6.517   4.317   7.515  0.8559 -0.7981 -2.1997
  164SOPE  C31718486   6.305   4.330   7.472  0.1032  0.4982 -0.8844
  164SOPE  H17X18487   6.318   4.426   7.526 -0.8452 -0.4218  1.0709
  164SOPE  H17Y18488   6.206   4.285   7.496 -0.8941  2.9811 -0.0013
  164SOPE  C31818489   6.309   4.350   7.320 -0.4631  0.0563 -0.2704
  164SOPE  H18X18490   6.314   4.251   7.271 -2.9771 -0.1391 -0.2208
  164SOPE  H18Y18491   6.391   4.419   7.290 -1.1482  0.6559 -0.7819
  164SOPE  H18Z18492   6.212   4.399   7.297 -1.2898 -1.4822 -0.2047
  165SOPE     N18493   5.101   6.285  10.105 -0.0872  0.3812  0.3331
  165SOPE   HN118494   5.129   6.340  10.022 -0.6808  2.0544  1.2112
  165SOPE   HN218495   5.036   6.342  10.163 -0.2865 -0.3678  0.8612
  165SOPE   HN318496   5.189   6.271  10.159 -0.1264 -3.0527 -0.2351
  165SOPE   C1218497   5.054   6.158  10.041  0.6099 -0.1192  0.2671
  165SOPE  H12A18498   5.077   6.076  10.113 -0.3062  0.1895  0.9276
  165SOPE  H12B18499   5.110   6.149   9.946 -0.5235 -1.3165 -0.3042
  165SOPE   C1118500   4.913   6.158  10.004 -0.9236  0.1290 -0.1709
  165SOPE  H11A18501   4.839   6.156  10.088  0.4192  1.6080  1.1101
  165SOPE  H11B18502   4.898   6.064   9.947 -0.5025  1.0840 -1.9169
  165SOPE     P18503   4.765   6.251   9.808  0.1973 -0.3400 -0.1047
  165SOPE   O1318504   4.776   6.372   9.720  0.2039 -0.1003 -0.5811
  165SOPE   O1418505   4.630   6.222   9.861  0.3848 -0.6616  0.9098
  165SOPE   O1218506   4.863   6.271   9.927  0.4014 -0.0975 -0.0508
  165SOPE   O1118507   4.825   6.126   9.732  0.5600  0.4055  0.5926
  165SOPE    C118508   4.736   6.019   9.690  0.9579  0.4383 -0.1253
  165SOPE    HA18509   4.633   6.019   9.730  0.4683  0.6550 -1.3476
  165SOPE    HB18510   4.793   5.925   9.710  0.4922  0.3008  0.5877
  165SOPE    C218511   4.712   6.018   9.533 -0.6884 -0.4787 -0.4562
  165SOPE    HS18512   4.662   5.921   9.513  0.0633 -1.8773  3.5998
  165SOPE   O2118513   4.833   6.030   9.455 -0.3876  0.1048  0.1175
  165SOPE   C2118514   4.905   5.917   9.448 -0.1453 -0.1090  0.0684
  165SOPE   O2218515   4.881   5.813   9.505  0.0200  0.1925  0.3479
  165SOPE   C2218516   5.015   5.942   9.342  0.4398 -0.3025 -0.6163
  165SOPE   H2R18517   5.111   5.950   9.397  0.7467 -2.0147 -0.8509
  165SOPE   H2S18518   5.001   6.041   9.294  1.8298 -0.4262 -1.3207
  165SOPE    C318519   4.619   6.133   9.479 -0.4645  0.4936  0.8831
  165SOPE    HX18520   4.673   6.228   9.497  1.3353 -0.0384 -1.1787
  165SOPE    HY18521   4.527   6.127   9.540 -0.6099  1.9814  0.8518
  165SOPE   O3118522   4.598   6.126   9.336 -0.4253 -0.0456  0.0455
  165SOPE   C3118523   4.481   6.070   9.307 -0.3612 -0.5803  0.5063
  165SOPE   O3218524   4.406   6.007   9.384 -0.2152 -0.5840  0.6374
  165SOPE   C3218525   4.455   6.068   9.160  0.2838  0.6073  0.3400
  165SOPE   H2X18526   4.353   6.109   9.146 -0.2842 -0.9133 -0.1163
  165SOPE   H2Y18527   4.464   5.963   9.126  1.7354  0.2570  1.7338
  165SOPE   C2318528   5.031   5.840   9.230  0.2646  0.8626 -0.3704
  165SOPE   H3R18529   5.086   5.756   9.277 -0.9195  0.3852  0.1731
  165SOPE   H3S18530   5.108   5.887   9.164 -0.6247  1.9019 -0.7025
  165SOPE   C2418531   4.905   5.796   9.155 -0.2128  0.0395  0.3161
  165SOPE   H4R18532   4.907   5.686   9.145 -2.2229 -0.0267  0.0991
  165SOPE   H4S18533   4.816   5.826   9.214 -0.6226  2.1302 -1.2159
  165SOPE   C2518534   4.890   5.855   9.014  0.0400 -0.3424 -0.3858
  165SOPE   H5R18535   4.785   5.852   8.978  0.3956  1.4301 -1.7213
  165SOPE   H5S18536   4.918   5.962   9.020 -0.0905 -0.3502  0.6563
  165SOPE   C2618537   4.982   5.780   8.917  0.8379  0.5250  0.0097
  165SOPE   H6R18538   5.090   5.797   8.937  1.6752 -0.1804 -3.2898
  165SOPE   H6S18539   4.945   5.675   8.910 -0.6010  1.1030 -1.4774
  165SOPE   C2718540   4.953   5.836   8.778  0.4243 -0.0838 -0.0403
  165SOPE   H7R18541   4.844   5.857   8.770  0.4380  0.1636  0.4009
  165SOPE   H7S18542   4.999   5.937   8.777 -2.1462  1.1764  0.8345
  165SOPE   C2818543   4.991   5.739   8.668 -0.2071  0.5040  0.1972
  165SOPE   H8R18544   5.101   5.735   8.654 -0.2323 -1.1013  0.3404
  165SOPE   H8S18545   4.958   5.637   8.696 -1.0439  0.7798  0.2429
  165SOPE   C2918546   4.922   5.796   8.540 -0.3110 -0.5835 -0.3357
  165SOPE   H9118547   4.831   5.854   8.562  0.2216  0.6799 -1.3104
  165SOPE  C21018548   4.960   5.781   8.415  0.4537 -0.6739  0.5399
  165SOPE  H10118549   4.908   5.839   8.337  3.5224  2.6760  0.6836
  165SOPE  C21118550   5.068   5.689   8.368 -0.3750 -0.4882 -0.5858
  165SOPE  H11R18551   5.122   5.645   8.455  1.2568  2.3839  0.0135
  165SOPE  H11S18552   5.152   5.728   8.306  0.1635 -1.2754 -0.3644
  165SOPE  C21218553   5.031   5.576   8.268 -0.6116 -0.1808  0.0298
  165SOPE  H12R18554   4.967   5.502   8.321 -0.1712 -0.2012  0.5487
  165SOPE  H12S18555   5.128   5.523   8.252 -1.4484 -1.8360  0.2230
  165SOPE  C21318556   4.962   5.611   8.140 -0.4541 -0.3249 -0.0982
  165SOPE  H13R18557   4.876   5.680   8.154  0.1233  0.0581  1.9380
  165SOPE  H13S18558   4.942   5.518   8.084  2.8743  0.1023 -2.2675
  165SOPE  C21418559   5.054   5.686   8.037 -1.1112  0.0858  0.1835
  165SOPE  H14R18560   5.140   5.618   8.017 -0.1421  0.4597  2.6251
  165SOPE  H14S18561   5.088   5.784   8.078  3.5370 -1.5815  0.9670
  165SOPE  C21518562   4.976   5.702   7.904  0.4441  0.3038 -0.6364
  165SOPE  H15R18563   4.898   5.780   7.917  1.4341  0.8757  2.7971
  165SOPE  H15S18564   4.931   5.604   7.877 -0.9948  1.5615 -3.1461
  165SOPE  C21618565   5.070   5.733   7.785  0.6551  0.0466  0.1858
  165SOPE  H16R18566   5.149   5.655   7.784  2.2773  1.6415  0.7879
  165SOPE  H16S18567   5.126   5.828   7.800  0.3809  0.4031 -0.9398
  165SOPE  C21718568   5.014   5.758   7.638  0.4356  0.7204 -0.4016
  165SOPE  H17R18569   4.920   5.817   7.640  0.4329  0.7018  0.4586
  165SOPE  H17S18570   4.987   5.655   7.607  3.4634 -0.2936 -0.0239
  165SOPE  C21818571   5.110   5.827   7.546  0.5613  0.6176 -0.6899
  165SOPE  H18R18572   5.205   5.775   7.526  0.9061  0.2386  1.6812
  165SOPE  H18S18573   5.147   5.927   7.580  0.5431 -0.0617  1.4747
  165SOPE  H18T18574   5.070   5.843   7.443 -0.7469 -0.1035 -0.3104
  165SOPE   C3318575   4.558   6.136   9.064 -0.4231 -0.1532  0.3068
  165SOPE   H3X18576   4.665   6.115   9.087 -0.8437 -1.3804  1.2648
  165SOPE   H3Y18577   4.545   6.242   9.093  1.9069  0.1375  0.4715
  165SOPE   C3418578   4.546   6.095   8.921  0.1571  0.9369 -0.4822
  165SOPE   H4X18579   4.586   5.992   8.908  0.6377  0.9369  0.8640
  165SOPE   H4Y18580   4.626   6.154   8.871  1.0036 -0.7219 -1.1964
  165SOPE   C3518581   4.419   6.110   8.839  0.6002  0.2496  0.6448
  165SOPE   H5X18582   4.394   6.218   8.844  0.0074  0.2253 -1.1096
  165SOPE   H5Y18583   4.335   6.068   8.899 -0.2533  0.7080 -0.2010
  165SOPE   C3618584   4.422   6.044   8.696  0.1484 -0.7245 -0.2162
  165SOPE   H6X18585   4.332   6.077   8.640  0.3277  0.0948 -0.0451
  165SOPE   H6Y18586   4.426   5.935   8.713 -3.2892 -1.0545 -0.8168
  165SOPE   C3718587   4.549   6.083   8.619 -0.0081 -0.6415  0.3705
  165SOPE   H7X18588   4.641   6.044   8.667  0.4826  1.8626  1.5925
  165SOPE   H7Y18589   4.551   6.191   8.643  0.7808 -1.4271  4.5862
  165SOPE   C3818590   4.547   6.055   8.468  0.2098  0.2198  0.8183
  165SOPE   H8X18591   4.471   6.116   8.414  1.5480  1.2722  0.0636
  165SOPE   H8Y18592   4.501   5.956   8.452 -1.2329  1.0190 -0.2538
  165SOPE   C3918593   4.683   6.062   8.409  0.7881  0.7599  0.4288
  165SOPE   H9X18594   4.753   5.997   8.465  0.1608 -0.1929  0.1183
  165SOPE   H9Y18595   4.718   6.167   8.419  1.5375  0.4155  1.5318
  165SOPE  C31018596   4.688   6.035   8.263  0.0651 -0.3388 -0.7584
  165SOPE  H10X18597   4.606   6.096   8.220  1.2562  1.7084 -0.2520
  165SOPE  H10Y18598   4.668   5.931   8.228  0.4962 -0.5946 -0.2731
  165SOPE  C31118599   4.823   6.080   8.207  0.7106 -0.2204 -0.3939
  165SOPE  H11X18600   4.908   6.036   8.264  0.9310 -0.2725 -0.7609
  165SOPE  H11Y18601   4.832   6.190   8.215  1.5330 -0.3602  0.9790
  165SOPE  C31218602   4.853   6.033   8.068  0.4528 -0.2051  0.0538
  165SOPE  H12X18603   4.846   5.922   8.057 -0.4985 -0.2363  0.7959
  165SOPE  H12Y18604   4.958   6.054   8.038  0.1771 -1.2999 -1.9019
  165SOPE  C31318605   4.753   6.081   7.962 -1.0348 -0.7891  0.3875
  165SOPE  H13X18606   4.743   6.191   7.975 -1.3719 -0.8551  0.7087
  165SOPE  H13Y18607   4.652   6.042   7.988 -0.1364 -2.0016  2.2179
  165SOPE  C31418608   4.800   6.058   7.821  0.5473  0.0072 -0.0959
  165SOPE  H14X18609   4.727   6.108   7.754  0.3608 -0.5974 -0.3505
  165SOPE  H14Y18610   4.802   5.951   7.790 -1.5809 -0.0925 -0.0128
  165SOPE  C31518611   4.943   6.119   7.788  0.3655 -0.2182  0.1355
  165SOPE  H15X18612   4.969   6.072   7.690 -3.1763 -2.1471 -0.0501
  165SOPE  H15Y18613   5.026   6.089   7.856 -1.1090 -1.3063  1.5192
  165SOPE  C31618614   4.948   6.273   7.789 -0.5201  0.0608  0.0928
  165SOPE  H16X18615   5.055   6.304   7.799  0.0900 -0.0823 -4.1272
  165SOPE  H16Y18616   4.903   6.321   7.878 -0.1384 -1.3768  1.1099
  165SOPE  C31718617   4.890   6.333   7.656 -0.2665 -0.0040 -0.5365
  165SOPE  H17X18618   4.783   6.307   7.646 -0.3783  0.4364 -0.5097
  165SOPE  H17Y18619   4.940   6.279   7.572  0.3161  1.4652 -1.1645
  165SOPE  C31818620   4.914   6.484   7.646 -0.5700 -0.3937 -0.1243
  165SOPE  H18X18621   4.848   6.540   7.715 -0.4367 -0.0862 -0.2403
  165SOPE  H18Y18622   4.891   6.532   7.549  0.3713  3.3928  1.3481
  165SOPE  H18Z18623   5.016   6.519   7.673 -0.0539 -0.3527 -2.0012
  166SOPE     N18624   6.523   6.064   9.690 -0.0723  0.1339  0.1782
  166SOPE   HN118625   6.580   6.149   9.707 -0.8655  0.6959  0.0673
  166SOPE   HN218626   6.532   6.050   9.587 -2.7642 -0.6211 -0.0329
  166SOPE   HN318627   6.421   6.086   9.697 -0.8875 -2.5380 -1.7569
  166SOPE   C1218628   6.561   5.947   9.778 -0.4456  0.0999  0.4477
  166SOPE  H12A18629   6.479   5.872   9.774 -1.2014  0.9307 -0.0798
  166SOPE  H12B18630   6.579   5.991   9.878  0.6002 -0.5441  0.5595
  166SOPE   C1118631   6.706   5.897   9.741  0.2659 -0.8481  0.3869
  166SOPE  H11A18632   6.702   5.846   9.643  1.5387  1.5845 -1.0348
  166SOPE  H11B18633   6.732   5.820   9.817 -1.6816  0.1414  2.1604
  166SOPE     P18634   6.952   5.993   9.779  0.0570  0.0492 -0.1326
  166SOPE   O1318635   6.984   5.848   9.809 -0.2606 -0.2386  0.1941
  166SOPE   O1418636   6.981   6.087   9.889 -0.0884  0.0892 -0.2048
  166SOPE   O1218637   6.799   6.004   9.743  0.1462  0.1547 -0.4898
  166SOPE   O1118638   7.037   6.047   9.654  0.6942  0.0050 -0.3421
  166SOPE    C118639   6.987   6.144   9.561  0.3491 -0.5318 -0.2817
  166SOPE    HA18640   7.066   6.211   9.521 -1.5788  2.2173  0.3066
  166SOPE    HB18641   6.922   6.220   9.608 -1.6424 -1.4608 -1.3860
  166SOPE    C218642   6.906   6.077   9.447  0.0879 -0.5406  0.0557
  166SOPE    HS18643   6.830   6.010   9.491 -1.7474  1.4039  0.0211
  166SOPE   O2118644   6.991   6.018   9.350 -0.3811  0.1115 -0.5231
  166SOPE   C2118645   6.930   5.921   9.281  0.2829  0.2600  0.2781
  166SOPE   O2218646   6.816   5.881   9.296 -0.8718  0.3681 -0.0730
  166SOPE   C2218647   7.019   5.862   9.170 -0.0766  0.3753  0.0339
  166SOPE   H2R18648   6.953   5.804   9.102  1.7245 -0.4281 -1.1335
  166SOPE   H2S18649   7.090   5.790   9.217 -0.2455  0.9823  1.2452
  166SOPE    C318650   6.832   6.191   9.370  0.6405 -0.0922 -0.1152
  166SOPE    HX18651   6.910   6.263   9.339 -0.4556  0.2698 -2.2527
  166SOPE    HY18652   6.770   6.248   9.444  1.5932  1.3612 -0.3975
  166SOPE   O3118653   6.755   6.152   9.257 -0.5766 -0.5624 -0.0177
  166SOPE   C3118654   6.643   6.107   9.291  0.2288  0.3218  0.1087
  166SOPE   O3218655   6.599   6.098   9.407  0.0327  0.0447  0.1426
  166SOPE   C3218656   6.552   6.091   9.163  0.8071  0.1209 -0.0669
  166SOPE   H2X18657   6.458   6.148   9.178 -0.1796 -1.3335 -0.5022
  166SOPE   H2Y18658   6.537   5.981   9.161 -0.7605  0.2910 -2.4685
  166SOPE   C2318659   7.094   5.976   9.086  0.3088  0.7987  0.7790
  166SOPE   H3R18660   7.185   6.009   9.140  2.1735 -1.1921 -0.9650
  166SOPE   H3S18661   7.027   6.062   9.065 -0.4682 -0.6168 -3.4137
  166SOPE   C2418662   7.137   5.927   8.941 -0.2992 -0.4748  0.1683
  166SOPE   H4R18663   7.052   5.925   8.869  1.0902 -0.5230 -1.5222
  166SOPE   H4S18664   7.208   6.004   8.903 -0.5001 -1.0357 -1.4131
  166SOPE   C2518665   7.213   5.793   8.927 -0.0915  0.0132  0.3311
  166SOPE   H5R18666   7.280   5.813   8.841  0.5686 -1.2128  0.5466
  166SOPE   H5S18667   7.277   5.781   9.016 -1.1664 -0.6025  1.0477
  166SOPE   C2618668   7.130   5.670   8.886 -0.1186  0.6928  0.0982
  166SOPE   H6R18669   7.190   5.578   8.901  0.0385  0.7176 -0.3804
  166SOPE   H6S18670   7.038   5.661   8.948 -0.6335 -0.8795 -0.8369
  166SOPE   C2718671   7.088   5.665   8.738 -0.2591 -0.4313 -0.0389
  166SOPE   H7R18672   7.007   5.590   8.730 -2.0993  1.5034 -0.6194
  166SOPE   H7S18673   7.048   5.766   8.715 -1.0682 -0.5685  0.7160
  166SOPE   C2818674   7.218   5.641   8.646 -0.2264 -0.0695 -0.5815
  166SOPE   H8R18675   7.289   5.726   8.648 -1.3223  0.8957 -1.0958
  166SOPE   H8S18676   7.286   5.561   8.683 -0.3412 -1.4109 -3.0340
  166SOPE   C2918677   7.159   5.598   8.517 -0.3198 -0.4138 -0.0743
  166SOPE   H9118678   7.088   5.514   8.516  0.1849 -0.8546  0.3736
  166SOPE  C21018679   7.199   5.654   8.398  0.4602  0.2899 -0.1937
  166SOPE  H10118680   7.159   5.614   8.304 -0.8020  0.6605  0.1700
  166SOPE  C21118681   7.297   5.762   8.371 -1.0244  0.0575 -1.1581
  166SOPE  H11R18682   7.385   5.717   8.320 -1.8814 -1.9798 -0.9277
  166SOPE  H11S18683   7.332   5.806   8.467 -0.0171  1.8596 -2.2962
  166SOPE  C21218684   7.236   5.881   8.290 -0.5083 -0.5495 -0.4888
  166SOPE  H12R18685   7.299   5.972   8.296 -1.5169  0.1378 -0.2196
  166SOPE  H12S18686   7.132   5.900   8.323 -0.0868  1.3362 -0.1204
  166SOPE  C21318687   7.221   5.845   8.138  0.2467  0.2976 -1.0616
  166SOPE  H13R18688   7.148   5.761   8.138  1.1988 -0.6404  1.3319
  166SOPE  H13S18689   7.319   5.810   8.100  0.6866  1.6258 -1.1952
  166SOPE  C21418690   7.176   5.972   8.071  0.1920  0.3096  0.0260
  166SOPE  H14R18691   7.267   6.035   8.063  0.3881  0.8712  4.3098
  166SOPE  H14S18692   7.106   6.037   8.127  1.3099  0.7018  1.0137
  166SOPE  C21518693   7.101   5.951   7.934 -0.0237  0.2681  0.6188
  166SOPE  H15R18694   6.997   5.913   7.945 -0.2296  1.0951  1.5610
  166SOPE  H15S18695   7.157   5.889   7.860  0.0956  0.3155  0.6707
  166SOPE  C21618696   7.084   6.087   7.854  0.0912 -0.1903  0.2274
  166SOPE  H16R18697   7.181   6.132   7.822 -0.2283  0.3129 -0.0386
  166SOPE  H16S18698   7.033   6.156   7.923  0.5605 -0.7478  1.1491
  166SOPE  C21718699   6.997   6.082   7.730  0.0358 -0.2848  0.4038
  166SOPE  H17R18700   6.896   6.040   7.747 -0.3710  0.0640 -1.0371
  166SOPE  H17S18701   7.054   6.020   7.657 -1.7137  0.6170 -1.8447
  166SOPE  C21818702   6.984   6.212   7.656  0.0159 -0.5522  0.6650
  166SOPE  H18R18703   6.922   6.281   7.717 -1.0932  0.6940 -1.7618
  166SOPE  H18S18704   6.923   6.198   7.564 -0.4536 -1.3557  1.0876
  166SOPE  H18T18705   7.085   6.247   7.625  0.1652 -1.8626 -0.3892
  166SOPE   C3318706   6.617   6.141   9.035 -0.0514  0.2642 -0.2240
  166SOPE   H3X18707   6.699   6.074   9.002 -0.9551 -1.9167  1.6681
  166SOPE   H3Y18708   6.653   6.245   9.054 -1.1632  0.9284 -1.5999
  166SOPE   C3418709   6.521   6.146   8.915 -0.5944 -0.4012 -0.0399
  166SOPE   H4X18710   6.455   6.235   8.923 -0.1669 -0.1463  0.7908
  166SOPE   H4Y18711   6.468   6.048   8.912  1.1370 -1.3512 -1.7111
  166SOPE   C3518712   6.587   6.153   8.772  0.4013 -0.0929 -0.4485
  166SOPE   H5X18713   6.522   6.107   8.695 -3.3938 -0.0170  2.4465
  166SOPE   H5Y18714   6.680   6.091   8.776  0.3815 -0.1820 -1.1957
  166SOPE   C3618715   6.624   6.290   8.726 -0.3107 -0.0997 -0.1106
  166SOPE   H6X18716   6.702   6.339   8.788  0.9157 -1.2213 -0.7180
  166SOPE   H6Y18717   6.532   6.352   8.729 -0.4481 -0.3127  2.1950
  166SOPE   C3718718   6.675   6.303   8.584 -0.1797 -0.0772  0.3457
  166SOPE   H7X18719   6.703   6.411   8.582  0.0000 -0.0941  1.2025
  166SOPE   H7Y18720   6.591   6.288   8.513 -0.1215  0.2825  0.1990
  166SOPE   C3818721   6.802   6.218   8.562  0.1561 -0.1548  0.1864
  166SOPE   H8X18722   6.836   6.244   8.459  2.3374  0.6272  1.0498
  166SOPE   H8Y18723   6.769   6.113   8.574 -1.7762  0.6482  2.8347
  166SOPE   C3918724   6.918   6.254   8.654  0.2444  0.0006 -0.6684
  166SOPE   H9X18725   6.898   6.237   8.762  2.7769  2.2616  0.2648
  166SOPE   H9Y18726   6.934   6.363   8.643 -0.1541  0.0238 -1.0688
  166SOPE  C31018727   7.049   6.175   8.606 -0.0902 -0.2837 -0.0499
  166SOPE  H10X18728   7.048   6.172   8.494  1.2021  0.1410 -0.0850
  166SOPE  H10Y18729   7.034   6.068   8.635  0.0225 -0.6338 -1.2207
  166SOPE  C31118730   7.184   6.228   8.655  0.0191 -0.2613  0.2799
  166SOPE  H11X18731   7.182   6.252   8.763 -0.1536  1.0000  0.0073
  166SOPE  H11Y18732   7.203   6.321   8.598 -3.6914  0.8943  0.6894
  166SOPE  C31218733   7.306   6.141   8.635  0.0470  0.1712 -0.8858
  166SOPE  H12X18734   7.338   6.134   8.529  1.7107  0.3478 -0.4279
  166SOPE  H12Y18735   7.288   6.040   8.677 -0.1448  0.5829  0.0667
  166SOPE  C31318736   7.427   6.204   8.712  0.2177  1.0759 -0.2241
  166SOPE  H13X18737   7.518   6.140   8.720  0.4130  1.2433 -0.9841
  166SOPE  H13Y18738   7.387   6.214   8.815  0.2794  0.8925 -0.1823
  166SOPE  C31418739   7.470   6.349   8.687  1.0399  0.3151 -0.0172
  166SOPE  H14X18740   7.547   6.380   8.760  0.8376  2.2121 -0.5500
  166SOPE  H14Y18741   7.383   6.419   8.695  1.0496  0.9631 -3.6945
  166SOPE  C31518742   7.536   6.362   8.549  0.0706 -0.0343  0.1503
  166SOPE  H15X18743   7.455   6.354   8.473 -1.9789 -0.0516  2.2359
  166SOPE  H15Y18744   7.604   6.277   8.532 -0.0159  0.1524 -1.2833
  166SOPE  C31618745   7.608   6.498   8.533 -0.6079 -0.1896  0.1121
  166SOPE  H16X18746   7.679   6.515   8.617  1.1071 -0.2720 -1.2655
  166SOPE  H16Y18747   7.539   6.585   8.529 -0.2861  0.0324 -0.9025
  166SOPE  C31718748   7.698   6.494   8.410 -0.9236  1.2007  0.2868
  166SOPE  H17X18749   7.736   6.594   8.380  2.5994 -0.5471 -1.7973
  166SOPE  H17Y18750   7.641   6.457   8.322 -1.0869 -1.3221  1.3627
  166SOPE  C31818751   7.828   6.409   8.415 -0.1950  0.4721 -1.0673
  166SOPE  H18X18752   7.900   6.465   8.478 -1.0779  1.5768 -1.0108
  166SOPE  H18Y18753   7.878   6.404   8.315  1.7943 -1.1838 -0.0726
  166SOPE  H18Z18754   7.815   6.315   8.472 -0.1781  0.5247 -0.9784
  167SOPE     N18755   5.315   3.113   5.476  0.2066  0.3667  0.3699
  167SOPE   HN118756   5.359   3.184   5.414  0.4208 -0.2602 -0.2109
  167SOPE   HN218757   5.374   3.106   5.561  2.7861  0.0703 -1.3381
  167SOPE   HN318758   5.312   3.018   5.433  0.4945  0.2248  0.6579
  167SOPE   C1218759   5.170   3.163   5.488  0.5449 -0.0375 -0.5927
  167SOPE  H12A18760   5.115   3.083   5.542 -0.6294  0.9027 -0.3541
  167SOPE  H12B18761   5.121   3.184   5.391 -0.8730 -1.3102 -0.1931
  167SOPE   C1118762   5.178   3.293   5.561 -0.1498  0.4659  0.3691
  167SOPE  H11A18763   5.223   3.266   5.659 -0.4788  0.4075  0.5078
  167SOPE  H11B18764   5.079   3.344   5.566  1.1127  3.0704  0.8840
  167SOPE     P18765   5.278   3.530   5.519 -0.0973  0.2847 -0.1013
  167SOPE   O1318766   5.184   3.604   5.439 -0.5555  0.4921  0.3467
  167SOPE   O1418767   5.420   3.567   5.519 -0.0307 -0.0130 -0.2452
  167SOPE   O1218768   5.260   3.377   5.485 -0.4320  0.1296 -0.0772
  167SOPE   O1118769   5.230   3.535   5.670  0.2047  0.5347 -0.2431
  167SOPE    C118770   5.313   3.473   5.773  0.4240  0.4107 -0.8701
  167SOPE    HA18771   5.407   3.424   5.742 -0.7937 -1.5536 -1.5922
  167SOPE    HB18772   5.254   3.399   5.832  0.7233 -1.0059 -2.2897
  167SOPE    C218773   5.370   3.591   5.861 -0.2157  0.4131 -0.2740
  167SOPE    HS18774   5.450   3.547   5.926  0.3297  1.9239  0.1167
  167SOPE   O2118775   5.268   3.658   5.938 -0.3368  0.6363  0.3081
  167SOPE   C2118776   5.256   3.608   6.059 -0.2219 -0.0234  0.3770
  167SOPE   O2218777   5.320   3.516   6.106  0.5944  0.0798 -0.0884
  167SOPE   C2218778   5.143   3.690   6.129  0.1450  0.2075  0.1123
  167SOPE   H2R18779   5.044   3.667   6.085  0.3921 -1.1909  0.2465
  167SOPE   H2S18780   5.161   3.797   6.103  3.0971  0.0633  1.1576
  167SOPE    C318781   5.446   3.698   5.774 -0.7049 -0.0444 -0.5557
  167SOPE    HX18782   5.373   3.741   5.703 -0.0260  2.5513  0.2120
  167SOPE    HY18783   5.528   3.646   5.720 -0.9153 -0.0261 -0.8926
  167SOPE   O3118784   5.501   3.806   5.847 -0.8685 -0.1982 -0.7282
  167SOPE   C3118785   5.605   3.772   5.931  0.3145 -1.6963  0.5273
  167SOPE   O3218786   5.668   3.667   5.924  0.2630 -0.0785 -0.2649
  167SOPE   C3218787   5.620   3.872   6.042  0.1616 -0.2437 -1.1270
  167SOPE   H2X18788   5.619   3.979   6.011 -1.5299  0.8886  2.3269
  167SOPE   H2Y18789   5.719   3.858   6.089 -0.3452  1.7457  0.6654
  167SOPE   C2318790   5.129   3.671   6.281  0.0661 -0.2157  0.8915
  167SOPE   H3R18791   5.227   3.679   6.331  0.6912  0.1111 -0.3489
  167SOPE   H3S18792   5.076   3.573   6.282 -2.6105  1.0659 -1.3285
  167SOPE   C2418793   5.030   3.766   6.341 -0.0771  0.4655 -0.4155
  167SOPE   H4R18794   5.067   3.870   6.353 -0.9741  0.5867  2.0643
  167SOPE   H4S18795   4.944   3.783   6.273  2.1102  0.3057 -3.4312
  167SOPE   C2518796   4.980   3.736   6.486  0.7356  0.3449  0.0974
  167SOPE   H5R18797   4.934   3.829   6.527  1.0752  1.3977 -1.7960
  167SOPE   H5S18798   4.902   3.659   6.475  2.8938 -1.6029 -3.0001
  167SOPE   C2618799   5.089   3.679   6.573  0.1463  0.7281 -0.4327
  167SOPE   H6R18800   5.105   3.571   6.556 -3.0016 -0.5683  3.3939
  167SOPE   H6S18801   5.188   3.723   6.547 -0.5796  2.2764 -0.7022
  167SOPE   C2718802   5.061   3.698   6.722 -0.0340  0.6693  0.0186
  167SOPE   H7R18803   5.140   3.637   6.770 -0.2458  1.6288  1.6476
  167SOPE   H7S18804   5.091   3.801   6.749 -0.2528  0.1185  2.6892
  167SOPE   C2818805   4.917   3.664   6.770 -0.9556 -0.7502  0.3012
  167SOPE   H8R18806   4.841   3.739   6.737 -1.1209 -0.8719  0.3997
  167SOPE   H8S18807   4.889   3.570   6.718 -0.4244 -0.8764  0.2391
  167SOPE   C2918808   4.911   3.626   6.919 -0.1137  0.3186 -0.0918
  167SOPE   H9118809   5.006   3.585   6.957 -0.2098 -0.3517 -0.5394
  167SOPE  C21018810   4.806   3.635   7.003  0.1348 -0.5201  0.5773
  167SOPE  H10118811   4.826   3.616   7.109  1.1528  1.0057  0.6979
  167SOPE  C21118812   4.674   3.699   6.961 -0.1964  0.4844  0.1941
  167SOPE  H11R18813   4.653   3.694   6.852 -2.5983 -0.3633  0.6295
  167SOPE  H11S18814   4.682   3.809   6.973  1.2199  0.8619 -3.1048
  167SOPE  C21218815   4.549   3.651   7.035  0.3140 -0.6340  0.5312
  167SOPE  H12R18816   4.526   3.548   7.001 -1.6766 -0.0733  0.0321
  167SOPE  H12S18817   4.464   3.717   7.008  0.2559 -0.8049  0.2910
  167SOPE  C21318818   4.572   3.649   7.189  0.9821 -0.4241  0.0383
  167SOPE  H13R18819   4.621   3.747   7.207  0.6070 -0.1409 -0.4572
  167SOPE  H13S18820   4.654   3.579   7.217  1.8107 -0.2901 -1.9089
  167SOPE  C21418821   4.450   3.621   7.277 -0.2087 -0.1063 -0.3669
  167SOPE  H14R18822   4.478   3.611   7.384 -1.3269 -1.7290 -0.1970
  167SOPE  H14S18823   4.399   3.528   7.244 -2.1233  1.0108 -0.7468
  167SOPE  C21518824   4.361   3.745   7.286 -0.1362 -0.4573 -0.1929
  167SOPE  H15R18825   4.306   3.773   7.194 -1.7842  1.6813  1.3311
  167SOPE  H15S18826   4.416   3.828   7.336  1.1629 -0.5325 -1.4229
  167SOPE  C21618827   4.249   3.707   7.382 -0.3733 -0.0590 -0.1532
  167SOPE  H16R18828   4.285   3.647   7.468 -0.9005  0.0751  0.1650
  167SOPE  H16S18829   4.185   3.636   7.326  0.6533 -0.2927 -1.0607
  167SOPE  C21718830   4.175   3.828   7.432 -0.0820  0.4051  0.0348
  167SOPE  H17R18831   4.167   3.898   7.346  1.7489 -0.2054 -0.6998
  167SOPE  H17S18832   4.248   3.870   7.504  2.1852 -1.9469 -0.6868
  167SOPE  C21818833   4.043   3.798   7.489  0.1245  0.0792  0.1182
  167SOPE  H18R18834   3.978   3.748   7.414  0.3496  0.1900 -0.1520
  167SOPE  H18S18835   3.994   3.889   7.531 -1.2488  0.1590 -1.5556
  167SOPE  H18T18836   4.059   3.725   7.572  0.8112  0.0241 -0.0538
  167SOPE   C3318837   5.520   3.851   6.151 -0.8590  0.0091 -0.4209
  167SOPE   H3X18838   5.499   3.745   6.176  0.0839 -0.6065 -2.0668
  167SOPE   H3Y18839   5.422   3.894   6.124  0.0037  0.3727 -3.3320
  167SOPE   C3418840   5.551   3.922   6.290 -0.7330  0.5228 -0.1672
  167SOPE   H4X18841   5.572   4.030   6.270  1.2984  0.0255 -0.9625
  167SOPE   H4Y18842   5.648   3.875   6.315  0.3804  1.9038 -1.6333
  167SOPE   C3518843   5.443   3.902   6.395  0.1317 -0.1093  0.3223
  167SOPE   H5X18844   5.425   3.795   6.416  0.1856 -0.5715 -1.7526
  167SOPE   H5Y18845   5.343   3.938   6.361 -0.2027 -1.3657 -0.0741
  167SOPE   C3618846   5.483   3.948   6.537  0.3444  0.5670  0.2260
  167SOPE   H6X18847   5.494   4.059   6.533 -0.8664  0.7227  0.8154
  167SOPE   H6Y18848   5.583   3.907   6.561  2.1043  2.5294 -2.9755
  167SOPE   C3718849   5.363   3.928   6.635  0.1040  0.9340  0.8431
  167SOPE   H7X18850   5.367   3.823   6.672 -0.6763 -0.1032 -1.8421
  167SOPE   H7Y18851   5.264   3.927   6.585  1.1746  2.2027 -1.4414
  167SOPE   C3818852   5.371   4.032   6.735  0.1052  0.3181 -0.1491
  167SOPE   H8X18853   5.332   4.130   6.700 -1.3763 -0.1063  0.2433
  167SOPE   H8Y18854   5.477   4.053   6.762 -0.3637  2.9260 -0.0809
  167SOPE   C3918855   5.290   4.016   6.867  0.6904  0.1661 -0.2103
  167SOPE   H9X18856   5.279   3.905   6.874  2.8906 -0.0619  0.4742
  167SOPE   H9Y18857   5.190   4.065   6.863  0.3146 -0.5589  0.0378
  167SOPE  C31018858   5.369   4.055   6.992  0.7424  0.0948 -0.0483
  167SOPE  H10X18859   5.401   4.161   6.979 -0.1028  0.4058  0.3516
  167SOPE  H10Y18860   5.465   4.001   7.002  0.7679  0.2618  0.6681
  167SOPE  C31118861   5.295   4.038   7.121  0.7119 -0.0291  0.1284
  167SOPE  H11X18862   5.194   4.083   7.113  0.7116  0.1604  1.0883
  167SOPE  H11Y18863   5.354   4.098   7.194 -0.0115  0.5100  0.2715
  167SOPE  C31218864   5.289   3.894   7.173  0.5022  0.2152 -0.0712
  167SOPE  H12X18865   5.397   3.872   7.181  1.0008  1.3687 -2.5768
  167SOPE  H12Y18866   5.237   3.828   7.101  0.2563  1.3337 -0.9527
  167SOPE  C31318867   5.211   3.887   7.311  0.5709 -0.3110 -0.3306
  167SOPE  H13X18868   5.252   3.967   7.377 -2.2346  1.7890 -0.9640
  167SOPE  H13Y18869   5.238   3.788   7.353 -1.0538 -0.3053  0.8142
  167SOPE  C31418870   5.058   3.903   7.304  0.0375  0.2310 -0.0404
  167SOPE  H14X18871   5.017   3.842   7.221 -1.8197  1.5385 -0.1289
  167SOPE  H14Y18872   5.025   4.003   7.270 -0.4683 -0.6294 -2.2883
  167SOPE  C31518873   5.002   3.873   7.440  0.2704 -0.0512 -0.0769
  167SOPE  H15X18874   5.009   3.967   7.500 -2.9441  0.8021 -0.8111
  167SOPE  H15Y18875   5.055   3.792   7.493  0.1178  0.1292  0.3559
  167SOPE  C31618876   4.850   3.841   7.446  0.0970 -0.4226 -0.5521
  167SOPE  H16X18877   4.815   3.756   7.383 -0.7525 -0.6440  0.1896
  167SOPE  H16Y18878   4.791   3.927   7.409  1.4232  0.1354 -1.4349
  167SOPE  C31718879   4.801   3.802   7.586  0.0948 -0.0031  0.2446
  167SOPE  H17X18880   4.695   3.833   7.601  0.5641  0.7638  2.2726
  167SOPE  H17Y18881   4.849   3.858   7.669 -0.1750  1.0538 -0.3006
  167SOPE  C31818882   4.827   3.652   7.608  0.6799 -0.2462 -0.1242
  167SOPE  H18X18883   4.751   3.586   7.561  0.7266 -0.7819  0.5494
  167SOPE  H18Y18884   4.823   3.640   7.718 -0.6331  0.1586 -0.1108
  167SOPE  H18Z18885   4.930   3.626   7.573  1.1652 -1.3241  1.9515
  168SOPE     N18886   4.101   0.466   5.679 -0.1663  0.7333  0.2785
  168SOPE   HN118887   4.011   0.446   5.727  0.3566 -3.2807 -0.0778
  168SOPE   HN218888   4.089   0.530   5.598  1.2649  2.1733  1.1566
  168SOPE   HN318889   4.129   0.371   5.647  0.5194  0.2696  2.1756
  168SOPE   C1218890   4.181   0.538   5.778 -0.6657  0.6289  0.4483
  168SOPE  H12A18891   4.184   0.476   5.870 -2.9847  0.2361  0.3148
  168SOPE  H12B18892   4.119   0.625   5.807 -2.0926  1.0909 -3.4138
  168SOPE   C1118893   4.322   0.585   5.729 -0.0239 -0.2903 -0.1324
  168SOPE  H11A18894   4.384   0.493   5.736  1.2786  0.6760  1.7892
  168SOPE  H11B18895   4.371   0.663   5.792  2.0629 -0.8406 -0.9705
  168SOPE     P18896   4.388   0.752   5.540  0.0578 -0.1236 -0.0479
  168SOPE   O1318897   4.294   0.861   5.574  0.5475 -0.0018 -0.2782
  168SOPE   O1418898   4.417   0.727   5.395 -0.1537 -0.1187  0.0671
  168SOPE   O1218899   4.313   0.625   5.593 -0.2372 -0.6956  0.0376
  168SOPE   O1118900   4.528   0.761   5.614 -0.0776 -0.2495  0.5740
  168SOPE    C118901   4.548   0.858   5.715  0.4932  0.2017  0.3776
  168SOPE    HA18902   4.455   0.878   5.772 -0.4422 -1.8698 -0.3356
  168SOPE    HB18903   4.579   0.958   5.676  2.8151 -0.3554  0.6652
  168SOPE    C218904   4.665   0.800   5.807 -0.3736 -0.5350  0.2988
  168SOPE    HS18905   4.757   0.804   5.745 -0.4812  1.2932  0.2163
  168SOPE   O2118906   4.633   0.670   5.842  0.0349 -0.1846 -0.0166
  168SOPE   C2118907   4.739   0.588   5.860 -0.7032  1.4231  0.3613
  168SOPE   O2218908   4.859   0.621   5.855  0.3324 -0.1460  0.0426
  168SOPE   C2218909   4.692   0.445   5.881  0.4451  0.3927  0.5526
  168SOPE   H2R18910   4.718   0.387   5.790 -0.9702 -1.5783  1.3296
  168SOPE   H2S18911   4.582   0.437   5.892  0.3065  1.0575 -0.2462
  168SOPE    C318912   4.687   0.885   5.938  0.5088 -0.1203  0.5598
  168SOPE    HX18913   4.721   0.985   5.903  2.4683 -0.7932  0.4568
  168SOPE    HY18914   4.774   0.842   5.991  0.9492  0.1289  0.0427
  168SOPE   O3118915   4.566   0.889   6.019 -0.1153  0.6766 -0.0910
  168SOPE   C3118916   4.496   1.001   6.021  0.0485  0.1184  0.4480
  168SOPE   O3218917   4.523   1.097   5.949 -0.2276  0.3240  0.3511
  168SOPE   C3218918   4.382   0.995   6.120  0.0512 -0.1820 -0.1021
  168SOPE   H2X18919   4.292   1.035   6.067  0.7865 -0.6418 -1.7402
  168SOPE   H2Y18920   4.405   1.057   6.210  0.1214  0.4269 -0.5289
  168SOPE   C2318921   4.759   0.373   6.007  0.1939 -0.7014 -0.6778
  168SOPE   H3R18922   4.863   0.408   6.023 -1.0915  2.6208  1.7246
  168SOPE   H3S18923   4.761   0.265   5.984 -0.2462 -0.7450 -0.5389
  168SOPE   C2418924   4.661   0.384   6.123 -0.5908 -0.1229 -0.5782
  168SOPE   H4R18925   4.564   0.337   6.093 -3.5708  3.2656  2.7494
  168SOPE   H4S18926   4.690   0.304   6.194 -1.7971 -2.7125 -2.7852
  168SOPE   C2518927   4.643   0.518   6.194  0.4599  0.5653 -0.0451
  168SOPE   H5R18928   4.597   0.587   6.120 -2.3805 -0.9340  0.1778
  168SOPE   H5S18929   4.572   0.490   6.275  1.1128 -0.9624  0.0248
  168SOPE   C2618930   4.770   0.584   6.249 -0.1266 -0.7566 -0.3394
  168SOPE   H6R18931   4.830   0.512   6.309  0.3258 -0.1042  0.0063
  168SOPE   H6S18932   4.830   0.616   6.161  0.6370 -0.4386  0.2883
  168SOPE   C2718933   4.746   0.715   6.335  0.5661  0.3233 -0.3558
  168SOPE   H7R18934   4.841   0.765   6.363 -0.3071  1.9425 -0.1957
  168SOPE   H7S18935   4.687   0.788   6.275  3.0437  1.7897 -1.1090
  168SOPE   C2818936   4.668   0.664   6.462 -0.2593  0.2843 -0.6329
  168SOPE   H8R18937   4.561   0.638   6.449 -0.2280 -0.8247  1.0746
  168SOPE   H8S18938   4.709   0.561   6.471 -0.5086  0.2863  0.7259
  168SOPE   C2918939   4.693   0.748   6.586 -0.0455 -0.2569 -0.2246
  168SOPE   H9118940   4.787   0.721   6.636 -0.2266  2.2535  1.6837
  168SOPE  C21018941   4.609   0.843   6.633  0.0275 -1.0822 -0.2483
  168SOPE  H10118942   4.657   0.907   6.708  3.7722 -1.2062 -2.3178
  168SOPE  C21118943   4.483   0.890   6.554 -0.9525  0.2661 -0.1152
  168SOPE  H11R18944   4.409   0.810   6.576  0.8948 -0.9345  2.0230
  168SOPE  H11S18945   4.511   0.894   6.447 -0.8908 -0.9215 -0.1563
  168SOPE  C21218946   4.431   1.027   6.602  0.5882 -0.1614  0.0253
  168SOPE  H12R18947   4.427   1.019   6.713 -0.1133 -0.5713 -0.0217
  168SOPE  H12S18948   4.329   1.045   6.564 -0.1218  0.1997  1.9774
  168SOPE  C21318949   4.528   1.147   6.577 -0.0924 -0.2224  0.1313
  168SOPE  H13R18950   4.566   1.127   6.475 -4.1901 -1.0944 -1.4277
  168SOPE  H13S18951   4.611   1.152   6.650 -0.1396  0.1026  0.1670
  168SOPE  C21418952   4.448   1.270   6.583 -0.0681 -0.7087 -0.0556
  168SOPE  H14R18953   4.515   1.356   6.604 -2.5549  1.1760  0.7498
  168SOPE  H14S18954   4.382   1.267   6.672 -1.2086  1.7552 -0.7471
  168SOPE  C21518955   4.378   1.301   6.449  0.2863  0.2255  0.7330
  168SOPE  H15R18956   4.300   1.378   6.470  0.5403  0.6841  0.0373
  168SOPE  H15S18957   4.316   1.213   6.422 -0.0615  0.0959  1.9051
  168SOPE  C21618958   4.461   1.346   6.333 -0.2849  0.9062  0.2604
  168SOPE  H16R18959   4.541   1.272   6.309 -1.3920 -1.1536  2.4777
  168SOPE  H16S18960   4.511   1.439   6.367  0.3986  0.7432 -0.2924
  168SOPE  C21718961   4.382   1.378   6.204 -0.3566 -0.5900  0.0141
  168SOPE  H17R18962   4.294   1.439   6.231 -0.5373  0.0347 -1.8359
  168SOPE  H17S18963   4.346   1.292   6.143  0.2657 -0.8331 -0.0251
  168SOPE  C21818964   4.451   1.464   6.097 -0.5691 -0.5237 -0.3084
  168SOPE  H18R18965   4.383   1.535   6.046 -1.5563  0.4452  2.1847
  168SOPE  H18S18966   4.511   1.402   6.027  2.3616 -0.7872  2.1951
  168SOPE  H18T18967   4.522   1.531   6.150  0.0628 -1.0478 -0.4672
  168SOPE   C3318968   4.345   0.852   6.173 -0.4645  0.5233 -1.1485
  168SOPE   H3X18969   4.317   0.859   6.280  0.9548  0.5133 -0.7608
  168SOPE   H3Y18970   4.439   0.795   6.183  0.0081  1.5354  0.5353
  168SOPE   C3418971   4.246   0.772   6.089 -0.2000 -0.0712 -0.4166
  168SOPE   H4X18972   4.297   0.725   6.002 -0.9692  0.3180 -1.0970
  168SOPE   H4Y18973   4.179   0.846   6.041  1.1224  0.5424 -1.3592
  168SOPE   C3518974   4.152   0.681   6.159 -0.4409 -0.2940  0.1260
  168SOPE   H5X18975   4.087   0.630   6.085 -0.4047  0.2374 -0.2771
  168SOPE   H5Y18976   4.084   0.738   6.226 -2.0341  0.4800 -2.0169
  168SOPE   C3618977   4.221   0.574   6.246 -0.3641 -0.9080  0.4055
  168SOPE   H6X18978   4.289   0.619   6.321 -1.0686  1.2172 -0.1667
  168SOPE   H6Y18979   4.279   0.506   6.179 -1.1164  0.0238 -1.2605
  168SOPE   C3718980   4.124   0.488   6.323 -0.1483 -0.4183 -0.2950
  168SOPE   H7X18981   4.188   0.425   6.388 -1.1032  1.8143  3.0899
  168SOPE   H7Y18982   4.063   0.424   6.255 -1.9504  1.5842 -0.6816
  168SOPE   C3818983   4.046   0.561   6.431  0.1497  0.1807  0.2070
  168SOPE   H8X18984   4.002   0.483   6.497 -0.3295 -0.5557 -0.9681
  168SOPE   H8Y18985   3.966   0.627   6.392 -0.9428 -0.1900  1.6942
  168SOPE   C3918986   4.127   0.663   6.512  0.3705 -0.1121 -0.5999
  168SOPE   H9X18987   4.177   0.748   6.461  1.1768  0.0064  0.3355
  168SOPE   H9Y18988   4.209   0.611   6.567 -1.1021 -2.2880 -0.2965
  168SOPE  C31018989   4.048   0.739   6.623  0.4652 -0.1266 -0.2677
  168SOPE  H10X18990   3.968   0.792   6.566  2.5597  2.0862 -1.3328
  168SOPE  H10Y18991   4.109   0.820   6.669 -1.2910 -0.0380  2.1480
  168SOPE  C31118992   3.988   0.654   6.735  0.0569  0.2002 -0.0497
  168SOPE  H11X18993   4.060   0.581   6.777 -0.4197 -0.3489 -0.1830
  168SOPE  H11Y18994   3.899   0.596   6.704  0.6015 -0.9602  0.5115
  168SOPE  C31218995   3.938   0.750   6.845  0.5081  0.1618  0.5878
  168SOPE  H12X18996   3.850   0.801   6.799 -0.1527 -1.9458 -0.6128
  168SOPE  H12Y18997   4.022   0.815   6.878  1.8265 -0.8811 -0.5719
  168SOPE  C31318998   3.898   0.683   6.978 -0.1403  0.8054  0.1127
  168SOPE  H13X18999   3.982   0.622   7.016 -1.8769 -2.3128 -0.7140
  168SOPE  H13Y19000   3.810   0.620   6.955  0.6755  0.4187 -2.2017
  168SOPE  C31419001   3.871   0.799   7.071  0.2624  0.4121  0.0816
  168SOPE  H14X19002   3.787   0.860   7.031 -0.5798 -1.7257 -1.6007
  168SOPE  H14Y19003   3.958   0.867   7.082  0.4406 -0.1578  2.6735
  168SOPE  C31519004   3.826   0.745   7.213  0.6869  0.3676 -0.1902
  168SOPE  H15X19005   3.738   0.677   7.208 -0.3179  1.3046  2.8089
  168SOPE  H15Y19006   3.798   0.842   7.259  1.0153  0.5943 -0.4653
  168SOPE  C31619007   3.942   0.672   7.284  1.4270  0.4091  0.7800
  168SOPE  H16X19008   4.010   0.759   7.292 -0.8302  2.5075 -1.1982
  168SOPE  H16Y19009   3.975   0.598   7.208  0.2812 -1.4541  2.0122
  168SOPE  C31719010   3.912   0.604   7.418  0.2663  0.1609 -0.4821
  168SOPE  H17X19011   3.814   0.551   7.408 -0.0394  0.9092 -1.6813
  168SOPE  H17Y19012   3.904   0.689   7.488  1.8251  0.5234 -0.7043
  168SOPE  C31819013   4.025   0.513   7.450 -0.0787  0.6677 -0.5886
  168SOPE  H18X19014   4.053   0.445   7.366  1.4469 -0.1959  0.5636
  168SOPE  H18Y19015   4.000   0.447   7.536  0.0004  0.6250 -0.5985
  168SOPE  H18Z19016   4.118   0.570   7.471  0.9278 -1.0746 -0.0844
  169SOPE     N19017   0.507   3.235   5.688 -0.5750 -0.0225 -0.3558
  169SOPE   HN119018   0.468   3.165   5.754 -1.0737  2.7624  2.5507
  169SOPE   HN219019   0.600   3.263   5.725  0.5208 -0.2390 -2.7303
  169SOPE   HN319020   0.446   3.318   5.681 -0.9903 -0.4512 -2.6748
  169SOPE   C1219021   0.516   3.174   5.553 -0.1545  0.5352  0.4355
  169SOPE  H12A19022   0.519   3.251   5.474 -0.7486  0.5694  0.4453
  169SOPE  H12B19023   0.432   3.103   5.538  1.5035 -1.3313 -0.6590
  169SOPE   C1119024   0.652   3.094   5.533 -0.3269  0.0513  0.1221
  169SOPE  H11A19025   0.738   3.152   5.575 -1.3906  0.5854  1.6363
  169SOPE  H11B19026   0.669   3.074   5.425 -1.6724 -3.2595  0.4307
  169SOPE     P19027   0.746   2.869   5.577 -0.1123 -0.0117 -0.1549
  169SOPE   O1319028   0.881   2.920   5.592 -0.9605 -0.6952 -0.2696
  169SOPE   O1419029   0.702   2.798   5.455  0.0618  0.2076  0.2857
  169SOPE   O1219030   0.642   2.979   5.614 -0.0581 -1.0493  0.1203
  169SOPE   O1119031   0.729   2.769   5.695 -0.3131  0.0013 -0.5686
  169SOPE    C119032   0.646   2.810   5.805 -0.0608  0.6647  0.0888
  169SOPE    HA19033   0.604   2.716   5.847 -1.3954  1.0117 -0.4317
  169SOPE    HB19034   0.552   2.856   5.768 -0.5672  0.4621  1.0798
  169SOPE    C219035   0.729   2.893   5.905  0.0812  0.2182 -0.7334
  169SOPE    HS19036   0.795   2.969   5.858 -1.7605  2.7100  0.5265
  169SOPE   O2119037   0.808   2.806   5.987 -0.0302  0.1131 -0.0354
  169SOPE   C2119038   0.929   2.854   6.032  0.9527  0.6623 -0.5195
  169SOPE   O2219039   0.972   2.963   5.999 -0.5565 -0.3138 -0.2739
  169SOPE   C2219040   1.004   2.747   6.114 -0.2357  0.0687  0.3714
  169SOPE   H2R19041   1.111   2.767   6.093 -0.3033 -0.8233 -0.9626
  169SOPE   H2S19042   0.991   2.649   6.063  0.3857  1.6512 -3.1237
  169SOPE    C319043   0.643   2.976   5.999 -0.7118 -0.6133 -0.4475
  169SOPE    HX19044   0.592   2.910   6.073 -2.5427  3.0595  1.8793
  169SOPE    HY19045   0.554   3.012   5.943 -1.8699 -1.4532  0.7460
  169SOPE   O3119046   0.713   3.082   6.057  0.0189  0.4123 -0.3556
  169SOPE   C3119047   0.744   3.191   5.996  0.3037 -0.5541  0.1293
  169SOPE   O3219048   0.694   3.230   5.892  0.6112  1.0089 -0.6240
  169SOPE   C3219049   0.846   3.266   6.080 -0.5681  0.3709 -0.3300
  169SOPE   H2X19050   0.921   3.293   6.002 -2.1128 -0.5826 -2.2468
  169SOPE   H2Y19051   0.895   3.196   6.150 -0.5698  0.4262 -0.2739
  169SOPE   C2319052   0.971   2.743   6.258  0.1044  0.4385  0.0168
  169SOPE   H3R19053   0.950   2.844   6.300 -1.0003  1.1373 -2.0441
  169SOPE   H3S19054   1.064   2.714   6.311  0.8919 -0.4293 -1.7507
  169SOPE   C2419055   0.849   2.646   6.284  0.0820 -0.1289  0.1147
  169SOPE   H4R19056   0.753   2.683   6.243  0.2649 -0.0424 -0.2352
  169SOPE   H4S19057   0.889   2.554   6.235  4.3907  1.6807 -0.1907
  169SOPE   C2519058   0.828   2.620   6.427 -0.5660  0.2574 -0.7332
  169SOPE   H5R19059   0.755   2.538   6.440  0.0964 -0.4048 -1.1532
  169SOPE   H5S19060   0.925   2.587   6.469  0.1043 -1.8448 -3.5833
  169SOPE   C2619061   0.768   2.747   6.495  0.1147 -0.2293  0.4377
  169SOPE   H6R19062   0.841   2.828   6.517 -0.4586  0.4913 -0.2675
  169SOPE   H6S19063   0.684   2.788   6.435  0.6571  0.9557  0.4751
  169SOPE   C2719064   0.701   2.709   6.626 -0.3034  0.1124 -0.2105
  169SOPE   H7R19065   0.639   2.787   6.676  0.8892  0.4002  0.8729
  169SOPE   H7S19066   0.640   2.617   6.626 -0.5321  0.2531 -1.1245
  169SOPE   C2819067   0.811   2.675   6.732 -0.0354 -0.3184 -0.2020
  169SOPE   H8R19068   0.760   2.607   6.803 -1.0161 -0.5905 -1.1405
  169SOPE   H8S19069   0.892   2.617   6.682 -0.1568 -1.2982  0.7004
  169SOPE   C2919070   0.873   2.798   6.790  0.5807 -0.0789 -1.4241
  169SOPE   H9119071   0.922   2.872   6.724 -0.5472  2.5711  0.5361
  169SOPE  C21019072   0.877   2.823   6.919 -0.3695 -0.4216  0.0240
  169SOPE  H10119073   0.930   2.916   6.945 -3.0946  1.2915 -0.1789
  169SOPE  C21119074   0.835   2.734   7.037  0.4606  0.0123  0.1728
  169SOPE  H11R19075   0.919   2.672   7.077 -1.1604 -0.7450  2.6617
  169SOPE  H11S19076   0.757   2.661   7.011  2.0917 -2.0019  0.6782
  169SOPE  C21219077   0.766   2.812   7.151 -0.0043 -0.6556 -0.0054
  169SOPE  H12R19078   0.729   2.742   7.228  0.6535 -0.7330  0.2438
  169SOPE  H12S19079   0.674   2.864   7.115  0.5152 -0.1814 -0.6828
  169SOPE  C21319080   0.849   2.928   7.217 -0.5732  0.5001 -0.0777
  169SOPE  H13R19081   0.793   2.964   7.306  0.1320 -0.4785  0.8053
  169SOPE  H13S19082   0.851   3.018   7.153 -0.5550  0.6907  0.1895
  169SOPE  C21419083   0.994   2.900   7.284  0.5751  0.3393  0.4917
  169SOPE  H14R19084   1.064   2.872   7.202  1.5425  0.6464  1.1962
  169SOPE  H14S19085   0.980   2.825   7.364 -0.6720 -0.6213 -0.5731
  169SOPE  C21519086   1.052   3.021   7.352  0.2536 -0.2646 -0.2010
  169SOPE  H15R19087   0.976   3.071   7.415  1.3842 -0.5830  1.4877
  169SOPE  H15S19088   1.089   3.089   7.273 -0.2959  0.5104  0.1956
  169SOPE  C21619089   1.160   2.963   7.443  0.2675 -0.3119  0.3285
  169SOPE  H16R19090   1.240   2.908   7.389 -0.6659 -2.0079  0.6194
  169SOPE  H16S19091   1.115   2.883   7.505  1.7527 -1.8050 -0.4316
  169SOPE  C21719092   1.214   3.075   7.536 -0.5602 -0.0173  0.7131
  169SOPE  H17R19093   1.130   3.131   7.583 -0.1075  1.4766 -0.1774
  169SOPE  H17S19094   1.261   3.150   7.468 -1.5758  0.3235  0.3569
  169SOPE  C21819095   1.305   3.023   7.640 -0.8305 -0.2437  0.7421
  169SOPE  H18R19096   1.388   2.964   7.595 -0.9987 -0.2735  0.4712
  169SOPE  H18S19097   1.250   2.956   7.709 -0.2743 -1.9955 -0.4612
  169SOPE  H18T19098   1.340   3.104   7.708 -0.4079  0.4416 -0.2711
  169SOPE   C3319099   0.772   3.383   6.149 -0.0232 -0.0832 -0.4696
  169SOPE   H3X19100   0.706   3.337   6.225  2.8155  0.4881  2.5742
  169SOPE   H3Y19101   0.731   3.449   6.068 -1.3829 -1.4774 -0.9665
  169SOPE   C3419102   0.861   3.474   6.232 -0.3472 -0.4201  0.3778
  169SOPE   H4X19103   0.813   3.572   6.254 -0.7184 -0.3385 -0.7150
  169SOPE   H4Y19104   0.955   3.490   6.175 -0.4809 -1.0460 -0.0332
  169SOPE   C3519105   0.905   3.417   6.365  0.2042  0.2233  0.3940
  169SOPE   H5X19106   0.993   3.465   6.413  0.4904 -1.0301  1.1484
  169SOPE   H5Y19107   0.945   3.317   6.341 -0.3455  0.0981 -0.0224
  169SOPE   C3619108   0.794   3.400   6.474  0.0690  0.0677 -0.2116
  169SOPE   H6X19109   0.850   3.349   6.555  3.1046  3.0550 -0.2515
  169SOPE   H6Y19110   0.717   3.327   6.439  0.6170 -1.3401  1.3547
  169SOPE   C3719111   0.733   3.525   6.534  0.2726 -0.0275 -0.3067
  169SOPE   H7X19112   0.672   3.497   6.622  1.6457 -0.8311  0.4177
  169SOPE   H7Y19113   0.661   3.571   6.462 -2.3061 -0.0448  2.0863
  169SOPE   C3819114   0.828   3.627   6.585  0.0718  0.1507 -0.1535
  169SOPE   H8X19115   0.877   3.680   6.501  2.5414 -2.6930 -0.6590
  169SOPE   H8Y19116   0.763   3.706   6.629 -0.1548  0.5113 -1.1036
  169SOPE   C3919117   0.937   3.573   6.681 -0.0716  0.7950 -0.9475
  169SOPE   H9X19118   1.011   3.513   6.624  1.8374  1.5393  0.6304
  169SOPE   H9Y19119   0.891   3.503   6.753  1.4369 -0.4002 -1.0999
  169SOPE  C31019120   1.021   3.683   6.749  0.9772  0.5731  0.3396
  169SOPE  H10X19121   0.963   3.777   6.754  0.5300  0.3099  0.1611
  169SOPE  H10Y19122   1.114   3.694   6.689  1.1304  0.8742  0.6271
  169SOPE  C31119123   1.066   3.643   6.893 -0.5065 -0.6603  0.2007
  169SOPE  H11X19124   1.129   3.552   6.892 -2.2946 -2.0396  2.7367
  169SOPE  H11Y19125   0.979   3.613   6.955 -0.4023 -1.0846  0.1409
  169SOPE  C31219126   1.129   3.761   6.963 -0.4001 -0.3035  0.0133
  169SOPE  H12X19127   1.082   3.860   6.943 -1.0472 -0.8696 -1.3688
  169SOPE  H12Y19128   1.224   3.777   6.908 -0.4125 -1.1530 -0.2773
  169SOPE  C31319129   1.144   3.731   7.113  0.2984 -0.3652 -0.4868
  169SOPE  H13X19130   1.195   3.632   7.117 -0.2497 -0.6893 -1.2073
  169SOPE  H13Y19131   1.041   3.703   7.144 -0.0843 -0.1562 -1.5310
  169SOPE  C31419132   1.221   3.832   7.189 -0.4785  0.4540 -0.1918
  169SOPE  H14X19133   1.166   3.929   7.194 -0.3591  0.4713  1.5383
  169SOPE  H14Y19134   1.317   3.846   7.136  0.0296 -2.0828 -0.0941
  169SOPE  C31519135   1.239   3.804   7.341 -0.0192 -0.7697  0.9568
  169SOPE  H15X19136   1.318   3.725   7.342  1.5703  0.6966 -0.5302
  169SOPE  H15Y19137   1.145   3.755   7.374 -2.5992  0.5519 -3.4593
  169SOPE  C31619138   1.276   3.932   7.420  0.2924  0.2634  0.3220
  169SOPE  H16X19139   1.193   4.007   7.414  1.5404  1.7977  1.4416
  169SOPE  H16Y19140   1.369   3.978   7.382  1.8498 -0.3646  3.1142
  169SOPE  C31719141   1.294   3.887   7.565 -0.7340 -0.5363 -0.3920
  169SOPE  H17X19142   1.373   3.808   7.565 -1.7604 -1.6855  2.5583
  169SOPE  H17Y19143   1.197   3.844   7.596 -0.7182  0.1706  0.7197
  169SOPE  C31819144   1.330   4.001   7.655  0.3801 -0.0202 -0.0873
  169SOPE  H18X19145   1.364   3.958   7.752 -0.6490 -1.4668 -0.3285
  169SOPE  H18Y19146   1.235   4.058   7.663  0.9496  0.9813 -0.3725
  169SOPE  H18Z19147   1.408   4.066   7.610  1.8086 -1.3586  0.3539
  170SOPE     N19148   2.470   6.760   5.617  0.3411  0.1324 -0.1140
  170SOPE   HN119149   2.374   6.794   5.596  0.6287  0.3133 -1.2525
  170SOPE   HN219150   2.524   6.849   5.626 -1.2564  1.0077  1.4228
  170SOPE   HN319151   2.514   6.714   5.535 -0.3623 -1.8004  0.5445
  170SOPE   C1219152   2.472   6.670   5.737 -0.6017 -0.1143  0.0656
  170SOPE  H12A19153   2.558   6.701   5.799 -1.5828  3.4211 -0.1559
  170SOPE  H12B19154   2.496   6.568   5.699 -0.0353 -0.3780  1.1089
  170SOPE   C1119155   2.344   6.672   5.817  0.8706 -0.4232  0.3218
  170SOPE  H11A19156   2.325   6.774   5.856 -0.9669 -0.5796 -0.0576
  170SOPE  H11B19157   2.355   6.603   5.904 -0.2104  1.2015  1.8116
  170SOPE     P19158   2.202   6.479   5.701 -0.1070  0.2869 -0.3330
  170SOPE   O1319159   2.326   6.400   5.713  0.0841 -0.1861  0.0173
  170SOPE   O1419160   2.139   6.496   5.570 -0.1836  0.1740  0.4676
  170SOPE   O1219161   2.237   6.630   5.741 -0.6479 -0.5077  0.2870
  170SOPE   O1119162   2.090   6.433   5.808  0.0206 -0.2918 -0.7080
  170SOPE    C119163   2.013   6.532   5.884 -0.0920 -0.1480  0.2108
  170SOPE    HA19164   1.908   6.498   5.895 -0.7573  1.5438 -0.5381
  170SOPE    HB19165   2.012   6.634   5.839 -0.0472 -0.6213 -0.9011
  170SOPE    C219166   2.066   6.525   6.022  0.0920  0.0016 -0.8952
  170SOPE    HS19167   2.167   6.570   6.025  0.7806 -1.5268  0.1890
  170SOPE   O2119168   2.061   6.382   6.062 -0.0354 -1.0779 -0.1739
  170SOPE   C2119169   2.161   6.342   6.128 -0.4103 -0.3584  0.1949
  170SOPE   O2219170   2.266   6.408   6.149  0.6433  0.8658  0.5799
  170SOPE   C2219171   2.145   6.210   6.200 -0.4145  0.4415  0.0778
  170SOPE   H2R19172   2.234   6.198   6.266  0.1815  0.3306 -0.7388
  170SOPE   H2S19173   2.151   6.130   6.124  0.7046 -1.2025  1.8204
  170SOPE    C319174   1.963   6.590   6.122 -0.0340  0.0919 -0.0543
  170SOPE    HX19175   1.880   6.520   6.142  0.3291 -0.4239 -0.3450
  170SOPE    HY19176   1.921   6.680   6.071 -1.2268 -1.2405 -1.5291
  170SOPE   O3119177   2.041   6.624   6.241  0.4756  0.8986  0.3672
  170SOPE   C3119178   2.089   6.748   6.245 -0.3034  0.4374 -0.3134
  170SOPE   O3219179   2.068   6.833   6.162  0.4419 -0.4664 -0.1626
  170SOPE   C3219180   2.164   6.775   6.373  0.2884  0.6851 -0.4504
  170SOPE   H2X19181   2.270   6.798   6.350  0.0674  0.2513 -2.0567
  170SOPE   H2Y19182   2.173   6.674   6.418  1.1863  1.0260  0.1584
  170SOPE   C2319183   2.020   6.198   6.285  0.8367  0.0696 -0.6751
  170SOPE   H3R19184   1.999   6.096   6.324 -1.4099  0.5262 -0.5231
  170SOPE   H3S19185   1.933   6.207   6.215 -0.2707  3.5000  0.9054
  170SOPE   C2419186   2.002   6.298   6.395 -0.0380 -0.2441  0.4075
  170SOPE   H4R19187   2.030   6.396   6.350  2.2571 -1.3148 -0.6927
  170SOPE   H4S19188   1.902   6.327   6.434 -0.0734  0.2089 -0.0046
  170SOPE   C2519189   2.088   6.262   6.514 -0.9652 -0.0536 -0.2087
  170SOPE   H5R19190   2.065   6.159   6.551  0.4635  0.1076  1.2651
  170SOPE   H5S19191   2.194   6.249   6.487 -1.3130 -4.4499 -0.3087
  170SOPE   C2619192   2.072   6.347   6.643 -0.1337 -0.7751  0.5019
  170SOPE   H6R19193   2.083   6.456   6.626 -0.5068 -1.0001 -1.4223
  170SOPE   H6S19194   1.974   6.322   6.689 -1.3926  3.6388  0.6735
  170SOPE   C2719195   2.156   6.310   6.763 -0.9694 -0.3381 -0.1693
  170SOPE   H7R19196   2.262   6.315   6.731 -0.4229 -2.1472  1.2144
  170SOPE   H7S19197   2.154   6.382   6.847 -0.0125 -2.0741  1.4139
  170SOPE   C2819198   2.143   6.176   6.830  0.6106 -0.2506 -0.2429
  170SOPE   H8R19199   2.156   6.109   6.742  2.1379 -0.9154  0.4532
  170SOPE   H8S19200   2.233   6.167   6.894 -0.4688 -1.2942  1.2033
  170SOPE   C2919201   2.018   6.147   6.906 -0.0855  0.5947 -0.2183
  170SOPE   H9119202   1.927   6.122   6.848 -0.2415 -1.0308  0.6894
  170SOPE  C21019203   2.010   6.117   7.040 -0.1027  0.0290  0.0292
  170SOPE  H10119204   1.912   6.080   7.074  0.7508 -2.1552  0.3059
  170SOPE  C21119205   2.120   6.102   7.138 -0.2405  0.2022  1.2212
  170SOPE  H11R19206   2.094   6.138   7.240 -1.1360 -0.7980  1.3623
  170SOPE  H11S19207   2.210   6.153   7.097 -0.3707  1.1046  2.0105
  170SOPE  C21219208   2.155   5.952   7.152  0.2437 -0.1303 -0.1225
  170SOPE  H12R19209   2.184   5.923   7.049  0.3795  2.1224 -0.7721
  170SOPE  H12S19210   2.072   5.883   7.180  0.2591 -0.1442 -0.1116
  170SOPE  C21319211   2.284   5.929   7.233  0.5280 -0.9421 -0.0120
  170SOPE  H13R19212   2.272   5.983   7.329 -1.9309  2.0895 -1.8278
  170SOPE  H13S19213   2.371   5.974   7.181 -0.2649 -0.1574 -0.7076
  170SOPE  C21419214   2.313   5.784   7.250  0.1588 -0.4061  0.3118
  170SOPE  H14R19215   2.324   5.727   7.155  2.5755  1.0230 -0.3304
  170SOPE  H14S19216   2.229   5.738   7.307 -0.4239 -1.0108 -0.9789
  170SOPE  C21519217   2.442   5.757   7.324 -0.3001 -0.4022  0.2262
  170SOPE  H15R19218   2.428   5.790   7.429 -1.1594  0.0287 -0.0151
  170SOPE  H15S19219   2.529   5.813   7.281 -1.4972  1.0096 -0.4471
  170SOPE  C21619220   2.472   5.606   7.332 -0.4772 -0.1753  0.4918
  170SOPE  H16R19221   2.500   5.569   7.230 -0.8555 -0.2732  0.4247
  170SOPE  H16S19222   2.377   5.554   7.356  0.0021 -1.5616 -0.4507
  170SOPE  C21719223   2.575   5.564   7.441 -0.1752 -0.2246 -0.7812
  170SOPE  H17R19224   2.548   5.621   7.532 -0.1848 -0.4326 -0.6527
  170SOPE  H17S19225   2.679   5.594   7.417  1.0358 -1.2731  2.5979
  170SOPE  C21819226   2.575   5.423   7.489 -0.2732  0.7446  0.5781
  170SOPE  H18R19227   2.601   5.360   7.401  0.6186  0.7115  0.8510
  170SOPE  H18S19228   2.480   5.389   7.534 -0.0193 -0.4232  0.2567
  170SOPE  H18T19229   2.648   5.419   7.572  0.5090 -2.6266 -0.1399
  170SOPE   C3319230   2.083   6.875   6.467  0.2255 -0.0127 -0.8788
  170SOPE   H3X19231   1.975   6.852   6.480  0.3987 -0.6668 -0.5100
  170SOPE   H3Y19232   2.096   6.971   6.413  1.6924  0.2316 -0.1341
  170SOPE   C3419233   2.141   6.883   6.609 -0.6837 -0.3172  0.3383
  170SOPE   H4X19234   2.080   6.960   6.662 -2.5936 -1.3269 -0.3040
  170SOPE   H4Y19235   2.248   6.910   6.596 -0.2505 -2.7077 -1.9260
  170SOPE   C3519236   2.132   6.752   6.685  0.1643 -0.1720 -0.1388
  170SOPE   H5X19237   2.195   6.664   6.662  1.2599  0.3868  0.6216
  170SOPE   H5Y19238   2.027   6.719   6.669  0.0952 -0.5484  0.9917
  170SOPE   C3619239   2.140   6.779   6.834  0.3343  0.4233  0.1923
  170SOPE   H6X19240   2.064   6.859   6.851  1.1096  0.7861  2.1719
  170SOPE   H6Y19241   2.241   6.798   6.874  0.5425 -1.8336  0.8816
  170SOPE   C3719242   2.088   6.668   6.921  0.0617  0.2975 -0.6693
  170SOPE   H7X19243   2.144   6.575   6.898 -0.8123 -0.4082 -0.0487
  170SOPE   H7Y19244   1.988   6.645   6.880 -1.2967  2.7338  1.0018
  170SOPE   C3819245   2.094   6.697   7.072  0.9679  0.4323  0.0786
  170SOPE   H8X19246   2.034   6.790   7.085  0.4235  0.4663 -2.1719
  170SOPE   H8Y19247   2.198   6.711   7.107  1.8102 -1.0630 -1.6529
  170SOPE   C3919248   2.036   6.579   7.147 -0.7995  0.0150  0.1750
  170SOPE   H9X19249   2.080   6.483   7.113 -3.0638 -0.5626 -1.3864
  170SOPE   H9Y19250   1.926   6.577   7.128 -0.4352 -1.4597 -2.2364
  170SOPE  C31019251   2.054   6.580   7.305  0.5066  0.5441 -0.0191
  170SOPE  H10X19252   2.001   6.670   7.342  2.1441  0.8332  1.7474
  170SOPE  H10Y19253   2.161   6.592   7.332  0.4424 -1.6636  1.4920
  170SOPE  C31119254   2.007   6.456   7.388  0.7766 -0.5503 -0.2449
  170SOPE  H11X19255   2.057   6.364   7.350 -0.4376 -1.2321 -0.2456
  170SOPE  H11Y19256   1.897   6.447   7.389  0.7795 -0.7052  2.0425
  170SOPE  C31219257   2.040   6.456   7.539 -0.9436 -0.0355  0.2063
  170SOPE  H12X19258   1.986   6.533   7.598 -2.4653 -2.1592  1.7159
  170SOPE  H12Y19259   2.146   6.490   7.539 -0.9975  0.2948 -1.9698
  170SOPE  C31319260   2.027   6.319   7.609  0.6059 -0.0569 -0.2226
  170SOPE  H13X19261   2.058   6.240   7.537 -0.0597  0.1357 -0.7302
  170SOPE  H13Y19262   1.921   6.303   7.635  0.1601 -2.4812 -3.0258
  170SOPE  C31419263   2.103   6.301   7.736 -0.4327  0.7985 -0.3301
  170SOPE  H14X19264   2.069   6.374   7.814  1.0231  2.7525 -1.4356
  170SOPE  H14Y19265   2.209   6.327   7.718  0.0397 -0.4448  0.5163
  170SOPE  C31519266   2.102   6.157   7.794 -0.1099  0.0124 -0.8428
  170SOPE  H15X19267   2.178   6.146   7.873 -2.2031 -3.6311  0.9653
  170SOPE  H15Y19268   2.133   6.090   7.710 -1.2392 -1.4481 -0.1526
  170SOPE  C31619269   1.971   6.103   7.851  0.3551 -0.5647  0.0262
  170SOPE  H16X19270   1.891   6.105   7.773 -0.9485  0.4403  1.3377
  170SOPE  H16Y19271   1.938   6.171   7.932 -1.5523 -0.5908 -0.6647
  170SOPE  C31719272   1.972   5.960   7.899 -0.5429  0.3982 -0.3316
  170SOPE  H17X19273   1.904   5.946   7.985 -0.8155 -1.4399 -0.7965
  170SOPE  H17Y19274   2.075   5.934   7.933 -1.7028 -2.8847  1.1370
  170SOPE  C31819275   1.950   5.855   7.792 -0.0233  0.3516  0.2428
  170SOPE  H18X19276   1.989   5.758   7.830  0.0501  0.0654 -0.5578
  170SOPE  H18Y19277   1.992   5.888   7.695  0.0838  0.7236  0.4138
  170SOPE  H18Z19278   1.841   5.848   7.774  0.1011  0.4627 -0.5624
  171SOPE     N19279   6.869   4.465   5.616  0.1674  0.1596 -0.4669
  171SOPE   HN119280   6.800   4.504   5.549  1.2636  0.8321 -1.2553
  171SOPE   HN219281   6.843   4.480   5.715 -3.3479 -2.2187 -0.8680
  171SOPE   HN319282   6.966   4.492   5.589  0.5322 -1.3135 -0.7145
  171SOPE   C1219283   6.873   4.313   5.594  0.2105  0.1318  1.1533
  171SOPE  H12A19284   6.781   4.262   5.631 -0.4602  1.2800  1.1357
  171SOPE  H12B19285   6.961   4.276   5.650  0.3524 -0.3636  0.6049
  171SOPE   C1119286   6.905   4.276   5.444  0.0745 -0.1805 -0.4226
  171SOPE  H11A19287   6.833   4.330   5.379 -0.1164  0.6866  0.4784
  171SOPE  H11B19288   6.883   4.171   5.415 -1.9799  0.4272 -1.2646
  171SOPE     P19289   7.098   4.439   5.360  0.1798  0.1552 -0.0236
  171SOPE   O1319290   6.998   4.521   5.287 -0.3261 -0.5288  0.3621
  171SOPE   O1419291   7.237   4.420   5.303 -0.1343 -0.3255 -0.5625
  171SOPE   O1219292   7.039   4.301   5.418  0.0016 -0.2999  0.0373
  171SOPE   O1119293   7.112   4.512   5.497  0.2241 -0.0649  0.1942
  171SOPE    C119294   7.224   4.493   5.583  0.2878 -0.2881 -1.0522
  171SOPE    HA19295   7.313   4.536   5.532  0.0995 -1.1157 -2.1156
  171SOPE    HB19296   7.241   4.384   5.600 -0.0122  0.2013  3.7692
  171SOPE    C219297   7.204   4.557   5.728 -0.2083  0.4379  0.2305
  171SOPE    HS19298   7.308   4.566   5.765 -0.5740 -0.4028  1.5206
  171SOPE   O2119299   7.117   4.480   5.818  0.3517 -0.3701 -0.4318
  171SOPE   C2119300   7.168   4.372   5.860 -1.4491 -0.4348 -0.1096
  171SOPE   O2219301   7.278   4.326   5.829 -0.8487 -0.1452  0.1814
  171SOPE   C2219302   7.068   4.299   5.948 -0.0939 -0.7742 -0.2611
  171SOPE   H2R19303   7.131   4.230   6.008  1.5033  0.0862 -0.8838
  171SOPE   H2S19304   6.988   4.248   5.891  0.8385 -1.1962 -1.2390
  171SOPE    C319305   7.158   4.707   5.715 -0.7713  0.9482  0.3631
  171SOPE    HX19306   7.068   4.715   5.651 -0.9817  2.3676  0.7975
  171SOPE    HY19307   7.241   4.761   5.665  2.7292 -1.7593  2.7149
  171SOPE   O3119308   7.122   4.771   5.843 -0.0760 -0.0627  0.1871
  171SOPE   C3119309   6.998   4.764   5.886 -0.3067  0.1706 -0.0165
  171SOPE   O3219310   6.911   4.704   5.831  0.3729  0.5426 -0.1163
  171SOPE   C3219311   6.995   4.809   6.030  0.2747 -0.3998  0.1238
  171SOPE   H2X19312   7.041   4.908   6.047  0.4424 -0.7651  2.0133
  171SOPE   H2Y19313   7.056   4.739   6.090 -0.0117 -1.9571 -1.3140
  171SOPE   C2319314   7.002   4.396   6.050 -0.0040  0.4720 -0.0360
  171SOPE   H3R19315   6.920   4.459   6.009 -0.8479  0.3861  1.4443
  171SOPE   H3S19316   7.078   4.449   6.111  0.7121  0.3629 -0.8257
  171SOPE   C2419317   6.931   4.301   6.149 -0.2314  0.2729 -0.0424
  171SOPE   H4R19318   6.860   4.233   6.098 -1.0215  0.9067  0.1954
  171SOPE   H4S19319   7.010   4.236   6.191 -0.3915 -0.2903 -0.6069
  171SOPE   C2519320   6.861   4.381   6.261  0.2885 -0.0480 -0.0120
  171SOPE   H5R19321   6.932   4.430   6.331  0.0858 -0.8873  0.8047
  171SOPE   H5S19322   6.801   4.461   6.213  0.4065  0.0335 -0.0237
  171SOPE   C2619323   6.755   4.296   6.338 -0.7911 -0.6499  0.3578
  171SOPE   H6R19324   6.692   4.363   6.400  0.4164  2.0944 -1.2160
  171SOPE   H6S19325   6.690   4.255   6.258  0.4013 -0.8009 -0.5670
  171SOPE   C2719326   6.823   4.187   6.426 -0.5874  0.5901 -0.2252
  171SOPE   H7R19327   6.879   4.119   6.357 -0.3926  0.2998  0.2178
  171SOPE   H7S19328   6.895   4.230   6.498 -0.0517 -1.6537  0.6667
  171SOPE   C2819329   6.719   4.111   6.494 -0.7739  0.5567  0.5000
  171SOPE   H8R19330   6.651   4.184   6.543  0.5792  2.9435 -0.9846
  171SOPE   H8S19331   6.653   4.049   6.429  0.5506 -0.0383 -0.3141
  171SOPE   C2919332   6.759   4.004   6.595 -0.3865  0.1245  0.3556
  171SOPE   H9119333   6.835   3.939   6.550 -1.9589 -2.0628  0.6887
  171SOPE  C21019334   6.735   3.998   6.725  0.6290  0.3725  0.2179
  171SOPE  H10119335   6.769   3.910   6.782  0.3986  0.5688  0.6615
  171SOPE  C21119336   6.644   4.091   6.808  0.6426  0.0433  0.0192
  171SOPE  H11R19337   6.541   4.053   6.826  0.5016  0.9480  1.2316
  171SOPE  H11S19338   6.632   4.191   6.761  2.3473  0.3435  0.1614
  171SOPE  C21219339   6.711   4.133   6.939 -0.4738  0.3364  0.0123
  171SOPE  H12R19340   6.802   4.192   6.915  0.1237 -0.3990  0.4272
  171SOPE  H12S19341   6.730   4.040   6.997  0.8771  0.1657 -0.6640
  171SOPE  C21319342   6.625   4.222   7.027  0.1750  0.0347  0.4836
  171SOPE  H13R19343   6.671   4.232   7.127 -1.1521  0.8672  1.0380
  171SOPE  H13S19344   6.533   4.162   7.041 -0.2381 -0.3290 -2.8579
  171SOPE  C21419345   6.597   4.359   6.968  0.8284 -0.3011 -0.5736
  171SOPE  H14R19346   6.526   4.412   7.035  1.4704  0.0594 -0.1671
  171SOPE  H14S19347   6.538   4.366   6.874 -0.8458 -0.8870  0.3989
  171SOPE  C21519348   6.715   4.447   6.957  0.1856  0.2303 -0.4675
  171SOPE  H15R19349   6.801   4.393   7.002 -0.4420 -0.3767  0.0124
  171SOPE  H15S19350   6.702   4.539   7.018 -0.8646 -0.3576  0.2190
  171SOPE  C21619351   6.759   4.481   6.812  0.5896  0.0746  0.7795
  171SOPE  H16R19352   6.774   4.384   6.760  1.1636  0.3646  0.3833
  171SOPE  H16S19353   6.861   4.526   6.814 -0.2938  2.1303  1.4691
  171SOPE  C21719354   6.673   4.581   6.746 -0.2630  0.3347 -0.2587
  171SOPE  H17R19355   6.718   4.683   6.746  1.5913 -0.4095  1.8585
  171SOPE  H17S19356   6.582   4.594   6.809  0.4246 -1.4939  1.2261
  171SOPE  C21819357   6.637   4.535   6.607 -0.1320  0.0161  0.0055
  171SOPE  H18R19358   6.597   4.431   6.611 -1.3357  0.4961  2.0089
  171SOPE  H18S19359   6.734   4.528   6.553 -0.3694  0.9873 -0.5596
  171SOPE  H18T19360   6.577   4.611   6.553  0.8396 -0.3340 -1.6254
  171SOPE   C3319361   6.851   4.803   6.077 -0.0898  0.6680 -0.1954
  171SOPE   H3X19362   6.801   4.712   6.037  0.5113  0.8715 -1.4697
  171SOPE   H3Y19363   6.796   4.898   6.058 -0.5890  1.2930  3.5537
  171SOPE   C3419364   6.851   4.795   6.234 -0.0915 -0.3477  0.3882
  171SOPE   H4X19365   6.901   4.891   6.258 -1.2913  0.8644 -1.7185
  171SOPE   H4Y19366   6.891   4.695   6.264 -0.9532 -1.9354 -3.1974
  171SOPE   C3519367   6.708   4.803   6.280 -0.3378  0.1941 -0.2655
  171SOPE   H5X19368   6.670   4.702   6.253  0.0561  0.9428 -4.3052
  171SOPE   H5Y19369   6.643   4.885   6.243 -2.8394 -0.7642  1.6979
  171SOPE   C3619370   6.698   4.836   6.432  0.2869 -0.1853 -0.0241
  171SOPE   H6X19371   6.766   4.761   6.476  3.2914  1.1574 -2.0413
  171SOPE   H6Y19372   6.590   4.845   6.457 -0.1225  0.4511 -1.8681
  171SOPE   C3719373   6.774   4.975   6.463  0.3548 -0.0165 -0.0530
  171SOPE   H7X19374   6.752   5.045   6.380 -0.3909 -0.1382  0.0342
  171SOPE   H7Y19375   6.879   4.938   6.468  0.7066  1.0021  0.2512
  171SOPE   C3819376   6.738   5.044   6.596  0.1972 -0.0885 -0.2267
  171SOPE   H8X19377   6.758   4.976   6.681 -0.1760 -0.4192 -0.4017
  171SOPE   H8Y19378   6.633   5.080   6.591 -1.2651 -3.8766  0.3777
  171SOPE   C3919379   6.833   5.165   6.618 -0.2556  0.1449 -1.1955
  171SOPE   H9X19380   6.824   5.240   6.536  0.1097  0.7073 -0.7268
  171SOPE   H9Y19381   6.933   5.119   6.609  0.8090  1.9243  0.6340
  171SOPE  C31019382   6.825   5.235   6.758  0.4707 -0.5528  1.1612
  171SOPE  H10X19383   6.808   5.150   6.827  0.0739 -0.8442  0.7121
  171SOPE  H10Y19384   6.737   5.301   6.767  0.3213 -0.0236 -2.4466
  171SOPE  C31119385   6.957   5.300   6.807 -0.0848  0.0028  0.6020
  171SOPE  H11X19386   7.038   5.226   6.789 -2.2679 -2.0433 -1.4745
  171SOPE  H11Y19387   6.938   5.337   6.911 -3.0878  0.9889 -0.1793
  171SOPE  C31219388   6.993   5.412   6.710 -0.1614 -0.1327  0.2878
  171SOPE  H12X19389   6.896   5.434   6.660 -1.0352 -4.1320 -0.0841
  171SOPE  H12Y19390   7.067   5.377   6.635  1.1598  3.2688 -0.1820
  171SOPE  C31319391   7.052   5.543   6.756  0.7666  0.4170 -0.8456
  171SOPE  H13X19392   7.095   5.600   6.670  1.5038  2.3926  0.7479
  171SOPE  H13Y19393   7.135   5.516   6.825  2.1825 -0.1002 -2.6774
  171SOPE  C31419394   6.948   5.634   6.814 -0.1291  0.4599 -0.5987
  171SOPE  H14X19395   6.883   5.585   6.890 -0.3557 -0.8362 -1.5799
  171SOPE  H14Y19396   6.890   5.678   6.731 -2.7450 -0.5486  0.5725
  171SOPE  C31519397   7.018   5.750   6.888  0.0773  0.1467 -0.8076
  171SOPE  H15X19398   7.078   5.807   6.814  0.5116 -0.2043 -0.7296
  171SOPE  H15Y19399   7.081   5.724   6.976 -2.2930 -1.0179  0.6366
  171SOPE  C31619400   6.911   5.843   6.961 -0.1071 -0.5066  0.3501
  171SOPE  H16X19401   6.831   5.774   6.997  1.0354 -1.1954  1.6620
  171SOPE  H16Y19402   6.874   5.910   6.880  0.8205  0.2157  0.5114
  171SOPE  C31719403   6.984   5.932   7.062 -0.7828  0.6953 -0.2302
  171SOPE  H17X19404   7.079   5.980   7.030 -0.7447  2.0012  1.6575
  171SOPE  H17Y19405   7.015   5.863   7.144  0.2982  1.8241  0.3479
  171SOPE  C31819406   6.890   6.041   7.115 -0.1625  0.0890  0.2114
  171SOPE  H18X19407   6.848   6.095   7.028  3.3510 -2.1159 -3.1904
  171SOPE  H18Y19408   6.941   6.110   7.186 -1.5499 -0.1121  1.4644
  171SOPE  H18Z19409   6.802   5.994   7.164 -0.5061  0.6171  0.1105
  172SOPE     N19410   2.008   6.637   5.390  0.4767 -0.6757 -0.8218
  172SOPE   HN119411   2.007   6.605   5.291 -3.8681 -0.8391 -0.9265
  172SOPE   HN219412   2.027   6.738   5.404 -0.0838 -0.8399  1.5502
  172SOPE   HN319413   2.079   6.586   5.446 -0.5240 -2.0470 -0.7470
  172SOPE   C1219414   1.869   6.598   5.448  0.2167 -0.1046  0.4128
  172SOPE  H12A19415   1.860   6.490   5.475 -0.7372  0.5933  3.1290
  172SOPE  H12B19416   1.790   6.633   5.378  1.4192  1.6615 -0.1369
  172SOPE   C1119417   1.841   6.677   5.577 -0.6996  0.4416 -0.3470
  172SOPE  H11A19418   1.914   6.660   5.659 -2.2105  2.3758  1.4763
  172SOPE  H11B19419   1.747   6.634   5.617  0.2958 -0.8052  0.7537
  172SOPE     P19420   1.888   6.945   5.575 -0.2102  0.3836 -0.1741
  172SOPE   O1319421   1.801   7.050   5.525  0.2539  0.0159 -0.1275
  172SOPE   O1419422   2.027   6.932   5.523  0.2723 -0.2620 -1.0661
  172SOPE   O1219423   1.810   6.814   5.548 -0.1305 -0.2311 -0.2502
  172SOPE   O1119424   1.891   6.957   5.735 -0.1535  0.4725  0.1893
  172SOPE    C119425   1.768   6.950   5.809 -0.4684 -0.7547  0.1121
  172SOPE    HA19426   1.779   6.885   5.899  0.2151  0.0139  0.5904
  172SOPE    HB19427   1.683   6.905   5.753  0.8267  0.3268 -2.9378
  172SOPE    C219428   1.728   7.086   5.860  0.1748 -0.5530  0.1285
  172SOPE    HS19429   1.725   7.146   5.767  0.7112  3.0168  2.2048
  172SOPE   O2119430   1.820   7.129   5.953  0.5406 -0.0555  0.7676
  172SOPE   C2119431   1.817   7.258   5.984 -0.0285  0.1011 -0.0392
  172SOPE   O2219432   1.743   7.343   5.939  0.9000 -0.1814  0.1757
  172SOPE   C2219433   1.928   7.286   6.081 -0.8907  0.3715 -0.2165
  172SOPE   H2R19434   1.933   7.397   6.092  0.3715  0.1596  1.6738
  172SOPE   H2S19435   2.022   7.257   6.030  0.6245  1.4484  1.8050
  172SOPE    C319436   1.580   7.075   5.917 -0.3370 -0.3205  0.1850
  172SOPE    HX19437   1.521   7.013   5.846 -2.4473  2.1657 -0.4068
  172SOPE    HY19438   1.540   7.179   5.914  1.3325  0.3499 -0.0652
  172SOPE   O3119439   1.585   7.044   6.057 -0.1824  0.0890  0.0281
  172SOPE   C3119440   1.481   6.977   6.099 -0.4435 -0.7420 -0.2393
  172SOPE   O3219441   1.401   6.915   6.032  0.3009 -0.3904 -0.0760
  172SOPE   C3219442   1.482   6.988   6.254 -0.2327  0.0810 -0.3000
  172SOPE   H2X19443   1.539   7.077   6.291  0.1012  0.4243 -1.5992
  172SOPE   H2Y19444   1.540   6.896   6.279  0.2497  0.4716  0.0559
  172SOPE   C2319445   1.893   7.238   6.219 -0.2954 -0.1199 -0.0962
  172SOPE   H3R19446   1.983   7.244   6.283 -0.6992 -1.6079  0.6632
  172SOPE   H3S19447   1.880   7.128   6.231  0.3359 -0.0901  0.9282
  172SOPE   C2419448   1.788   7.324   6.286 -0.2584  1.1327 -0.1032
  172SOPE   H4R19449   1.819   7.430   6.285  0.2536  1.0228 -2.8003
  172SOPE   H4S19450   1.703   7.342   6.217 -0.8155  0.4613  0.3883
  172SOPE   C2519451   1.730   7.257   6.410  0.3137 -0.2125  0.4901
  172SOPE   H5R19452   1.630   7.306   6.416 -0.1383 -0.5469 -2.4275
  172SOPE   H5S19453   1.707   7.149   6.396  3.8426 -1.0186 -0.0827
  172SOPE   C2619454   1.810   7.275   6.539 -1.1928  0.5201  0.0202
  172SOPE   H6R19455   1.902   7.213   6.529 -3.3448 -2.9490  0.0705
  172SOPE   H6S19456   1.844   7.381   6.540  0.8279 -0.0893 -0.0396
  172SOPE   C2719457   1.736   7.224   6.662 -0.3269 -0.2088 -0.0080
  172SOPE   H7R19458   1.708   7.117   6.654 -0.0352 -0.4833  2.0155
  172SOPE   H7S19459   1.805   7.235   6.749  1.0524 -0.2903 -1.0623
  172SOPE   C2819460   1.616   7.307   6.706  0.5194  0.6040 -0.0124
  172SOPE   H8R19461   1.536   7.298   6.629  0.8686 -3.1566 -0.1274
  172SOPE   H8S19462   1.566   7.256   6.790  1.2938  0.6436  0.4837
  172SOPE   C2919463   1.646   7.445   6.743 -0.1457 -0.7888 -0.0563
  172SOPE   H9119464   1.621   7.522   6.669  0.4414 -0.1782  0.3731
  172SOPE  C21019465   1.675   7.485   6.868  0.2110 -0.0797 -0.6541
  172SOPE  H10119466   1.688   7.594   6.873 -1.6207  0.1979 -1.0448
  172SOPE  C21119467   1.700   7.397   6.990 -0.5842 -0.3357  0.3371
  172SOPE  H11R19468   1.811   7.396   6.991 -0.5630 -0.5513 -0.7904
  172SOPE  H11S19469   1.663   7.292   6.979  0.5194 -0.7365  0.3195
  172SOPE  C21219470   1.647   7.434   7.133 -0.0207  0.8989  0.7173
  172SOPE  H12R19471   1.633   7.348   7.202  2.4065  0.0261  0.2147
  172SOPE  H12S19472   1.550   7.487   7.125 -1.0887 -1.0086  0.3684
  172SOPE  C21319473   1.739   7.543   7.202  0.2851  0.3304  0.2750
  172SOPE  H13R19474   1.712   7.645   7.166  1.0843  1.5763  2.9428
  172SOPE  H13S19475   1.847   7.524   7.186  0.6364  0.4701  2.2343
  172SOPE  C21419476   1.714   7.559   7.356 -0.0414 -0.0663 -0.0962
  172SOPE  H14R19477   1.605   7.549   7.380 -0.1572 -1.3506 -1.0916
  172SOPE  H14S19478   1.747   7.662   7.384 -1.1834  0.0777  0.8264
  172SOPE  C21519479   1.802   7.463   7.432  1.3738  0.7998  0.3864
  172SOPE  H15R19480   1.904   7.455   7.391 -0.4648 -0.5079 -4.6575
  172SOPE  H15S19481   1.761   7.366   7.396  0.5809  1.9251 -1.9694
  172SOPE  C21619482   1.787   7.486   7.586 -0.5664 -0.1901  0.3797
  172SOPE  H16R19483   1.679   7.491   7.610 -0.2864  0.6671  1.5413
  172SOPE  H16S19484   1.835   7.586   7.589  2.9931 -1.7478  1.2604
  172SOPE  C21719485   1.876   7.382   7.655  0.0819  0.2985 -0.1992
  172SOPE  H17R19486   1.953   7.355   7.579 -0.2991  2.0253 -1.2624
  172SOPE  H17S19487   1.826   7.283   7.663  0.3770  0.2298  1.0496
  172SOPE  C21819488   1.933   7.431   7.790 -0.3420 -0.2684  0.2605
  172SOPE  H18R19489   1.993   7.353   7.841  0.6462  1.1883  1.3861
  172SOPE  H18S19490   1.854   7.450   7.866  0.3867 -0.8555  1.1872
  172SOPE  H18T19491   1.991   7.525   7.780  0.0224 -0.4997  0.1852
  172SOPE   C3319492   1.346   6.980   6.313 -0.4944 -0.1326  0.1761
  172SOPE   H3X19493   1.279   6.900   6.275 -0.5349  0.1817 -0.4426
  172SOPE   H3Y19494   1.292   7.072   6.281  0.5754  0.8238  1.0408
  172SOPE   C3419495   1.342   6.977   6.467 -0.0853 -0.2611 -0.3147
  172SOPE   H4X19496   1.402   7.063   6.503 -0.1115 -0.4121  0.0851
  172SOPE   H4Y19497   1.370   6.874   6.496 -1.4389 -0.8830 -1.1253
  172SOPE   C3519498   1.197   6.997   6.528  0.7992 -0.1069  0.1548
  172SOPE   H5X19499   1.206   6.961   6.632 -0.0503 -0.6158  0.0665
  172SOPE   H5Y19500   1.134   6.926   6.470 -0.8223  0.0508  1.6253
  172SOPE   C3619501   1.135   7.141   6.528  0.2440  0.1205  0.2639
  172SOPE   H6X19502   1.112   7.158   6.420  0.5997 -2.3863 -0.2734
  172SOPE   H6Y19503   1.221   7.206   6.557  0.6472 -0.2363 -0.1265
  172SOPE   C3719504   1.027   7.184   6.629 -0.3267  0.6034  0.0921
  172SOPE   H7X19505   0.935   7.122   6.612  0.1590 -0.2490  0.5029
  172SOPE   H7Y19506   0.997   7.290   6.615  0.2316  0.7609  0.0796
  172SOPE   C3819507   1.061   7.169   6.780 -0.5705  0.6126  0.6211
  172SOPE   H8X19508   1.154   7.224   6.804 -0.6467  1.0248 -0.0078
  172SOPE   H8Y19509   1.072   7.060   6.803  1.7000 -0.0699 -2.9454
  172SOPE   C3919510   0.942   7.203   6.867  0.1395 -0.2777 -0.5606
  172SOPE   H9X19511   0.844   7.171   6.825 -0.7711  0.7498  0.6561
  172SOPE   H9Y19512   0.940   7.314   6.874 -2.1569 -0.2858 -0.1546
  172SOPE  C31019513   0.950   7.141   7.009  0.3210 -0.9878 -0.3874
  172SOPE  H10X19514   1.046   7.184   7.045 -1.8408  4.1010  0.0621
  172SOPE  H10Y19515   0.954   7.030   7.012 -2.3939 -1.1404  2.4179
  172SOPE  C31119516   0.848   7.200   7.111  0.1030 -0.4130  0.2082
  172SOPE  H11X19517   0.819   7.302   7.076  0.3624 -0.0110  1.1315
  172SOPE  H11Y19518   0.895   7.225   7.209  0.3217  0.9565 -0.2230
  172SOPE  C31219519   0.722   7.114   7.125  0.5388  0.3152  0.2401
  172SOPE  H12X19520   0.736   7.035   7.202 -0.5022 -0.6753 -0.5521
  172SOPE  H12Y19521   0.713   7.056   7.031  0.1098  0.0343  0.4481
  172SOPE  C31319522   0.589   7.184   7.169  0.1149  0.5822 -0.2171
  172SOPE  H13X19523   0.551   7.227   7.074 -1.6312 -0.9570 -0.2836
  172SOPE  H13Y19524   0.599   7.272   7.236  0.6521  1.9522 -2.0115
  172SOPE  C31419525   0.471   7.102   7.222 -0.0231  0.5648 -0.6810
  172SOPE  H14X19526   0.445   7.020   7.152 -0.5331 -0.4645  0.6625
  172SOPE  H14Y19527   0.387   7.174   7.214 -2.7364 -2.0079  2.0567
  172SOPE  C31519528   0.464   7.054   7.366 -0.6833  0.1316 -0.1253
  172SOPE  H15X19529   0.360   7.044   7.403 -0.9202  0.4236 -0.7029
  172SOPE  H15Y19530   0.510   7.142   7.416  0.4729 -0.4770 -0.0936
  172SOPE  C31619531   0.543   6.928   7.394  0.7847  0.5545  0.6519
  172SOPE  H16X19532   0.650   6.947   7.415  1.3518 -1.1676 -0.5566
  172SOPE  H16Y19533   0.551   6.870   7.300  1.2918  1.8306 -0.1180
  172SOPE  C31719534   0.484   6.838   7.497  0.0638 -0.1052  0.2643
  172SOPE  H17X19535   0.382   6.810   7.464 -0.4787  0.4440  1.4057
  172SOPE  H17Y19536   0.471   6.901   7.588  1.1596  1.2028 -0.4426
  172SOPE  C31819537   0.566   6.719   7.522 -0.1248  0.1669  0.3223
  172SOPE  H18X19538   0.657   6.739   7.583  0.3411 -0.9160  0.0163
  172SOPE  H18Y19539   0.578   6.676   7.421 -2.1995 -0.4556  0.3039
  172SOPE  H18Z19540   0.510   6.640   7.577 -2.8992  1.3209 -0.6782
  173SAPI   C1219541   2.864   4.684  10.352 -0.0115 -0.0404 -0.0430
  173SAPI    H219542   2.757   4.689  10.322 -0.5542 -0.5408  1.6964
  173SAPI    O219543   2.899   4.806  10.412  0.3914  0.0031 -0.6914
  173SAPI   HO219544   2.904   4.872  10.342 -0.1667  1.2932  0.4463
  173SAPI   C1319545   2.861   4.567  10.445 -0.0605  0.2704 -0.1958
  173SAPI    H319546   2.835   4.475  10.389  1.5364 -1.7328  2.1675
  173SAPI    O319547   2.757   4.582  10.545 -0.1303  0.5200  0.4436
  173SAPI   HO319548   2.789   4.650  10.604  0.5544  0.8973 -0.3315
  173SAPI   C1419549   2.997   4.538  10.493 -0.5929  0.4571 -0.7513
  173SAPI    H419550   3.022   4.618  10.565  1.1630 -1.2837  0.6964
  173SAPI    O419551   2.990   4.413  10.569 -0.9121  0.5043  0.1836
  173SAPI   HO419552   3.071   4.419  10.622  0.0929  0.3210 -1.2776
  173SAPI   C1519553   3.116   4.529  10.392  0.0057 -0.4555 -0.0589
  173SAPI    H519554   3.107   4.435  10.335 -2.2602  1.4050 -3.1159
  173SAPI    O519555   3.243   4.530  10.461 -0.0438 -0.0367 -0.0378
  173SAPI   HO519556   3.266   4.437  10.459 -0.8226 -0.2386 -1.5049
  173SAPI   C1619557   3.097   4.647  10.289 -0.6582  0.2856  0.1490
  173SAPI    H619558   3.123   4.739  10.346 -0.2666  0.5833 -0.5081
  173SAPI    O619559   3.189   4.624  10.183 -0.2489  0.3846 -0.2192
  173SAPI   HO619560   3.168   4.551  10.124  0.2648  1.1609 -1.4046
  173SAPI   C1119561   2.957   4.656  10.239  0.1098 -0.1201 -0.2325
  173SAPI    H119562   2.925   4.558  10.197 -0.8823  0.1532 -0.1366
  173SAPI     P19563   2.968   4.722   9.976 -0.2772 -0.0490  0.4585
  173SAPI   O1319564   2.994   4.576   9.968 -0.1951 -0.6364 -0.2423
  173SAPI   O1419565   3.069   4.821   9.935 -0.2582  0.3683  0.2704
  173SAPI   O1219566   2.937   4.753  10.135  0.1146 -0.0422 -0.5358
  173SAPI   O1119567   2.836   4.756   9.907 -0.1622 -0.1144  0.0712
  173SAPI    C119568   2.717   4.680   9.936 -0.6397 -0.2200  0.0907
  173SAPI    HA19569   2.716   4.619  10.029 -0.3607  0.6776  0.6859
  173SAPI    HB19570   2.630   4.747   9.945 -0.5674 -0.2146  0.7873
  173SAPI    C219571   2.694   4.587   9.815 -0.4651 -0.1904  0.0744
  173SAPI    HS19572   2.761   4.499   9.823  0.9787  1.0206  2.6618
  173SAPI   O2119573   2.736   4.660   9.696  0.7399 -0.0024 -0.3218
  173SAPI   C2119574   2.731   4.598   9.580 -0.6948 -0.1862 -0.0398
  173SAPI   O2219575   2.716   4.477   9.555 -0.0868 -0.6618 -0.1728
  173SAPI   C2219576   2.770   4.694   9.466 -0.0294  0.1333  0.7571
  173SAPI   H2R19577   2.701   4.781   9.457  0.0630  0.0531 -0.8605
  173SAPI   H2S19578   2.873   4.731   9.486  1.0358 -0.9890 -2.2399
  173SAPI    C319579   2.547   4.541   9.814 -0.0673 -0.2657  0.4601
  173SAPI    HX19580   2.497   4.576   9.907  0.1549 -2.0315  1.2995
  173SAPI    HY19581   2.566   4.432   9.828  2.9164 -0.3042 -2.5792
  173SAPI   O3119582   2.478   4.565   9.691  0.0822 -0.0856 -0.9976
  173SAPI   C3119583   2.404   4.671   9.682 -0.0142 -0.3783 -0.1621
  173SAPI   O3219584   2.382   4.749   9.769  0.6041 -0.3956 -0.5717
  173SAPI   C3219585   2.345   4.673   9.541 -0.0849  0.0189  0.0765
  173SAPI   H2X19586   2.248   4.619   9.540  0.1991 -0.4922 -0.0830
  173SAPI   H2Y19587   2.416   4.625   9.471 -0.6393  1.5716 -1.6555
  173SAPI   C2319588   2.791   4.623   9.326 -0.3096 -0.2648  0.0024
  173SAPI   H3R19589   2.693   4.580   9.296 -1.7758  1.6086  1.7804
  173SAPI   H3S19590   2.857   4.534   9.337 -0.4739 -0.1470  2.4661
  173SAPI   C2419591   2.849   4.709   9.219 -1.0115  0.3188 -0.7542
  173SAPI   H4R19592   2.894   4.641   9.143  1.1830 -0.0531  0.8033
  173SAPI   H4S19593   2.938   4.755   9.265  0.0580 -3.4029  1.2777
  173SAPI   C2519594   2.749   4.817   9.167 -0.7244  0.4891 -0.8313
  173SAPI   H5R19595   2.729   4.890   9.246  2.2245 -1.0815  1.6342
  173SAPI   C2619596   2.691   4.817   9.050  0.4195  0.7510 -0.1326
  173SAPI   H6R19597   2.630   4.904   9.022  1.4910  0.6817 -3.0420
  173SAPI   C2719598   2.709   4.715   8.939 -0.2499  0.3894 -0.0107
  173SAPI   H7R19599   2.754   4.621   8.977  1.3420  0.2464 -2.0339
  173SAPI   H7S19600   2.789   4.742   8.867 -1.1739  1.1934 -0.7626
  173SAPI   C2819601   2.585   4.689   8.851 -0.2928  0.0073 -0.4928
  173SAPI   H8R19602   2.526   4.601   8.878 -0.5112  0.1594 -0.4714
  173SAPI   C2919603   2.544   4.754   8.742 -0.2237  0.1395 -0.2134
  173SAPI   H9R19604   2.474   4.700   8.677  0.8096 -2.2445  0.5484
  173SAPI  C21019605   2.622   4.869   8.681  0.3250 -0.7154  0.2581
  173SAPI  H10R19606   2.696   4.910   8.753  0.0377 -0.9272  0.6799
  173SAPI  H10S19607   2.558   4.956   8.657  0.0045 -0.6547  1.2903
  173SAPI  C21119608   2.698   4.836   8.554  0.3020  1.0094 -0.1655
  173SAPI  H11R19609   2.805   4.817   8.569  0.0573  0.7088  1.4183
  173SAPI  C21219610   2.647   4.844   8.426 -0.2519 -0.3970 -0.0611
  173SAPI  H12R19611   2.717   4.835   8.341 -0.2808 -1.4225  0.0135
  173SAPI  C21319612   2.510   4.885   8.379  0.2902 -0.5252 -0.4829
  173SAPI  H13R19613   2.467   4.965   8.443 -1.1596 -0.5580 -1.3977
  173SAPI  H13S19614   2.446   4.794   8.382 -0.6940  0.0960 -1.7489
  173SAPI  C21419615   2.517   4.930   8.235 -0.3737 -0.5594 -0.2258
  173SAPI  H14R19616   2.602   4.998   8.220  0.7125 -1.2182  2.3770
  173SAPI  C21519617   2.439   4.903   8.124  0.4583 -0.1586 -0.2735
  173SAPI  H15R19618   2.470   4.939   8.024 -3.7110  1.6582 -1.1152
  173SAPI  C21619619   2.320   4.813   8.115  0.7503 -0.2980  0.0358
  173SAPI  H16R19620   2.232   4.850   8.171  0.7381 -2.5922  1.6849
  173SAPI  H16S19621   2.344   4.713   8.158 -0.6927 -1.1242 -0.9741
  173SAPI  C21719622   2.280   4.792   7.962 -0.3107 -0.4046 -0.4842
  173SAPI  H17R19623   2.221   4.699   7.950  0.4675 -0.9953  0.0631
  173SAPI  H17S19624   2.373   4.772   7.905  3.0843  0.7892  4.0193
  173SAPI  C21819625   2.196   4.891   7.887  0.2353  0.5965 -0.0835
  173SAPI  H18R19626   2.251   4.987   7.881  2.0250 -0.4232 -1.0660
  173SAPI  H18S19627   2.100   4.914   7.939  0.5728 -1.4713  1.5670
  173SAPI  C21919628   2.172   4.854   7.743  1.2655  0.1541 -0.1454
  173SAPI  H19R19629   2.268   4.820   7.698  0.2982 -0.4215 -1.8779
  173SAPI  H19S19630   2.118   4.929   7.680 -1.8583  0.4510  2.5948
  173SAPI  C22019631   2.072   4.731   7.732 -0.3444 -0.2062 -0.0484
  173SAPI  H20R19632   2.099   4.648   7.801  0.6524 -0.5767 -0.8632
  173SAPI  H20S19633   2.067   4.687   7.630  1.1308 -1.0243  0.2067
  173SAPI  H20T19634   1.970   4.767   7.758  0.0652  0.6115  0.4729
  173SAPI   C3319635   2.326   4.819   9.496  0.1455 -0.0403 -0.4853
  173SAPI   H3X19636   2.426   4.867   9.494  0.8606 -1.4811 -2.2016
  173SAPI   H3Y19637   2.261   4.874   9.567  1.0407  1.3696 -0.7127
  173SAPI   C3419638   2.279   4.823   9.344 -0.3536 -0.4381  0.0087
  173SAPI   H4X19639   2.168   4.814   9.345 -0.5513  1.4927  1.1606
  173SAPI   H4Y19640   2.329   4.740   9.290 -0.9058 -1.5563  1.1475
  173SAPI   C3519641   2.304   4.958   9.282 -0.0686  0.0083 -0.1732
  173SAPI   H5X19642   2.413   4.974   9.262 -0.0480 -0.2811 -0.2895
  173SAPI   H5Y19643   2.270   5.042   9.346  0.6360 -0.2648  0.5743
  173SAPI   C3619644   2.227   4.962   9.147 -0.4922  0.0599 -0.3369
  173SAPI   H6X19645   2.252   5.056   9.094  1.1299 -0.4703 -0.5649
  173SAPI   H6Y19646   2.117   4.965   9.166 -0.1284 -2.5256  3.2799
  173SAPI   C3719647   2.261   4.850   9.054  0.5789 -0.0328  0.0809
  173SAPI   H7X19648   2.238   4.756   9.109  1.3194 -1.6136 -2.1722
  173SAPI   H7Y19649   2.370   4.854   9.034  1.0693  1.1895  2.6462
  173SAPI   C3819650   2.198   4.870   8.916 -0.2221 -0.5687 -0.2762
  173SAPI   H8X19651   2.210   4.775   8.861 -2.1840 -0.7785 -0.4002
  173SAPI   H8Y19652   2.251   4.948   8.856  0.8297 -0.3898  0.8310
  173SAPI   C3919653   2.044   4.904   8.893 -0.7632  0.0570 -0.3107
  173SAPI   H9X19654   2.024   5.005   8.936  0.2709 -0.2787  1.0144
  173SAPI   H9Y19655   1.987   4.825   8.947  0.0642 -1.7327 -1.9406
  173SAPI  C31019656   1.990   4.891   8.749  0.6540  1.0315 -0.6785
  173SAPI  H10X19657   1.880   4.910   8.743  0.1971 -1.7013 -2.8729
  173SAPI  H10Y19658   2.010   4.785   8.722  1.3376  0.4460  1.8215
  173SAPI  C31119659   2.056   4.987   8.651  0.3519  0.0928  0.1207
  173SAPI  H11X19660   2.167   4.981   8.655  0.5509  2.1806 -0.9278
  173SAPI  H11Y19661   2.034   5.091   8.685 -0.3987  0.0588 -0.2310
  173SAPI  C31219662   2.025   4.975   8.501 -0.0050 -0.1533 -0.3504
  173SAPI  H12X19663   1.916   4.990   8.489 -0.1714  0.1659  1.3431
  173SAPI  H12Y19664   2.055   4.874   8.467  0.8555  0.1998 -0.6705
  173SAPI  C31319665   2.119   5.064   8.418 -0.3361 -0.0431 -0.5974
  173SAPI  H13X19666   2.218   5.015   8.420 -1.7520 -3.2295  2.1930
  173SAPI  H13Y19667   2.134   5.165   8.462  0.0937  0.1337 -1.1377
  173SAPI  C31419668   2.076   5.089   8.277  0.5626  0.1724 -0.8645
  173SAPI  H14X19669   1.982   5.147   8.275  1.5839  1.8799 -2.1806
  173SAPI  H14Y19670   2.046   4.991   8.234  2.1569  0.0138 -1.6833
  173SAPI  C31519671   2.185   5.153   8.194  0.0112 -0.5800 -0.0659
  173SAPI  H15X19672   2.278   5.092   8.192  1.0362  0.8658  0.8853
  173SAPI  H15Y19673   2.216   5.245   8.249 -0.0008  0.4729 -1.7514
  173SAPI  C31619674   2.138   5.198   8.051 -0.2577 -0.4441 -0.5149
  173SAPI  H16X19675   2.070   5.285   8.062 -1.1174 -1.0873 -0.6199
  173SAPI  H16Y19676   2.096   5.114   7.992  2.5147 -0.3774 -2.8009
  173SAPI  C31719677   2.254   5.253   7.974  0.9529 -0.0058 -0.3005
  173SAPI  H17X19678   2.336   5.179   7.963  0.3463 -0.7057 -0.1260
  173SAPI  H17Y19679   2.300   5.344   8.018  1.5274 -0.2475 -0.3936
  173SAPI  C31819680   2.196   5.300   7.837  0.0456  0.8015 -0.0895
  173SAPI  H18X19681   2.158   5.213   7.779  1.9494 -0.1525  0.0353
  173SAPI  H18Y19682   2.264   5.359   7.773  0.4877 -1.2242 -1.5979
  173SAPI  H18Z19683   2.106   5.359   7.865  0.2831  0.1691  2.1690
  174SAPI   C1219684   4.066   5.916   9.985  0.2052  0.4210  0.4547
  174SAPI    H219685   4.047   5.871  10.085  1.5409  0.0478  0.5485
  174SAPI    O219686   3.941   5.926   9.909 -0.2784 -0.0438  0.1290
  174SAPI   HO219687   3.932   5.843   9.861  1.7586  0.5937 -1.5127
  174SAPI   C1319688   4.118   6.055  10.009 -0.5888 -0.3574 -0.2887
  174SAPI    H319689   4.199   6.045  10.084 -0.6322 -1.9839 -0.4221
  174SAPI    O319690   4.015   6.129  10.073 -0.6574 -0.2216  0.1990
  174SAPI   HO319691   3.988   6.084  10.153 -1.7037  1.5760  0.9270
  174SAPI   C1419692   4.163   6.123   9.881 -0.3660  0.1488 -0.1193
  174SAPI    H419693   4.073   6.125   9.816 -1.0125 -0.2285  0.7448
  174SAPI    O419694   4.212   6.256   9.905 -0.5224  0.3908 -0.0654
  174SAPI   HO419695   4.151   6.316   9.861  1.4449  1.3146 -1.7238
  174SAPI   C1519696   4.260   6.040   9.795  0.2194  0.6336 -0.0315
  174SAPI    H519697   4.354   6.025   9.852  0.0800  0.8376  0.2581
  174SAPI    O519698   4.284   6.095   9.666  0.5829  0.4810 -0.6340
  174SAPI   HO519699   4.300   6.018   9.611  1.0677 -1.3448  1.9057
  174SAPI   C1619700   4.207   5.899   9.779 -0.3480  0.0647  0.4569
  174SAPI    H619701   4.118   5.899   9.713  0.4328 -4.4597 -0.9321
  174SAPI    O619702   4.296   5.818   9.710 -0.4372  0.3844 -0.1220
  174SAPI   HO619703   4.286   5.727   9.737 -0.0075  0.7615  1.4134
  174SAPI   C1119704   4.167   5.832   9.909  0.2773  0.0393  0.2119
  174SAPI    H119705   4.256   5.829   9.975  0.3134  0.5417  0.1944
  174SAPI     P19706   4.173   5.562   9.931  0.1356 -0.1725  0.3260
  174SAPI   O1319707   4.075   5.454   9.928  0.0915  0.4656 -0.1537
  174SAPI   O1419708   4.248   5.575  10.063 -0.4492 -0.5958 -0.0430
  174SAPI   O1219709   4.101   5.704   9.887  0.5968 -0.7180  0.1020
  174SAPI   O1119710   4.270   5.547   9.810  0.6257 -0.2005  0.3170
  174SAPI    C119711   4.317   5.421   9.765 -0.1454  0.0883  0.1456
  174SAPI    HA19712   4.427   5.414   9.781 -0.2045 -1.5209  0.0262
  174SAPI    HB19713   4.270   5.331   9.810  1.0745  0.0341  1.3667
  174SAPI    C219714   4.303   5.404   9.607  0.3278  0.4858 -0.6397
  174SAPI    HS19715   4.370   5.321   9.576  1.3772  0.6290  1.0985
  174SAPI   O2119716   4.339   5.529   9.536 -0.3492  0.2897 -0.4292
  174SAPI   C2119717   4.464   5.561   9.537  0.2847 -0.1966  0.5106
  174SAPI   O2219718   4.555   5.490   9.582  0.6338 -0.2881 -0.7988
  174SAPI   C2219719   4.483   5.689   9.458 -0.1550 -0.5443 -0.1633
  174SAPI   H2R19720   4.385   5.729   9.423 -0.5156  0.3648  1.7384
  174SAPI   H2S19721   4.520   5.767   9.528 -0.7145  0.5354 -1.0268
  174SAPI    C319722   4.158   5.368   9.576 -0.4598  0.1681 -0.0559
  174SAPI    HX19723   4.090   5.455   9.589 -0.4380  0.1856 -0.0573
  174SAPI    HY19724   4.117   5.296   9.649 -0.9660  0.3447 -0.1618
  174SAPI   O3119725   4.152   5.313   9.444  0.1571  0.1353 -0.0851
  174SAPI   C3119726   4.037   5.337   9.379 -0.4174  0.3001  0.0372
  174SAPI   O3219727   3.938   5.385   9.431 -0.0675 -0.4366 -0.6271
  174SAPI   C3219728   4.056   5.287   9.236  0.3780  0.0334  0.2165
  174SAPI   H2X19729   4.045   5.176   9.234 -0.2054  0.1029 -1.0610
  174SAPI   H2Y19730   4.157   5.319   9.205 -0.1245  0.4381 -1.0309
  174SAPI   C2319731   4.588   5.668   9.343 -0.0546  0.0425  0.5717
  174SAPI   H3R19732   4.685   5.627   9.378  0.6094  0.0977 -1.1081
  174SAPI   H3S19733   4.620   5.768   9.308  0.8667 -0.6204 -0.5467
  174SAPI   C2419734   4.547   5.578   9.220 -0.3131  0.1666  0.2289
  174SAPI   H4R19735   4.543   5.470   9.248  0.2833 -0.3377 -1.5457
  174SAPI   H4S19736   4.631   5.586   9.149  0.4794  0.5238  1.1880
  174SAPI   C2519737   4.408   5.615   9.176  0.1621 -0.1373  0.1844
  174SAPI   H5R19738   4.329   5.617   9.253  1.2961  0.4970  1.3604
  174SAPI   C2619739   4.381   5.646   9.050 -0.1065  0.3571 -0.6746
  174SAPI   H6R19740   4.287   5.700   9.034  0.5083  1.3162 -1.0934
  174SAPI   C2719741   4.489   5.658   8.941 -0.0527 -0.3995 -0.1666
  174SAPI   H7R19742   4.580   5.714   8.970 -0.8690  0.3920  0.9503
  174SAPI   H7S19743   4.449   5.715   8.854 -2.1646 -3.1134 -1.1233
  174SAPI   C2819744   4.533   5.523   8.889 -0.0918  0.0551 -0.6315
  174SAPI   H8R19745   4.502   5.431   8.940  1.6387 -0.1840  0.0581
  174SAPI   C2919746   4.595   5.508   8.774 -0.0318 -0.0868 -0.4712
  174SAPI   H9R19747   4.626   5.406   8.750 -3.7714 -1.5994  0.3848
  174SAPI  C21019748   4.649   5.617   8.691  0.4562  0.3942  0.1951
  174SAPI  H10R19749   4.749   5.586   8.654 -0.3749 -0.4440 -1.4478
  174SAPI  H10S19750   4.682   5.702   8.755 -0.1398 -0.8583  2.2624
  174SAPI  C21119751   4.550   5.658   8.587 -0.4015 -0.0323  0.1208
  174SAPI  H11R19752   4.494   5.748   8.617  0.4220  0.6428 -0.3233
  174SAPI  C21219753   4.551   5.633   8.454  0.2797  0.3672 -0.7311
  174SAPI  H12R19754   4.465   5.653   8.389 -0.7343 -2.2531 -0.3398
  174SAPI  C21319755   4.648   5.540   8.387 -0.5076  0.0602 -0.2075
  174SAPI  H13R19756   4.751   5.555   8.427 -0.6293  1.1213 -0.2719
  174SAPI  H13S19757   4.662   5.560   8.279  0.5942 -0.7204 -0.2230
  174SAPI  C21419758   4.627   5.394   8.393 -0.1071  0.0677 -0.1616
  174SAPI  H14R19759   4.575   5.363   8.484 -1.0532 -2.9056 -1.5794
  174SAPI  C21519760   4.629   5.308   8.290 -0.6129  0.5765 -0.5572
  174SAPI  H15R19761   4.598   5.204   8.308  1.7197 -0.0771  0.0409
  174SAPI  C21619762   4.657   5.330   8.144 -0.1139  0.0714 -0.0403
  174SAPI  H16R19763   4.667   5.232   8.091 -1.4311 -1.3766  2.1905
  174SAPI  H16S19764   4.750   5.388   8.130  2.0078 -2.9875  0.4997
  174SAPI  C21719765   4.533   5.389   8.072  0.7978  0.0413 -0.1683
  174SAPI  H17R19766   4.513   5.488   8.119 -1.3068 -0.4426  0.0598
  174SAPI  H17S19767   4.444   5.325   8.089  0.6790  0.3091  0.2037
  174SAPI  C21819768   4.570   5.422   7.927  0.2748  0.4511  0.3347
  174SAPI  H18R19769   4.661   5.485   7.923  2.1792 -2.1673 -2.1015
  174SAPI  H18S19770   4.486   5.474   7.876  1.1944 -0.4750 -2.2571
  174SAPI  C21919771   4.589   5.289   7.842  0.3470 -0.1146 -0.2451
  174SAPI  H19R19772   4.519   5.206   7.868  1.0009 -1.3404 -2.2113
  174SAPI  H19S19773   4.695   5.263   7.864  0.2937 -0.9475 -0.8943
  174SAPI  C22019774   4.580   5.315   7.693  0.4804  0.2064  0.4628
  174SAPI  H20R19775   4.618   5.224   7.641  1.5061  0.7730  0.1896
  174SAPI  H20S19776   4.654   5.391   7.660  0.4377 -0.2136 -0.6619
  174SAPI  H20T19777   4.478   5.353   7.668 -0.2682 -0.1091  2.8033
  174SAPI   C3319778   3.958   5.348   9.130  0.1554 -0.1797  0.7050
  174SAPI   H3X19779   3.955   5.456   9.157 -2.7726 -0.5042  2.1075
  174SAPI   H3Y19780   3.852   5.314   9.135  0.3275 -1.4201 -2.1060
  174SAPI   C3419781   3.976   5.310   8.986  0.2018  0.6552 -0.0350
  174SAPI   H4X19782   3.981   5.202   8.960  1.8693  0.4068  1.1812
  174SAPI   H4Y19783   4.072   5.348   8.946 -0.6938  0.5244 -2.4818
  174SAPI   C3519784   3.865   5.373   8.902  0.0620 -0.5930  0.5340
  174SAPI   H5X19785   3.844   5.480   8.923  0.3905 -0.6224  1.0260
  174SAPI   H5Y19786   3.770   5.320   8.925 -0.4554  0.6810  1.4295
  174SAPI   C3619787   3.887   5.358   8.754 -0.5705 -0.5106 -0.1080
  174SAPI   H6X19788   3.887   5.250   8.730  0.1211 -0.7645  0.9552
  174SAPI   H6Y19789   3.987   5.403   8.734  0.1034 -1.6247  0.6774
  174SAPI   C3719790   3.790   5.433   8.665 -0.0842  0.2019  0.7606
  174SAPI   H7X19791   3.816   5.398   8.562 -1.1342  1.7316 -0.0658
  174SAPI   H7Y19792   3.802   5.543   8.678  0.6973  0.1286  0.7097
  174SAPI   C3819793   3.651   5.374   8.673  0.1015  0.2324 -0.5713
  174SAPI   H8X19794   3.608   5.390   8.774  2.1048  0.6442  0.2546
  174SAPI   H8Y19795   3.657   5.266   8.648  4.1345  0.3938 -0.9310
  174SAPI   C3919796   3.563   5.459   8.577 -0.4699 -0.4436  0.2127
  174SAPI   H9X19797   3.467   5.405   8.567 -0.8119 -0.1645  1.8491
  174SAPI   H9Y19798   3.615   5.461   8.478 -0.1456 -1.4823  0.3522
  174SAPI  C31019799   3.533   5.608   8.617 -0.5745 -0.1805 -0.5021
  174SAPI  H10X19800   3.624   5.666   8.593  0.1664 -1.2492 -0.3660
  174SAPI  H10Y19801   3.535   5.606   8.728 -0.8719  0.5946 -0.4825
  174SAPI  C31119802   3.408   5.682   8.552 -0.1642  0.4631 -1.0150
  174SAPI  H11X19803   3.404   5.782   8.598 -0.3135 -0.2146  0.4922
  174SAPI  H11Y19804   3.310   5.638   8.578  0.6749 -0.3742  0.9157
  174SAPI  C31219805   3.415   5.697   8.394 -0.1814 -0.0755 -0.3394
  174SAPI  H12X19806   3.356   5.608   8.362 -0.8344  0.1489  0.2038
  174SAPI  H12Y19807   3.517   5.687   8.353 -0.4473  0.9105 -1.2985
  174SAPI  C31319808   3.355   5.841   8.344  0.2244  0.1756  0.6564
  174SAPI  H13X19809   3.360   5.857   8.234 -0.2002  0.0725  0.6190
  174SAPI  H13Y19810   3.420   5.915   8.394  1.6224  0.4073 -1.3967
  174SAPI  C31419811   3.208   5.854   8.388  1.0875  0.2861  0.1475
  174SAPI  H14X19812   3.174   5.940   8.326 -2.8100 -1.3967 -0.3668
  174SAPI  H14Y19813   3.188   5.890   8.491 -0.2946  1.3729 -0.4543
  174SAPI  C31519814   3.106   5.742   8.346  0.8119 -0.3931 -0.3984
  174SAPI  H15X19815   3.105   5.659   8.419 -1.2367 -0.7289 -0.7515
  174SAPI  H15Y19816   3.124   5.709   8.241  0.0602 -2.6819  0.1426
  174SAPI  C31619817   2.956   5.778   8.344 -0.8421  1.3639  0.1424
  174SAPI  H16X19818   2.907   5.791   8.443 -0.1067  0.8295  0.5872
  174SAPI  H16Y19819   2.907   5.690   8.296  0.5841  0.2590  0.6369
  174SAPI  C31719820   2.918   5.905   8.264 -1.0233  0.0304  0.3187
  174SAPI  H17X19821   2.970   5.902   8.166  0.0293  1.4088  0.8053
  174SAPI  H17Y19822   2.959   6.002   8.300 -0.4305  1.1719 -3.0399
  174SAPI  C31819823   2.771   5.922   8.268 -0.2933 -0.5756  0.4273
  174SAPI  H18X19824   2.742   6.000   8.193  0.2274  0.8376  1.6470
  174SAPI  H18Y19825   2.735   5.948   8.370 -1.4651  0.2693 -0.1697
  174SAPI  H18Z19826   2.724   5.826   8.238 -1.5774  1.0095 -3.3333
  175SAPI   C1219827   1.293   3.206   5.569 -0.1592 -0.4394  0.1419
  175SAPI    H219828   1.307   3.300   5.627 -2.3567 -0.3179  0.5450
  175SAPI    O219829   1.317   3.093   5.658  0.3076  0.0968 -0.2237
  175SAPI   HO219830   1.270   3.107   5.741 -0.1396 -3.3675  0.2610
  175SAPI   C1319831   1.150   3.191   5.510 -0.2300  0.3891  0.3920
  175SAPI    H319832   1.147   3.277   5.439  0.3037  1.1158  1.2359
  175SAPI    O319833   1.052   3.207   5.605 -0.0067 -0.3669  0.0448
  175SAPI   HO319834   1.079   3.154   5.680 -0.0786 -2.1604 -1.1491
  175SAPI   C1419835   1.145   3.060   5.439  1.0061 -0.7915  0.7279
  175SAPI    H419836   1.161   2.979   5.513  1.7293 -1.7001 -0.3799
  175SAPI    O419837   1.010   3.033   5.385 -0.0398  0.4605 -0.1014
  175SAPI   HO419838   0.965   2.981   5.451  1.9122 -0.0273  0.9245
  175SAPI   C1519839   1.248   3.056   5.329  0.0751 -0.1874  0.4399
  175SAPI    H519840   1.221   3.133   5.253  1.7146  0.6813  0.7008
  175SAPI    O519841   1.255   2.928   5.266  0.4618 -0.2077  0.4912
  175SAPI   HO519842   1.201   2.872   5.322 -0.2484 -1.0773 -1.0078
  175SAPI   C1619843   1.385   3.078   5.378 -0.1963 -0.3188  0.6347
  175SAPI    H619844   1.426   2.993   5.437  1.7635 -1.0971 -1.6874
  175SAPI    O619845   1.474   3.096   5.262 -0.2504 -0.1971  0.2915
  175SAPI   HO619846   1.489   3.189   5.246  1.4379 -0.5790 -0.6222
  175SAPI   C1119847   1.391   3.206   5.452 -0.4109  0.7811 -0.2036
  175SAPI    H119848   1.366   3.290   5.383 -1.1514  1.9610  1.4299
  175SAPI     P19849   1.632   3.318   5.458 -0.1866  0.5444  0.6074
  175SAPI   O1319850   1.579   3.398   5.345  0.2183  0.3630  0.2433
  175SAPI   O1419851   1.753   3.236   5.424  0.1981 -0.5759 -0.7811
  175SAPI   O1219852   1.515   3.221   5.512  0.2659  0.8795  0.4589
  175SAPI   O1119853   1.665   3.414   5.568 -0.1600 -0.4589  0.0936
  175SAPI    C119854   1.740   3.375   5.682 -0.8348 -0.1833  0.5316
  175SAPI    HA19855   1.774   3.270   5.681 -2.4168 -0.7069  0.0690
  175SAPI    HB19856   1.828   3.442   5.692 -0.7188 -0.4424  1.2900
  175SAPI    C219857   1.651   3.396   5.806 -0.6684 -0.3298  0.2793
  175SAPI    HS19858   1.553   3.349   5.785  0.5943 -2.5308 -1.0311
  175SAPI   O2119859   1.639   3.536   5.838  0.1189  0.0456  0.1751
  175SAPI   C2119860   1.535   3.568   5.906 -0.2308 -0.0835 -0.2960
  175SAPI   O2219861   1.443   3.495   5.935  0.2762 -0.2376  0.2222
  175SAPI   C2219862   1.533   3.713   5.953 -0.1268  0.6529 -0.6487
  175SAPI   H2R19863   1.632   3.745   5.993 -0.6586  1.5004  0.0305
  175SAPI   H2S19864   1.520   3.777   5.863 -1.7895  2.3818  0.7238
  175SAPI    C319865   1.704   3.307   5.925 -0.2084  0.2372 -0.0205
  175SAPI    HX19866   1.803   3.356   5.942 -0.3934  1.3020 -1.8562
  175SAPI    HY19867   1.724   3.201   5.898  1.4463  0.2632  0.9299
  175SAPI   O3119868   1.618   3.308   6.041  0.0761 -0.1123  0.0331
  175SAPI   C3119869   1.533   3.206   6.045 -0.6147  0.5888 -0.3119
  175SAPI   O3219870   1.522   3.118   5.964  0.6341  0.9788 -0.2978
  175SAPI   C3219871   1.444   3.227   6.167 -0.2525  0.7511  0.0197
  175SAPI   H2X19872   1.374   3.312   6.153  0.8423  1.3732 -2.1681
  175SAPI   H2Y19873   1.513   3.241   6.253  0.0250  1.2984 -0.2880
  175SAPI   C2319874   1.410   3.743   6.042  0.2278  0.2876 -0.3558
  175SAPI   H3R19875   1.315   3.709   5.994 -0.3772 -0.6042  1.3653
  175SAPI   H3S19876   1.397   3.852   6.054  1.2963  0.4718 -0.7775
  175SAPI   C2419877   1.421   3.681   6.180 -0.8145  0.5900 -1.3316
  175SAPI   H4R19878   1.519   3.706   6.226 -1.2734  1.3362 -0.7419
  175SAPI   H4S19879   1.428   3.570   6.174  3.9439  0.6092  0.3216
  175SAPI   C2519880   1.297   3.718   6.267 -0.8725  0.1133  0.3760
  175SAPI   H5R19881   1.207   3.748   6.211 -0.2682  1.1765 -0.0568
  175SAPI   C2619882   1.290   3.699   6.401 -0.0668 -0.4383  0.1755
  175SAPI   H6R19883   1.194   3.719   6.452  0.4604  1.2547  0.5712
  175SAPI   C2719884   1.390   3.624   6.482 -0.3990  0.2707 -0.2610
  175SAPI   H7R19885   1.401   3.672   6.581 -0.4565  0.7860 -0.4980
  175SAPI   H7S19886   1.490   3.640   6.436 -1.3077  0.5518 -2.2590
  175SAPI   C2819887   1.369   3.477   6.501 -0.8408 -0.4253 -0.2273
  175SAPI   H8R19888   1.268   3.442   6.476 -1.0381 -1.3991  1.7654
  175SAPI   C2919889   1.451   3.390   6.568  0.1771 -0.0692  0.0219
  175SAPI   H9R19890   1.423   3.283   6.568 -0.1565  0.0113 -0.4720
  175SAPI  C21019891   1.582   3.417   6.630 -0.2516  0.3897 -0.5797
  175SAPI  H10R19892   1.556   3.458   6.730 -0.0441  0.2606 -0.4731
  175SAPI  H10S19893   1.628   3.502   6.574  0.5451  0.0442 -0.4553
  175SAPI  C21119894   1.669   3.297   6.655 -0.0330  0.0817  0.3072
  175SAPI  H11R19895   1.738   3.256   6.579  1.0734 -1.2021  1.9400
  175SAPI  C21219896   1.664   3.227   6.765  0.0290 -0.0931 -0.2523
  175SAPI  H12R19897   1.734   3.143   6.770 -2.6009 -2.3651  1.7261
  175SAPI  C21319898   1.570   3.247   6.880  0.5163 -0.0762  0.3991
  175SAPI  H13R19899   1.529   3.149   6.915 -0.6058  0.0122 -0.5660
  175SAPI  H13S19900   1.483   3.300   6.834  2.1060 -0.2917 -3.1903
  175SAPI  C21419901   1.619   3.329   6.997 -0.2813 -0.2819  0.5001
  175SAPI  H14R19902   1.685   3.411   6.968  0.2244 -0.5343  0.9233
  175SAPI  C21519903   1.575   3.321   7.124 -1.1049 -0.1074 -0.2889
  175SAPI  H15R19904   1.632   3.391   7.187  1.3039  0.1953 -2.6386
  175SAPI  C21619905   1.459   3.242   7.184 -0.1126 -0.4917 -0.3608
  175SAPI  H16R19906   1.392   3.210   7.102  1.5623  0.2783 -2.1167
  175SAPI  H16S19907   1.389   3.310   7.239 -1.8385 -1.9036 -0.7261
  175SAPI  C21719908   1.508   3.125   7.278 -0.1578  0.2776 -0.2342
  175SAPI  H17R19909   1.551   3.045   7.215  0.5416  0.5939 -0.1666
  175SAPI  H17S19910   1.424   3.087   7.340  0.1529  1.7855  1.1766
  175SAPI  C21819911   1.614   3.165   7.386 -0.2338  0.1058 -0.1119
  175SAPI  H18R19912   1.688   3.227   7.331 -0.5045  1.9818  1.5273
  175SAPI  H18S19913   1.662   3.072   7.422 -0.5401  0.9561  2.7945
  175SAPI  C21919914   1.567   3.249   7.504  0.4157  0.7736  0.5577
  175SAPI  H19R19915   1.483   3.196   7.553  2.0249 -1.4867  1.0502
  175SAPI  H19S19916   1.534   3.346   7.461  1.2033  1.4181  1.3575
  175SAPI  C22019917   1.674   3.253   7.616 -0.2271 -0.2658 -0.6594
  175SAPI  H20R19918   1.774   3.276   7.575  0.5880 -1.4128  0.5912
  175SAPI  H20S19919   1.672   3.157   7.671  0.5711  0.2162  0.2406
  175SAPI  H20T19920   1.657   3.329   7.696  0.5556  1.9981 -2.5284
  175SAPI   C3319921   1.352   3.109   6.196 -0.1569 -0.1051  0.0456
  175SAPI   H3X19922   1.423   3.029   6.165 -0.3954 -0.4025  0.2702
  175SAPI   H3Y19923   1.267   3.112   6.124  0.9183 -1.6386 -1.3790
  175SAPI   C3419924   1.311   3.102   6.342 -0.4830  0.4126 -0.0721
  175SAPI   H4X19925   1.242   3.184   6.373  1.0961  0.9632  2.3105
  175SAPI   H4Y19926   1.391   3.121   6.417 -1.1423  2.0104  0.2765
  175SAPI   C3519927   1.237   2.964   6.374  0.3802  0.1539  0.4208
  175SAPI   H5X19928   1.309   2.886   6.407 -0.8948  0.4117  4.2345
  175SAPI   H5Y19929   1.186   2.932   6.280 -0.4354 -0.3726  1.0239
  175SAPI   C3619930   1.127   2.983   6.484 -0.1475  0.3102  0.1814
  175SAPI   H6X19931   1.071   2.889   6.502 -2.7665  1.2346 -2.4272
  175SAPI   H6Y19932   1.063   3.064   6.446 -0.8196  0.2124  1.0737
  175SAPI   C3719933   1.184   3.031   6.625 -0.2284  0.6944  0.6067
  175SAPI   H7X19934   1.285   3.074   6.611 -0.1861  0.9852  1.7371
  175SAPI   H7Y19935   1.197   2.944   6.693  0.4450 -0.2213 -0.6423
  175SAPI   C3819936   1.091   3.122   6.690  0.0664  0.2149 -1.0384
  175SAPI   H8X19937   0.991   3.076   6.706 -0.2212  0.5754 -1.7498
  175SAPI   H8Y19938   1.084   3.215   6.629 -0.3995 -0.3749 -1.9064
  175SAPI   C3919939   1.144   3.161   6.826 -0.8328  0.6576 -0.0930
  175SAPI   H9X19940   1.244   3.208   6.809  0.3379 -1.5752  0.2317
  175SAPI   H9Y19941   1.169   3.074   6.890  0.7163  0.9344 -0.2835
  175SAPI  C31019942   1.050   3.245   6.907  0.4001 -0.0127  0.3164
  175SAPI  H10X19943   0.952   3.193   6.917  1.4875 -2.0571  0.9829
  175SAPI  H10Y19944   1.033   3.339   6.851  3.0709  1.5079  1.8514
  175SAPI  C31119945   1.105   3.265   7.051 -0.2690 -0.4444 -0.5659
  175SAPI  H11X19946   1.183   3.342   7.029 -0.1908 -0.9652 -2.3234
  175SAPI  H11Y19947   1.151   3.172   7.090 -0.0993  0.2130  0.8593
  175SAPI  C31219948   1.004   3.318   7.152  0.2159 -0.4130  0.2738
  175SAPI  H12X19949   0.947   3.231   7.192  0.6184 -0.9683 -0.3238
  175SAPI  H12Y19950   0.948   3.401   7.105  0.8653 -0.7034 -1.0824
  175SAPI  C31319951   1.068   3.384   7.280  0.2680 -0.1693 -0.8299
  175SAPI  H13X19952   1.132   3.473   7.262  0.1049  0.2598  0.5544
  175SAPI  H13Y19953   1.144   3.314   7.321  1.2296  2.3999  2.1772
  175SAPI  C31419954   0.959   3.439   7.371  0.0335 -1.0375 -0.1158
  175SAPI  H14X19955   0.875   3.366   7.380 -0.5179 -0.3705  0.3405
  175SAPI  H14Y19956   0.912   3.533   7.335 -0.6624 -1.4630 -0.3331
  175SAPI  C31519957   1.016   3.452   7.519  0.4372  0.1650  0.0332
  175SAPI  H15X19958   1.109   3.513   7.509  0.2033  0.3132 -1.6646
  175SAPI  H15Y19959   1.058   3.357   7.558 -1.3770  0.3064  2.6076
  175SAPI  C31619960   0.898   3.478   7.617 -0.0473  0.0396 -0.9793
  175SAPI  H16X19961   0.805   3.429   7.580 -1.2179  2.4655 -1.4085
  175SAPI  H16Y19962   0.879   3.585   7.637  1.4696  0.1515  0.0157
  175SAPI  C31719963   0.925   3.434   7.763  0.0298 -0.3166  0.2696
  175SAPI  H17X19964   0.999   3.351   7.762 -0.0667 -0.4071  0.5156
  175SAPI  H17Y19965   0.828   3.402   7.807  1.1341 -2.7051  1.1524
  175SAPI  C31819966   0.979   3.544   7.854  0.1234 -0.4919 -0.4949
  175SAPI  H18X19967   1.076   3.581   7.815  0.1661  1.0183  0.9478
  175SAPI  H18Y19968   1.001   3.522   7.961  2.1166  2.8883 -0.0457
  175SAPI  H18Z19969   0.921   3.637   7.836  1.4966  0.0839 -2.3618
  176SAPI   C1219970   1.026   1.552   5.480 -0.5607  0.1333 -0.4543
  176SAPI    H219971   1.104   1.622   5.516 -0.3601 -1.0155  1.4660
  176SAPI    O219972   0.931   1.627   5.409 -0.3331  0.1483  0.4828
  176SAPI   HO219973   0.888   1.684   5.473  1.9597  0.8808  1.4858
  176SAPI   C1319974   1.109   1.454   5.389 -0.1902  0.7264 -0.0179
  176SAPI    H319975   1.194   1.415   5.448 -1.1972 -0.1476  0.9023
  176SAPI    O319976   1.164   1.519   5.274 -0.1683 -0.1386 -0.3541
  176SAPI   HO319977   1.087   1.549   5.225  0.5597  0.8506 -0.9240
  176SAPI   C1419978   1.017   1.348   5.337  0.2575 -0.3285  0.2899
  176SAPI    H419979   0.933   1.390   5.277  0.9437 -1.0783 -1.2679
  176SAPI    O419980   1.081   1.244   5.254  0.3302  0.2259  0.7447
  176SAPI   HO419981   1.122   1.279   5.174 -1.2509  0.7309  0.1137
  176SAPI   C1519982   0.942   1.281   5.458 -0.1322  0.4178  0.6572
  176SAPI    H519983   1.024   1.240   5.522  2.4782  1.7938 -1.5738
  176SAPI    O519984   0.860   1.172   5.417  0.1055 -0.1747  0.0818
  176SAPI   HO519985   0.865   1.104   5.484  0.9141  0.0784  0.2896
  176SAPI   C1619986   0.872   1.374   5.552 -0.5463 -0.4448 -0.3975
  176SAPI    H619987   0.782   1.411   5.498 -2.0372  0.3592  2.4315
  176SAPI    O619988   0.824   1.311   5.668 -0.3486 -0.4549 -0.2360
  176SAPI   HO619989   0.830   1.379   5.735  1.3171 -0.6072 -0.1888
  176SAPI   C1119990   0.968   1.484   5.594 -0.1514 -0.6707 -1.0879
  176SAPI    H119991   1.051   1.431   5.644 -0.3097  1.8957  2.2319
  176SAPI     P19992   1.001   1.628   5.813 -0.3585  0.2919  0.3812
  176SAPI   O1319993   1.021   1.497   5.880  0.1773  0.3286  0.3262
  176SAPI   O1419994   0.933   1.738   5.881 -0.1333 -0.6917  0.0151
  176SAPI   O1219995   0.915   1.583   5.681  0.0908  0.1905  0.1403
  176SAPI   O1119996   1.129   1.683   5.761 -0.3475  0.0728 -0.1936
  176SAPI    C119997   1.256   1.626   5.768 -0.8029  0.4569 -0.0515
  176SAPI    HA19998   1.255   1.518   5.794  2.8497 -0.0789 -1.5701
  176SAPI    HB19999   1.298   1.614   5.665 -3.1257  0.3075 -1.0560
  176SAPI    C220000   1.346   1.687   5.884 -0.2282  0.0605 -0.1017
  176SAPI    HS20001   1.445   1.636   5.888 -0.7429 -1.0617 -1.0999
  176SAPI   O2120002   1.268   1.675   6.007 -0.2073  0.2518 -0.8200
  176SAPI   C2120003   1.288   1.554   6.060  0.2863 -0.0040 -0.5265
  176SAPI   O2220004   1.384   1.482   6.034  0.0423 -0.1829  0.6289
  176SAPI   C2220005   1.181   1.523   6.169 -0.2639  0.2248 -0.0939
  176SAPI   H2R20006   1.094   1.584   6.136 -0.4895 -0.2476 -0.3803
  176SAPI   H2S20007   1.163   1.413   6.163  1.3897  0.0332 -3.1015
  176SAPI    C320008   1.381   1.828   5.850 -0.2176 -0.4425  0.0005
  176SAPI    HX20009   1.293   1.895   5.865  0.3782  0.0970  1.2597
  176SAPI    HY20010   1.400   1.829   5.740 -0.6660 -1.2984 -0.0925
  176SAPI   O3120011   1.499   1.883   5.907 -0.4773 -0.0120 -0.6146
  176SAPI   C3120012   1.481   1.988   5.996 -0.3426  0.3257 -0.4215
  176SAPI   O3220013   1.377   2.039   6.019  0.2493 -0.0005  0.2856
  176SAPI   C3220014   1.614   2.033   6.048  0.2422  0.2706  0.2075
  176SAPI   H2X20015   1.639   2.132   6.006 -0.3990 -0.5290 -2.2694
  176SAPI   H2Y20016   1.698   1.968   6.016 -1.3971 -1.2065 -1.3705
  176SAPI   C2320017   1.228   1.563   6.313 -0.2338  0.3916  0.0472
  176SAPI   H3R20018   1.259   1.669   6.308  1.2831 -0.0722 -1.0471
  176SAPI   H3S20019   1.321   1.508   6.339  0.5481  0.9196 -1.4899
  176SAPI   C2420020   1.120   1.558   6.424 -0.3043 -0.1143  0.7220
  176SAPI   H4R20021   1.019   1.595   6.396 -0.6471 -0.2952  1.6810
  176SAPI   H4S20022   1.160   1.630   6.499  1.2972  0.0014 -0.1803
  176SAPI   C2520023   1.091   1.420   6.485  0.7783  0.6408  0.0031
  176SAPI   H5R20024   1.059   1.343   6.413  1.0228  0.9500 -0.4442
  176SAPI   C2620025   1.086   1.386   6.619  0.0261  0.5414  0.2782
  176SAPI   H6R20026   1.068   1.280   6.639 -0.4315  0.5405 -0.1246
  176SAPI   C2720027   1.127   1.468   6.735 -0.8427  0.4469  0.0709
  176SAPI   H7R20028   1.233   1.498   6.725 -0.0562 -1.7462  1.1324
  176SAPI   H7S20029   1.128   1.400   6.824 -0.3564 -1.3093 -1.2284
  176SAPI   C2820030   1.036   1.591   6.759  0.2617  0.3428  0.2423
  176SAPI   H8R20031   1.013   1.646   6.666  0.2747  2.9429  1.7116
  176SAPI   C2920032   0.996   1.638   6.878  0.4003 -0.3226  0.9668
  176SAPI   H9R20033   0.910   1.708   6.879  1.1275  0.6612  3.4918
  176SAPI  C21020034   1.016   1.569   7.012 -0.2914  0.2382  0.1409
  176SAPI  H10R20035   1.038   1.654   7.080 -1.9219 -0.3105  1.4193
  176SAPI  H10S20036   1.108   1.508   7.001 -0.0938  0.8295 -2.1152
  176SAPI  C21120037   0.905   1.475   7.060 -0.4891  0.4242 -0.0487
  176SAPI  H11R20038   0.809   1.468   7.007 -0.5879 -0.4992  0.2285
  176SAPI  C21220039   0.915   1.414   7.183  0.1325 -0.4482  0.3638
  176SAPI  H12R20040   0.833   1.343   7.202  0.9945 -1.5287  0.1702
  176SAPI  C21320041   1.014   1.414   7.294  0.6711  0.3096  0.1404
  176SAPI  H13R20042   0.967   1.435   7.393  0.4576  0.4907  0.0022
  176SAPI  H13S20043   1.081   1.502   7.283 -0.8441  1.3177 -1.5724
  176SAPI  C21420044   1.103   1.292   7.283  0.8480 -0.4077  0.5990
  176SAPI  H14R20045   1.177   1.291   7.201 -0.1060  3.7205 -0.5323
  176SAPI  C21520046   1.114   1.186   7.371  0.3083 -0.8393  0.1169
  176SAPI  H15R20047   1.189   1.107   7.354  1.7967  0.3992  0.5852
  176SAPI  C21620048   1.021   1.175   7.486 -0.6354 -1.1328  0.0768
  176SAPI  H16R20049   0.946   1.256   7.489  0.6066  0.1303 -1.3839
  176SAPI  H16S20050   1.078   1.188   7.581 -0.1252  1.4019 -0.4922
  176SAPI  C21720051   0.941   1.046   7.472 -0.0374 -0.0455  0.5529
  176SAPI  H17R20052   1.008   0.959   7.455 -1.0793 -0.4507 -1.9364
  176SAPI  H17S20053   0.863   1.042   7.392 -1.1978  3.3581  1.3502
  176SAPI  C21820054   0.856   1.013   7.603  0.0556  0.3921 -0.2672
  176SAPI  H18R20055   0.749   1.029   7.581  0.4210 -1.4850 -4.2773
  176SAPI  H18S20056   0.902   1.074   7.684 -1.7308  0.8365  0.4457
  176SAPI  C21920057   0.897   0.868   7.658 -0.5313  1.2579 -0.3644
  176SAPI  H19R20058   1.000   0.889   7.694 -1.7780  1.5039  3.4705
  176SAPI  H19S20059   0.889   0.797   7.573 -1.2957 -0.7864  1.3478
  176SAPI  C22020060   0.818   0.800   7.768 -0.5452  0.2036  0.5318
  176SAPI  H20R20061   0.803   0.863   7.858 -0.8593  0.3871  0.3547
  176SAPI  H20S20062   0.861   0.701   7.794 -0.0846 -0.6501 -3.0069
  176SAPI  H20T20063   0.716   0.773   7.732  0.1630 -0.3903 -1.1185
  176SAPI   C3320064   1.609   2.057   6.199  0.5130  0.0849 -0.0184
  176SAPI   H3X20065   1.616   1.955   6.243  0.7858  0.1607  0.1163
  176SAPI   H3Y20066   1.519   2.113   6.233 -1.1196 -1.4326 -1.6611
  176SAPI   C3420067   1.724   2.132   6.259 -0.4501 -0.0752 -0.2650
  176SAPI   H4X20068   1.733   2.231   6.209 -0.7588  1.0761  1.8412
  176SAPI   H4Y20069   1.821   2.084   6.231  0.4639  1.8750 -0.6226
  176SAPI   C3520070   1.721   2.140   6.413 -0.1112  0.0500  0.2351
  176SAPI   H5X20071   1.824   2.126   6.452 -0.5260 -0.5395  1.1526
  176SAPI   H5Y20072   1.653   2.059   6.445 -1.6213 -0.1451 -2.9902
  176SAPI   C3620073   1.658   2.269   6.478  0.8363  0.1282 -0.9457
  176SAPI   H6X20074   1.555   2.264   6.436  0.3255 -2.3132  0.4252
  176SAPI   H6Y20075   1.711   2.350   6.425  0.9501  1.0040  0.4700
  176SAPI   C3720076   1.646   2.272   6.622  0.5291  0.3200  0.0526
  176SAPI   H7X20077   1.586   2.182   6.648  1.6791 -0.7262 -0.8259
  176SAPI   H7Y20078   1.595   2.363   6.661  0.2030  0.3079 -0.3384
  176SAPI   C3820079   1.770   2.257   6.709 -0.0074 -0.1213  0.1861
  176SAPI   H8X20080   1.852   2.306   6.651 -0.0162 -3.0576 -2.6125
  176SAPI   H8Y20081   1.813   2.156   6.720  0.8243  0.4534  3.1962
  176SAPI   C3920082   1.765   2.323   6.851 -0.7570 -0.1430 -0.1744
  176SAPI   H9X20083   1.680   2.268   6.898  0.1829 -0.5523  1.1010
  176SAPI   H9Y20084   1.736   2.430   6.841 -0.6714 -0.0207  0.7384
  176SAPI  C31020085   1.894   2.317   6.942  0.6943  0.1242  1.3591
  176SAPI  H10X20086   1.973   2.363   6.879 -0.3385  0.2721  0.1499
  176SAPI  H10Y20087   1.930   2.213   6.956  1.3096 -0.0086 -0.8546
  176SAPI  C31120088   1.883   2.395   7.075  0.8229  0.3474 -0.5787
  176SAPI  H11X20089   1.831   2.335   7.153  1.5776  1.2075  0.6180
  176SAPI  H11Y20090   1.816   2.482   7.055 -0.6358 -0.5475  0.2279
  176SAPI  C31220091   2.012   2.443   7.136  0.1464  0.0804  0.4905
  176SAPI  H12X20092   2.001   2.550   7.164 -2.5664 -0.6277  2.6231
  176SAPI  H12Y20093   2.095   2.448   7.063 -0.9174  0.7126 -0.7173
  176SAPI  C31320094   2.059   2.381   7.265 -0.1201 -0.1975 -0.4230
  176SAPI  H13X20095   2.062   2.270   7.259  1.4219 -0.1070 -3.0241
  176SAPI  H13Y20096   1.987   2.409   7.345 -0.9628 -1.5498 -0.6745
  176SAPI  C31420097   2.199   2.420   7.299 -0.1228 -0.1863  0.0184
  176SAPI  H14X20098   2.215   2.529   7.317  0.4554 -0.5127  1.7038
  176SAPI  H14Y20099   2.260   2.379   7.217 -0.3835  1.9359 -1.3342
  176SAPI  C31520100   2.261   2.369   7.432  0.4524  0.6914 -0.4206
  176SAPI  H15X20101   2.227   2.264   7.447  1.3514  0.3678 -0.5800
  176SAPI  H15Y20102   2.213   2.426   7.515  0.1420  0.0849 -0.1730
  176SAPI  C31620103   2.414   2.369   7.429  0.0761 -0.3423  0.5352
  176SAPI  H16X20104   2.462   2.467   7.406  1.8364 -1.4086 -0.6172
  176SAPI  H16Y20105   2.453   2.302   7.349 -0.7495  0.2536 -0.3865
  176SAPI  C31720106   2.468   2.318   7.566 -0.0323 -0.0025  0.3773
  176SAPI  H17X20107   2.456   2.208   7.574 -1.7527 -0.0759 -2.1857
  176SAPI  H17Y20108   2.409   2.360   7.651  0.7948  3.8711 -0.7600
  176SAPI  C31820109   2.614   2.367   7.596  0.0935 -0.3707  0.5430
  176SAPI  H18X20110   2.682   2.366   7.508  0.6047 -0.7641  0.9426
  176SAPI  H18Y20111   2.650   2.301   7.678 -1.6244 -0.5273  1.2225
  176SAPI  H18Z20112   2.612   2.471   7.635  0.4575 -0.7758  1.6644
  177SLPC     N20113   4.864   5.263   9.834 -0.0163  0.1150 -0.4182
  177SLPC   C1320114   4.833   5.124   9.880 -0.2087  0.0300  0.0516
  177SLPC  H13A20115   4.748   5.130   9.946 -0.5951 -0.1061 -0.4241
  177SLPC  H13B20116   4.803   5.054   9.803  0.8613 -1.7427  1.1969
  177SLPC  H13C20117   4.921   5.075   9.919  0.5226  0.0363 -1.5058
  177SLPC   C1420118   4.877   5.359   9.955 -0.3488  0.5171  0.3712
  177SLPC  H14A20119   4.884   5.458   9.913  1.1271  1.1886  2.0419
  177SLPC  H14B20120   4.786   5.350  10.013 -0.5151 -1.0183 -0.0925
  177SLPC  H14C20121   4.966   5.348  10.015  0.5604  0.9058 -0.8608
  177SLPC   C1520122   4.753   5.317   9.755 -0.3490  0.1951 -0.3163
  177SLPC  H15A20123   4.658   5.322   9.806  0.5407  1.6256  1.2852
  177SLPC  H15B20124   4.766   5.413   9.709  0.0050  0.4860  0.3830
  177SLPC  H15C20125   4.729   5.250   9.673 -0.1169 -1.2551  0.7641
  177SLPC   C1220126   4.996   5.251   9.755 -0.8415  0.1685  0.3705
  177SLPC  H12A20127   5.069   5.212   9.824  0.3966 -0.0478 -1.0185
  177SLPC  H12B20128   5.028   5.352   9.732 -1.0425 -0.3942 -2.8439
  177SLPC   C1120129   5.007   5.173   9.625  0.1235 -0.2396  0.5918
  177SLPC  H11A20130   5.109   5.190   9.583  0.6016 -0.5397  1.5899
  177SLPC  H11B20131   4.921   5.203   9.562  0.6920 -1.0415 -0.5999
  177SLPC     P20132   4.928   4.945   9.538 -0.7193 -0.0580 -0.3485
  177SLPC   O1320133   5.002   4.818   9.542  0.2285  0.2731  0.1559
  177SLPC   O1420134   4.780   4.944   9.551  0.3151 -0.2182 -0.3814
  177SLPC   O1220135   4.995   5.033   9.653 -0.7144 -0.4731  0.0380
  177SLPC   O1120136   4.966   5.015   9.400  0.1064 -0.0786 -0.1953
  177SLPC    C120137   4.908   4.959   9.282 -0.5517  0.1385 -0.4892
  177SLPC    HA20138   4.811   4.907   9.292 -1.9487  2.0967 -2.8476
  177SLPC    HB20139   4.885   5.034   9.203  0.1676 -0.1819 -1.0199
  177SLPC    C220140   5.009   4.859   9.213  0.1404 -1.6311 -1.1218
  177SLPC    HS20141   5.068   4.816   9.296 -0.1525 -2.4648 -1.3451
  177SLPC   O2120142   5.091   4.933   9.126  0.6939  0.2865 -0.0656
  177SLPC   C2120143   5.207   4.878   9.097  0.2718 -0.3360 -0.4478
  177SLPC   O2220144   5.249   4.783   9.161 -0.0481  0.4320 -0.3709
  177SLPC   C2220145   5.263   4.942   8.971 -0.0166  0.3115 -0.0571
  177SLPC   H2R20146   5.174   4.958   8.907 -0.3496 -1.6672 -0.1379
  177SLPC   H2S20147   5.309   5.042   8.984  1.7665 -0.4867  0.0702
  177SLPC    C320148   4.938   4.754   9.141  0.5871  0.7136 -1.0713
  177SLPC    HX20149   4.880   4.696   9.216  1.3741 -1.5849 -2.1423
  177SLPC    HY20150   5.011   4.678   9.106  0.3169  0.2576 -0.6544
  177SLPC   O3120151   4.849   4.800   9.036 -0.6356 -0.0737  0.2215
  177SLPC   C3120152   4.894   4.792   8.908  0.3734 -0.8270  0.3070
  177SLPC   O3220153   5.005   4.759   8.871 -0.0669  0.2834  0.8721
  177SLPC   C3220154   4.790   4.850   8.806 -0.0487  0.3366 -0.0723
  177SLPC   H2X20155   4.789   4.960   8.819  2.0395  0.3767  0.0351
  177SLPC   H2Y20156   4.690   4.807   8.828  0.2021 -0.3055 -0.1730
  177SLPC   C2320157   5.372   4.847   8.911  0.3711  0.6322 -0.5262
  177SLPC   H3R20158   5.310   4.757   8.894 -0.8759  0.6538  3.0849
  177SLPC   H3S20159   5.460   4.830   8.977 -0.2585  1.1712  0.4685
  177SLPC   C2420160   5.445   4.886   8.783 -0.2465  0.3518  0.2509
  177SLPC   H4R20161   5.371   4.888   8.700 -0.9099  1.0441  0.8390
  177SLPC   H4S20162   5.521   4.809   8.758 -2.2549 -1.2952 -1.1804
  177SLPC   C2520163   5.512   5.024   8.795 -0.1483 -0.6992 -0.7636
  177SLPC   H5R20164   5.567   5.027   8.892 -2.2939 -2.2832  0.5953
  177SLPC   H5S20165   5.432   5.097   8.815 -1.3615 -2.6084  2.0715
  177SLPC   C2620166   5.603   5.062   8.674  0.2064 -1.1299  0.1161
  177SLPC   H6R20167   5.677   4.979   8.670 -1.6544 -3.0456  2.3686
  177SLPC   H6S20168   5.660   5.153   8.703  0.3501 -1.3062  0.4001
  177SLPC   C2720169   5.525   5.083   8.544 -0.4598 -0.8104  0.0839
  177SLPC   H7R20170   5.476   5.183   8.550 -0.4059 -0.6846 -1.3361
  177SLPC   H7S20171   5.449   5.002   8.545  2.6891 -4.0624  3.1873
  177SLPC   C2820172   5.613   5.086   8.410 -0.6303 -0.4165 -0.2660
  177SLPC   H8R20173   5.676   4.995   8.420  1.3095  1.0660  2.8976
  177SLPC   H8S20174   5.681   5.169   8.438 -3.0562  1.3231  0.8667
  177SLPC   C2920175   5.544   5.116   8.281  0.0483 -0.0732 -0.6801
  177SLPC   H9R20176   5.448   5.167   8.299  0.0069 -0.9331  1.8522
  177SLPC  C21020177   5.581   5.081   8.155  0.3028 -0.7111  0.6722
  177SLPC  H10R20178   5.505   5.089   8.075  0.2998 -2.0496  0.5116
  177SLPC  C21120179   5.699   5.001   8.115  0.4996 -0.3645 -0.0438
  177SLPC  H11R20180   5.742   5.069   8.039 -0.5889  1.9635  1.2979
  177SLPC  H11S20181   5.770   4.989   8.199  0.5948 -0.5588 -0.1518
  177SLPC  C21220182   5.667   4.856   8.071 -0.1700 -0.0978 -0.1168
  177SLPC  H12R20183   5.657   4.790   8.158 -1.0464  1.5885  1.1132
  177SLPC  C21320184   5.655   4.809   7.944 -0.3495  0.5395 -0.0543
  177SLPC  H13R20185   5.635   4.701   7.933 -0.7995  0.6293 -0.1010
  177SLPC  C21420186   5.672   4.892   7.817  0.7252  0.2669  0.2428
  177SLPC  H14R20187   5.673   5.002   7.831 -0.0058  0.2187  0.7352
  177SLPC  H14S20188   5.583   4.870   7.753  2.1086  1.2464 -2.1276
  177SLPC  C21520189   5.788   4.849   7.736 -0.1084  0.1440  0.2612
  177SLPC  H15R20190   5.772   4.886   7.632 -1.0863 -0.3163  0.2370
  177SLPC  H15S20191   5.800   4.739   7.743 -0.1347 -0.0767 -2.2903
  177SLPC  C21620192   5.914   4.922   7.792  0.0957  0.1035 -0.7630
  177SLPC  H16R20193   5.945   4.858   7.878 -0.3159  0.7885 -0.0933
  177SLPC  H16S20194   5.886   5.015   7.846  1.2022  1.1788 -1.9777
  177SLPC  C21720195   6.033   4.937   7.701  0.2142  0.2746  0.6989
  177SLPC  H17R20196   6.017   4.985   7.602  1.0230 -3.0804 -1.2352
  177SLPC  H17S20197   6.060   4.834   7.669 -0.2594  0.7372 -1.3726
  177SLPC  C21820198   6.152   5.005   7.764 -0.3740  0.0849 -0.8866
  177SLPC  H18R20199   6.201   4.940   7.840 -1.3893  0.3167  0.0046
  177SLPC  H18S20200   6.116   5.087   7.831  0.3085 -0.9270  0.7991
  177SLPC  H18T20201   6.229   5.036   7.691 -0.3998  1.4873 -0.3581
  177SLPC   C3320202   4.818   4.803   8.657 -0.0955  0.6155  0.2251
  177SLPC   H3X20203   4.821   4.692   8.657  0.2499  0.6164  1.1191
  177SLPC   H3Y20204   4.920   4.836   8.628 -0.1908  0.4757 -0.2637
  177SLPC   C3420205   4.734   4.867   8.551 -0.1178 -0.2669  0.3216
  177SLPC   H4X20206   4.764   4.973   8.535 -1.5591 -0.0241 -1.1358
  177SLPC   H4Y20207   4.626   4.863   8.576 -0.2903 -0.5503 -0.4209
  177SLPC   C3520208   4.755   4.805   8.415  1.1674  0.0583  0.6753
  177SLPC   H5X20209   4.747   4.694   8.424 -0.2797  0.2701  2.8719
  177SLPC   H5Y20210   4.863   4.816   8.389  1.2717  0.6087  1.3154
  177SLPC   C3620211   4.656   4.866   8.317 -0.0967  0.2224  0.2781
  177SLPC   H6X20212   4.683   4.972   8.296 -0.0043  0.2467  0.5199
  177SLPC   H6Y20213   4.559   4.872   8.370  0.0019 -0.0680  0.4949
  177SLPC   C3720214   4.634   4.783   8.186  0.1667 -0.4359 -0.3070
  177SLPC   H7X20215   4.541   4.827   8.144 -0.2792 -2.5110 -1.6557
  177SLPC   H7Y20216   4.610   4.677   8.208 -0.3407 -0.5227 -1.2204
  177SLPC   C3820217   4.748   4.792   8.083  0.2378 -0.6389 -0.2806
  177SLPC   H8X20218   4.837   4.738   8.122 -0.3241 -1.5297 -0.1959
  177SLPC   H8Y20219   4.781   4.898   8.076 -1.0403 -0.3032 -1.7742
  177SLPC   C3920220   4.706   4.764   7.939  0.8355  0.4001 -0.4229
  177SLPC   H9X20221   4.605   4.801   7.911  0.0633 -0.6846  0.8386
  177SLPC   H9Y20222   4.697   4.653   7.941  0.6649  0.4176  2.1775
  177SLPC  C31020223   4.809   4.796   7.839 -0.9549  0.4062 -0.5238
  177SLPC  H10X20224   4.909   4.774   7.882  0.0253  2.4314 -1.6321
  177SLPC  H10Y20225   4.802   4.905   7.816  1.1750  0.1305 -2.9860
  177SLPC  C31120226   4.792   4.742   7.700 -0.4412 -0.2947 -0.5621
  177SLPC  H11X20227   4.699   4.769   7.647 -0.1461 -0.0326 -0.9539
  177SLPC  H11Y20228   4.802   4.631   7.698 -0.1595 -0.2737 -2.9406
  177SLPC  C31220229   4.904   4.804   7.611  0.1867 -0.2345 -0.5866
  177SLPC  H12X20230   5.006   4.801   7.653  0.3639  0.4268 -0.9678
  177SLPC  H12Y20231   4.879   4.912   7.612 -1.1870 -0.5289 -0.1722
  177SLPC  C31320232   4.893   4.759   7.468  0.5652  0.0151 -0.5437
  177SLPC  H13X20233   4.793   4.802   7.446  1.3189  1.4776 -1.2692
  177SLPC  H13Y20234   4.890   4.648   7.457  0.8095 -0.1940  1.2049
  177SLPC  C31420235   4.973   4.844   7.367 -0.9264  0.6266  0.2692
  177SLPC  H14X20236   5.066   4.784   7.352 -1.1205  0.5213 -0.5691
  177SLPC  H14Y20237   5.001   4.942   7.410  1.6622  1.4034 -2.7967
  177SLPC  C31520238   4.921   4.872   7.227  0.4835 -0.0118  0.3494
  177SLPC  H15X20239   4.838   4.946   7.229  0.0774 -0.3661 -1.3435
  177SLPC  H15Y20240   4.882   4.778   7.183 -0.9038  0.3622  0.7188
  177SLPC  C31620241   5.023   4.948   7.143  0.0235  0.2472 -0.7967
  177SLPC  H16X20242   5.123   4.903   7.164 -0.6748 -1.0272 -0.0522
  177SLPC  H16Y20243   5.046   5.047   7.187  0.2777 -1.0139  2.1263
  177SLPC  C31720244   4.998   4.940   6.990  0.0259  0.0310 -0.5544
  177SLPC  H17X20245   4.981   4.837   6.953  2.6583 -0.8022  0.3516
  177SLPC  H17Y20246   5.082   4.988   6.936  0.3302 -0.6286 -0.6719
  177SLPC  C31820247   4.872   5.022   6.945  0.1451 -0.8391 -0.1453
  177SLPC  H18X20248   4.810   4.989   6.860 -0.5165 -1.5773  0.6040
  177SLPC  H18Y20249   4.905   5.124   6.918  0.7271 -1.0010 -0.0663
  177SLPC  H18Z20250   4.807   5.023   7.035  0.3639  0.8303  0.0296
  178SLPC     N20251   2.131   2.016   9.464  0.0919 -0.0375 -0.3503
  178SLPC   C1320252   1.986   2.013   9.474 -0.3285 -0.5521 -0.0957
  178SLPC  H13A20253   1.957   2.003   9.577 -0.5196 -0.8559 -0.1757
  178SLPC  H13B20254   1.942   2.099   9.426  1.8972  0.1509 -1.0054
  178SLPC  H13C20255   1.946   1.926   9.423  0.7001 -2.0085  1.4466
  178SLPC   C1420256   2.182   1.905   9.557 -0.6547  0.0984 -0.6833
  178SLPC  H14A20257   2.289   1.899   9.551 -0.4923  1.4765  0.3434
  178SLPC  H14B20258   2.157   1.927   9.660  1.9418  2.6725 -0.4565
  178SLPC  H14C20259   2.149   1.808   9.524  1.7257 -0.1194 -2.6976
  178SLPC   C1520260   2.164   2.150   9.513 -0.6039 -0.6208 -0.1265
  178SLPC  H15A20261   2.123   2.229   9.452  1.1109  0.9796  0.6880
  178SLPC  H15B20262   2.136   2.172   9.614 -1.3320  2.0624 -0.8285
  178SLPC  H15C20263   2.268   2.178   9.513 -1.1972  1.7653 -0.5404
  178SLPC   C1220264   2.185   1.999   9.316  0.6453  0.0263 -0.1476
  178SLPC  H12A20265   2.138   2.075   9.254  2.9409  1.4609 -0.2404
  178SLPC  H12B20266   2.141   1.913   9.267  0.5260 -0.4264  0.7440
  178SLPC   C1120267   2.342   1.992   9.285  0.2972  0.0479  0.6985
  178SLPC  H11A20268   2.397   2.083   9.315 -1.6346  2.1260 -1.6141
  178SLPC  H11B20269   2.353   1.985   9.174  2.1307 -1.4766  0.9381
  178SLPC     P20270   2.378   1.731   9.299  0.6375 -0.3666  0.4816
  178SLPC   O1320271   2.442   1.662   9.412 -0.0964  0.8000 -0.2589
  178SLPC   O1420272   2.232   1.711   9.273 -0.3353 -0.1756 -0.0001
  178SLPC   O1220273   2.398   1.880   9.341  0.3067 -0.3292  0.3690
  178SLPC   O1120274   2.460   1.715   9.166  0.2681  0.5516  0.4897
  178SLPC    C120275   2.606   1.716   9.167 -0.8749  0.9076  0.5821
  178SLPC    HA20276   2.641   1.805   9.112  1.8451 -0.6910 -0.4781
  178SLPC    HB20277   2.646   1.725   9.270  0.8060  1.5538 -0.0997
  178SLPC    C220278   2.680   1.583   9.119 -0.2733  0.0425 -0.0730
  178SLPC    HS20279   2.788   1.601   9.133 -0.0105 -0.2241 -1.5981
  178SLPC   O2120280   2.648   1.553   8.987 -0.0250 -0.4789  0.3781
  178SLPC   C2120281   2.723   1.600   8.892  0.2013  0.2097 -0.7310
  178SLPC   O2220282   2.832   1.657   8.907  0.3642  0.5141  0.3688
  178SLPC   C2220283   2.663   1.563   8.760  0.2091  0.2591  0.5851
  178SLPC   H2R20284   2.632   1.456   8.758  0.5059  0.1720 -0.5673
  178SLPC   H2S20285   2.580   1.637   8.758 -1.0601 -1.1269  0.3065
  178SLPC    C320286   2.637   1.470   9.209  0.4198  0.2974  0.0914
  178SLPC    HX20287   2.528   1.450   9.196  0.5614  0.1625 -0.9770
  178SLPC    HY20288   2.661   1.504   9.312 -2.0487  0.7574  0.5728
  178SLPC   O3120289   2.707   1.337   9.188  0.0613  0.3496 -0.4915
  178SLPC   C3120290   2.661   1.237   9.263 -0.3005 -0.3745  0.1264
  178SLPC   O3220291   2.573   1.248   9.345  0.0599 -0.2792 -0.2421
  178SLPC   C3220292   2.726   1.106   9.218  0.2412  0.7858  0.1355
  178SLPC   H2X20293   2.789   1.065   9.300  1.8055  2.4721 -0.1571
  178SLPC   H2Y20294   2.798   1.123   9.135  0.9333 -0.3200  0.4879
  178SLPC   C2320295   2.740   1.592   8.623 -0.6402 -0.0631 -0.7490
  178SLPC   H3R20296   2.816   1.512   8.610 -1.6182 -1.0563 -0.4932
  178SLPC   H3S20297   2.788   1.692   8.629 -0.9608  0.1152 -1.1331
  178SLPC   C2420298   2.653   1.595   8.503 -0.6751 -0.0291  0.0418
  178SLPC   H4R20299   2.580   1.675   8.527  0.6288 -0.0625  5.5989
  178SLPC   H4S20300   2.598   1.500   8.494  2.4274 -1.8840 -0.9583
  178SLPC   C2520301   2.735   1.633   8.379 -0.5220 -0.4675 -0.2978
  178SLPC   H5R20302   2.805   1.547   8.372 -2.4819 -2.4985  2.7267
  178SLPC   H5S20303   2.797   1.723   8.400  0.5058 -0.8857 -1.4437
  178SLPC   C2620304   2.658   1.674   8.256  0.3707  0.7105  0.4868
  178SLPC   H6R20305   2.570   1.737   8.280  0.4538  1.0371 -0.0474
  178SLPC   H6S20306   2.622   1.583   8.204  2.7234 -0.2157  0.3591
  178SLPC   C2720307   2.735   1.769   8.160 -0.5654  0.5800  0.4646
  178SLPC   H7R20308   2.793   1.718   8.080  0.5410  5.3013 -2.1852
  178SLPC   H7S20309   2.805   1.825   8.226 -0.9784 -0.3671  1.7342
  178SLPC   C2820310   2.638   1.871   8.097  0.1134 -0.1179  0.2456
  178SLPC   H8R20311   2.589   1.923   8.182  0.6771  0.7214  0.0677
  178SLPC   H8S20312   2.558   1.828   8.034 -0.0550  0.5651 -0.0141
  178SLPC   C2920313   2.716   1.981   8.026 -0.3432  0.0475  0.4927
  178SLPC   H9R20314   2.754   2.054   8.099  0.3034 -0.2462  0.4538
  178SLPC  C21020315   2.748   1.984   7.893 -0.1759  0.2968  0.1237
  178SLPC  H10R20316   2.812   2.062   7.850  0.9709 -0.8709 -0.3711
  178SLPC  C21120317   2.701   1.880   7.789  0.3458 -0.0381 -0.1974
  178SLPC  H11R20318   2.686   1.780   7.835 -1.1186 -1.1042 -2.7902
  178SLPC  H11S20319   2.779   1.869   7.710  0.0083  1.3176 -0.7641
  178SLPC  C21220320   2.570   1.918   7.736  0.3463  0.5310 -0.3856
  178SLPC  H12R20321   2.490   1.915   7.811  2.1284 -0.8500  1.5693
  178SLPC  C21320322   2.533   1.909   7.604  0.3312 -1.3476  0.4250
  178SLPC  H13R20323   2.437   1.959   7.583  1.0415 -0.4085 -0.6510
  178SLPC  C21420324   2.608   1.866   7.485 -0.8564 -0.4219  0.1985
  178SLPC  H14R20325   2.717   1.860   7.505 -1.1309 -0.6713  1.7401
  178SLPC  H14S20326   2.603   1.944   7.405  3.6084 -0.3104 -0.1886
  178SLPC  C21520327   2.571   1.733   7.406 -0.7620 -0.2274 -0.2621
  178SLPC  H15R20328   2.465   1.734   7.374 -1.6083 -2.4768  2.0460
  178SLPC  H15S20329   2.591   1.646   7.474  0.5263  1.7341  2.0390
  178SLPC  C21620330   2.656   1.701   7.282 -0.0400  0.4048  0.4986
  178SLPC  H16R20331   2.654   1.592   7.259  1.2973  0.5092 -0.2185
  178SLPC  H16S20332   2.756   1.728   7.322 -0.1879  2.1934 -0.2698
  178SLPC  C21720333   2.615   1.769   7.154  0.4248  0.8183  0.3930
  178SLPC  H17R20334   2.588   1.874   7.180 -3.0495  0.6714 -1.9212
  178SLPC  H17S20335   2.512   1.739   7.124  0.4221  0.6681  0.5511
  178SLPC  C21820336   2.718   1.747   7.050  0.4003  0.6544  0.0947
  178SLPC  H18R20337   2.699   1.809   6.960  0.5634 -0.2444 -0.5722
  178SLPC  H18S20338   2.724   1.642   7.014  0.4294  0.9918 -0.9261
  178SLPC  H18T20339   2.814   1.780   7.095  1.3842  2.0463 -2.7688
  178SLPC   C3320340   2.620   1.000   9.179  0.3299 -0.6534  0.8461
  178SLPC   H3X20341   2.533   1.005   9.247  0.0952 -1.3515  0.5979
  178SLPC   H3Y20342   2.664   0.899   9.192  0.7665 -0.5584  0.1708
  178SLPC   C3420343   2.561   1.020   9.040  0.2943  0.1350 -0.7980
  178SLPC   H4X20344   2.505   1.116   9.041 -0.9656 -0.5672 -1.6408
  178SLPC   H4Y20345   2.491   0.939   9.013  1.7782 -0.7177 -2.2564
  178SLPC   C3520346   2.654   1.033   8.924 -1.0810 -0.3193  0.8288
  178SLPC   H5X20347   2.749   0.977   8.937 -0.0442  1.3267  0.6842
  178SLPC   H5Y20348   2.700   1.134   8.923  0.0848 -0.8144  1.4781
  178SLPC   C3620349   2.593   0.991   8.788 -0.1429 -0.0979  0.3119
  178SLPC   H6X20350   2.517   1.071   8.773 -1.6163 -1.4537  0.3084
  178SLPC   H6Y20351   2.534   0.898   8.800 -1.1001  0.6857  2.2617
  178SLPC   C3720352   2.687   0.981   8.660  0.3482  0.1638 -0.8060
  178SLPC   H7X20353   2.736   0.881   8.659  0.1730  0.0681 -0.2221
  178SLPC   H7Y20354   2.771   1.053   8.656 -1.1909  2.0100 -1.3927
  178SLPC   C3820355   2.601   1.000   8.535  0.2306 -0.2177  0.3788
  178SLPC   H8X20356   2.521   0.923   8.543 -2.4259  2.3137 -0.3005
  178SLPC   H8Y20357   2.662   0.968   8.448  1.0043 -0.4547  0.9980
  178SLPC   C3920358   2.555   1.143   8.509  0.0060  0.0783  0.3058
  178SLPC   H9X20359   2.640   1.208   8.536  0.1763 -0.0062 -0.0212
  178SLPC   H9Y20360   2.463   1.167   8.566 -1.2594 -0.8645 -1.2537
  178SLPC  C31020361   2.535   1.160   8.356  0.1169  0.1222 -0.8736
  178SLPC  H10X20362   2.473   1.074   8.324  0.9495 -1.2668  0.9953
  178SLPC  H10Y20363   2.630   1.153   8.299  0.6062 -1.8198  0.0700
  178SLPC  C31120364   2.449   1.280   8.320  0.7595 -0.3138  0.1130
  178SLPC  H11X20365   2.509   1.369   8.347 -1.3720  0.5919  2.1767
  178SLPC  H11Y20366   2.363   1.269   8.390  0.2765 -0.5760 -0.5097
  178SLPC  C31220367   2.409   1.274   8.172 -0.9158  1.4201 -0.4740
  178SLPC  H12X20368   2.341   1.186   8.165 -1.7752  2.0443 -0.2255
  178SLPC  H12Y20369   2.491   1.252   8.100  0.8141 -0.8779  2.0332
  178SLPC  C31320370   2.315   1.387   8.130 -0.7781  0.2842 -0.1173
  178SLPC  H13X20371   2.377   1.479   8.131 -1.4112  0.7301 -0.8069
  178SLPC  H13Y20372   2.245   1.403   8.215 -0.7809 -0.2683 -0.0090
  178SLPC  C31420373   2.254   1.374   7.987  0.4217 -0.0543 -0.1551
  178SLPC  H14X20374   2.177   1.295   7.977  0.5764 -0.1268 -0.7863
  178SLPC  H14Y20375   2.338   1.356   7.917  2.9247  1.8123  2.1357
  178SLPC  C31520376   2.175   1.500   7.943  1.0315  0.4487 -0.4437
  178SLPC  H15X20377   2.072   1.508   7.982 -0.0777 -2.4158 -2.4095
  178SLPC  H15Y20378   2.233   1.593   7.964  0.8666  0.5072 -0.2494
  178SLPC  C31620379   2.140   1.486   7.795 -0.1634  0.2268 -0.3303
  178SLPC  H16X20380   2.059   1.410   7.803 -0.0886  0.0644 -1.0393
  178SLPC  H16Y20381   2.218   1.444   7.728 -0.3352  2.8504 -2.3449
  178SLPC  C31720382   2.079   1.620   7.740 -0.8356 -0.5016  0.1608
  178SLPC  H17X20383   2.152   1.703   7.754  0.7657 -2.0265  1.1658
  178SLPC  H17Y20384   1.989   1.638   7.804 -1.5195 -0.3832 -0.8067
  178SLPC  C31820385   2.025   1.613   7.594 -0.8889 -0.3979 -0.4012
  178SLPC  H18X20386   1.970   1.517   7.597  0.6866 -1.3217 -0.2649
  178SLPC  H18Y20387   2.108   1.610   7.521  0.0558 -1.1179  0.6750
  178SLPC  H18Z20388   1.962   1.704   7.579  1.3025  0.7734 -3.6145
  179SLPC     N20389   2.349   5.030   9.980  0.0525  0.1656  0.6897
  179SLPC   C1320390   2.465   4.979  10.060 -0.1971  0.4139  0.7673
  179SLPC  H13A20391   2.476   4.875  10.034 -0.5976  0.6554 -0.4135
  179SLPC  H13B20392   2.553   5.032  10.028 -0.3981  0.1274 -0.3049
  179SLPC  H13C20393   2.446   4.984  10.167  1.0252  0.9315  0.9724
  179SLPC   C1420394   2.332   5.176  10.019 -0.4362  0.1875  0.6006
  179SLPC  H14A20395   2.248   5.222   9.968  1.2168  2.7191 -0.0626
  179SLPC  H14B20396   2.309   5.195  10.123  1.8390  2.2132  0.8217
  179SLPC  H14C20397   2.421   5.233   9.998 -0.1217 -0.6215 -0.3317
  179SLPC   C1520398   2.229   4.947  10.009 -0.4521 -0.0362 -0.2549
  179SLPC  H15A20399   2.150   4.961   9.937  0.1996 -0.8084 -1.1482
  179SLPC  H15B20400   2.258   4.845   9.992  0.6463  0.4933 -1.7911
  179SLPC  H15C20401   2.197   4.968  10.110  1.2906  0.4979  0.2141
  179SLPC   C1220402   2.368   5.021   9.827  0.2346  0.6397 -0.4160
  179SLPC  H12A20403   2.295   5.083   9.778 -0.7809  0.2615  0.5880
  179SLPC  H12B20404   2.346   4.917   9.809 -1.2217  0.8595  0.0302
  179SLPC   C1120405   2.499   5.070   9.754 -0.3899  0.5091 -0.2414
  179SLPC  H11A20406   2.485   5.044   9.648 -2.0232  0.4224 -0.0245
  179SLPC  H11B20407   2.581   5.003   9.787 -2.8276 -2.2653  0.5563
  179SLPC     P20408   2.483   5.319   9.686  0.1485 -0.1386  0.1349
  179SLPC   O1320409   2.342   5.297   9.673 -0.2230 -0.4734  0.1062
  179SLPC   O1420410   2.522   5.447   9.744 -0.4737  0.1424 -0.0500
  179SLPC   O1220411   2.524   5.206   9.782  0.2733  0.2284  0.4022
  179SLPC   O1120412   2.556   5.291   9.553  0.6904  0.3726  0.6143
  179SLPC    C120413   2.697   5.264   9.544  0.1131  0.0325  0.3466
  179SLPC    HA20414   2.741   5.248   9.644  2.0783 -2.4888 -0.7952
  179SLPC    HB20415   2.707   5.165   9.495 -2.6319 -0.6801  1.0184
  179SLPC    C220416   2.769   5.369   9.463 -0.4759  0.1773 -0.0481
  179SLPC    HS20417   2.763   5.453   9.535 -0.4961 -0.5673  0.8269
  179SLPC   O2120418   2.700   5.407   9.339 -0.1428 -0.2027 -0.1903
  179SLPC   C2120419   2.652   5.534   9.330  0.0202  0.7313  1.0935
  179SLPC   O2220420   2.663   5.622   9.413  0.0356 -0.1167 -0.6933
  179SLPC   C2220421   2.571   5.555   9.200 -0.2461  0.0324 -0.0194
  179SLPC   H2R20422   2.629   5.508   9.118  2.7333  1.9423  0.8042
  179SLPC   H2S20423   2.474   5.503   9.218 -0.7308  1.1428  0.7052
  179SLPC    C320424   2.918   5.330   9.417 -0.3123  0.1354 -0.1082
  179SLPC    HX20425   2.978   5.315   9.509  0.2278 -1.1966 -0.6607
  179SLPC    HY20426   2.962   5.411   9.355  0.4024 -0.6197 -0.6017
  179SLPC   O3120427   2.922   5.206   9.339 -0.4599  0.2485 -0.2886
  179SLPC   C3120428   3.044   5.191   9.280  0.6419 -0.6185 -0.0667
  179SLPC   O3220429   3.133   5.271   9.281 -0.3508  0.1257 -0.1415
  179SLPC   C3220430   3.049   5.054   9.213  0.6302 -0.5779  0.3413
  179SLPC   H2X20431   2.985   5.051   9.123  1.2020 -1.7878 -0.0511
  179SLPC   H2Y20432   3.012   4.973   9.280 -0.3859 -1.6766 -1.4623
  179SLPC   C2320433   2.538   5.699   9.160 -0.7670  0.0220  0.2041
  179SLPC   H3R20434   2.638   5.745   9.142 -0.3382 -0.9509  0.0615
  179SLPC   H3S20435   2.479   5.735   9.247  0.0228 -0.2432  0.8625
  179SLPC   C2420436   2.467   5.725   9.029 -0.6147 -0.5755 -0.0541
  179SLPC   H4R20437   2.363   5.694   9.052 -0.1595 -1.0779  1.5004
  179SLPC   H4S20438   2.504   5.641   8.966 -0.2880 -1.0980  0.8106
  179SLPC   C2520439   2.488   5.870   8.984 -0.9420 -0.3057  0.1753
  179SLPC   H5R20440   2.597   5.895   8.980 -0.3754 -2.6776 -2.4669
  179SLPC   H5S20441   2.450   5.948   9.053 -0.1798 -0.7149  1.0865
  179SLPC   C2620442   2.435   5.897   8.845  0.5254  0.4034  0.1888
  179SLPC   H6R20443   2.408   6.004   8.831  0.5442  0.3309 -0.4414
  179SLPC   H6S20444   2.339   5.843   8.830  0.6707  0.5666 -1.4657
  179SLPC   C2720445   2.528   5.838   8.750  0.2641 -0.1952  0.0796
  179SLPC   H7R20446   2.572   5.741   8.778  0.6135  0.0727  0.4686
  179SLPC   H7S20447   2.614   5.908   8.742  0.5056 -0.3686  1.0259
  179SLPC   C2820448   2.463   5.807   8.616 -0.6112 -0.7179  0.5043
  179SLPC   H8R20449   2.438   5.906   8.572  0.4198 -1.2301 -1.3397
  179SLPC   H8S20450   2.367   5.753   8.636 -1.1961 -0.0888 -0.4881
  179SLPC   C2920451   2.550   5.734   8.517 -0.4835 -0.4464  0.3444
  179SLPC   H9R20452   2.636   5.793   8.481  0.7344 -2.5335 -0.3793
  179SLPC  C21020453   2.547   5.610   8.474 -0.0308  0.3693  0.4537
  179SLPC  H10R20454   2.637   5.572   8.424 -0.6280 -2.1540  1.1281
  179SLPC  C21120455   2.458   5.511   8.532  0.7348  0.8763  0.0289
  179SLPC  H11R20456   2.355   5.548   8.516 -0.1301 -2.0157 -1.8774
  179SLPC  H11S20457   2.475   5.504   8.642  1.0104  0.8613 -0.0144
  179SLPC  C21220458   2.470   5.376   8.464 -0.1071 -0.1716 -0.0254
  179SLPC  H12R20459   2.423   5.380   8.364 -1.0777  1.2274  0.4459
  179SLPC  C21320460   2.515   5.270   8.519 -0.1842 -0.2095  0.1292
  179SLPC  H13R20461   2.535   5.184   8.453  1.6021  1.4152 -1.6222
  179SLPC  C21420462   2.566   5.250   8.658 -1.1411  0.0645  0.1858
  179SLPC  H14R20463   2.617   5.340   8.698  0.0868 -0.5822  0.1435
  179SLPC  H14S20464   2.644   5.171   8.650 -0.2868  0.9219 -0.2192
  179SLPC  C21520465   2.458   5.206   8.754  0.0561 -0.0838  0.2579
  179SLPC  H15R20466   2.392   5.125   8.719 -0.3015 -0.4019  1.6079
  179SLPC  H15S20467   2.401   5.294   8.790  0.0758 -0.7279  1.9902
  179SLPC  C21620468   2.515   5.141   8.879 -0.0761 -0.2990  0.3267
  179SLPC  H16R20469   2.578   5.053   8.853 -1.6163 -0.9941 -1.2354
  179SLPC  H16S20470   2.436   5.099   8.945 -0.5627  1.6436  1.0426
  179SLPC  C21720471   2.603   5.241   8.957  0.0609  0.1759 -0.3696
  179SLPC  H17R20472   2.539   5.329   8.980 -0.6827 -0.9210  2.0228
  179SLPC  H17S20473   2.696   5.258   8.899 -0.5354 -0.6719 -1.6403
  179SLPC  C21820474   2.636   5.202   9.099 -0.0853  0.1039  0.4732
  179SLPC  H18R20475   2.543   5.197   9.159  0.3446 -2.6904  1.0920
  179SLPC  H18S20476   2.706   5.280   9.137  0.5331 -0.0165 -0.3944
  179SLPC  H18T20477   2.689   5.105   9.113 -0.0998 -0.1216 -0.9159
  179SLPC   C3320478   3.185   5.023   9.159 -0.2733  0.0326  1.0532
  179SLPC   H3X20479   3.247   4.987   9.244  1.8651 -0.5238 -0.6661
  179SLPC   H3Y20480   3.243   5.115   9.137  1.1692 -0.2261  3.3600
  179SLPC   C3420481   3.177   4.925   9.044 -0.3665 -0.1848  0.7611
  179SLPC   H4X20482   3.112   4.841   9.075 -1.5159  0.5200  0.3054
  179SLPC   H4Y20483   3.279   4.894   9.014 -0.2559  1.9861 -1.4306
  179SLPC   C3520484   3.130   4.987   8.912 -0.5471 -0.1335  0.6428
  179SLPC   H5X20485   3.204   5.066   8.888  1.4452 -2.1321 -0.1189
  179SLPC   H5Y20486   3.031   5.031   8.937 -0.1934  0.0609  1.7785
  179SLPC   C3620487   3.125   4.882   8.798 -0.1267 -0.1927 -0.1793
  179SLPC   H6X20488   3.054   4.802   8.825  1.4020 -1.4997  0.1137
  179SLPC   H6Y20489   3.217   4.820   8.793  0.1196  0.2175 -0.8604
  179SLPC   C3720490   3.098   4.941   8.659  0.5857 -0.4835  0.0045
  179SLPC   H7X20491   3.162   5.028   8.633  0.7555 -0.3241  0.9312
  179SLPC   H7Y20492   2.992   4.974   8.666  1.1873  1.7270 -0.6093
  179SLPC   C3820493   3.116   4.830   8.554  0.7096 -0.0247  0.1483
  179SLPC   H8X20494   3.062   4.739   8.586 -0.7437 -0.4191 -3.0849
  179SLPC   H8Y20495   3.222   4.799   8.563 -0.3007 -3.4188  1.7773
  179SLPC   C3920496   3.082   4.872   8.409 -0.1425  1.0263 -0.1555
  179SLPC   H9X20497   3.142   4.960   8.377 -0.4463  2.1864  2.2305
  179SLPC   H9Y20498   2.977   4.906   8.415 -0.3513  0.2159  4.5587
  179SLPC  C31020499   3.097   4.755   8.311 -0.5116 -0.6553  0.8720
  179SLPC  H10X20500   3.107   4.658   8.363 -2.4495 -1.0082  0.6645
  179SLPC  H10Y20501   3.195   4.764   8.261 -1.5837 -1.5433 -1.5632
  179SLPC  C31120502   2.996   4.742   8.203  0.0096 -0.2805 -0.4047
  179SLPC  H11X20503   2.901   4.759   8.259 -0.3876 -0.5066 -1.0000
  179SLPC  H11Y20504   2.990   4.638   8.165  1.0265 -1.1351  1.6275
  179SLPC  C31220505   3.011   4.835   8.084  0.0017 -1.0248  0.0068
  179SLPC  H12X20506   3.112   4.819   8.040 -0.3322 -0.0604 -1.1763
  179SLPC  H12Y20507   3.017   4.934   8.134 -1.6874  0.1600 -1.9892
  179SLPC  C31320508   2.915   4.831   7.972  0.2537  0.1110 -0.0140
  179SLPC  H13X20509   2.815   4.844   8.017  0.9620 -0.0653  1.6871
  179SLPC  H13Y20510   2.912   4.729   7.929  0.5032 -0.7264  1.9069
  179SLPC  C31420511   2.949   4.935   7.868  0.1160  0.1489 -0.9466
  179SLPC  H14X20512   3.046   4.896   7.830 -0.6631 -0.7096 -2.1371
  179SLPC  H14Y20513   2.953   5.031   7.923 -1.6794 -1.1657  1.7558
  179SLPC  C31520514   2.846   4.937   7.759  0.1304  0.8998 -0.4745
  179SLPC  H15X20515   2.838   4.837   7.711  0.1933  0.6675 -0.0038
  179SLPC  H15Y20516   2.875   5.007   7.678 -0.6992 -1.9041 -3.3925
  179SLPC  C31620517   2.702   4.959   7.798 -0.2574 -0.0493 -0.2091
  179SLPC  H16X20518   2.702   5.037   7.877  2.3631  0.9558 -1.1015
  179SLPC  H16Y20519   2.670   4.861   7.839 -0.0412 -0.9159 -1.9993
  179SLPC  C31720520   2.625   5.018   7.674 -0.0530  0.7329 -0.2312
  179SLPC  H17X20521   2.621   4.927   7.610  1.4318  0.7164 -0.3477
  179SLPC  H17Y20522   2.676   5.099   7.618 -2.1753  3.8146  1.9997
  179SLPC  C31820523   2.481   5.055   7.704 -0.0682  0.7105  0.3824
  179SLPC  H18X20524   2.428   5.078   7.609  0.0878  0.8341  0.3242
  179SLPC  H18Y20525   2.485   5.147   7.766  3.9324  1.1834 -0.2614
  179SLPC  H18Z20526   2.440   4.968   7.761  2.0533 -0.3602  0.3902
  180SLPC     N20527   5.510   2.126   9.552 -0.3913  0.1040 -0.3543
  180SLPC   C1320528   5.415   2.118   9.671 -0.1205  0.6168  0.4756
  180SLPC  H13A20529   5.317   2.091   9.635  0.5410 -0.7477 -0.3903
  180SLPC  H13B20530   5.457   2.053   9.746 -0.0723  2.5803  2.2425
  180SLPC  H13C20531   5.390   2.218   9.705 -3.3770  0.3956 -0.8312
  180SLPC   C1420532   5.642   2.173   9.598  0.1003  0.2304 -0.8091
  180SLPC  H14A20533   5.691   2.111   9.672 -0.2637  0.7005 -0.1673
  180SLPC  H14B20534   5.713   2.191   9.519  1.1265  1.6954  0.3909
  180SLPC  H14C20535   5.622   2.270   9.641 -2.2377  0.7110 -2.7098
  180SLPC   C1520536   5.453   2.219   9.450 -0.5929  0.1277 -0.5262
  180SLPC  H15A20537   5.444   2.322   9.482  2.7339  1.4304 -3.1687
  180SLPC  H15B20538   5.511   2.215   9.359  1.0914 -1.6354  0.5407
  180SLPC  H15C20539   5.356   2.184   9.417 -0.2845  0.0228 -1.3669
  180SLPC   C1220540   5.519   1.989   9.495 -0.9917  0.0355  0.4844
  180SLPC  H12A20541   5.420   1.961   9.463 -0.6720 -0.6106  0.0327
  180SLPC  H12B20542   5.545   1.918   9.572 -0.7716 -1.0230 -0.5271
  180SLPC   C1120543   5.629   1.963   9.388  0.2014 -0.2278 -0.2953
  180SLPC  H11A20544   5.730   1.985   9.430  0.1101 -0.0534 -0.1652
  180SLPC  H11B20545   5.618   2.034   9.302  2.0080 -0.0458 -0.4152
  180SLPC     P20546   5.651   1.704   9.423 -0.1351  0.0003  0.3054
  180SLPC   O1320547   5.792   1.691   9.440 -0.7018  0.7823  0.8264
  180SLPC   O1420548   5.571   1.712   9.549  0.1437 -0.4708 -0.3680
  180SLPC   O1220549   5.617   1.834   9.335  0.0672  0.4913  0.0621
  180SLPC   O1120550   5.608   1.579   9.343  0.5507  0.0231 -0.0117
  180SLPC    C120551   5.682   1.509   9.253  0.2347 -0.1988  0.5261
  180SLPC    HA20552   5.787   1.546   9.256 -0.5957  2.3553  0.3514
  180SLPC    HB20553   5.668   1.406   9.290 -0.4094  0.1517  1.2796
  180SLPC    C220554   5.621   1.527   9.109  0.8739 -0.4054 -0.6598
  180SLPC    HS20555   5.659   1.448   9.042 -0.0360 -1.5321  0.1044
  180SLPC   O2120556   5.633   1.667   9.079 -0.5472 -1.0939  0.4503
  180SLPC   C2120557   5.731   1.689   9.003  0.1616 -0.6361  0.3474
  180SLPC   O2220558   5.812   1.611   8.958 -0.0756 -0.0678 -0.0808
  180SLPC   C2220559   5.739   1.844   8.960  0.1111  0.2799  0.4563
  180SLPC   H2R20560   5.646   1.867   8.903 -0.2862 -1.8884  0.1379
  180SLPC   H2S20561   5.749   1.903   9.053 -0.2181 -0.1014  0.7383
  180SLPC    C320562   5.469   1.500   9.104  0.0522 -0.0133 -0.3626
  180SLPC    HX20563   5.414   1.577   9.162  1.7417 -0.0440  1.4035
  180SLPC    HY20564   5.435   1.403   9.147  0.9385 -0.2145 -0.1070
  180SLPC   O3120565   5.421   1.490   8.971 -0.3931 -0.1131 -0.3905
  180SLPC   C3120566   5.379   1.601   8.909  0.0145 -0.4645  0.4986
  180SLPC   O3220567   5.379   1.712   8.958  0.0617  0.1862 -0.5798
  180SLPC   C3220568   5.325   1.563   8.769 -0.5308 -0.1241 -0.0746
  180SLPC   H2X20569   5.260   1.473   8.778 -0.6741 -0.1690 -1.3716
  180SLPC   H2Y20570   5.419   1.537   8.716  0.0273  0.4094  0.6432
  180SLPC   C2320571   5.855   1.876   8.862  0.1869 -0.8977  0.1190
  180SLPC   H3R20572   5.846   1.829   8.761  3.3113  0.9326 -1.1801
  180SLPC   H3S20573   5.951   1.854   8.913  1.0330 -0.4500 -1.2191
  180SLPC   C2420574   5.853   2.035   8.825  0.0215 -0.4054  0.0102
  180SLPC   H4R20575   5.875   2.087   8.921  0.5940  0.0513 -0.3698
  180SLPC   H4S20576   5.756   2.074   8.787  0.6166  0.8797 -0.2566
  180SLPC   C2520577   5.959   2.080   8.721  0.3335 -0.7657 -0.5168
  180SLPC   H5R20578   6.044   2.008   8.719  0.8068 -0.2172 -2.3516
  180SLPC   H5S20579   6.005   2.176   8.754 -0.6904 -0.7007  0.7762
  180SLPC   C2620580   5.899   2.086   8.580 -0.2189  0.0461  0.5037
  180SLPC   H6R20581   5.816   2.160   8.577  0.2640  0.6720  1.8560
  180SLPC   H6S20582   5.845   1.992   8.555 -0.3653  0.1948  0.2597
  180SLPC   C2720583   6.014   2.107   8.484 -0.2198 -1.2241  0.5376
  180SLPC   H7R20584   6.074   2.015   8.466  2.1072  0.9310 -5.5096
  180SLPC   H7S20585   6.072   2.188   8.534 -0.3586 -2.4383  2.8104
  180SLPC   C2820586   5.963   2.159   8.345  0.4644  0.4186 -0.2667
  180SLPC   H8R20587   6.041   2.205   8.281 -1.8059 -0.5336 -3.9514
  180SLPC   H8S20588   5.888   2.237   8.367  0.2657 -0.2482  1.6598
  180SLPC   C2920589   5.884   2.043   8.279 -0.5269 -0.6417 -0.0353
  180SLPC   H9R20590   5.843   1.962   8.342 -2.3951  1.9615  2.3861
  180SLPC  C21020591   5.846   2.051   8.151 -0.1309 -0.3519 -0.2889
  180SLPC  H10R20592   5.792   1.966   8.107 -0.7438 -0.6028  0.9124
  180SLPC  C21120593   5.852   2.181   8.066  0.1882  0.2543  0.5086
  180SLPC  H11R20594   5.956   2.207   8.036  0.8534 -1.7775  0.9458
  180SLPC  H11S20595   5.826   2.267   8.131  0.1249  0.7192 -0.1236
  180SLPC  C21220596   5.760   2.169   7.949 -0.4648 -0.5638 -0.1279
  180SLPC  H12R20597   5.652   2.164   7.972 -0.6662  1.6301 -0.4109
  180SLPC  C21320598   5.788   2.178   7.818 -0.9536 -0.5297 -0.0724
  180SLPC  H13R20599   5.708   2.159   7.744 -0.7781  1.6690 -0.8957
  180SLPC  C21420600   5.927   2.191   7.743  0.4177  0.8526 -0.2734
  180SLPC  H14R20601   5.950   2.106   7.676  0.9212  0.2979  0.5801
  180SLPC  H14S20602   6.002   2.191   7.825  1.4200 -2.0781 -1.0524
  180SLPC  C21520603   5.934   2.325   7.669  0.1934  0.4497  0.1521
  180SLPC  H15R20604   5.914   2.409   7.739 -1.3026 -0.0700  0.3796
  180SLPC  H15S20605   5.856   2.321   7.590  0.4175  0.1098 -0.0550
  180SLPC  C21620606   6.078   2.350   7.616  0.5919  0.0202  0.3855
  180SLPC  H16R20607   6.119   2.273   7.546  1.1092  0.7265 -0.0957
  180SLPC  H16S20608   6.150   2.347   7.701 -0.4118  2.7167  1.4208
  180SLPC  C21720609   6.093   2.485   7.538 -1.1943 -0.0925 -0.0238
  180SLPC  H17R20610   6.197   2.488   7.500 -1.4334  0.5657 -0.6399
  180SLPC  H17S20611   6.095   2.568   7.612  3.6359  0.1133 -0.1216
  180SLPC  C21820612   5.995   2.508   7.426 -0.1452  0.1389  0.1212
  180SLPC  H18R20613   5.891   2.533   7.456  0.8684  1.3115  3.1016
  180SLPC  H18S20614   5.982   2.423   7.356 -0.0891  0.6758 -0.5529
  180SLPC  H18T20615   6.032   2.595   7.368  1.0489  0.4385  1.2723
  180SLPC   C3320616   5.243   1.671   8.698  0.0559  0.6423  0.5425
  180SLPC   H3X20617   5.304   1.751   8.651 -2.0881  1.5438 -0.8170
  180SLPC   H3Y20618   5.186   1.727   8.775 -2.4848  1.5818 -1.8783
  180SLPC   C3420619   5.143   1.614   8.600  0.5265 -0.4674 -0.2362
  180SLPC   H4X20620   5.091   1.523   8.639 -2.1073  1.0226 -0.0658
  180SLPC   H4Y20621   5.195   1.588   8.505 -2.7758  1.5778 -2.8426
  180SLPC   C3520622   5.033   1.713   8.566 -0.0393 -0.3782 -0.1468
  180SLPC   H5X20623   5.086   1.803   8.530  1.9532 -0.8116  1.4892
  180SLPC   H5Y20624   4.980   1.743   8.659 -1.5376  0.1203 -1.1281
  180SLPC   C3620625   4.935   1.674   8.451  0.3259  0.5471 -0.2817
  180SLPC   H6X20626   4.842   1.732   8.462 -0.1461 -0.6222  3.0305
  180SLPC   H6Y20627   4.913   1.565   8.453  1.6342  0.2645  1.2004
  180SLPC   C3720628   4.997   1.714   8.316 -0.2427  0.0670  0.3337
  180SLPC   H7X20629   5.078   1.641   8.298 -1.6104 -1.1924 -1.0113
  180SLPC   H7Y20630   5.045   1.814   8.313 -1.4703  0.6817  0.5761
  180SLPC   C3820631   4.901   1.705   8.197  0.3513 -0.2073  0.0751
  180SLPC   H8X20632   4.823   1.629   8.222  1.0788 -0.6777  0.9583
  180SLPC   H8Y20633   4.956   1.656   8.113 -1.8171 -1.1885 -0.8478
  180SLPC   C3920634   4.849   1.847   8.154  0.0880 -0.5874 -0.2921
  180SLPC   H9X20635   4.800   1.830   8.055  0.4602 -1.1888 -0.3732
  180SLPC   H9Y20636   4.931   1.914   8.121 -0.8216  0.9794  0.5264
  180SLPC  C31020637   4.756   1.915   8.254 -1.4539 -0.1871 -0.2237
  180SLPC  H10X20638   4.810   1.928   8.350 -1.1714  0.7669 -0.4936
  180SLPC  H10Y20639   4.657   1.871   8.279 -1.7240  0.7942  0.5455
  180SLPC  C31120640   4.726   2.063   8.222 -0.3240  0.1060 -0.3790
  180SLPC  H11X20641   4.812   2.123   8.187 -0.2044 -0.6863 -1.5165
  180SLPC  H11Y20642   4.683   2.103   8.316  1.1897  2.2700 -0.5307
  180SLPC  C31220643   4.612   2.066   8.107  0.4935  0.3602  0.0334
  180SLPC  H12X20644   4.525   2.005   8.139 -0.5933  0.4465 -2.5530
  180SLPC  H12Y20645   4.647   2.018   8.013 -2.0387 -0.5031 -0.5289
  180SLPC  C31320646   4.571   2.211   8.074 -0.0180  0.4818 -0.3515
  180SLPC  H13X20647   4.498   2.256   8.145  0.5303 -1.0244  1.2406
  180SLPC  H13Y20648   4.518   2.203   7.977 -0.1918 -0.2293 -0.2059
  180SLPC  C31420649   4.679   2.308   8.043  0.3810  0.2266  0.0160
  180SLPC  H14X20650   4.756   2.253   7.983 -0.2286 -1.1473  0.4645
  180SLPC  H14Y20651   4.722   2.349   8.136  2.1803 -0.3131 -0.5187
  180SLPC  C31520652   4.624   2.423   7.964  0.2396  0.5389  0.4855
  180SLPC  H15X20653   4.567   2.494   8.027 -0.5194  0.2287  0.1644
  180SLPC  H15Y20654   4.555   2.381   7.887 -0.8804 -0.0303  1.7579
  180SLPC  C31620655   4.727   2.498   7.877 -0.1215 -0.0090  0.4373
  180SLPC  H16X20656   4.770   2.425   7.805 -1.8418 -0.8645  0.2033
  180SLPC  H16Y20657   4.810   2.533   7.942  0.0247 -0.2858  0.4030
  180SLPC  C31720658   4.667   2.605   7.787  0.5769 -0.4337  0.5011
  180SLPC  H17X20659   4.609   2.677   7.850 -4.4417 -3.9760  0.5548
  180SLPC  H17Y20660   4.593   2.556   7.721  0.6694  1.5785 -1.2104
  180SLPC  C31820661   4.772   2.674   7.695  0.1895  1.0447 -0.4175
  180SLPC  H18X20662   4.825   2.597   7.636  0.6823 -0.0376  1.3538
  180SLPC  H18Y20663   4.845   2.725   7.762  0.5931 -0.3059  0.2123
  180SLPC  H18Z20664   4.731   2.751   7.626 -1.3978 -0.3548 -1.1091
  181SLPC     N20665   6.212   5.327   9.606  0.4372  0.2646  0.2040
  181SLPC   C1320666   6.196   5.338   9.752 -0.0508 -0.1624 -0.1522
  181SLPC  H13A20667   6.106   5.385   9.791  0.4596  2.1033 -1.4803
  181SLPC  H13B20668   6.226   5.251   9.808  0.6316  1.2288  1.7392
  181SLPC  H13C20669   6.265   5.416   9.782 -1.1632  0.5880  0.5397
  181SLPC   C1420670   6.107   5.228   9.561  0.0989 -0.6272 -0.2130
  181SLPC  H14A20671   6.126   5.126   9.591 -2.0452 -0.8519  0.5687
  181SLPC  H14B20672   6.015   5.260   9.607 -0.3504  0.3947 -1.7719
  181SLPC  H14C20673   6.101   5.234   9.454  0.1144  2.2537 -0.1095
  181SLPC   C1520674   6.344   5.273   9.578  0.3550  0.3110 -0.3082
  181SLPC  H15A20675   6.370   5.272   9.474  2.2250 -1.1896  0.1266
  181SLPC  H15B20676   6.421   5.330   9.629 -0.0224 -0.2306  0.9217
  181SLPC  H15C20677   6.351   5.174   9.619  0.9984  0.4146 -0.1631
  181SLPC   C1220678   6.178   5.455   9.537 -0.0060 -0.1507  0.0381
  181SLPC  H12A20679   6.233   5.533   9.588  0.2481  0.8841 -1.7167
  181SLPC  H12B20680   6.076   5.475   9.568  0.0453  0.5986 -0.2558
  181SLPC   C1120681   6.198   5.481   9.386  0.5593  0.1466 -0.4776
  181SLPC  H11A20682   6.305   5.487   9.354  1.0437  0.0194  1.0661
  181SLPC  H11B20683   6.154   5.581   9.368 -0.1119 -0.0156  0.2077
  181SLPC     P20684   5.962   5.413   9.289  0.0197  0.7789 -0.3278
  181SLPC   O1320685   5.917   5.289   9.222 -0.3713  0.8372  0.1443
  181SLPC   O1420686   5.902   5.432   9.425 -0.4581 -0.4961  0.3135
  181SLPC   O1220687   6.121   5.388   9.306 -0.5811  0.2765  0.1393
  181SLPC   O1120688   5.940   5.540   9.204  0.3914 -0.3487  0.0031
  181SLPC    C120689   6.015   5.563   9.081  0.2145 -0.0198  0.2480
  181SLPC    HA20690   6.011   5.671   9.057  1.9548  0.3860  1.5538
  181SLPC    HB20691   6.123   5.538   9.092  0.0378 -0.8259  0.2441
  181SLPC    C220692   5.962   5.478   8.963 -0.2324 -0.3488 -0.4674
  181SLPC    HS20693   5.853   5.457   8.969  0.1137 -2.3659 -0.4551
  181SLPC   O2120694   6.039   5.360   8.944  0.1255  0.5297 -0.3769
  181SLPC   C2120695   5.963   5.261   8.882  0.6227  0.7727  0.0027
  181SLPC   O2220696   5.842   5.257   8.883 -0.0253 -0.0592  0.8857
  181SLPC   C2220697   6.058   5.165   8.810 -0.5880  0.2004  0.2217
  181SLPC   H2R20698   6.147   5.226   8.781  0.2102 -0.6188  0.8811
  181SLPC   H2S20699   6.082   5.087   8.885 -1.9715 -0.9761 -0.5270
  181SLPC    C320700   5.984   5.552   8.828  0.6818 -0.1146 -0.1790
  181SLPC    HX20701   5.919   5.642   8.825 -1.3795 -1.4430  1.4774
  181SLPC    HY20702   5.952   5.480   8.750 -0.2952 -0.0426  0.1499
  181SLPC   O3120703   6.117   5.585   8.810 -0.1168 -0.8870 -0.3630
  181SLPC   C3120704   6.136   5.661   8.709 -0.1505 -0.1304  0.6096
  181SLPC   O3220705   6.047   5.710   8.641  0.2724 -0.0648  0.0519
  181SLPC   C3220706   6.285   5.687   8.693  0.5226  0.5551  0.5234
  181SLPC   H2X20707   6.340   5.655   8.784  1.4738 -2.7303 -1.0336
  181SLPC   H2Y20708   6.288   5.797   8.679 -3.6720  0.4733 -3.4421
  181SLPC   C2320709   5.999   5.093   8.687 -0.1417 -0.1560 -0.0245
  181SLPC   H3R20710   5.903   5.036   8.696 -1.2543  1.6146 -0.1624
  181SLPC   H3S20711   6.074   5.020   8.650 -0.2535  0.0368 -0.6435
  181SLPC   C2420712   5.977   5.183   8.561  0.1454  0.2703 -0.5334
  181SLPC   H4R20713   6.048   5.268   8.576 -1.3514  1.3529  0.6673
  181SLPC   H4S20714   5.879   5.234   8.551 -0.8108 -1.4559 -0.4161
  181SLPC   C2520715   6.016   5.115   8.422 -0.5761  0.7860  1.0844
  181SLPC   H5R20716   5.940   5.036   8.401  2.1557 -1.9284  0.7452
  181SLPC   H5S20717   6.119   5.075   8.428 -0.8275 -0.3747 -1.1724
  181SLPC   C2620718   6.004   5.224   8.306 -0.2052  0.2555 -0.2478
  181SLPC   H6R20719   6.066   5.308   8.344 -0.9810  0.2281  1.1569
  181SLPC   H6S20720   5.899   5.259   8.300 -0.5062  0.5371  3.6582
  181SLPC   C2720721   6.063   5.186   8.172 -0.7684  0.3278 -0.6576
  181SLPC   H7R20722   5.979   5.118   8.148 -0.4531 -0.4400  0.3631
  181SLPC   H7S20723   6.159   5.130   8.176 -0.1519  1.2734 -1.4865
  181SLPC   C2820724   6.053   5.291   8.061  0.0471  0.3273 -0.1455
  181SLPC   H8R20725   5.945   5.313   8.048 -0.5141 -1.7192  0.7131
  181SLPC   H8S20726   6.080   5.238   7.967 -4.1810 -3.6165  0.5253
  181SLPC   C2920727   6.125   5.419   8.078  0.0203 -0.9138 -0.0586
  181SLPC   H9R20728   6.233   5.410   8.065  0.4388 -0.9290  2.6919
  181SLPC  C21020729   6.060   5.536   8.111  0.4624  1.1049 -0.1438
  181SLPC  H10R20730   6.126   5.622   8.128 -0.5974  1.5798  1.9758
  181SLPC  C21120731   5.913   5.556   8.138 -0.0488  0.0472  0.3089
  181SLPC  H11R20732   5.878   5.487   8.218 -0.5605 -0.4566 -0.3431
  181SLPC  H11S20733   5.846   5.526   8.055 -0.8230  2.3560  0.0080
  181SLPC  C21220734   5.870   5.695   8.180 -0.9393  0.6806  0.0034
  181SLPC  H12R20735   5.842   5.706   8.286 -2.0724  2.3962 -0.4211
  181SLPC  C21320736   5.849   5.798   8.098 -0.0607 -0.0611 -0.4921
  181SLPC  H13R20737   5.813   5.892   8.144  2.4079  0.5353  0.4090
  181SLPC  C21420738   5.868   5.794   7.949  0.1094  0.1965  0.3610
  181SLPC  H14R20739   5.889   5.692   7.911 -1.3023  0.4272 -1.1442
  181SLPC  H14S20740   5.951   5.864   7.927 -0.5136  1.4511  1.7819
  181SLPC  C21520741   5.736   5.833   7.888  0.3032  0.5376  0.1925
  181SLPC  H15R20742   5.707   5.935   7.920  2.6420  1.2586  0.1949
  181SLPC  H15S20743   5.667   5.760   7.935  1.5281 -0.5439  0.3943
  181SLPC  C21620744   5.729   5.802   7.742 -0.3749 -0.0357  0.7046
  181SLPC  H16R20745   5.733   5.691   7.731  0.0178  0.0814 -0.5119
  181SLPC  H16S20746   5.816   5.844   7.686 -0.8027 -1.4489 -1.1336
  181SLPC  C21720747   5.603   5.865   7.682 -0.3054 -0.4684 -0.2630
  181SLPC  H17R20748   5.623   5.899   7.578 -0.0326 -1.5133 -0.5565
  181SLPC  H17S20749   5.579   5.957   7.740  0.7131 -0.6614  0.4755
  181SLPC  C21820750   5.477   5.772   7.684 -0.5707  0.1555  0.0116
  181SLPC  H18R20751   5.397   5.815   7.620  0.7434  2.4074 -0.2182
  181SLPC  H18S20752   5.440   5.762   7.788 -1.2615  1.4526 -0.0863
  181SLPC  H18T20753   5.510   5.672   7.649 -1.1198 -0.2564  0.6607
  181SLPC   C3320754   6.333   5.619   8.562 -0.2049 -0.1042  0.2827
  181SLPC   H3X20755   6.432   5.661   8.535 -1.1503  0.3959 -2.7005
  181SLPC   H3Y20756   6.270   5.650   8.476  1.9478  2.1601 -0.5909
  181SLPC   C3420757   6.366   5.475   8.582  0.0500  0.0849  0.8005
  181SLPC   H4X20758   6.270   5.420   8.596  0.1961 -0.2377  0.5405
  181SLPC   H4Y20759   6.431   5.467   8.671 -0.2102  0.0638  0.9901
  181SLPC   C3520760   6.444   5.417   8.462 -0.4462 -0.1929 -0.1658
  181SLPC   H5X20761   6.425   5.308   8.476  0.3812 -0.3233 -0.0262
  181SLPC   H5Y20762   6.552   5.441   8.475  0.6394 -2.3564 -3.7456
  181SLPC   C3620763   6.407   5.462   8.323 -0.5495 -0.1345  0.4101
  181SLPC   H6X20764   6.431   5.571   8.318 -0.2373  0.0095  3.3166
  181SLPC   H6Y20765   6.299   5.448   8.305 -0.3392 -1.1521 -0.0889
  181SLPC   C3720766   6.494   5.382   8.225 -0.2732  0.4665 -0.7901
  181SLPC   H7X20767   6.604   5.394   8.235 -0.4703  2.8717 -0.8675
  181SLPC   H7Y20768   6.471   5.432   8.128  0.0563  1.0746 -0.5637
  181SLPC   C3820769   6.459   5.240   8.229 -0.5583  0.2523  0.6182
  181SLPC   H8X20770   6.350   5.220   8.239 -0.5130 -0.8788 -0.7890
  181SLPC   H8Y20771   6.515   5.186   8.309  0.6374  1.0860  0.3736
  181SLPC   C3920772   6.508   5.168   8.101  0.1266 -0.0609 -0.0521
  181SLPC   H9X20773   6.618   5.182   8.093  0.6780 -3.0066  1.1635
  181SLPC   H9Y20774   6.463   5.217   8.012 -0.3453 -0.1799  0.1161
  181SLPC  C31020775   6.466   5.023   8.100 -0.1456  0.2201 -0.8850
  181SLPC  H10X20776   6.366   5.010   8.055 -0.7010 -0.5784  0.5347
  181SLPC  H10Y20777   6.470   4.979   8.202  0.6843  1.7799 -0.1979
  181SLPC  C31120778   6.546   4.936   7.996  0.8919 -0.6263  0.9181
  181SLPC  H11X20779   6.654   4.955   8.014  0.4404  0.2755  2.9301
  181SLPC  H11Y20780   6.505   4.980   7.902 -2.2268 -1.1538  1.9302
  181SLPC  C31220781   6.516   4.780   7.995  0.0633 -0.7384  0.7545
  181SLPC  H12X20782   6.406   4.762   7.997 -0.4383  1.7835 -0.2509
  181SLPC  H12Y20783   6.575   4.747   8.083  1.1117  0.6234  0.6108
  181SLPC  C31320784   6.567   4.720   7.866 -0.1389 -0.0757 -0.9768
  181SLPC  H13X20785   6.584   4.611   7.879 -0.1203  0.1039  0.7298
  181SLPC  H13Y20786   6.664   4.766   7.838 -2.0892  3.5940 -2.3679
  181SLPC  C31420787   6.469   4.743   7.749  0.6732 -0.1264 -0.1702
  181SLPC  H14X20788   6.463   4.850   7.723  0.0247 -0.0756  0.1687
  181SLPC  H14Y20789   6.364   4.720   7.775 -0.3402  1.0362 -2.8412
  181SLPC  C31520790   6.504   4.673   7.613 -0.0411  0.0277 -1.0184
  181SLPC  H15X20791   6.425   4.711   7.544 -0.7309 -1.1355 -0.8993
  181SLPC  H15Y20792   6.488   4.563   7.614 -0.1626  0.0495 -0.4612
  181SLPC  C31620793   6.644   4.707   7.555 -0.2016  0.0001  0.8676
  181SLPC  H16X20794   6.716   4.674   7.632  1.2755  0.2493 -0.3568
  181SLPC  H16Y20795   6.647   4.817   7.547  0.8722 -0.0616  0.1597
  181SLPC  C31720796   6.677   4.643   7.415 -0.2034  0.3138  0.2358
  181SLPC  H17X20797   6.597   4.655   7.339  0.3703  0.9703 -0.2659
  181SLPC  H17Y20798   6.681   4.532   7.426 -1.2570  0.1937 -0.4828
  181SLPC  C31820799   6.814   4.695   7.358  0.0089 -0.3816  0.5362
  181SLPC  H18X20800   6.889   4.698   7.441  0.6921 -1.8337  0.0179
  181SLPC  H18Y20801   6.813   4.802   7.330 -1.6093 -0.0321  1.7791
  181SLPC  H18Z20802   6.859   4.636   7.275  0.7066  0.6292  0.1832
  182SLPC     N20803   6.722   0.771   9.630 -0.4503 -0.0033 -0.0251
  182SLPC   C1320804   6.591   0.734   9.569  0.1323 -0.1660  0.2969
  182SLPC  H13A20805   6.504   0.738   9.633 -0.3838  0.0583 -0.3995
  182SLPC  H13B20806   6.555   0.805   9.495 -3.3318  0.2331  2.1386
  182SLPC  H13C20807   6.603   0.640   9.518  0.1587  0.4333 -0.8227
  182SLPC   C1420808   6.722   0.915   9.666  0.3998  0.0910  0.8678
  182SLPC  H14A20809   6.671   0.970   9.588  0.2486  0.1952  1.0373
  182SLPC  H14B20810   6.678   0.936   9.762  0.6088  1.7490  0.6467
  182SLPC  H14C20811   6.824   0.949   9.657  1.1561 -2.5394 -3.9592
  182SLPC   C1520812   6.815   0.750   9.515 -0.0242 -0.3968  0.2108
  182SLPC  H15A20813   6.825   0.643   9.500 -1.7430 -0.3161 -2.0464
  182SLPC  H15B20814   6.767   0.794   9.429 -1.7708 -0.8621  0.9028
  182SLPC  H15C20815   6.914   0.787   9.540 -0.9918  0.9074  2.3665
  182SLPC   C1220816   6.757   0.670   9.740 -0.3020 -0.5778 -0.3832
  182SLPC  H12A20817   6.720   0.572   9.717  0.6840 -1.0603  0.0180
  182SLPC  H12B20818   6.706   0.713   9.825 -0.5916 -0.2387 -0.7238
  182SLPC   C1120819   6.913   0.655   9.776  0.7110  0.2813  0.3105
  182SLPC  H11A20820   6.953   0.599   9.689  0.2212  1.7631 -0.9013
  182SLPC  H11B20821   6.921   0.598   9.871 -1.5705  0.3913  0.6335
  182SLPC     P20822   7.105   0.837   9.727 -0.1878  0.1197  0.0923
  182SLPC   O1320823   7.074   0.979   9.699 -0.0007  0.1206 -0.2993
  182SLPC   O1420824   7.232   0.798   9.803 -0.1010  0.1441 -0.3361
  182SLPC   O1220825   6.976   0.778   9.802  0.1141  0.4975  0.8899
  182SLPC   O1120826   7.109   0.764   9.588  0.3821  0.2834  0.1444
  182SLPC    C120827   7.225   0.777   9.500  0.3059  0.0246  0.1124
  182SLPC    HA20828   7.260   0.882   9.511 -1.7041  0.6743  0.8557
  182SLPC    HB20829   7.296   0.698   9.530 -0.6616 -0.4689  1.1866
  182SLPC    C220830   7.193   0.745   9.351 -0.2835 -0.1927 -0.4811
  182SLPC    HS20831   7.271   0.763   9.274 -1.3654 -1.5333 -1.9588
  182SLPC   O2120832   7.074   0.813   9.317  0.4315 -0.0656  0.2884
  182SLPC   C2120833   7.091   0.948   9.303 -0.1058  0.5934  0.1267
  182SLPC   O2220834   7.193   1.008   9.312 -0.1635  0.4410 -0.3652
  182SLPC   C2220835   6.954   1.002   9.256 -0.3668  0.1964 -0.1005
  182SLPC   H2R20836   6.886   0.915   9.243 -1.9936  1.2202  1.0951
  182SLPC   H2S20837   6.909   1.065   9.336  0.2973 -1.3878  1.5690
  182SLPC    C320838   7.165   0.591   9.340 -0.0534 -0.6536 -0.2057
  182SLPC    HX20839   7.071   0.568   9.394  0.2203  1.2148  1.1349
  182SLPC    HY20840   7.246   0.537   9.393 -0.5802  0.0325  1.3657
  182SLPC   O3120841   7.168   0.543   9.207  0.0484  0.4080  0.2676
  182SLPC   C3120842   7.052   0.510   9.148 -0.5759 -0.6522 -0.4356
  182SLPC   O3220843   6.941   0.505   9.195  0.0810  0.5967 -0.4188
  182SLPC   C3220844   7.083   0.465   8.998  0.3176  0.8506 -1.0592
  182SLPC   H2X20845   7.011   0.381   8.986  0.5463  0.6550 -1.0595
  182SLPC   H2Y20846   7.184   0.419   8.992 -0.8919 -2.5290  1.3760
  182SLPC   C2320847   6.964   1.086   9.122  1.0083 -0.4413  0.6093
  182SLPC   H3R20848   7.037   1.170   9.118 -2.1956  2.5468 -1.0708
  182SLPC   H3S20849   6.868   1.141   9.112  1.6976  0.8703  1.0242
  182SLPC   C2420850   6.973   0.990   9.005 -0.2386  0.2437  0.4382
  182SLPC   H4R20851   6.886   0.921   9.009 -0.6018  0.4336 -2.3921
  182SLPC   H4S20852   7.067   0.931   9.011  0.1009  0.8013  0.7154
  182SLPC   C2520853   6.979   1.070   8.873  0.1979 -0.1800  0.6131
  182SLPC   H5R20854   7.054   1.149   8.894  0.2403 -0.1465  0.3306
  182SLPC   H5S20855   6.876   1.106   8.849  0.0156  1.4632  3.4148
  182SLPC   C2620856   7.030   0.982   8.750  0.2166  1.0642 -0.4735
  182SLPC   H6R20857   6.950   0.907   8.741 -0.8078  1.9532  0.7728
  182SLPC   H6S20858   7.126   0.936   8.781 -0.8068 -1.0126 -0.2181
  182SLPC   C2720859   7.054   1.070   8.623  0.3335 -0.1855 -0.0967
  182SLPC   H7R20860   7.127   1.145   8.659 -1.4466  1.4100  0.3832
  182SLPC   H7S20861   6.965   1.133   8.600  0.6700  0.9409  1.4903
  182SLPC   C2820862   7.122   0.991   8.509 -0.3405  0.3280 -0.2714
  182SLPC   H8R20863   7.204   0.925   8.546 -0.6747 -0.3463 -0.7204
  182SLPC   H8S20864   7.173   1.066   8.445  1.3695 -0.4014  0.1647
  182SLPC   C2920865   7.027   0.917   8.415 -0.6203  0.3992 -0.3112
  182SLPC   H9R20866   6.953   0.990   8.377 -0.7739  1.4716  1.9014
  182SLPC  C21020867   7.027   0.781   8.377  0.2752 -0.6500  0.0322
  182SLPC  H10R20868   6.944   0.737   8.320  0.8155  0.1006 -1.3635
  182SLPC  C21120869   7.127   0.682   8.424 -0.8855 -0.1258 -0.6808
  182SLPC  H11R20870   7.075   0.584   8.419 -0.3287 -0.3893 -1.6657
  182SLPC  H11S20871   7.152   0.703   8.530 -1.2531 -1.5348 -0.2950
  182SLPC  C21220872   7.262   0.683   8.350  0.1419 -0.5575 -0.0061
  182SLPC  H12R20873   7.335   0.750   8.399 -2.1955  1.1485  1.3592
  182SLPC  C21320874   7.297   0.608   8.242 -0.4362 -0.3734 -0.4390
  182SLPC  H13R20875   7.389   0.643   8.194 -1.2311  0.5128 -1.3736
  182SLPC  C21420876   7.211   0.508   8.171 -0.4968 -0.3516  0.9883
  182SLPC  H14R20877   7.137   0.459   8.239  0.3650 -1.7631  0.9579
  182SLPC  H14S20878   7.272   0.415   8.156 -1.0553 -0.5700 -0.0059
  182SLPC  C21520879   7.121   0.546   8.054  0.6054  0.2319  0.6682
  182SLPC  H15R20880   7.047   0.625   8.080 -0.4326 -0.5348  0.0877
  182SLPC  H15S20881   7.060   0.461   8.019  1.8706  0.1729 -1.5508
  182SLPC  C21620882   7.202   0.587   7.935  0.7942 -0.2757 -0.7276
  182SLPC  H16R20883   7.261   0.501   7.896  1.2477  0.2275 -1.1571
  182SLPC  H16S20884   7.276   0.661   7.971  0.3290  0.1899 -0.7150
  182SLPC  C21720885   7.109   0.656   7.836  0.1127  0.4740 -0.8936
  182SLPC  H17R20886   7.055   0.742   7.881 -2.0375 -0.6932 -1.0977
  182SLPC  H17S20887   7.038   0.581   7.794  0.6173  0.5760 -1.9620
  182SLPC  C21820888   7.180   0.713   7.711  0.2456  0.5214  0.0689
  182SLPC  H18R20889   7.269   0.774   7.737  0.3216  0.6031 -0.3827
  182SLPC  H18S20890   7.106   0.767   7.649 -1.4802 -1.1584  0.5673
  182SLPC  H18T20891   7.214   0.630   7.646 -1.1945 -0.0230 -0.0352
  182SLPC   C3320892   7.051   0.579   8.897 -0.1867 -0.6959  0.6130
  182SLPC   H3X20893   7.112   0.550   8.809 -1.9400 -2.2692 -0.1411
  182SLPC   H3Y20894   7.096   0.676   8.929  2.2594 -2.1437  1.9054
  182SLPC   C3420895   6.905   0.596   8.859  0.0060 -0.2256 -0.1076
  182SLPC   H4X20896   6.883   0.704   8.873 -0.2888 -0.5982  2.8185
  182SLPC   H4Y20897   6.831   0.540   8.921 -1.1448 -1.5469 -2.5218
  182SLPC   C3520898   6.879   0.564   8.707 -0.0443 -0.3181  0.0747
  182SLPC   H5X20899   6.862   0.456   8.691 -1.4282  0.2782 -3.2626
  182SLPC   H5Y20900   6.975   0.601   8.664 -1.9730  0.9628 -3.5099
  182SLPC   C3620901   6.752   0.633   8.651 -0.1202  0.2558  0.2297
  182SLPC   H6X20902   6.754   0.630   8.540  1.2088 -1.8556  0.2594
  182SLPC   H6Y20903   6.751   0.739   8.683  1.1850 -0.0116  1.2342
  182SLPC   C3720904   6.622   0.554   8.687 -0.3626 -0.0440  0.3375
  182SLPC   H7X20905   6.615   0.551   8.797 -0.2591  1.1441  0.3899
  182SLPC   H7Y20906   6.633   0.449   8.652  0.8013  0.4870 -1.0104
  182SLPC   C3820907   6.498   0.614   8.629 -0.0455  0.2582  0.3306
  182SLPC   H8X20908   6.529   0.633   8.524  1.5076 -0.1898  0.6773
  182SLPC   H8Y20909   6.474   0.706   8.687 -0.4566 -0.0055  0.5788
  182SLPC   C3920910   6.379   0.520   8.612  0.9052  0.2367  0.3903
  182SLPC   H9X20911   6.358   0.498   8.719  0.9867  0.6977  0.5031
  182SLPC   H9Y20912   6.399   0.425   8.557  1.0993  1.0331 -0.9609
  182SLPC  C31020913   6.245   0.582   8.545 -0.4348 -0.6758 -0.4637
  182SLPC  H10X20914   6.279   0.681   8.509  0.4616  0.6489  3.5148
  182SLPC  H10Y20915   6.176   0.603   8.629 -0.5517  0.9724 -0.9488
  182SLPC  C31120916   6.177   0.498   8.441  0.0472  0.0399  0.5715
  182SLPC  H11X20917   6.255   0.450   8.377 -0.3927  0.1314 -0.0435
  182SLPC  H11Y20918   6.114   0.562   8.375  0.0217  0.3560  0.8996
  182SLPC  C31220919   6.081   0.395   8.503 -0.3351 -0.3102 -0.1430
  182SLPC  H12X20920   5.994   0.452   8.544  0.5658  2.4929 -1.8037
  182SLPC  H12Y20921   6.137   0.348   8.586 -0.0514 -2.1617 -1.3344
  182SLPC  C31320922   6.033   0.280   8.408  0.6648 -0.6735 -0.2101
  182SLPC  H13X20923   5.971   0.209   8.466  0.5093  0.9535  1.7268
  182SLPC  H13Y20924   6.124   0.223   8.380  0.9274 -2.2332  3.2939
  182SLPC  C31420925   5.949   0.323   8.293 -0.1823 -0.1807  0.2316
  182SLPC  H14X20926   6.012   0.393   8.234 -0.1067  1.6070  2.3240
  182SLPC  H14Y20927   5.861   0.381   8.329  1.0963  1.8982  0.1675
  182SLPC  C31520928   5.888   0.214   8.200 -0.1710  0.0853 -0.0602
  182SLPC  H15X20929   5.813   0.148   8.249  1.8848 -1.0807  1.6941
  182SLPC  H15Y20930   5.970   0.143   8.175 -0.1970 -0.0542  0.2400
  182SLPC  C31620931   5.823   0.271   8.074 -0.1115  0.6385  0.2165
  182SLPC  H16X20932   5.764   0.364   8.091  0.0068  0.7308  0.1212
  182SLPC  H16Y20933   5.761   0.194   8.024 -1.7229  0.9616  1.6351
  182SLPC  C31720934   5.928   0.309   7.971  0.0182  0.4229 -0.1658
  182SLPC  H17X20935   5.992   0.219   7.958  1.7708  1.7395 -1.1863
  182SLPC  H17Y20936   5.992   0.390   8.013 -1.5712  0.2209  2.9245
  182SLPC  C31820937   5.870   0.361   7.834  0.0107  0.5732  0.4780
  182SLPC  H18X20938   5.953   0.372   7.760 -0.8394  2.6079 -0.2390
  182SLPC  H18Y20939   5.833   0.464   7.852  0.7074  0.4140  3.2429
  182SLPC  H18Z20940   5.786   0.298   7.800  0.2729 -0.3569  1.4883
  183SLPC     N20941   0.066   1.254   9.550 -0.7836 -0.4985 -0.5149
  183SLPC   C1320942  -0.072   1.252   9.494  0.2342  0.0341 -0.0275
  183SLPC  H13A20943  -0.094   1.327   9.419  0.3828 -0.0943 -0.2020
  183SLPC  H13B20944  -0.088   1.158   9.443  1.9152 -1.4289  1.9654
  183SLPC  H13C20945  -0.147   1.279   9.566  0.2225 -0.1228  0.0188
  183SLPC   C1420946   0.154   1.198   9.451 -0.1098  0.8904  0.8997
  183SLPC  H14A20947   0.248   1.169   9.497 -1.1309 -1.5355  1.6143
  183SLPC  H14B20948   0.115   1.105   9.412  1.1595 -0.3111  2.3728
  183SLPC  H14C20949   0.175   1.268   9.371  0.8111 -0.8176 -0.4363
  183SLPC   C1520950   0.067   1.186   9.681 -0.4386 -0.1249  0.4167
  183SLPC  H15A20951   0.021   1.088   9.676 -0.6162  0.0188 -1.5151
  183SLPC  H15B20952   0.171   1.168   9.708 -0.8149 -2.0817  0.7597
  183SLPC  H15C20953   0.013   1.244   9.754  0.0600  2.5216 -1.1829
  183SLPC   C1220954   0.111   1.408   9.577 -0.6698 -0.0210  0.2002
  183SLPC  H12A20955   0.212   1.416   9.614  0.2228 -1.2849 -1.8301
  183SLPC  H12B20956   0.044   1.439   9.656 -0.5079  1.1330 -0.1029
  183SLPC   C1120957   0.097   1.518   9.461 -0.3169 -0.1001 -0.3222
  183SLPC  H11A20958   0.094   1.612   9.519  1.6257  0.5984 -1.2787
  183SLPC  H11B20959  -0.003   1.512   9.413 -0.4949  2.3115 -0.3611
  183SLPC     P20960   0.341   1.562   9.394  0.1003 -0.0666 -0.0272
  183SLPC   O1320961   0.354   1.664   9.294  0.2831 -0.4105  0.8426
  183SLPC   O1420962   0.347   1.599   9.537 -0.3775  0.4157 -0.1525
  183SLPC   O1220963   0.201   1.498   9.367 -0.3293 -0.5936 -0.0320
  183SLPC   O1120964   0.447   1.442   9.377 -0.4380  0.4200 -0.1651
  183SLPC    C120965   0.424   1.322   9.302 -0.1121 -0.4876 -0.4660
  183SLPC    HA20966   0.411   1.241   9.377 -0.3468  1.1956  1.4118
  183SLPC    HB20967   0.327   1.326   9.249 -0.5575 -1.3845  0.2651
  183SLPC    C220968   0.540   1.295   9.204 -0.4279  1.0581  0.2496
  183SLPC    HS20969   0.634   1.325   9.256  0.0288 -0.1627  0.1606
  183SLPC   O2120970   0.516   1.359   9.079  0.1594 -0.2308  0.2279
  183SLPC   C2120971   0.551   1.488   9.073 -0.1256 -0.4720 -0.0003
  183SLPC   O2220972   0.630   1.542   9.153  0.0774 -0.2109  0.1352
  183SLPC   C2220973   0.479   1.562   8.953  0.1964  0.1951  0.3809
  183SLPC   H2R20974   0.468   1.502   8.860 -0.7849 -1.0713  1.2622
  183SLPC   H2S20975   0.381   1.598   8.992 -0.3854  0.8453 -1.5399
  183SLPC    C320976   0.556   1.142   9.177  0.0069  0.1538  0.3209
  183SLPC    HX20977   0.456   1.126   9.131 -0.1382  0.1602  0.6331
  183SLPC    HY20978   0.560   1.090   9.275 -0.9896 -0.5063  0.0312
  183SLPC   O3120979   0.666   1.115   9.089  0.5101 -0.1178  0.7489
  183SLPC   C3120980   0.778   1.105   9.159 -0.3916  0.4610  0.3692
  183SLPC   O3220981   0.788   1.120   9.280  0.1046  0.1695  0.3562
  183SLPC   C3220982   0.887   1.056   9.068 -0.3179  0.0820 -0.0623
  183SLPC   H2X20983   0.888   0.945   9.066 -2.0268 -0.0106  1.4616
  183SLPC   H2Y20984   0.979   1.101   9.110  1.4484 -2.4532 -1.0316
  183SLPC   C2320985   0.551   1.692   8.920 -0.1853  0.0293  0.6292
  183SLPC   H3R20986   0.577   1.749   9.012  2.2307 -0.3519  0.2491
  183SLPC   H3S20987   0.493   1.758   8.851  0.0027  0.5257  0.9381
  183SLPC   C2420988   0.680   1.662   8.844 -0.4362 -0.2124 -0.9150
  183SLPC   H4R20989   0.651   1.614   8.748 -2.3036 -0.0556 -0.4785
  183SLPC   H4S20990   0.741   1.594   8.906 -1.4285 -0.5073 -0.2338
  183SLPC   C2520991   0.770   1.789   8.817  0.8709  0.2788 -0.1041
  183SLPC   H5R20992   0.826   1.812   8.910 -1.5755 -1.9140  2.0973
  183SLPC   H5S20993   0.704   1.876   8.797  0.8965  0.0327 -1.3241
  183SLPC   C2620994   0.866   1.762   8.703  0.4741 -0.1586 -0.2418
  183SLPC   H6R20995   0.812   1.735   8.610 -0.6235  0.3751  0.2241
  183SLPC   H6S20996   0.936   1.676   8.713 -0.0106 -0.6155 -0.7335
  183SLPC   C2720997   0.948   1.883   8.679 -0.2748  0.0924  0.8277
  183SLPC   H7R20998   0.974   1.931   8.775 -0.8392 -1.8284  2.0009
  183SLPC   H7S20999   0.892   1.949   8.609  2.6878  0.8765 -0.9923
  183SLPC   C2821000   1.093   1.862   8.631 -0.1201 -0.1134 -0.6167
  183SLPC   H8R21001   1.085   1.794   8.544  0.6312 -1.5704  0.4203
  183SLPC   H8S21002   1.153   1.807   8.706  1.1254  2.4303  0.3960
  183SLPC   C2921003   1.161   1.993   8.596 -0.1783 -0.4376  0.3879
  183SLPC   H9R21004   1.142   2.064   8.677 -2.5960  0.2112 -0.6614
  183SLPC  C21021005   1.216   2.037   8.480  0.3975 -0.2046  0.7748
  183SLPC  H10R21006   1.256   2.138   8.468  1.0548 -0.4460  0.9207
  183SLPC  C21121007   1.223   1.962   8.350 -0.5934 -0.3648  0.1738
  183SLPC  H11R21008   1.194   1.855   8.360  0.2706 -0.4444  2.3966
  183SLPC  H11S21009   1.333   1.950   8.340 -0.2844  2.0460  0.1445
  183SLPC  C21221010   1.165   2.027   8.230  0.5228 -0.6503 -0.8260
  183SLPC  H12R21011   1.158   2.137   8.229  3.4922 -0.3459  0.6800
  183SLPC  C21321012   1.120   1.956   8.123  0.5969 -0.4850  1.0989
  183SLPC  H13R21013   1.079   2.015   8.040 -1.3439 -0.6914  1.8741
  183SLPC  C21421014   1.123   1.798   8.109 -0.3200  0.1259  0.3957
  183SLPC  H14R21015   1.019   1.762   8.126 -0.0323 -0.5751  0.6753
  183SLPC  H14S21016   1.192   1.738   8.172  0.3318 -1.7464 -1.9250
  183SLPC  C21521017   1.142   1.741   7.968  0.0747 -0.2933  0.4720
  183SLPC  H15R21018   1.080   1.795   7.893  0.7911  0.5412  0.4673
  183SLPC  H15S21019   1.121   1.632   7.966 -1.9932  0.0645  0.8518
  183SLPC  C21621020   1.294   1.741   7.942 -0.1560  0.9427 -0.1494
  183SLPC  H16R21021   1.350   1.709   8.032 -1.9996 -0.2878  0.6148
  183SLPC  H16S21022   1.319   1.849   7.933  0.8775  0.7743  0.5539
  183SLPC  C21721023   1.322   1.646   7.829 -0.3279  0.0164  0.3623
  183SLPC  H17R21024   1.281   1.688   7.735 -0.2680  0.5718  0.5806
  183SLPC  H17S21025   1.270   1.550   7.852  1.3493 -0.9866  0.1772
  183SLPC  C21821026   1.466   1.613   7.810 -0.4335  0.5900 -0.2064
  183SLPC  H18R21027   1.527   1.704   7.789  0.8322  0.2135  1.6630
  183SLPC  H18S21028   1.483   1.547   7.722  0.1356 -0.2265  0.4926
  183SLPC  H18T21029   1.506   1.565   7.902  1.6243 -0.2168 -1.4456
  183SLPC   C3321030   0.889   1.117   8.929 -0.1455 -0.6392  0.4239
  183SLPC   H3X21031   0.789   1.102   8.884  0.1912  1.0340 -0.9861
  183SLPC   H3Y21032   0.961   1.064   8.863 -1.7033 -2.0257 -0.2245
  183SLPC   C3421033   0.914   1.272   8.923  0.6113 -0.1692 -0.5066
  183SLPC   H4X21034   0.988   1.298   9.002 -0.9412  1.7432  0.4250
  183SLPC   H4Y21035   0.824   1.333   8.944  1.6619  2.3609 -2.6808
  183SLPC   C3521036   0.969   1.317   8.785  0.3395  0.2360  0.3415
  183SLPC   H5X21037   1.062   1.261   8.761  1.8916  2.7477  0.1577
  183SLPC   H5Y21038   1.007   1.419   8.804  2.3160 -0.6383  1.4951
  183SLPC   C3621039   0.865   1.329   8.675  0.7227 -0.5451  0.7043
  183SLPC   H6X21040   0.792   1.410   8.697  0.3324 -1.5353  3.3416
  183SLPC   H6Y21041   0.816   1.235   8.642 -3.2148  2.4420 -3.2845
  183SLPC   C3721042   0.919   1.381   8.539 -0.4155 -0.4258 -0.3573
  183SLPC   H7X21043   0.970   1.297   8.486  0.2928  2.1418 -4.1511
  183SLPC   H7Y21044   0.994   1.461   8.555 -1.8680  1.6887 -3.2707
  183SLPC   C3821045   0.807   1.446   8.454 -0.2315 -0.4181  0.0849
  183SLPC   H8X21046   0.758   1.530   8.507 -0.0671  0.3742 -0.9899
  183SLPC   H8Y21047   0.730   1.367   8.441 -1.2413  0.2035  1.9554
  183SLPC   C3921048   0.869   1.501   8.329 -0.1974 -0.0527  0.0565
  183SLPC   H9X21049   0.903   1.411   8.273 -2.3282 -0.0691 -1.3270
  183SLPC   H9Y21050   0.961   1.558   8.354  0.0090 -0.8818  1.2827
  183SLPC  C31021051   0.779   1.589   8.242  0.4001 -0.6650 -0.5126
  183SLPC  H10X21052   0.831   1.605   8.145  0.1118  0.3283 -0.5168
  183SLPC  H10Y21053   0.764   1.689   8.288  2.7697 -1.3679  2.0700
  183SLPC  C31121054   0.644   1.526   8.214 -0.4438 -0.2583 -0.1775
  183SLPC  H11X21055   0.598   1.487   8.307  1.5435  0.8998  1.3995
  183SLPC  H11Y21056   0.665   1.446   8.140  2.4968  0.8714 -0.7072
  183SLPC  C31221057   0.558   1.636   8.155 -0.5296  0.3311  0.6231
  183SLPC  H12X21058   0.471   1.582   8.111  0.4784  0.3504 -1.4993
  183SLPC  H12Y21059   0.612   1.698   8.080 -0.0126 -0.0892  0.6501
  183SLPC  C31321060   0.496   1.731   8.254 -0.2886 -0.6807 -0.1999
  183SLPC  H13X21061   0.473   1.824   8.198  1.6002 -1.5878 -2.6878
  183SLPC  H13Y21062   0.571   1.767   8.327  0.0175  1.2540 -1.3903
  183SLPC  C31421063   0.381   1.671   8.333 -0.0680  0.4204  0.4925
  183SLPC  H14X21064   0.412   1.573   8.376 -1.4728  0.3962  1.5188
  183SLPC  H14Y21065   0.295   1.657   8.264  0.7994  1.2031 -0.7786
  183SLPC  C31521066   0.340   1.763   8.445 -0.0877  0.3431  0.0846
  183SLPC  H15X21067   0.317   1.866   8.411 -0.6487 -0.2542 -1.4540
  183SLPC  H15Y21068   0.424   1.786   8.512 -0.3306  3.4435 -0.5424
  183SLPC  C31621069   0.221   1.703   8.526  0.6197  0.6622 -0.5700
  183SLPC  H16X21070   0.254   1.615   8.585 -1.0663  0.9531  0.9028
  183SLPC  H16Y21071   0.137   1.664   8.465  0.4466 -0.5274  0.3882
  183SLPC  C31721072   0.166   1.811   8.621 -0.5923  0.1698  0.1022
  183SLPC  H17X21073   0.079   1.862   8.574 -0.6221 -0.3125 -0.3834
  183SLPC  H17Y21074   0.250   1.878   8.650 -0.0998 -1.7558  3.7080
  183SLPC  C31821075   0.119   1.752   8.752 -0.1451  0.2153 -0.0317
  183SLPC  H18X21076   0.062   1.832   8.803  1.9785  1.6766  0.1782
  183SLPC  H18Y21077   0.213   1.739   8.810 -0.1023  0.1851 -0.1081
  183SLPC  H18Z21078   0.053   1.663   8.755 -0.2447  0.3189  1.4417
  184SLPC     N21079   0.366   0.018   9.696  0.0993  0.5195  1.0213
  184SLPC   C1321080   0.225   0.057   9.673 -0.1431 -0.7122 -0.3254
  184SLPC  H13A21081   0.193   0.025   9.575 -1.9573 -0.8894  0.2883
  184SLPC  H13B21082   0.156   0.021   9.748 -0.4056 -1.4533 -0.9126
  184SLPC  H13C21083   0.217   0.164   9.672  1.2528 -0.5198  1.6526
  184SLPC   C1421084   0.367  -0.129   9.740  0.6263 -0.5358 -0.2328
  184SLPC  H14A21085   0.307  -0.148   9.827  2.1024 -1.5456  0.6067
  184SLPC  H14B21086   0.324  -0.187   9.660  0.7019 -0.3706 -0.3957
  184SLPC  H14C21087   0.464  -0.174   9.756  0.7428 -0.0660  0.4393
  184SLPC   C1521088   0.428   0.102   9.801  0.4606 -0.5197 -0.9984
  184SLPC  H15A21089   0.381   0.099   9.898  1.9278  3.7481  0.0848
  184SLPC  H15B21090   0.527   0.067   9.830 -0.0452 -1.1064  0.0970
  184SLPC  H15C21091   0.420   0.207   9.778 -0.4888  0.1321  1.8291
  184SLPC   C1221092   0.432   0.055   9.564 -0.4113 -1.0879  0.1006
  184SLPC  H12A21093   0.537   0.040   9.579  0.0773  1.0450 -0.7811
  184SLPC  H12B21094   0.412   0.161   9.556 -0.7438 -1.0207  1.5806
  184SLPC   C1121095   0.397  -0.023   9.426 -0.2154  0.8427 -0.7485
  184SLPC  H11A21096   0.448   0.023   9.339 -2.4563 -0.2676 -2.7823
  184SLPC  H11B21097   0.290  -0.011   9.399  0.2729  1.8501 -2.3518
  184SLPC     P21098   0.577  -0.200   9.424 -0.0543  0.5317 -0.0389
  184SLPC   O1321099   0.660  -0.078   9.454 -0.1792  0.4347  0.6564
  184SLPC   O1421100   0.602  -0.325   9.497  0.0357  0.2016  0.1967
  184SLPC   O1221101   0.425  -0.162   9.435 -0.8557  0.0191  0.1299
  184SLPC   O1121102   0.588  -0.231   9.268  0.1588  0.7035  0.3351
  184SLPC    C121103   0.530  -0.350   9.205 -0.5648  0.0173 -0.1111
  184SLPC    HA21104   0.598  -0.396   9.131  0.3889  0.9622  0.1572
  184SLPC    HB21105   0.498  -0.426   9.279  0.9768 -1.7055 -1.1280
  184SLPC    C221106   0.408  -0.296   9.137  0.1115  0.3723 -0.0431
  184SLPC    HS21107   0.335  -0.270   9.217 -0.2488 -2.1443  0.5278
  184SLPC   O2121108   0.346  -0.406   9.064 -0.3794 -0.4916 -0.4243
  184SLPC   C2121109   0.228  -0.374   9.014 -0.1324 -0.4293 -0.1128
  184SLPC   O2221110   0.164  -0.275   9.042  0.3721  0.5444 -0.8285
  184SLPC   C2221111   0.195  -0.485   8.914 -0.0602 -0.2374  0.3386
  184SLPC   H2R21112   0.220  -0.579   8.968 -3.3545 -0.3451  1.9000
  184SLPC   H2S21113   0.087  -0.485   8.887 -0.0189  0.4510  0.1623
  184SLPC    C321114   0.454  -0.178   9.047  0.5218 -0.7634  0.4433
  184SLPC    HX21115   0.515  -0.102   9.100  0.7065 -1.0723  0.6753
  184SLPC    HY21116   0.361  -0.137   9.002  1.0226  1.6367  1.4634
  184SLPC   O3121117   0.526  -0.238   8.940  0.4433 -0.6480  0.0972
  184SLPC   C3121118   0.552  -0.163   8.832 -0.3084 -0.2848 -0.1706
  184SLPC   O3221119   0.499  -0.054   8.808 -0.4842  0.5701  0.1149
  184SLPC   C3221120   0.640  -0.246   8.742  0.5574 -0.1802 -0.2522
  184SLPC   H2X21121   0.585  -0.285   8.654 -0.4470  0.8611 -0.1089
  184SLPC   H2Y21122   0.675  -0.335   8.798 -1.4480 -0.6019  0.4227
  184SLPC   C2321123   0.277  -0.473   8.785  0.5424  0.2075  0.1598
  184SLPC   H3R21124   0.323  -0.573   8.769 -0.5541 -0.3493  0.4371
  184SLPC   H3S21125   0.362  -0.402   8.798  2.4540 -1.5571 -1.7675
  184SLPC   C2421126   0.192  -0.420   8.668 -0.0704  0.2707 -0.8254
  184SLPC   H4R21127   0.114  -0.497   8.651  0.2226 -0.1678 -0.2308
  184SLPC   H4S21128   0.256  -0.397   8.580 -2.4454  0.3578 -2.6214
  184SLPC   C2521129   0.122  -0.284   8.687 -0.0299 -0.2198  0.1097
  184SLPC   H5R21130   0.191  -0.197   8.698  0.0008 -0.2698  0.3189
  184SLPC   H5S21131   0.066  -0.279   8.783 -1.9365 -1.4330 -0.8881
  184SLPC   C2621132   0.022  -0.235   8.587 -0.1535  0.3377  0.0320
  184SLPC   H6R21133  -0.017  -0.133   8.607 -0.7851  0.0810  0.1346
  184SLPC   H6S21134  -0.060  -0.308   8.598 -0.9662  1.4605  2.0046
  184SLPC   C2721135   0.055  -0.242   8.434 -0.2465 -0.5646 -0.1920
  184SLPC   H7R21136   0.101  -0.340   8.409 -0.5014 -1.2914  1.9573
  184SLPC   H7S21137   0.123  -0.156   8.421 -0.8962  0.4356  2.3932
  184SLPC   C2821138  -0.074  -0.239   8.352  0.4566 -0.2722  0.3492
  184SLPC   H8R21139  -0.123  -0.143   8.378  3.1551  1.0884  0.8374
  184SLPC   H8S21140  -0.138  -0.317   8.398  0.2600  0.0586  0.6408
  184SLPC   C2921141  -0.074  -0.259   8.204 -0.0335 -0.0110  0.4599
  184SLPC   H9R21142  -0.030  -0.355   8.173  0.6353  0.3892  0.1377
  184SLPC  C21021143  -0.098  -0.172   8.104  0.3482 -0.3073 -0.8473
  184SLPC  H10R21144  -0.073  -0.208   8.003  0.3930 -0.6090 -0.7313
  184SLPC  C21121145  -0.150  -0.022   8.122 -0.1861 -0.3485  1.1841
  184SLPC  H11R21146  -0.144   0.018   8.225  0.1717 -1.2174  1.5091
  184SLPC  H11S21147  -0.258  -0.012   8.094 -0.4410 -1.6219  1.6330
  184SLPC  C21221148  -0.080   0.080   8.024  0.5175 -0.0085 -0.7425
  184SLPC  H12R21149  -0.001   0.144   8.067 -0.3917 -0.4768  1.8046
  184SLPC  C21321150  -0.123   0.115   7.900  0.0102 -0.8677 -0.1466
  184SLPC  H13R21151  -0.062   0.191   7.848 -0.1039  1.0017  2.2934
  184SLPC  C21421152  -0.247   0.069   7.828  0.2282 -0.0501  0.1617
  184SLPC  H14R21153  -0.275  -0.026   7.878  1.2532  0.2468  1.3482
  184SLPC  H14S21154  -0.217   0.059   7.721  0.9223  0.8675  0.2503
  184SLPC  C21521155  -0.368   0.176   7.829  0.2330  0.6134  0.1506
  184SLPC  H15R21156  -0.419   0.148   7.735  0.4746 -0.9732  0.4714
  184SLPC  H15S21157  -0.317   0.274   7.824 -0.0560  0.8040  0.8220
  184SLPC  C21621158  -0.472   0.179   7.942  0.0363  0.7491  0.1473
  184SLPC  H16R21159  -0.412   0.180   8.036  0.3685 -1.9025  0.0355
  184SLPC  H16S21160  -0.533   0.086   7.942  0.6835  0.2323 -2.5971
  184SLPC  C21721161  -0.550   0.299   7.943  0.2516 -0.2853  0.2258
  184SLPC  H17R21162  -0.487   0.390   7.958  0.2123 -0.3140  0.5651
  184SLPC  H17S21163  -0.619   0.302   8.030  0.1263  0.1720  0.1127
  184SLPC  C21821164  -0.625   0.319   7.806 -0.0536 -0.2645 -0.4254
  184SLPC  H18R21165  -0.668   0.221   7.775 -2.0260  0.0503  1.1135
  184SLPC  H18S21166  -0.548   0.351   7.733  0.3437 -0.4396 -0.0851
  184SLPC  H18T21167  -0.697   0.403   7.817  0.8054  0.2829  1.3805
  184SLPC   C3321168   0.761  -0.169   8.695 -0.0570 -0.5925  0.1831
  184SLPC   H3X21169   0.839  -0.170   8.774  0.0249  0.1998  0.1222
  184SLPC   H3Y21170   0.744  -0.059   8.689 -0.1713 -0.6189  0.0080
  184SLPC   C3421171   0.843  -0.230   8.577  0.4756  0.1357 -0.6692
  184SLPC   H4X21172   0.920  -0.156   8.545 -0.5283  0.6237 -2.0477
  184SLPC   H4Y21173   0.777  -0.242   8.488 -2.0216  0.3570  1.0463
  184SLPC   C3521174   0.910  -0.359   8.609 -0.0047 -0.5661 -0.0659
  184SLPC   H5X21175   0.831  -0.420   8.659 -0.1810 -3.5700 -3.5974
  184SLPC   H5Y21176   0.997  -0.347   8.676  0.8935 -1.4961 -1.0392
  184SLPC   C3621177   0.961  -0.445   8.491 -0.3068  0.1560  0.3891
  184SLPC   H6X21178   1.062  -0.488   8.506 -0.6508 -1.0048 -0.5084
  184SLPC   H6Y21179   0.972  -0.381   8.401 -3.6590 -1.2992 -1.2156
  184SLPC   C3721180   0.864  -0.559   8.458  0.2072  0.4567  0.1004
  184SLPC   H7X21181   0.767  -0.521   8.495  0.3875  1.7453 -0.7048
  184SLPC   H7Y21182   0.882  -0.656   8.511 -0.6030  0.4785  0.4221
  184SLPC   C3821183   0.846  -0.598   8.317  0.7930 -0.1428  0.5185
  184SLPC   H8X21184   0.845  -0.504   8.258  0.1688  0.7030  1.8443
  184SLPC   H8Y21185   0.745  -0.637   8.291  0.1737 -0.0506  2.6304
  184SLPC   C3921186   0.975  -0.679   8.272  0.0051  0.4526  0.5483
  184SLPC   H9X21187   0.963  -0.787   8.295  2.3571 -0.0403 -0.2865
  184SLPC   H9Y21188   1.070  -0.638   8.311  2.3237 -1.5803 -2.4743
  184SLPC  C31021189   1.009  -0.671   8.115  0.1062  0.8263 -0.3411
  184SLPC  H10X21190   1.034  -0.563   8.111 -1.0933  1.1917  0.8899
  184SLPC  H10Y21191   0.922  -0.697   8.050  1.0521  1.2276 -1.8067
  184SLPC  C31121192   1.138  -0.756   8.092  0.6106 -0.4987  0.3506
  184SLPC  H11X21193   1.119  -0.849   8.151 -0.4350  1.3335  3.1124
  184SLPC  H11Y21194   1.224  -0.698   8.131  1.4617  1.0620 -3.3749
  184SLPC  C31221195   1.173  -0.803   7.948  0.1942 -0.1347  0.0619
  184SLPC  H12X21196   1.082  -0.796   7.885 -0.1454  0.9647  0.6416
  184SLPC  H12Y21197   1.208  -0.908   7.952 -0.4599 -0.3674 -0.1927
  184SLPC  C31321198   1.285  -0.712   7.893  0.5530 -0.0392  0.1621
  184SLPC  H13X21199   1.363  -0.706   7.972 -0.0820  1.2822  0.7271
  184SLPC  H13Y21200   1.246  -0.608   7.888 -0.0881 -0.2311  0.9088
  184SLPC  C31421201   1.332  -0.759   7.753 -0.4667 -0.7474  0.3228
  184SLPC  H14X21202   1.379  -0.860   7.746 -2.4566 -1.6525 -1.1130
  184SLPC  H14Y21203   1.416  -0.696   7.719  0.1162 -1.3625  0.5951
  184SLPC  C31521204   1.227  -0.768   7.633  0.3691  1.6019 -0.2093
  184SLPC  H15X21205   1.160  -0.854   7.656  1.3210  1.0635  0.6235
  184SLPC  H15Y21206   1.282  -0.799   7.542 -0.3719 -0.3981 -0.0331
  184SLPC  C31621207   1.136  -0.647   7.613  0.2713  0.7607  0.7961
  184SLPC  H16X21208   1.207  -0.567   7.581  2.2732 -0.5060  1.8997
  184SLPC  H16Y21209   1.081  -0.617   7.705 -3.2530 -0.6947 -0.6615
  184SLPC  C31721210   1.034  -0.685   7.503 -0.9029 -0.5006  0.3094
  184SLPC  H17X21211   0.974  -0.775   7.531 -0.3170 -0.9233  0.2217
  184SLPC  H17Y21212   1.092  -0.709   7.411 -0.7231  1.3541 -0.0912
  184SLPC  C31821213   0.929  -0.580   7.469  0.4701  0.1986 -0.7604
  184SLPC  H18X21214   0.855  -0.560   7.549  1.6836  0.2477  0.3895
  184SLPC  H18Y21215   0.862  -0.605   7.384 -0.0465 -0.4823 -0.1586
  184SLPC  H18Z21216   0.978  -0.489   7.428 -0.0629  0.0989 -1.6475
  185SLPC     N21217   3.224   2.630   5.612  0.4989  0.8218 -0.5373
  185SLPC   C1321218   3.349   2.698   5.563  0.0832  0.3144 -0.3215
  185SLPC  H13A21219   3.394   2.741   5.652  0.2039 -0.1419 -0.1613
  185SLPC  H13B21220   3.408   2.622   5.514 -1.1282  0.4910 -2.1375
  185SLPC  H13C21221   3.330   2.782   5.498  0.6855 -0.0452 -0.9672
  185SLPC   C1421222   3.145   2.581   5.491 -0.5460  0.2536 -0.3035
  185SLPC  H14A21223   3.115   2.663   5.428 -0.7070 -0.2216 -0.8530
  185SLPC  H14B21224   3.197   2.510   5.428  1.5004  1.2088  0.2457
  185SLPC  H14C21225   3.053   2.530   5.517 -0.7494  0.4669 -0.6017
  185SLPC   C1521226   3.141   2.730   5.684 -0.3042 -0.1112  0.2976
  185SLPC  H15A21227   3.202   2.766   5.766  1.6573 -1.8117 -0.3359
  185SLPC  H15B21228   3.119   2.808   5.613  0.9377 -1.5418 -1.7452
  185SLPC  H15C21229   3.057   2.673   5.723 -0.0508 -0.7893 -0.1419
  185SLPC   C1221230   3.258   2.508   5.699  0.1453 -0.3505  0.7722
  185SLPC  H12A21231   3.325   2.453   5.634 -2.0344 -2.0396 -0.1808
  185SLPC  H12B21232   3.171   2.450   5.727 -1.7919  0.7401 -2.4207
  185SLPC   C1121233   3.340   2.521   5.824 -0.0607 -0.2542 -1.1012
  185SLPC  H11A21234   3.340   2.423   5.875  0.8294  0.2714 -0.0596
  185SLPC  H11B21235   3.281   2.589   5.890  1.1434 -0.0346 -0.2278
  185SLPC     P21236   3.590   2.502   5.745  0.4324  0.2142 -0.4972
  185SLPC   O1321237   3.538   2.435   5.623  0.0735 -0.7034 -0.2916
  185SLPC   O1421238   3.697   2.604   5.722  0.0114 -0.3416 -0.1075
  185SLPC   O1221239   3.467   2.578   5.809 -0.6305  0.2874 -0.5073
  185SLPC   O1121240   3.619   2.389   5.856 -0.2343  0.2273  0.1624
  185SLPC    C121241   3.659   2.429   5.986 -0.2254 -0.5394  0.1731
  185SLPC    HA21242   3.709   2.528   5.996  1.0012 -1.1821  0.5951
  185SLPC    HB21243   3.568   2.425   6.050  0.0278 -0.7348  0.5210
  185SLPC    C221244   3.766   2.333   6.037 -0.2440  0.0457 -0.4709
  185SLPC    HS21245   3.845   2.323   5.959  0.5636  0.2565  0.2979
  185SLPC   O2121246   3.706   2.210   6.071 -0.5703 -0.0853 -0.3283
  185SLPC   C2121247   3.792   2.106   6.074  1.1141  0.7091 -1.0007
  185SLPC   O2221248   3.913   2.110   6.066  0.1867 -0.2850  0.1198
  185SLPC   C2221249   3.703   1.980   6.069  0.4814 -0.2093 -0.0997
  185SLPC   H2R21250   3.599   2.013   6.090  0.5415  1.5246 -2.2096
  185SLPC   H2S21251   3.714   1.935   5.968  0.6453  0.0604 -0.2039
  185SLPC    C321252   3.837   2.396   6.165 -0.2923  0.4209  0.3253
  185SLPC    HX21253   3.918   2.466   6.133 -0.7441  0.0688 -1.7427
  185SLPC    HY21254   3.895   2.314   6.213  2.9725  1.0508 -2.1706
  185SLPC   O3121255   3.745   2.467   6.247 -0.0128  0.3849 -0.1490
  185SLPC   C3121256   3.686   2.384   6.337  1.1291  0.2840 -0.4061
  185SLPC   O3221257   3.722   2.271   6.354  0.2031  0.1689 -0.1870
  185SLPC   C3221258   3.591   2.469   6.416  0.1021  0.3160 -0.2272
  185SLPC   H2X21259   3.508   2.495   6.347 -0.4677 -0.3274  0.1995
  185SLPC   H2Y21260   3.636   2.567   6.442 -1.6237  0.6489  1.8131
  185SLPC   C2321261   3.736   1.874   6.178  0.0350  0.1450  0.9801
  185SLPC   H3R21262   3.831   1.829   6.142 -0.0117  2.4903 -2.5119
  185SLPC   H3S21263   3.656   1.797   6.173 -1.7243  1.9620 -0.6486
  185SLPC   C2421264   3.748   1.914   6.329  0.1816 -0.5645 -0.7346
  185SLPC   H4R21265   3.648   1.957   6.352 -0.4249 -2.0894 -0.4298
  185SLPC   H4S21266   3.817   1.998   6.354 -1.7658  1.2030 -1.0098
  185SLPC   C2521267   3.765   1.787   6.421 -0.1589  0.1270 -0.4495
  185SLPC   H5R21268   3.870   1.752   6.413  0.0670  0.5547  0.4824
  185SLPC   H5S21269   3.692   1.706   6.395  0.9418 -0.7442 -0.8962
  185SLPC   C2621270   3.735   1.808   6.574 -0.7643 -0.3340 -0.5618
  185SLPC   H6R21271   3.716   1.712   6.627  2.3960 -2.0791 -2.2815
  185SLPC   H6S21272   3.646   1.874   6.574  0.2520  1.0912 -1.1770
  185SLPC   C2721273   3.852   1.883   6.642  0.3952  1.4175  0.2231
  185SLPC   H7R21274   3.874   1.981   6.593  0.3476  1.9151  1.1609
  185SLPC   H7S21275   3.947   1.826   6.633  1.2486  2.8580 -0.2801
  185SLPC   C2821276   3.831   1.928   6.788  0.4798  0.4348 -1.2148
  185SLPC   H8R21277   3.726   1.963   6.788 -0.0870 -1.0505  1.0551
  185SLPC   H8S21278   3.891   2.017   6.817 -1.5208  1.4505  0.0153
  185SLPC   C2921279   3.845   1.835   6.903  0.6593  0.2338 -0.1915
  185SLPC   H9R21280   3.942   1.788   6.923 -0.3681 -1.0630  2.1768
  185SLPC  C21021281   3.744   1.803   6.984 -0.0517  0.2473 -0.1076
  185SLPC  H10R21282   3.769   1.729   7.062 -1.5490 -1.6124 -1.3057
  185SLPC  C21121283   3.599   1.845   6.970  0.5108 -0.1894 -0.4424
  185SLPC  H11R21284   3.533   1.790   7.041 -0.2427  0.4820 -0.5999
  185SLPC  H11S21285   3.557   1.837   6.868 -2.9230  1.9527  0.6350
  185SLPC  C21221286   3.582   1.989   7.013  0.2499 -0.3136  0.3048
  185SLPC  H12R21287   3.604   2.068   6.940 -0.6533 -1.4552 -1.2632
  185SLPC  C21321288   3.540   2.029   7.136 -0.0339 -0.3864 -0.1024
  185SLPC  H13R21289   3.526   2.135   7.160  0.2126 -0.3932  0.0801
  185SLPC  C21421290   3.508   1.932   7.250  0.5821  0.7430  0.1270
  185SLPC  H14R21291   3.564   1.837   7.256 -2.3324 -1.0624  0.6929
  185SLPC  H14S21292   3.407   1.892   7.229  0.8009  0.8622 -1.2230
  185SLPC  C21521293   3.510   1.983   7.394 -0.2404  0.3102  0.9358
  185SLPC  H15R21294   3.438   2.068   7.394 -0.9148 -0.2448  0.0527
  185SLPC  H15S21295   3.611   2.024   7.416  0.6506  1.8861 -4.5037
  185SLPC  C21621296   3.482   1.871   7.497  0.0944  0.1554  0.3425
  185SLPC  H16R21297   3.542   1.780   7.478  2.2768  1.4765  0.5796
  185SLPC  H16S21298   3.374   1.849   7.481 -0.1491  0.1584  1.8526
  185SLPC  C21721299   3.507   1.921   7.640 -0.4255 -0.3576 -0.1609
  185SLPC  H17R21300   3.453   2.016   7.659  1.0350  0.7597 -1.3894
  185SLPC  H17S21301   3.614   1.952   7.646  0.2793 -2.2610 -1.6579
  185SLPC  C21821302   3.480   1.817   7.747 -0.1612  0.0728 -0.4419
  185SLPC  H18R21303   3.508   1.863   7.844  0.9343  1.3614 -1.3195
  185SLPC  H18S21304   3.523   1.716   7.728 -0.2040  0.2532 -1.5583
  185SLPC  H18T21305   3.369   1.809   7.745 -0.2817  1.5222 -0.4984
  185SLPC   C3321306   3.524   2.391   6.539  0.2047  1.1435 -0.8001
  185SLPC   H3X21307   3.523   2.284   6.509  2.5941  0.9863 -0.4916
  185SLPC   H3Y21308   3.422   2.435   6.548  0.1937  0.9411  0.0829
  185SLPC   C3421309   3.601   2.406   6.665  0.2206  0.2811 -0.2463
  185SLPC   H4X21310   3.627   2.511   6.691 -1.5465  0.2845  1.7775
  185SLPC   H4Y21311   3.689   2.338   6.661  0.3019  0.4551 -2.1276
  185SLPC   C3521312   3.521   2.353   6.787 -0.1504 -0.6342  0.2402
  185SLPC   H5X21313   3.594   2.339   6.870  0.4988  0.9196 -0.0359
  185SLPC   H5Y21314   3.470   2.266   6.742 -1.1071  0.2224 -0.3882
  185SLPC   C3621315   3.421   2.460   6.830  0.4426 -0.4134  0.5522
  185SLPC   H6X21316   3.355   2.486   6.745  0.7446 -0.0686  0.4206
  185SLPC   H6Y21317   3.480   2.546   6.867  1.2736 -0.7724  0.1090
  185SLPC   C3721318   3.337   2.425   6.951  0.0259 -0.3657  0.1635
  185SLPC   H7X21319   3.279   2.511   6.990 -0.0769 -0.4617  0.2223
  185SLPC   H7Y21320   3.418   2.417   7.027 -0.0762  0.5658  0.3778
  185SLPC   C3821321   3.237   2.310   6.933  0.0966 -0.3021 -0.2686
  185SLPC   H8X21322   3.286   2.221   6.888 -0.3344 -0.2756 -0.7842
  185SLPC   H8Y21323   3.155   2.336   6.864 -0.7289 -0.9434  0.4501
  185SLPC   C3921324   3.168   2.265   7.070 -1.0091 -0.8240  0.7315
  185SLPC   H9X21325   3.111   2.352   7.110 -0.2993 -0.2174  0.4420
  185SLPC   H9Y21326   3.260   2.244   7.130  1.3921 -0.5397 -2.6040
  185SLPC  C31021327   3.095   2.131   7.060  0.3215  0.2361  0.4621
  185SLPC  H10X21328   3.156   2.068   6.992 -0.2016  2.0079 -1.7901
  185SLPC  H10Y21329   2.990   2.150   7.028  0.2042  0.3052  0.8812
  185SLPC  C31121330   3.103   2.062   7.196 -0.0914 -0.0409 -0.1311
  185SLPC  H11X21331   3.209   2.028   7.206 -0.6620 -2.0087 -0.3641
  185SLPC  H11Y21332   3.037   1.973   7.196 -0.2029  0.0389  0.1859
  185SLPC  C31221333   3.049   2.141   7.314 -0.2109  0.0043  0.0982
  185SLPC  H12X21334   2.940   2.149   7.295 -0.5656 -1.8679  1.1544
  185SLPC  H12Y21335   3.091   2.244   7.320 -0.2062 -0.0014  0.1709
  185SLPC  C31321336   3.076   2.077   7.451 -0.2481  0.1056  0.0454
  185SLPC  H13X21337   3.186   2.067   7.459 -0.2381  1.1913  1.7139
  185SLPC  H13Y21338   3.028   1.977   7.441  1.4065 -0.7345  0.2649
  185SLPC  C31421339   3.038   2.161   7.570 -0.3640 -0.5833  0.6412
  185SLPC  H14X21340   2.927   2.170   7.574 -0.3468 -0.1945  0.2780
  185SLPC  H14Y21341   3.074   2.264   7.553  1.0747 -1.5224 -2.9035
  185SLPC  C31521342   3.093   2.105   7.699 -0.6259  0.3249 -0.3028
  185SLPC  H15X21343   3.202   2.084   7.705 -0.4168  0.8715 -1.7095
  185SLPC  H15Y21344   3.043   2.009   7.724 -1.0457  0.8207  0.8176
  185SLPC  C31621345   3.079   2.217   7.810  0.2371  0.0242 -0.9228
  185SLPC  H16X21346   2.971   2.206   7.831  0.7940 -1.2707  1.7445
  185SLPC  H16Y21347   3.114   2.317   7.777  3.4467 -1.5619 -2.8268
  185SLPC  C31721348   3.140   2.178   7.945 -0.0233 -0.7473  0.5157
  185SLPC  H17X21349   3.145   2.267   8.010  1.2074  0.1757 -0.7784
  185SLPC  H17Y21350   3.249   2.157   7.934 -0.2786 -1.2743 -1.4992
  185SLPC  C31821351   3.080   2.059   8.018 -0.0861  0.1686  0.2669
  185SLPC  H18X21352   3.146   2.025   8.100 -1.6625 -2.4586  0.5740
  185SLPC  H18Y21353   3.063   1.976   7.946  0.5806  0.3034 -0.0495
  185SLPC  H18Z21354   2.983   2.091   8.062  0.1991  0.3144  0.7955
  186SLPC     N21355   3.151   4.960   5.672  0.1215  0.0670  0.4145
  186SLPC   C1321356   3.016   4.937   5.613 -0.2775 -0.0325 -0.0998
  186SLPC  H13A21357   3.007   4.908   5.510  0.5904  0.6494 -0.3800
  186SLPC  H13B21358   2.964   4.859   5.667  0.8488 -2.4018 -2.2031
  186SLPC  H13C21359   2.963   5.031   5.624  0.3254  0.3504 -0.4020
  186SLPC   C1421360   3.229   4.834   5.662 -0.1226  0.2014  0.1835
  186SLPC  H14A21361   3.177   4.754   5.711 -1.7864  2.0063  1.5425
  186SLPC  H14B21362   3.250   4.811   5.558 -0.7612  0.6896 -0.0593
  186SLPC  H14C21363   3.328   4.847   5.703 -1.1032 -0.5717  2.9684
  186SLPC   C1521364   3.132   4.995   5.814  0.2551 -1.0400  0.7810
  186SLPC  H15A21365   3.224   5.031   5.857 -1.1800  1.6320  1.8061
  186SLPC  H15B21366   3.072   5.085   5.821  2.2697  0.2954  1.5124
  186SLPC  H15C21367   3.093   4.915   5.875 -0.9001  0.5347  2.1830
  186SLPC   C1221368   3.221   5.081   5.604 -0.4420  0.4503 -0.0259
  186SLPC  H12A21369   3.261   5.041   5.512 -0.8832  0.0327 -0.0386
  186SLPC  H12B21370   3.303   5.106   5.669 -0.3665 -0.6865  0.3234
  186SLPC   C1121371   3.136   5.208   5.576 -0.1045 -0.0391  0.3087
  186SLPC  H11A21372   3.074   5.187   5.485 -0.9535 -1.4375  1.1708
  186SLPC  H11B21373   3.204   5.292   5.551  0.4216 -0.4388  0.3638
  186SLPC     P21374   2.971   5.380   5.691  0.1735 -0.1910  0.3018
  186SLPC   O1321375   2.983   5.449   5.559  0.2749 -0.0343  0.3135
  186SLPC   O1421376   2.837   5.352   5.745  0.1069 -0.5562 -0.4206
  186SLPC   O1221377   3.052   5.240   5.684 -0.2104 -0.1240 -0.0346
  186SLPC   O1121378   3.060   5.453   5.803 -0.2025 -0.1733  0.7785
  186SLPC    C121379   3.122   5.391   5.915 -0.1811  0.0023  0.5959
  186SLPC    HA21380   3.107   5.281   5.916  0.8745 -0.1570  1.4924
  186SLPC    HB21381   3.233   5.399   5.916 -0.1790  0.7558 -1.5222
  186SLPC    C221382   3.069   5.447   6.048 -0.1258 -0.1551  0.4957
  186SLPC    HS21383   2.959   5.427   6.049 -0.6629  2.4315  0.0531
  186SLPC   O2121384   3.096   5.586   6.048  0.2688 -0.0906  0.2924
  186SLPC   C2121385   3.001   5.662   5.997  0.0547  0.0022  0.1936
  186SLPC   O2221386   2.893   5.625   5.951  0.0382 -0.0383  0.3765
  186SLPC   C2221387   3.046   5.812   6.019  0.4963  0.1744  0.4245
  186SLPC   H2R21388   3.156   5.822   6.003  0.0742  1.3700 -2.1436
  186SLPC   H2S21389   3.004   5.872   5.936  1.2652  1.5278  0.9658
  186SLPC    C321390   3.121   5.380   6.178  0.2056 -0.4277 -0.1090
  186SLPC    HX21391   3.091   5.274   6.176 -0.9555 -0.1173  0.2949
  186SLPC    HY21392   3.067   5.419   6.267 -2.0714 -0.3208 -1.4735
  186SLPC   O3121393   3.261   5.388   6.196  0.3030  0.3446  0.2984
  186SLPC   C3121394   3.303   5.338   6.319 -0.0314  0.8952 -0.6948
  186SLPC   O3221395   3.237   5.313   6.415  0.2163 -0.3197 -0.1268
  186SLPC   C3221396   3.458   5.339   6.315 -0.1872  0.1431  0.8160
  186SLPC   H2X21397   3.486   5.440   6.279 -1.2548  1.0333  2.3527
  186SLPC   H2Y21398   3.489   5.266   6.238  0.9546  1.5158 -0.0921
  186SLPC   C2321399   2.989   5.872   6.145  1.2006 -0.7053 -0.4941
  186SLPC   H3R21400   2.880   5.852   6.151  1.1937 -0.5527  4.3146
  186SLPC   H3S21401   3.015   5.979   6.130  1.0173 -0.1722  2.3623
  186SLPC   C2421402   3.059   5.828   6.274 -0.1860 -0.5055 -0.0156
  186SLPC   H4R21403   3.098   5.913   6.334  0.9520 -1.1188  0.1318
  186SLPC   H4S21404   3.140   5.755   6.257  1.1870  0.4212  2.1107
  186SLPC   C2521405   2.965   5.764   6.380 -0.3556  0.7974 -0.4836
  186SLPC   H5R21406   2.903   5.679   6.343  2.0106 -0.8617 -0.8947
  186SLPC   H5S21407   2.893   5.846   6.400  0.5177  2.0957 -2.3487
  186SLPC   C2621408   3.032   5.705   6.507  0.1240 -0.4317  0.0509
  186SLPC   H6R21409   3.098   5.782   6.553  1.3073  0.8926 -3.5042
  186SLPC   H6S21410   3.098   5.620   6.479 -0.3180 -0.5167 -0.7609
  186SLPC   C2721411   2.932   5.653   6.609 -0.5189 -0.5562  0.8600
  186SLPC   H7R21412   2.859   5.577   6.572  1.8948 -1.4275 -2.6275
  186SLPC   H7S21413   2.865   5.735   6.644  2.0541  2.1805 -0.2155
  186SLPC   C2821414   3.004   5.614   6.737 -0.0637 -0.2846 -0.3926
  186SLPC   H8R21415   2.934   5.636   6.821  2.3518  1.4991  1.3189
  186SLPC   H8S21416   3.085   5.687   6.757 -0.3791  0.9404 -3.1222
  186SLPC   C2921417   3.054   5.472   6.734  0.6115 -0.4219  0.3841
  186SLPC   H9R21418   3.079   5.439   6.632 -0.4104 -1.8236  0.5603
  186SLPC  C21021419   3.074   5.386   6.836  0.1070 -0.1144  0.2062
  186SLPC  H10R21420   3.117   5.285   6.825 -1.0838 -0.6790  0.5502
  186SLPC  C21121421   3.035   5.411   6.979  0.4424 -0.2728  0.4570
  186SLPC  H11R21422   3.087   5.502   7.016  0.0779  0.6075 -1.0880
  186SLPC  H11S21423   3.087   5.329   7.032  1.0182 -1.0394 -1.2121
  186SLPC  C21221424   2.890   5.420   7.015 -0.5451  0.2006 -0.2848
  186SLPC  H12R21425   2.816   5.411   6.934 -1.3921 -1.9249  0.6216
  186SLPC  C21321426   2.845   5.426   7.143  0.2215  0.3571  0.0000
  186SLPC  H13R21427   2.736   5.422   7.156  0.0515 -1.3393 -1.4167
  186SLPC  C21421428   2.926   5.438   7.269 -0.9900  0.2492 -0.7833
  186SLPC  H14R21429   2.870   5.503   7.340  2.8916  1.4923  1.4792
  186SLPC  H14S21430   3.024   5.488   7.254 -0.6080 -0.0328  0.6498
  186SLPC  C21521431   2.957   5.298   7.329 -0.2799 -0.2745  0.4796
  186SLPC  H15R21432   2.992   5.240   7.241  0.5895  0.6268  0.1971
  186SLPC  H15S21433   2.862   5.251   7.360 -1.0235 -0.3268 -1.7112
  186SLPC  C21621434   3.057   5.280   7.448  0.3100 -0.0220 -0.6305
  186SLPC  H16R21435   3.156   5.325   7.428 -0.0055  0.8364 -0.3160
  186SLPC  H16S21436   3.073   5.170   7.460 -2.4437 -0.5909 -1.4625
  186SLPC  C21721437   3.004   5.333   7.579  0.0592  0.5526 -0.1363
  186SLPC  H17R21438   3.053   5.281   7.664 -2.9673 -0.6051  1.0255
  186SLPC  H17S21439   2.898   5.300   7.586 -0.1815  1.2141 -0.5532
  186SLPC  C21821440   3.027   5.488   7.598 -0.0903 -0.6454  0.0832
  186SLPC  H18R21441   3.020   5.543   7.502  2.4383  1.7647  1.1638
  186SLPC  H18S21442   3.131   5.506   7.631 -0.1156  0.2572 -0.3038
  186SLPC  H18T21443   2.960   5.545   7.665  1.1606  1.5337 -0.4426
  186SLPC   C3321444   3.531   5.310   6.449 -0.3621  0.7044 -0.5230
  186SLPC   H3X21445   3.635   5.277   6.429 -0.1628  1.1180 -0.1934
  186SLPC   H3Y21446   3.477   5.234   6.508  0.7710  1.4478  1.5615
  186SLPC   C3421447   3.571   5.429   6.546 -0.2460 -0.1851  0.0144
  186SLPC   H4X21448   3.644   5.494   6.493  0.1617 -1.4481 -1.0471
  186SLPC   H4Y21449   3.625   5.385   6.633  1.4089  0.7879 -0.4825
  186SLPC   C3521450   3.447   5.509   6.591 -0.3414  0.0418  0.0833
  186SLPC   H5X21451   3.360   5.448   6.626  0.0725 -0.5358  0.1134
  186SLPC   H5Y21452   3.410   5.575   6.510 -1.2488 -2.4823 -1.6910
  186SLPC   C3621453   3.478   5.605   6.708  0.0923  0.2926 -0.2777
  186SLPC   H6X21454   3.412   5.693   6.719 -0.0054  0.2730 -0.6692
  186SLPC   H6Y21455   3.583   5.634   6.687  0.0296  0.9615  0.3068
  186SLPC   C3721456   3.474   5.525   6.841 -0.8440  0.1919  0.4218
  186SLPC   H7X21457   3.562   5.457   6.837  0.0997  1.4206 -1.0295
  186SLPC   H7Y21458   3.377   5.471   6.847 -0.9703  0.3601 -0.0665
  186SLPC   C3821459   3.493   5.602   6.970 -0.5405  0.1032  0.1287
  186SLPC   H8X21460   3.500   5.550   7.067 -2.3300 -1.2360 -0.4069
  186SLPC   H8Y21461   3.407   5.672   6.979 -0.0238  0.5065  2.3546
  186SLPC   C3921462   3.621   5.690   6.956  0.1251 -0.3930 -0.7583
  186SLPC   H9X21463   3.606   5.760   6.870 -0.4964  0.2838 -0.1129
  186SLPC   H9Y21464   3.711   5.630   6.931  2.4380  2.1750  0.8524
  186SLPC  C31021465   3.661   5.773   7.082  0.2875  0.3907 -0.7703
  186SLPC  H10X21466   3.584   5.853   7.087 -0.7330 -0.4447 -2.1349
  186SLPC  H10Y21467   3.758   5.827   7.071 -0.1230  1.6150  1.2038
  186SLPC  C31121468   3.660   5.693   7.214  0.5474 -0.7846  0.3377
  186SLPC  H11X21469   3.740   5.618   7.201  1.2833  0.1933 -1.0480
  186SLPC  H11Y21470   3.561   5.643   7.224  1.4343 -2.4017  1.4585
  186SLPC  C31221471   3.694   5.784   7.334 -0.0239 -0.2759 -1.0833
  186SLPC  H12X21472   3.602   5.832   7.375  0.2582 -1.5271  1.1974
  186SLPC  H12Y21473   3.772   5.858   7.310 -0.7362  0.5360 -0.9371
  186SLPC  C31321474   3.751   5.701   7.456  0.4865 -0.5557  0.5187
  186SLPC  H13X21475   3.833   5.641   7.412 -0.1502  0.3199 -2.0529
  186SLPC  H13Y21476   3.661   5.643   7.487 -0.5884  0.6596 -0.2376
  186SLPC  C31421477   3.796   5.799   7.565 -0.4306 -0.1396  0.1748
  186SLPC  H14X21478   3.714   5.874   7.564  0.6653  1.1092  0.7315
  186SLPC  H14Y21479   3.895   5.842   7.539  0.7188 -1.3116  2.3274
  186SLPC  C31521480   3.807   5.723   7.703  0.2324  0.2648 -0.2152
  186SLPC  H15X21481   3.710   5.680   7.734 -1.0986  0.6962 -3.3451
  186SLPC  H15Y21482   3.816   5.812   7.769 -2.6272  1.8165 -1.7149
  186SLPC  C31621483   3.925   5.632   7.714 -0.0913  0.5362  0.4897
  186SLPC  H16X21484   4.027   5.668   7.689 -0.5375  0.2668 -2.0907
  186SLPC  H16Y21485   3.898   5.550   7.644  0.0733 -1.0005  2.1837
  186SLPC  C31721486   3.962   5.571   7.856  0.4403 -1.0007  0.4515
  186SLPC  H17X21487   3.872   5.515   7.890  0.5491 -1.6245 -0.2522
  186SLPC  H17Y21488   3.990   5.645   7.934  0.3274 -0.1675 -0.2895
  186SLPC  C31821489   4.073   5.472   7.840  0.1612 -0.4091  0.1276
  186SLPC  H18X21490   4.054   5.394   7.764  0.7783  0.3851 -0.8640
  186SLPC  H18Y21491   4.111   5.426   7.934 -0.2259 -0.4833  0.2493
  186SLPC  H18Z21492   4.162   5.524   7.797  0.0327  0.4641  0.8672
  187SLPC     N21493   3.959   1.380   5.594  0.3436 -0.5129  0.0695
  187SLPC   C1321494   3.877   1.422   5.467  0.1916  0.6178  0.0075
  187SLPC  H13A21495   3.914   1.515   5.425  0.7064  0.0557 -0.8299
  187SLPC  H13B21496   3.895   1.350   5.389  0.2836  0.3386  0.2867
  187SLPC  H13C21497   3.771   1.440   5.479  0.1008 -0.7423  1.3982
  187SLPC   C1421498   3.960   1.494   5.695  0.1195  0.6584 -0.1253
  187SLPC  H14A21499   3.861   1.532   5.714  0.3457  0.4349  1.6874
  187SLPC  H14B21500   4.013   1.465   5.785 -0.9525 -1.4508 -0.1084
  187SLPC  H14C21501   4.019   1.571   5.648 -0.4110  1.3008  0.2454
  187SLPC   C1521502   4.100   1.374   5.553  0.2042 -0.1620 -0.0713
  187SLPC  H15A21503   4.142   1.462   5.507 -1.3104 -0.3752 -2.0379
  187SLPC  H15B21504   4.161   1.364   5.641 -4.3902 -2.0906  3.2815
  187SLPC  H15C21505   4.132   1.292   5.490  0.5341  0.6377 -0.9695
  187SLPC   C1221506   3.910   1.247   5.655 -0.2603 -0.3486  0.0672
  187SLPC  H12A21507   3.994   1.213   5.713  1.5698  0.5110 -1.9099
  187SLPC  H12B21508   3.905   1.178   5.572  2.0002  0.6841 -1.0085
  187SLPC   C1121509   3.788   1.251   5.747  0.1089  0.2506 -1.4381
  187SLPC  H11A21510   3.811   1.321   5.830 -1.2336 -1.8499  0.8582
  187SLPC  H11B21511   3.785   1.151   5.795  0.1126  1.8097  2.0843
  187SLPC     P21512   3.540   1.187   5.709  0.1832 -0.0072 -0.3844
  187SLPC   O1321513   3.414   1.261   5.678 -0.4412 -0.3800  0.0948
  187SLPC   O1421514   3.551   1.062   5.638 -0.3186  0.7152  0.0205
  187SLPC   O1221515   3.666   1.283   5.685 -0.0812  0.5843  0.6521
  187SLPC   O1121516   3.545   1.143   5.861  0.2104 -0.3380 -0.0101
  187SLPC    C121517   3.491   1.219   5.964 -0.3390 -0.1299  0.2766
  187SLPC    HA21518   3.384   1.241   5.945 -0.0595  0.1722 -1.0431
  187SLPC    HB21519   3.499   1.163   6.060 -1.0789  2.4367  1.9492
  187SLPC    C221520   3.572   1.346   6.012  0.4611  1.0295 -0.5785
  187SLPC    HS21521   3.595   1.410   5.924  0.5024  0.7046 -0.8063
  187SLPC   O2121522   3.689   1.293   6.075  0.3276 -0.5348  0.6269
  187SLPC   C2121523   3.779   1.382   6.104 -0.1686 -0.2777 -0.0786
  187SLPC   O2221524   3.780   1.499   6.058  0.0353 -0.3280 -0.9675
  187SLPC   C2221525   3.891   1.318   6.190  0.0582 -0.6032  0.6912
  187SLPC   H2R21526   3.919   1.224   6.139 -0.3330  1.0790 -2.8885
  187SLPC   H2S21527   3.980   1.384   6.194  1.3907 -2.2623 -0.2130
  187SLPC    C321528   3.493   1.433   6.107  0.2676  0.2448 -0.6202
  187SLPC    HX21529   3.402   1.472   6.056  0.3201  1.2787  0.0445
  187SLPC    HY21530   3.552   1.527   6.112  0.4248  0.1107  0.1771
  187SLPC   O3121531   3.472   1.369   6.238  0.0953 -0.1173  0.0477
  187SLPC   C3121532   3.405   1.443   6.317 -0.4330  0.0038 -0.0037
  187SLPC   O3221533   3.345   1.547   6.291  0.3892  0.7212 -0.1612
  187SLPC   C3221534   3.429   1.398   6.460  0.7577 -0.5028  0.5773
  187SLPC   H2X21535   3.510   1.323   6.454  0.4268 -0.7669 -1.8608
  187SLPC   H2Y21536   3.343   1.338   6.493 -0.1082  0.1913 -0.3518
  187SLPC   C2321537   3.846   1.286   6.335  0.4062  0.4515  0.6628
  187SLPC   H3R21538   3.910   1.204   6.374 -0.2581  0.4223  1.7424
  187SLPC   H3S21539   3.746   1.237   6.333 -0.0210  1.3280 -0.5282
  187SLPC   C2421540   3.826   1.415   6.421 -0.1349  0.3491 -0.5981
  187SLPC   H4R21541   3.736   1.388   6.481  0.0503  0.2497 -0.3624
  187SLPC   H4S21542   3.801   1.499   6.353 -0.1196 -0.3346 -1.4642
  187SLPC   C2521543   3.939   1.445   6.517 -0.1364 -0.0384  0.3222
  187SLPC   H5R21544   3.912   1.529   6.586 -0.9643 -0.2552  0.2658
  187SLPC   H5S21545   4.028   1.494   6.472 -1.3789  1.2741 -0.8086
  187SLPC   C2621546   3.966   1.324   6.609 -0.1813  0.8708 -0.2710
  187SLPC   H6R21547   3.993   1.234   6.550 -1.2169  0.0663  0.4492
  187SLPC   H6S21548   3.873   1.298   6.664 -0.1949  2.2560  0.4173
  187SLPC   C2721549   4.077   1.350   6.704  0.0340 -0.2457 -0.5643
  187SLPC   H7R21550   4.046   1.425   6.780 -0.6529  0.8712 -1.9088
  187SLPC   H7S21551   4.171   1.386   6.657  0.3046 -0.9213 -0.5458
  187SLPC   C2821552   4.123   1.228   6.795  0.5716 -0.2807  0.4962
  187SLPC   H8R21553   4.207   1.264   6.857  0.8024  0.3261 -0.1500
  187SLPC   H8S21554   4.172   1.156   6.726  1.7195  0.7852  0.1777
  187SLPC   C2921555   4.005   1.159   6.865 -0.3844 -0.0159 -0.2037
  187SLPC   H9R21556   3.973   1.067   6.814 -1.3910 -1.0048  2.0893
  187SLPC  C21021557   3.959   1.203   6.982 -0.1591 -0.3034  0.5028
  187SLPC  H10R21558   3.882   1.145   7.036  0.4306  0.0268  1.7424
  187SLPC  C21121559   4.017   1.323   7.059 -0.1118  0.2252 -0.1164
  187SLPC  H11R21560   4.116   1.347   7.017  0.0969 -0.3258  0.0548
  187SLPC  H11S21561   4.047   1.285   7.159  0.7798  0.5567 -0.2487
  187SLPC  C21221562   3.922   1.442   7.071  0.3209 -0.2126  0.4184
  187SLPC  H12R21563   3.896   1.478   6.970  1.0604 -1.8019 -0.3775
  187SLPC  C21321564   3.868   1.499   7.180  0.1012 -0.0421 -0.0792
  187SLPC  H13R21565   3.800   1.584   7.169  0.2443 -0.1349 -2.3132
  187SLPC  C21421566   3.901   1.455   7.325  0.2267 -0.2056  0.0060
  187SLPC  H14R21567   3.949   1.355   7.328 -0.7824 -0.6712  1.3146
  187SLPC  H14S21568   3.807   1.444   7.384 -0.4004 -1.9934 -1.2204
  187SLPC  C21521569   4.007   1.545   7.401  0.3869 -0.2692  0.2433
  187SLPC  H15R21570   3.964   1.647   7.410 -0.7451 -0.7423  0.3930
  187SLPC  H15S21571   4.090   1.548   7.328  1.9767 -1.0634  1.9592
  187SLPC  C21621572   4.065   1.502   7.537 -0.4405 -0.6343 -0.3087
  187SLPC  H16R21573   4.104   1.398   7.529 -1.3312 -0.8539 -3.0046
  187SLPC  H16S21574   3.989   1.500   7.618 -1.4865 -0.5012 -1.2489
  187SLPC  C21721575   4.180   1.602   7.576 -0.0851  0.8453  0.5027
  187SLPC  H17R21576   4.145   1.698   7.618 -0.3106  0.4182  1.2991
  187SLPC  H17S21577   4.237   1.637   7.487  1.2559  0.3046  1.1284
  187SLPC  C21821578   4.278   1.549   7.680  0.1187  0.4515 -0.6608
  187SLPC  H18R21579   4.241   1.529   7.783  0.6755 -0.5221 -0.6370
  187SLPC  H18S21580   4.357   1.625   7.699  0.6840 -0.5008  0.9854
  187SLPC  H18T21581   4.326   1.456   7.643 -0.6471 -0.0801 -0.3214
  187SLPC   C3321582   3.456   1.518   6.547  0.0807 -0.5116  0.7721
  187SLPC   H3X21583   3.378   1.593   6.524  0.4276 -0.4198 -0.1465
  187SLPC   H3Y21584   3.546   1.580   6.524 -0.5478 -0.0214 -0.4323
  187SLPC   C3421585   3.456   1.492   6.697  0.3442 -0.4924 -0.1274
  187SLPC   H4X21586   3.362   1.437   6.720  0.6041 -1.7854 -1.9596
  187SLPC   H4Y21587   3.434   1.583   6.757  1.2830 -2.4383  3.4780
  187SLPC   C3521588   3.583   1.424   6.748 -0.2199 -0.2526  0.1128
  187SLPC   H5X21589   3.674   1.487   6.741  0.1075 -0.8338 -1.2077
  187SLPC   H5Y21590   3.611   1.336   6.686 -1.8298 -1.4965  1.0603
  187SLPC   C3621591   3.571   1.368   6.894  0.3122  0.4969  0.7889
  187SLPC   H6X21592   3.579   1.456   6.961 -1.0449  1.4641 -0.2401
  187SLPC   H6Y21593   3.660   1.302   6.897 -0.1892 -0.1917  0.9013
  187SLPC   C3721594   3.447   1.277   6.922  0.4768  0.0504 -0.0700
  187SLPC   H7X21595   3.356   1.340   6.911  0.4413  0.7603  3.0842
  187SLPC   H7Y21596   3.443   1.190   6.854 -0.3795  0.2217 -0.2477
  187SLPC   C3821597   3.441   1.212   7.061 -0.5284  0.0938  0.1719
  187SLPC   H8X21598   3.546   1.177   7.069 -0.0548  1.5888  0.7463
  187SLPC   H8Y21599   3.365   1.131   7.068  0.3535 -0.6995  0.8848
  187SLPC   C3921600   3.418   1.312   7.170 -0.1263  0.6026 -0.1304
  187SLPC   H9X21601   3.315   1.356   7.167  0.0480  1.1175  0.8673
  187SLPC   H9Y21602   3.495   1.392   7.171 -0.2002  0.6762 -0.2588
  187SLPC  C31021603   3.432   1.253   7.315 -0.2913 -0.0578  0.1731
  187SLPC  H10X21604   3.377   1.157   7.309 -0.8023  0.0771  2.1466
  187SLPC  H10Y21605   3.380   1.318   7.389 -0.0740  0.0974  0.1926
  187SLPC  C31121606   3.583   1.245   7.347 -1.2013 -0.1103  0.0540
  187SLPC  H11X21607   3.634   1.343   7.332  0.2206 -0.8700 -0.2574
  187SLPC  H11Y21608   3.635   1.175   7.278 -1.9365 -0.6319  0.0249
  187SLPC  C31221609   3.602   1.194   7.489  0.3364 -0.1580  0.3966
  187SLPC  H12X21610   3.571   1.087   7.494 -1.2001  0.2694  0.5217
  187SLPC  H12Y21611   3.545   1.248   7.568  0.1591 -0.7281  0.6614
  187SLPC  C31321612   3.742   1.192   7.539 -0.6294 -0.8153 -0.0085
  187SLPC  H13X21613   3.733   1.181   7.649 -0.3992 -3.7924 -0.2015
  187SLPC  H13Y21614   3.791   1.290   7.526  1.6332 -1.6700  1.5654
  187SLPC  C31421615   3.830   1.074   7.494  0.2724 -0.2694  0.5909
  187SLPC  H14X21616   3.837   1.078   7.383 -0.7571  1.3052  0.5389
  187SLPC  H14Y21617   3.782   0.978   7.522 -0.5608  0.7256  2.8865
  187SLPC  C31521618   3.967   1.072   7.567 -0.1241 -0.6444  0.4279
  187SLPC  H15X21619   3.939   1.059   7.674 -0.6921 -2.9991  0.0546
  187SLPC  H15Y21620   4.015   1.171   7.554  0.2809 -0.8323  0.4862
  187SLPC  C31621621   4.048   0.960   7.513  0.4531 -0.4378 -0.3137
  187SLPC  H16X21622   4.082   0.978   7.409  0.6459 -2.6749 -0.6867
  187SLPC  H16Y21623   3.998   0.861   7.523  0.9094 -0.5794  0.8099
  187SLPC  C31721624   4.179   0.959   7.599 -0.5138 -0.6390  0.0182
  187SLPC  H17X21625   4.219   0.857   7.583  0.0799 -0.2120 -1.4281
  187SLPC  H17Y21626   4.160   0.983   7.706  1.4783  0.7031  0.1444
  187SLPC  C31821627   4.276   1.071   7.562  0.4334 -0.3036 -0.3983
  187SLPC  H18X21628   4.234   1.174   7.565  2.4637  0.6044 -1.0132
  187SLPC  H18Y21629   4.309   1.060   7.456  0.8461 -4.4131 -0.0112
  187SLPC  H18Z21630   4.367   1.069   7.625 -0.9380  0.0517  1.6626
  188SLPC     N21631   6.070   3.364   5.679  0.2584  0.3309  0.0994
  188SLPC   C1321632   5.946   3.439   5.638 -0.4488 -0.4687  0.3270
  188SLPC  H13A21633   5.893   3.405   5.551 -1.5384 -1.3000  1.2854
  188SLPC  H13B21634   5.872   3.432   5.716 -0.1459 -1.6343  0.5281
  188SLPC  H13C21635   5.967   3.545   5.642 -1.6783 -0.1717 -0.6138
  188SLPC   C1421636   6.106   3.399   5.820 -0.0524 -0.3113  0.3710
  188SLPC  H14A21637   6.122   3.505   5.827 -2.6169  0.2323 -0.7295
  188SLPC  H14B21638   6.022   3.368   5.881 -2.3533 -0.2304 -2.5199
  188SLPC  H14C21639   6.194   3.347   5.854  0.9537 -0.8038 -2.6946
  188SLPC   C1521640   6.188   3.408   5.593 -0.2366 -0.1369 -0.1331
  188SLPC  H15A21641   6.170   3.364   5.496  0.5397 -0.5017 -0.1150
  188SLPC  H15B21642   6.195   3.516   5.592  1.5599 -0.1419  2.6974
  188SLPC  H15C21643   6.275   3.361   5.635 -0.0022  1.8767  1.8459
  188SLPC   C1221644   6.057   3.214   5.654 -0.5493  0.2145 -0.0242
  188SLPC  H12A21645   5.985   3.171   5.722 -1.2488 -0.2989 -1.0711
  188SLPC  H12B21646   6.151   3.163   5.670 -0.3211  0.6426  0.0291
  188SLPC   C1121647   6.006   3.188   5.514  1.2847 -0.0225  0.2309
  188SLPC  H11A21648   6.029   3.080   5.503  3.1859  0.4662 -1.0090
  188SLPC  H11B21649   6.062   3.246   5.437 -2.1568  1.5207 -1.2944
  188SLPC     P21650   5.760   3.123   5.589  0.2137  0.5889  0.0513
  188SLPC   O1321651   5.637   3.198   5.596  0.1463 -0.4244 -0.0243
  188SLPC   O1421652   5.750   2.997   5.511  0.7988  0.6117  0.3684
  188SLPC   O1221653   5.864   3.210   5.509  0.2402  0.3806  0.2644
  188SLPC   O1121654   5.817   3.098   5.736  0.1146  0.1705 -0.0362
  188SLPC    C121655   5.802   2.974   5.801 -0.3545 -0.3786 -0.3192
  188SLPC    HA21656   5.709   2.921   5.770 -0.0141 -1.0009 -0.2994
  188SLPC    HB21657   5.876   2.904   5.759  0.7016  0.5113  0.0201
  188SLPC    C221658   5.830   2.989   5.955  0.0764  0.3381  0.6241
  188SLPC    HS21659   5.798   2.896   6.007  1.8933 -0.6829 -0.0163
  188SLPC   O2121660   5.761   3.108   6.004 -0.3712 -0.3564  0.3457
  188SLPC   C2121661   5.635   3.113   6.001  0.0629 -0.3904 -0.1081
  188SLPC   O2221662   5.557   3.018   5.990  0.3641 -0.2164 -0.2678
  188SLPC   C2221663   5.590   3.264   6.008  0.1212 -0.0378 -0.5061
  188SLPC   H2R21664   5.559   3.298   5.907 -0.4152  3.9103  0.8088
  188SLPC   H2S21665   5.497   3.260   6.069  1.8614 -2.7098  2.3133
  188SLPC    C321666   5.977   3.006   5.986  0.4906 -0.1091 -0.5340
  188SLPC    HX21667   6.018   3.096   5.934  1.5314 -0.4557 -0.3381
  188SLPC    HY21668   6.020   2.910   5.951  3.9709  1.4423 -0.9535
  188SLPC   O3121669   6.002   3.015   6.128 -0.1616  0.1643 -0.0649
  188SLPC   C3121670   6.036   3.127   6.179  0.4626 -0.3454  0.4302
  188SLPC   O3221671   6.065   3.232   6.123 -0.4613  0.0788 -0.9176
  188SLPC   C3221672   6.070   3.116   6.334  0.6040  0.2764  0.1509
  188SLPC   H2X21673   6.179   3.099   6.346  0.4336 -0.9221  0.1037
  188SLPC   H2Y21674   6.012   3.027   6.366  1.0702 -0.0971 -0.0467
  188SLPC   C2321675   5.693   3.358   6.073 -0.4995 -0.3665  0.3969
  188SLPC   H3R21676   5.669   3.466   6.058  0.6761 -0.3251 -1.5809
  188SLPC   H3S21677   5.791   3.336   6.025 -0.2631 -0.0069  0.7096
  188SLPC   C2421678   5.705   3.332   6.227 -0.3618  0.0236 -0.6013
  188SLPC   H4R21679   5.786   3.395   6.270 -0.9744  0.1190  0.4521
  188SLPC   H4S21680   5.734   3.226   6.241  0.4768  0.1830 -1.0254
  188SLPC   C2521681   5.576   3.369   6.298 -0.1088 -0.2420 -0.7139
  188SLPC   H5R21682   5.497   3.297   6.266  0.3382  0.1594 -2.8502
  188SLPC   H5S21683   5.546   3.471   6.266 -0.2082 -1.2667 -4.2041
  188SLPC   C2621684   5.565   3.384   6.447  0.3205  0.6532  0.1694
  188SLPC   H6R21685   5.667   3.426   6.465  0.4516  0.5219 -0.2578
  188SLPC   H6S21686   5.560   3.281   6.487 -0.7472  0.7030  0.1867
  188SLPC   C2721687   5.450   3.469   6.496  0.4433 -0.3699 -0.2151
  188SLPC   H7R21688   5.361   3.442   6.437 -0.3116 -0.5110  0.9562
  188SLPC   H7S21689   5.469   3.576   6.473 -0.0449 -0.4351 -0.9425
  188SLPC   C2821690   5.424   3.464   6.651  0.4005 -0.0155  0.3104
  188SLPC   H8R21691   5.391   3.360   6.674  0.2815 -0.3611 -1.2634
  188SLPC   H8S21692   5.341   3.536   6.667  0.6907  0.4282 -0.1621
  188SLPC   C2921693   5.537   3.507   6.751  0.0380  0.0123  0.5543
  188SLPC   H9R21694   5.634   3.535   6.709 -0.8954  0.4421 -1.4721
  188SLPC  C21021695   5.523   3.493   6.884  0.3343  1.1178 -0.2926
  188SLPC  H10R21696   5.606   3.508   6.955 -0.1494  0.0967  0.5132
  188SLPC  C21121697   5.393   3.443   6.953 -0.7793 -0.3994  0.0082
  188SLPC  H11R21698   5.411   3.365   7.030  0.6372  0.3378  0.4469
  188SLPC  H11S21699   5.316   3.403   6.883 -1.5066  0.6762  0.1624
  188SLPC  C21221700   5.327   3.563   7.012  0.5782  0.3432  0.3993
  188SLPC  H12R21701   5.348   3.664   6.974 -0.3022  0.6836  0.7858
  188SLPC  C21321702   5.231   3.552   7.113 -0.4307 -0.0674  0.8646
  188SLPC  H13R21703   5.181   3.643   7.150 -1.5135 -0.8443  1.3894
  188SLPC  C21421704   5.173   3.426   7.182 -0.1379  0.1692  0.4440
  188SLPC  H14R21705   5.184   3.338   7.115 -1.1209 -1.1961  2.0035
  188SLPC  H14S21706   5.064   3.440   7.192 -0.1919  0.6253 -0.7520
  188SLPC  C21521707   5.241   3.394   7.317  0.9576 -0.2355 -0.8215
  188SLPC  H15R21708   5.351   3.401   7.298  0.8705  1.4899 -0.8385
  188SLPC  H15S21709   5.218   3.290   7.351 -0.3141  0.1710 -0.4077
  188SLPC  C21621710   5.222   3.494   7.437  0.7766 -0.0722  0.1454
  188SLPC  H16R21711   5.112   3.510   7.445  0.3746 -2.3398 -0.1383
  188SLPC  H16S21712   5.246   3.600   7.413  0.9079 -0.1352  0.0014
  188SLPC  C21721713   5.291   3.460   7.563  0.3844 -0.3689 -0.0478
  188SLPC  H17R21714   5.401   3.462   7.547  1.2937  0.3147  4.8871
  188SLPC  H17S21715   5.266   3.356   7.593 -1.7407 -0.0550 -0.5336
  188SLPC  C21821716   5.246   3.559   7.673 -0.0875 -0.4891  0.4964
  188SLPC  H18R21717   5.286   3.658   7.643  2.3338 -0.9956  1.7323
  188SLPC  H18S21718   5.291   3.537   7.772  0.9403  1.3866  0.4816
  188SLPC  H18T21719   5.136   3.569   7.669  0.0343  0.5756 -2.8956
  188SLPC   C3321720   6.032   3.245   6.419  0.5428 -0.2246  0.4620
  188SLPC   H3X21721   5.926   3.225   6.446  0.3712 -1.7309 -1.1207
  188SLPC   H3Y21722   6.024   3.340   6.363 -0.7712  0.8900  2.4327
  188SLPC   C3421723   6.127   3.247   6.541 -0.1508 -0.6902  0.1154
  188SLPC   H4X21724   6.217   3.302   6.506 -0.0859 -0.9279 -0.0881
  188SLPC   H4Y21725   6.158   3.144   6.570  1.8394 -0.0395  0.4295
  188SLPC   C3521726   6.081   3.326   6.667  0.1373  0.2743 -0.2482
  188SLPC   H5X21727   6.046   3.431   6.653 -3.3499 -0.5659  1.0777
  188SLPC   H5Y21728   6.165   3.323   6.740  1.7643  0.4047 -2.0583
  188SLPC   C3621729   5.961   3.261   6.742  0.2973  0.1189  0.0797
  188SLPC   H6X21730   5.982   3.152   6.737  2.4160  0.5125 -0.9035
  188SLPC   H6Y21731   5.868   3.290   6.688  0.3382  0.6712  0.2977
  188SLPC   C3721732   5.954   3.321   6.883 -0.3786  0.0071 -0.0772
  188SLPC   H7X21733   5.925   3.428   6.880  0.0660  0.1954  1.5017
  188SLPC   H7Y21734   6.047   3.328   6.942 -0.8049  1.5647  0.4613
  188SLPC   C3821735   5.858   3.237   6.979  0.4660 -1.1924  0.2455
  188SLPC   H8X21736   5.754   3.230   6.940  0.3870 -0.1748  0.2454
  188SLPC   H8Y21737   5.844   3.301   7.068 -1.1669  0.5951 -1.1931
  188SLPC   C3921738   5.933   3.111   7.026 -0.2800 -0.5322 -0.9796
  188SLPC   H9X21739   6.031   3.153   7.055 -1.5137  0.9119  1.3710
  188SLPC   H9Y21740   5.963   3.051   6.937  3.8912 -2.1436  1.2564
  188SLPC  C31021741   5.871   3.023   7.141  0.5650  0.3261 -0.4219
  188SLPC  H10X21742   5.896   2.923   7.100  2.5631  0.8148 -0.4668
  188SLPC  H10Y21743   5.761   3.032   7.157  0.7598  0.0829  1.2596
  188SLPC  C31121744   5.933   3.055   7.280  0.7925  0.9344  0.1279
  188SLPC  H11X21745   5.867   3.129   7.330 -1.2806  2.5844 -4.4089
  188SLPC  H11Y21746   6.031   3.108   7.279  0.0583  2.3948  1.1409
  188SLPC  C31221747   5.934   2.930   7.380 -0.0645 -0.7236 -0.0440
  188SLPC  H12X21748   6.016   2.856   7.367  2.3713  1.7544  0.3363
  188SLPC  H12Y21749   5.838   2.875   7.368 -0.1137 -1.0384  1.5477
  188SLPC  C31321750   5.942   2.985   7.525 -0.3457  0.0958  0.3710
  188SLPC  H13X21751   5.861   3.060   7.530  0.8092  1.8127 -3.1078
  188SLPC  H13Y21752   6.038   3.037   7.544  0.6949 -1.3160 -0.8440
  188SLPC  C31421753   5.936   2.859   7.626 -0.0359 -0.2829 -0.6318
  188SLPC  H14X21754   6.037   2.814   7.634  1.0107  2.0599  0.0352
  188SLPC  H14Y21755   5.877   2.783   7.570  1.3338 -0.8753 -1.3208
  188SLPC  C31521756   5.901   2.896   7.773  0.5839  0.2937 -0.0083
  188SLPC  H15X21757   5.922   2.801   7.827  2.7826  0.5530 -0.2891
  188SLPC  H15Y21758   5.793   2.909   7.793  0.6507 -1.3930  1.7570
  188SLPC  C31621759   5.973   3.017   7.825  0.4291 -0.0521 -0.2923
  188SLPC  H16X21760   5.930   3.108   7.779  0.6789 -0.2279 -0.8776
  188SLPC  H16Y21761   6.078   3.006   7.790  1.0078  2.4484  0.4597
  188SLPC  C31721762   5.958   3.035   7.982  0.0067 -0.9186  0.2013
  188SLPC  H17X21763   5.849   3.020   8.001  0.0385 -1.1374  0.2166
  188SLPC  H17Y21764   5.980   3.142   8.004 -0.6172 -0.2961 -1.9633
  188SLPC  C31821765   6.037   2.936   8.064  0.3263  0.2984 -0.4501
  188SLPC  H18X21766   6.142   2.970   8.075 -0.2584  2.3356 -0.6663
  188SLPC  H18Y21767   6.044   2.838   8.013  2.3386  0.0497  0.2288
  188SLPC  H18Z21768   5.989   2.913   8.162  2.3593  0.9582  0.7687
  189SLPC     N21769   6.659   3.723   5.578  0.0653  0.3408  0.1337
  189SLPC   C1321770   6.761   3.641   5.659 -0.2208  0.3821 -0.0920
  189SLPC  H13A21771   6.727   3.544   5.690  0.1711  0.3631  0.2864
  189SLPC  H13B21772   6.852   3.621   5.604  0.7275  0.4669  1.4002
  189SLPC  H13C21773   6.782   3.693   5.751 -0.4661 -0.6855  0.5715
  189SLPC   C1421774   6.617   3.646   5.456 -0.0730 -0.2791 -0.5753
  189SLPC  H14A21775   6.696   3.647   5.383  0.6639 -0.7470  0.2021
  189SLPC  H14B21776   6.600   3.541   5.474  0.7939 -0.8928 -2.9944
  189SLPC  H14C21777   6.541   3.696   5.397 -1.6785 -0.1729  1.4903
  189SLPC   C1521778   6.717   3.856   5.537 -0.1913 -0.1929  0.0021
  189SLPC  H15A21779   6.800   3.850   5.468 -1.1751  3.9114 -1.8311
  189SLPC  H15B21780   6.646   3.921   5.488  0.6477  3.3218  2.9928
  189SLPC  H15C21781   6.748   3.907   5.627 -1.2067 -0.1742  0.3521
  189SLPC   C1221782   6.534   3.744   5.659 -0.0755 -0.2782  0.3790
  189SLPC  H12A21783   6.470   3.820   5.615  0.9696  2.5246  3.3017
  189SLPC  H12B21784   6.553   3.794   5.753 -1.5727  0.9605  0.0647
  189SLPC   C1121785   6.464   3.618   5.699 -0.0736 -0.1755  0.6753
  189SLPC  H11A21786   6.436   3.558   5.610 -0.2834  0.9135 -0.0127
  189SLPC  H11B21787   6.367   3.650   5.742  0.2790  1.4199  0.3624
  189SLPC     P21788   6.522   3.388   5.809  0.2046 -0.2261  0.1050
  189SLPC   O1321789   6.475   3.335   5.681  0.6320  0.3676 -0.4165
  189SLPC   O1421790   6.652   3.331   5.854 -0.1886 -0.2529 -1.3280
  189SLPC   O1221791   6.534   3.542   5.800 -0.0211 -0.1226 -0.3967
  189SLPC   O1121792   6.421   3.356   5.926  0.4121 -0.7114 -0.1481
  189SLPC    C121793   6.375   3.456   6.016 -0.6608 -0.6567  0.6643
  189SLPC    HA21794   6.338   3.550   5.971  0.2553 -0.0800  1.0963
  189SLPC    HB21795   6.287   3.408   6.063  0.6755 -1.3722  2.5756
  189SLPC    C221796   6.471   3.490   6.134 -0.2936  0.0418  1.1630
  189SLPC    HS21797   6.550   3.559   6.097 -2.5752  3.0017  1.4562
  189SLPC   O2121798   6.515   3.363   6.192 -0.7695  0.2264 -0.0832
  189SLPC   C2121799   6.639   3.368   6.232 -0.4023 -0.0169  0.5123
  189SLPC   O2221800   6.719   3.458   6.219 -0.0611 -0.0560 -0.5896
  189SLPC   C2221801   6.669   3.225   6.291  0.1583 -0.3498 -1.1974
  189SLPC   H2R21802   6.633   3.145   6.224 -1.5378 -2.3652  1.8756
  189SLPC   H2S21803   6.780   3.215   6.286  0.0649 -1.0505 -2.1933
  189SLPC    C321804   6.380   3.562   6.236  0.3289 -0.3011 -0.5927
  189SLPC    HX21805   6.310   3.480   6.263  0.2346 -0.5073 -1.4307
  189SLPC    HY21806   6.327   3.642   6.179  1.5492  1.2754  0.3920
  189SLPC   O3121807   6.461   3.609   6.342  0.1275 -0.3914 -0.5002
  189SLPC   C3121808   6.424   3.728   6.394  0.1505  0.1684 -0.6725
  189SLPC   O3221809   6.326   3.794   6.358  0.5845 -0.0349 -0.4532
  189SLPC   C3221810   6.528   3.769   6.503 -1.7500  0.1723 -0.0659
  189SLPC   H2X21811   6.509   3.873   6.538 -0.8144  0.4065 -0.2485
  189SLPC   H2Y21812   6.633   3.767   6.469 -1.8094 -0.8504 -0.2230
  189SLPC   C2321813   6.615   3.213   6.435  0.7035 -1.0722 -0.0067
  189SLPC   H3R21814   6.625   3.108   6.470 -0.9409 -1.8738 -1.7550
  189SLPC   H3S21815   6.508   3.241   6.426  0.7873 -1.1481 -1.6174
  189SLPC   C2421816   6.692   3.315   6.525  0.8042  0.0754  0.1651
  189SLPC   H4R21817   6.664   3.418   6.496  3.4916  1.6593  2.7028
  189SLPC   H4S21818   6.802   3.302   6.512  0.9995  1.0139  0.7931
  189SLPC   C2521819   6.657   3.295   6.674  0.0133  0.1059 -0.0334
  189SLPC   H5R21820   6.688   3.195   6.710 -1.7511  0.3153  2.2786
  189SLPC   H5S21821   6.551   3.304   6.705 -0.6959 -0.0808 -2.2020
  189SLPC   C2621822   6.725   3.400   6.767  0.4560 -0.3846 -0.4805
  189SLPC   H6R21823   6.688   3.503   6.743 -1.7328 -0.4419  2.1246
  189SLPC   H6S21824   6.835   3.387   6.763  0.3999 -0.6350 -1.4168
  189SLPC   C2721825   6.681   3.368   6.913  0.1649  0.2382 -0.2978
  189SLPC   H7R21826   6.732   3.275   6.945  0.1106  1.3270  3.3270
  189SLPC   H7S21827   6.572   3.349   6.911  0.3409 -0.8006 -2.1305
  189SLPC   C2821828   6.719   3.474   7.014 -0.8452 -0.3310 -0.5044
  189SLPC   H8R21829   6.663   3.568   6.994  1.8658  1.2066 -1.2507
  189SLPC   H8S21830   6.826   3.504   7.009 -1.5015  2.5036  0.4223
  189SLPC   C2921831   6.703   3.427   7.154 -0.5032 -0.3242  0.3750
  189SLPC   H9R21832   6.709   3.318   7.168  1.3044 -0.5014 -1.3115
  189SLPC  C21021833   6.686   3.507   7.265 -0.8448  0.0556  0.0678
  189SLPC  H10R21834   6.688   3.464   7.365 -1.8310 -0.6352 -0.1971
  189SLPC  C21121835   6.689   3.662   7.274  0.0183  0.9409  0.0794
  189SLPC  H11R21836   6.659   3.701   7.174 -0.7662 -0.8842 -0.4265
  189SLPC  H11S21837   6.783   3.705   7.315  0.3174  0.4519 -0.0975
  189SLPC  C21221838   6.561   3.691   7.357 -0.5346  0.6920 -0.4864
  189SLPC  H12R21839   6.474   3.626   7.337 -1.3030  1.5466 -0.0174
  189SLPC  C21321840   6.551   3.775   7.465  0.0717 -0.0592  0.0783
  189SLPC  H13R21841   6.456   3.782   7.520  0.2425 -1.5473  0.6301
  189SLPC  C21421842   6.655   3.871   7.517  0.9549  0.9813 -0.8190
  189SLPC  H14R21843   6.742   3.820   7.564  0.8291  0.6471 -0.9495
  189SLPC  H14S21844   6.614   3.925   7.605  0.8441 -2.5921  1.5309
  189SLPC  C21521845   6.705   3.966   7.410  0.2463  0.8570 -0.2283
  189SLPC  H15R21846   6.616   3.999   7.352 -0.1040 -0.9112 -0.7652
  189SLPC  H15S21847   6.768   3.935   7.323 -1.1221  0.9287 -1.2746
  189SLPC  C21621848   6.774   4.084   7.480 -0.1222  0.3956 -0.2881
  189SLPC  H16R21849   6.859   4.040   7.536 -0.5883 -2.6963 -1.7990
  189SLPC  H16S21850   6.706   4.133   7.553  0.3194 -0.2555  0.5833
  189SLPC  C21721851   6.830   4.188   7.374  0.8144  0.2667 -0.4414
  189SLPC  H17R21852   6.751   4.247   7.322  0.1877 -0.8166 -0.7659
  189SLPC  H17S21853   6.868   4.117   7.297  1.8552 -0.1856  0.4552
  189SLPC  C21821854   6.947   4.274   7.422 -0.2206  0.1065  0.2034
  189SLPC  H18R21855   6.914   4.361   7.484  1.3351 -0.3389  1.7454
  189SLPC  H18S21856   7.006   4.304   7.333 -0.0920  1.5356  0.7348
  189SLPC  H18T21857   7.012   4.210   7.485 -1.1401 -0.0797  0.9985
  189SLPC   C3321858   6.520   3.675   6.628 -0.3327  0.0861 -1.0926
  189SLPC   H3X21859   6.583   3.719   6.708  2.8037 -4.1593 -0.8279
  189SLPC   H3Y21860   6.568   3.581   6.591  0.4655  0.2326 -0.4390
  189SLPC   C3421861   6.376   3.652   6.681  0.2824  0.0037 -0.3744
  189SLPC   H4X21862   6.311   3.604   6.605 -1.1221 -0.9697  1.3523
  189SLPC   H4Y21863   6.328   3.749   6.706 -1.8789 -1.5669  2.0795
  189SLPC   C3521864   6.371   3.568   6.818  0.1090  0.8474 -0.2085
  189SLPC   H5X21865   6.471   3.589   6.861  1.0636  0.0511 -1.9086
  189SLPC   H5Y21866   6.383   3.461   6.791  1.6571  0.7935  0.5832
  189SLPC   C3621867   6.258   3.611   6.907  0.1074 -0.0943 -0.4178
  189SLPC   H6X21868   6.165   3.605   6.846  0.3545  0.0558 -0.8093
  189SLPC   H6Y21869   6.275   3.717   6.933  0.2694 -0.7844  2.5934
  189SLPC   C3721870   6.259   3.535   7.038 -0.3935 -0.0582 -0.0147
  189SLPC   H7X21871   6.350   3.563   7.096 -0.9590 -0.5737  1.1463
  189SLPC   H7Y21872   6.251   3.426   7.019  0.3644  0.0088 -0.7790
  189SLPC   C3821873   6.134   3.559   7.129  0.7528 -0.0718 -0.2764
  189SLPC   H8X21874   6.039   3.540   7.074  0.5316 -0.9566  0.3893
  189SLPC   H8Y21875   6.128   3.668   7.150  0.6155  0.2816 -1.9976
  189SLPC   C3921876   6.122   3.473   7.254  0.0632  0.8602 -0.1514
  189SLPC   H9X21877   6.127   3.364   7.231  3.1769  0.4330  1.9756
  189SLPC   H9Y21878   6.022   3.505   7.291  0.4479  1.7306  0.1508
  189SLPC  C31021879   6.224   3.497   7.370 -0.2716  0.1348 -0.3940
  189SLPC  H10X21880   6.215   3.605   7.397  1.7506  0.7273 -1.8035
  189SLPC  H10Y21881   6.324   3.477   7.326 -0.7348 -0.0353 -1.4199
  189SLPC  C31121882   6.199   3.405   7.484  0.4121 -0.5475  0.1714
  189SLPC  H11X21883   6.213   3.300   7.451  0.1433  0.3875 -3.3701
  189SLPC  H11Y21884   6.098   3.418   7.527  0.8486  0.7086  0.8773
  189SLPC  C31221885   6.302   3.422   7.609  0.2079 -0.2023  0.4539
  189SLPC  H12X21886   6.401   3.424   7.560  0.1304  3.7889  0.1087
  189SLPC  H12Y21887   6.276   3.336   7.675 -1.4392 -0.7189 -0.7886
  189SLPC  C31321888   6.274   3.558   7.682  0.0917 -0.4877  0.2258
  189SLPC  H13X21889   6.166   3.583   7.682  0.2650  0.4940  2.5539
  189SLPC  H13Y21890   6.323   3.640   7.624 -1.9263  1.0201  0.5393
  189SLPC  C31421891   6.337   3.548   7.826  0.6526 -0.0374  0.8081
  189SLPC  H14X21892   6.442   3.516   7.815  1.4091  2.1383  1.1470
  189SLPC  H14Y21893   6.278   3.470   7.879  1.1298  0.3792  1.9859
  189SLPC  C31521894   6.343   3.684   7.892  0.1271  0.0120  0.2116
  189SLPC  H15X21895   6.251   3.742   7.873 -0.0252 -0.0765  0.6575
  189SLPC  H15Y21896   6.431   3.738   7.852  1.2968 -0.9781  1.3277
  189SLPC  C31621897   6.378   3.680   8.048 -0.1097  0.6985  0.2174
  189SLPC  H16X21898   6.466   3.616   8.068 -0.9673 -0.4622  0.3554
  189SLPC  H16Y21899   6.297   3.637   8.110 -0.4620  0.6814 -0.2514
  189SLPC  C31721900   6.418   3.820   8.105 -0.3285 -0.4689  0.3429
  189SLPC  H17X21901   6.503   3.863   8.048 -1.8235  0.2905 -1.4309
  189SLPC  H17Y21902   6.455   3.807   8.209 -2.5867  1.4927  1.4796
  189SLPC  C31821903   6.300   3.917   8.119 -0.6525 -0.1841  0.4778
  189SLPC  H18X21904   6.310   4.002   8.189 -2.9252 -0.8142  1.6675
  189SLPC  H18Y21905   6.225   3.857   8.175 -0.7377  0.7413  1.3654
  189SLPC  H18Z21906   6.265   3.951   8.019 -1.3939  0.0880  0.8243
  190SLPC     N21907   6.765   3.009   5.578 -0.2235  0.5580  0.6159
  190SLPC   C1321908   6.695   3.135   5.530  0.1256 -0.9555 -0.1001
  190SLPC  H13A21909   6.757   3.207   5.479 -0.1050  0.8449  2.0187
  190SLPC  H13B21910   6.604   3.109   5.478 -0.0175 -0.9522  0.1454
  190SLPC  H13C21911   6.667   3.195   5.616 -0.6329 -1.2961 -0.1027
  190SLPC   C1421912   6.778   2.908   5.465 -0.2941  0.3726  0.3130
  190SLPC  H14A21913   6.682   2.890   5.419 -0.0236 -0.3026  0.0100
  190SLPC  H14B21914   6.846   2.943   5.389  0.5730 -0.6934  0.5727
  190SLPC  H14C21915   6.819   2.817   5.507 -0.3016  1.0755  1.9456
  190SLPC   C1521916   6.674   2.947   5.677  0.2130 -0.0636  0.1929
  190SLPC  H15A21917   6.713   2.880   5.752  1.9581  1.4893  0.7559
  190SLPC  H15B21918   6.624   3.026   5.732 -0.0606 -1.2767  1.7551
  190SLPC  H15C21919   6.600   2.893   5.621  1.2698 -0.6584 -0.6681
  190SLPC   C1221920   6.900   3.044   5.643 -0.1177  0.4222  0.9011
  190SLPC  H12A21921   6.940   2.954   5.688 -0.4369 -0.2011 -0.0316
  190SLPC  H12B21922   6.893   3.124   5.715 -2.4728  3.2829 -2.2068
  190SLPC   C1121923   7.015   3.091   5.545  0.0914 -0.3907 -0.4332
  190SLPC  H11A21924   7.037   3.006   5.476  1.2731 -2.1977  1.9992
  190SLPC  H11B21925   7.109   3.108   5.602  0.6665  1.2900 -1.8333
  190SLPC     P21926   7.022   3.350   5.505 -0.3730 -0.5368 -0.2654
  190SLPC   O1321927   7.168   3.357   5.477 -0.0899 -0.0569  0.2822
  190SLPC   O1421928   6.931   3.444   5.438  0.1265  0.6400 -0.5257
  190SLPC   O1221929   6.970   3.203   5.472  0.2750  0.0651 -0.4360
  190SLPC   O1121930   7.006   3.352   5.659 -0.3787  0.3968 -0.2081
  190SLPC    C121931   7.055   3.444   5.761 -0.9245  0.2725 -0.5060
  190SLPC    HA21932   7.100   3.538   5.722 -1.1224  1.9187  2.8967
  190SLPC    HB21933   6.967   3.473   5.823 -0.5023  1.8479 -0.5976
  190SLPC    C221934   7.168   3.378   5.849 -0.1469  0.2698 -0.1680
  190SLPC    HS21935   7.249   3.372   5.773 -0.0152 -0.3834  0.0248
  190SLPC   O2121936   7.131   3.237   5.876  0.8800 -0.2635  0.3752
  190SLPC   C2121937   7.228   3.158   5.907 -0.8042  0.1419 -0.1289
  190SLPC   O2221938   7.346   3.191   5.897  0.1172 -0.1318 -0.5450
  190SLPC   C2221939   7.172   3.024   5.941  1.2194  0.3854  0.3211
  190SLPC   H2R21940   7.061   3.028   5.942  1.2260  0.5147  0.8562
  190SLPC   H2S21941   7.192   2.946   5.864 -3.5663 -1.4926  0.6508
  190SLPC    C321942   7.213   3.452   5.981 -0.8017 -0.2765 -0.4820
  190SLPC    HX21943   7.253   3.552   5.954 -2.2003 -0.0824 -2.0173
  190SLPC    HY21944   7.283   3.374   6.021  1.0969  0.8581 -1.4624
  190SLPC   O3121945   7.111   3.471   6.073 -0.1268  0.5288 -0.7302
  190SLPC   C3121946   7.154   3.494   6.194 -0.2646 -0.3282  0.7812
  190SLPC   O3221947   7.274   3.507   6.221  0.3232 -0.2686 -0.3788
  190SLPC   C3221948   7.038   3.511   6.301 -0.5620  0.4080  0.8519
  190SLPC   H2X21949   7.020   3.416   6.355  0.2220 -0.7353 -0.8187
  190SLPC   H2Y21950   6.946   3.524   6.239  0.3915 -1.7597 -1.1804
  190SLPC   C2321951   7.222   2.983   6.078  0.2634 -0.0173  0.1193
  190SLPC   H3R21952   7.329   2.951   6.077 -0.3760 -2.5011  1.7286
  190SLPC   H3S21953   7.172   2.887   6.104 -0.9035 -0.0455 -1.9770
  190SLPC   C2421954   7.191   3.077   6.192  0.1045  0.0967  0.5586
  190SLPC   H4R21955   7.083   3.100   6.202  0.6748  3.0483  0.8822
  190SLPC   H4S21956   7.245   3.172   6.173 -2.2259  1.2921 -0.5148
  190SLPC   C2521957   7.231   3.012   6.325 -0.0896  0.0553 -0.1307
  190SLPC   H5R21958   7.338   2.986   6.309 -0.3417  0.0809 -2.1685
  190SLPC   H5S21959   7.186   2.913   6.348  0.9882 -0.0778  1.5791
  190SLPC   C2621960   7.219   3.101   6.450  0.0111  0.7912 -0.4956
  190SLPC   H6R21961   7.266   3.201   6.435 -1.6023  1.4563 -1.2991
  190SLPC   H6S21962   7.285   3.066   6.532 -1.3164  3.4637  1.8924
  190SLPC   C2721963   7.070   3.114   6.494 -0.7557  0.3379 -0.4444
  190SLPC   H7R21964   7.030   3.010   6.496  2.8180 -1.1682  0.4279
  190SLPC   H7S21965   7.010   3.169   6.418 -2.9475 -0.2417  0.7717
  190SLPC   C2821966   7.049   3.181   6.634 -0.6660 -0.8026  0.0347
  190SLPC   H8R21967   6.942   3.209   6.648 -0.6471 -0.4482 -0.4768
  190SLPC   H8S21968   7.091   3.284   6.629 -1.1827 -0.6343 -1.5936
  190SLPC   C2921969   7.095   3.092   6.746  0.4552  0.3397  0.0510
  190SLPC   H9R21970   7.035   3.001   6.755 -1.0749  1.1743 -1.2882
  190SLPC  C21021971   7.205   3.117   6.817 -0.4027  0.4809  1.0744
  190SLPC  H10R21972   7.217   3.043   6.897 -1.7352 -0.3857  0.5057
  190SLPC  C21121973   7.306   3.231   6.802 -0.1121 -0.1362 -0.0628
  190SLPC  H11R21974   7.309   3.271   6.698  1.8794  1.4558  0.5185
  190SLPC  H11S21975   7.407   3.184   6.806 -1.7195 -4.0502 -1.0595
  190SLPC  C21221976   7.290   3.354   6.882  0.4433  0.1057  0.1127
  190SLPC  H12R21977   7.190   3.365   6.927  0.0361  0.7815 -0.9241
  190SLPC  C21321978   7.380   3.454   6.892  0.2738  1.0848 -0.4084
  190SLPC  H13R21979   7.347   3.534   6.960 -1.7308 -0.2975  0.3573
  190SLPC  C21421980   7.513   3.464   6.822  0.1830  0.3980 -0.3621
  190SLPC  H14R21981   7.532   3.370   6.765 -2.5507 -1.4082  1.4729
  190SLPC  H14S21982   7.590   3.480   6.900  0.4481 -1.9536 -0.0733
  190SLPC  C21521983   7.510   3.563   6.709 -0.5603  0.1800  0.0452
  190SLPC  H15R21984   7.461   3.658   6.737 -0.4430  1.4146 -3.4432
  190SLPC  H15S21985   7.451   3.526   6.623 -0.6010 -0.5028  0.3582
  190SLPC  C21621986   7.653   3.597   6.653  0.5022  0.0950  0.4587
  190SLPC  H16R21987   7.701   3.505   6.613  0.2915  0.7119 -1.2987
  190SLPC  H16S21988   7.717   3.639   6.733 -1.1286  0.3811  1.6530
  190SLPC  C21721989   7.654   3.695   6.534 -0.1878  0.4400 -0.2752
  190SLPC  H17R21990   7.762   3.717   6.517  0.6658 -2.2051  1.0888
  190SLPC  H17S21991   7.605   3.782   6.583 -1.3816 -0.7984  0.8013
  190SLPC  C21821992   7.576   3.666   6.415  0.9273 -0.4122  1.0408
  190SLPC  H18R21993   7.597   3.569   6.365  0.1343  0.1669 -0.5008
  190SLPC  H18S21994   7.579   3.744   6.336  0.6892 -2.3015 -0.9552
  190SLPC  H18T21995   7.473   3.667   6.455  0.5406  0.5840  0.0589
  190SLPC   C3321996   7.066   3.627   6.405  0.6527  0.8032  0.3019
  190SLPC   H3X21997   7.049   3.726   6.357 -0.8908  0.7996  0.8010
  190SLPC   H3Y21998   7.169   3.609   6.442  1.6034  3.2897 -0.8916
  190SLPC   C3421999   6.979   3.611   6.533 -0.7420  0.0076  0.5427
  190SLPC   H4X22000   6.991   3.506   6.567 -2.9135 -0.4753 -0.0492
  190SLPC   H4Y22001   6.873   3.623   6.503 -0.6771 -1.6521 -0.4784
  190SLPC   C3522002   7.039   3.698   6.648  0.8646 -0.4981  0.3157
  190SLPC   H5X22003   7.025   3.801   6.608  1.3819 -1.0463 -1.3661
  190SLPC   H5Y22004   7.146   3.669   6.657  1.0279  0.4848  1.8255
  190SLPC   C3622005   6.962   3.687   6.779  0.4851 -0.2774 -0.0296
  190SLPC   H6X22006   6.977   3.590   6.831  0.5010 -0.3341 -0.1394
  190SLPC   H6Y22007   6.857   3.713   6.753  0.2741 -0.9955  0.0833
  190SLPC   C3722008   7.016   3.790   6.875  0.2692  0.0728  0.5382
  190SLPC   H7X22009   6.985   3.891   6.841 -1.1529 -0.3879  0.3908
  190SLPC   H7Y22010   7.127   3.794   6.874  0.2611  1.5861 -1.9592
  190SLPC   C3822011   6.967   3.785   7.018 -0.1488 -0.7382  1.0033
  190SLPC   H8X22012   7.006   3.693   7.065 -1.4495 -1.0155  1.5922
  190SLPC   H8Y22013   6.856   3.784   7.019 -0.5113  5.1467  1.3124
  190SLPC   C3922014   6.997   3.902   7.109 -0.2730 -0.3445  0.3575
  190SLPC   H9X22015   6.911   3.931   7.173 -0.0148  2.2219 -0.3332
  190SLPC   H9Y22016   7.029   3.994   7.054  2.2958 -1.6140 -0.4145
  190SLPC  C31022017   7.115   3.874   7.209 -0.0023 -0.1893  0.1269
  190SLPC  H10X22018   7.205   3.858   7.146  0.1611  1.7065 -0.1762
  190SLPC  H10Y22019   7.103   3.785   7.274  1.9501 -0.8770 -0.3910
  190SLPC  C31122020   7.151   3.998   7.294 -0.1947 -0.0401  0.2765
  190SLPC  H11X22021   7.062   4.022   7.355 -1.0156 -0.1015 -0.8688
  190SLPC  H11Y22022   7.167   4.096   7.244  0.2472  2.1141  4.1863
  190SLPC  C31222023   7.271   3.973   7.385 -0.1328 -0.9653 -0.0284
  190SLPC  H12X22024   7.352   3.915   7.336  0.3098  0.2738 -0.8177
  190SLPC  H12Y22025   7.232   3.906   7.464 -2.1923  0.7341  0.4758
  190SLPC  C31322026   7.326   4.113   7.429 -0.6509  0.1437 -0.1531
  190SLPC  H13X22027   7.252   4.165   7.493 -1.7489 -0.3116 -1.0071
  190SLPC  H13Y22028   7.338   4.174   7.337 -1.3070 -0.6067 -0.7644
  190SLPC  C31422029   7.458   4.110   7.495 -0.9270  0.1911 -0.8873
  190SLPC  H14X22030   7.443   4.063   7.595  0.3955 -0.4820 -0.9886
  190SLPC  H14Y22031   7.497   4.211   7.521  1.9896 -1.1086  0.2143
  190SLPC  C31522032   7.570   4.028   7.425  0.4949 -1.4208 -0.6710
  190SLPC  H15X22033   7.587   4.070   7.324  0.9752  1.5294  0.5037
  190SLPC  H15Y22034   7.536   3.924   7.410  0.9648 -1.5500 -0.8232
  190SLPC  C31622035   7.696   4.017   7.505 -0.1124 -0.2107  0.3644
  190SLPC  H16X22036   7.673   3.988   7.610 -2.3861  0.4774  0.0979
  190SLPC  H16Y22037   7.746   4.116   7.499  0.5990 -0.5698  0.2879
  190SLPC  C31722038   7.786   3.910   7.441 -0.4447  0.1073 -0.7962
  190SLPC  H17X22039   7.801   3.944   7.336  0.8982 -1.6149 -1.2042
  190SLPC  H17Y22040   7.734   3.813   7.424 -2.0121  1.0844 -1.8595
  190SLPC  C31822041   7.910   3.880   7.517 -0.9145  0.0203  0.0162
  190SLPC  H18X22042   7.950   3.982   7.535 -2.4249  0.8359 -0.9781
  190SLPC  H18Y22043   7.983   3.815   7.465 -1.6520 -1.6485  0.9731
  190SLPC  H18Z22044   7.892   3.831   7.615  2.3497 -4.2559 -1.2189
  191SLPC     N22045   0.716   7.216   5.560 -0.0252 -0.1213 -0.6892
  191SLPC   C1322046   0.696   7.334   5.473  0.0736  0.2825 -0.6306
  191SLPC  H13A22047   0.641   7.309   5.383  0.0941 -0.8077 -0.3559
  191SLPC  H13B22048   0.657   7.422   5.521  1.2855 -0.6850  2.3344
  191SLPC  H13C22049   0.793   7.365   5.435  1.1552  0.8721  2.3406
  191SLPC   C1422050   0.791   7.257   5.682 -0.1143  0.3981 -0.2404
  191SLPC  H14A22051   0.722   7.308   5.747  0.6797  0.5264  0.5193
  191SLPC  H14B22052   0.815   7.169   5.740  0.4315  0.8680  0.2406
  191SLPC  H14C22053   0.879   7.319   5.674 -1.1822  2.0720  0.5694
  191SLPC   C1522054   0.821   7.113   5.506 -0.5696 -0.4624  0.5498
  191SLPC  H15A22055   0.863   7.055   5.587 -0.1055  0.8420  1.2805
  191SLPC  H15B22056   0.772   7.035   5.450  0.7907 -1.1337  0.2350
  191SLPC  H15C22057   0.900   7.163   5.451  0.2480 -1.3063  0.9166
  191SLPC   C1222058   0.594   7.155   5.597 -0.2125  0.0281 -0.5892
  191SLPC  H12A22059   0.532   7.237   5.629 -1.3698 -0.7580 -0.7765
  191SLPC  H12B22060   0.613   7.080   5.672  2.8614  1.5921  0.3644
  191SLPC   C1122061   0.519   7.084   5.484 -0.1803 -0.5188 -0.0389
  191SLPC  H11A22062   0.578   7.008   5.429  2.5240  1.6502 -0.3319
  191SLPC  H11B22063   0.509   7.156   5.401  1.9802 -1.2103 -0.9699
  191SLPC     P22064   0.386   6.893   5.597 -0.3395  0.2218  0.3168
  191SLPC   O1322065   0.255   6.833   5.572 -0.0889 -0.0698  0.6256
  191SLPC   O1422066   0.505   6.811   5.561 -0.2177 -0.4556  0.4141
  191SLPC   O1222067   0.389   7.034   5.527 -0.3544  0.0567  0.2637
  191SLPC   O1122068   0.393   6.945   5.747 -0.7638 -0.0949  0.3366
  191SLPC    C122069   0.290   6.932   5.845  0.4910  0.1240 -0.3631
  191SLPC    HA22070   0.200   6.963   5.789 -1.0137 -2.1176  0.6664
  191SLPC    HB22071   0.268   6.826   5.871 -1.8663  0.1870 -1.8093
  191SLPC    C222072   0.313   7.015   5.972 -0.2124 -0.2833  0.1601
  191SLPC    HS22073   0.320   7.120   5.936  1.8013 -0.9271 -1.5263
  191SLPC   O2122074   0.442   6.974   6.030  0.2861  0.7327 -0.2562
  191SLPC   C2122075   0.492   7.065   6.107 -0.2848 -0.4650  0.3980
  191SLPC   O2222076   0.453   7.181   6.128 -0.1980 -0.0509 -0.3400
  191SLPC   C2222077   0.616   6.999   6.163  0.0196  0.4218  0.1198
  191SLPC   H2R22078   0.647   6.913   6.100  1.9514  1.6950 -0.7755
  191SLPC   H2S22079   0.696   7.076   6.157  0.2724  0.1796  0.3349
  191SLPC    C322080   0.191   7.003   6.069  0.1797 -0.0615  0.8033
  191SLPC    HX22081   0.095   7.033   6.022 -0.0070 -0.7847  0.7065
  191SLPC    HY22082   0.209   7.081   6.146 -0.6836  1.8835 -0.8691
  191SLPC   O3122083   0.184   6.874   6.127  0.7237  0.0617  0.4446
  191SLPC   C3122084   0.212   6.857   6.254  0.4247 -0.4815  0.8210
  191SLPC   O3222085   0.263   6.942   6.324 -0.7175 -0.1679 -0.2914
  191SLPC   C3222086   0.194   6.713   6.288  0.9074  0.8177 -0.1010
  191SLPC   H2X22087   0.283   6.675   6.344  0.2905  0.2898  0.5607
  191SLPC   H2Y22088   0.190   6.645   6.200 -3.1077 -0.5090  0.8854
  191SLPC   C2322089   0.601   6.957   6.313 -0.1539 -0.2551  0.2578
  191SLPC   H3R22090   0.506   6.900   6.315 -0.5765  0.3794 -0.8305
  191SLPC   H3S22091   0.583   7.050   6.371 -0.7853  0.1211 -0.5160
  191SLPC   C2422092   0.721   6.866   6.348 -0.0214 -0.2602 -0.1025
  191SLPC   H4R22093   0.812   6.928   6.333 -1.8666  1.9891 -3.2723
  191SLPC   H4S22094   0.726   6.783   6.275 -1.1255 -1.9192  1.6247
  191SLPC   C2522095   0.715   6.814   6.491 -0.3784  0.7333 -0.4248
  191SLPC   H5R22096   0.810   6.760   6.513 -0.8821 -0.3657 -0.8916
  191SLPC   H5S22097   0.627   6.748   6.504  0.7872 -0.6436  0.7451
  191SLPC   C2622098   0.716   6.917   6.600  0.0276 -0.7260  0.3007
  191SLPC   H6R22099   0.637   6.989   6.571 -1.1252 -2.1081 -0.1384
  191SLPC   H6S22100   0.817   6.963   6.600  0.1538 -0.9840  0.8512
  191SLPC   C2722101   0.683   6.867   6.746 -0.0390 -0.4924 -0.6746
  191SLPC   H7R22102   0.699   6.956   6.811  2.9374 -0.5666 -1.1733
  191SLPC   H7S22103   0.765   6.798   6.773  0.2255  0.3115  0.6618
  191SLPC   C2822104   0.551   6.790   6.754 -0.4444  0.2395 -0.0911
  191SLPC   H8R22105   0.555   6.705   6.682  0.2146  1.1757 -1.1890
  191SLPC   H8S22106   0.470   6.852   6.711 -0.8123 -0.0256  0.2113
  191SLPC   C2922107   0.525   6.754   6.897 -0.3460  0.7055  0.5362
  191SLPC   H9R22108   0.612   6.714   6.951 -0.6900 -1.4081 -0.4187
  191SLPC  C21022109   0.411   6.760   6.957  0.0121 -0.2603 -1.1132
  191SLPC  H10R22110   0.404   6.744   7.066 -0.4116  0.2632 -1.0595
  191SLPC  C21122111   0.280   6.793   6.901 -0.2083  0.6822  0.0379
  191SLPC  H11R22112   0.208   6.724   6.949  1.4778 -0.3331  1.1836
  191SLPC  H11S22113   0.276   6.772   6.792  2.2554  1.1047 -0.1910
  191SLPC  C21222114   0.228   6.933   6.919 -0.1195  0.1539  0.5518
  191SLPC  H12R22115   0.279   7.010   6.861 -2.6700  0.7609 -1.0544
  191SLPC  C21322116   0.135   6.982   6.998 -0.4050 -0.3368 -0.6217
  191SLPC  H13R22117   0.110   7.090   6.998  0.4861 -0.1228  0.2419
  191SLPC  C21422118   0.041   6.902   7.092 -0.0528 -0.5675  0.5071
  191SLPC  H14R22119   0.074   6.796   7.097  0.2607 -0.5176 -0.2849
  191SLPC  H14S22120  -0.059   6.890   7.046 -0.0335 -0.4077  0.4231
  191SLPC  C21522121   0.027   6.966   7.230 -0.2849 -0.8292  0.1984
  191SLPC  H15R22122  -0.048   7.048   7.216 -2.0653 -2.5836 -1.1344
  191SLPC  H15S22123   0.126   7.005   7.262 -0.2508 -0.8330  0.0988
  191SLPC  C21622124  -0.025   6.871   7.341  0.4018  0.4793 -0.1183
  191SLPC  H16R22125  -0.133   6.849   7.327  0.5572  0.2256 -0.9855
  191SLPC  H16S22126  -0.015   6.926   7.437 -1.1630  0.9344 -0.1834
  191SLPC  C21722127   0.040   6.732   7.345  0.2233 -0.2957 -0.2525
  191SLPC  H17R22128   0.150   6.740   7.339  0.1154  0.9001 -0.8204
  191SLPC  H17S22129   0.001   6.677   7.256 -0.5482  0.0204 -0.1197
  191SLPC  C21822130   0.019   6.655   7.477 -0.0923  0.4160  0.1646
  191SLPC  H18R22131   0.074   6.559   7.483  1.3122  1.2517  1.0651
  191SLPC  H18S22132  -0.088   6.635   7.497 -0.1954 -0.6639 -1.3374
  191SLPC  H18T22133   0.057   6.718   7.560  0.9371  0.0970 -0.0488
  191SLPC   C3322134   0.058   6.669   6.356 -0.0204 -0.0201 -0.1257
  191SLPC   H3X22135   0.055   6.560   6.331  0.3340  0.3499 -1.9661
  191SLPC   H3Y22136  -0.029   6.720   6.308 -0.8102  1.1525  2.4120
  191SLPC   C3422137   0.063   6.702   6.505 -0.2323  0.1957  0.0640
  191SLPC   H4X22138   0.086   6.811   6.512  0.1284  0.0863  0.5636
  191SLPC   H4Y22139   0.145   6.650   6.557 -0.9342  0.4063  1.4146
  191SLPC   C3522140  -0.065   6.669   6.586  0.8553 -0.2179 -0.0210
  191SLPC   H5X22141  -0.098   6.570   6.547 -1.8602  1.1278 -1.4527
  191SLPC   H5Y22142  -0.149   6.732   6.550  2.1133  2.0364  0.8008
  191SLPC   C3622143  -0.064   6.673   6.736 -0.2208  0.4602  0.1703
  191SLPC   H6X22144  -0.076   6.777   6.775 -0.6268  0.5011 -0.0563
  191SLPC   H6Y22145   0.040   6.637   6.751  0.0133 -0.5763 -3.0569
  191SLPC   C3722146  -0.168   6.584   6.802 -0.5905 -0.3200 -0.2083
  191SLPC   H7X22147  -0.136   6.481   6.775  0.5192  0.0436 -0.3205
  191SLPC   H7Y22148  -0.265   6.610   6.753 -1.0227 -2.8087 -0.8290
  191SLPC   C3822149  -0.183   6.606   6.955 -0.7266  0.3777  0.0371
  191SLPC   H8X22150  -0.171   6.713   6.981 -0.2282  0.6796 -1.3548
  191SLPC   H8Y22151  -0.087   6.561   6.987  0.7401  1.4489 -2.6432
  191SLPC   C3922152  -0.292   6.544   7.032 -0.6408  0.0788  0.2436
  191SLPC   H9X22153  -0.306   6.435   7.011  0.5316  0.0671 -0.5363
  191SLPC   H9Y22154  -0.380   6.606   7.003 -0.6626  0.6797  1.5290
  191SLPC  C31022155  -0.275   6.568   7.183  0.0609 -0.0508 -0.3872
  191SLPC  H10X22156  -0.276   6.677   7.207  1.3735 -0.2679  0.7967
  191SLPC  H10Y22157  -0.177   6.537   7.226 -0.1756  0.7299  0.7631
  191SLPC  C31122158  -0.375   6.500   7.271 -0.2886  0.3656  0.3173
  191SLPC  H11X22159  -0.380   6.391   7.252 -1.4486  0.7702 -2.2197
  191SLPC  H11Y22160  -0.474   6.534   7.234  0.3926  0.0617 -1.9299
  191SLPC  C31222161  -0.354   6.527   7.423  0.0454 -0.3061 -0.5249
  191SLPC  H12X22162  -0.253   6.482   7.436 -0.9452 -2.2879  0.8244
  191SLPC  H12Y22163  -0.427   6.462   7.476  0.4026  0.5763  1.0845
  191SLPC  C31322164  -0.367   6.674   7.457 -0.0733 -0.5424 -0.0404
  191SLPC  H13X22165  -0.298   6.734   7.393 -2.8296 -1.5400 -4.4341
  191SLPC  H13Y22166  -0.344   6.683   7.565  1.1473  0.0917 -0.3360
  191SLPC  C31422167  -0.498   6.745   7.424  0.1142  0.7376  0.3176
  191SLPC  H14X22168  -0.528   6.727   7.319 -0.0256  0.6531  0.3722
  191SLPC  H14Y22169  -0.488   6.856   7.426  1.2183  0.7202 -1.4541
  191SLPC  C31522170  -0.611   6.697   7.520 -0.1363 -0.4325 -0.4781
  191SLPC  H15X22171  -0.581   6.697   7.627 -1.8155 -0.1436  0.0284
  191SLPC  H15Y22172  -0.646   6.596   7.490  3.0997 -1.4340 -1.2067
  191SLPC  C31622173  -0.729   6.791   7.514  0.0003  0.3161 -0.6090
  191SLPC  H16X22174  -0.733   6.837   7.413 -0.9199  1.7640  0.0583
  191SLPC  H16Y22175  -0.725   6.867   7.595 -0.7345  0.2210 -0.4766
  191SLPC  C31722176  -0.865   6.722   7.540 -0.1019 -0.5115  0.1996
  191SLPC  H17X22177  -0.848   6.631   7.602 -1.0982 -0.2700  0.8506
  191SLPC  H17Y22178  -0.907   6.693   7.441  2.9222 -0.1368 -1.3305
  191SLPC  C31822179  -0.967   6.808   7.613  1.4443 -0.2024 -0.7804
  191SLPC  H18X22180  -0.993   6.903   7.561 -2.5032 -2.2020 -2.8408
  191SLPC  H18Y22181  -0.931   6.842   7.712 -0.8662  1.3377 -0.4063
  191SLPC  H18Z22182  -1.061   6.751   7.624  1.9171 -0.7147  0.9405
  192SLPC     N22183   6.268   6.936   5.090 -0.0922 -0.3142 -0.1242
  192SLPC   C1322184   6.231   6.795   5.074 -0.1717 -0.2753 -0.3468
  192SLPC  H13A22185   6.298   6.738   5.011 -1.6098 -1.9260 -0.4574
  192SLPC  H13B22186   6.237   6.741   5.167  2.1379  0.1062 -0.2131
  192SLPC  H13C22187   6.133   6.766   5.038 -0.0666 -1.1401  0.0517
  192SLPC   C1422188   6.151   7.002   5.172 -0.0357 -0.2054  1.0183
  192SLPC  H14A22189   6.170   7.108   5.159 -0.6609  0.0888  2.3337
  192SLPC  H14B22190   6.055   6.972   5.132  1.1559 -1.5145 -1.0306
  192SLPC  H14C22191   6.163   6.982   5.278  3.5764  0.7706  0.9322
  192SLPC   C1522192   6.277   6.992   4.955 -1.4213  0.4545  0.4207
  192SLPC  H15A22193   6.349   6.942   4.893 -1.3125  0.0526  0.8620
  192SLPC  H15B22194   6.185   6.988   4.898 -1.5355  1.7591  0.4961
  192SLPC  H15C22195   6.310   7.094   4.951  0.3685 -0.1004  0.2880
  192SLPC   C1222196   6.406   6.945   5.163  0.5989  0.5998  0.6166
  192SLPC  H12A22197   6.436   7.049   5.168  0.0901  0.7294  1.0215
  192SLPC  H12B22198   6.483   6.900   5.103 -1.5767 -0.8166 -1.2599
  192SLPC   C1122199   6.412   6.880   5.298  0.4682 -0.1262 -0.0397
  192SLPC  H11A22200   6.320   6.901   5.357 -0.6817  0.4754 -1.9429
  192SLPC  H11B22201   6.505   6.920   5.344  2.0727 -3.7194  0.1366
  192SLPC     P22202   6.381   6.630   5.361 -0.3028  0.6140 -0.3022
  192SLPC   O1322203   6.241   6.647   5.361  0.4597 -0.1724 -0.1718
  192SLPC   O1422204   6.431   6.502   5.306 -0.3510 -0.5528 -0.3545
  192SLPC   O1222205   6.434   6.743   5.273  0.1521 -0.1569 -0.2891
  192SLPC   O1122206   6.437   6.651   5.506 -0.2212 -0.3358  0.1969
  192SLPC    C122207   6.348   6.682   5.612  0.6953 -0.2031 -0.0639
  192SLPC    HA22208   6.292   6.775   5.590  0.1411 -0.1879  1.2810
  192SLPC    HB22209   6.271   6.603   5.624  0.4731  0.3045  2.3639
  192SLPC    C222210   6.411   6.691   5.747 -0.3934  0.1466  0.3229
  192SLPC    HS22211   6.485   6.773   5.752  0.6411 -0.7202 -0.2828
  192SLPC   O2122212   6.456   6.563   5.780 -0.4287  0.3381  0.6907
  192SLPC   C2122213   6.583   6.553   5.807 -0.8514 -0.1822 -0.6443
  192SLPC   O2222214   6.666   6.642   5.809 -0.0878  0.3509 -0.0941
  192SLPC   C2222215   6.614   6.413   5.849  1.0828  0.2010  0.3185
  192SLPC   H2R22216   6.516   6.363   5.859  0.2114  1.5160 -1.1905
  192SLPC   H2S22217   6.674   6.367   5.767 -0.3770  3.1994 -2.6767
  192SLPC    C322218   6.299   6.726   5.853 -0.4429 -0.3941  1.5304
  192SLPC    HX22219   6.218   6.650   5.847  1.1405 -2.1056  0.8185
  192SLPC    HY22220   6.247   6.823   5.835 -0.5906 -0.3520  2.1457
  192SLPC   O3122221   6.339   6.712   5.990 -0.6188 -0.2956  0.7511
  192SLPC   C3122222   6.369   6.818   6.063  0.1463  0.1736  0.1629
  192SLPC   O3222223   6.393   6.929   6.022 -0.1841 -0.2588 -0.1470
  192SLPC   C3222224   6.360   6.777   6.212  0.5222  0.5085  0.3527
  192SLPC   H2X22225   6.402   6.674   6.210 -1.8542 -0.5642  1.4927
  192SLPC   H2Y22226   6.260   6.798   6.256 -0.4487 -1.1383 -0.9396
  192SLPC   C2322227   6.695   6.406   5.980 -0.0514  0.1336 -0.3312
  192SLPC   H3R22228   6.786   6.470   5.987 -0.3984  0.4605  2.5373
  192SLPC   H3S22229   6.715   6.298   5.992  2.3641  0.5285 -0.2622
  192SLPC   C2422230   6.609   6.459   6.095  0.4290  0.7866  0.1754
  192SLPC   H4R22231   6.502   6.431   6.098 -0.2984  3.3501  0.7311
  192SLPC   H4S22232   6.602   6.569   6.078 -1.8333  0.7414  0.4809
  192SLPC   C2522233   6.680   6.420   6.225 -0.8596 -0.2017  0.0150
  192SLPC   H5R22234   6.781   6.465   6.232 -1.5248  1.1655  1.3656
  192SLPC   H5S22235   6.703   6.311   6.217 -0.5877 -0.0739 -1.1364
  192SLPC   C2622236   6.589   6.443   6.352 -0.0231 -0.1116  0.5959
  192SLPC   H6R22237   6.488   6.401   6.331 -0.1202  0.6668 -0.6196
  192SLPC   H6S22238   6.583   6.553   6.363  3.0940  0.2935 -0.6996
  192SLPC   C2722239   6.652   6.384   6.479 -0.2550  0.0520 -0.1588
  192SLPC   H7R22240   6.746   6.441   6.494 -0.8350  0.6554  1.3026
  192SLPC   H7S22241   6.686   6.282   6.451 -0.6567  0.5038 -2.5270
  192SLPC   C2822242   6.557   6.391   6.600  0.2664  0.1024 -0.2980
  192SLPC   H8R22243   6.476   6.315   6.596 -1.2740  1.7263 -1.1673
  192SLPC   H8S22244   6.512   6.493   6.600  3.0343  1.4320  1.0079
  192SLPC   C2922245   6.628   6.366   6.729 -0.0499 -0.4508  0.1274
  192SLPC   H9R22246   6.706   6.291   6.711  2.0676  1.8062 -0.7580
  192SLPC  C21022247   6.614   6.432   6.846 -0.8861  0.0314 -0.0159
  192SLPC  H10R22248   6.680   6.399   6.928 -0.5079  0.4377 -0.1523
  192SLPC  C21122249   6.517   6.547   6.868  0.0508  0.6243  0.1082
  192SLPC  H11R22250   6.412   6.511   6.879  0.4698 -0.8614 -0.5465
  192SLPC  H11S22251   6.508   6.616   6.782  0.0433 -0.6594 -0.9537
  192SLPC  C21222252   6.560   6.615   6.995 -0.4569  0.5078  0.7643
  192SLPC  H12R22253   6.633   6.695   6.979  1.2867 -0.8022  1.7092
  192SLPC  C21322254   6.524   6.584   7.129 -0.3055 -0.2275  1.0259
  192SLPC  H13R22255   6.573   6.639   7.210  1.8534  0.4959 -0.6589
  192SLPC  C21422256   6.437   6.472   7.174 -0.7368  0.2807  0.2250
  192SLPC  H14R22257   6.401   6.415   7.085 -0.6275  0.0516  0.3253
  192SLPC  H14S22258   6.349   6.511   7.229 -0.9499  0.9539 -0.5848
  192SLPC  C21522259   6.509   6.365   7.266  0.7052 -0.2384 -0.2384
  192SLPC  H15R22260   6.569   6.410   7.348  1.3439 -1.2204 -0.1572
  192SLPC  H15S22261   6.591   6.317   7.208  2.4964  1.1320  1.0496
  192SLPC  C21622262   6.422   6.258   7.326  0.7500 -0.2301  0.4795
  192SLPC  H16R22263   6.358   6.223   7.242  1.0117 -1.3446  0.7303
  192SLPC  H16S22264   6.346   6.298   7.396  0.2892 -0.0136 -0.1371
  192SLPC  C21722265   6.498   6.144   7.394 -0.3007  0.1756  0.3646
  192SLPC  H17R22266   6.601   6.184   7.407 -0.1977 -0.1544  0.5558
  192SLPC  H17S22267   6.455   6.133   7.495 -0.1390 -2.0913  0.2338
  192SLPC  C21822268   6.497   6.015   7.320  0.3267  0.0020 -0.4209
  192SLPC  H18R22269   6.395   5.997   7.282  0.2659  0.1988 -0.3559
  192SLPC  H18S22270   6.532   5.928   7.379 -1.1542 -0.1842  0.2352
  192SLPC  H18T22271   6.553   6.021   7.224 -0.0189 -0.1628 -0.6327
  192SLPC   C3322272   6.457   6.844   6.307 -0.5523  0.4708 -0.0502
  192SLPC   H3X22273   6.444   6.953   6.290  0.3704  0.3776 -1.5825
  192SLPC   H3Y22274   6.561   6.819   6.275 -1.5123 -2.5992 -1.2149
  192SLPC   C3422275   6.435   6.819   6.451  0.4439  0.0932 -0.1916
  192SLPC   H4X22276   6.443   6.715   6.490  1.9125  0.6063  0.9800
  192SLPC   H4Y22277   6.332   6.837   6.489 -0.3989 -2.2032 -1.2265
  192SLPC   C3522278   6.528   6.898   6.549 -0.0554 -0.1423  0.7012
  192SLPC   H5X22279   6.491   6.912   6.653 -0.8093  0.1551  0.3996
  192SLPC   H5Y22280   6.535   7.000   6.505 -1.1781  0.1146  1.0773
  192SLPC   C3622281   6.661   6.829   6.573 -0.4969  0.1988 -0.9278
  192SLPC   H6X22282   6.693   6.773   6.482  0.2277  0.3359 -0.7624
  192SLPC   H6Y22283   6.655   6.755   6.656 -0.1783  1.1942  0.0038
  192SLPC   C3722284   6.780   6.925   6.581 -0.2712 -1.1423 -0.9148
  192SLPC   H7X22285   6.786   6.995   6.495  0.0388  1.1956  0.8912
  192SLPC   H7Y22286   6.877   6.871   6.579  0.0696 -0.6123  0.2272
  192SLPC   C3822287   6.779   7.015   6.704 -0.1840  0.0716 -0.3765
  192SLPC   H8X22288   6.782   6.949   6.793  1.8499  0.3768 -0.1689
  192SLPC   H8Y22289   6.689   7.081   6.701  0.6306  1.1877 -2.3172
  192SLPC   C3922290   6.907   7.104   6.711  0.2076 -0.2608 -0.1358
  192SLPC   H9X22291   6.914   7.166   6.620  1.9523  0.1435  0.2328
  192SLPC   H9Y22292   6.995   7.038   6.729 -0.2722 -0.8125  0.2170
  192SLPC  C31022293   6.900   7.208   6.827  0.4471 -0.1408  0.8862
  192SLPC  H10X22294   6.809   7.272   6.822  0.4912 -0.1481 -0.4386
  192SLPC  H10Y22295   6.989   7.274   6.817  0.6373 -0.6866 -1.7506
  192SLPC  C31122296   6.916   7.143   6.967 -0.1909  0.7385 -0.3315
  192SLPC  H11X22297   7.020   7.104   6.971 -0.2952  0.3912 -0.8496
  192SLPC  H11Y22298   6.836   7.068   6.985 -0.9821  1.5827 -0.2155
  192SLPC  C31222299   6.902   7.241   7.083  0.8271  0.1419  0.0790
  192SLPC  H12X22300   6.801   7.284   7.068  0.3678 -0.8884  0.1404
  192SLPC  H12Y22301   6.966   7.332   7.082 -1.0544  1.5960 -3.0426
  192SLPC  C31322302   6.901   7.173   7.222  0.1384 -0.6549 -0.3638
  192SLPC  H13X22303   7.003   7.188   7.264 -0.3728 -0.1590  0.7223
  192SLPC  H13Y22304   6.888   7.063   7.216  0.6887 -0.8592  1.5579
  192SLPC  C31422305   6.786   7.219   7.311 -0.2343 -0.5709 -0.4026
  192SLPC  H14X22306   6.801   7.171   7.411 -2.1783  0.4909  0.4454
  192SLPC  H14Y22307   6.688   7.172   7.286 -1.0308  0.7961  0.0417
  192SLPC  C31522308   6.805   7.370   7.354  0.6159  0.0995  0.2453
  192SLPC  H15X22309   6.719   7.397   7.419 -1.7779 -0.6281 -2.4399
  192SLPC  H15Y22310   6.800   7.435   7.264 -1.2011 -0.2943  0.0130
  192SLPC  C31622311   6.931   7.402   7.431 -0.6454  0.1623 -0.5149
  192SLPC  H16X22312   7.017   7.370   7.368  0.5415 -1.0392  1.6128
  192SLPC  H16Y22313   6.935   7.341   7.524 -1.9238  1.5528  0.5007
  192SLPC  C31722314   6.937   7.554   7.466  0.0805  0.0975  0.1323
  192SLPC  H17X22315   6.848   7.595   7.519 -0.8144 -2.2280  0.5766
  192SLPC  H17Y22316   6.942   7.602   7.366  1.1347 -2.5442 -1.1793
  192SLPC  C31822317   7.073   7.583   7.541  0.3937 -0.3519 -0.0604
  192SLPC  H18X22318   7.164   7.559   7.482  1.3013 -0.1315  1.2088
  192SLPC  H18Y22319   7.069   7.519   7.631 -2.4929 -1.1134 -0.6221
  192SLPC  H18Z22320   7.076   7.685   7.585 -0.3492 -1.6846  3.4214
  193SOD    SOD22321   6.683   4.992  15.150 -0.7442  0.1082 -0.3051
  194SOD    SOD22322   6.744   2.780  12.175 -0.3044 -0.0590 -0.6127
  195SOD    SOD22323   4.254   0.757  10.742  0.5621 -0.0920 -0.6344
  196SOD    SOD22324   4.941   4.027  11.005 -0.3119  0.6222 -0.3236
  197SOD    SOD22325   1.670   4.159   4.866 -0.2320  0.1123  0.6714
  198SOD    SOD22326   4.283   1.928   0.150  0.0806  0.1850  0.0876
  199SOD    SOD22327   6.904   6.698   5.428 -0.1756 -0.0068 -0.1746
  200SOD    SOD22328   6.829   6.619   3.909 -0.0827  0.1013  0.4333
  201SOD    SOD22329   2.968   7.151   0.873 -0.1785  0.2328 -0.0477
  202SOD    SOD22330   4.433   1.322   5.101 -0.4986  0.2220  0.0440
  203SOD    SOD22331   1.503   5.034  10.292 -0.3768  0.3290  0.0101
  204SOD    SOD22332   0.024   3.783   3.259  0.0842 -0.2446  0.4301
  205SOD    SOD22333   2.473   5.038   4.812 -0.0750 -0.4675  0.0278
  206SOD    SOD22334   5.971   2.095   1.662 -0.2033 -0.2241  0.2369
  207SOD    SOD22335   4.130   5.580   1.383  0.1470  0.5806  0.1271
  208SOD    SOD22336   6.751   5.221  12.043 -0.2854  0.0261 -0.3489
  209SOD    SOD22337   2.838   1.852   1.671 -0.3273 -0.3611 -0.0266
  210SOD    SOD22338   4.840   6.691  14.531 -0.1433  0.1902 -0.0217
  211SOD    SOD22339   2.011   6.737  11.120 -0.1492  0.2947 -0.3722
  212SOD    SOD22340   3.913   7.101   2.547  0.2424  0.0563  0.2677
  213SOD    SOD22341   2.944   6.399  14.616 -0.0591 -0.0677  0.4007
  214SOD    SOD22342   3.191   5.854  11.544  0.4351  0.3574 -0.4292
  215SOD    SOD22343   7.145   0.187  13.571 -0.5665 -0.8794 -0.5511
  216SOD    SOD22344   6.605   4.743   5.419 -0.4285 -0.1710  0.8060
  217SOD    SOD22345   3.051   5.530  11.075  0.1574 -0.3150  0.3063
  218SOD    SOD22346   0.709   6.674  15.275 -0.4450  0.3872  0.3998
  219SOD    SOD22347   2.198   0.425   3.903  0.2744 -0.3882 -0.3198
  220SOD    SOD22348   6.193   0.032   3.192 -0.2876 -0.5754 -0.3559
  221SOD    SOD22349   4.304   4.201   4.931  0.1551  0.2977  0.6306
  222SOD    SOD22350   3.623   5.137  10.248 -0.1980 -0.3042 -0.4645
  223SOD    SOD22351   5.916   5.368   3.982  0.6135 -0.1179 -0.1769
  224SOD    SOD22352   4.796   1.569  11.927  0.5561  0.6526  0.1791
  225SOD    SOD22353   3.736   5.095   2.160  0.2607  0.1140 -0.4906
  226SOD    SOD22354   3.764   7.015   5.004  0.0709 -0.3832 -0.1686
  227SOD    SOD22355   3.866   5.784   0.550 -0.0459  0.5676 -0.5371
  228SOD    SOD22356   7.031   4.494  11.769  0.0848  0.4734  0.1741
  229SOD    SOD22357   1.988   5.374  10.257  0.2204  0.1302 -0.1213
  230SOD    SOD22358   6.170   3.206   5.113  0.1309  0.3634  0.1757
  231SOD    SOD22359   0.009   4.272   1.003  0.1251  0.0690  0.0611
  232SOD    SOD22360   3.727   5.564   4.380  0.2773 -0.4974  0.3262
  233SOD    SOD22361   5.414   0.151   5.676  0.8126 -0.4271 -0.5306
  234SOD    SOD22362   6.979   6.712   0.924 -0.1007 -0.0914 -0.4523
  235SOD    SOD22363   7.224   4.159   1.754 -0.0271 -0.3089 -0.1739
  236SOD    SOD22364   5.351   1.707   0.266 -0.3091  0.2776  0.2525
  237SOD    SOD22365   0.780   6.512  10.739 -0.0504  0.1464 -0.3409
  238SOD    SOD22366   2.062   2.920   5.441 -0.1679  0.2864  0.1308
  239SOD    SOD22367   6.265   2.127  11.038 -0.0553 -0.1571  0.5518
  240SOD    SOD22368   0.524   2.124  10.431 -0.0129  0.0531 -0.5151
  241SOD    SOD22369   1.745   6.149   5.473 -0.3622 -0.2018  0.0350
  242SOD    SOD22370   0.012   2.310   1.832  0.0035 -0.2739  0.3068
  243SOD    SOD22371   4.905   1.558   2.761 -0.0119 -0.3865  0.1174
  244SOD    SOD22372   6.229   0.209   0.425 -0.2251  0.2491  0.0837
  245SOD    SOD22373   5.067   3.373  12.609  0.1201 -0.4108 -0.1332
  246SOD    SOD22374   5.907   5.207  14.977  0.5052 -0.0396 -0.0537
  247SOD    SOD22375   2.215   1.795  12.647 -0.1064 -0.2910  0.1843
  248SOD    SOD22376   0.067   0.556   4.892  0.1273  0.4024 -0.2260
  249SOD    SOD22377   3.162   6.684  12.640 -0.0681  0.1343 -0.2288
  250SOD    SOD22378   2.159   2.199   2.310  0.2975  0.1737  0.1775
  251SOD    SOD22379   5.026   0.182   9.846  0.4186  0.0074 -0.0794
  252SOD    SOD22380   2.903   6.724   9.671  0.1984 -0.0379  0.3498
  253SOD    SOD22381   5.140   4.496   9.731 -0.2064  0.0432 -0.0474
  254SOD    SOD22382   6.611   4.704  10.048  0.1820  0.4895 -0.3406
  255SOD    SOD22383   7.134   5.643   0.821  0.5779 -0.1827 -0.1126
  256SOD    SOD22384   6.041   0.101   5.582  0.1054 -0.1578 -0.1484
  257SOD    SOD22385   3.400   4.322  11.411  0.2357  0.1713 -0.0004
  258SOD    SOD22386   4.615   5.534   5.377 -0.1547 -0.3752  0.5234
  259SOD    SOD22387   0.372   3.500   9.929 -0.6929 -0.4544 -0.2643
  260SOD    SOD22388   1.104   5.999   0.787  0.1333 -0.4428  0.0731
  261SOD    SOD22389   5.999   5.344  12.857  0.6512  0.1120  0.0507
  262SOD    SOD22390   0.119   0.816   1.966 -0.1834 -0.5995 -0.3484
  263SOD    SOD22391   1.717   4.921  12.761 -0.2045  0.2921  0.5417
  264SOD    SOD22392   5.477   0.907   0.027 -0.2481 -0.0356  0.0313
  265SOD    SOD22393   5.274   0.581  11.812  0.2504  0.0358  0.1812
  266CLA    CLA22394   4.893   2.226   0.199  0.2540 -0.4126 -0.3902
  267CLA    CLA22395   0.024   0.010   1.861  0.4219 -0.2074 -0.4332
  268CLA    CLA22396   2.672   0.740  11.289 -0.0323 -0.2200 -0.0259
  269CLA    CLA22397   2.770   1.060   3.318 -0.5179 -0.2565 -0.1290
  270CLA    CLA22398   1.588   6.263   4.379 -0.1408 -0.1949 -0.0653
  271CLA    CLA22399   5.879   1.085   1.813  0.2725  0.4537  0.6212
  272CLA    CLA22400   6.483   4.885  13.072 -0.0329  0.0698  0.0882
  273CLA    CLA22401   4.100   4.211   4.517 -0.0189  0.0030  0.6191
  274CLA    CLA22402   1.887   5.856   2.245 -0.1297  0.0203 -0.2337
  275CLA    CLA22403   6.812   1.775   3.239  0.1403  0.0938  0.4528
  276CLA    CLA22404   0.100   4.708  13.081  0.1788  0.4431 -0.4358
  277CLA    CLA22405   6.438   6.709  13.930 -0.2215 -0.1715 -0.5621
  278CLA    CLA22406   6.877   3.504  10.734  0.1600  0.0710 -0.2117
  279CLA    CLA22407   5.166   3.005  12.248  0.2203  0.3091 -0.2030
  280CLA    CLA22408   6.014   2.882  13.523 -0.1211  0.2146  0.4093
  281CLA    CLA22409   5.067   1.570  11.841 -0.0110  0.1344 -0.0999
  282CLA    CLA22410   5.901   6.343   1.360 -0.4418  0.0372  0.3587
  283CLA    CLA22411   0.424   4.192   2.695 -0.0101 -0.1812  0.0266
  284CLA    CLA22412   4.717   7.243  10.160  0.4878 -0.1387  0.1037
  285CLA    CLA22413   7.000   1.024   4.049 -0.3570  0.2741 -0.2038
  286CLA    CLA22414   5.717   4.340  14.320 -0.3123 -0.4151  0.4237
  287CLA    CLA22415   3.586   6.279  12.687  0.2760 -0.2411  0.4497
  288CLA    CLA22416   2.124   2.222  11.330  0.0563 -0.1596  0.2444
  289CLA    CLA22417   5.454   5.045   1.238  0.4650 -0.0489  0.3312
  290CLA    CLA22418   1.101   4.257   3.847 -0.2824 -0.0321 -0.0802
  291CLA    CLA22419   2.868   4.717  11.314 -0.1217 -0.2215  0.0353
  292CLA    CLA22420   4.775   5.639   2.002 -0.0818  0.4179 -0.0051
  293CLA    CLA22421   6.800   2.327   1.338 -0.5813 -0.1781 -0.3280
  294CLA    CLA22422   0.509   3.694  13.833  0.0793  0.0751 -0.2013
  295CLA    CLA22423   3.509   6.868   2.845 -0.0349  0.1840 -0.3069
  296CLA    CLA22424   3.179   6.710   0.986  0.2776  0.1792 -0.0014
  297CLA    CLA22425   3.268   2.261  14.256 -0.3931 -0.0874  0.0762
  298CLA    CLA22426   1.185   2.962   4.507  0.1965 -0.5175 -0.0405
  299CLA    CLA22427   5.951   2.133   0.022 -0.0905 -0.2575  0.0331
  300CLA    CLA22428   3.515   6.908  15.062 -0.2447 -0.0762 -0.0995
  301CLA    CLA22429   1.360   0.071  13.703  0.3520 -0.0036  0.2941
  302CLA    CLA22430   6.447   0.043   5.094  0.0394 -0.4420  0.0739
  303CLA    CLA22431   6.489   2.822   1.650 -0.1057  0.2033  0.1410
  304CLA    CLA22432   3.486   1.200   2.532 -0.4889  0.2058  0.0747
  305CLA    CLA22433   6.258   4.050   0.881  0.0482  0.0166  0.3400
  306CLA    CLA22434   1.614   3.871  12.399  0.2550 -0.1039  0.1163
  307CLA    CLA22435   6.937   1.169   2.752 -0.4942  0.3310  0.1780
  308CLA    CLA22436   5.845   5.657  12.431  0.3328 -0.1407 -0.1250
  309CLA    CLA22437   4.959   6.791  10.396 -0.3309  0.3260 -0.0418
  310CLA    CLA22438   2.037   1.177   3.507 -0.3081 -0.1691 -0.2142
  311CLA    CLA22439   1.320   4.773   2.405  0.4048 -0.0456  0.2537
  312CLA    CLA22440   5.501   4.696   3.448 -0.3457 -0.3924  0.0568
  313CLA    CLA22441   3.002   2.269  11.809  0.0061 -0.0156  0.0809
  314CLA    CLA22442   2.206   5.037  10.478 -0.1342 -0.1114  0.1342
  315CLA    CLA22443   2.572   7.081  14.834 -0.1026 -0.2811  0.5774
  316CLA    CLA22444   3.391   3.626   1.986 -0.0195  0.3133  0.1592
  317CLA    CLA22445   3.029   5.249  13.479  0.3491  0.1629 -0.1603
  318CLA    CLA22446   3.176   2.243   0.134 -0.1203 -0.0454 -0.1696
  319TIP3   OH222447   0.248   5.662   1.440 -0.0504 -0.1078  0.0860
  319TIP3    H122448   0.255   5.567   1.449  0.4599 -0.1899 -0.9290
  319TIP3    H222449   0.324   5.686   1.385 -1.8383  0.4620 -2.3167
  320TIP3   OH222450   1.586   4.057  15.123  0.2970 -0.4677  0.1382
  320TIP3    H122451   1.654   4.111  15.083  0.0189 -0.3961 -0.2499
  320TIP3    H222452   1.621   3.968  15.118  0.7452 -0.3333  0.7567
  321TIP3   OH222453   5.715   0.134   0.382  0.3328  0.3524 -0.5972
  321TIP3    H122454   5.754   0.221   0.380 -0.1330  0.5752 -0.1970
  321TIP3    H222455   5.756   0.088   0.309  1.6411  0.4445  0.0391
  322TIP3   OH222456   0.498   2.114  11.691  0.1927  0.3018 -0.5075
  322TIP3    H122457   0.414   2.147  11.659 -0.8497  0.5798  2.2146
  322TIP3    H222458   0.562   2.179  11.663 -0.7633  0.9806 -1.1972
  323TIP3   OH222459   5.550   2.923  14.369 -0.7393  0.2840  0.2603
  323TIP3    H122460   5.484   2.974  14.418 -2.6178 -0.6660 -1.1456
  323TIP3    H222461   5.498   2.859  14.319  1.3591 -1.2642 -0.0567
  324TIP3   OH222462   6.853   1.755  11.760 -0.3160  0.4534  0.0630
  324TIP3    H122463   6.939   1.721  11.736 -0.9323 -0.8224 -0.4536
  324TIP3    H222464   6.831   1.816  11.689 -0.0059  0.4665 -0.0212
  325TIP3   OH222465   3.406   2.163   1.887 -0.0310 -0.4875 -0.1327
  325TIP3    H122466   3.496   2.172   1.919 -0.5309  0.6071  1.0640
  325TIP3    H222467   3.365   2.105   1.951 -0.4980  0.0289  0.0398
  326TIP3   OH222468   0.900   0.148   9.939  0.0047 -0.5869 -0.2803
  326TIP3    H122469   0.880   0.119   9.850 -0.6072 -2.6587  0.4692
  326TIP3    H222470   0.827   0.114   9.992  2.2183 -2.7700  1.5740
  327TIP3   OH222471   0.927   0.778   9.283 -0.6390  0.2643  0.0049
  327TIP3    H122472   0.997   0.828   9.239 -0.5729 -1.4415 -1.9702
  327TIP3    H222473   0.959   0.765   9.372  0.2721  1.9004 -0.0378
  328TIP3   OH222474   3.353   1.725  14.521  0.1995 -0.1596 -0.2966
  328TIP3    H122475   3.354   1.778  14.441 -1.3387 -0.6651 -0.6820
  328TIP3    H222476   3.439   1.683  14.523  1.3195  1.9901 -0.1940
  329TIP3   OH222477   3.890   3.177  12.022 -0.4421 -0.1657  0.8085
  329TIP3    H122478   3.841   3.164  11.941 -1.1862  0.8458  1.0799
  329TIP3    H222479   3.883   3.271  12.040  1.1809 -0.0711  1.1267
  330TIP3   OH222480   4.930   4.501  10.912 -0.1326  1.0094 -0.1592
  330TIP3    H122481   5.011   4.546  10.890  0.3256  0.0824 -0.4108
  330TIP3    H222482   4.861   4.564  10.888  0.4967  1.8197  0.1015
  331TIP3   OH222483   0.971   0.109   1.352  0.3254 -0.1926 -0.6763
  331TIP3    H122484   0.888   0.102   1.303  0.0181  0.6465 -0.2972
  331TIP3    H222485   1.029   0.046   1.310 -0.4218 -0.5899 -1.1334
  332TIP3   OH222486   1.304   5.827  11.624 -0.0934 -0.1567 -0.0782
  332TIP3    H122487   1.235   5.894  11.625  1.0394  1.0272  0.6071
  332TIP3    H222488   1.306   5.793  11.713  1.6901  1.3952  0.5085
  333TIP3   OH222489   4.758   4.391   2.683 -0.4087 -0.3740 -0.2917
  333TIP3    H122490   4.777   4.473   2.637 -2.2610  0.3326  0.1068
  333TIP3    H222491   4.705   4.418   2.758  1.7917 -1.6061  1.8152
  334TIP3   OH222492   4.111   5.772  11.618  0.1117 -0.8619  0.3535
  334TIP3    H122493   4.171   5.793  11.547  0.8713 -1.1913  0.8890
  334TIP3    H222494   4.132   5.682  11.642 -1.5432 -1.4912 -0.3755
  335TIP3   OH222495   4.780   5.613  10.554  0.4103 -0.0520 -0.0997
  335TIP3    H122496   4.870   5.584  10.539 -0.4699 -3.9583  1.0167
  335TIP3    H222497   4.789   5.701  10.591  3.6353  0.2396 -1.2225
  336TIP3   OH222498   4.339   7.163   9.965  0.2908  0.7471  0.0629
  336TIP3    H122499   4.405   7.121  10.020 -0.4372 -0.0634  0.3551
  336TIP3    H222500   4.261   7.166  10.020 -0.0411  1.2754 -0.4298
  337TIP3   OH222501   2.052   0.313  11.805  0.3953 -0.3733  0.5079
  337TIP3    H122502   2.029   0.340  11.893 -1.7977  0.5516 -0.2886
  337TIP3    H222503   2.124   0.372  11.780  0.6922 -0.3133  1.4784
  338TIP3   OH222504   7.224   2.824  15.234 -0.6056 -0.9838 -0.1980
  338TIP3    H122505   7.247   2.898  15.177  0.0124 -0.2022  1.0297
  338TIP3    H222506   7.292   2.759  15.217 -0.1772 -0.5804 -0.0370
  339TIP3   OH222507   2.586   0.639  14.120  0.0153 -0.0668 -0.0275
  339TIP3    H122508   2.551   0.696  14.189 -1.6236  1.7314 -2.2027
  339TIP3    H222509   2.527   0.565  14.118 -0.8680  0.6364 -0.5051
  340TIP3   OH222510   4.572   5.867  14.329 -0.2043  0.1374 -0.1248
  340TIP3    H122511   4.553   5.904  14.243 -0.8039 -1.9935 -0.9808
  340TIP3    H222512   4.524   5.783  14.330 -0.9348  0.4845  2.6197
  341TIP3   OH222513   2.058   3.626  15.282 -0.0709 -0.5402  0.0587
  341TIP3    H122514   2.120   3.648  15.352 -0.7776 -1.9036  1.1487
  341TIP3    H222515   2.072   3.533  15.266 -1.5000 -0.7679  0.0004
  342TIP3   OH222516   0.597   5.717  10.862 -0.0019  0.5980  0.1530
  342TIP3    H122517   0.618   5.656  10.792 -0.4505  1.0259 -0.3654
  342TIP3    H222518   0.551   5.789  10.818 -2.2053 -0.1034  1.1742
  343TIP3   OH222519   1.841   6.881  14.596  0.0748 -0.5409  0.0297
  343TIP3    H122520   1.750   6.910  14.599  0.4967  1.2004 -1.9443
  343TIP3    H222521   1.861   6.858  14.687 -1.6085  1.3643  0.9735
  344TIP3   OH222522   1.266   2.671   9.286  0.1567  0.2094 -0.2753
  344TIP3    H122523   1.258   2.618   9.206 -2.1600 -0.5679  0.3757
  344TIP3    H222524   1.297   2.609   9.352 -0.4127  0.1899 -0.0178
  345TIP3   OH222525   5.632   2.020   1.992 -0.1997 -0.6587  0.7299
  345TIP3    H122526   5.694   2.033   1.920 -0.2529  0.5406  0.8793
  345TIP3    H222527   5.682   2.042   2.071 -0.2445 -1.6292  1.0417
  346TIP3   OH222528   3.848   1.122  12.117  0.6442  0.0207  0.7405
  346TIP3    H122529   3.815   1.130  12.027 -3.3719  1.9420  2.1685
  346TIP3    H222530   3.832   1.031  12.140 -1.7238  0.3450  0.5866
  347TIP3   OH222531   4.788   2.256   9.884 -0.4506  0.0438 -0.4052
  347TIP3    H122532   4.700   2.282   9.909  0.4095  1.6779  1.1779
  347TIP3    H222533   4.809   2.310   9.808 -0.7452 -0.2309 -0.6831
  348TIP3   OH222534   3.718   3.184   9.852 -0.0460 -0.4884 -0.0699
  348TIP3    H122535   3.626   3.209   9.861  0.0827  0.4938 -1.2550
  348TIP3    H222536   3.732   3.178   9.758  0.6399 -2.5017  0.0989
  349TIP3   OH222537   5.710   6.265  11.850  0.1543 -0.2867  0.2447
  349TIP3    H122538   5.707   6.192  11.912 -0.3946  0.1256  0.7096
  349TIP3    H222539   5.778   6.240  11.787 -0.1747 -1.3019  0.2754
  350TIP3   OH222540   1.934   5.788   1.197  0.0555 -0.6555  0.1764
  350TIP3    H122541   1.879   5.757   1.126  1.1248 -2.6550  0.1414
  350TIP3    H222542   1.918   5.727   1.269  0.9172 -0.2291  0.7592
  351TIP3   OH222543   7.185   2.967  12.427  0.1863 -0.4791 -0.1604
  351TIP3    H122544   7.279   2.950  12.414  0.6129  0.1019  1.7378
  351TIP3    H222545   7.146   2.880  12.433  0.6673 -0.7297 -0.5688
  352TIP3   OH222546   6.824   3.731  11.059  0.4213  0.4595 -0.6435
  352TIP3    H122547   6.918   3.717  11.067  0.6363  1.4215 -1.2877
  352TIP3    H222548   6.815   3.802  10.995 -0.6386  1.8078  0.8873
  353TIP3   OH222549   2.274   6.519  10.105  0.1976 -0.0226  0.3747
  353TIP3    H122550   2.300   6.544  10.193 -0.0872 -0.3745  0.5622
  353TIP3    H222551   2.179   6.534  10.103  0.5664  2.9633 -0.8632
  354TIP3   OH222552   0.139   6.918   9.909 -0.1902  0.4604  0.5974
  354TIP3    H122553   0.092   6.858   9.850 -1.1031  2.4463 -0.8200
  354TIP3    H222554   0.228   6.883   9.912 -0.8798 -1.4632  0.5806
  355TIP3   OH222555   2.629   1.670  13.175  0.8826  0.0875 -0.4874
  355TIP3    H122556   2.665   1.706  13.256  1.6187 -0.5989 -0.4899
  355TIP3    H222557   2.664   1.581  13.171  0.3837 -0.0873 -1.2695
  356TIP3   OH222558   2.945   5.475   9.876 -0.1300  0.0619  0.0579
  356TIP3    H122559   3.026   5.488   9.826  0.0587  1.2373  0.6302
  356TIP3    H222560   2.929   5.381   9.873  0.8308 -0.0868 -0.7283
  357TIP3   OH222561   5.406   3.559  12.808  0.7286 -0.5304 -0.2676
  357TIP3    H122562   5.443   3.615  12.876  1.7939  1.5152 -2.3847
  357TIP3    H222563   5.479   3.503  12.781  0.2613 -1.4627  0.3349
  358TIP3   OH222564   6.384   5.611  13.093 -0.3694 -0.0403  0.1267
  358TIP3    H122565   6.458   5.554  13.114 -0.1124  0.5442  0.8320
  358TIP3    H222566   6.405   5.648  13.007  0.5389  0.7231  0.6651
  359TIP3   OH222567   3.872   6.931  10.605 -0.1303  0.0250  0.5918
  359TIP3    H122568   3.780   6.949  10.583 -0.5451 -1.2540  1.1816
  359TIP3    H222569   3.878   6.950  10.699 -0.3211 -1.7230  1.0003
  360TIP3   OH222570   3.124   2.063  11.993 -0.6867  0.5314 -0.6397
  360TIP3    H122571   3.206   2.100  12.023  0.8537 -0.8610 -2.8060
  360TIP3    H222572   3.087   2.129  11.934 -1.3187  1.2693  0.5391
  361TIP3   OH222573   6.298   3.142   0.041  0.1725 -0.5144  0.2881
  361TIP3    H122574   6.381   3.096   0.031 -0.6130 -1.8039 -0.6641
  361TIP3    H222575   6.232   3.073   0.038 -0.9650  0.5170  0.6106
  362TIP3   OH222576   6.192   2.219   0.220 -0.4412 -0.2791 -0.3349
  362TIP3    H122577   6.212   2.142   0.273  1.4934 -0.3171 -1.0403
  362TIP3    H222578   6.125   2.189   0.159  0.6104 -1.5811 -0.9142
  363TIP3   OH222579   4.361   4.246  12.041 -0.6919  0.4313  0.1836
  363TIP3    H122580   4.419   4.241  12.117 -0.1950  0.3702 -0.1915
  363TIP3    H222581   4.410   4.204  11.970 -0.3903  2.0465 -0.6256
  364TIP3   OH222582   4.782   1.787  11.859 -0.1075 -0.2386  0.0948
  364TIP3    H122583   4.850   1.848  11.888 -1.0776  0.7717  0.3355
  364TIP3    H222584   4.750   1.826  11.777 -0.2845 -0.7939 -0.1011
  365TIP3   OH222585   5.960   5.856  14.449 -0.0660 -0.1441  0.3856
  365TIP3    H122586   6.032   5.793  14.443 -0.7224 -0.7392 -2.8886
  365TIP3    H222587   5.918   5.854  14.363 -1.7072  2.9475  0.9578
  366TIP3   OH222588   4.843   6.199  12.122  0.3167  0.6080 -0.0306
  366TIP3    H122589   4.810   6.287  12.107 -0.3202  0.0074 -2.6041
  366TIP3    H222590   4.936   6.210  12.141 -0.2439  1.9550  2.4458
  367TIP3   OH222591   3.565   1.672  10.804  0.0265 -0.0175  0.0597
  367TIP3    H122592   3.482   1.626  10.795 -0.6424  1.2800 -0.8173
  367TIP3    H222593   3.573   1.723  10.723  1.1405  0.7055  0.5985
  368TIP3   OH222594   3.643   4.722  11.680  0.1569 -0.2326 -0.0579
  368TIP3    H122595   3.659   4.687  11.592  0.4422  0.7871 -0.4249
  368TIP3    H222596   3.702   4.797  11.687 -0.0765 -0.1293  0.8989
  369TIP3   OH222597   0.494   5.489   1.799  0.2429 -0.4015  0.3645
  369TIP3    H122598   0.499   5.397   1.775  0.9281 -0.8516  2.0826
  369TIP3    H222599   0.465   5.489   1.891 -0.0451  1.1011  0.3066
  370TIP3   OH222600   3.383   0.841  10.703  0.4007  0.3223  0.5015
  370TIP3    H122601   3.428   0.894  10.769  0.2645 -0.2603  1.0724
  370TIP3    H222602   3.431   0.858  10.622 -0.3277  2.2096  0.4147
  371TIP3   OH222603   3.840   2.748  14.254 -0.5162  0.2920  0.2231
  371TIP3    H122604   3.932   2.749  14.281 -0.3837  2.6718 -0.0612
  371TIP3    H222605   3.806   2.664  14.285  1.7346 -0.6449  0.3303
  372TIP3   OH222606   2.977   1.151  10.581  0.4118 -0.2000  0.1189
  372TIP3    H122607   2.891   1.139  10.621  1.1533  0.5053  2.0973
  372TIP3    H222608   3.033   1.089  10.628  1.1395 -0.0369 -0.5253
  373TIP3   OH222609   6.730   0.210  10.099 -0.8249 -0.2030  0.0854
  373TIP3    H122610   6.654   0.264  10.077 -1.3239 -1.2534 -0.8520
  373TIP3    H222611   6.758   0.173  10.016 -0.0514 -0.8218  0.6103
  374TIP3   OH222612   3.496   3.780   6.062  0.5888 -0.7171  0.5675
  374TIP3    H122613   3.432   3.772   6.133 -0.3505 -0.3382 -0.2012
  374TIP3    H222614   3.510   3.690   6.033  1.3621 -0.9283  1.5368
  375TIP3   OH222615   6.703   6.803   4.584 -0.2653  0.3370 -0.3986
  375TIP3    H122616   6.753   6.867   4.635  0.9687  0.6527 -1.9115
  375TIP3    H222617   6.754   6.722   4.592 -0.4922  0.1876 -0.4798
  376TIP3   OH222618   0.023   2.176   1.413 -0.0125  0.0444  0.7136
  376TIP3    H122619  -0.003   2.134   1.331  1.1929  0.2571  0.1910
  376TIP3    H222620   0.060   2.260   1.385 -0.2822  0.4446  1.5429
  377TIP3   OH222621   4.040   5.864   4.986 -0.4394  0.1240 -0.3879
  377TIP3    H122622   4.040   5.959   5.000 -1.4198  0.2528 -1.1661
  377TIP3    H222623   4.036   5.827   5.074 -1.5984  0.8292 -0.1237
  378TIP3   OH222624   0.032   1.449  12.435 -0.3380 -0.1559  0.0445
  378TIP3    H122625  -0.047   1.397  12.418  0.5180 -1.3373 -0.4805
  378TIP3    H222626   0.027   1.469  12.529 -0.3915 -1.7578  0.4226
  379TIP3   OH222627   6.957   3.934   0.438  0.0781  0.2726  0.3638
  379TIP3    H122628   6.948   3.841   0.417 -1.1565  0.3847  0.3530
  379TIP3    H222629   6.870   3.971   0.422 -0.1204  0.9584  2.7286
  380TIP3   OH222630   1.799   5.921   0.419 -0.3704  0.1183  0.2475
  380TIP3    H122631   1.804   5.827   0.439 -1.9863  0.1014  0.7125
  380TIP3    H222632   1.766   5.924   0.329  0.2783  0.2551  0.0065
  381TIP3   OH222633   6.519   1.873   4.904  0.0239 -0.1015 -0.2255
  381TIP3    H122634   6.556   1.903   4.821 -0.3208 -0.7503 -0.6189
  381TIP3    H222635   6.425   1.868   4.888 -0.0121 -0.5587  0.0947
  382TIP3   OH222636   3.601   7.083   4.037  0.0157  0.4280  0.5344
  382TIP3    H122637   3.619   7.086   4.131 -1.1427  2.1299  0.7467
  382TIP3    H222638   3.514   7.043   4.030  0.6220 -0.8700  0.0613
  383TIP3   OH222639   3.075   5.897   2.720 -0.1653 -0.2241 -0.0372
  383TIP3    H122640   3.117   5.915   2.636 -0.7091 -0.0053 -0.2617
  383TIP3    H222641   3.078   5.802   2.728 -0.8395 -0.3068 -0.6807
  384TIP3   OH222642   6.355   0.983   4.891 -0.3106 -0.3641  0.2631
  384TIP3    H122643   6.351   1.069   4.933 -0.6313 -0.3087  0.1223
  384TIP3    H222644   6.430   0.989   4.832 -0.4269 -0.1288  0.1397
  385TIP3   OH222645   3.169   6.157  13.533 -0.4377  0.6526 -0.3810
  385TIP3    H122646   3.150   6.070  13.496 -0.4961  0.6150 -0.2620
  385TIP3    H222647   3.183   6.140  13.626  1.7877  0.4176 -0.6975
  386TIP3   OH222648   4.926   5.549   2.620  0.1811 -0.1326  0.0388
  386TIP3    H122649   5.000   5.556   2.680  0.8404  1.5262 -0.8871
  386TIP3    H222650   4.961   5.500   2.545  0.8175  1.7457 -0.9717
  387TIP3   OH222651   5.081   1.142   5.723 -0.0680 -0.3109 -0.1531
  387TIP3    H122652   5.121   1.207   5.781  0.0224  0.9844 -1.6007
  387TIP3    H222653   4.992   1.175   5.710 -0.2410 -0.8620 -0.3551
  388TIP3   OH222654   6.434   5.082   4.886 -0.0793 -0.8813  1.0364
  388TIP3    H122655   6.383   5.020   4.834 -0.2401 -0.7327  1.0141
  388TIP3    H222656   6.369   5.126   4.941 -0.1257  0.0711  0.2427
  389TIP3   OH222657   6.058   1.653   4.410  0.1312 -0.0493  0.2012
  389TIP3    H122658   6.091   1.564   4.397 -0.8186 -0.5954  1.2789
  389TIP3    H222659   6.033   1.656   4.503  0.6223  1.5152  0.3120
  390TIP3   OH222660   3.550   0.434   0.776 -0.3992  0.3808  0.4413
  390TIP3    H122661   3.481   0.423   0.842 -1.0990  0.1784 -0.3119
  390TIP3    H222662   3.504   0.434   0.692  0.6707 -1.2994 -0.1817
  391TIP3   OH222663   0.092   2.166   1.672  0.3689  0.1612  0.2958
  391TIP3    H122664   0.178   2.129   1.658 -0.3886 -0.9518 -1.8433
  391TIP3    H222665   0.054   2.175   1.584 -2.2075 -0.6854  1.2147
  392TIP3   OH222666   6.019   7.205  14.274  1.1192 -0.2907 -0.1963
  392TIP3    H122667   5.948   7.269  14.280 -0.3070 -1.6200 -1.6316
  392TIP3    H222668   6.076   7.239  14.205  0.9338 -0.0485 -0.2348
  393TIP3   OH222669   2.441   7.206   5.429  0.0636 -0.2994 -0.0885
  393TIP3    H122670   2.457   7.250   5.345  0.2071 -1.7612 -0.8473
  393TIP3    H222671   2.353   7.171   5.421  0.7767 -2.1141 -0.4238
  394TIP3   OH222672   5.092   4.213   0.242 -0.2772 -0.0178  0.0537
  394TIP3    H122673   5.133   4.293   0.211  0.2747 -0.3277 -0.0387
  394TIP3    H222674   5.099   4.152   0.168  0.9990 -0.7435  0.7172
  395TIP3   OH222675   6.547   0.961   0.531  0.4419  0.6276  0.3147
  395TIP3    H122676   6.635   0.985   0.502  0.9504 -0.9540  0.4686
  395TIP3    H222677   6.548   0.977   0.626  1.0084 -0.6177  0.5332
  396TIP3   OH222678   3.055   6.929   4.056  0.1676  0.7798 -0.6781
  396TIP3    H122679   2.962   6.947   4.063 -0.0713 -0.9493  2.2425
  396TIP3    H222680   3.094   7.013   4.029 -1.9511  2.3922  0.8825
  397TIP3   OH222681   4.618   0.878   3.010  0.6487  0.1325 -0.1699
  397TIP3    H122682   4.600   0.789   3.041  0.3885  0.5777  0.9981
  397TIP3    H222683   4.581   0.880   2.922 -1.0045 -0.3653  0.4754
  398TIP3   OH222684   1.872   4.047   0.768  0.3236  0.0153 -0.1291
  398TIP3    H122685   1.793   4.027   0.818  0.0734  0.0717 -0.4953
  398TIP3    H222686   1.842   4.107   0.699  0.7702  0.4003  0.0099
  399TIP3   OH222687   2.263   3.356   3.536 -0.2760 -0.5229  0.5442
  399TIP3    H122688   2.269   3.268   3.499 -1.1043 -0.9185  1.3183
  399TIP3    H222689   2.178   3.358   3.580 -1.5475  1.5412 -1.7430
  400TIP3   OH222690   5.095   6.639   4.787 -0.1310  0.0671  0.0818
  400TIP3    H122691   5.100   6.600   4.700  1.9997 -2.3001  1.1436
  400TIP3    H222692   5.176   6.689   4.795  0.6393 -1.2961  1.3101
  401TIP3   OH222693   4.608   3.841   3.456 -1.0368 -0.4505  0.3714
  401TIP3    H122694   4.680   3.901   3.436 -1.5221  0.2209  0.5756
  401TIP3    H222695   4.650   3.766   3.499 -0.3144 -0.6797 -0.7116
  402TIP3   OH222696   0.977   4.887   3.240 -0.1674  0.6266  0.1807
  402TIP3    H122697   0.974   4.875   3.145 -1.2821  2.6517 -0.0836
  402TIP3    H222698   0.900   4.840   3.272  0.6827 -0.8118  0.2360
  403TIP3   OH222699   2.680   2.202   0.846 -0.4434 -0.9391  0.6232
  403TIP3    H122700   2.774   2.208   0.829 -0.3828 -1.6559  0.7106
  403TIP3    H222701   2.648   2.138   0.782 -1.2353  0.8201 -0.8598
  404TIP3   OH222702   1.140   4.638   4.331  0.5080 -0.3670 -0.4130
  404TIP3    H122703   1.098   4.699   4.271 -0.4847  0.0382  0.6620
  404TIP3    H222704   1.196   4.584   4.275 -0.2966  0.0701 -1.6794
  405TIP3   OH222705   2.315   3.161   1.335 -0.2705  0.2167 -0.0041
  405TIP3    H122706   2.270   3.209   1.404 -0.6112  1.8161 -1.2812
  405TIP3    H222707   2.362   3.228   1.285 -0.7115 -0.7511 -1.8227
  406TIP3   OH222708   1.397   2.866   5.893  0.0719  0.0134 -0.8925
  406TIP3    H122709   1.442   2.915   5.962 -1.4918 -0.6264  0.6604
  406TIP3    H222710   1.406   2.920   5.815 -1.7431  2.9500  0.7622
  407TIP3   OH222711   3.694   0.351   4.413  0.4818 -0.7333  0.4024
  407TIP3    H122712   3.671   0.280   4.353  0.5757 -0.6709  0.2919
  407TIP3    H222713   3.737   0.307   4.486 -1.1762 -1.0005  1.2580
  408TIP3   OH222714   2.927   4.271   5.170  0.2593  0.0207  0.0417
  408TIP3    H122715   2.890   4.241   5.087 -0.4591 -1.5338  0.9005
  408TIP3    H222716   2.902   4.363   5.175 -0.9577 -0.2443 -0.7812
  409TIP3   OH222717   3.385   4.759  14.152 -0.2476  0.4539 -0.4039
  409TIP3    H122718   3.478   4.733  14.155 -0.4603 -0.3463 -0.5404
  409TIP3    H222719   3.388   4.854  14.137  0.5509  0.3995 -0.6934
  410TIP3   OH222720   1.740   0.520   5.845  0.4384 -0.0030 -0.3118
  410TIP3    H122721   1.699   0.536   5.760 -2.9636 -0.0258  1.1697
  410TIP3    H222722   1.794   0.598   5.861 -0.1925  0.7598 -1.7597
  411TIP3   OH222723   0.856   5.599   3.746 -0.0738  0.1149 -0.6639
  411TIP3    H122724   0.795   5.643   3.687 -0.5911 -0.4869 -0.5945
  411TIP3    H222725   0.916   5.667   3.774 -0.8606  0.7726 -0.5437
  412TIP3   OH222726   7.010   2.927  12.815  0.2672  0.5267  0.0789
  412TIP3    H122727   7.001   2.962  12.904 -0.5625  0.4084  0.0551
  412TIP3    H222728   7.099   2.893  12.811  0.3804  0.7150  0.8001
  413TIP3   OH222729   1.417   6.786  15.247 -0.4638  0.0352 -0.2782
  413TIP3    H122730   1.363   6.740  15.183 -0.7183 -3.1706  2.0224
  413TIP3    H222731   1.505   6.748  15.236  0.4827  2.2944 -1.2429
  414TIP3   OH222732   0.903   1.115   0.975 -0.6557 -0.0348 -0.3185
  414TIP3    H122733   0.999   1.121   0.974 -0.7243  1.2466 -0.4434
  414TIP3    H222734   0.875   1.162   0.897 -1.4549  1.3532  0.7489
  415TIP3   OH222735   4.024   7.020   3.199  0.4499  0.5299 -0.5117
  415TIP3    H122736   4.099   6.960   3.196  1.3103  1.5792 -0.5766
  415TIP3    H222737   4.034   7.067   3.282  0.0688  0.9198 -0.6818
  416TIP3   OH222738   4.293   4.744   4.767  1.2140 -0.2480  0.1771
  416TIP3    H122739   4.321   4.791   4.846  0.0941  0.3782  0.2114
  416TIP3    H222740   4.246   4.668   4.800  1.8569 -0.6920  0.1042
  417TIP3   OH222741   0.581   3.050   4.909  0.4871  0.1362  0.0852
  417TIP3    H122742   0.497   3.096   4.919  0.5485  0.3204 -0.2230
  417TIP3    H222743   0.594   3.045   4.814  0.8448  0.1413  0.1331
  418TIP3   OH222744   1.525   4.920   1.164  0.2006  0.3579  0.1919
  418TIP3    H122745   1.477   4.838   1.157 -2.7733  2.0636 -0.8662
  418TIP3    H222746   1.481   4.968   1.234  1.2099  1.5114  0.0632
  419TIP3   OH222747   6.145   3.490   1.405 -0.4618 -0.2126 -0.1575
  419TIP3    H122748   6.118   3.451   1.321 -0.2671 -0.5604 -0.0610
  419TIP3    H222749   6.126   3.422   1.470  1.1522 -0.7093 -0.1549
  420TIP3   OH222750   1.437   4.381   2.295 -0.5174 -0.1844  0.3077
  420TIP3    H122751   1.494   4.307   2.314  2.4911  1.8572 -0.0291
  420TIP3    H222752   1.430   4.427   2.379  0.0488  0.6531 -0.0904
  421TIP3   OH222753   5.156   5.493   3.440 -0.3796 -0.5477 -0.5204
  421TIP3    H122754   5.221   5.481   3.371  0.8783 -1.9185  0.8421
  421TIP3    H222755   5.080   5.529   3.395  1.1705  0.7407 -2.2290
  422TIP3   OH222756   6.105   3.331   1.849 -0.2677  0.0540  0.0804
  422TIP3    H122757   6.171   3.398   1.830  0.1706 -0.0986  0.9785
  422TIP3    H222758   6.042   3.376   1.906  0.1776 -0.3495  0.9189
  423TIP3   OH222759   0.004   5.231  14.408  0.0128 -0.3654  0.3088
  423TIP3    H122760   0.090   5.190  14.422  0.8865  0.8910 -1.0500
  423TIP3    H222761  -0.059   5.159  14.418  1.1328 -1.1856  2.0421
  424TIP3   OH222762   1.576   4.744   2.245 -0.2312 -0.0968 -0.6378
  424TIP3    H122763   1.639   4.731   2.316  0.6084  1.9769 -0.9318
  424TIP3    H222764   1.497   4.777   2.289  0.1974  0.9263 -0.5974
  425TIP3   OH222765   4.446   0.382   1.415  0.5723 -0.0513  0.5856
  425TIP3    H122766   4.496   0.432   1.479 -0.1894  0.8496  0.5189
  425TIP3    H222767   4.388   0.447   1.375 -0.4644 -0.9982  0.4928
  426TIP3   OH222768   2.510   4.151  15.173  0.2732  0.3777  0.2441
  426TIP3    H122769   2.481   4.069  15.215 -1.6065  0.6993 -0.3499
  426TIP3    H222770   2.536   4.125  15.085 -0.4841  0.4489  0.0007
  427TIP3   OH222771   4.988   7.082   4.015  0.5297  0.5574 -0.1210
  427TIP3    H122772   4.948   7.167   4.029 -1.1058 -0.4220  1.5916
  427TIP3    H222773   5.082   7.099   4.015  0.2841  2.1953  1.5064
  428TIP3   OH222774   4.876   4.979   2.923 -0.1198 -0.2207  0.1979
  428TIP3    H122775   4.837   4.897   2.894 -0.4439  0.1438 -0.4192
  428TIP3    H222776   4.811   5.019   2.979  0.5599 -0.9884  1.5826
  429TIP3   OH222777   6.320   6.153  13.761  0.1346  0.0554 -0.3448
  429TIP3    H122778   6.250   6.218  13.776  0.9122  0.8927 -0.2531
  429TIP3    H222779   6.377   6.162  13.838  0.4986 -0.4196 -0.5617
  430TIP3   OH222780   2.715   3.816   1.014 -0.6338  0.3339  0.1136
  430TIP3    H122781   2.797   3.800   1.061 -0.5811  1.5893  0.4830
  430TIP3    H222782   2.657   3.855   1.080 -1.2498  0.2196 -0.3556
  431TIP3   OH222783   6.401   0.855  14.125  0.5495 -0.0534 -0.2853
  431TIP3    H122784   6.386   0.936  14.077  1.0773  0.4247  0.3451
  431TIP3    H222785   6.321   0.841  14.174  1.0337  0.9465  0.8332
  432TIP3   OH222786   6.171   6.378  11.568 -0.1600 -0.6866  0.1389
  432TIP3    H122787   6.203   6.300  11.523 -0.6611 -0.8851  0.1209
  432TIP3    H222788   6.096   6.408  11.516  0.9260  0.6862 -0.7022
  433TIP3   OH222789   1.866   1.557  12.516 -0.1103 -0.1873 -1.3020
  433TIP3    H122790   1.824   1.494  12.574 -1.3764  1.2163 -0.6275
  433TIP3    H222791   1.806   1.565  12.441  0.3302 -0.2191 -1.6622
  434TIP3   OH222792   3.017   4.612  14.907 -0.0044  0.2211  0.3903
  434TIP3    H122793   2.950   4.640  14.845 -0.7168 -0.7538  0.6949
  434TIP3    H222794   2.968   4.568  14.977  1.0404 -2.5483 -0.4640
  435TIP3   OH222795   7.251   4.525  12.042  0.7288 -0.3664 -0.1623
  435TIP3    H122796   7.343   4.552  12.048  0.9981 -0.7489 -1.8701
  435TIP3    H222797   7.238   4.465  12.115  1.9673 -0.6198 -0.1273
  436TIP3   OH222798   2.348   5.841  13.073 -0.2958  0.1548  0.3035
  436TIP3    H122799   2.333   5.936  13.077 -1.8848 -0.0628  0.2614
  436TIP3    H222800   2.343   5.820  12.980 -0.1323  0.0064  0.3274
  437TIP3   OH222801   2.420   3.119  12.898  0.1524  0.7452  0.6160
  437TIP3    H122802   2.457   3.147  12.982  1.3232  0.4700  0.2095
  437TIP3    H222803   2.351   3.057  12.921  0.0814  1.0954  1.3858
  438TIP3   OH222804   1.828   1.855   9.250  0.7293 -0.1799  0.4034
  438TIP3    H122805   1.860   1.818   9.168 -0.4883  0.2784 -0.3233
  438TIP3    H222806   1.817   1.780   9.309  1.3150 -0.5526  0.0431
  439TIP3   OH222807   6.910   4.503  13.424  0.2735 -0.5240  0.5158
  439TIP3    H122808   6.952   4.561  13.360  0.6109 -0.3359  0.9089
  439TIP3    H222809   6.960   4.422  13.419  1.1627 -0.0656  1.4987
  440TIP3   OH222810   0.556   1.007  11.446  0.8153  0.2212  0.9428
  440TIP3    H122811   0.615   0.941  11.483 -0.1975 -1.0293  0.4285
  440TIP3    H222812   0.579   1.010  11.353 -2.0874 -2.9154 -0.1023
  441TIP3   OH222813   0.123   6.941   0.547 -0.2615  0.1481  0.0040
  441TIP3    H122814   0.148   6.946   0.455  3.1515  1.7597  0.8453
  441TIP3    H222815   0.062   7.014   0.560  0.7317  1.1152 -0.6307
  442TIP3   OH222816   6.392   4.043  11.441  0.5497  0.0957  0.6423
  442TIP3    H122817   6.314   3.992  11.420  0.7811  0.4364 -1.2108
  442TIP3    H222818   6.382   4.124  11.391  2.0098  0.2073  0.4911
  443TIP3   OH222819   6.999   6.108  14.529  0.2536 -0.6324 -0.0354
  443TIP3    H122820   6.998   6.155  14.613 -0.5839  0.8857 -0.8426
  443TIP3    H222821   7.061   6.157  14.475  0.6826 -1.5170 -0.3584
  444TIP3   OH222822   3.226   4.373  10.751  0.3344 -0.8541  0.1609
  444TIP3    H122823   3.294   4.428  10.789  0.0698  1.7064 -2.6764
  444TIP3    H222824   3.272   4.316  10.689 -0.0076  1.6160 -2.5584
  445TIP3   OH222825   6.920   5.552  13.069  0.4416  0.0142 -0.6046
  445TIP3    H122826   6.951   5.494  13.139 -0.2225  0.4413  0.0525
  445TIP3    H222827   6.923   5.498  12.990 -1.0856 -1.2226  0.1534
  446TIP3   OH222828   4.016   2.916   9.860 -0.5470 -0.1414  0.8864
  446TIP3    H122829   3.965   2.844   9.823  2.2101 -1.9622  0.3697
  446TIP3    H222830   4.043   2.967   9.784 -0.6272  0.1456  1.0501
  447TIP3   OH222831   2.172   6.976  13.447  0.1042  0.3895 -0.7022
  447TIP3    H122832   2.169   7.043  13.515 -1.4490  0.6395 -0.9743
  447TIP3    H222833   2.140   7.020  13.368 -0.1208 -0.4361 -1.0900
  448TIP3   OH222834   2.040   2.301  10.319  0.5168  0.6190 -0.3330
  448TIP3    H122835   1.963   2.317  10.373  0.6696 -1.8068  0.7145
  448TIP3    H222836   2.009   2.247  10.247  1.2310 -0.6287  0.2520
  449TIP3   OH222837   4.653   5.917   0.437  0.6119 -0.4732 -0.1186
  449TIP3    H122838   4.573   5.934   0.386  0.6566  0.9008  0.2415
  449TIP3    H222839   4.683   5.831   0.406 -2.0180 -1.9492  1.0729
  450TIP3   OH222840   3.159   4.023  12.388  0.0830  0.1105 -0.1184
  450TIP3    H122841   3.203   3.980  12.461  0.6944  0.5234 -0.2400
  450TIP3    H222842   3.097   4.082  12.429  0.4664  0.3845  0.0712
  451TIP3   OH222843   3.718   3.753  12.265  0.2398  0.2273  0.1178
  451TIP3    H122844   3.761   3.668  12.264 -1.1585 -0.5105  0.5935
  451TIP3    H222845   3.630   3.736  12.300  0.3012  2.0447  1.3140
  452TIP3   OH222846   1.070   3.403   9.398  0.2714 -0.4786  0.1482
  452TIP3    H122847   1.091   3.322   9.350 -2.5161 -2.1796  1.5300
  452TIP3    H222848   1.078   3.379   9.490 -0.2873  0.9531  0.5910
  453TIP3   OH222849   5.710   1.084  11.592 -0.3725 -0.0115 -0.3762
  453TIP3    H122850   5.632   1.094  11.537  0.5611  0.4473 -1.6850
  453TIP3    H222851   5.772   1.037  11.536  0.8961  1.1622 -0.0131
  454TIP3   OH222852   5.285   0.644  10.738  0.3354  0.0221  0.3444
  454TIP3    H122853   5.215   0.621  10.800  0.6346 -2.1578 -0.0250
  454TIP3    H222854   5.324   0.723  10.774 -1.5752  0.6471  1.1813
  455TIP3   OH222855   7.034   4.692  11.957  0.0901  0.4429  0.0804
  455TIP3    H122856   7.002   4.712  12.045 -0.9883 -0.5968 -0.0391
  455TIP3    H222857   7.108   4.633  11.971 -1.4002 -1.4612  0.2889
  456TIP3   OH222858   0.788   6.211  14.774  0.3017  0.3719  0.2038
  456TIP3    H122859   0.779   6.170  14.860  1.1841 -0.8370 -0.2383
  456TIP3    H222860   0.882   6.221  14.762  0.3808 -1.7120 -1.5606
  457TIP3   OH222861   2.951   2.995   9.137 -0.1845 -0.0952 -0.2443
  457TIP3    H122862   3.046   2.999   9.125 -0.3140  2.5699 -1.0286
  457TIP3    H222863   2.921   3.085   9.122 -2.6727 -0.5213  1.4959
  458TIP3   OH222864   0.790   3.503  14.562  0.0250 -0.1402 -0.3143
  458TIP3    H122865   0.767   3.433  14.501 -2.9887 -0.6630  1.2245
  458TIP3    H222866   0.742   3.580  14.531  1.2797  0.5792 -0.5457
  459TIP3   OH222867   4.398   5.454  11.602 -0.2929  0.1522  0.3982
  459TIP3    H122868   4.474   5.482  11.551 -0.8238  0.1677 -0.3977
  459TIP3    H222869   4.375   5.368  11.568  0.5291 -0.7224  1.9546
  460TIP3   OH222870   5.296   6.447  13.261 -0.1083 -0.2650  0.1293
  460TIP3    H122871   5.228   6.426  13.325 -1.2391  0.6170 -0.7345
  460TIP3    H222872   5.253   6.506  13.199  1.0085 -0.9281 -1.3341
  461TIP3   OH222873   0.152   6.879   1.265  0.2653  0.4629  0.3027
  461TIP3    H122874   0.230   6.887   1.321  0.5679  0.4427 -0.1101
  461TIP3    H222875   0.108   6.800   1.297  0.6844  0.1878  0.2126
  462TIP3   OH222876   4.214   5.979  15.334 -0.2570  0.1972  0.2427
  462TIP3    H122877   4.269   6.057  15.336 -0.7007  0.6855 -2.5872
  462TIP3    H222878   4.189   5.969  15.242 -1.3067 -2.5346  0.7158
  463TIP3   OH222879   5.615   0.369  10.801 -0.1739 -0.0064  0.2493
  463TIP3    H122880   5.640   0.414  10.882  1.0024 -0.5153  0.1945
  463TIP3    H222881   5.554   0.429  10.758  1.3865  1.5909  0.1510
  464TIP3   OH222882   5.556   4.966  10.401 -0.0514  0.3024  0.0453
  464TIP3    H122883   5.522   5.017  10.475  0.5885  2.1237 -0.8303
  464TIP3    H222884   5.651   4.969  10.412  0.2738  2.9455 -2.1443
  465TIP3   OH222885   4.954   5.858   3.521 -0.6061  0.0084  0.0551
  465TIP3    H122886   4.910   5.919   3.461  0.3263  0.4210 -0.2181
  465TIP3    H222887   4.885   5.833   3.583 -2.1478 -1.9108 -2.2419
  466TIP3   OH222888   6.103   1.293  14.667  0.1653 -0.2030 -0.3368
  466TIP3    H122889   6.139   1.381  14.661 -2.5130  1.0803  0.7667
  466TIP3    H222890   6.009   1.304  14.650 -0.5824 -2.5144  1.7355
  467TIP3   OH222891   5.594   4.746  11.417  0.2817 -0.2831 -0.3362
  467TIP3    H122892   5.667   4.688  11.438  0.4983  0.0970 -0.0244
  467TIP3    H222893   5.628   4.834  11.434  0.2783  0.0070 -1.7233
  468TIP3   OH222894   3.321   4.881  11.570 -0.3598  0.0340 -0.0860
  468TIP3    H122895   3.347   4.924  11.651 -0.9318  1.0398 -0.4179
  468TIP3    H222896   3.265   4.945  11.526  0.4247 -0.2384 -1.5561
  469TIP3   OH222897   6.045   6.450   0.319  0.1951  0.2570  0.0135
  469TIP3    H122898   5.996   6.381   0.364  0.2997  1.8856  2.7767
  469TIP3    H222899   6.135   6.419   0.319  0.2947  0.4827  1.5383
  470TIP3   OH222900   5.023   1.482  10.523  0.6649 -0.3583  0.1775
  470TIP3    H122901   4.954   1.420  10.499 -0.2022 -1.5247  4.6388
  470TIP3    H222902   4.985   1.568  10.503 -1.0316 -1.0721  0.0850
  471TIP3   OH222903   3.660   1.841   4.435 -0.3315  0.6285 -0.0594
  471TIP3    H122904   3.606   1.767   4.406  0.2055  0.0776  0.3289
  471TIP3    H222905   3.633   1.855   4.526 -0.6873  1.1520 -0.2388
  472TIP3   OH222906   0.388   6.040  10.451  0.2963 -0.1549  0.2826
  472TIP3    H122907   0.459   6.013  10.392  0.7201 -2.2892  1.6341
  472TIP3    H222908   0.313   5.988  10.422  0.5975 -1.4839  1.7424
  473TIP3   OH222909   6.877   3.554   3.697 -0.5740  0.3329 -0.3868
  473TIP3    H122910   6.946   3.585   3.756 -0.8400  0.3271 -0.0675
  473TIP3    H222911   6.921   3.540   3.613 -0.2883  0.7814 -0.3108
  474TIP3   OH222912   0.157   5.487  15.102 -0.1457 -0.7721 -0.1695
  474TIP3    H122913   0.136   5.461  15.012 -0.7378 -2.0830  0.3293
  474TIP3    H222914   0.244   5.526  15.096 -0.2494 -0.6889 -1.3364
  475TIP3   OH222915   0.841   4.449   0.275 -0.2774 -0.1906 -0.0107
  475TIP3    H122916   0.799   4.395   0.208 -1.7344 -0.0931  0.7883
  475TIP3    H222917   0.774   4.513   0.300  1.0532  1.3338 -0.1750
  476TIP3   OH222918   3.997   4.235  14.859  0.3088 -0.6606  0.1654
  476TIP3    H122919   4.034   4.217  14.945 -0.6966 -0.5994  0.6265
  476TIP3    H222920   3.903   4.232  14.873  0.1319  0.2717 -0.7439
  477TIP3   OH222921   0.531   6.724  14.490 -0.3556  0.1734 -0.1026
  477TIP3    H122922   0.508   6.815  14.473 -1.1543  0.1865  0.9002
  477TIP3    H222923   0.603   6.705  14.431 -0.1513  1.4697 -0.2922
  478TIP3   OH222924   3.663   2.258  10.129  0.0886  0.3753 -0.5345
  478TIP3    H122925   3.699   2.198  10.063 -0.2631  0.5492 -0.8910
  478TIP3    H222926   3.576   2.281  10.095 -1.0542 -1.2675  1.0744
  479TIP3   OH222927   3.382   0.744  11.934 -0.0621  0.2072 -0.0116
  479TIP3    H122928   3.321   0.808  11.971  1.3916  2.7869 -1.7461
  479TIP3    H222929   3.359   0.739  11.842 -0.6721 -2.5645  0.2009
  480TIP3   OH222930   3.396   0.094  12.861  0.4130 -0.8796  0.3262
  480TIP3    H122931   3.472   0.050  12.900  1.7309 -0.2848 -1.4220
  480TIP3    H222932   3.388   0.176  12.910  1.3172 -0.6599  0.1293
  481TIP3   OH222933   2.869   6.920  13.211 -0.1254  0.5193  0.1323
  481TIP3    H122934   2.890   6.945  13.301 -0.6217 -0.8723  0.6490
  481TIP3    H222935   2.830   6.999  13.173 -1.2860  0.6780  1.5991
  482TIP3   OH222936   1.613   5.947  11.986 -0.9136 -0.2213 -0.2490
  482TIP3    H122937   1.658   5.874  12.029  2.0813  0.3413 -2.1730
  482TIP3    H222938   1.580   6.001  12.058 -0.8540 -2.0559  1.2224
  483TIP3   OH222939   6.353   1.807  12.222  0.0891 -0.8911  0.6010
  483TIP3    H122940   6.285   1.743  12.201 -0.1017 -0.4641 -0.1221
  483TIP3    H222941   6.304   1.886  12.246  0.3164 -0.5871  0.0891
  484TIP3   OH222942   1.903   1.980  12.285 -0.3677 -0.0496 -0.1806
  484TIP3    H122943   1.873   2.062  12.245  0.1133  0.3571  0.2710
  484TIP3    H222944   1.975   1.951  12.228  0.1756  0.4166  0.2579
  485TIP3   OH222945   6.755   0.996  10.475 -0.0000  0.0206  0.4297
  485TIP3    H122946   6.750   0.969  10.567  1.1314 -1.0798  0.1886
  485TIP3    H222947   6.775   0.916  10.427 -0.5377  0.5897 -0.7937
  486TIP3   OH222948   0.796   2.157  10.989 -0.2596  0.2836 -0.0631
  486TIP3    H122949   0.816   2.243  11.025 -0.3867  0.5081 -0.5279
  486TIP3    H222950   0.840   2.096  11.049  1.9005  0.7598 -1.0375
  487TIP3   OH222951   0.812   0.960   2.123 -0.5339  0.1101 -0.1695
  487TIP3    H122952   0.800   1.054   2.135  0.3192  0.3735 -1.2059
  487TIP3    H222953   0.783   0.943   2.034 -2.1161 -0.9034  0.4990
  488TIP3   OH222954   6.916   4.816   3.888  0.1131 -0.2712  0.1980
  488TIP3    H122955   6.959   4.832   3.972 -2.2833  0.9931  1.2808
  488TIP3    H222956   6.841   4.761   3.909  0.4024 -1.3607 -1.4243
  489TIP3   OH222957   3.658   4.501   0.121 -0.4131  0.5129  0.3576
  489TIP3    H122958   3.654   4.501   0.025 -0.5522 -1.2942  0.3384
  489TIP3    H222959   3.730   4.562   0.142  0.4119  0.0286 -0.9414
  490TIP3   OH222960   5.277   2.700  12.883 -0.0324 -0.3133  0.1939
  490TIP3    H122961   5.238   2.770  12.936 -1.1491 -1.8033  1.4459
  490TIP3    H222962   5.323   2.645  12.947  2.9314  0.5015 -1.0376
  491TIP3   OH222963   0.685   2.819  10.308  0.1925 -0.8616  0.2143
  491TIP3    H122964   0.606   2.813  10.361 -0.3445  0.0402 -0.4384
  491TIP3    H222965   0.690   2.912  10.284  0.8562 -1.1003 -0.6263
  492TIP3   OH222966   7.050   0.588  11.264 -0.3698 -0.1781 -0.3714
  492TIP3    H122967   7.074   0.680  11.262 -2.9712  0.6466  1.4267
  492TIP3    H222968   7.106   0.550  11.331 -0.6251  0.5462  0.2559
  493TIP3   OH222969   6.142   2.623  11.853 -0.0578 -0.2148 -0.1910
  493TIP3    H122970   6.090   2.673  11.916  0.3629 -0.4825  0.3672
  493TIP3    H222971   6.217   2.679  11.834 -0.0142 -0.2796 -0.2097
  494TIP3   OH222972   6.821   4.576  13.798 -0.6836 -0.1182  0.3530
  494TIP3    H122973   6.737   4.551  13.759 -1.1912  0.4992  1.0128
  494TIP3    H222974   6.882   4.578  13.725 -0.8957 -2.0338  0.0900
  495TIP3   OH222975   4.058   6.575  12.174 -0.0604  0.0230  0.0851
  495TIP3    H122976   4.057   6.583  12.079  0.1066  0.0784  0.0863
  495TIP3    H222977   4.056   6.481  12.191 -1.8026  0.0372  0.0644
  496TIP3   OH222978   2.373   0.707  11.344  0.4857  0.0398  0.3290
  496TIP3    H122979   2.353   0.648  11.272  1.5689 -1.0866  0.9084
  496TIP3    H222980   2.463   0.736  11.328  0.3784  0.5896  0.6846
  497TIP3   OH222981   1.233   0.392   9.337 -0.0050 -0.2514  0.0259
  497TIP3    H122982   1.322   0.357   9.330 -0.5364 -1.5977 -0.2400
  497TIP3    H222983   1.176   0.315   9.335 -1.1341  0.5037  1.3222
  498TIP3   OH222984   4.090   3.983   9.609  0.4483  0.1787  0.8930
  498TIP3    H122985   3.998   3.961   9.623 -0.2210  1.7502 -0.6274
  498TIP3    H222986   4.122   3.915   9.549  0.1441 -0.0751  1.0136
  499TIP3   OH222987   1.439   4.720  10.874 -0.2787  0.0655 -0.2929
  499TIP3    H122988   1.490   4.780  10.928  1.1334 -0.5046 -0.9384
  499TIP3    H222989   1.505   4.666  10.830 -1.2425  1.2807 -3.4988
  500TIP3   OH222990   6.327   6.732  10.859 -0.4124 -0.0648  0.0745
  500TIP3    H122991   6.335   6.695  10.947  0.1578 -3.0768 -1.0942
  500TIP3    H222992   6.417   6.742  10.828 -0.5966 -1.2092 -0.9224
  501TIP3   OH222993   6.107   2.322  12.980  0.0855 -0.6257  0.4479
  501TIP3    H122994   6.041   2.369  13.031 -0.0665 -1.5625  1.1452
  501TIP3    H222995   6.138   2.253  13.038  1.1114 -0.7041 -0.1615
  502TIP3   OH222996   2.451   4.891  10.608 -0.4745 -0.4159  0.2109
  502TIP3    H122997   2.392   4.822  10.579 -0.6112 -0.1268 -0.2213
  502TIP3    H222998   2.402   4.972  10.591 -0.7015 -0.2363  1.5815
  503TIP3   OH222999   2.646   1.362   0.608  0.3892 -0.6186  0.4708
  503TIP3    H123000   2.655   1.413   0.688 -0.2535 -0.0523  0.1937
  503TIP3    H223001   2.615   1.276   0.637 -0.2030 -0.3002  0.8059
  504TIP3   OH223002   1.306   6.481  10.620  0.3596 -0.3964 -0.8154
  504TIP3    H123003   1.370   6.537  10.663  0.5612 -1.0634 -0.2246
  504TIP3    H223004   1.302   6.403  10.675  1.3704 -1.7208 -2.5107
  505TIP3   OH223005   0.744   6.340  14.069  0.6479 -0.1023 -0.6346
  505TIP3    H123006   0.689   6.358  13.993 -0.0683  1.2787  0.1629
  505TIP3    H223007   0.682   6.324  14.140  1.3067 -1.1313 -0.2803
  506TIP3   OH223008   6.333   6.104   9.929 -0.3362  0.3212  0.6463
  506TIP3    H123009   6.355   6.021   9.971  1.0467  0.4397  0.2347
  506TIP3    H223010   6.394   6.167   9.968 -0.1955  0.7789 -0.2804
  507TIP3   OH223011   0.403   6.929  14.334  0.1810  0.1257 -0.0888
  507TIP3    H123012   0.410   6.841  14.295  2.3406  0.6654 -1.0246
  507TIP3    H223013   0.325   6.967  14.292  0.9367 -0.2737 -1.9636
  508TIP3   OH223014   2.176   3.536   2.055 -0.0787  0.0094 -0.2050
  508TIP3    H123015   2.190   3.481   2.132  1.7041  1.4287  0.5685
  508TIP3    H223016   2.117   3.605   2.085  0.5510  0.5166 -0.1193
  509TIP3   OH223017   4.565   4.844   1.774  0.3249 -0.7694  0.6773
  509TIP3    H123018   4.587   4.790   1.850  1.5252 -0.7121  0.3905
  509TIP3    H223019   4.588   4.933   1.801  1.0065 -0.7830  0.1622
  510TIP3   OH223020   5.850   3.672  12.286 -0.3232  0.2476 -0.1167
  510TIP3    H123021   5.780   3.633  12.338 -0.0944  1.3572  1.0621
  510TIP3    H223022   5.857   3.616  12.209 -0.3869 -1.7187  1.2402
  511TIP3   OH223023   5.961   5.812  13.070 -0.1678 -0.3096  0.1945
  511TIP3    H123024   6.032   5.841  13.013  1.6768 -1.9187  1.5394
  511TIP3    H223025   5.992   5.828  13.159 -0.8498 -2.3523  0.8620
  512TIP3   OH223026   3.082   7.242  10.585  0.0214 -0.3411  0.0986
  512TIP3    H123027   3.091   7.313  10.520  2.8898  0.3438  1.0760
  512TIP3    H223028   2.998   7.258  10.627  0.5463  2.5619  0.2761
  513TIP3   OH223029   5.942   3.686  12.817  0.0725  0.0687  0.5685
  513TIP3    H123030   5.919   3.768  12.858 -0.6615 -0.1538  0.6075
  513TIP3    H223031   5.952   3.624  12.890  1.0552  0.2138  0.5760
  514TIP3   OH223032   5.817   0.936   1.095 -0.0380  0.8810  0.4014
  514TIP3    H123033   5.818   0.892   1.010 -0.4246  0.6413  0.5237
  514TIP3    H223034   5.775   0.874   1.154 -0.7415  1.4779  0.5370
  515TIP3   OH223035   3.196   3.443   0.641  0.0548 -0.1580 -0.3510
  515TIP3    H123036   3.265   3.400   0.691  0.3192 -0.4384 -0.9444
  515TIP3    H223037   3.161   3.375   0.584 -0.3024  0.1311 -0.4848
  516TIP3   OH223038   6.614   1.448   0.431  0.2751 -0.3196 -0.1266
  516TIP3    H123039   6.603   1.455   0.336  0.7019 -3.2463 -0.4719
  516TIP3    H223040   6.552   1.380   0.457  0.2132  0.4001  1.7002
  517TIP3   OH223041   6.197   3.598  11.473 -0.4326  0.5662 -0.9866
  517TIP3    H123042   6.118   3.633  11.515  0.0641  2.0551 -1.2192
  517TIP3    H223043   6.267   3.655  11.503  0.6871 -1.1114 -0.2982
  518TIP3   OH223044   7.124   0.514  14.969 -0.2110  0.8891  0.0571
  518TIP3    H123045   7.087   0.581  15.027  1.3570  2.7544 -0.9905
  518TIP3    H223046   7.202   0.484  15.015 -0.9199 -0.2870  0.5325
  519TIP3   OH223047   6.063   0.852  15.042 -0.0250  0.2961 -0.2510
  519TIP3    H123048   6.105   0.902  15.112  1.5172 -1.4384  0.1325
  519TIP3    H223049   6.085   0.900  14.962  1.8926 -0.0324  0.0473
  520TIP3   OH223050   2.237   2.955  13.029 -0.2593  0.2615  0.2324
  520TIP3    H123051   2.189   2.873  13.043 -0.7876  0.3412 -1.0324
  520TIP3    H223052   2.282   2.970  13.112 -0.2121 -1.2697  0.5161
  521TIP3   OH223053   3.479   4.941  10.836  0.2872 -0.1600 -0.0552
  521TIP3    H123054   3.450   4.945  10.927 -0.9514 -1.9165 -0.3193
  521TIP3    H223055   3.568   4.976  10.838  0.8492 -1.5009  2.1044
  522TIP3   OH223056   2.363   1.967  12.589 -0.4538  0.7665 -0.6431
  522TIP3    H123057   2.371   2.012  12.673  1.3532  1.5159 -1.1748
  522TIP3    H223058   2.410   2.023  12.527 -1.7082  0.2062 -2.1641
  523TIP3   OH223059   0.153   6.545   9.299 -0.5390  0.0606  0.6924
  523TIP3    H123060   0.142   6.462   9.347  1.5916 -1.3768 -1.0826
  523TIP3    H223061   0.153   6.519   9.207  2.6390  1.5712  0.1122
  524TIP3   OH223062   4.450   1.710  13.086  0.1922 -0.2459  0.0328
  524TIP3    H123063   4.477   1.696  12.995 -1.9337 -0.4449 -0.6360
  524TIP3    H223064   4.409   1.797  13.086 -0.0094 -0.3312  0.7409
  525TIP3   OH223065   2.605   5.756   0.422  0.0293  0.2109  0.0766
  525TIP3    H123066   2.589   5.769   0.516 -0.1650  0.2215  0.0426
  525TIP3    H223067   2.520   5.770   0.381 -0.2429 -1.3240  0.0499
  526TIP3   OH223068   4.605   4.047  11.623  0.0066  0.2270  0.1506
  526TIP3    H123069   4.622   4.102  11.701  0.2256 -0.7402  0.8056
  526TIP3    H223070   4.542   3.982  11.653 -0.1295  0.0193 -0.5765
  527TIP3   OH223071   6.962   5.496  10.541  0.6807  0.0895 -0.2933
  527TIP3    H123072   6.926   5.520  10.456  0.5254  1.3036  0.1077
  527TIP3    H223073   7.031   5.432  10.520 -0.0396 -0.4084 -1.2397
  528TIP3   OH223074   3.936   6.088  14.560  0.0989  0.0589  0.5019
  528TIP3    H123075   3.906   5.999  14.540 -1.2910  0.3757  1.0438
  528TIP3    H223076   3.962   6.085  14.652  1.8492 -0.2202  0.0261
  529TIP3   OH223077   2.043   4.274   2.474 -0.2535  0.6444  0.0005
  529TIP3    H123078   2.137   4.295   2.468  0.5251 -1.5960  2.4472
  529TIP3    H223079   2.006   4.344   2.528  0.2836  0.8206  0.1483
  530TIP3   OH223080   4.833   0.459   2.669  0.0001  0.0988  0.1671
  530TIP3    H123081   4.904   0.496   2.722 -0.2953  1.6255 -0.4457
  530TIP3    H223082   4.761   0.522   2.679 -0.2843  0.0596 -1.4636
  531TIP3   OH223083   1.008   3.943  11.430  0.3758  0.5286 -0.3478
  531TIP3    H123084   1.072   3.915  11.495  0.2159 -0.4662 -0.5992
  531TIP3    H223085   0.927   3.955  11.479  0.1957 -0.4575 -0.3934
  532TIP3   OH223086   5.505   3.162   9.818  0.3219  0.1375  0.2809
  532TIP3    H123087   5.440   3.186   9.752  0.4351 -0.8309 -0.2051
  532TIP3    H223088   5.538   3.077   9.789  0.7532 -0.0631  1.3075
  533TIP3   OH223089   0.426   2.349   1.674 -0.6063 -0.2875  0.4322
  533TIP3    H123090   0.399   2.257   1.686  0.4391 -1.0157 -2.1022
  533TIP3    H223091   0.500   2.360   1.733 -0.5007 -1.2068  0.4901
  534TIP3   OH223092   6.390   5.103  10.712 -0.3299  0.3124 -0.4450
  534TIP3    H123093   6.389   5.194  10.742  1.3059  0.6163 -1.1752
  534TIP3    H223094   6.359   5.108  10.621 -0.5835  0.0863 -0.3719
  535TIP3   OH223095   3.250   6.861  11.972  0.3077 -0.1206  0.2776
  535TIP3    H123096   3.179   6.825  12.024  0.0816  0.2175  0.2027
  535TIP3    H223097   3.290   6.928  12.027 -0.5171  0.8887 -0.3214
  536TIP3   OH223098   2.716   0.159  13.324 -0.3415  0.0273  0.0823
  536TIP3    H123099   2.650   0.199  13.268 -1.4247 -0.0540  1.2380
  536TIP3    H223100   2.668   0.091  13.372  0.6104 -0.1357  0.8259
  537TIP3   OH223101   3.195   3.173  12.246  0.6495  0.0753 -0.1237
  537TIP3    H123102   3.171   3.188  12.155  2.7499  0.6302 -0.6334
  537TIP3    H223103   3.130   3.109  12.277 -0.9715  0.9429 -1.5480
  538TIP3   OH223104   3.095   2.215  12.691 -0.4949  0.0551  0.2782
  538TIP3    H123105   3.011   2.175  12.669 -0.2137  0.2251 -1.1684
  538TIP3    H223106   3.154   2.141  12.705 -0.6477 -0.0572  0.3294
  539TIP3   OH223107   1.143   7.149   9.996 -0.5537  0.0876 -0.7321
  539TIP3    H123108   1.164   7.113  10.083  0.6242 -1.0233 -1.4332
  539TIP3    H223109   1.049   7.136   9.987 -0.7304  0.4048  0.4497
  540TIP3   OH223110   5.067   5.978   0.657 -0.1571  0.1342 -0.4610
  540TIP3    H123111   5.136   5.934   0.606 -0.4817  0.0602 -0.8389
  540TIP3    H223112   5.014   6.023   0.591 -0.2899  0.4451 -0.1414
  541TIP3   OH223113   0.549   0.414   9.836  0.6214  0.2266  0.4223
  541TIP3    H123114   0.506   0.414   9.750  0.0742  1.8360  0.6591
  541TIP3    H223115   0.642   0.401   9.816  0.4793  0.3966 -0.4132
  542TIP3   OH223116   1.766   3.519  10.547  0.3354  0.1191 -0.0198
  542TIP3    H123117   1.853   3.520  10.587 -0.4686 -0.2176  1.8445
  542TIP3    H223118   1.737   3.428  10.555 -1.3015  0.7296  2.0773
  543TIP3   OH223119   4.900   6.006  11.362  0.1034  0.4078 -0.2180
  543TIP3    H123120   4.835   6.025  11.429 -0.0656 -0.7458 -0.0449
  543TIP3    H223121   4.980   5.985  11.411  0.0376 -0.2329 -0.3807
  544TIP3   OH223122   6.433   2.354   4.579 -0.5653  0.5613  0.0728
  544TIP3    H123123   6.397   2.398   4.656 -1.2987 -0.0679  0.1010
  544TIP3    H223124   6.396   2.401   4.505 -1.4573 -0.0640  0.1017
  545TIP3   OH223125   2.547   6.618  11.227 -0.3367  0.0698  0.1847
  545TIP3    H123126   2.575   6.550  11.289 -2.5168 -0.0003  1.1907
  545TIP3    H223127   2.541   6.573  11.143  0.0571 -0.5033  0.4543
  546TIP3   OH223128   2.526   5.607  11.465  0.0360  0.4002  0.9866
  546TIP3    H123129   2.460   5.651  11.411  0.5684  0.9652  0.7757
  546TIP3    H223130   2.555   5.674  11.527 -0.4962 -0.2154  1.9254
  547TIP3   OH223131   1.780   5.459  10.220  0.2430  0.0760 -0.0752
  547TIP3    H123132   1.775   5.554  10.230  0.3071  0.1473 -0.6723
  547TIP3    H223133   1.691   5.434  10.193  0.2277 -0.0352  0.0754
  548TIP3   OH223134   1.970   1.233  10.738 -0.1169 -0.3300 -0.5956
  548TIP3    H123135   2.060   1.203  10.755  1.0863  2.0124 -2.2573
  548TIP3    H223136   1.942   1.182  10.662 -0.6910 -1.8614  0.5886
  549TIP3   OH223137   4.131   2.108  13.945  0.0368 -0.0017  0.5124
  549TIP3    H123138   4.212   2.113  13.894  0.5865 -1.6601  1.1617
  549TIP3    H223139   4.062   2.101  13.880  0.3537  1.7160 -0.0599
  550TIP3   OH223140   4.466   4.173  12.558 -0.0252  0.3539  0.0318
  550TIP3    H123141   4.381   4.129  12.559 -0.0953  0.4548 -0.9513
  550TIP3    H223142   4.444   4.266  12.565 -0.1717  0.5830 -2.5638
  551TIP3   OH223143   0.763   6.378   4.317 -0.0568 -1.0136 -0.0358
  551TIP3    H123144   0.721   6.310   4.369  0.7222 -1.9033 -0.5154
  551TIP3    H223145   0.811   6.329   4.249 -0.4694  0.0698 -1.1444
  552TIP3   OH223146   4.609   0.924  14.799 -0.2989 -0.0358  0.0867
  552TIP3    H123147   4.600   0.981  14.875 -2.4791  0.9256 -0.7994
  552TIP3    H223148   4.642   0.981  14.729 -0.9510 -0.2151 -0.3824
  553TIP3   OH223149   3.515   2.465   9.747 -0.0972  0.2884  0.6027
  553TIP3    H123150   3.550   2.548   9.779  0.0636  0.0707  0.9846
  553TIP3    H223151   3.592   2.410   9.731 -0.2831 -0.6669  2.7202
  554TIP3   OH223152   6.714   1.224  14.008 -0.0052 -0.5873 -0.5456
  554TIP3    H123153   6.740   1.189  13.923 -0.0904 -1.1061 -0.3599
  554TIP3    H223154   6.790   1.207  14.065  0.0341 -0.2829 -0.5028
  555TIP3   OH223155   3.261   5.859  13.491  0.5390 -0.5032  0.1744
  555TIP3    H123156   3.322   5.863  13.564  0.3283 -0.1540  0.3331
  555TIP3    H223157   3.177   5.837  13.531  0.0278  1.4563  0.2883
  556TIP3   OH223158   7.086   4.243  12.095  0.1066 -0.2767 -0.1078
  556TIP3    H123159   7.132   4.262  12.013 -0.4776  1.4432 -0.0749
  556TIP3    H223160   7.031   4.167  12.074  1.1866 -0.9089 -0.8000
  557TIP3   OH223161   6.698   4.909  10.087  0.8497  0.4527 -0.5758
  557TIP3    H123162   6.793   4.903  10.073  0.6893  1.1893 -2.2145
  557TIP3    H223163   6.669   4.976  10.025 -0.9152 -0.6223 -0.9729
  558TIP3   OH223164   6.231   4.506   2.381  0.1171 -0.0361  0.5375
  558TIP3    H123165   6.171   4.451   2.330  0.8477 -1.4656  1.1524
  558TIP3    H223166   6.212   4.484   2.472  1.0109  0.0860  0.7648
  559TIP3   OH223167   0.304   1.368  10.168 -0.5451 -0.3486 -0.2650
  559TIP3    H123168   0.384   1.393  10.122  0.0489 -1.6129  0.0510
  559TIP3    H223169   0.334   1.338  10.254 -1.1875 -2.2739 -0.6830
  560TIP3   OH223170   6.760   1.736  11.417  0.0468  0.4578  0.0217
  560TIP3    H123171   6.793   1.801  11.356  1.3787  0.1330  0.3543
  560TIP3    H223172   6.839   1.697  11.456 -0.5869 -2.5994 -1.4545
  561TIP3   OH223173   1.572   6.724   9.756 -0.0857  0.5267  0.0162
  561TIP3    H123174   1.555   6.737   9.662  0.2829  1.6895  0.0872
  561TIP3    H223175   1.664   6.697   9.759  0.1133  1.1768  0.0688
  562TIP3   OH223176   0.456   4.290  13.426 -0.6075 -0.0480  0.1021
  562TIP3    H123177   0.417   4.313  13.510 -0.1843  1.6127 -0.1247
  562TIP3    H223178   0.423   4.356  13.365 -0.8829 -1.1987 -1.0513
  563TIP3   OH223179   2.031   2.561  10.192  0.3059  0.4221 -0.4099
  563TIP3    H123180   1.999   2.624  10.257  1.5936  0.7739 -0.0867
  563TIP3    H223181   2.053   2.483  10.243 -1.5019 -0.4156 -0.8365
  564TIP3   OH223182   0.290   1.800   9.098  0.0252 -0.2758 -0.4058
  564TIP3    H123183   0.359   1.866   9.099  0.6172 -0.8915  0.9692
  564TIP3    H223184   0.315   1.737   9.165 -2.0513 -0.3264  0.4074
  565TIP3   OH223185   4.943   5.271  14.332  0.0496 -0.1539 -0.2371
  565TIP3    H123186   4.995   5.208  14.382 -0.6745 -1.3263 -0.9045
  565TIP3    H223187   4.853   5.252  14.357 -0.3670 -1.0300 -2.1928
  566TIP3   OH223188   3.716   4.032  13.757  0.1882 -0.8112  0.2073
  566TIP3    H123189   3.765   4.033  13.839 -2.2987 -1.8859  1.8118
  566TIP3    H223190   3.649   3.965  13.769 -0.9680 -0.2405 -2.3118
  567TIP3   OH223191   1.581   3.118  11.626  0.8740  0.1007  0.4549
  567TIP3    H123192   1.619   3.033  11.648 -0.2051 -0.0610  1.8637
  567TIP3    H223193   1.652   3.180  11.643  1.1600 -0.3747  1.0549
  568TIP3   OH223194   4.808   5.595  14.679 -0.1264 -0.5982 -0.4216
  568TIP3    H123195   4.895   5.559  14.697  0.6679  1.6120  0.5224
  568TIP3    H223196   4.751   5.518  14.673  1.7551 -2.0711 -0.3655
  569TIP3   OH223197   1.642   6.851  10.014  0.1000  0.0852 -0.1629
  569TIP3    H123198   1.593   6.794   9.955 -0.4888 -0.1311  0.5214
  569TIP3    H223199   1.686   6.914   9.956  0.5226 -0.8738 -0.9010
  570TIP3   OH223200   4.510   1.449  13.633 -0.5167 -0.3242 -0.0755
  570TIP3    H123201   4.573   1.468  13.563 -0.2711 -0.1177  0.1972
  570TIP3    H223202   4.425   1.461  13.593 -0.3717  1.1320  0.0145
  571TIP3   OH223203   3.031   1.825   0.066  0.5547  0.0966  0.7245
  571TIP3    H123204   3.106   1.843   0.123  0.0952  0.8633  1.1068
  571TIP3    H223205   3.064   1.760   0.003  1.1329 -0.6122  1.7300
  572TIP3   OH223206   3.871   0.634   0.580 -0.5394  0.5617  0.4389
  572TIP3    H123207   3.868   0.718   0.534  1.6036  0.2437 -0.3968
  572TIP3    H223208   3.871   0.657   0.673  1.3988  1.6346  0.2294
  573TIP3   OH223209   2.305   0.682   2.216 -0.9874  0.2543 -0.8233
  573TIP3    H123210   2.260   0.764   2.199  1.5563  1.5902 -1.4535
  573TIP3    H223211   2.384   0.706   2.264 -0.9200 -2.0030  0.3629
  574TIP3   OH223212   1.535   6.853   9.482 -0.5078 -0.3540  0.9833
  574TIP3    H123213   1.577   6.940   9.485  0.3175 -0.7223  0.5468
  574TIP3    H223214   1.442   6.871   9.493 -0.6331  0.8182 -1.3319
  575TIP3   OH223215   5.300   5.152  11.222  0.5937 -0.1583 -0.5796
  575TIP3    H123216   5.349   5.073  11.243  1.0091  0.8206  2.5730
  575TIP3    H223217   5.364   5.222  11.224  0.0105  0.4653 -2.1068
  576TIP3   OH223218   5.046   6.025  14.826  0.0649 -0.3427  0.1509
  576TIP3    H123219   4.982   5.957  14.844 -0.6632  0.3274  0.1336
  576TIP3    H223220   5.125   5.996  14.871 -0.0455 -1.5016 -0.3695
  577TIP3   OH223221   3.459   5.431   1.530 -0.1452  0.5839  0.4288
  577TIP3    H123222   3.461   5.383   1.447 -1.6739 -0.5038  0.9855
  577TIP3    H223223   3.370   5.465   1.536 -0.4385 -0.3659  2.1687
  578TIP3   OH223224   6.095   6.632   9.728  0.6150 -0.4828  0.8832
  578TIP3    H123225   6.164   6.695   9.748 -0.4049  0.2205  2.4276
  578TIP3    H223226   6.066   6.654   9.640  1.3601  0.1758  0.7998
  579TIP3   OH223227   4.654   7.180   9.455  0.0564 -0.1095  0.0389
  579TIP3    H123228   4.597   7.120   9.503  0.7593 -0.0390  0.9968
  579TIP3    H223229   4.729   7.127   9.429 -0.1012 -0.0327 -0.5981
  580TIP3   OH223230   6.596   3.434  15.078  0.4094 -0.4537 -0.3716
  580TIP3    H123231   6.636   3.350  15.102 -0.0377 -0.5110  0.1828
  580TIP3    H223232   6.645   3.462  15.000 -0.4398 -1.9843 -1.5046
  581TIP3   OH223233   4.440   5.682   0.419 -0.2768 -0.0290 -0.0641
  581TIP3    H123234   4.404   5.709   0.334 -0.4279  1.4542  0.4360
  581TIP3    H223235   4.441   5.763   0.470 -0.9244 -1.0472  1.6224
  582TIP3   OH223236   4.236   0.087   0.196  0.0220  0.2320 -0.4989
  582TIP3    H123237   4.209   0.074   0.287  1.1531 -0.1293 -0.1996
  582TIP3    H223238   4.224   0.181   0.181 -0.5904  0.2217 -0.1297
  583TIP3   OH223239   7.138   4.770   9.848  0.1063  0.2180 -0.2220
  583TIP3    H123240   7.066   4.715   9.816  0.0499  0.8501 -1.2635
  583TIP3    H223241   7.186   4.794   9.768  1.9829 -0.8515  0.5273
  584TIP3   OH223242   4.252   7.041  10.711 -0.0711  0.0789  0.0481
  584TIP3    H123243   4.326   6.980  10.705  0.0521  0.1651  0.6197
  584TIP3    H223244   4.188   7.008  10.648 -0.3927 -1.1742  0.9894
  585TIP3   OH223245   5.407   0.848  13.334 -0.0530  0.3116  0.3460
  585TIP3    H123246   5.366   0.893  13.408 -0.4287  0.4296  0.0651
  585TIP3    H223247   5.460   0.915  13.291  0.3676  0.1825  0.6509
  586TIP3   OH223248   3.809   2.991  12.672  0.2183 -0.4635  0.3150
  586TIP3    H123249   3.818   3.016  12.580  0.6346 -0.3586  0.3828
  586TIP3    H223250   3.878   3.039  12.717  1.1680 -1.8543  0.4197
  587TIP3   OH223251   5.934   4.898   0.096  0.3623  0.5330 -0.0054
  587TIP3    H123252   5.903   4.870   0.183 -1.6678  0.4756 -0.7026
  587TIP3    H223253   5.911   4.990   0.091 -2.9594 -0.2516 -1.7957
  588TIP3   OH223254   3.607   6.746  12.131  0.4896  0.1223  0.2338
  588TIP3    H123255   3.595   6.768  12.223  0.5128  2.4238 -0.2488
  588TIP3    H223256   3.701   6.759  12.115  0.5011 -0.3495 -0.0884
  589TIP3   OH223257   6.812   5.993  10.418  0.2176 -0.1822 -0.0882
  589TIP3    H123258   6.748   6.039  10.364  1.0942  1.6556  0.3433
  589TIP3    H223259   6.856   5.933  10.358 -1.2594 -0.8041 -0.5787
  590TIP3   OH223260   2.201   5.200  13.857  0.1603  0.3587 -0.5087
  590TIP3    H123261   2.202   5.237  13.769  0.7918  0.5515 -0.4288
  590TIP3    H223262   2.254   5.120  13.850  1.1761  0.9681 -0.0686
  591TIP3   OH223263   7.001   0.380  13.460  0.3261 -0.2843 -0.3229
  591TIP3    H123264   6.957   0.358  13.378  0.2812 -1.3968 -0.0289
  591TIP3    H223265   6.931   0.414  13.516  0.4016  0.7053 -0.8081
  592TIP3   OH223266   0.721   4.080  14.698 -0.6161 -0.3820  0.3818
  592TIP3    H123267   0.770   3.997  14.700 -0.4960 -0.3321 -0.3487
  592TIP3    H223268   0.725   4.108  14.607 -1.2381  0.0899  0.4946
  593TIP3   OH223269   5.475   4.650   9.188 -0.0600  0.1087  0.3245
  593TIP3    H123270   5.386   4.679   9.204 -0.3188  1.2373 -2.5247
  593TIP3    H223271   5.520   4.727   9.153  0.7103 -1.5093 -2.5514
  594TIP3   OH223272   5.738   3.721   9.969 -0.0607 -0.8068 -0.4007
  594TIP3    H123273   5.812   3.662   9.956  0.2691 -0.6621  0.7815
  594TIP3    H223274   5.777   3.807   9.980 -0.4704 -0.5672 -0.7717
  595TIP3   OH223275   4.647   1.308  13.172  0.8781 -0.0210  0.6569
  595TIP3    H123276   4.696   1.388  13.158 -0.2151  0.5418 -0.0725
  595TIP3    H223277   4.598   1.324  13.253  0.1323  0.3453  0.1518
  596TIP3   OH223278   6.199   1.551  12.592 -0.0572 -0.4265  0.3062
  596TIP3    H123279   6.268   1.526  12.531  0.7789  0.0634  1.0236
  596TIP3    H223280   6.147   1.616  12.544 -0.2579 -1.0644 -0.3673
  597TIP3   OH223281   4.762   5.966  14.539  0.3938  0.6629 -0.2426
  597TIP3    H123282   4.847   5.983  14.500  0.9912 -2.4284 -0.5433
  597TIP3    H223283   4.699   5.999  14.474  1.2413  3.1378  0.0634
  598TIP3   OH223284   0.046   4.438  13.402  0.3327 -0.4122  0.1947
  598TIP3    H123285   0.067   4.531  13.404  0.1738 -0.2933 -1.5953
  598TIP3    H223286   0.059   4.408  13.492  1.6469  1.0614  0.5480
  599TIP3   OH223287   6.338   2.081  13.654 -0.2822  0.7197  0.0285
  599TIP3    H123288   6.384   2.164  13.664 -2.0661  1.8569 -0.6816
  599TIP3    H223289   6.319   2.074  13.561 -0.5680 -0.2576  0.1430
  600TIP3   OH223290   2.163   3.899  12.678 -0.0865 -0.0340  0.6002
  600TIP3    H123291   2.211   3.822  12.708  0.3694 -0.8812 -2.0308
  600TIP3    H223292   2.201   3.919  12.592 -0.5788  2.8110  0.9357
  601TIP3   OH223293   5.764   1.157   3.877  0.3378  0.9336 -0.0657
  601TIP3    H123294   5.826   1.162   3.805  2.2713  0.6126  1.5042
  601TIP3    H223295   5.801   1.093   3.937 -1.2581  1.1217  1.1935
  602TIP3   OH223296   6.836   2.844  11.198  0.6570 -0.7191  0.1528
  602TIP3    H123297   6.795   2.900  11.264  0.4723 -0.7644  0.0762
  602TIP3    H223298   6.806   2.878  11.115 -0.2592 -1.5339  0.1267
  603TIP3   OH223299   6.204   5.774   1.685 -0.3424  0.7035  0.3025
  603TIP3    H123300   6.207   5.861   1.645 -2.0468  0.1611 -1.1341
  603TIP3    H223301   6.158   5.720   1.621 -0.2786 -1.0073  1.6337
  604TIP3   OH223302   4.676   3.192   0.204 -0.2095  0.8724  0.1713
  604TIP3    H123303   4.632   3.264   0.249 -1.2649 -1.0015  2.3888
  604TIP3    H223304   4.649   3.200   0.113 -0.0085  3.4185  0.2653
  605TIP3   OH223305   6.150   0.394  12.935  0.2915  0.7246  0.4189
  605TIP3    H123306   6.227   0.344  12.908  0.7933  1.7880 -0.1578
  605TIP3    H223307   6.177   0.440  13.014 -0.1575  0.1213  0.9292
  606TIP3   OH223308   3.123   1.790  10.383  0.0030  0.3265  0.1305
  606TIP3    H123309   3.045   1.822  10.429 -1.6237 -3.2823  0.2543
  606TIP3    H223310   3.195   1.839  10.421 -2.0453  2.9744  0.9107
  607TIP3   OH223311   5.423   5.762  11.977 -0.5307 -0.0497 -0.2234
  607TIP3    H123312   5.485   5.738  11.908 -0.8457  1.0029 -0.8938
  607TIP3    H223313   5.478   5.775  12.055 -0.1999 -1.4571 -0.2023
  608TIP3   OH223314   1.121   7.090   1.400 -0.6460  0.1124 -0.0490
  608TIP3    H123315   1.093   7.053   1.484 -0.8584  0.4611  0.0348
  608TIP3    H223316   1.201   7.139   1.420 -0.8029  0.3567 -0.0116
  609TIP3   OH223317   5.440   3.173  13.652 -0.1010  0.0031 -0.3837
  609TIP3    H123318   5.463   3.216  13.734 -1.1164  1.0984 -0.6318
  609TIP3    H223319   5.469   3.083  13.662 -0.5643  0.0211  1.3420
  610TIP3   OH223320   6.725   5.431  12.726  0.2163 -0.1390 -0.9762
  610TIP3    H123321   6.753   5.389  12.807 -0.0254  1.4343 -0.0404
  610TIP3    H223322   6.637   5.464  12.745  1.3491  3.1164 -0.6645
  611TIP3   OH223323   5.056   0.973  10.749 -0.1716 -0.0953 -0.0680
  611TIP3    H123324   5.074   1.040  10.683 -0.4992 -1.9196 -2.0951
  611TIP3    H223325   5.005   1.019  10.815  0.1045  1.7953 -1.0765
  612TIP3   OH223326   5.512   5.382  10.323 -0.6692  1.0188  0.3674
  612TIP3    H123327   5.524   5.442  10.397 -2.5275  1.4570  0.3510
  612TIP3    H223328   5.593   5.330  10.322 -1.3497 -0.4378  4.0203
  613TIP3   OH223329   1.909   4.992  13.096  0.0502 -0.1863  0.5009
  613TIP3    H123330   1.920   4.991  13.001  0.2249 -1.6924  0.5104
  613TIP3    H223331   1.998   4.989  13.130 -0.0385 -1.3582  0.6768
  614TIP3   OH223332   6.173   5.771  11.802  0.1171  0.2814  0.4663
  614TIP3    H123333   6.190   5.752  11.710 -1.8206  0.3752  0.0427
  614TIP3    H223334   6.250   5.820  11.832  1.8843 -1.8108 -0.4056
  615TIP3   OH223335   5.801   6.226   0.846 -0.9671  0.4811  0.2120
  615TIP3    H123336   5.791   6.308   0.797  1.0037  0.3272 -0.5553
  615TIP3    H223337   5.757   6.160   0.792 -1.6297  0.8569  0.2922
  616TIP3   OH223338   2.904   6.233  13.517 -0.0934 -0.1260 -0.3174
  616TIP3    H123339   2.988   6.189  13.507 -0.7034 -1.3557 -0.1378
  616TIP3    H223340   2.920   6.299  13.584  0.9568  0.2814 -0.9342
  617TIP3   OH223341   4.724   4.381  14.632 -0.9569  0.8390 -0.4151
  617TIP3    H123342   4.741   4.424  14.548 -1.4016  0.3773 -0.7510
  617TIP3    H223343   4.797   4.406  14.687  0.1110 -0.0167 -1.3905
  618TIP3   OH223344   6.573   5.574  11.721  0.4440 -0.2722 -0.1585
  618TIP3    H123345   6.478   5.575  11.731  0.0330 -1.0982 -3.0623
  618TIP3    H223346   6.598   5.482  11.733  0.7740 -0.1634  0.0016
  619TIP3   OH223347   5.212   5.121   9.298  0.0024  0.2315  0.0823
  619TIP3    H123348   5.220   5.209   9.335 -0.1863  1.8765 -3.4040
  619TIP3    H223349   5.118   5.112   9.280  0.2033 -0.0940 -0.8438
  620TIP3   OH223350   5.949   1.453  13.902  0.1487  0.1566  0.0816
  620TIP3    H123351   5.958   1.549  13.903 -2.9000  0.5440  2.3581
  620TIP3    H223352   5.973   1.426  13.990 -2.6412 -0.6574  0.6656
  621TIP3   OH223353   2.579   3.413  13.607  0.0946  0.3298  0.0013
  621TIP3    H123354   2.547   3.413  13.698 -0.1793  0.9400 -0.0890
  621TIP3    H223355   2.547   3.496  13.571  1.6332  0.8789 -0.1462
  622TIP3   OH223356   1.326   3.782  10.996  0.2483 -0.0003  0.2834
  622TIP3    H123357   1.299   3.701  10.954  1.6622 -0.0301 -0.6526
  622TIP3    H223358   1.292   3.776  11.085 -1.4741 -0.6464 -0.3851
  623TIP3   OH223359   3.001   2.308   9.993 -0.1220 -0.1081 -0.3046
  623TIP3    H123360   2.953   2.225   9.987  0.3635 -0.3336 -1.5591
  623TIP3    H223361   2.943   2.372   9.951 -1.3227  0.6485  2.2846
  624TIP3   OH223362   2.890   4.602  15.155  0.1733  0.0885  0.1349
  624TIP3    H123363   2.961   4.547  15.187  1.5046  0.9051 -1.2878
  624TIP3    H223364   2.891   4.678  15.214  0.1834 -0.0859  0.3649
  625TIP3   OH223365   6.612   1.284   9.380 -0.0211 -0.1955  0.2949
  625TIP3    H123366   6.625   1.305   9.473 -0.2359 -1.1632  0.5606
  625TIP3    H223367   6.645   1.360   9.333 -0.9641  0.8078  1.2012
  626TIP3   OH223368   4.035   6.671   4.624 -0.2863  0.3286  0.2353
  626TIP3    H123369   3.997   6.606   4.564  2.8557 -0.7292 -0.7989
  626TIP3    H223370   4.078   6.619   4.692  2.3609  1.1999 -0.6511
  627TIP3   OH223371   1.351   4.711  10.575  0.4524  0.2807  0.1001
  627TIP3    H123372   1.335   4.616  10.580 -0.7689  0.2183 -2.8171
  627TIP3    H223373   1.445   4.721  10.584  0.6744 -1.3072 -0.2303
  628TIP3   OH223374   1.123   1.820  12.589  0.4529 -0.8716  0.2407
  628TIP3    H123375   1.172   1.810  12.671  0.7008  0.2433  0.2417
  628TIP3    H223376   1.187   1.858  12.528 -0.8678  2.5754  0.8105
  629TIP3   OH223377   0.852   4.765  10.400 -0.3700  0.4839 -0.7857
  629TIP3    H123378   0.941   4.746  10.431 -0.5200  0.0913 -0.5891
  629TIP3    H223379   0.797   4.700  10.444 -0.5492 -0.3252 -2.1414
  630TIP3   OH223380   1.274   4.691  11.493 -0.1463  0.2531 -0.0412
  630TIP3    H123381   1.218   4.614  11.497 -0.0456  0.1698 -0.2077
  630TIP3    H223382   1.340   4.669  11.427  0.0430  0.3754  0.1058
  631TIP3   OH223383   3.483   3.483  12.016  0.2120  0.9784  0.2167
  631TIP3    H123384   3.500   3.573  11.988  1.0718  0.5551 -0.6602
  631TIP3    H223385   3.531   3.428  11.954 -1.2643 -0.1422 -0.0138
  632TIP3   OH223386   2.801   4.142  10.227  0.0157  0.3212 -0.4729
  632TIP3    H123387   2.834   4.231  10.217 -0.1416  0.3533 -0.6977
  632TIP3    H223388   2.853   4.106  10.300  1.2356  0.0480 -1.4351
  633TIP3   OH223389   1.850   0.198  13.967  0.1158  0.6376 -0.0446
  633TIP3    H123390   1.919   0.150  13.922  0.9405  0.9925  0.7974
  633TIP3    H223391   1.801   0.241  13.897 -0.5168 -1.2196 -0.8082
  634TIP3   OH223392   0.399   2.799   9.271 -0.2479 -0.4002  0.1096
  634TIP3    H123393   0.316   2.819   9.315  0.6228 -2.0197  2.7100
  634TIP3    H223394   0.460   2.866   9.302 -0.4265  0.5403 -1.4713
  635TIP3   OH223395   1.660   1.828  12.734 -0.6685  0.1317  0.8227
  635TIP3    H123396   1.738   1.881  12.750  0.4028 -1.2468  0.3389
  635TIP3    H223397   1.602   1.849  12.807 -1.0439  3.2231 -0.1898
  636TIP3   OH223398   0.054   3.184   9.413  0.2055 -0.2565  0.1297
  636TIP3    H123399   0.025   3.275   9.407 -0.8827 -0.6676 -1.2971
  636TIP3    H223400   0.137   3.183   9.365  0.9754  0.2403  1.3838
  637TIP3   OH223401   1.986   0.045  10.748 -0.0168 -0.1397 -0.0128
  637TIP3    H123402   2.064  -0.008  10.767 -1.2142 -1.7018  0.7169
  637TIP3    H223403   2.003   0.081  10.661  0.6719 -2.0681 -0.7317
  638TIP3   OH223404   4.653   0.575  13.290 -0.2952  0.1404  0.3839
  638TIP3    H123405   4.661   0.481  13.274  0.3200  0.1151  0.7963
  638TIP3    H223406   4.576   0.601  13.240 -1.4043 -0.8737  1.4945
  639TIP3   OH223407   7.058   3.604  10.959  0.0804  0.8097  0.1485
  639TIP3    H123408   6.980   3.590  10.904  0.3086 -0.0732  0.0321
  639TIP3    H223409   7.128   3.623  10.897 -0.4518  3.8588  0.3522
  640TIP3   OH223410   7.060   6.246  13.649  0.1962  0.3023  0.4136
  640TIP3    H123411   7.038   6.179  13.714  0.0119 -0.9242 -0.8697
  640TIP3    H223412   7.151   6.230  13.626  1.1106  2.3706  2.1926
  641TIP3   OH223413   3.346   6.376  14.435  0.2959 -0.2998 -1.1033
  641TIP3    H123414   3.439   6.391  14.418  0.1396  1.6175 -0.5065
  641TIP3    H223415   3.301   6.414  14.359 -0.0597  0.3417 -0.5791
  642TIP3   OH223416   1.610   1.910   0.010  0.1409  0.3979  0.3669
  642TIP3    H123417   1.611   2.006   0.004 -1.2908  0.7444  3.5056
  642TIP3    H223418   1.521   1.886  -0.016  0.3582 -0.0408  0.0287
  643TIP3   OH223419   4.133   4.944   1.953  0.0761  0.1120  0.1163
  643TIP3    H123420   4.109   4.862   1.998  0.2577  0.3166  0.5879
  643TIP3    H223421   4.228   4.944   1.952  0.0837  0.5226  0.4987
  644TIP3   OH223422   0.577   1.730   1.345 -0.3322  0.1475  0.0643
  644TIP3    H123423   0.555   1.822   1.327 -3.7461 -0.2473  1.4306
  644TIP3    H223424   0.615   1.731   1.433 -2.4524  0.1294  1.0424
  645TIP3   OH223425   5.461   6.221  14.744  0.0412 -0.1657 -0.0437
  645TIP3    H123426   5.409   6.266  14.810  0.5822  0.7702 -0.2391
  645TIP3    H223427   5.548   6.212  14.784  0.1494 -0.3235 -0.3153
  646TIP3   OH223428   0.774   5.880  10.578  0.1801  0.1040  0.2315
  646TIP3    H123429   0.770   5.821  10.503 -0.1495 -0.5773  0.7673
  646TIP3    H223430   0.867   5.895  10.592  0.2414  0.3031 -0.3582
  647TIP3   OH223431   0.434   2.542  14.384  0.9130 -0.7604 -0.2633
  647TIP3    H123432   0.473   2.460  14.354  1.3127 -0.8310  0.4249
  647TIP3    H223433   0.350   2.547  14.339  2.3244  0.1742 -3.0439
  648TIP3   OH223434   0.207   2.986   9.843 -0.8198  0.0924 -0.0624
  648TIP3    H123435   0.166   2.899   9.840 -0.0325 -0.2649 -0.5461
  648TIP3    H223436   0.149   3.041   9.791 -1.4532 -0.0762  0.4437
  649TIP3   OH223437   4.326   4.421   4.506  0.2210 -0.4288  0.6837
  649TIP3    H123438   4.283   4.504   4.484  0.3664 -0.2900  0.9174
  649TIP3    H223439   4.254   4.357   4.506  0.3265 -0.5924 -0.9342
  650TIP3   OH223440   4.271   7.049   1.288 -0.1652  0.2798  1.1733
  650TIP3    H123441   4.189   7.010   1.259 -0.4538  1.4615  0.3218
  650TIP3    H223442   4.338   6.983   1.268 -0.6331  0.1922 -0.2370
  651TIP3   OH223443   6.114   3.866  13.234  0.0286 -0.3314  0.0912
  651TIP3    H123444   6.128   3.879  13.141  0.0379  1.0165  0.2634
  651TIP3    H223445   6.201   3.875  13.273  0.3107 -2.5079  0.1036
  652TIP3   OH223446   3.742   2.656  12.005 -0.0854  0.2305  0.4181
  652TIP3    H123447   3.699   2.679  12.088 -2.1178 -0.4874 -0.3651
  652TIP3    H223448   3.791   2.577  12.024  0.1405  0.5351  1.1275
  653TIP3   OH223449   0.581   1.496  13.794 -0.2642  0.3889  0.0402
  653TIP3    H123450   0.522   1.467  13.863  1.0646 -1.0102  0.6512
  653TIP3    H223451   0.639   1.559  13.837 -0.4909  0.7742 -0.2207
  654TIP3   OH223452   2.090   5.802  11.969  0.1043  0.1081  0.0341
  654TIP3    H123453   2.144   5.761  11.901  0.7396  1.0651 -0.0600
  654TIP3    H223454   2.006   5.816  11.926  0.6540  1.1683 -0.7459
  655TIP3   OH223455   2.578   3.733  12.803  0.5654 -0.2358 -0.0353
  655TIP3    H123456   2.574   3.686  12.886  0.4240 -2.4227 -1.2083
  655TIP3    H223457   2.587   3.825  12.828 -1.8099 -0.5444  2.4412
  656TIP3   OH223458   5.570   4.438  14.868 -0.0016 -0.1175  0.0290
  656TIP3    H123459   5.604   4.456  14.781 -0.8153 -0.1176 -0.2955
  656TIP3    H223460   5.603   4.351  14.889  0.5162  0.0428 -0.1184
  657TIP3   OH223461   0.679   4.894  10.055  0.0564 -0.2982 -0.5097
  657TIP3    H123462   0.765   4.894  10.013  0.0030 -0.5392 -0.6221
  657TIP3    H223463   0.617   4.896   9.982 -0.0467 -1.5538 -0.4693
  658TIP3   OH223464   4.705   1.294  14.749 -0.2345 -0.0545 -0.0102
  658TIP3    H123465   4.777   1.248  14.707 -0.7370  0.2799 -1.3022
  658TIP3    H223466   4.637   1.298  14.682 -1.1085  0.4348  0.8773
  659TIP3   OH223467   7.239   6.780  11.647 -0.2299 -0.2622  0.3641
  659TIP3    H123468   7.253   6.773  11.552  0.1215  1.9327  0.1965
  659TIP3    H223469   7.294   6.854  11.673 -2.2099  0.7589  1.8554
  660TIP3   OH223470   2.915   3.691  13.192  0.1465  0.1509 -0.5618
  660TIP3    H123471   2.900   3.673  13.285  0.9931 -1.2380 -0.6783
  660TIP3    H223472   2.924   3.605  13.151 -0.3245  0.7355 -1.9683
  661TIP3   OH223473   1.949   1.147  13.092  0.1955 -0.1656  0.3385
  661TIP3    H123474   1.974   1.214  13.028  0.1925  1.2029  1.7093
  661TIP3    H223475   1.856   1.132  13.075  0.1831  0.2112  0.0409
  662TIP3   OH223476   1.718   1.729  14.164 -0.3392 -0.1999  0.1930
  662TIP3    H123477   1.777   1.679  14.221 -0.7369 -1.0375 -0.1043
  662TIP3    H223478   1.719   1.680  14.081 -0.4790  0.4820 -0.2143
  663TIP3   OH223479   3.237   1.194  10.751  0.5098 -0.0654 -0.2303
  663TIP3    H123480   3.319   1.147  10.769  0.2007  0.0764  1.7199
  663TIP3    H223481   3.214   1.167  10.662  2.2742 -0.6862 -0.5477
  664TIP3   OH223482   5.131   2.892  11.033  0.1204  0.6169 -0.0790
  664TIP3    H123483   5.183   2.889  11.113  0.1261  2.0371  0.0005
  664TIP3    H223484   5.133   2.803  11.000  0.6308  0.1332  1.1766
  665TIP3   OH223485   1.419   2.090  14.258  0.1573 -0.5295  0.4887
  665TIP3    H123486   1.429   2.034  14.181 -0.3284  0.2034 -0.1280
  665TIP3    H223487   1.508   2.117  14.280  0.1636  3.7586 -3.2685
  666TIP3   OH223488   6.552   1.391   1.527 -0.0952 -0.2905  0.1902
  666TIP3    H123489   6.475   1.447   1.515  0.0514 -0.3295 -1.0783
  666TIP3    H223490   6.589   1.418   1.611 -0.3312  1.1436 -0.1426
  667TIP3   OH223491   0.577   0.964  12.011  0.8477 -0.4303 -0.3938
  667TIP3    H123492   0.646   1.017  12.049  1.2783 -0.4011 -1.1852
  667TIP3    H223493   0.564   0.892  12.073  0.4770  0.4200  0.5259
  668TIP3   OH223494   5.338   3.961  12.204  0.2800  0.1065  0.2297
  668TIP3    H123495   5.276   3.896  12.236 -1.5629  1.3915 -0.5030
  668TIP3    H223496   5.374   3.923  12.124 -2.6667  0.8447 -1.6229
  669TIP3   OH223497   1.253   5.544  11.631 -0.4209  0.0735 -0.4002
  669TIP3    H123498   1.297   5.621  11.596 -0.8318 -0.0049 -1.0949
  669TIP3    H223499   1.209   5.575  11.711  0.2016  0.3345 -0.1537
  670TIP3   OH223500   4.546   5.901  13.780 -0.2291  0.6682  0.4164
  670TIP3    H123501   4.473   5.954  13.813 -0.5763  0.0384  0.6709
  670TIP3    H223502   4.561   5.836  13.848 -1.3648 -1.0427 -0.8966
  671TIP3   OH223503   4.379   7.044  10.998  0.3680  0.1631 -0.2391
  671TIP3    H123504   4.301   7.030  11.051 -0.3056  1.5910 -0.7804
  671TIP3    H223505   4.419   7.123  11.035  1.6254 -0.6018  0.0894
  672TIP3   OH223506   2.631   4.289  14.849 -0.5347 -0.5636  0.6647
  672TIP3    H123507   2.654   4.338  14.928 -0.7675  0.5081  0.0963
  672TIP3    H223508   2.543   4.255  14.866 -0.9119  0.3312  0.5864
  673TIP3   OH223509   3.307   2.758  13.581  0.0810  0.5731  0.4123
  673TIP3    H123510   3.261   2.777  13.663  2.2075  0.2622  1.7536
  673TIP3    H223511   3.241   2.716  13.526 -0.6603 -2.1790  3.1317
  674TIP3   OH223512   6.017   2.846  12.094 -0.5892  0.6659  0.0974
  674TIP3    H123513   5.945   2.901  12.062 -0.3279  0.7970 -0.2743
  674TIP3    H223514   5.989   2.819  12.182 -0.7511  1.3292  0.2553
  675TIP3   OH223515   3.484   6.847   1.869  0.1850  0.1563  0.2777
  675TIP3    H123516   3.573   6.812   1.869  0.5438  0.8574 -2.4660
  675TIP3    H223517   3.454   6.837   1.779 -1.7466  1.8340  0.6587
  676TIP3   OH223518   4.842   4.843  11.984 -0.1461  0.2800  0.5321
  676TIP3    H123519   4.859   4.860  12.077 -0.9007 -1.2082  0.9705
  676TIP3    H223520   4.881   4.918  11.939 -0.1514  1.2600  2.0739
  677TIP3   OH223521   3.435   0.279  10.749  0.1222 -0.3072 -0.1026
  677TIP3    H123522   3.342   0.269  10.771  0.1533  0.4147  0.3925
  677TIP3    H223523   3.440   0.364  10.705  0.4819 -0.5564 -0.5516
  678TIP3   OH223524   3.868   6.053  11.387 -0.5768 -0.2769 -0.1394
  678TIP3    H123525   3.774   6.069  11.381 -0.9281 -1.4005  1.7061
  678TIP3    H223526   3.880   5.968  11.344 -0.4226 -0.2042 -0.2405
  679TIP3   OH223527   0.729   6.686  13.528 -0.0141 -0.4542 -0.1792
  679TIP3    H123528   0.719   6.701  13.434 -1.3133  0.7972  0.1351
  679TIP3    H223529   0.742   6.773  13.565 -0.7943 -0.7928  0.9385
  680TIP3   OH223530   2.170   0.529  15.010 -0.1134 -0.3565  0.3774
  680TIP3    H123531   2.192   0.488  15.093  0.5460 -1.0936 -0.1509
  680TIP3    H223532   2.178   0.459  14.945  2.0114  0.8035 -0.7059
  681TIP3   OH223533   2.735   2.239  14.087 -0.4375 -0.4453 -0.5601
  681TIP3    H123534   2.678   2.209  14.157 -1.1651  0.3812 -0.7838
  681TIP3    H223535   2.814   2.270  14.131 -1.0109  0.3511 -0.0732
  682TIP3   OH223536   5.107   4.170  14.396  0.6045  0.9261  0.4590
  682TIP3    H123537   5.197   4.167  14.364  0.4909  0.9224  0.1366
  682TIP3    H223538   5.057   4.207  14.323  0.1988  0.0517  0.2840
  683TIP3   OH223539   5.479   3.323  13.100  0.3251 -0.0661  0.4159
  683TIP3    H123540   5.540   3.373  13.154 -1.4021  0.4331  2.0163
  683TIP3    H223541   5.393   3.344  13.136 -0.6763 -2.0424 -0.6702
  684TIP3   OH223542   3.170   1.755   9.542 -0.2451  0.3244 -0.0477
  684TIP3    H123543   3.201   1.841   9.513 -0.3934  1.0351  1.8058
  684TIP3    H223544   3.077   1.753   9.517 -0.1722  0.5718 -0.3477
  685TIP3   OH223545   5.386   3.293   4.369  0.4334  0.0567  0.0106
  685TIP3    H123546   5.348   3.217   4.324  0.4480  1.1881 -2.0317
  685TIP3    H223547   5.477   3.295   4.339  1.0533 -0.3452  1.7684
  686TIP3   OH223548   2.052   3.706  10.208 -0.2903  0.2576  0.2370
  686TIP3    H123549   1.980   3.643  10.216  2.0662 -2.5868  0.4245
  686TIP3    H223550   2.012   3.790  10.231 -3.5577 -1.1359  0.2303
  687TIP3   OH223551   5.801   1.917  11.814  0.6722  0.1894 -0.1865
  687TIP3    H123552   5.747   1.839  11.800  0.3117  0.5462 -0.7922
  687TIP3    H223553   5.855   1.923  11.736  0.6802  0.5651 -0.1525
  688TIP3   OH223554   2.834   3.866  11.355 -0.6426 -0.0526  0.0853
  688TIP3    H123555   2.899   3.936  11.348  0.2055 -0.7983  0.3012
  688TIP3    H223556   2.858   3.805  11.285  0.1112 -1.3062  1.3926
  689TIP3   OH223557   5.752   2.823  12.706  0.4581 -0.3869 -0.4993
  689TIP3    H123558   5.690   2.863  12.767 -0.8322  0.0371 -2.0105
  689TIP3    H223559   5.765   2.734  12.739  0.9503  0.2840  1.1817
  690TIP3   OH223560   5.068   4.309  12.963 -0.4108 -0.1667 -0.0700
  690TIP3    H123561   5.160   4.310  12.934 -0.7706 -0.8581 -1.3003
  690TIP3    H223562   5.030   4.388  12.923 -0.3416  0.1710  0.5167
  691TIP3   OH223563   3.729   3.676  10.110 -0.0382 -0.7659 -0.2618
  691TIP3    H123564   3.744   3.725  10.029 -0.1991 -0.4582 -0.1100
  691TIP3    H223565   3.706   3.744  10.174  0.2097 -0.9933  0.0714
  692TIP3   OH223566   0.195   3.877  11.865 -0.7259 -0.2913 -0.8193
  692TIP3    H123567   0.134   3.938  11.824  1.1856  1.9583 -0.5571
  692TIP3    H223568   0.243   3.930  11.929  1.9386 -1.7147 -1.4684
  693TIP3   OH223569   0.949   2.517  12.374 -0.3288  0.2366 -0.1433
  693TIP3    H123570   0.916   2.484  12.291 -1.8678  0.5520  0.3215
  693TIP3    H223571   0.871   2.539  12.425  0.5638 -0.4715  1.6093
  694TIP3   OH223572   3.466   4.118  11.310  0.0053 -0.3417  0.4463
  694TIP3    H123573   3.421   4.119  11.225 -0.8469  1.5604  0.8821
  694TIP3    H223574   3.460   4.026  11.338 -2.2234 -0.4830 -0.2618
  695TIP3   OH223575   5.518   5.135  14.867 -0.3598 -0.2230 -0.4389
  695TIP3    H123576   5.518   5.049  14.907  1.3428 -0.7723 -1.5138
  695TIP3    H223577   5.583   5.185  14.917  1.2454 -0.6896 -1.9893
  696TIP3   OH223578   7.200   1.919  10.709 -0.1502  0.1983  0.3528
  696TIP3    H123579   7.151   1.918  10.792  2.4818 -2.4629  2.0900
  696TIP3    H223580   7.212   1.826  10.688  2.0920  0.7751 -1.2249
  697TIP3   OH223581   5.941   1.140  12.354  0.2466  0.5407 -0.1556
  697TIP3    H123582   5.950   1.100  12.440  1.2965  1.5489  0.2343
  697TIP3    H223583   5.995   1.219  12.359 -0.8421  1.3953 -1.2556
  698TIP3   OH223584   6.758   1.103  11.620  0.2555  0.0751 -0.0705
  698TIP3    H123585   6.769   1.133  11.710 -0.9369 -0.7548  0.3773
  698TIP3    H223586   6.665   1.083  11.612  0.3002  0.3220 -1.5600
  699TIP3   OH223587   6.350   4.657  13.246 -0.3228  0.5263  0.9880
  699TIP3    H123588   6.373   4.730  13.188 -0.4830  0.5991  1.0159
  699TIP3    H223589   6.434   4.619  13.270 -0.2400  0.6743  0.9391
  700TIP3   OH223590   2.268   2.668   0.053  0.6477  0.6819  0.4975
  700TIP3    H123591   2.323   2.717  -0.007  1.5358  0.4516  1.0999
  700TIP3    H223592   2.180   2.704   0.040  1.1514  1.9390  0.4402
  701TIP3   OH223593   2.143   0.396   0.205  0.3518  0.2195  0.6181
  701TIP3    H123594   2.223   0.403   0.257 -0.1657  2.0381  1.2284
  701TIP3    H223595   2.073   0.388   0.269 -0.3811  3.3314  0.3696
  702TIP3   OH223596   2.501   7.128  11.328 -0.6655 -0.0776 -0.0620
  702TIP3    H123597   2.475   7.107  11.418  0.6308  1.1585  0.6308
  702TIP3    H223598   2.486   7.046  11.280 -3.4157 -0.1653  0.7717
  703TIP3   OH223599   5.864   1.848  13.355 -0.3867 -0.4569 -0.0584
  703TIP3    H123600   5.788   1.808  13.399  0.1136  0.6930  1.9883
  703TIP3    H223601   5.871   1.935  13.395  1.2042 -0.0227 -1.2102
  704TIP3   OH223602   1.726   1.860  11.229 -0.2956  0.8332 -0.5254
  704TIP3    H123603   1.770   1.826  11.151 -1.6098 -0.0474 -0.9296
  704TIP3    H223604   1.794   1.864  11.295  0.0272 -2.7566 -0.4160
  705TIP3   OH223605   0.150   2.513  12.726  0.2828  0.7616  0.2172
  705TIP3    H123606   0.101   2.521  12.808  0.3640  0.2574  0.3179
  705TIP3    H223607   0.106   2.444  12.678 -0.7579  2.1568 -0.8940
  706TIP3   OH223608   3.574   2.044   1.259  0.2255  0.1959  0.3579
  706TIP3    H123609   3.635   1.972   1.242  0.4418  0.1560  1.2294
  706TIP3    H223610   3.510   2.039   1.188  0.5991 -0.4688  0.0626
  707TIP3   OH223611   5.634   0.249  10.505  0.4711 -0.1515 -0.4580
  707TIP3    H123612   5.555   0.195  10.493  0.7608 -0.4316 -1.1866
  707TIP3    H223613   5.604   0.323  10.557 -0.0665 -0.7232  0.0643
  708TIP3   OH223614   1.010   5.725   9.985  0.1020 -0.0978 -0.6901
  708TIP3    H123615   1.061   5.795  10.026  0.9843 -0.8063 -0.5655
  708TIP3    H223616   1.065   5.647   9.992 -1.9053 -1.4529  1.5781
  709TIP3   OH223617   0.454   5.240   1.709  0.1599  0.3573 -0.3239
  709TIP3    H123618   0.506   5.173   1.753  0.0080 -0.2364 -1.0432
  709TIP3    H223619   0.489   5.243   1.620 -2.2203 -1.3438 -1.3849
  710TIP3   OH223620   5.080   2.408  10.462  0.1567 -0.0794  0.4366
  710TIP3    H123621   5.017   2.368  10.522 -0.7780  0.6849 -0.0080
  710TIP3    H223622   5.088   2.344  10.391  0.1158 -0.3123  0.6397
  711TIP3   OH223623   6.318   1.901  11.424  0.1047  0.6595 -0.2142
  711TIP3    H123624   6.413   1.906  11.416  0.4099 -1.2323  1.4252
  711TIP3    H223625   6.302   1.889  11.518 -1.7249  0.6110 -0.4895
  712TIP3   OH223626   3.473   3.704  10.450  0.6826  0.2183  0.0852
  712TIP3    H123627   3.447   3.695  10.358 -0.2799 -0.9603  0.4403
  712TIP3    H223628   3.561   3.742  10.447  1.8956 -2.4215 -1.4516
  713TIP3   OH223629   2.965   2.497  11.297  0.1214 -0.7821  0.0508
  713TIP3    H123630   2.944   2.424  11.356 -2.5327 -0.2863 -0.1521
  713TIP3    H223631   2.985   2.455  11.214 -1.3651 -1.3256 -0.0623
  714TIP3   OH223632   3.691   5.890  12.685 -0.0643  0.5063  0.2531
  714TIP3    H123633   3.782   5.915  12.671  0.2631 -0.7995 -0.0712
  714TIP3    H223634   3.670   5.830  12.613 -0.6484 -0.5259  1.2384
  715TIP3   OH223635   3.426   3.607   2.426  0.1711  0.1798 -0.2073
  715TIP3    H123636   3.509   3.559   2.420 -0.2641 -0.6069 -0.0503
  715TIP3    H223637   3.400   3.598   2.518 -0.5382 -0.3672 -0.4492
  716TIP3   OH223638   0.950   6.726  11.102 -0.1115 -0.8296  0.0960
  716TIP3    H123639   0.873   6.772  11.137 -0.9553 -1.3684 -1.0120
  716TIP3    H223640   0.974   6.665  11.172  1.4749  1.6751  1.9219
  717TIP3   OH223641   4.321   2.576   1.933  0.3751 -0.3456  0.5214
  717TIP3    H123642   4.404   2.579   1.885  1.5292  0.6916  2.4724
  717TIP3    H223643   4.282   2.662   1.917 -0.2671 -0.7737 -0.2611
  718TIP3   OH223644   3.337   0.953   2.036  0.1908 -0.1135  0.5625
  718TIP3    H123645   3.284   1.030   2.015 -0.6863 -1.2320 -1.5612
  718TIP3    H223646   3.365   0.968   2.126  0.4552  2.9131  0.0941
  719TIP3   OH223647   2.287   3.538  10.254  0.0309 -0.2999  0.5552
  719TIP3    H123648   2.227   3.601  10.214  0.8570 -1.4611 -2.9391
  719TIP3    H223649   2.366   3.589  10.271  0.0812  0.0287 -0.5542
  720TIP3   OH223650   2.274   0.568  11.653 -0.1450 -0.1376  0.6251
  720TIP3    H123651   2.232   0.498  11.604  0.8812 -0.4098  0.1020
  720TIP3    H223652   2.213   0.642  11.647 -0.3000 -0.3496 -0.5672
  721TIP3   OH223653   4.970   2.582   0.568  0.0529  0.4237 -0.5002
  721TIP3    H123654   4.970   2.523   0.643  0.8106 -0.0106 -0.8322
  721TIP3    H223655   5.025   2.655   0.595 -1.0705  1.1191 -0.0027
  722TIP3   OH223656   6.546   2.782  10.265  0.0801  0.7990 -0.1419
  722TIP3    H123657   6.484   2.747  10.328 -1.3731  1.3129 -1.2383
  722TIP3    H223658   6.604   2.708  10.246 -0.1525  0.3221  0.9296
  723TIP3   OH223659   4.383   1.688  12.447 -0.4822 -0.6442  0.2947
  723TIP3    H123660   4.289   1.682  12.464 -1.1136  1.9084 -1.6218
  723TIP3    H223661   4.408   1.599  12.421 -1.6163 -2.1029  3.6718
  724TIP3   OH223662   3.682   0.998  14.764 -0.1060  0.0708  0.0225
  724TIP3    H123663   3.745   0.974  14.833  0.0963  0.6267  0.0424
  724TIP3    H223664   3.604   0.946  14.783  0.1457 -0.1969  0.3409
  725TIP3   OH223665   5.110   2.659  13.152 -0.1964 -0.0387 -0.3855
  725TIP3    H123666   5.155   2.739  13.177 -0.1741  0.0698 -0.7727
  725TIP3    H223667   5.051   2.685  13.081 -1.0797 -0.1142  0.2987
  726TIP3   OH223668   6.504   3.802  15.094 -0.2161 -0.2585  0.1558
  726TIP3    H123669   6.445   3.760  15.031 -0.1573  1.3380 -1.0277
  726TIP3    H223670   6.467   3.779  15.179 -1.0433 -1.4311 -0.4823
  727TIP3   OH223671   4.860   1.605  14.859 -0.3927 -0.2620  0.1206
  727TIP3    H123672   4.932   1.630  14.801  0.8652  0.3303  1.8383
  727TIP3    H223673   4.879   1.515  14.884 -1.2624 -0.7247 -0.8192
  728TIP3   OH223674   4.262   0.177  12.389 -0.6530 -0.5519  0.2492
  728TIP3    H123675   4.229   0.226  12.314  1.6719 -0.5471 -0.8607
  728TIP3    H223676   4.329   0.235  12.427 -2.5475 -0.0382  3.1130
  729TIP3   OH223677   3.586   4.000  10.959  1.0043 -0.0051  0.0282
  729TIP3    H123678   3.641   3.922  10.961  0.3558 -0.5289  3.0256
  729TIP3    H223679   3.646   4.071  10.938  1.5324 -1.2543 -3.2279
  730TIP3   OH223680   5.848   0.788  12.972  0.3256  0.3537  0.0248
  730TIP3    H123681   5.864   0.714  12.913 -1.7845 -2.5008  2.7172
  730TIP3    H223682   5.753   0.795  12.977  0.4310  3.4743 -0.2033
  731TIP3   OH223683   3.807   6.986  12.436 -0.0329  0.0378  0.0115
  731TIP3    H123684   3.892   6.955  12.467  0.0801 -1.3152 -1.5198
  731TIP3    H223685   3.744   6.945  12.496  0.3830  2.2630  2.1160
  732TIP3   OH223686   0.150   6.998  10.724 -0.3524 -0.4827 -0.1212
  732TIP3    H123687   0.103   6.922  10.760 -1.2687  0.4277  0.6819
  732TIP3    H223688   0.084   7.044  10.671 -0.2246  0.4982  0.5415
  733TIP3   OH223689   3.523   2.509  11.435  0.0247  0.5827 -0.6422
  733TIP3    H123690   3.516   2.426  11.482  1.8663  1.8802  2.1942
  733TIP3    H223691   3.448   2.561  11.465  0.4042  0.8900 -0.1930
  734TIP3   OH223692   4.858   0.378  13.092 -0.5802 -0.1396 -0.9667
  734TIP3    H123693   4.903   0.435  13.154 -0.0192  0.3895 -1.8363
  734TIP3    H223694   4.848   0.432  13.013  0.0438 -1.2774 -1.8403
  735TIP3   OH223695   0.586   6.231  15.189 -0.2321  0.0970 -0.0392
  735TIP3    H123696   0.513   6.179  15.224 -0.0115  0.4644  1.0023
  735TIP3    H223697   0.618   6.180  15.115  0.0239 -1.3159  0.9935
  736TIP3   OH223698   3.082   5.116  12.749 -0.4627  0.1060  0.1289
  736TIP3    H123699   3.000   5.142  12.792 -1.6816 -2.3904 -0.4596
  736TIP3    H223700   3.082   5.020  12.756  2.0572 -0.0069 -0.5956
  737TIP3   OH223701   2.905   6.324  10.892 -0.2109  0.0032 -0.3556
  737TIP3    H123702   2.955   6.394  10.934 -0.3026  0.8657 -1.6338
  737TIP3    H223703   2.972   6.264  10.857 -0.1262 -1.1047  1.5222
  738TIP3   OH223704   3.761   0.713  13.696 -0.2037  0.3380  0.5113
  738TIP3    H123705   3.695   0.746  13.634 -0.8121 -0.0616  0.9351
  738TIP3    H223706   3.719   0.721  13.782  0.6983  1.0472  0.8990
  739TIP3   OH223707   4.161   1.372   2.705 -0.1451  0.0266  0.2670
  739TIP3    H123708   4.201   1.289   2.732  0.6331  0.1883 -0.3635
  739TIP3    H223709   4.070   1.365   2.735  0.6008  0.1627  2.8543
  740TIP3   OH223710   6.179   3.682   3.959  0.2589  0.8062 -0.5329
  740TIP3    H123711   6.142   3.594   3.970 -0.0188  0.7121 -1.9608
  740TIP3    H223712   6.166   3.701   3.866  2.1352  1.5457 -0.6746
  741TIP3   OH223713   2.972   6.349   2.622 -0.1465 -0.2730 -0.3259
  741TIP3    H123714   3.044   6.329   2.681 -0.7088 -1.1624  0.0761
  741TIP3    H223715   3.014   6.377   2.541  0.6355  0.0789  0.1874
  742TIP3   OH223716   6.468   1.455  10.384 -0.0563 -0.0310 -0.5193
  742TIP3    H123717   6.464   1.498  10.299  0.5671 -1.2261 -1.1818
  742TIP3    H223718   6.543   1.396  10.378  1.3834  1.4167  1.6277
  743TIP3   OH223719   5.107   5.888  11.521 -0.3442  0.1236 -0.2845
  743TIP3    H123720   5.188   5.849  11.489  1.4820  4.0268 -0.9533
  743TIP3    H223721   5.119   5.893  11.616 -0.3277 -0.3311 -0.2598
  744TIP3   OH223722   5.023   4.629  14.607 -0.0658  0.3652 -0.0700
  744TIP3    H123723   5.035   4.562  14.539  1.7727 -0.5794  1.0945
  744TIP3    H223724   4.995   4.707  14.559 -3.4526 -1.4419 -1.3743
  745TIP3   OH223725   6.248   6.175  12.531  0.2034  0.1034 -0.2518
  745TIP3    H123726   6.161   6.151  12.562  0.6482 -0.5032  0.5534
  745TIP3    H223727   6.305   6.165  12.608  0.9782  0.5391 -0.7501
  746TIP3   OH223728   0.578   5.057  12.702  0.1040  0.9145 -0.0804
  746TIP3    H123729   0.555   5.057  12.795  1.4193 -1.9837  0.3251
  746TIP3    H223730   0.498   5.029  12.658  0.1479 -0.0346  0.4241
  747TIP3   OH223731   0.073   0.579  13.045 -0.1453 -0.7308 -0.8397
  747TIP3    H123732   0.064   0.631  13.125 -0.5458 -3.8867  1.3631
  747TIP3    H223733   0.069   0.643  12.974 -3.4019  1.9935  1.4560
  748TIP3   OH223734   0.831   2.969  12.493  0.5437 -0.5751 -0.2560
  748TIP3    H123735   0.869   3.045  12.449  1.7960 -1.0138  0.0417
  748TIP3    H223736   0.821   2.997  12.584 -0.4417 -0.2640 -0.4382
  749TIP3   OH223737   3.152   4.885   9.572  0.1728 -0.5875 -0.0106
  749TIP3    H123738   3.119   4.800   9.543 -0.4225 -0.4803  0.3235
  749TIP3    H223739   3.197   4.866   9.655  0.6997 -0.6873 -0.3141
  750TIP3   OH223740   4.504   0.612  12.376  0.0367  0.0344  0.3379
  750TIP3    H123741   4.555   0.574  12.447  0.6543  0.1135 -0.0601
  750TIP3    H223742   4.532   0.703  12.372 -1.5212  0.6070  1.3675
  751TIP3   OH223743   5.911   1.204   0.473  0.4440 -0.2301 -0.5128
  751TIP3    H123744   5.951   1.239   0.394 -0.8751 -0.3860 -1.2853
  751TIP3    H223745   5.899   1.110   0.454 -2.1633  0.1517 -1.2092
  752TIP3   OH223746   2.334   6.204  11.474  0.6531 -0.1363 -0.5637
  752TIP3    H123747   2.365   6.169  11.557  0.4389  0.3117 -0.2954
  752TIP3    H223748   2.298   6.128  11.428  1.6992 -0.5770 -0.6794
  753TIP3   OH223749   5.975   4.372   1.594 -0.0091 -0.2784 -0.0654
  753TIP3    H123750   5.933   4.458   1.600 -0.5065 -0.5478  0.5115
  753TIP3    H223751   5.913   4.319   1.543  0.8107  0.0001 -1.3789
  754TIP3   OH223752   2.633   6.631  10.386 -0.1376 -0.2557  0.4926
  754TIP3    H123753   2.637   6.720  10.421 -0.1744  0.7985 -1.9561
  754TIP3    H223754   2.710   6.625  10.329  0.0005 -1.9023  0.8160
  755TIP3   OH223755   1.188   3.871  10.615 -0.6013  0.2003 -0.0109
  755TIP3    H123756   1.185   3.937  10.545  1.4879  0.6268  0.2559
  755TIP3    H223757   1.206   3.921  10.694  1.1994 -0.6669  0.1758
  756TIP3   OH223758   4.728   0.331  12.485  0.2679 -0.0497  0.0506
  756TIP3    H123759   4.803   0.277  12.462 -1.1003 -1.7103 -0.7527
  756TIP3    H223760   4.758   0.421  12.471  2.4213 -0.5904  0.8235
  757TIP3   OH223761   2.149   3.002   1.190  0.1344  0.0571 -0.1115
  757TIP3    H123762   2.221   3.057   1.218  0.1803 -0.7298  1.4204
  757TIP3    H223763   2.185   2.913   1.189 -0.2833 -0.1208 -1.2875
  758TIP3   OH223764   5.152   2.943  13.161  0.0970 -0.1859 -0.4624
  758TIP3    H123765   5.130   2.962  13.069 -0.1784  0.2899 -0.3003
  758TIP3    H223766   5.192   3.024  13.193 -1.8459  0.4484  0.4770
  759TIP3   OH223767   1.265   4.302   2.777  0.2768  0.6009 -0.5860
  759TIP3    H123768   1.220   4.224   2.811 -1.5277  1.8706  0.1292
  759TIP3    H223769   1.255   4.296   2.682 -0.7716  0.4423 -0.4841
  760TIP3   OH223770   5.527   3.767  11.516 -0.2353 -0.7910  0.3263
  760TIP3    H123771   5.573   3.847  11.542 -1.2172 -0.1466  0.1770
  760TIP3    H223772   5.480   3.792  11.436 -1.6370 -1.1051  1.0214
  761TIP3   OH223773   5.089   0.450  11.925 -0.0848  0.6293  0.0417
  761TIP3    H123774   5.056   0.363  11.949  1.1021  0.2096  0.2218
  761TIP3    H223775   5.017   0.489  11.874 -0.7632 -0.3258  0.2292
  762TIP3   OH223776   0.823   6.468   3.447 -0.2913 -0.0375  0.1600
  762TIP3    H123777   0.845   6.560   3.428 -0.8812 -0.2382 -1.7146
  762TIP3    H223778   0.728   6.465   3.440 -0.2320 -0.8959 -0.3330
  763TIP3   OH223779   0.878   2.502  12.058  0.5045  0.1284 -0.0459
  763TIP3    H123780   0.929   2.579  12.035  0.3045  0.9999  2.1599
  763TIP3    H223781   0.793   2.537  12.086  0.0885 -0.9753  0.1376
  764TIP3   OH223782   5.950   4.392   9.844 -0.2638 -0.3556  0.0362
  764TIP3    H123783   5.910   4.313   9.879 -0.6451 -0.7955 -1.3145
  764TIP3    H223784   5.881   4.433   9.792 -0.4623  1.5544  1.6764
  765TIP3   OH223785   5.235   3.948   2.183  0.3739  0.1862 -0.2672
  765TIP3    H123786   5.207   4.020   2.126 -0.5533 -0.9832 -1.3438
  765TIP3    H223787   5.329   3.942   2.170  0.6739  1.9217  0.7253
  766TIP3   OH223788   5.427   3.058   0.974 -0.2103 -0.3719  0.1199
  766TIP3    H123789   5.395   3.139   1.013  0.6293  1.0457 -1.9616
  766TIP3    H223790   5.416   3.071   0.880  1.7156 -1.8851 -0.3723
  767TIP3   OH223791   4.640   3.805   1.817  0.6635 -1.1945  0.0844
  767TIP3    H123792   4.716   3.754   1.791  0.8769 -0.3231 -1.1008
  767TIP3    H223793   4.587   3.811   1.737  2.3865  3.4384 -1.0448
  768TIP3   OH223794   5.721   2.374  14.075  0.0463 -0.4704  0.0630
  768TIP3    H123795   5.705   2.325  14.155 -1.1905 -0.5067 -0.1888
  768TIP3    H223796   5.737   2.308  14.009  0.2267 -0.4677  0.1029
  769TIP3   OH223797   6.032   3.054  14.252 -0.0392 -0.5416  0.5050
  769TIP3    H123798   6.120   3.092  14.263  1.5426 -3.4856 -0.9512
  769TIP3    H223799   6.019   3.050  14.157 -0.6921 -2.3092  0.6293
  770TIP3   OH223800   2.383   6.094  14.140  0.0791  0.1091 -0.1125
  770TIP3    H123801   2.392   6.004  14.172 -1.4495 -0.0303  0.0276
  770TIP3    H223802   2.294   6.097  14.103  0.6586  1.1468 -1.5101
  771TIP3   OH223803   4.358   5.866  14.514  0.4510 -0.0903  0.0213
  771TIP3    H123804   4.262   5.873  14.514  0.5182  1.0953 -1.0675
  771TIP3    H223805   4.384   5.890  14.425  1.7778 -0.2315  0.3536
  772TIP3   OH223806   6.195   0.066   9.061  0.0342 -0.4192 -0.0448
  772TIP3    H123807   6.151   0.124   9.123 -0.7687 -0.5507 -0.4900
  772TIP3    H223808   6.288   0.071   9.087 -0.0308  0.9252  0.0348
  773TIP3   OH223809   3.009   4.886  10.772  0.1839 -0.0469  0.3632
  773TIP3    H123810   2.999   4.923  10.685  2.6149 -0.8820 -0.3491
  773TIP3    H223811   3.004   4.791  10.759 -0.4677 -0.1627  1.3113
  774TIP3   OH223812   2.638   2.300  10.623 -0.1560  0.1732 -0.2193
  774TIP3    H123813   2.609   2.388  10.601 -0.9778 -0.0801 -0.2005
  774TIP3    H223814   2.574   2.269  10.688  1.0691  0.1700  1.0349
  775TIP3   OH223815   1.901   1.321  13.758 -0.1402 -0.3101  0.0171
  775TIP3    H123816   1.808   1.344  13.756 -0.3693 -1.2215 -0.8763
  775TIP3    H223817   1.934   1.361  13.838 -1.3874 -0.3103  0.5538
  776TIP3   OH223818   5.719   3.953  14.630 -0.4212  0.0085  0.0619
  776TIP3    H123819   5.801   4.001  14.646  0.4062 -1.6249  0.9314
  776TIP3    H223820   5.713   3.948  14.535  0.3850  0.3107 -0.0143
  777TIP3   OH223821   0.981   5.291  11.030  0.0672 -0.2386  0.3172
  777TIP3    H123822   1.007   5.223  10.968 -2.3712 -0.5664 -0.4455
  777TIP3    H223823   0.901   5.328  10.993 -0.8074  0.3872  2.6568
  778TIP3   OH223824   0.463   5.262  11.539 -0.2596  0.2832 -0.4932
  778TIP3    H123825   0.528   5.201  11.574  3.8587  3.6057 -1.6624
  778TIP3    H223826   0.446   5.323  11.610  2.5705  2.7997 -1.8004
  779TIP3   OH223827   6.201   4.851   1.130  0.3683  0.1593 -0.1901
  779TIP3    H123828   6.180   4.935   1.089 -1.1664  0.4641  1.1264
  779TIP3    H223829   6.131   4.793   1.102  0.3473 -0.1421  0.4683
  780TIP3   OH223830   1.368   3.880  13.525 -0.3850  0.2138  0.1841
  780TIP3    H123831   1.294   3.865  13.466  1.2920 -0.1671 -1.9127
  780TIP3    H223832   1.440   3.907  13.468  1.5421 -0.8905  1.9364
  781TIP3   OH223833   1.570   1.487  12.685  0.1024  0.0820  0.1158
  781TIP3    H123834   1.495   1.501  12.627 -0.1668  2.2769  0.8804
  781TIP3    H223835   1.620   1.417  12.644 -2.8991 -2.2997  0.1375
  782TIP3   OH223836   0.859   4.218  11.522  1.0137 -0.5156 -0.2022
  782TIP3    H123837   0.865   4.134  11.568  1.9328  0.3832  1.4076
  782TIP3    H223838   0.881   4.283  11.588 -2.0733  1.2553 -0.7019
  783TIP3   OH223839   0.250   4.935   3.405 -0.0705 -0.1802 -0.3698
  783TIP3    H123840   0.162   4.972   3.419 -0.0397 -0.0358 -0.5516
  783TIP3    H223841   0.246   4.849   3.446  0.5735  0.9125  2.1919
  784TIP3   OH223842   1.015   4.292  13.815 -0.0548 -0.2016  0.0597
  784TIP3    H123843   1.047   4.381  13.825  1.3903 -0.5905 -0.8329
  784TIP3    H223844   1.024   4.274  13.721 -0.2137 -1.3325  0.2514
  785TIP3   OH223845   0.513   4.318  13.122  0.0008  0.2334  0.0268
  785TIP3    H123846   0.437   4.366  13.155  1.8303  0.6550  4.4044
  785TIP3    H223847   0.496   4.227  13.149  0.0269 -0.1313 -1.1552
  786TIP3   OH223848   4.645   4.369  11.070  0.5916  0.1251  0.4606
  786TIP3    H123849   4.702   4.446  11.073 -0.7215  1.1174  0.8196
  786TIP3    H223850   4.563   4.402  11.035 -0.2667 -0.9313  1.4158
  787TIP3   OH223851   3.519   2.054  11.899  0.1896 -0.2566 -0.6349
  787TIP3    H123852   3.480   1.982  11.948  0.4618 -0.9534 -1.4178
  787TIP3    H223853   3.579   2.012  11.838  3.0904  0.8095  1.2615
  788TIP3   OH223854   5.722   1.881   3.185  0.0798 -0.7791 -0.1857
  788TIP3    H123855   5.816   1.888   3.167  0.2500 -2.1635  0.0577
  788TIP3    H223856   5.715   1.811   3.251 -1.0221  0.1987  0.7675
  789TIP3   OH223857   2.408   5.774  13.815 -0.5037  0.0867 -0.2761
  789TIP3    H123858   2.343   5.815  13.758 -1.6158  0.8551  1.4310
  789TIP3    H223859   2.469   5.845  13.837 -0.2607 -0.1195 -0.2828
  790TIP3   OH223860   4.693   3.559  12.889  0.2880  0.2397 -0.1286
  790TIP3    H123861   4.718   3.608  12.968 -0.2753  0.6033 -0.1686
  790TIP3    H223862   4.642   3.622  12.838 -0.2325 -0.3153 -0.2996
  791TIP3   OH223863   1.600   0.249   1.949 -0.3610 -0.2066 -0.6974
  791TIP3    H123864   1.525   0.280   1.898 -0.7611 -0.2338 -0.1327
  791TIP3    H223865   1.568   0.172   1.995  0.0615 -0.3047 -0.5581
  792TIP3   OH223866   2.048   2.242   9.924  0.2231  0.6513  0.6509
  792TIP3    H123867   2.140   2.218   9.932 -0.5925 -2.4933  2.5048
  792TIP3    H223868   2.007   2.206  10.003 -2.7701  1.0786 -0.5547
  793TIP3   OH223869   5.712   3.888  11.122 -0.1433  0.4906  0.0864
  793TIP3    H123870   5.763   3.909  11.201  1.4722 -0.4934 -0.6408
  793TIP3    H223871   5.648   3.823  11.152  0.5653 -0.0002  0.5900
  794TIP3   OH223872   0.889   1.703  10.267 -0.1070 -0.1414  0.0017
  794TIP3    H123873   0.938   1.627  10.299  1.7848  1.6399  1.6216
  794TIP3    H223874   0.951   1.776  10.273 -2.5910  2.0397  1.0084
  795TIP3   OH223875   1.022   7.028   0.131 -0.2370 -0.7977 -0.0124
  795TIP3    H123876   0.971   7.104   0.102 -0.9654 -0.6318  1.5923
  795TIP3    H223877   1.112   7.050   0.110 -0.5087  0.2458 -0.1309
  796TIP3   OH223878   0.168   0.111  11.853  0.3067  0.1509  0.0401
  796TIP3    H123879   0.227   0.045  11.888  0.2358  0.2048  0.2636
  796TIP3    H223880   0.225   0.182  11.824  0.4534 -0.3947 -1.0660
  797TIP3   OH223881   1.868   2.781  14.146  0.3049  0.4933 -0.3894
  797TIP3    H123882   1.844   2.873  14.156 -0.1710  0.1813  2.2498
  797TIP3    H223883   1.800   2.733  14.193  1.1047 -1.1321 -0.8127
  798TIP3   OH223884   3.368   1.808  13.303  0.5208  0.4358  0.1283
  798TIP3    H123885   3.390   1.789  13.394 -0.3753 -0.0009  0.2691
  798TIP3    H223886   3.435   1.764  13.251 -0.7726 -2.1286  0.4749
  799TIP3   OH223887   5.640   0.199  13.734  0.1671  0.3662 -0.5409
  799TIP3    H123888   5.578   0.254  13.782  1.4721  1.6389 -0.2590
  799TIP3    H223889   5.726   0.227  13.765  0.9352 -0.6323 -1.6948
  800TIP3   OH223890   0.888   1.355  12.804 -0.0025 -0.1786  0.6147
  800TIP3    H123891   0.929   1.347  12.890 -1.5614  0.1085  1.4207
  800TIP3    H223892   0.930   1.433  12.765 -0.1345  0.4097  1.6133
  801TIP3   OH223893   5.859   3.033  13.728  0.4113 -0.2174  0.2047
  801TIP3    H123894   5.772   2.994  13.720  0.7536 -1.8846  3.2823
  801TIP3    H223895   5.907   3.002  13.651 -1.6933  0.9904 -1.7226
  802TIP3   OH223896   3.919   6.391   3.817 -0.2770  0.3387 -0.4279
  802TIP3    H123897   3.989   6.400   3.881 -0.2218  1.2530 -0.5974
  802TIP3    H223898   3.873   6.311   3.842  1.7268 -1.1566 -1.2146
  803TIP3   OH223899   4.188   4.104   0.952 -0.6381 -0.2715  0.1189
  803TIP3    H123900   4.192   4.185   1.003 -0.9006 -0.0911 -0.1414
  803TIP3    H223901   4.159   4.037   1.014  2.7821 -0.9165  1.2190
  804TIP3   OH223902   3.625   5.035   9.619 -0.6211 -0.2324 -0.4646
  804TIP3    H123903   3.538   5.053   9.583 -0.7895  1.6484  0.7698
  804TIP3    H223904   3.652   5.117   9.659  1.2663 -1.1079  0.1752
  805TIP3   OH223905   5.011   5.381  15.013 -0.2337 -0.2359  0.0581
  805TIP3    H123906   5.074   5.410  15.079 -1.5530 -0.9726  1.7085
  805TIP3    H223907   4.932   5.360  15.062 -1.2611 -0.9007 -1.7638
  806TIP3   OH223908   5.085   2.144  15.290  0.2638 -0.2139 -1.0338
  806TIP3    H123909   5.175   2.125  15.316  0.7094  1.3173 -1.3592
  806TIP3    H223910   5.051   2.201  15.359 -0.0229  0.2749 -1.5741
  807TIP3   OH223911   4.319   2.841  12.118  0.1073  0.1167 -0.3886
  807TIP3    H123912   4.292   2.832  12.209 -0.1774  0.4032 -0.4432
  807TIP3    H223913   4.251   2.894  12.077  1.0744  1.4356 -0.3654
  808TIP3   OH223914   3.402   6.528   9.719  0.3243  0.2095 -0.0058
  808TIP3    H123915   3.444   6.591   9.777  0.1150  1.1217 -0.8193
  808TIP3    H223916   3.415   6.443   9.762  1.8765  0.6145  0.4070
  809TIP3   OH223917   0.223   5.596   2.219  0.4704  0.3575  0.1833
  809TIP3    H123918   0.270   5.573   2.299  1.4541  1.7272  0.0306
  809TIP3    H223919   0.228   5.691   2.215 -0.5478  0.3869 -0.9348
  810TIP3   OH223920   5.503   4.709  13.796 -0.1810 -0.1349 -0.1531
  810TIP3    H123921   5.554   4.704  13.714  0.1741 -1.3173  0.1221
  810TIP3    H223922   5.522   4.626  13.841 -0.2174  0.5756  1.2240
  811TIP3   OH223923   4.819   1.241  12.110  0.2216 -1.1328 -0.3440
  811TIP3    H123924   4.854   1.298  12.042  0.6296 -0.7501  0.1793
  811TIP3    H223925   4.790   1.163  12.063 -0.3752 -0.4876 -1.0746
  812TIP3   OH223926   6.962   2.204   1.095  0.0953  0.6549  0.1779
  812TIP3    H123927   6.916   2.133   1.051 -0.7927  0.3981  1.4765
  812TIP3    H223928   6.914   2.218   1.176  2.8624 -0.3695  2.1866
  813TIP3   OH223929   5.793   4.346  15.343  0.3788 -0.4030  0.4332
  813TIP3    H123930   5.786   4.383  15.431  0.0102 -2.0612  1.1430
  813TIP3    H223931   5.859   4.401  15.300 -0.9898  1.7921  0.9755
  814TIP3   OH223932   4.360   1.162   9.701 -0.4304  0.1078 -0.0019
  814TIP3    H123933   4.279   1.175   9.651  0.1728  1.4305 -0.6768
  814TIP3    H223934   4.424   1.137   9.635  0.0954  0.6927  0.2808
  815TIP3   OH223935   2.543   3.520  12.112 -0.3576  0.5484 -0.0753
  815TIP3    H123936   2.632   3.554  12.101 -0.7334  2.0562  1.0932
  815TIP3    H223937   2.537   3.501  12.206 -1.9498  2.7217  0.3553
  816TIP3   OH223938   2.755   5.123  10.386  0.0781  0.0592  0.2106
  816TIP3    H123939   2.810   5.199  10.370 -1.0295  0.7907 -0.2242
  816TIP3    H223940   2.763   5.070  10.306  1.2100 -0.5403  0.6951
  817TIP3   OH223941   3.200   6.995  10.598  0.0452  0.1675  0.2944
  817TIP3    H123942   3.142   7.070  10.609  0.9461  0.8385  0.5636
  817TIP3    H223943   3.141   6.920  10.596 -0.8605  0.8647  0.1510
  818TIP3   OH223944   1.346   2.003  13.897  0.2657 -0.0238  0.6005
  818TIP3    H123945   1.296   1.923  13.912  0.7649 -0.8402 -1.7670
  818TIP3    H223946   1.433   1.973  13.871  0.8318  1.3159  0.8651
  819TIP3   OH223947   5.161   3.233  12.801 -0.0359  0.6040  0.1632
  819TIP3    H123948   5.240   3.183  12.782  2.3522  4.0723 -0.0993
  819TIP3    H223949   5.133   3.204  12.887  1.4477 -0.8196  0.1929
  820TIP3   OH223950   2.428   4.860  10.885  0.1907 -0.4877 -0.0570
  820TIP3    H123951   2.454   4.952  10.889 -1.6244  0.1301 -1.0108
  820TIP3    H223952   2.412   4.843  10.792 -1.6884 -1.0627  0.3071
  821TIP3   OH223953   6.799   0.052   0.923 -0.4463  0.1178 -0.9700
  821TIP3    H123954   6.874   0.008   0.882 -0.5794 -1.4710  0.4028
  821TIP3    H223955   6.723   0.019   0.875 -0.3221  1.7119 -2.3472
  822TIP3   OH223956   5.429   3.655  14.633  0.0367 -0.0011  0.2096
  822TIP3    H123957   5.483   3.659  14.555 -0.2589 -1.3920 -0.0957
  822TIP3    H223958   5.449   3.570  14.672 -0.2375  0.4274  1.3416
  823TIP3   OH223959   2.469   2.080  10.170  0.3656  0.3615 -0.0103
  823TIP3    H123960   2.444   1.997  10.131 -1.4390 -0.1599  2.0905
  823TIP3    H223961   2.563   2.087  10.154  0.2150 -1.0994 -1.9070
  824TIP3   OH223962   6.386   2.205  13.213  0.0577  1.0302  0.1191
  824TIP3    H123963   6.303   2.173  13.250  0.3503  1.1274  0.8937
  824TIP3    H223964   6.434   2.126  13.190  0.2821  0.9232  0.9027
  825TIP3   OH223965   4.150   5.020  11.341  0.2489  0.2317  0.3681
  825TIP3    H123966   4.119   4.995  11.253  0.4723 -0.5836  0.5189
  825TIP3    H223967   4.168   4.937  11.385 -0.4311  0.6097  1.3975
  826TIP3   OH223968   0.866   5.854  12.090  0.3195 -0.0296 -0.1232
  826TIP3    H123969   0.875   5.896  12.176 -0.3197  1.1368 -0.6013
  826TIP3    H223970   0.776   5.875  12.063  0.5097 -0.4038 -1.0615
  827TIP3   OH223971   1.057   3.402  12.417 -0.8739 -1.0215 -0.3563
  827TIP3    H123972   1.047   3.497  12.422 -1.3850 -1.1127  0.5952
  827TIP3    H223973   1.044   3.372  12.507 -1.3542 -2.0537 -0.7565
  828TIP3   OH223974   4.345   1.337   2.925 -0.2949  0.1881 -0.6491
  828TIP3    H123975   4.257   1.305   2.944 -0.8389  1.4336 -0.9646
  828TIP3    H223976   4.335   1.432   2.918  0.7288  0.1982 -2.4954
  829TIP3   OH223977   3.537   3.314  13.059 -0.3054  0.5403  0.1627
  829TIP3    H123978   3.485   3.274  13.129  0.1553 -0.8064 -0.2213
  829TIP3    H223979   3.623   3.272  13.066 -0.2681  0.3331 -1.2170
  830TIP3   OH223980   4.305   0.698  11.233  0.6091 -0.2444 -0.4737
  830TIP3    H123981   4.355   0.629  11.277 -0.5129 -0.9912 -0.3156
  830TIP3    H223982   4.276   0.755  11.304  0.6057 -0.2304 -0.4864
  831TIP3   OH223983   2.817   6.251   2.285  0.2065  0.2169 -0.7826
  831TIP3    H123984   2.913   6.250   2.292  0.0850  0.1250  1.6824
  831TIP3    H223985   2.787   6.295   2.364 -1.8393 -1.2489 -0.6588
  832TIP3   OH223986   5.300   7.060  15.022 -0.0833 -0.2007  0.2368
  832TIP3    H123987   5.260   7.147  15.031 -1.0676 -0.5113 -0.9489
  832TIP3    H223988   5.240   7.012  14.966  0.6428 -1.5446  0.5815
  833TIP3   OH223989   1.385   0.795  10.784  0.3242 -0.3588  0.3452
  833TIP3    H123990   1.344   0.871  10.743  1.2427 -0.0878 -0.1088
  833TIP3    H223991   1.415   0.741  10.711 -0.7058 -1.3882  0.6649
  834TIP3   OH223992   1.322   1.402   9.405  0.2777  0.2048 -0.1306
  834TIP3    H123993   1.245   1.403   9.348 -0.1574 -1.5695  0.3431
  834TIP3    H223994   1.385   1.459   9.362 -1.0217  1.0914 -0.9280
  835TIP3   OH223995   4.096   6.787  11.878  0.1747 -0.2032  0.2673
  835TIP3    H123996   4.164   6.739  11.830 -0.4122 -1.2327  0.4263
  835TIP3    H223997   4.144   6.837  11.944  0.7114 -2.2346  1.4974
  836TIP3   OH223998   5.471   4.176   9.740  0.5003  0.2486  0.3697
  836TIP3    H123999   5.477   4.215   9.653 -1.6240  0.5134  0.2916
  836TIP3    H224000   5.497   4.084   9.727 -0.1256  0.1950 -0.6265
  837TIP3   OH224001   7.074   5.044   9.714  0.4777  0.3146  0.8963
  837TIP3    H124002   7.144   5.062   9.776 -1.5219  2.0725  2.8270
  837TIP3    H224003   7.043   4.956   9.737  0.6610  0.3877  1.4180
  838TIP3   OH224004   0.364   3.943   2.520  0.4005  0.3615  0.2105
  838TIP3    H124005   0.339   4.001   2.591  0.0235  1.1423 -0.5477
  838TIP3    H224006   0.398   4.001   2.452  0.8896 -0.3827 -0.1979
  839TIP3   OH224007   6.053   2.984   2.945  0.3070  0.0638  0.3961
  839TIP3    H124008   5.987   3.053   2.945  0.9402  0.6718  0.1748
  839TIP3    H224009   6.107   3.000   3.022 -0.9564 -1.5845  1.7103
  840TIP3   OH224010   0.224   4.316  10.945  1.1109 -0.2978  0.0785
  840TIP3    H124011   0.165   4.243  10.933 -1.0469  1.0271  1.8503
  840TIP3    H224012   0.297   4.280  10.996 -0.0411 -1.2047  1.1576
  841TIP3   OH224013   6.167   4.511  10.954 -0.2633  0.1823 -0.1946
  841TIP3    H124014   6.077   4.533  10.974 -0.5724 -1.0926 -0.1239
  841TIP3    H224015   6.161   4.433  10.898  0.8148 -0.6654  0.8233
  842TIP3   OH224016   6.506   6.088  12.412 -0.5212  0.0673  0.1511
  842TIP3    H124017   6.513   6.182  12.425 -0.8762  0.5157 -2.4624
  842TIP3    H224018   6.412   6.070  12.418 -0.4915 -0.0723  0.2225
  843TIP3   OH224019   6.062   2.288  10.173 -0.3123 -0.2597 -0.2834
  843TIP3    H124020   6.116   2.315  10.098  0.5682  1.3590  0.8476
  843TIP3    H224021   5.972   2.306  10.146  0.1048  2.0369 -0.3677
  844TIP3   OH224022   6.362   4.582  11.875  0.2858  0.2074 -0.3515
  844TIP3    H124023   6.373   4.508  11.815 -1.1571  0.5722 -1.1020
  844TIP3    H224024   6.345   4.657  11.818 -0.9906  0.5883  0.4825
  845TIP3   OH224025   4.780   4.293   0.942 -0.4815  0.5494  0.1132
  845TIP3    H124026   4.859   4.268   0.894 -1.3342 -0.8265 -0.6388
  845TIP3    H224027   4.813   4.338   1.020  1.0602 -0.1345 -0.1008
  846TIP3   OH224028   7.046   2.447  11.744  0.0638 -0.4683  0.0245
  846TIP3    H124029   7.101   2.504  11.690 -0.5573 -1.0147 -1.2265
  846TIP3    H224030   7.107   2.384  11.782  0.4949 -0.1512 -0.1350
  847TIP3   OH224031   2.254   4.288  12.336 -0.2876 -0.5200  0.1769
  847TIP3    H124032   2.226   4.197  12.325 -0.4820 -0.7136  2.0628
  847TIP3    H224033   2.306   4.288  12.416 -0.9139  1.1762  0.6109
  848TIP3   OH224034   6.977   5.878  10.883  0.5145  0.1888  0.5343
  848TIP3    H124035   6.898   5.828  10.864  0.8386 -0.0077 -0.3265
  848TIP3    H224036   7.043   5.811  10.903  0.6117  0.3306  0.6903
  849TIP3   OH224037   5.743   3.369  13.281  0.6209  0.2520  0.3680
  849TIP3    H124038   5.810   3.433  13.300  1.5662 -0.3039 -0.9350
  849TIP3    H224039   5.781   3.285  13.306 -0.1079  0.0598  0.8694
  850TIP3   OH224040   4.416   6.513  14.101 -0.1351 -0.4915  0.0457
  850TIP3    H124041   4.437   6.606  14.110  1.5661 -0.6767 -1.4361
  850TIP3    H224042   4.324   6.511  14.074 -0.0552  0.7761 -0.3461
  851TIP3   OH224043   1.832   6.098   1.053 -0.0334  0.1060 -0.2960
  851TIP3    H124044   1.747   6.065   1.080  0.6221  0.0005  1.8372
  851TIP3    H224045   1.837   6.186   1.091  0.2686  0.6915 -1.6113
  852TIP3   OH224046   6.875   5.243  14.232 -0.0960  0.0965  0.0411
  852TIP3    H124047   6.853   5.317  14.288  2.5891  1.8499 -1.0178
  852TIP3    H224048   6.798   5.231  14.176 -0.7251  1.8919  0.4568
  853TIP3   OH224049   5.735   0.494   0.149  0.6102 -0.2911  0.1810
  853TIP3    H124050   5.645   0.467   0.166  0.1817  0.8060 -0.2948
  853TIP3    H224051   5.742   0.498   0.054  1.6343 -1.8520  0.1473
  854TIP3   OH224052   1.081   3.329  13.073 -0.2618  1.1550  0.4561
  854TIP3    H124053   1.117   3.240  13.068  0.2202  1.3745 -0.1602
  854TIP3    H224054   0.989   3.316  13.098 -0.2076  0.4793  0.3401
  855TIP3   OH224055   1.104   3.893  13.021 -1.0857  0.0431  0.0861
  855TIP3    H124056   1.147   3.869  12.940 -1.2015  0.8371 -0.2198
  855TIP3    H224057   1.031   3.949  12.994 -0.5114  1.1732  0.7901
  856TIP3   OH224058   1.791   3.014  14.908  0.5307  0.0918 -0.2560
  856TIP3    H124059   1.746   2.998  14.825  1.0476 -2.1400 -0.1568
  856TIP3    H224060   1.721   3.023  14.972  0.1664 -0.2300 -0.6039
  857TIP3   OH224061   3.568   2.777  11.273 -0.4511 -0.0772  0.1320
  857TIP3    H124062   3.562   2.716  11.199  0.7897 -1.0419  0.7942
  857TIP3    H224063   3.556   2.722  11.350 -2.1965  0.9844  0.6878
  858TIP3   OH224064   1.406   5.086   0.157 -0.1986  0.3513  0.5405
  858TIP3    H124065   1.355   5.139   0.096  0.3491  2.2791  1.6666
  858TIP3    H224066   1.388   4.996   0.131 -2.5170  1.0089 -0.4152
  859TIP3   OH224067   2.902   3.223   3.897 -0.2794 -0.4360  0.3828
  859TIP3    H124068   2.937   3.135   3.909  2.2043  0.3273 -0.6044
  859TIP3    H224069   2.974   3.272   3.857 -2.4842  1.3378 -1.6892
  860TIP3   OH224070   3.387   3.371  11.752 -0.2598 -0.0430 -0.1510
  860TIP3    H124071   3.440   3.324  11.688 -0.5892 -0.9255  0.2146
  860TIP3    H224072   3.344   3.440  11.702 -0.2473 -0.5085 -0.8147
  861TIP3   OH224073   1.087   2.426   9.334 -0.0316  0.5637  0.3011
  861TIP3    H124074   1.075   2.336   9.365 -2.2739  0.4904 -0.5899
  861TIP3    H224075   1.178   2.445   9.352  0.8694 -2.3208 -0.5786
  862TIP3   OH224076   2.791   2.081  10.817  0.4315 -0.2847  0.0340
  862TIP3    H124077   2.711   2.028  10.821  0.8603 -1.1165 -1.6999
  862TIP3    H224078   2.828   2.064  10.731  0.9784  2.3104 -0.3527
  863TIP3   OH224079   0.293   3.216  11.340 -0.3670  1.2542  0.0609
  863TIP3    H124080   0.308   3.287  11.403 -2.4554  2.4359 -0.6786
  863TIP3    H224081   0.265   3.261  11.260  0.3408 -0.3275 -1.1333
  864TIP3   OH224082   2.901   5.529  12.595 -0.1975  0.5028 -0.2952
  864TIP3    H124083   2.833   5.462  12.597  0.2240  0.0822 -0.0007
  864TIP3    H224084   2.941   5.526  12.682 -0.3536  1.3243 -0.1849
  865TIP3   OH224085   0.135   7.227  12.767  0.0647  0.1985 -0.1180
  865TIP3    H124086   0.170   7.313  12.746 -1.8847  0.9576 -0.4641
  865TIP3    H224087   0.129   7.226  12.863  1.1218 -0.0051 -0.0438
  866TIP3   OH224088   1.521   0.990   9.811 -0.2996  0.1514 -0.1199
  866TIP3    H124089   1.551   1.061   9.867  1.6404 -0.3997 -0.4020
  866TIP3    H224090   1.502   0.918   9.871  0.2788  0.0632 -0.0405
  867TIP3   OH224091   2.035   0.957   2.375 -0.5097  0.5441  0.3450
  867TIP3    H124092   2.110   0.944   2.317 -1.4485 -0.1226 -0.7452
  867TIP3    H224093   2.027   0.875   2.424 -0.2070  0.8135  0.8543
  868TIP3   OH224094   3.888   3.112  10.073  0.0259  0.0680 -0.3271
  868TIP3    H124095   3.954   3.086  10.008  1.0016  2.4928 -0.3829
  868TIP3    H224096   3.829   3.171  10.026 -0.3933  0.3274  0.5042
  869TIP3   OH224097   1.364   6.785  10.590  0.3503 -0.0401 -0.0232
  869TIP3    H124098   1.357   6.708  10.534  1.5439  0.3948 -0.7991
  869TIP3    H224099   1.431   6.839  10.548  2.0531 -0.1675  2.3381
  870TIP3   OH224100   1.472   5.322  11.535  0.2721  0.2387  0.4082
  870TIP3    H124101   1.470   5.417  11.541 -0.3868  0.1991  0.8924
  870TIP3    H224102   1.391   5.299  11.489  0.2583 -0.1057  0.5996
  871TIP3   OH224103   1.079   1.675   9.413  0.2694  0.7654  0.0816
  871TIP3    H124104   1.049   1.626   9.337 -0.2974  0.6907  0.3423
  871TIP3    H224105   1.008   1.738   9.431  0.0607  0.3016  0.9659
  872TIP3   OH224106   5.651   1.324   9.635 -0.2817  0.2324  0.1560
  872TIP3    H124107   5.699   1.260   9.688 -0.3583  0.1547  0.1319
  872TIP3    H224108   5.718   1.366   9.582 -0.1435  0.6158  0.6261
  873TIP3   OH224109   0.529   2.150  10.858 -0.3348 -0.7538  0.2649
  873TIP3    H124110   0.547   2.057  10.853  0.3855 -0.7025  1.4976
  873TIP3    H224111   0.571   2.179  10.939 -1.6534  0.3845  0.6007
  874TIP3   OH224112   5.111   2.029  12.227 -0.0932 -0.2646  0.4539
  874TIP3    H124113   5.091   1.976  12.150  2.9204 -0.8977 -0.0235
  874TIP3    H224114   5.069   2.113  12.209 -1.7821 -1.2376 -0.5295
  875TIP3   OH224115   6.014   1.494  10.235 -0.1598 -0.3386 -0.2073
  875TIP3    H124116   6.031   1.401  10.225  1.1357 -0.6831  3.4512
  875TIP3    H224117   6.101   1.534  10.236 -0.6175  0.6870 -0.1350
  876TIP3   OH224118   4.023   3.130   3.316  0.0204 -0.1930  0.4771
  876TIP3    H124119   4.086   3.194   3.349  0.2883 -0.1449 -0.1173
  876TIP3    H224120   3.954   3.128   3.382  1.1491 -1.0264  1.6726
  877TIP3   OH224121   3.744   5.311  10.175 -0.1715 -0.2621  0.0109
  877TIP3    H124122   3.734   5.349  10.087 -0.2321 -0.1711  0.0571
  877TIP3    H224123   3.838   5.315  10.193 -0.2508  0.4597  0.2788
  878TIP3   OH224124   3.839   5.036  10.298  0.5364 -0.1039  0.1579
  878TIP3    H124125   3.820   5.040  10.391  0.8776  0.6694  0.1994
  878TIP3    H224126   3.902   5.106  10.283  2.0446 -1.4734 -0.2983
  879TIP3   OH224127   5.545   2.479  13.452 -0.5347  0.6153 -0.4722
  879TIP3    H124128   5.482   2.413  13.424 -0.6368  0.8602 -0.8317
  879TIP3    H224129   5.538   2.480  13.547  1.1398 -1.5489 -0.2599
  880TIP3   OH224130   3.283   2.005   9.472 -0.1990 -0.1146 -0.0129
  880TIP3    H124131   3.236   2.088   9.477 -0.0479 -0.0787  1.4110
  880TIP3    H224132   3.345   2.016   9.401  0.4403  1.3325  0.7277
  881TIP3   OH224133   5.287   0.796  10.017 -0.0686  0.0274 -0.4655
  881TIP3    H124134   5.230   0.869   9.991 -0.2531  0.4498  1.0373
  881TIP3    H224135   5.227   0.726  10.041  0.0945 -0.3054 -1.0136
  882TIP3   OH224136   6.714   1.503   1.727  0.5676  0.7550 -0.4454
  882TIP3    H124137   6.806   1.530   1.725  0.9194  0.0551  2.1631
  882TIP3    H224138   6.670   1.574   1.774  0.7725 -1.0190  2.7595
  883TIP3   OH224139   2.757   1.283  15.288  0.1818  0.1799 -0.6702
  883TIP3    H124140   2.767   1.374  15.260  2.2145 -0.9946 -4.4446
  883TIP3    H224141   2.844   1.258  15.319 -0.2846 -0.6163  0.0420
  884TIP3   OH224142   6.894   1.379  10.343 -0.0107 -0.0310  0.5194
  884TIP3    H124143   6.833   1.342  10.407  2.3649 -2.0655  1.7926
  884TIP3    H224144   6.852   1.364  10.258 -1.6828 -0.4431  1.3830
  885TIP3   OH224145   0.777   0.652   2.570 -0.6397  0.8066 -0.6718
  885TIP3    H124146   0.850   0.710   2.551  0.7420  0.5565  3.0650
  885TIP3    H224147   0.788   0.578   2.510  1.8073  1.1133 -0.6806
  886TIP3   OH224148   3.661   4.380  13.736 -0.1644 -0.3169  0.1266
  886TIP3    H124149   3.574   4.340  13.728 -0.9955  1.6176 -1.2631
  886TIP3    H224150   3.719   4.322  13.688 -1.2137 -0.2475 -1.2913
  887TIP3   OH224151   1.204   0.839  12.056  0.2561  0.6490 -0.0222
  887TIP3    H124152   1.146   0.897  12.007  0.7626  0.9900 -0.2227
  887TIP3    H224153   1.167   0.752  12.042 -0.4013  0.8944  0.1285
  888TIP3   OH224154   7.042   2.339   9.544 -0.8257 -0.5502  0.1464
  888TIP3    H124155   6.985   2.353   9.468 -0.5535  1.3391  0.2548
  888TIP3    H224156   7.129   2.324   9.507 -0.6825  0.4247  0.0720
  889TIP3   OH224157   3.647   6.912  13.878  0.1987 -0.4667 -0.4090
  889TIP3    H124158   3.555   6.902  13.856 -0.0048  1.0951 -0.3829
  889TIP3    H224159   3.692   6.920  13.794  0.1068  0.2159 -0.4009
  890TIP3   OH224160   4.330   2.343  11.991 -0.1157  0.1239 -0.4388
  890TIP3    H124161   4.283   2.414  12.035  0.1976  0.5006 -0.7024
  890TIP3    H224162   4.415   2.340  12.036 -1.4645 -2.6990  2.2823
  891TIP3   OH224163   3.787   2.387  12.698 -0.4660  0.1896 -0.1759
  891TIP3    H124164   3.782   2.292  12.694 -1.0726  0.2112  0.0418
  891TIP3    H224165   3.793   2.407  12.792 -1.9768  0.4348 -0.1068
  892TIP3   OH224166   4.465   4.189   9.660 -0.2683  0.3148  0.1557
  892TIP3    H124167   4.400   4.239   9.613 -0.9168 -0.6002  0.0474
  892TIP3    H224168   4.432   4.099   9.659  1.6842 -0.4624 -1.1562
  893TIP3   OH224169   3.646   2.990   1.967  0.9426  0.6666  0.2641
  893TIP3    H124170   3.590   3.065   1.986  0.2353  0.1338  0.2905
  893TIP3    H224171   3.663   2.997   1.872 -1.9311 -1.0064 -0.4687
  894TIP3   OH224172   1.469   6.493  13.176  0.6069  0.4594 -0.7493
  894TIP3    H124173   1.416   6.415  13.191 -0.1471  1.3212  1.3866
  894TIP3    H224174   1.556   6.458  13.153  0.5911 -1.0718  1.2260
  895TIP3   OH224175   3.822   2.162  11.887 -0.4037 -0.1165  0.1152
  895TIP3    H124176   3.839   2.096  11.820  0.5876  0.6626 -0.4325
  895TIP3    H224177   3.821   2.112  11.969  0.4352 -0.8108 -0.2736
  896TIP3   OH224178   4.605   6.041  15.007 -0.6544  0.3408 -0.0235
  896TIP3    H124179   4.632   6.076  14.922  3.8282 -2.1302  0.1051
  896TIP3    H224180   4.568   5.955  14.987  1.4957 -0.7632  0.4517
  897TIP3   OH224181   3.483   2.481  11.900 -0.9709  0.0166  0.0382
  897TIP3    H124182   3.435   2.564  11.901  1.2133  1.3719 -0.0611
  897TIP3    H224183   3.518   2.472  11.989 -2.5554 -1.7247  0.5485
  898TIP3   OH224184   5.185   4.161  11.286  0.2382  0.3601 -0.1830
  898TIP3    H124185   5.100   4.118  11.276  0.3853 -0.4002  1.4448
  898TIP3    H224186   5.244   4.109  11.233 -0.1146  0.2445 -0.4692
  899TIP3   OH224187   6.209   2.944  12.796  0.1878  0.2977  0.3160
  899TIP3    H124188   6.166   2.976  12.876 -1.1343 -2.1447  0.6680
  899TIP3    H224189   6.290   2.904  12.826 -0.9837 -1.9172  0.7114
  900TIP3   OH224190   5.045   6.553  12.003  0.2203  0.3264  0.5058
  900TIP3    H124191   5.003   6.579  11.921 -0.1793 -0.0954  0.5712
  900TIP3    H224192   5.138   6.552  11.983  0.0412 -1.7520 -0.5663
  901TIP3   OH224193   4.970   0.186  11.962 -0.0513  0.3719 -0.3644
  901TIP3    H124194   4.948   0.104  12.007 -1.0696 -0.8138 -2.8161
  901TIP3    H224195   5.013   0.158  11.881  1.2644  2.3730 -0.4266
  902TIP3   OH224196   2.065   1.410  13.955  0.5938 -0.6593 -0.1020
  902TIP3    H124197   2.125   1.482  13.937  1.1592 -1.0616  0.1562
  902TIP3    H224198   2.037   1.424  14.045 -1.2165  0.6127 -0.8085
  903TIP3   OH224199   4.320   1.426  11.642  0.4256 -0.8574  0.4610
  903TIP3    H124200   4.264   1.383  11.706 -0.2923 -1.0127 -0.2523
  903TIP3    H224201   4.407   1.390  11.658  0.4148 -0.3183  1.8438
  904TIP3   OH224202   1.506   0.513  13.493 -0.6835  0.7951 -0.0592
  904TIP3    H124203   1.454   0.562  13.429 -2.6214 -1.7365 -0.5977
  904TIP3    H224204   1.458   0.523  13.576 -0.4771  0.7181  0.0701
  905TIP3   OH224205   2.622   2.338  13.838  0.3861 -0.1785  0.0687
  905TIP3    H124206   2.530   2.315  13.825  0.5881 -0.1156 -1.7865
  905TIP3    H224207   2.643   2.305  13.926 -1.4211 -0.0776  0.5766
  906TIP3   OH224208   6.751   3.641   0.776  0.4643 -0.2348  0.0167
  906TIP3    H124209   6.749   3.626   0.870  0.1492 -0.0917  0.0340
  906TIP3    H224210   6.662   3.669   0.754  0.0520 -1.8905 -0.5819
  907TIP3   OH224211   4.207   6.512  10.369  0.1647 -0.2622 -0.0553
  907TIP3    H124212   4.223   6.559  10.451 -0.0592  0.3987 -0.3862
  907TIP3    H224213   4.113   6.495  10.369  0.1672 -0.2737 -0.1684
  908TIP3   OH224214   0.134   6.389   9.044  0.2271  0.4394  0.7570
  908TIP3    H124215   0.213   6.347   9.078 -0.3371 -1.9457 -0.6347
  908TIP3    H224216   0.062   6.343   9.088 -0.4751 -1.8203 -2.4484
  909TIP3   OH224217   0.430   4.006   3.496 -0.0162 -0.0879 -0.0115
  909TIP3    H124218   0.499   4.002   3.430 -1.4887  0.3885 -1.6449
  909TIP3    H224219   0.437   4.094   3.532  2.0550 -0.9610  1.9922
  910TIP3   OH224220   3.833   1.521  11.912  0.0778 -0.4070 -0.3022
  910TIP3    H124221   3.863   1.481  11.830 -0.4020 -2.0742  0.2976
  910TIP3    H224222   3.738   1.506  11.911 -0.0427  0.2921  0.1939
  911TIP3   OH224223   5.060   0.578  15.328 -0.2160  0.1592 -0.1839
  911TIP3    H124224   5.036   0.520  15.256 -0.5968 -0.4371  0.4107
  911TIP3    H224225   5.132   0.532  15.371  0.6348  0.9581 -0.7302
  912TIP3   OH224226   4.978   4.311  14.789  0.3091  0.7032  0.0735
  912TIP3    H124227   5.051   4.336  14.846 -0.4024 -0.0441  1.3388
  912TIP3    H224228   5.013   4.238  14.737  0.8355  1.1314 -0.1896
  913TIP3   OH224229   5.834   7.253  14.681  0.1029  0.2073  0.3388
  913TIP3    H124230   5.757   7.220  14.635 -0.9858  0.5563  1.8627
  913TIP3    H224231   5.860   7.330  14.630 -2.6090  2.0970  1.6315
  914TIP3   OH224232   1.810   4.075  10.899 -0.8759 -0.2139 -0.7009
  914TIP3    H124233   1.829   4.022  10.822  1.7998 -0.9169  0.3326
  914TIP3    H224234   1.716   4.063  10.914 -0.5197 -4.3832 -0.7544
  915TIP3   OH224235   1.370   0.822  12.507 -0.2333  0.5367  0.1620
  915TIP3    H124236   1.406   0.909  12.487 -3.3744  2.0868  0.5483
  915TIP3    H224237   1.286   0.820  12.461 -1.5309 -1.1587  2.4183
  916TIP3   OH224238   3.638   2.738  11.755 -0.0243 -0.2562  0.4398
  916TIP3    H124239   3.684   2.703  11.831 -0.4095  0.2148  0.9022
  916TIP3    H224240   3.548   2.708  11.765  0.3927 -2.2071 -1.1044
  917TIP3   OH224241   0.876   3.963   2.917  0.5102 -0.8297 -1.0457
  917TIP3    H124242   0.941   4.033   2.919  0.2211 -0.5716 -0.1637
  917TIP3    H224243   0.883   3.927   2.829 -0.6654  1.5527 -2.2029
  918TIP3   OH224244   0.739   3.452  10.497  0.0853 -0.4746  0.2025
  918TIP3    H124245   0.803   3.456  10.427  0.1681  1.0202  0.3415
  918TIP3    H224246   0.698   3.538  10.498  1.6509  0.4032  3.4367
  919TIP3   OH224247   4.062   0.615  12.690 -0.2739 -0.7410 -0.2308
  919TIP3    H124248   4.083   0.708  12.701 -0.7744 -0.2469 -2.7218
  919TIP3    H224249   4.121   0.585  12.621 -1.2589 -1.8295 -0.6276
  920TIP3   OH224250   2.056   6.194  15.179 -0.2130  0.3551  0.0246
  920TIP3    H124251   2.089   6.183  15.090  1.0970 -1.2790  0.6540
  920TIP3    H224252   1.974   6.144  15.181  0.0449 -0.0684 -0.1018
  921TIP3   OH224253   7.081   5.021  11.609  0.4619  0.4411  0.2988
  921TIP3    H124254   7.098   4.985  11.522  2.2570  1.3453  0.2315
  921TIP3    H224255   6.998   4.981  11.636  0.9848 -1.5891 -0.8872
  922TIP3   OH224256   2.438   3.491  11.287  0.4651 -0.3852 -0.1027
  922TIP3    H124257   2.385   3.532  11.356  1.6320 -0.6680  1.0033
  922TIP3    H224258   2.419   3.397  11.295 -0.3194 -0.3182 -0.9974
  923TIP3   OH224259   5.377   4.148  13.536  0.2659 -0.2232  0.4183
  923TIP3    H124260   5.428   4.183  13.609 -1.7329  0.9255  1.3188
  923TIP3    H224261   5.287   4.148  13.567 -0.3387 -2.1823 -1.1422
  924TIP3   OH224262   0.439   1.721  11.052  0.1992  0.0111  0.0708
  924TIP3    H124263   0.363   1.775  11.030 -0.1811 -0.3788  0.3921
  924TIP3    H224264   0.414   1.633  11.022  1.7987  0.4098 -2.7580
  925TIP3   OH224265   0.020   6.673  14.639  0.2034 -0.3991  0.1341
  925TIP3    H124266   0.047   6.648  14.728  0.9884  0.4785  0.1632
  925TIP3    H224267   0.102   6.694  14.594 -0.2620  0.1390 -0.4878
  926TIP3   OH224268   4.385   4.321  11.447  0.4152  0.3925 -0.2427
  926TIP3    H124269   4.450   4.379  11.487  0.1164 -0.6302  1.8790
  926TIP3    H224270   4.339   4.281  11.521 -1.2943 -0.4331 -1.6571
  927TIP3   OH224271   4.842   3.791  11.775  0.5381  0.2890 -0.3353
  927TIP3    H124272   4.838   3.882  11.748 -0.8372  0.1617 -0.6114
  927TIP3    H224273   4.898   3.749  11.710 -0.1367  0.6308 -1.1525
  928TIP3   OH224274   5.883   2.986  12.522  0.5186  0.4778  0.3857
  928TIP3    H124275   5.820   3.058  12.534  0.8673  0.6017  1.5999
  928TIP3    H224276   5.862   2.925  12.592 -1.3440 -1.8295 -2.0052
  929TIP3   OH224277   5.427   1.649  11.967 -0.1465 -0.2341  0.3554
  929TIP3    H124278   5.379   1.721  11.925 -0.5374 -0.0098  1.1704
  929TIP3    H224279   5.359   1.591  11.999  0.1638 -0.7097  0.1628
  930TIP3   OH224280   0.497   4.246  14.350  0.2036  0.6646 -0.3473
  930TIP3    H124281   0.491   4.338  14.375  0.2245  0.1361  1.8652
  930TIP3    H224282   0.427   4.203  14.401  0.1469 -0.5419 -1.3820
  931TIP3   OH224283   0.545   5.269  14.853 -0.2419  0.2639 -0.4822
  931TIP3    H124284   0.522   5.204  14.920 -0.8061 -0.4807 -1.3830
  931TIP3    H224285   0.463   5.311  14.831  0.1817  1.6498  0.4213
  932TIP3   OH224286   2.177   6.768  10.386  0.2268  0.0550  0.1993
  932TIP3    H124287   2.106   6.727  10.337 -0.7824  0.5923  1.1597
  932TIP3    H224288   2.252   6.711  10.372  0.0977  0.4052 -2.2877
  933TIP3   OH224289   6.869   4.644  11.665 -0.1300 -0.4602  0.8511
  933TIP3    H124290   6.778   4.616  11.673  0.0198 -0.5294  2.5866
  933TIP3    H224291   6.872   4.730  11.706  0.4397 -0.0729  0.0388
  934TIP3   OH224292   6.797   3.601  12.892 -0.3535  0.1036  0.4618
  934TIP3    H124293   6.706   3.595  12.920 -0.9362 -1.1627 -1.4894
  934TIP3    H224294   6.793   3.639  12.804  1.0138  0.1305  0.3832
  935TIP3   OH224295   5.743   0.367   0.687 -0.0773  0.3063 -0.6261
  935TIP3    H124296   5.780   0.351   0.601 -0.4613  0.8311 -0.8940
  935TIP3    H224297   5.784   0.449   0.716  0.4520 -0.1422 -0.0780
  936TIP3   OH224298   7.210   5.126  13.165  0.0784 -0.2056  0.0407
  936TIP3    H124299   7.231   5.046  13.116 -0.1486  0.0286 -0.4512
  936TIP3    H224300   7.193   5.096  13.254 -0.2244 -0.7336 -0.1919
  937TIP3   OH224301   2.097   4.759  10.583 -0.3041  0.0779 -0.2314
  937TIP3    H124302   2.118   4.847  10.552  0.3534  0.6209  1.6106
  937TIP3    H224303   2.031   4.773  10.651 -1.0215 -0.9711 -0.6936
  938TIP3   OH224304   5.979   0.662  13.204  0.4243 -0.0007  0.0316
  938TIP3    H124305   5.948   0.572  13.193 -0.3754  0.2939 -0.1976
  938TIP3    H224306   5.936   0.711  13.134  1.8875  0.3298 -0.6768
  939TIP3   OH224307   2.722   2.655   0.619  0.0489  0.3505 -0.5227
  939TIP3    H124308   2.704   2.712   0.544 -2.7871  0.9403  0.4899
  939TIP3    H224309   2.697   2.568   0.590  0.1180  0.3790 -0.6656
  940TIP3   OH224310   1.642   5.494  12.100  0.3703 -0.1271 -0.2259
  940TIP3    H124311   1.581   5.501  12.174  1.7116  2.3527  0.7575
  940TIP3    H224312   1.727   5.476  12.141  1.1253  1.2361 -1.1090
  941TIP3   OH224313   3.704   4.833   1.786 -0.5644 -0.6023  0.1747
  941TIP3    H124314   3.637   4.765   1.784 -0.3269 -0.8534  0.6572
  941TIP3    H224315   3.782   4.791   1.749 -0.6284 -0.3487 -0.2675
  942TIP3   OH224316   6.637   1.712  11.929 -0.5853 -0.3545  0.1283
  942TIP3    H124317   6.708   1.695  11.867 -1.4565 -0.8018 -0.7818
  942TIP3    H224318   6.600   1.796  11.901  1.8145  1.8201  2.8085
  943TIP3   OH224319   4.880   2.990  13.914  0.1959  0.0241  0.3456
  943TIP3    H124320   4.964   3.010  13.872  0.4599  1.7706  1.5769
  943TIP3    H224321   4.839   2.924  13.858  1.1595  1.1897 -1.8065
  944TIP3   OH224322   1.937   4.520  10.073 -0.3847  0.1208  0.0657
  944TIP3    H124323   1.994   4.513  10.149  0.4449 -0.9793 -0.6343
  944TIP3    H224324   1.858   4.471  10.097  0.3969 -1.3353 -0.2327
  945TIP3   OH224325   5.194   4.546  13.268  0.1441  0.0449  0.3016
  945TIP3    H124326   5.134   4.476  13.292  0.9943  0.1677  3.1420
  945TIP3    H224327   5.138   4.614  13.231 -0.5864 -2.5074 -4.1074
  946TIP3   OH224328   0.334   1.213   1.737 -0.0366 -0.6138 -0.4398
  946TIP3    H124329   0.423   1.209   1.702  0.0069  0.4590 -0.4930
  946TIP3    H224330   0.314   1.307   1.740 -1.5127 -0.8743 -1.2842
  947TIP3   OH224331   2.857   1.864  13.225  0.1118 -0.4274 -0.0130
  947TIP3    H124332   2.927   1.845  13.287  0.7068  0.5114 -0.3785
  947TIP3    H224333   2.793   1.914  13.275  0.6180  0.3770 -0.1549
  948TIP3   OH224334   3.732   4.789   9.620 -0.4024 -0.1650 -0.1228
  948TIP3    H124335   3.648   4.750   9.646 -0.1847  0.5598  1.8477
  948TIP3    H224336   3.720   4.883   9.635  1.0011 -0.1385  0.9511
  949TIP3   OH224337   4.332   2.654  10.366  0.4330  0.2444  0.7549
  949TIP3    H124338   4.369   2.692  10.445 -1.0952  4.0893 -0.1432
  949TIP3    H224339   4.379   2.697  10.294  0.4584 -1.6808 -0.4500
  950TIP3   OH224340   6.494   4.906  15.272  0.8082 -0.0448  0.2229
  950TIP3    H124341   6.442   4.828  15.255  0.1522  0.4666 -0.1516
  950TIP3    H224342   6.448   4.950  15.344  0.6850  0.4357 -0.1452
  951TIP3   OH224343   0.461   5.514  13.159 -0.4715  1.0110 -0.2941
  951TIP3    H124344   0.548   5.532  13.122 -1.3409  1.6201 -2.1733
  951TIP3    H224345   0.435   5.596  13.201 -0.3245  0.9715 -0.1252
  952TIP3   OH224346   3.644   5.041  12.961  0.2807 -0.6494 -0.0010
  952TIP3    H124347   3.653   5.134  12.936 -0.6357 -0.2467  1.0942
  952TIP3    H224348   3.563   5.013  12.919  1.8978 -1.7828 -2.6001
  953TIP3   OH224349   4.502   2.751  10.611  0.0200 -0.1351 -0.1000
  953TIP3    H124350   4.422   2.722  10.653 -0.4773  0.1180 -0.8542
  953TIP3    H224351   4.508   2.845  10.630  0.8120 -0.3927  1.0223
  954TIP3   OH224352   3.461   1.517  13.056 -0.1116  0.4400 -0.4086
  954TIP3    H124353   3.423   1.445  13.107  0.1659  0.6610  0.1107
  954TIP3    H224354   3.509   1.473  12.986  1.7437  0.0310  1.0521
  955TIP3   OH224355   5.733   2.986   1.058 -0.4701  0.0725  0.0705
  955TIP3    H124356   5.757   2.988   1.151  1.2489  1.2390 -0.3386
  955TIP3    H224357   5.639   2.972   1.058 -0.6497  0.8796  2.0235
  956TIP3   OH224358   1.057   0.366  11.168  0.7265  0.6587 -0.4737
  956TIP3    H124359   1.059   0.462  11.178 -0.2092  0.5088  1.6850
  956TIP3    H224360   1.086   0.333  11.253  1.2521 -0.9933 -1.2758
  957TIP3   OH224361   1.993   4.640  11.007  0.0756 -0.5894 -0.1811
  957TIP3    H124362   2.080   4.677  11.021 -0.8577  1.1604  1.3807
  957TIP3    H224363   1.975   4.591  11.087 -1.4017  1.3071  0.7154
  958TIP3   OH224364   3.760   1.877  12.030  0.4377  0.1724  0.5705
  958TIP3    H124365   3.810   1.882  11.949 -1.3455  1.7489 -0.5084
  958TIP3    H224366   3.777   1.960  12.074 -0.3677  0.2743  0.7089
  959TIP3   OH224367   3.875   1.936  13.269  0.1531  0.7341  0.1647
  959TIP3    H124368   3.904   2.009  13.324  2.7241  0.0521 -0.1803
  959TIP3    H224369   3.870   1.972  13.181 -0.3504  0.9222  0.2680
  960TIP3   OH224370   7.205   2.812  10.590 -0.5579  0.1872  0.1298
  960TIP3    H124371   7.253   2.845  10.515  1.2596 -0.6476  0.8639
  960TIP3    H224372   7.150   2.743  10.554 -1.0930  1.0196 -0.7001
  961TIP3   OH224373   0.521   4.841  12.918 -0.5598 -0.2917  0.3618
  961TIP3    H124374   0.539   4.790  12.839 -2.0128  0.5910 -0.6094
  961TIP3    H224375   0.575   4.802  12.986  0.0355 -1.6745 -0.8627
  962TIP3   OH224376   5.601   2.104  11.690 -0.3424 -0.2574 -0.3720
  962TIP3    H124377   5.656   2.035  11.727 -1.3955 -0.8990  0.0578
  962TIP3    H224378   5.564   2.067  11.611 -0.3793  0.0614 -0.5077
  963TIP3   OH224379   4.831   4.629   6.091  0.0476 -0.4869 -0.0230
  963TIP3    H124380   4.737   4.643   6.101  0.1587  0.3433 -0.0595
  963TIP3    H224381   4.839   4.536   6.069 -0.6911 -0.7810  0.8804
  964TIP3   OH224382   4.084   6.524  13.115  0.5156 -0.1271  0.2045
  964TIP3    H124383   4.090   6.520  13.020  2.4912  0.7469  0.2364
  964TIP3    H224384   4.165   6.484  13.146 -0.1899 -0.5942  1.5454
  965TIP3   OH224385   2.414   4.503  14.394 -0.1445 -0.0689 -0.0830
  965TIP3    H124386   2.388   4.514  14.486  0.2104  0.1186 -0.0047
  965TIP3    H224387   2.484   4.438  14.396 -0.7787 -0.7719 -0.3242
  966TIP3   OH224388   3.636   6.325  10.860 -0.1618  0.2790  0.2401
  966TIP3    H124389   3.635   6.358  10.770  0.3266  0.6616  0.3702
  966TIP3    H224390   3.545   6.305  10.880 -0.0806 -1.5348 -0.9709
  967TIP3   OH224391   5.181   4.609   9.528  0.1685 -0.3720 -0.0699
  967TIP3    H124392   5.115   4.678   9.525 -1.6194 -2.0437 -1.3523
  967TIP3    H224393   5.253   4.642   9.474 -0.8293  0.3483 -1.0016
  968TIP3   OH224394   6.487   4.200   3.965 -0.0261  0.4840 -0.1882
  968TIP3    H124395   6.504   4.173   3.874 -0.8791  2.2354 -0.9208
  968TIP3    H224396   6.403   4.245   3.961  0.2412  1.1848  1.3511
  969TIP3   OH224397   2.371   3.241  15.113 -0.6668  0.2552  0.0127
  969TIP3    H124398   2.317   3.302  15.164  0.1047  1.8546 -1.0170
  969TIP3    H224399   2.428   3.200  15.179 -1.2640  0.5510  0.7372
  970TIP3   OH224400   5.807   2.294  10.044 -0.2059  0.0138 -0.2252
  970TIP3    H124401   5.756   2.341  10.110 -0.9475  1.4209 -1.7456
  970TIP3    H224402   5.815   2.355   9.971  1.2234 -1.2318 -1.1704
  971TIP3   OH224403   4.701   1.478  13.398  0.4465 -0.0604  0.2760
  971TIP3    H124404   4.746   1.397  13.424  0.2880 -1.1138 -2.4103
  971TIP3    H224405   4.772   1.540  13.380  1.0201 -1.4160 -3.0027
  972TIP3   OH224406   0.551   2.187   2.002  0.0170 -0.3623  0.4019
  972TIP3    H124407   0.527   2.101   1.966  1.2945 -0.7465  0.4013
  972TIP3    H224408   0.551   2.173   2.097 -0.0660 -0.2770  0.4143
  973TIP3   OH224409   2.171   0.579  14.130  0.1162 -0.4217 -0.2247
  973TIP3    H124410   2.201   0.489  14.117  0.0727 -0.2520 -1.6179
  973TIP3    H224411   2.233   0.616  14.193 -0.0144 -1.4782  0.5634
  974TIP3   OH224412   6.385   5.407  11.093 -0.1613 -0.0450 -0.4667
  974TIP3    H124413   6.431   5.413  11.177 -0.7070  0.3591 -0.1851
  974TIP3    H224414   6.348   5.318  11.092 -0.2870  0.0030 -0.2043
  975TIP3   OH224415   5.362   1.097  13.110 -0.1430  0.5992  0.4709
  975TIP3    H124416   5.352   1.138  13.024 -0.0234  1.3052  0.7824
  975TIP3    H224417   5.274   1.091  13.145 -0.0508  1.7876  0.9520
  976TIP3   OH224418   3.581   4.936  10.077  0.0542  0.2255  0.0344
  976TIP3    H124419   3.571   4.998  10.004 -0.3690  1.6704  1.2527
  976TIP3    H224420   3.493   4.902  10.092  0.0116  0.4423  0.2874
  977TIP3   OH224421   5.303   3.869  12.736  0.5934 -0.0065 -0.1746
  977TIP3    H124422   5.238   3.836  12.798  1.7906 -0.5670  0.8272
  977TIP3    H224423   5.335   3.791  12.691  2.0692 -0.0428  0.8536
  978TIP3   OH224424   3.742   5.885   1.683 -0.0398 -0.4495  0.2850
  978TIP3    H124425   3.790   5.841   1.754  0.1373 -1.8583 -0.6559
  978TIP3    H224426   3.788   5.968   1.671  0.4581 -0.5682  1.2438
  979TIP3   OH224427   1.615   5.155   1.590 -0.2933 -0.2331  0.4104
  979TIP3    H124428   1.694   5.175   1.540 -1.3314  1.7970 -0.5532
  979TIP3    H224429   1.647   5.127   1.675  1.4775 -1.4584 -0.6004
  980TIP3   OH224430   6.714   2.476  15.011 -0.4663  0.5017 -0.1556
  980TIP3    H124431   6.673   2.558  15.039 -0.7950 -0.1347  1.2835
  980TIP3    H224432   6.802   2.480  15.047 -1.4133 -1.0681  2.6186
  981TIP3   OH224433   2.653   6.920  10.395  0.5452 -0.4107  0.1979
  981TIP3    H124434   2.739   6.931  10.354 -1.3617  0.1508 -4.3036
  981TIP3    H224435   2.598   6.886  10.324 -2.3749 -3.6585  3.6361
  982TIP3   OH224436   7.021   0.052   9.621  0.2407  0.2417  0.2061
  982TIP3    H124437   6.930   0.025   9.626  0.2573 -0.4571 -2.0970
  982TIP3    H224438   7.025   0.110   9.545  1.4525  1.5328  1.1944
  983TIP3   OH224439   3.795   6.239  13.813 -0.6338 -0.1015  0.4824
  983TIP3    H124440   3.730   6.309  13.804 -1.9876 -1.2210  1.2014
  983TIP3    H224441   3.782   6.205  13.901  0.8694 -0.4543  0.5991
  984TIP3   OH224442   6.932   6.741  11.547 -0.2263  0.3045  0.0018
  984TIP3    H124443   7.018   6.774  11.574 -0.4094  1.1897 -0.4400
  984TIP3    H224444   6.938   6.646  11.558  0.4656  0.4394  0.9306
  985TIP3   OH224445   5.451   3.033  13.046  0.2421  0.5598  0.1233
  985TIP3    H124446   5.426   3.018  13.138 -0.0647  0.6160  0.0497
  985TIP3    H224447   5.452   3.129  13.037 -1.0545  0.5448 -0.2896
  986TIP3   OH224448   0.633   2.481  10.425 -0.5174 -0.5426 -0.5306
  986TIP3    H124449   0.629   2.497  10.520  1.3257 -1.3982 -0.2613
  986TIP3    H224450   0.555   2.524  10.390  0.0043  1.9781  1.0817
  987TIP3   OH224451   0.995   4.234  12.105 -0.4041 -0.4811 -0.2752
  987TIP3    H124452   0.901   4.237  12.086 -0.1181  0.3128 -1.7444
  987TIP3    H224453   1.007   4.298  12.175 -0.9873 -0.7911  0.1186
  988TIP3   OH224454   6.708   1.527   9.339 -0.4137 -0.3284  0.1365
  988TIP3    H124455   6.698   1.589   9.267 -2.1239  2.1552  2.2986
  988TIP3    H224456   6.801   1.531   9.361 -0.3738  1.0974 -0.1722
  989TIP3   OH224457   6.768   0.056  12.540 -0.6488 -0.4934  0.1382
  989TIP3    H124458   6.857   0.035  12.512 -0.3804  0.8003 -0.0712
  989TIP3    H224459   6.779   0.112  12.617 -1.2728 -0.2381  0.0532
  990TIP3   OH224460   4.910   6.131   1.983 -0.1490 -0.7164 -0.7015
  990TIP3    H124461   4.900   6.225   1.969  4.3230  0.3347  1.2644
  990TIP3    H224462   5.002   6.114   1.963  0.1125 -3.9119  2.3280
  991TIP3   OH224463   0.918   1.036  12.252 -0.0420 -0.0374  0.0630
  991TIP3    H124464   0.852   0.970  12.274  1.7314 -2.9383 -2.5207
  991TIP3    H224465   0.896   1.061  12.162  2.2347 -1.0159 -0.8245
  992TIP3   OH224466   7.177   1.712  10.161 -0.3002  0.2040 -0.0604
  992TIP3    H124467   7.126   1.649  10.110  1.8841 -0.0940 -2.0578
  992TIP3    H224468   7.255   1.663  10.188 -0.6574  0.8297  2.3127
  993TIP3   OH224469   5.702   5.379  12.326  0.0061  0.5814 -0.7334
  993TIP3    H124470   5.730   5.313  12.389  0.4669  0.9405 -0.5574
  993TIP3    H224471   5.761   5.453  12.341  0.4919  0.4606 -1.9794
  994TIP3   OH224472   6.118   3.010   0.331  0.2880 -0.4442  0.2349
  994TIP3    H124473   6.179   3.085   0.333 -1.2720  0.8778  0.4574
  994TIP3    H224474   6.144   2.960   0.254  2.6150 -0.8029  1.1478
  995TIP3   OH224475   3.800   0.595  14.942 -1.0648  0.7558  0.4100
  995TIP3    H124476   3.773   0.504  14.930  1.8080 -0.3884  1.6273
  995TIP3    H224477   3.800   0.608  15.037  0.5616  1.2834  0.3698
  996TIP3   OH224478   4.246   0.668   0.162  0.2141  0.2830 -0.7251
  996TIP3    H124479   4.309   0.612   0.116 -0.3537  0.3905 -1.6450
  996TIP3    H224480   4.262   0.756   0.128 -2.2571 -0.0670 -3.1186
  997TIP3   OH224481   2.891   6.448  11.278  0.0725 -0.5979  0.4051
  997TIP3    H124482   2.922   6.518  11.335 -0.9092  0.4961 -0.3747
  997TIP3    H224483   2.969   6.395  11.261  0.7491  0.0774  1.3079
  998TIP3   OH224484   3.873   7.224  10.057 -0.2086 -0.7517 -0.1600
  998TIP3    H124485   3.938   7.155  10.042  0.8065  0.3334 -0.9733
  998TIP3    H224486   3.873   7.237  10.152  0.9906 -0.5899 -0.1633
  999TIP3   OH224487   5.874   6.280  11.306 -0.0568 -0.1053 -0.0339
  999TIP3    H124488   5.897   6.367  11.337 -1.2152  0.5460 -0.9167
  999TIP3    H224489   5.810   6.248  11.370  0.3106 -0.2781  0.2474
 1000TIP3   OH224490   2.308   4.820   1.234 -0.3081 -0.2916  0.0333
 1000TIP3    H124491   2.250   4.753   1.270  1.0832 -0.0158  3.1145
 1000TIP3    H224492   2.299   4.894   1.294  2.1884  0.2352 -0.1459
 1001TIP3   OH224493   3.931   3.072  10.753  0.4247 -0.7197 -0.1579
 1001TIP3    H124494   3.929   3.105  10.842  0.0221  0.4599 -0.5744
 1001TIP3    H224495   3.842   3.087  10.720  0.9540  0.2902 -1.2262
 1002TIP3   OH224496   1.640   2.718  14.845 -0.7062  0.6667  0.4276
 1002TIP3    H124497   1.561   2.664  14.836 -1.4183  1.6803  0.4341
 1002TIP3    H224498   1.618   2.800  14.800 -0.0443  1.3658  1.3481
 1003TIP3   OH224499   2.237   4.387  10.319 -0.1957 -0.3806 -0.5655
 1003TIP3    H124500   2.269   4.433  10.241  0.0333 -0.4855 -0.5322
 1003TIP3    H224501   2.229   4.296  10.292  1.0783 -0.6470 -0.1133
 1004TIP3   OH224502   6.433   3.776   3.150 -0.0350  0.5992  0.2545
 1004TIP3    H124503   6.524   3.772   3.119 -0.1883 -2.2971 -0.1059
 1004TIP3    H224504   6.437   3.748   3.241 -0.5832  0.3176  0.1954
 1005TIP3   OH224505   5.647   2.479   4.880  0.0296 -0.1288 -0.3894
 1005TIP3    H124506   5.590   2.554   4.870 -1.0564 -1.1509 -2.4280
 1005TIP3    H224507   5.613   2.432   4.956 -0.3726  0.5040 -0.1783
 1006TIP3   OH224508   3.150   5.070  11.442 -0.3606  0.1065 -0.3521
 1006TIP3    H124509   3.172   5.158  11.413  0.0452  0.0916 -0.1007
 1006TIP3    H224510   3.056   5.072  11.458 -0.2732  0.6316  0.1246
 1007TIP3   OH224511   7.190   1.717  12.734 -0.3809  0.4245 -0.0373
 1007TIP3    H124512   7.260   1.766  12.690  0.3348  0.6340  1.2792
 1007TIP3    H224513   7.209   1.728  12.828 -0.6451 -1.7445  0.3074
 1008TIP3   OH224514   3.893   5.679   0.776  0.0503  0.0706  0.6312
 1008TIP3    H124515   3.961   5.633   0.825  0.0020 -0.3583  0.2991
 1008TIP3    H224516   3.812   5.634   0.799  0.0496 -0.2366  0.0319
 1009TIP3   OH224517   6.496   1.191  11.106  0.6449  0.3149  0.3142
 1009TIP3    H124518   6.590   1.185  11.090  0.6235  0.3300  0.1816
 1009TIP3    H224519   6.471   1.276  11.070  0.8662  1.0353  1.7695
 1010TIP3   OH224520   3.700   5.351  13.214 -0.2770 -0.0620 -0.2866
 1010TIP3    H124521   3.689   5.361  13.119 -2.4715 -2.5448 -0.4040
 1010TIP3    H224522   3.624   5.300  13.242 -0.0100  1.1040  2.9533
 1011TIP3   OH224523   6.278   3.242  11.909 -0.4968  0.5715  0.4826
 1011TIP3    H124524   6.263   3.311  11.845  0.1816  0.7503  0.5063
 1011TIP3    H224525   6.243   3.163  11.868  1.7170  0.2571 -1.0426
 1012TIP3   OH224526   1.791   6.696   4.535  0.4225 -0.7355 -0.2336
 1012TIP3    H124527   1.762   6.608   4.555 -1.0843 -0.0898  0.5762
 1012TIP3    H224528   1.794   6.700   4.439  1.8980 -2.0639 -0.2771
 1013TIP3   OH224529   2.399   2.396  15.324  1.0097 -0.6315  0.0443
 1013TIP3    H124530   2.397   2.417  15.417  3.0093 -1.1444  0.2496
 1013TIP3    H224531   2.368   2.475  15.281  1.7765  0.2670  1.0826
 1014TIP3   OH224532   6.719   1.714  10.638 -0.0703 -0.1890 -0.1556
 1014TIP3    H124533   6.668   1.781  10.684  1.3114  0.0115  1.1393
 1014TIP3    H224534   6.809   1.730  10.664  0.4746 -1.6437 -1.0170
 1015TIP3   OH224535   2.776   3.988   9.347 -0.3438  0.0777  0.5290
 1015TIP3    H124536   2.746   4.072   9.311 -0.8820 -0.0770  0.6135
 1015TIP3    H224537   2.719   3.923   9.307  0.5434 -0.3347 -0.1041
 1016TIP3   OH224538   6.114   3.014  11.834  0.0863 -0.2569  0.3687
 1016TIP3    H124539   6.041   2.996  11.774 -1.4903  3.0875  1.0513
 1016TIP3    H224540   6.093   2.964  11.913  0.6938 -2.4323 -0.7651
 1017TIP3   OH224541   3.521   2.957  10.989 -0.1328  0.3115 -0.3354
 1017TIP3    H124542   3.611   2.957  11.020 -0.6744 -0.8553  1.3688
 1017TIP3    H224543   3.510   2.872  10.946 -0.5997  0.1615  0.0725
 1018TIP3   OH224544   6.034   0.348  10.903 -0.5535 -0.2952 -0.3307
 1018TIP3    H124545   6.034   0.423  10.962 -2.5216 -0.0277 -0.6031
 1018TIP3    H224546   5.965   0.367  10.840 -1.0232 -2.2790 -0.4880
 1019TIP3   OH224547   1.614   2.177  11.814  0.0663 -0.0475  0.1379
 1019TIP3    H124548   1.652   2.102  11.859 -0.0635  0.1284  0.5448
 1019TIP3    H224549   1.661   2.253  11.848  1.7022 -0.0865 -1.8348
 1020TIP3   OH224550   4.272   5.423  13.561 -0.0112 -0.3047 -0.5171
 1020TIP3    H124551   4.325   5.416  13.640 -0.9353  0.8747  0.2496
 1020TIP3    H224552   4.192   5.375  13.581 -0.1056 -0.3014 -0.8767
 1021TIP3   OH224553   0.527   4.460  13.776 -0.0752 -0.1460  0.1057
 1021TIP3    H124554   0.506   4.529  13.713  0.5929 -2.2363 -2.6478
 1021TIP3    H224555   0.462   4.391  13.758 -0.1784 -0.6254  2.1226
 1022TIP3   OH224556   7.009   6.945  12.080 -0.2232  0.0121 -0.3049
 1022TIP3    H124557   7.008   6.850  12.071  0.6952  0.1109 -1.8151
 1022TIP3    H224558   7.063   6.961  12.157 -1.1405 -0.7008  0.5099
 1023TIP3   OH224559   3.514   4.838  13.132 -0.0650 -0.0504 -0.1656
 1023TIP3    H124560   3.543   4.906  13.071  0.3064 -0.6058 -0.6122
 1023TIP3    H224561   3.578   4.842  13.204 -0.1311  0.1678 -0.1164
 1024TIP3   OH224562   4.871   2.919   1.596  0.1032 -0.0177  0.6318
 1024TIP3    H124563   4.807   2.855   1.568  1.3142 -0.6579 -0.7932
 1024TIP3    H224564   4.885   2.901   1.689 -2.4202  0.7584  1.2234
 1025TIP3   OH224565   1.935   0.168  13.198 -0.5595 -0.2227 -0.5374
 1025TIP3    H124566   1.909   0.248  13.152 -0.4891 -0.4305 -0.9495
 1025TIP3    H224567   1.974   0.199  13.280  1.2725  0.2911 -1.5455
 1026TIP3   OH224568   5.339   0.898  10.817 -0.0752 -0.3375 -0.2227
 1026TIP3    H124569   5.350   0.961  10.888  1.4308 -0.3860 -0.3830
 1026TIP3    H224570   5.249   0.912  10.786 -0.5366  0.1390  1.2412
 1027TIP3   OH224571   4.078   2.996  10.514  1.0236  0.9632  0.2187
 1027TIP3    H124572   4.066   3.058  10.441  0.9584  1.7002  0.8410
 1027TIP3    H224573   4.035   3.038  10.588 -0.2199 -0.4466  0.3548
 1028TIP3   OH224574   0.297   4.395   9.505  0.0988 -0.3484 -0.2551
 1028TIP3    H124575   0.246   4.341   9.565  0.0003 -0.5967 -0.5583
 1028TIP3    H224576   0.245   4.475   9.494 -1.0979 -1.3122 -1.9159
 1029TIP3   OH224577   0.804   6.285  10.662  0.3043  0.2645 -0.0975
 1029TIP3    H124578   0.790   6.197  10.696 -0.8089  0.4812  0.0501
 1029TIP3    H224579   0.751   6.289  10.582 -3.2249  2.1125  2.1076
 1030TIP3   OH224580   3.015   2.787  14.599 -0.1570  0.3580  0.4257
 1030TIP3    H124581   2.940   2.729  14.587 -0.7463  1.2449 -0.2902
 1030TIP3    H224582   3.043   2.808  14.509 -0.4805  1.8419  0.6475
 1031TIP3   OH224583   1.373   7.187  13.424  0.2845  0.4674  0.3002
 1031TIP3    H124584   1.348   7.235  13.504 -0.8987  0.8793 -0.2806
 1031TIP3    H224585   1.451   7.231  13.393 -1.2032  2.6298 -0.6482
 1032TIP3   OH224586   2.539   4.932   1.498  0.5045 -0.7282 -0.1280
 1032TIP3    H124587   2.584   4.848   1.503  1.0858 -0.4473 -0.6380
 1032TIP3    H224588   2.495   4.940   1.583 -0.1083 -1.8487 -0.3263
 1033TIP3   OH224589   0.165   5.212   0.564  0.3677 -0.2379 -0.2469
 1033TIP3    H124590   0.095   5.162   0.524 -0.6982  1.8523 -1.1245
 1033TIP3    H224591   0.150   5.204   0.658 -1.1760  0.3212 -0.4252
 1034TIP3   OH224592   4.757   6.367  10.238 -0.1747 -0.0831 -0.5589
 1034TIP3    H124593   4.708   6.286  10.249  1.6173 -1.2518 -0.8890
 1034TIP3    H224594   4.745   6.390  10.146  1.0234 -1.1403 -0.9930
 1035TIP3   OH224595   0.705   4.905  13.232  0.0959 -0.0908 -0.3142
 1035TIP3    H124596   0.667   4.991  13.213 -0.8475 -0.0719  1.4389
 1035TIP3    H224597   0.800   4.918  13.222 -0.1245  0.7268 -1.5507
 1036TIP3   OH224598   1.305   1.028  10.670  0.2699 -0.3110 -0.1174
 1036TIP3    H124599   1.315   1.110  10.718  0.1846 -0.1827 -0.3138
 1036TIP3    H224600   1.242   1.049  10.600 -1.2599 -1.0453  0.9867
 1037TIP3   OH224601   5.454   5.318  12.240  0.0078 -0.7074  0.5474
 1037TIP3    H124602   5.531   5.337  12.293 -0.6667  1.6818  0.7666
 1037TIP3    H224603   5.457   5.381  12.169 -0.0454 -2.7384 -1.3701
 1038TIP3   OH224604   4.882   2.427   9.690 -0.0680  0.0931  0.0051
 1038TIP3    H124605   4.958   2.377   9.660 -0.8628 -1.7099  0.8328
 1038TIP3    H224606   4.837   2.452   9.610 -0.0268 -1.1743 -0.4395
 1039TIP3   OH224607   3.961   3.550   0.977 -0.6451 -0.2006  0.6523
 1039TIP3    H124608   3.869   3.573   0.985 -0.6255 -0.7009  3.3342
 1039TIP3    H224609   3.995   3.611   0.911 -2.3804  1.6927  1.3881
 1040TIP3   OH224610   4.121   3.157  11.294  0.1003  0.0952 -0.5283
 1040TIP3    H124611   4.124   3.252  11.280 -1.3464  0.6698  2.2800
 1040TIP3    H224612   4.203   3.138  11.340  0.5963 -0.1296 -1.4815
 1041TIP3   OH224613   1.487   4.014   0.022 -0.1399 -0.1691  0.3074
 1041TIP3    H124614   1.475   4.028  -0.072  0.8210 -1.1163  0.0153
 1041TIP3    H224615   1.483   4.102   0.060 -1.0518  0.1750 -0.5511
 1042TIP3   OH224616   7.172   2.507  10.208 -1.3315 -0.1154  0.8387
 1042TIP3    H124617   7.133   2.479  10.290 -0.5146 -1.1920  0.8866
 1042TIP3    H224618   7.143   2.441  10.144 -0.3153 -0.4456  0.7045
 1043TIP3   OH224619   5.937   6.034   2.412  0.1065  0.1914  0.5570
 1043TIP3    H124620   5.869   6.067   2.353  0.9422 -0.9454 -1.1059
 1043TIP3    H224621   5.901   5.953   2.448 -0.1168  0.5193  1.0913
 1044TIP3   OH224622   1.968   2.898  10.477  0.4820  0.1660  0.1042
 1044TIP3    H124623   1.950   2.830  10.542  0.3332  0.5896  0.5163
 1044TIP3    H224624   1.921   2.870  10.398 -2.4749  1.4530  1.2567
 1045TIP3   OH224625   4.682   2.083  11.487 -0.1700 -0.3493 -0.0048
 1045TIP3    H124626   4.646   2.088  11.398 -0.1201  1.2613  0.0290
 1045TIP3    H224627   4.774   2.058  11.474 -0.6189 -1.9890 -0.2543
 1046TIP3   OH224628   4.847   2.552  12.458  0.2284 -0.2322 -0.8724
 1046TIP3    H124629   4.922   2.568  12.517  0.2394  1.3148 -1.2698
 1046TIP3    H224630   4.791   2.493  12.508  1.3720 -0.8761 -0.2816
 1047TIP3   OH224631   5.407   2.565  11.247  0.1217 -0.1007  0.3259
 1047TIP3    H124632   5.322   2.579  11.289  0.9903  0.5802  1.9340
 1047TIP3    H224633   5.410   2.628  11.175 -0.1374  0.9044  1.1877
 1048TIP3   OH224634   5.933   4.178  13.143  0.1437 -0.1320  0.5421
 1048TIP3    H124635   6.026   4.193  13.160  0.7426 -1.1897 -1.5659
 1048TIP3    H224636   5.905   4.254  13.093 -0.1368  0.1758  1.1578
 1049TIP3   OH224637   0.843   5.276  12.018  0.1469 -0.2139 -0.2358
 1049TIP3    H124638   0.845   5.315  11.930  2.4727 -0.1932 -0.2142
 1049TIP3    H224639   0.816   5.348  12.075 -0.5579 -0.0030 -0.8135
 1050TIP3   OH224640   6.898   2.511  12.693  0.0622 -0.3166  0.0082
 1050TIP3    H124641   6.858   2.471  12.771  1.0973  0.8062  1.1557
 1050TIP3    H224642   6.825   2.556  12.650 -0.4182 -0.4911  0.6151
 1051TIP3   OH224643   3.407   3.890   4.642 -0.3133  0.6498  0.3497
 1051TIP3    H124644   3.487   3.843   4.618 -0.4317  1.2983 -1.5636
 1051TIP3    H224645   3.424   3.981   4.615 -1.8009  0.7192 -0.4491
 1052TIP3   OH224646   4.298   1.424   1.202 -0.4641 -0.5948 -0.7458
 1052TIP3    H124647   4.260   1.370   1.271  0.7245  1.1038  1.3433
 1052TIP3    H224648   4.222   1.463   1.158 -1.2916 -2.8066 -1.4329
 1053TIP3   OH224649   3.710   4.407  14.730 -0.6352  0.3992  0.2716
 1053TIP3    H124650   3.644   4.405  14.661  0.7989  2.4427 -1.2734
 1053TIP3    H224651   3.668   4.451  14.803 -0.7845  2.4635 -0.9974
 1054TIP3   OH224652   0.983   0.567  13.282 -0.2699  0.0685 -0.2968
 1054TIP3    H124653   0.920   0.572  13.354  0.1129 -2.5160  0.3397
 1054TIP3    H224654   0.992   0.473  13.264  2.9784  0.3142 -0.7113
 1055TIP3   OH224655   6.954   3.780  14.450  0.2588  0.0219  0.3321
 1055TIP3    H124656   6.930   3.761  14.359 -0.9538  0.8068  0.4520
 1055TIP3    H224657   6.954   3.875  14.455 -0.0771 -0.0131  1.2387
 1056TIP3   OH224658   5.760   2.317  12.934  0.2101 -0.0502  0.4471
 1056TIP3    H124659   5.803   2.240  12.895 -1.7979  0.2130 -2.6112
 1056TIP3    H224660   5.809   2.333  13.015  2.9702 -2.3795 -0.5769
 1057TIP3   OH224661   1.662   6.658  15.267  0.5802  0.1122 -0.5542
 1057TIP3    H124662   1.661   6.592  15.198 -1.2169 -0.8469  0.3172
 1057TIP3    H224663   1.714   6.619  15.337 -1.9609 -1.2944  0.6943
 1058TIP3   OH224664   1.167   0.163  10.075  0.2358 -0.1694 -0.3721
 1058TIP3    H124665   1.085   0.175  10.027  1.6762  0.6624 -2.8635
 1058TIP3    H224666   1.200   0.078  10.045  1.4013  0.5878 -1.3444
 1059TIP3   OH224667   6.711   5.215  13.508 -0.3102 -0.3261 -0.2252
 1059TIP3    H124668   6.734   5.243  13.597  1.3208 -0.4122 -0.5926
 1059TIP3    H224669   6.651   5.142  13.521 -1.4843  0.7476  0.7712
 1060TIP3   OH224670   3.553   5.270  10.745 -0.0512  0.5567 -0.3908
 1060TIP3    H124671   3.527   5.359  10.770 -1.0551  0.3173 -0.5454
 1060TIP3    H224672   3.476   5.234  10.701  0.1395 -0.6047  0.2026
 1061TIP3   OH224673   6.701   4.709   0.673  0.1213  0.0851  0.0050
 1061TIP3    H124674   6.736   4.704   0.584 -0.7854  0.7850 -0.4085
 1061TIP3    H224675   6.610   4.679   0.665 -0.2403  0.9964  0.5123
 1062TIP3   OH224676   4.787   6.108   0.591 -0.1658  0.4420  0.0548
 1062TIP3    H124677   4.777   6.186   0.537  0.7367  0.3020 -0.3356
 1062TIP3    H224678   4.749   6.037   0.539  2.5828 -0.0835 -1.4043
 1063TIP3   OH224679   4.551   2.647   2.144 -0.0150  0.2802 -0.6526
 1063TIP3    H124680   4.485   2.581   2.123 -1.2000  0.6479  1.6090
 1063TIP3    H224681   4.631   2.617   2.100 -1.0925 -1.4080 -1.5377
 1064TIP3   OH224682   4.925   0.970  11.924 -0.2684 -0.1454 -0.3186
 1064TIP3    H124683   4.990   1.039  11.910  1.0748 -0.7956  2.0626
 1064TIP3    H224684   4.843   1.018  11.941  0.4849  0.8743  0.6199
 1065TIP3   OH224685   0.339   3.825  14.107 -0.3424 -0.0990 -0.6581
 1065TIP3    H124686   0.329   3.746  14.159  0.7670  0.3898  0.3634
 1065TIP3    H224687   0.341   3.795  14.016 -0.8664 -1.1293 -0.3363
 1066TIP3   OH224688   4.837   6.897  14.213  0.4934  0.5190 -0.3339
 1066TIP3    H124689   4.930   6.891  14.231  0.6305 -2.2234 -1.4590
 1066TIP3    H224690   4.807   6.972  14.264  3.1437  1.0138  0.6401
 1067TIP3   OH224691   0.520   3.929  11.649  0.5520 -0.4376 -0.1364
 1067TIP3    H124692   0.559   3.981  11.719  0.6159  0.6844 -0.9772
 1067TIP3    H224693   0.584   3.861  11.631  1.4641  0.4780 -0.4616
 1068TIP3   OH224694   2.635   4.559  13.566  0.2021  0.7876  0.0823
 1068TIP3    H124695   2.660   4.631  13.507 -2.0798  0.6686 -1.1724
 1068TIP3    H224696   2.575   4.506  13.513  0.9874 -1.4621  1.3468
 1069TIP3   OH224697   2.836   0.006  14.917 -0.2568 -1.1827  0.0659
 1069TIP3    H124698   2.759  -0.025  14.869  0.7022 -3.0015 -0.4196
 1069TIP3    H224699   2.856  -0.065  14.978  2.1577 -1.6891 -1.1790
 1070TIP3   OH224700   6.634   6.992  13.623 -0.2859 -0.1150  0.0794
 1070TIP3    H124701   6.650   6.916  13.566 -0.9610 -0.2401  0.0588
 1070TIP3    H224702   6.570   7.045  13.575  0.5776  0.7584 -0.1691
 1071TIP3   OH224703   0.341   3.812  10.392 -0.1654  0.2101 -0.4942
 1071TIP3    H124704   0.284   3.884  10.364  0.9593  0.8809 -1.1431
 1071TIP3    H224705   0.427   3.836  10.357  0.9407  0.1578  2.0261
 1072TIP3   OH224706   3.818   2.122  12.180  0.0491 -0.1651  0.5934
 1072TIP3    H124707   3.909   2.150  12.186 -1.0305  4.7366 -1.0480
 1072TIP3    H224708   3.783   2.135  12.269  0.7160 -1.3494  1.0485
 1073TIP3   OH224709   1.821   5.642   9.408 -0.2495 -0.3349  0.1172
 1073TIP3    H124710   1.752   5.695   9.370 -0.2746 -0.2835  0.2343
 1073TIP3    H224711   1.895   5.701   9.417 -0.4532 -0.1743  0.7670
 1074TIP3   OH224712   3.169   5.668   2.071 -0.1541  0.1543  0.4266
 1074TIP3    H124713   3.264   5.679   2.075 -0.1232 -0.0992  0.3974
 1074TIP3    H224714   3.139   5.690   2.159  0.1959 -2.2761  1.2113
 1075TIP3   OH224715   7.037   2.968  11.805 -0.4043 -0.0582 -0.0257
 1075TIP3    H124716   7.084   2.896  11.846 -0.2860  0.7974  1.3955
 1075TIP3    H224717   6.975   2.926  11.746  1.3073 -1.2427 -1.0770
 1076TIP3   OH224718   1.364   0.641  13.097  0.4856 -0.3958  0.2072
 1076TIP3    H124719   1.445   0.665  13.052  0.7678 -0.3389  0.7389
 1076TIP3    H224720   1.331   0.566  13.048  0.6936 -0.2244 -0.2026
 1077TIP3   OH224721   1.741   0.228  15.259  0.1310 -0.1072 -0.5561
 1077TIP3    H124722   1.695   0.170  15.197  0.9377 -2.3846  0.8562
 1077TIP3    H224723   1.820   0.180  15.282 -0.4784  0.2898  2.8076
 1078TIP3   OH224724   5.563   0.088   9.531  0.1403  0.2989  0.7602
 1078TIP3    H124725   5.480   0.040   9.529  0.2948 -0.0248  1.6679
 1078TIP3    H224726   5.602   0.065   9.616  1.9131 -0.8087 -0.2987
 1079TIP3   OH224727   0.243   1.611   9.775 -0.3176 -0.7868 -0.2385
 1079TIP3    H124728   0.307   1.594   9.844 -1.4396 -0.4958  0.9206
 1079TIP3    H224729   0.289   1.590   9.694  1.1132 -0.9387  0.5718
 1080TIP3   OH224730   5.080   5.798  10.804  0.3009 -0.6426 -0.2726
 1080TIP3    H124731   5.016   5.868  10.815 -0.4687 -1.0174 -1.9725
 1080TIP3    H224732   5.029   5.717  10.812 -0.0077 -0.9729 -3.6850
 1081TIP3   OH224733   3.588   5.784  10.720  0.2675 -0.5740  0.2687
 1081TIP3    H124734   3.666   5.839  10.716  0.2765 -0.6412 -0.6371
 1081TIP3    H224735   3.522   5.838  10.763  0.1714  0.2937 -0.9205
 1082TIP3   OH224736   0.541   3.921  10.223  0.5263 -0.2888  0.3663
 1082TIP3    H124737   0.564   3.956  10.309  0.1442 -1.5188  0.9925
 1082TIP3    H224738   0.625   3.900  10.182  0.6788 -0.8694  0.9604
 1083TIP3   OH224739   5.363   5.522   4.442 -0.1138  0.1697  0.5579
 1083TIP3    H124740   5.451   5.489   4.422 -0.6089 -1.1458  0.4313
 1083TIP3    H224741   5.308   5.489   4.370 -0.4873  2.1204 -0.1006
 1084TIP3   OH224742   5.310   0.234   9.421  0.2103 -0.1261  0.9776
 1084TIP3    H124743   5.334   0.165   9.484  0.2017 -0.5536  0.5201
 1084TIP3    H224744   5.262   0.188   9.352  1.0490  0.1755  0.1685
 1085TIP3   OH224745   0.831   1.860  10.042  0.0031 -0.3849 -0.3955
 1085TIP3    H124746   0.855   1.797  10.110  0.5823  0.6190  0.3551
 1085TIP3    H224747   0.912   1.906  10.022 -0.6664  1.0836  0.0927
 1086TIP3   OH224748   7.092   1.633   2.823  0.3941 -0.0746 -0.0092
 1086TIP3    H124749   7.121   1.718   2.790 -1.7999  0.5937 -0.4267
 1086TIP3    H224750   7.047   1.592   2.749 -2.9061  0.6128  1.3997
 1087TIP3   OH224751   3.925   5.954  14.270  0.6860 -0.7961  0.4936
 1087TIP3    H124752   3.831   5.968  14.255  1.0832  0.6839 -0.8674
 1087TIP3    H224753   3.963   5.950  14.182  2.1998  1.0119  1.0004
 1088TIP3   OH224754   1.390   0.257  11.728 -0.5140 -0.2237  0.1238
 1088TIP3    H124755   1.401   0.215  11.814  0.9147 -0.1255  0.0051
 1088TIP3    H224756   1.299   0.286  11.728 -1.2498 -2.3436  0.6484
 1089TIP3   OH224757   7.153   5.780   2.315  0.3130 -0.4067 -0.3975
 1089TIP3    H124758   7.133   5.826   2.397 -4.6072 -0.8804 -1.0738
 1089TIP3    H224759   7.191   5.848   2.259 -1.2555  1.3732  0.5669
 1090TIP3   OH224760   7.249   1.844  15.094 -0.8368 -0.4038  0.7039
 1090TIP3    H124761   7.292   1.818  15.175 -1.0929 -0.3406  0.8619
 1090TIP3    H224762   7.298   1.921  15.065  0.0967 -1.1979  0.0897
 1091TIP3   OH224763   4.950   6.350  11.625  0.0777  0.0508  0.1410
 1091TIP3    H124764   4.891   6.318  11.557 -0.0988  1.8844 -0.6270
 1091TIP3    H224765   4.985   6.432  11.590  1.4646  0.0769  1.4708
 1092TIP3   OH224766   3.886   1.309  13.868  0.4973  0.3223  0.3788
 1092TIP3    H124767   3.903   1.362  13.947 -2.2318 -0.2293  1.4404
 1092TIP3    H224768   3.876   1.374  13.798 -2.5151  1.3541  1.6020
 1093TIP3   OH224769   2.965   5.008  11.747 -0.1889 -0.0236 -0.0318
 1093TIP3    H124770   2.922   4.998  11.662 -1.0013  0.0273  0.3666
 1093TIP3    H224771   2.924   4.943  11.803  0.9157 -0.6200  0.1208
 1094TIP3   OH224772   4.347   6.383  13.476  0.5827  0.3922  0.5545
 1094TIP3    H124773   4.276   6.387  13.541  0.0275 -3.7224  0.4727
 1094TIP3    H224774   4.402   6.311  13.506  1.2712 -0.5360 -2.6188
 1095TIP3   OH224775   5.093   4.139   2.044  0.0780 -0.0900 -0.1645
 1095TIP3    H124776   5.140   4.221   2.062  0.1036 -0.6694  3.0407
 1095TIP3    H224777   5.002   4.165   2.035  0.0335  0.3433  1.1910
 1096TIP3   OH224778   5.409   0.100  10.433  0.3794  0.6144  0.4489
 1096TIP3    H124779   5.444   0.015  10.405  0.8152  0.4150  1.5256
 1096TIP3    H224780   5.317   0.083  10.454  0.7442  0.1122  1.7628
 1097TIP3   OH224781   6.303   2.876   1.396 -0.3166  0.3343 -0.4747
 1097TIP3    H124782   6.230   2.877   1.458 -0.6934  0.3302 -0.9150
 1097TIP3    H224783   6.381   2.874   1.452 -0.6160  1.6035  0.0143
 1098TIP3   OH224784   6.348   6.305  12.792  0.1958  0.0789 -0.3149
 1098TIP3    H124785   6.274   6.326  12.850 -1.1520 -1.3229 -1.4283
 1098TIP3    H224786   6.411   6.261  12.849 -0.4127  0.1155  0.4034
 1099TIP3   OH224787   3.843   4.036  13.998  0.2222  0.1735  0.5058
 1099TIP3    H124788   3.812   4.108  14.052 -1.0342  0.1746 -0.1823
 1099TIP3    H224789   3.925   4.067  13.960 -0.1264  1.1052  0.4971
 1100TIP3   OH224790   6.380   4.739  14.825  0.6928  0.5465  0.4176
 1100TIP3    H124791   6.473   4.717  14.832 -0.1187 -2.9623  2.1516
 1100TIP3    H224792   6.362   4.737  14.732  1.8409 -1.5784  0.1826
 1101TIP3   OH224793   1.802   1.751  10.360  0.3383  0.1498  0.4399
 1101TIP3    H124794   1.752   1.725  10.437  1.1530 -0.7879  0.6811
 1101TIP3    H224795   1.876   1.690  10.359  0.3698  0.1866 -1.0507
 1102TIP3   OH224796   0.707   4.940  15.031  0.1941  0.2617  0.5275
 1102TIP3    H124797   0.733   4.973  14.945 -1.6061 -0.0293 -0.1537
 1102TIP3    H224798   0.776   4.876  15.053  1.8197  1.8602  0.3067
 1103TIP3   OH224799   5.864   5.842  12.681  0.1746 -0.4961 -0.2147
 1103TIP3    H124800   5.866   5.801  12.595  0.4703 -0.7432 -0.0883
 1103TIP3    H224801   5.830   5.775  12.739 -0.7328 -0.0986 -0.2618
 1104TIP3   OH224802   3.229   0.612  10.682  0.3592 -0.0697 -0.1808
 1104TIP3    H124803   3.215   0.636  10.773  0.1469  0.9651 -0.4755
 1104TIP3    H224804   3.324   0.610  10.672  0.3988 -1.0065  0.2589
 1105TIP3   OH224805   1.013   1.174  11.519  0.2914  0.0063 -0.0115
 1105TIP3    H124806   0.983   1.108  11.456  1.1492 -1.2460  0.8507
 1105TIP3    H224807   1.034   1.250  11.465 -0.4559 -0.5074 -1.0630
 1106TIP3   OH224808   1.015   0.738  13.063 -0.8863  0.5786  0.0100
 1106TIP3    H124809   1.068   0.696  12.995 -1.4215  0.0187 -0.0667
 1106TIP3    H224810   1.010   0.674  13.133 -2.1580  0.2800 -0.3256
 1107TIP3   OH224811   5.018   2.492  15.093 -0.0208 -0.3452  0.4750
 1107TIP3    H124812   4.951   2.554  15.064 -0.5228 -1.8196 -1.7356
 1107TIP3    H224813   5.088   2.499  15.029  0.9915 -0.4061  1.5349
 1108TIP3   OH224814   5.690   1.010   2.807  0.0858 -0.1252  0.0971
 1108TIP3    H124815   5.672   0.971   2.721  0.1614  0.8977 -0.3978
 1108TIP3    H224816   5.784   1.026   2.806  0.1538 -0.4991  0.5433
 1109TIP3   OH224817   6.652   6.336  13.266  0.4427  0.7990  0.4510
 1109TIP3    H124818   6.736   6.321  13.310 -0.9113 -0.8949  2.7372
 1109TIP3    H224819   6.623   6.421  13.299  0.5082  0.6126  1.0048
 1110TIP3   OH224820   1.424   3.427  14.058 -0.7541 -1.0951  0.5450
 1110TIP3    H124821   1.402   3.396  13.970  1.8438 -0.8646 -0.2737
 1110TIP3    H224822   1.409   3.352  14.115  1.9163 -2.8294 -0.8437
 1111TIP3   OH224823   2.090   0.495  12.862  0.1172  0.0431  0.1118
 1111TIP3    H124824   2.028   0.564  12.887 -0.4465 -0.7158  0.9217
 1111TIP3    H224825   2.108   0.511  12.770 -1.4776  0.1652 -0.2133
 1112TIP3   OH224826   7.234   3.925  14.481  0.0045  0.2880 -0.0680
 1112TIP3    H124827   7.256   4.005  14.529  0.4995  0.2159 -0.1681
 1112TIP3    H224828   7.219   3.860  14.550  1.7149 -0.0787  0.0068
 1113TIP3   OH224829   1.355   4.460  15.184  0.5142  0.0423  0.4654
 1113TIP3    H124830   1.391   4.519  15.117  0.1328 -0.8510 -0.5464
 1113TIP3    H224831   1.420   4.463  15.255  0.8217  1.1681  0.1628
 1114TIP3   OH224832   4.911   5.641  14.161 -0.2427  0.8510 -0.1423
 1114TIP3    H124833   4.944   5.717  14.113  0.3499  1.0518  0.5631
 1114TIP3    H224834   4.876   5.677  14.242  1.5120  0.2522  0.9415
 1115TIP3   OH224835   1.840   3.080  10.700  0.2852  0.3269  0.2042
 1115TIP3    H124836   1.901   3.041  10.762 -0.1686 -1.6030 -0.5055
 1115TIP3    H224837   1.838   3.019  10.626  0.5174  2.3443 -1.5818
 1116TIP3   OH224838   0.230   6.188  13.021  0.2630  0.5498 -0.7692
 1116TIP3    H124839   0.298   6.121  13.033 -0.1429  0.1447 -0.7032
 1116TIP3    H224840   0.249   6.254  13.088  0.2739  0.1747 -0.3964
 1117TIP3   OH224841   5.306   6.532  12.164 -0.4003 -0.4122 -0.3584
 1117TIP3    H124842   5.309   6.571  12.252  0.2926 -0.0284 -0.5488
 1117TIP3    H224843   5.396   6.536  12.133 -0.9475  1.2916 -1.8905
 1118TIP3   OH224844   5.228   6.286  14.565 -0.9841  0.1913  0.7081
 1118TIP3    H124845   5.279   6.205  14.567 -0.5797  0.4504  1.1031
 1118TIP3    H224846   5.147   6.264  14.610 -0.5237  0.2314  1.5749
 1119TIP3   OH224847   2.553   6.020  11.260 -0.4768  0.6644 -0.4626
 1119TIP3    H124848   2.473   6.007  11.311 -0.6075  0.5239 -0.6991
 1119TIP3    H224849   2.533   5.979  11.175 -0.2264  0.8078 -0.5885
 1120TIP3   OH224850   4.185   0.780  10.481  0.2790 -0.3811 -0.1194
 1120TIP3    H124851   4.142   0.696  10.464  1.4091 -0.8260 -0.8632
 1120TIP3    H224852   4.204   0.816  10.394  0.2963  0.3975  0.1924
 1121TIP3   OH224853   3.249   5.366   5.206 -0.1520 -0.2157  0.1964
 1121TIP3    H124854   3.304   5.298   5.245  1.0540  1.7794  2.1672
 1121TIP3    H224855   3.173   5.371   5.263 -0.1695  0.1677  0.1417
 1122TIP3   OH224856   1.636   2.584   2.126 -0.3975 -0.4746 -0.4236
 1122TIP3    H124857   1.569   2.640   2.086 -0.1778  0.9804  1.1480
 1122TIP3    H224858   1.600   2.561   2.212  0.0228 -1.8164 -0.5884
 1123TIP3   OH224859   1.642   6.856  10.862  0.9500 -0.5310 -0.1896
 1123TIP3    H124860   1.695   6.918  10.811 -0.7583  0.3820 -0.9337
 1123TIP3    H224861   1.556   6.898  10.869 -0.2294 -2.7393 -0.5820
 1124TIP3   OH224862   5.133   0.854  11.548  0.0584 -0.2852 -0.1803
 1124TIP3    H124863   5.057   0.802  11.521  0.2054 -0.5694 -0.0440
 1124TIP3    H224864   5.185   0.795  11.603  0.7129 -0.2957 -0.8079
 1125TIP3   OH224865   6.665   0.178  12.319  0.6486 -0.5200 -0.0536
 1125TIP3    H124866   6.650   0.112  12.252  2.9871 -0.3679 -0.8050
 1125TIP3    H224867   6.693   0.129  12.396 -1.9394 -0.6862  0.8834
 1126TIP3   OH224868   3.987   1.891  11.838  0.3617 -0.4318 -0.4746
 1126TIP3    H124869   3.938   1.847  11.769  0.0966 -1.7386  0.5056
 1126TIP3    H224870   4.073   1.850  11.837  0.3970 -0.3738 -0.1151
 1127TIP3   OH224871   6.098   1.268  13.762 -0.3691 -0.7574  0.2313
 1127TIP3    H124872   6.100   1.305  13.673  0.9208 -1.0600  0.1247
 1127TIP3    H224873   6.045   1.330  13.811  0.6474  0.5647 -0.2674
 1128TIP3   OH224874   1.471   4.706  13.030  0.4037 -0.1639 -0.6249
 1128TIP3    H124875   1.535   4.745  13.091 -0.1509 -1.5915  0.9359
 1128TIP3    H224876   1.459   4.617  13.062 -1.8257 -0.1628 -1.3286
 1129TIP3   OH224877   0.202   4.720  11.187  0.1440  0.1670 -0.5247
 1129TIP3    H124878   0.175   4.629  11.189  0.2924  0.0611  2.9579
 1129TIP3    H224879   0.296   4.717  11.206  0.6238  1.0087 -2.5092
 1130TIP3   OH224880   4.257   0.488  12.503  0.0524 -0.2234  0.4054
 1130TIP3    H124881   4.333   0.438  12.532  0.8697  0.8445  0.1897
 1130TIP3    H224882   4.283   0.524  12.418 -0.1832  1.2246  0.9129
 1131TIP3   OH224883   5.791   4.193   1.451 -0.2750 -0.4791 -0.0984
 1131TIP3    H124884   5.703   4.162   1.429  0.7144 -1.4784 -3.2959
 1131TIP3    H224885   5.832   4.120   1.497 -0.1510 -1.3868 -1.5514
 1132TIP3   OH224886   1.843   1.607  10.011 -0.3175 -0.7334  0.0070
 1132TIP3    H124887   1.922   1.632   9.964  0.2900 -2.8074 -0.1735
 1132TIP3    H224888   1.805   1.536   9.959 -1.2032 -1.1318  1.1384
 1133TIP3   OH224889   1.875   6.640  12.448  0.2384 -0.2501 -0.4888
 1133TIP3    H124890   1.928   6.719  12.459  0.1992 -0.0947 -1.3337
 1133TIP3    H224891   1.850   6.641  12.355 -0.7406 -0.6342 -0.2465
 1134TIP3   OH224892   6.773   4.124  10.285  0.4242  0.6338 -0.6739
 1134TIP3    H124893   6.838   4.101  10.219  0.8689 -0.0752 -0.0127
 1134TIP3    H224894   6.778   4.219  10.292  1.2682  0.6075 -0.7683
 1135TIP3   OH224895   1.567   0.375  11.074 -0.8155 -0.0738 -0.7178
 1135TIP3    H124896   1.575   0.309  11.005 -1.7674 -0.3182 -0.6006
 1135TIP3    H224897   1.481   0.360  11.112 -0.6780  0.6676 -0.0941
 1136TIP3   OH224898   1.634   0.886   2.483 -0.6892  0.4091 -0.1254
 1136TIP3    H124899   1.676   0.954   2.430 -0.0911  0.5899  0.5659
 1136TIP3    H224900   1.577   0.935   2.543  0.2706  0.3654  0.8473
 1137TIP3   OH224901   2.206   0.724  11.014  0.0954 -0.0286  0.5496
 1137TIP3    H124902   2.218   0.804  11.065  0.9510  1.3515 -1.6575
 1137TIP3    H224903   2.116   0.730  10.981  0.5452  0.7035 -0.6145
 1138TIP3   OH224904   5.404   5.517  10.860  0.1100 -0.4394  0.1658
 1138TIP3    H124905   5.401   5.610  10.885  1.6971  0.2519 -1.9947
 1138TIP3    H224906   5.367   5.471  10.936 -1.2854  1.9753  1.0591
 1139TIP3   OH224907   0.316   3.794   2.180 -0.7013 -0.3294  0.4427
 1139TIP3    H124908   0.324   3.872   2.235 -1.2593  0.4189 -0.5077
 1139TIP3    H224909   0.246   3.816   2.118  1.5122 -0.1277 -2.1901
 1140TIP3   OH224910   7.150   2.971   9.478  0.5495  0.0874 -0.1838
 1140TIP3    H124911   7.162   2.984   9.572  0.1273  0.5737 -0.1905
 1140TIP3    H224912   7.187   3.050   9.438  0.8319 -0.1708 -0.4369
 1141TIP3   OH224913   7.055   1.424   0.413 -0.4094  0.2452  0.1329
 1141TIP3    H124914   7.009   1.376   0.344  1.8349 -1.5150 -0.2324
 1141TIP3    H224915   7.041   1.371   0.492  2.6363 -1.5513 -0.4020
 1142TIP3   OH224916   1.855   0.232  12.672  1.2171  0.4904 -0.1662
 1142TIP3    H124917   1.892   0.187  12.748 -0.4083 -1.0669 -0.2306
 1142TIP3    H224918   1.805   0.305  12.710  0.4467 -0.2579  0.2999
 1143TIP3   OH224919   0.290   4.018   9.488 -0.3684 -0.2638  0.5982
 1143TIP3    H124920   0.286   4.001   9.394  2.6463 -1.5608  0.5703
 1143TIP3    H224921   0.202   4.048   9.512 -0.8929  1.4241 -2.8448
 1144TIP3   OH224922   1.064   2.249  11.602  0.4951  0.3292 -0.0127
 1144TIP3    H124923   1.016   2.205  11.673 -0.1583  0.2687 -0.4912
 1144TIP3    H224924   1.069   2.340  11.631  0.1104  0.3332  0.0516
 1145TIP3   OH224925   1.980   6.060  11.599  0.2958  0.2705  0.2612
 1145TIP3    H124926   1.969   6.122  11.527  2.0008  1.5337  1.0084
 1145TIP3    H224927   2.018   5.982  11.559 -1.7166 -0.2830 -0.6695
 1146TIP3   OH224928   0.054   6.101  10.517 -0.4307  0.2181 -0.2926
 1146TIP3    H124929   0.107   6.109  10.597  1.3494 -2.5506 -1.0284
 1146TIP3    H224930  -0.018   6.043  10.542 -0.9019  0.7995 -0.2790
 1147TIP3   OH224931   6.190   2.254   9.678  0.0045  0.1236  0.1201
 1147TIP3    H124932   6.197   2.347   9.696 -0.8668  0.5484 -1.4722
 1147TIP3    H224933   6.275   2.229   9.642 -0.0295  0.5089 -0.2312
 1148TIP3   OH224934   6.992   0.928  12.520  0.1725 -0.5317  0.6454
 1148TIP3    H124935   7.072   0.918  12.469 -1.5679 -0.7549 -2.2330
 1148TIP3    H224936   6.942   0.994  12.474 -1.0441  0.1734  2.8212
 1149TIP3   OH224937   2.689   5.397  10.975 -0.1914  0.5213  0.4493
 1149TIP3    H124938   2.643   5.443  10.905  0.0850 -1.1162 -0.8739
 1149TIP3    H224939   2.780   5.394  10.946 -0.1623 -0.6257  0.6038
 1150TIP3   OH224940   6.004   4.423   0.186  0.3925  0.6511 -0.3343
 1150TIP3    H124941   6.047   4.438   0.102 -0.3155 -0.2743 -0.8838
 1150TIP3    H224942   6.064   4.367   0.235  0.3699  0.3763 -0.6176
 1151TIP3   OH224943   6.112   2.319   4.305 -0.2861 -0.2279 -0.3811
 1151TIP3    H124944   6.095   2.284   4.393  0.7993  0.1207 -0.0170
 1151TIP3    H224945   6.026   2.344   4.272 -0.6516  0.1579  0.8091
 1152TIP3   OH224946   4.086   0.189  15.020  0.2553  0.4923 -0.0654
 1152TIP3    H124947   4.000   0.210  14.984  1.0923  0.2350 -2.3945
 1152TIP3    H224948   4.069   0.160  15.110 -1.9745  1.2196 -0.2106
 1153TIP3   OH224949   6.781   5.297   0.660 -0.3474 -0.1173 -0.4307
 1153TIP3    H124950   6.797   5.340   0.576  0.1932  0.2988 -0.1209
 1153TIP3    H224951   6.706   5.344   0.696  1.1146  1.6042  0.5629
 1154TIP3   OH224952   4.020   2.078   3.231 -0.4187  0.0341  0.6345
 1154TIP3    H124953   4.086   2.020   3.194  0.0666  1.3276 -0.5811
 1154TIP3    H224954   4.058   2.108   3.314  0.1500  0.1092  0.3478
 1155TIP3   OH224955   2.229   0.381  12.156 -0.1831 -0.0898 -0.7059
 1155TIP3    H124956   2.141   0.387  12.120  0.4399  0.3657 -2.2369
 1155TIP3    H224957   2.285   0.369  12.080  0.9728 -1.7711  0.3234
 1156TIP3   OH224958   1.671   6.162  13.776  0.0429  0.1856 -0.0578
 1156TIP3    H124959   1.695   6.073  13.753  2.4824  0.3884  1.3685
 1156TIP3    H224960   1.584   6.154  13.816  0.0151 -1.4746 -0.3854
 1157TIP3   OH224961   4.628   3.383   0.705  0.1841  0.4115  0.3550
 1157TIP3    H124962   4.625   3.380   0.610  1.2987 -1.7760  0.3393
 1157TIP3    H224963   4.720   3.375   0.727 -0.1918 -0.9764  1.6170
 1158TIP3   OH224964   2.206   1.665   9.903  0.1357 -0.0069 -0.3353
 1158TIP3    H124965   2.267   1.669   9.829 -0.5491  0.3800 -0.8883
 1158TIP3    H224966   2.137   1.727   9.880  0.0033  0.2509  0.7143
 1159TIP3   OH224967   0.329   0.034   0.901 -0.4950  0.2691 -0.5901
 1159TIP3    H124968   0.282  -0.024   0.959 -1.0554  0.2288 -1.0771
 1159TIP3    H224969   0.386   0.086   0.959 -0.6632 -0.1238 -0.0706
 1160TIP3   OH224970   1.555   1.407  13.257 -0.0723 -0.4226  0.4340
 1160TIP3    H124971   1.616   1.370  13.320  1.2349  0.0230 -0.5186
 1160TIP3    H224972   1.605   1.413  13.175 -2.2169 -2.7438 -1.2293
 1161TIP3   OH224973   0.646   1.337  12.633  0.0852  0.1218  0.9560
 1161TIP3    H124974   0.623   1.426  12.607 -0.3907  0.7640  3.3156
 1161TIP3    H224975   0.719   1.348  12.695 -0.7020 -0.9850  2.1426
 1162TIP3   OH224976   5.295   3.592  13.131 -0.1204 -0.1297 -0.1266
 1162TIP3    H124977   5.334   3.662  13.079 -0.0626  0.3726  0.5797
 1162TIP3    H224978   5.215   3.570  13.085  0.2922 -0.1963 -0.8236
 1163TIP3   OH224979   6.243   7.104  10.985 -0.7440  0.6667 -0.3694
 1163TIP3    H124980   6.285   7.020  11.004 -0.1428  0.3793 -2.6234
 1163TIP3    H224981   6.158   7.080  10.949 -1.2928  1.1150  0.5991
 1164TIP3   OH224982   0.312   2.681  15.355  0.2708 -0.4146  0.0243
 1164TIP3    H124983   0.346   2.657  15.269  0.4532 -0.5426  0.1307
 1164TIP3    H224984   0.327   2.603  15.409 -1.4647 -1.0083 -0.2713
 1165TIP3   OH224985   1.911   7.092   3.141  0.6752  0.0777 -0.2391
 1165TIP3    H124986   1.932   7.028   3.072 -1.3240 -1.0152  0.0834
 1165TIP3    H224987   1.983   7.085   3.203  1.7398 -0.0320 -1.4492
 1166TIP3   OH224988   7.112   4.903   1.913  0.3531 -0.1603 -1.1403
 1166TIP3    H124989   7.110   4.995   1.888 -0.6297 -0.3655 -1.8879
 1166TIP3    H224990   7.063   4.858   1.844  1.1946 -1.3080 -1.0285
 1167TIP3   OH224991   1.925   1.917  11.787  0.4199 -0.4783 -0.7027
 1167TIP3    H124992   1.974   1.948  11.863 -1.3927  1.8094 -0.3566
 1167TIP3    H224993   1.880   1.838  11.818 -0.0249  0.2338  0.5258
 1168TIP3   OH224994   4.616   2.734  12.395 -0.0801 -0.5495  0.6249
 1168TIP3    H124995   4.698   2.685  12.401  0.5359  0.1805 -1.2175
 1168TIP3    H224996   4.550   2.667  12.376  0.5993 -0.8255 -0.9026
 1169TIP3   OH224997   3.948   1.883  14.814  0.5178  0.1980  0.9287
 1169TIP3    H124998   4.043   1.871  14.804  0.2187 -1.0133 -0.8773
 1169TIP3    H224999   3.920   1.807  14.865 -0.0610 -2.2970 -2.6750
 1170TIP3   OH225000   1.137   5.295  10.694  0.5623 -0.0819 -0.0420
 1170TIP3    H125001   1.058   5.334  10.657  1.0967  1.2591  0.1674
 1170TIP3    H225002   1.106   5.217  10.740 -0.8393  1.1191  1.1572
 1171TIP3   OH225003   2.505   3.713  13.074  0.0350 -0.6317  0.0916
 1171TIP3    H125004   2.416   3.732  13.103  0.0364  2.0062 -1.2436
 1171TIP3    H225005   2.549   3.678  13.151 -1.2410  1.3280  1.8212
 1172TIP3   OH225006   1.979   2.957  13.862  0.0862 -0.3785  0.0044
 1172TIP3    H125007   1.928   2.877  13.846  1.0958 -0.6734 -2.1998
 1172TIP3    H225008   2.070   2.927  13.862  0.4240  0.6220  0.2976
 1173TIP3   OH225009   6.032   5.533  12.976  0.0726 -0.8790 -0.4824
 1173TIP3    H125010   6.127   5.520  12.980  0.4772  1.5992 -0.5963
 1173TIP3    H225011   6.016   5.613  13.027 -1.5729  0.3477 -2.7273
 1174TIP3   OH225012   2.173   0.160  12.295 -0.1134  0.0064  0.1448
 1174TIP3    H125013   2.204   0.219  12.226 -0.9937 -3.4589 -3.5891
 1174TIP3    H225014   2.080   0.180  12.303  0.0011  0.4571  0.3489
 1175TIP3   OH225015   6.417   5.094   9.969  0.2508  0.1408 -0.4664
 1175TIP3    H125016   6.474   5.126   9.899  0.1860  0.3041 -0.4438
 1175TIP3    H225017   6.385   5.009   9.937 -0.5440  0.6510 -1.0563
 1176TIP3   OH225018   0.615   4.356  10.546  0.2091  0.8708 -0.0747
 1176TIP3    H125019   0.679   4.344  10.476  1.2187  0.3205  0.8977
 1176TIP3    H225020   0.531   4.334  10.506  0.8317  0.0164 -0.9608
 1177TIP3   OH225021   4.658   2.200  11.228  0.0336 -0.2494 -0.6265
 1177TIP3    H125022   4.642   2.261  11.299 -0.0098 -2.0145  0.9543
 1177TIP3    H225023   4.595   2.225  11.160 -1.6214 -0.0024  0.9330
 1178TIP3   OH225024   1.055   6.190  10.707 -0.2365 -0.5533 -0.4438
 1178TIP3    H125025   1.008   6.253  10.652 -0.5681 -0.4466 -0.0476
 1178TIP3    H225026   1.015   6.200  10.794 -0.3405 -1.3589 -0.3919
 1179TIP3   OH225027   3.499   4.008  12.089  0.3376  0.4639 -0.0769
 1179TIP3    H125028   3.548   4.019  12.007  1.9179 -1.4700  0.5503
 1179TIP3    H225029   3.562   3.971  12.150 -1.3403  0.0051  1.4464
 1180TIP3   OH225030   7.160   4.259  11.446 -0.4551  0.2627 -0.0312
 1180TIP3    H125031   7.090   4.305  11.492 -0.8874  0.0733 -0.4800
 1180TIP3    H225032   7.115   4.215  11.373  0.0660 -0.2276 -0.0629
 1181TIP3   OH225033   2.833   6.399  12.743  0.2451  0.0808 -0.4473
 1181TIP3    H125034   2.757   6.436  12.697  0.8489  0.2989 -1.2920
 1181TIP3    H225035   2.817   6.420  12.835 -0.9675 -0.3276 -0.5461
 1182TIP3   OH225036   0.317   1.135  12.593  0.5954  0.1569 -0.3266
 1182TIP3    H125037   0.394   1.185  12.565  0.7611  0.3740  0.4940
 1182TIP3    H225038   0.247   1.201  12.599  0.5584  0.1082 -0.2309
 1183TIP3   OH225039   1.303   5.114  10.170  0.2873 -0.0837  0.3410
 1183TIP3    H125040   1.334   5.186  10.115  0.8009  0.5262  1.3838
 1183TIP3    H225041   1.278   5.045  10.109 -2.6204  1.8581 -0.8579
 1184TIP3   OH225042   2.611   2.915  14.648  0.3383 -0.3460  0.0206
 1184TIP3    H125043   2.628   2.826  14.679  0.0873 -0.5270 -0.3476
 1184TIP3    H225044   2.657   2.972  14.710 -1.5580 -0.6030  1.7995
 1185TIP3   OH225045   7.093   4.509   1.331  0.0417  0.0355  0.2700
 1185TIP3    H125046   7.041   4.431   1.311 -2.4272  1.1116  1.9490
 1185TIP3    H225047   7.167   4.504   1.271 -0.5279 -3.0527 -0.3741
 1186TIP3   OH225048   4.195   5.612  13.896 -0.5161  0.4133  0.1321
 1186TIP3    H125049   4.282   5.572  13.905 -0.5341  0.8108  2.8558
 1186TIP3    H225050   4.157   5.607  13.984 -2.5645  1.8135 -0.5989
 1187TIP3   OH225051   0.523   5.451  10.338 -0.0562 -0.2737  0.0925
 1187TIP3    H125052   0.480   5.366  10.349 -2.1391  0.3247 -2.4232
 1187TIP3    H225053   0.602   5.431  10.289 -1.3197 -0.7015 -1.8983
 1188TIP3   OH225054   5.136   1.189  13.892  0.2001 -0.2879 -0.6253
 1188TIP3    H125055   5.114   1.247  13.965 -0.2902  0.6606 -1.4926
 1188TIP3    H225056   5.191   1.243  13.835 -0.2950 -0.6563 -1.4710
 1189TIP3   OH225057   3.984   0.724  12.974  0.0998 -0.2225 -0.2869
 1189TIP3    H125058   3.966   0.787  12.904 -1.2885 -2.5712 -2.2813
 1189TIP3    H225059   4.065   0.680  12.947 -0.0356 -0.6383 -0.0360
 1190TIP3   OH225060   1.306   6.437   2.641  0.3426 -0.4719 -0.2086
 1190TIP3    H125061   1.373   6.415   2.706 -0.8533  1.0959  1.6852
 1190TIP3    H225062   1.325   6.528   2.618 -1.4707  0.2314  0.8790
 1191TIP3   OH225063   0.327   6.774  13.379  0.0676  0.2168  0.6211
 1191TIP3    H125064   0.247   6.821  13.359 -0.7037 -1.2753  0.0148
 1191TIP3    H225065   0.304   6.717  13.452  0.5367 -0.2979  0.3794
 1192TIP3   OH225066   0.502   0.995  14.363  0.7421  0.4651 -0.5658
 1192TIP3    H125067   0.503   1.057  14.436 -2.0598  0.5058 -0.4387
 1192TIP3    H225068   0.497   0.909  14.404  1.0082  0.3770 -0.7155
 1193TIP3   OH225069   2.682   6.243  11.674 -0.1430  0.4622  0.4256
 1193TIP3    H125070   2.743   6.231  11.601  0.0143  0.7498  0.5060
 1193TIP3    H225071   2.719   6.316  11.724 -1.2687  1.5421 -0.2665
 1194TIP3   OH225072   5.365   1.006  11.532  0.0674 -0.0252  0.4333
 1194TIP3    H125073   5.282   0.964  11.557 -0.7085  0.2376 -1.4758
 1194TIP3    H225074   5.426   0.933  11.521  0.1968 -0.2078  2.0706
 1195TIP3   OH225075   2.543   2.581  10.606  0.2220 -0.5021  0.0737
 1195TIP3    H125076   2.500   2.587  10.691  0.1728 -0.5352  0.0511
 1195TIP3    H225077   2.611   2.649  10.609  0.6490 -0.9358  0.3848
 1196TIP3   OH225078   5.910   0.436  10.358  0.6368 -0.2019  0.3127
 1196TIP3    H125079   5.877   0.351  10.387 -1.4609  0.9140  1.3865
 1196TIP3    H225080   5.947   0.419  10.271  0.6406 -2.2576  0.6603
 1197TIP3   OH225081   0.428   5.963   0.410  0.2516  0.5216 -0.1878
 1197TIP3    H125082   0.345   5.926   0.380  0.6027 -0.5990  0.1781
 1197TIP3    H225083   0.439   5.929   0.499  1.5879 -0.1788 -0.5936
 1198TIP3   OH225084   3.073   0.306  13.102  0.4410 -0.3508 -0.2222
 1198TIP3    H125085   3.089   0.384  13.050 -1.4312 -0.1773 -0.6118
 1198TIP3    H225086   3.016   0.251  13.046 -1.7754 -0.0890  1.6219
 1199TIP3   OH225087   0.668   2.025  12.340 -0.0269  0.4440 -0.0904
 1199TIP3    H125088   0.688   2.095  12.278 -0.0345  1.3439  0.8893
 1199TIP3    H225089   0.632   2.071  12.416  1.4870 -0.4737  1.2319
 1200TIP3   OH225090   3.926   1.722  11.635  0.2703 -0.4663 -0.4984
 1200TIP3    H125091   4.020   1.708  11.624  0.5393  0.3714  0.5708
 1200TIP3    H225092   3.904   1.789  11.569  0.2734 -1.1586 -1.2150
 1201TIP3   OH225093   4.300   1.409  10.030 -0.1730 -0.5449  0.3176
 1201TIP3    H125094   4.305   1.315  10.015  0.6078 -0.2311 -1.7991
 1201TIP3    H225095   4.212   1.423  10.067 -0.5103 -2.0317  0.1354
 1202TIP3   OH225096   3.602   5.702  12.509 -0.7361  0.5312 -0.0980
 1202TIP3    H125097   3.640   5.622  12.547  2.5188  2.2600  0.6317
 1202TIP3    H225098   3.563   5.673  12.426 -0.1011 -1.8717  0.3712
 1203TIP3   OH225099   0.099   6.061  14.398  0.1269 -0.4264 -0.2894
 1203TIP3    H125100   0.030   6.126  14.389 -0.6182 -1.1554  0.0634
 1203TIP3    H225101   0.086   6.002  14.324  1.2270  0.1832 -1.0122
 1204TIP3   OH225102   0.255   5.615  12.719  0.2295  0.4379  1.0414
 1204TIP3    H125103   0.243   5.596  12.626  3.2451  0.1840  0.6186
 1204TIP3    H225104   0.336   5.569  12.743  0.7191  2.2800  3.2538
 1205TIP3   OH225105   3.656   6.458  14.374  0.1980  0.0663 -0.2081
 1205TIP3    H125106   3.683   6.537  14.422  0.3091 -0.7368  1.1099
 1205TIP3    H225107   3.738   6.410  14.359 -0.1905 -2.0640  3.2346
 1206TIP3   OH225108   6.546   3.685  10.057 -0.5451 -0.1111  0.2569
 1206TIP3    H125109   6.467   3.739  10.059 -0.4443  0.0249  0.6844
 1206TIP3    H225110   6.552   3.654   9.967 -1.6819 -0.9861  0.4544
 1207TIP3   OH225111   1.085   2.702  12.527  0.0814  0.0228  0.0605
 1207TIP3    H125112   1.015   2.662  12.475 -0.0801 -0.7521  0.8531
 1207TIP3    H225113   1.131   2.758  12.465 -0.4057 -0.4991 -0.8006
 1208TIP3   OH225114   3.858   5.608  12.054  0.2341 -0.0911 -0.4821
 1208TIP3    H125115   3.899   5.540  11.999 -0.3956 -0.9975  0.1445
 1208TIP3    H225116   3.831   5.561  12.133 -0.3264  0.8743 -0.0932
 1209TIP3   OH225117   3.373   2.027  13.119 -0.1657 -0.8136  0.0764
 1209TIP3    H125118   3.369   1.953  13.181 -1.2099 -1.0924 -0.2974
 1209TIP3    H225119   3.282   2.055  13.111  0.2771  0.8962  0.6396
 1210TIP3   OH225120   5.717   6.981  12.154 -0.4503  1.2619 -0.4949
 1210TIP3    H125121   5.779   7.031  12.208 -1.2686  0.1569  1.6030
 1210TIP3    H225122   5.645   6.962  12.213  0.1597 -3.0655 -0.8419
 1211TIP3   OH225123   3.086   5.790  11.741  0.4324  0.2918 -0.2991
 1211TIP3    H125124   3.040   5.707  11.756  1.7997 -0.2468  1.0645
 1211TIP3    H225125   3.072   5.840  11.821  1.2431  0.5928 -0.3420
 1212TIP3   OH225126   3.838   2.345  15.174  0.3406  0.4087 -0.6722
 1212TIP3    H125127   3.921   2.391  15.176  0.8776 -0.5396 -0.3530
 1212TIP3    H225128   3.854   2.264  15.224 -0.0788 -0.8890 -2.5098
 1213TIP3   OH225129   1.095   4.502  11.484 -0.2330 -0.0936 -0.4624
 1213TIP3    H125130   1.082   4.447  11.561  1.7612  1.1639  0.8634
 1213TIP3    H225131   1.018   4.486  11.430 -2.8656  0.5558  2.7578
 1214TIP3   OH225132   4.941   6.496   0.627  0.2048 -0.1917 -0.1638
 1214TIP3    H125133   4.998   6.504   0.551 -0.2806 -0.4661 -0.5658
 1214TIP3    H225134   4.877   6.566   0.617  0.1600 -0.2071  0.0094
 1215TIP3   OH225135   6.687   5.781  13.793 -0.1383  0.2076 -0.1686
 1215TIP3    H125136   6.756   5.845  13.775 -0.1062 -0.3927 -2.4816
 1215TIP3    H225137   6.726   5.722  13.858  0.3725  1.6187  0.8632
 1216TIP3   OH225138   3.850   4.672  11.232  0.6425 -0.1439  0.0933
 1216TIP3    H125139   3.942   4.683  11.209  1.0145  0.7430  1.8604
 1216TIP3    H225140   3.819   4.603  11.174  2.1768  0.1531 -1.1423
 1217TIP3   OH225141   4.622   3.061  15.331  0.2421  0.2625 -0.5372
 1217TIP3    H125142   4.549   3.077  15.271 -0.0248  2.7647  0.3148
 1217TIP3    H225143   4.595   2.984  15.382 -1.5110  0.7344 -0.6892
 1218TIP3   OH225144   6.543   6.373  11.904  0.0135 -0.2757  0.1817
 1218TIP3    H125145   6.524   6.308  11.972  1.1524 -0.9488 -0.1232
 1218TIP3    H225146   6.603   6.329  11.844 -0.6643  0.4388 -1.0733
 1219TIP3   OH225147   2.732   1.876  14.083  0.2345  0.7185  0.1491
 1219TIP3    H125148   2.783   1.931  14.024 -1.7677  2.3777 -0.1518
 1219TIP3    H225149   2.767   1.893  14.170  1.7484 -0.0566 -0.2765
 1220TIP3   OH225150   0.357   0.764   9.946  0.3199  0.2623  0.4926
 1220TIP3    H125151   0.307   0.759   9.865 -1.1988  2.1641  1.2471
 1220TIP3    H225152   0.345   0.854   9.977 -0.4222 -0.7822  3.6032
 1221TIP3   OH225153   1.943   4.213  14.001 -0.5323 -0.0990 -0.3267
 1221TIP3    H125154   2.005   4.181  14.066 -0.3757 -0.5801 -0.7024
 1221TIP3    H225155   1.860   4.218  14.048 -0.4010 -0.3502 -0.0635
 1222TIP3   OH225156   0.974   6.383  14.228 -0.0037 -0.1343  0.3097
 1222TIP3    H125157   1.012   6.458  14.183  0.2827 -0.1665  0.4890
 1222TIP3    H225158   0.886   6.373  14.191  0.3093 -0.3055 -0.4072
 1223TIP3   OH225159   1.384   2.958   9.361 -0.5088  0.1656  0.2778
 1223TIP3    H125160   1.479   2.958   9.373 -0.5069  0.9411  0.3294
 1223TIP3    H225161   1.360   2.865   9.360  0.3737 -0.0755 -0.7487
 1224TIP3   OH225162   6.471   1.123   9.745  0.1968  0.2874  0.1246
 1224TIP3    H125163   6.415   1.199   9.761 -0.1604 -0.1605  1.0864
 1224TIP3    H225164   6.533   1.124   9.817 -1.3389 -1.6904  1.6074
 1225TIP3   OH225165   5.360   6.882  11.461  0.2196 -0.4475  0.0215
 1225TIP3    H125166   5.456   6.887  11.463  0.4095 -2.2213 -1.5004
 1225TIP3    H225167   5.338   6.882  11.368 -1.2357 -0.5077  0.3419
 1226TIP3   OH225168   2.371   0.042  11.580 -0.7590  0.2833  0.0710
 1226TIP3    H125169   2.402  -0.027  11.639  0.0854  0.8189  0.2787
 1226TIP3    H225170   2.375   0.122  11.634 -0.7687  0.6475 -0.4643
 1227TIP3   OH225171   5.621   1.396  13.999 -0.1281 -0.1184  0.5634
 1227TIP3    H125172   5.633   1.486  14.031  1.4508 -0.0431 -0.1568
 1227TIP3    H225173   5.670   1.393  13.917 -0.1321 -1.6524  0.5938
 1228TIP3   OH225174   5.119   5.892   9.684 -0.5470 -0.1256 -0.1012
 1228TIP3    H125175   5.195   5.859   9.635 -0.3344 -0.2521  0.3021
 1228TIP3    H225176   5.125   5.987   9.676 -1.0287 -0.1701 -1.0734
 1229TIP3   OH225177   4.067   1.102  11.259 -0.0640 -0.1531 -0.2165
 1229TIP3    H125178   4.009   1.039  11.217 -0.0499 -0.6905  0.5409
 1229TIP3    H225179   4.073   1.175  11.197 -0.3020 -0.7725 -0.9772
 1230TIP3   OH225180   6.118   4.573  11.449  0.0042 -0.4090  0.1417
 1230TIP3    H125181   6.207   4.607  11.443 -0.8147  1.7079 -1.3721
 1230TIP3    H225182   6.110   4.515  11.374  0.4628 -1.6114  0.9975
 1231TIP3   OH225183   5.854   2.395  14.362  0.0388  0.0606  0.0349
 1231TIP3    H125184   5.864   2.487  14.337 -1.2173  0.1263 -0.2958
 1231TIP3    H225185   5.930   2.351  14.324  0.1439  0.7974 -0.6375
 1232TIP3   OH225186   1.196   3.074  12.211 -0.7762  0.5770  0.3357
 1232TIP3    H125187   1.224   3.061  12.302 -0.3868 -2.0149 -0.0814
 1232TIP3    H225188   1.238   3.156  12.185 -0.5893  1.1748  2.3631
 1233TIP3   OH225189   3.681   3.636  14.320 -0.3093  0.0575 -0.1548
 1233TIP3    H125190   3.730   3.622  14.401 -0.5417  0.5396  0.0674
 1233TIP3    H225191   3.742   3.682  14.263  0.1605 -1.0558 -0.5795
 1234TIP3   OH225192   1.265   2.293  14.330 -0.0440  0.2713  0.0977
 1234TIP3    H125193   1.180   2.259  14.302  0.0580 -1.0930  1.3249
 1234TIP3    H225194   1.328   2.225  14.304  0.3532  0.1259  1.3585
 1235TIP3   OH225195   6.274   2.494  12.171 -0.6116  0.0411 -0.1624
 1235TIP3    H125196   6.190   2.455  12.146 -0.8749  1.8537 -2.3813
 1235TIP3    H225197   6.329   2.484  12.094  0.3565  1.1754  0.3598
 1236TIP3   OH225198   5.704   4.341  11.689 -0.0948 -0.6357  0.7492
 1236TIP3    H125199   5.669   4.274  11.747 -0.4218  0.7325  2.1931
 1236TIP3    H225200   5.799   4.331  11.694 -0.1381 -2.5239 -0.9682
 1237TIP3   OH225201   2.865   5.730   0.361  0.0868  0.0696 -0.4793
 1237TIP3    H125202   2.777   5.740   0.397 -0.0826 -2.4657 -0.0055
 1237TIP3    H225203   2.885   5.815   0.324 -1.9292  1.1886  0.8001
 1238TIP3   OH225204   0.986   1.861   9.117  1.0070 -0.2140 -0.2097
 1238TIP3    H125205   0.978   1.893   9.207  2.1859  1.0476 -0.5223
 1238TIP3    H225206   0.974   1.938   9.063  1.6509 -0.7133 -1.0890
 1239TIP3   OH225207   4.486   0.112  14.568  0.1522  0.2458  0.0598
 1239TIP3    H125208   4.492   0.036  14.510 -2.5346 -0.1731  0.1699
 1239TIP3    H225209   4.486   0.187  14.509 -3.1414 -0.1961 -0.7131
 1240TIP3   OH225210   0.592   7.035  13.285  0.1194  0.5071  0.6156
 1240TIP3    H125211   0.578   7.019  13.378 -0.0920  0.6168  0.6030
 1240TIP3    H225212   0.505   7.035  13.247 -0.1602  3.8237  0.9677
 1241TIP3   OH225213   4.168   4.849  11.992 -0.1064  0.8120 -0.2857
 1241TIP3    H125214   4.238   4.869  11.930  0.4969  1.8750  0.6905
 1241TIP3    H225215   4.103   4.917  11.976  0.1378  1.2015  0.3647
 1242TIP3   OH225216   2.094   7.255  11.491 -0.0664 -0.0364  0.0954
 1242TIP3    H125217   2.092   7.168  11.532 -0.6891 -0.0217  0.0992
 1242TIP3    H225218   2.187   7.271  11.476  0.2397  0.1739  1.9628
 1243TIP3   OH225219   1.203   4.735  12.277 -0.1895 -0.1413 -0.2307
 1243TIP3    H125220   1.113   4.717  12.302 -0.1045  1.9071  2.0071
 1243TIP3    H225221   1.198   4.763  12.186 -1.8295 -0.0463 -0.1372
 1244TIP3   OH225222   2.195   1.203   9.377 -0.0148  0.0475 -0.3303
 1244TIP3    H125223   2.249   1.281   9.393 -1.7031  0.9872  1.1734
 1244TIP3    H225224   2.139   1.228   9.304 -1.5184  0.8411  1.0309
 1245TIP3   OH225225   6.474   5.346  10.821  0.0759 -0.0579 -0.4188
 1245TIP3    H125226   6.424   5.402  10.880  0.2040  1.1109 -1.3868
 1245TIP3    H225227   6.547   5.400  10.791 -0.9833  0.0743 -3.0478
 1246TIP3   OH225228   0.262   4.836  11.948  0.0101 -0.1780 -0.5984
 1246TIP3    H125229   0.296   4.921  11.921 -0.3137  0.6291  1.3602
 1246TIP3    H225230   0.340   4.783  11.966  0.4065  1.3482  2.9286
 1247TIP3   OH225231   2.405   5.887  11.044 -0.0375  0.7271  0.2425
 1247TIP3    H125232   2.355   5.818  11.001 -1.1032  0.8060  1.3249
 1247TIP3    H225233   2.421   5.952  10.975  1.3982 -0.7705 -0.9239
 1248TIP3   OH225234   0.228   6.740  13.936  0.3367  0.2843 -0.1671
 1248TIP3    H125235   0.219   6.698  14.021  1.6190  0.0181 -0.1350
 1248TIP3    H225236   0.158   6.703  13.883 -2.0497  2.2437  1.3990
 1249TIP3   OH225237   1.257   1.257  10.822 -0.1687 -0.6400 -0.1385
 1249TIP3    H125238   1.290   1.209  10.898  0.7889  0.8524  0.4178
 1249TIP3    H225239   1.200   1.325  10.859 -1.2211 -1.0870 -0.8924
 1250TIP3   OH225240   7.022   2.345  14.437 -0.3840 -0.0773  0.0196
 1250TIP3    H125241   7.093   2.407  14.421 -0.5731 -0.6610 -4.3723
 1250TIP3    H225242   7.066   2.259  14.443 -0.4999 -0.0844  0.8587
 1251TIP3   OH225243   2.627   5.368  13.793  0.4640  0.4069 -0.6742
 1251TIP3    H125244   2.544   5.413  13.811 -0.4163 -1.3394 -0.1278
 1251TIP3    H225245   2.641   5.380  13.699  1.1781  3.2354 -0.2919
 1252TIP3   OH225246   6.760   6.214  14.303  0.0669  0.0493 -0.1273
 1252TIP3    H125247   6.784   6.246  14.390  2.7629 -2.8760  0.3839
 1252TIP3    H225248   6.666   6.198  14.309 -0.1142  1.4451  1.6780
 1253TIP3   OH225249   6.318   3.451   9.579  0.2347 -0.1561  0.6132
 1253TIP3    H125250   6.296   3.523   9.520  1.4992 -0.4838 -0.3095
 1253TIP3    H225251   6.272   3.471   9.660 -0.8565  0.7672 -0.1932
 1254TIP3   OH225252   5.632   5.855   9.383 -0.0953  0.7319 -0.0595
 1254TIP3    H125253   5.624   5.948   9.402 -0.2766  0.6914  0.0608
 1254TIP3    H225254   5.717   5.831   9.421  0.1187  0.9221 -0.4039
 1255TIP3   OH225255   1.320   6.037   1.213 -0.6390 -0.5911  0.0321
 1255TIP3    H125256   1.301   5.997   1.297 -2.5508 -0.1240 -0.1279
 1255TIP3    H225257   1.315   6.131   1.229  1.9479 -0.3882 -0.0013
 1256TIP3   OH225258   4.293   5.901   3.347 -0.0552  0.5823 -0.2039
 1256TIP3    H125259   4.330   5.835   3.289 -1.0954 -1.0807  0.9070
 1256TIP3    H225260   4.318   5.872   3.435 -1.6114  0.9422  0.3913
 1257TIP3   OH225261   2.848   2.727  12.116 -0.0160 -0.4717  0.2047
 1257TIP3    H125262   2.932   2.694  12.086  0.4464 -0.3909  1.3464
 1257TIP3    H225263   2.813   2.657  12.172  0.1068  0.1834  1.1269
 1258TIP3   OH225264   2.039   6.875  12.443  0.4535 -0.4821  0.0095
 1258TIP3    H125265   2.100   6.897  12.513  1.2066 -2.0530 -0.1142
 1258TIP3    H225266   2.010   6.960  12.409  0.9867  0.3052  1.4085
 1259TIP3   OH225267   1.258   5.681  12.412 -0.5137  0.2744  0.0989
 1259TIP3    H125268   1.182   5.625  12.432  1.2687 -1.5017  2.5506
 1259TIP3    H225269   1.325   5.620  12.381  1.3708  0.9845  2.4540
 1260TIP3   OH225270   1.069   1.281   9.826 -0.1586 -0.1864 -0.2969
 1260TIP3    H125271   1.161   1.257   9.831  0.1528  1.0991  3.5295
 1260TIP3    H225272   1.068   1.366   9.781  0.5803 -0.0293 -0.0201
 1261TIP3   OH225273   0.983   5.051  13.486  0.0223  0.1323 -0.4185
 1261TIP3    H125274   1.001   5.145  13.484  0.0704  0.1191 -0.6036
 1261TIP3    H225275   0.905   5.043  13.541  0.0379  0.2768 -0.3736
 1262TIP3   OH225276   6.489   7.076   9.589 -0.2595  0.3235  0.0035
 1262TIP3    H125277   6.537   7.107   9.666 -0.0377 -0.8792  0.3736
 1262TIP3    H225278   6.551   7.020   9.542 -1.7676 -2.9567  1.5765
 1263TIP3   OH225279   6.759   0.572  11.173  0.3424  0.3005 -0.0955
 1263TIP3    H125280   6.846   0.611  11.177 -0.7079  2.8735 -0.4597
 1263TIP3    H225281   6.741   0.560  11.080  0.3079 -0.2153 -0.0246
 1264TIP3   OH225282   1.649   1.272  11.183 -0.1998  0.8922  0.4353
 1264TIP3    H125283   1.655   1.282  11.088 -0.9638  1.1101  0.4076
 1264TIP3    H225284   1.562   1.303  11.205 -0.3845 -0.0561  1.0968
 1265TIP3   OH225285   0.110   4.098  12.293  0.1115 -0.0808 -0.2528
 1265TIP3    H125286   0.086   4.009  12.319 -1.5761 -0.2077 -1.9276
 1265TIP3    H225287   0.040   4.152  12.328  1.0469  0.5929  0.6181
 1266TIP3   OH225288   4.308   1.764  13.417  0.1490 -0.2358 -0.1983
 1266TIP3    H125289   4.386   1.804  13.457 -0.5920 -1.5882  2.8207
 1266TIP3    H225290   4.335   1.674  13.397 -0.5556 -0.6321  0.6205
 1267TIP3   OH225291   2.834   1.551  15.252  0.3663  0.4344 -0.1304
 1267TIP3    H125292   2.846   1.633  15.204  1.9004  1.2352  1.5124
 1267TIP3    H225293   2.912   1.544  15.306 -0.4781 -1.3315  0.9232
 1268TIP3   OH225294   3.185   3.977  13.146  0.5244 -0.0208  0.3624
 1268TIP3    H125295   3.216   3.982  13.237  0.8742  0.1496  0.2374
 1268TIP3    H225296   3.113   4.039  13.142 -1.0189 -1.6500  1.1079
 1269TIP3   OH225297   7.138   6.292  11.352 -0.4100  0.3865  0.4948
 1269TIP3    H125298   7.187   6.321  11.275 -0.0792  0.7208  0.8285
 1269TIP3    H225299   7.174   6.205  11.371 -1.3790 -0.2616 -0.4840
 1270TIP3   OH225300   3.449   1.394  10.809 -0.0984 -0.4973 -0.3218
 1270TIP3    H125301   3.529   1.404  10.757 -0.3277  1.9352 -0.3290
 1270TIP3    H225302   3.400   1.325  10.765  2.2807 -2.6118  0.1355
 1271TIP3   OH225303   3.456   4.742   3.575 -0.5185  0.1146  0.5020
 1271TIP3    H125304   3.525   4.738   3.508  1.0628  0.6707  2.0151
 1271TIP3    H225305   3.487   4.684   3.645 -1.6920  0.2381  1.1532
 1272TIP3   OH225306   5.636   4.159  10.624 -0.0147  0.5118 -0.2548
 1272TIP3    H125307   5.632   4.073  10.582  0.3263  1.3946 -2.2249
 1272TIP3    H225308   5.722   4.193  10.600 -0.6382  1.9086 -0.5821
 1273TIP3   OH225309   3.377   4.529  10.931 -0.0486  0.1809 -0.1996
 1273TIP3    H125310   3.464   4.562  10.908  0.1176 -0.2329 -0.1879
 1273TIP3    H225311   3.321   4.606  10.931  0.1670  0.3480 -0.9412
 1274TIP3   OH225312   6.635   7.060   0.879  0.1114  0.0511  0.4544
 1274TIP3    H125313   6.611   7.001   0.951  1.5104  0.4299  1.2618
 1274TIP3    H225314   6.551   7.094   0.848 -0.6034 -1.0892  1.0660
 1275TIP3   OH225315   0.100   3.528  13.649  0.2984 -0.9286  0.1459
 1275TIP3    H125316   0.068   3.618  13.661  1.5075 -0.3111 -0.9135
 1275TIP3    H225317   0.107   3.493  13.737  1.1336  0.5336  0.7022
 1276TIP3   OH225318   6.462   0.693   9.919  0.2428  0.3769 -0.3205
 1276TIP3    H125319   6.403   0.653   9.856 -0.4157  0.8122  0.0160
 1276TIP3    H225320   6.455   0.638   9.997  3.1333 -1.8408 -1.4389
 1277TIP3   OH225321   1.070   5.701   9.686 -0.9188  0.2132 -0.4983
 1277TIP3    H125322   0.979   5.687   9.660 -1.3215  0.0735  0.9098
 1277TIP3    H225323   1.075   5.667   9.775  0.7601 -0.6866 -0.8772
 1278TIP3   OH225324   6.889   5.970  14.316 -0.1931  0.5146 -0.0248
 1278TIP3    H125325   6.940   5.979  14.396 -0.0347  1.3156 -0.2067
 1278TIP3    H225326   6.865   6.060  14.292  2.4764  0.6934 -2.6162
 1279TIP3   OH225327   4.315   4.408  14.822  0.5051  0.1956 -0.2870
 1279TIP3    H125328   4.241   4.457  14.785 -1.1467 -2.1299 -0.2722
 1279TIP3    H225329   4.365   4.378  14.747 -0.6155 -1.1968 -0.5110
 1280TIP3   OH225330   1.906   6.562  10.724 -0.4441 -0.0722  0.5345
 1280TIP3    H125331   1.932   6.647  10.688 -0.3809 -0.2769  0.0921
 1280TIP3    H225332   1.810   6.566  10.725 -0.4829 -0.3918 -0.4841
 1281TIP3   OH225333   3.893   2.075  14.615  0.6627  0.7310  0.3139
 1281TIP3    H125334   3.955   2.126  14.666  0.2229 -0.5391  2.2155
 1281TIP3    H225335   3.886   1.992  14.662 -0.9240  0.0716 -0.9980
 1282TIP3   OH225336   6.277   2.519  12.865  0.1523 -0.5584 -0.4171
 1282TIP3    H125337   6.244   2.447  12.919  2.3007 -1.3781 -0.1086
 1282TIP3    H225338   6.301   2.479  12.782  3.2735 -0.7128  0.4392
 1283TIP3   OH225339   0.648   2.502   0.835 -0.5298 -0.4458 -0.2942
 1283TIP3    H125340   0.567   2.522   0.882 -0.2324  0.7436 -0.2609
 1283TIP3    H225341   0.632   2.531   0.746  0.3359  1.1289  0.0307
 1284TIP3   OH225342   7.105   1.672   9.866 -0.3679  0.2487 -0.0050
 1284TIP3    H125343   7.078   1.700   9.779  0.9158  0.5248 -0.3326
 1284TIP3    H225344   7.024   1.673   9.918 -0.4703  4.5823  0.0587
 1285TIP3   OH225345   5.873   2.950  11.703 -0.1976 -0.1574 -0.3640
 1285TIP3    H125346   5.907   2.992  11.624 -3.8794  0.2828 -1.8830
 1285TIP3    H225347   5.842   2.865  11.673 -2.4661  0.3688  0.3442
 1286TIP3   OH225348   4.221   2.389  13.596 -0.9413  0.0676  0.0532
 1286TIP3    H125349   4.148   2.365  13.538 -1.0023 -0.1279  0.2105
 1286TIP3    H225350   4.236   2.482  13.578 -0.0002 -0.3180 -1.3565
 1287TIP3   OH225351   1.414   1.363  11.113 -0.2155  0.2478  0.5718
 1287TIP3    H125352   1.332   1.314  11.114 -0.3776  0.5255  1.6376
 1287TIP3    H225353   1.387   1.453  11.096 -0.0813  0.2568  0.4064
 1288TIP3   OH225354   2.802   6.664  12.321  0.2346  0.2176  0.2599
 1288TIP3    H125355   2.747   6.708  12.386 -1.2257 -0.6834 -0.3132
 1288TIP3    H225356   2.756   6.582  12.303 -0.2983  1.1191 -3.0818
 1289TIP3   OH225357   3.125   3.703  14.226  0.2112  0.1356 -0.5989
 1289TIP3    H125358   3.112   3.609  14.240 -0.6367  0.3114 -0.1255
 1289TIP3    H225359   3.148   3.737  14.313 -0.5537  0.5331 -0.5491
 1290TIP3   OH225360   1.194   4.345  13.303  0.2193 -0.1196  0.4213
 1290TIP3    H125361   1.198   4.292  13.223  1.9201  0.0292  0.3669
 1290TIP3    H225362   1.109   4.389  13.299 -0.2534 -1.1019 -0.6635
 1291TIP3   OH225363   6.685   1.024  13.358  0.0413  0.0218 -0.5960
 1291TIP3    H125364   6.694   0.942  13.309 -1.8812  0.2843 -1.4739
 1291TIP3    H225365   6.613   1.070  13.314  0.4684  1.7654  0.4618
 1292TIP3   OH225366   5.412   6.241  10.858  0.4746 -0.4023  0.1595
 1292TIP3    H125367   5.351   6.191  10.804 -0.9464  1.8542 -0.4545
 1292TIP3    H225368   5.357   6.307  10.901  1.7963 -1.1163  3.2016
 1293TIP3   OH225369   0.254   3.668   2.535  0.2224  0.4362  0.3686
 1293TIP3    H125370   0.294   3.625   2.611  2.9985 -0.9534 -1.7011
 1293TIP3    H225371   0.243   3.759   2.562  2.9152  0.4252  1.8511
 1294TIP3   OH225372   3.588   7.022   9.668  0.3049 -0.1080  0.6099
 1294TIP3    H125373   3.600   7.093   9.731  0.0059  2.8523 -2.3881
 1294TIP3    H225374   3.659   7.033   9.605 -1.5633 -0.4164 -1.6707
 1295TIP3   OH225375   3.384   1.150  13.420  0.1703 -0.2923 -0.2243
 1295TIP3    H125376   3.391   1.245  13.416  1.6225 -0.2899  1.4333
 1295TIP3    H225377   3.308   1.134  13.476 -0.7331 -0.1540 -1.3673
 1296TIP3   OH225378   4.261   2.103   0.521 -0.0753 -0.3129  0.2971
 1296TIP3    H125379   4.326   2.160   0.563  0.5020 -1.3527  0.8676
 1296TIP3    H225380   4.178   2.126   0.564 -0.4377  2.0444 -1.4359
 1297TIP3   OH225381   5.461   4.247   9.456  0.0684  0.0384  0.2900
 1297TIP3    H125382   5.421   4.161   9.471  0.0051 -0.2293 -1.3217
 1297TIP3    H225383   5.435   4.271   9.368  0.8939  1.2912  0.3633
 1298TIP3   OH225384   7.133   5.500  14.208  0.1026  0.3192 -0.0565
 1298TIP3    H125385   7.042   5.530  14.204 -1.8824 -4.7675 -0.4502
 1298TIP3    H225386   7.157   5.508  14.300 -1.8618 -0.7414  0.6121
 1299TIP3   OH225387   1.529   4.387   3.970 -0.0351  0.2884 -0.4554
 1299TIP3    H125388   1.528   4.478   3.939 -1.6447  0.3210 -0.4029
 1299TIP3    H225389   1.442   4.374   4.010  0.4816 -1.0142  0.3096
 1300TIP3   OH225390   2.016   6.374  12.608  0.3343  0.2539 -0.3648
 1300TIP3    H125391   1.922   6.377  12.589 -0.2546 -4.4908  0.6575
 1300TIP3    H225392   2.024   6.417  12.694 -0.5143  2.2240 -1.2035
 1301TIP3   OH225393   2.231   4.324   0.303  0.4586 -0.6483 -0.1879
 1301TIP3    H125394   2.265   4.311   0.215  0.3877 -1.8725 -0.0523
 1301TIP3    H225395   2.308   4.332   0.358  0.5032 -0.3004 -0.2975
 1302TIP3   OH225396   6.468   7.143  13.014  0.5266 -0.2961  0.0225
 1302TIP3    H125397   6.412   7.193  12.954  0.8617 -0.2098 -0.2221
 1302TIP3    H225398   6.556   7.156  12.980  0.5421 -1.7239 -0.5445
 1303TIP3   OH225399   3.290   2.378  13.402  0.2061 -0.0591  0.1563
 1303TIP3    H125400   3.208   2.394  13.449  0.3811 -1.6503  1.0920
 1303TIP3    H225401   3.356   2.375  13.471  1.1269  1.4877 -0.6152
 1304TIP3   OH225402   6.221   0.435  10.654  0.3377  0.7526  0.2729
 1304TIP3    H125403   6.211   0.358  10.598  0.8535  0.9657 -0.1109
 1304TIP3    H225404   6.156   0.421  10.724  0.2370  0.1030  0.0626
 1305TIP3   OH225405   1.838   4.595   2.202  0.0474 -0.0503 -0.6581
 1305TIP3    H125406   1.851   4.673   2.148 -0.9355 -0.4268 -1.4844
 1305TIP3    H225407   1.826   4.524   2.139  0.5521 -0.8023  0.0786
 1306TIP3   OH225408   7.078   5.320   1.328 -0.0068 -0.2277 -0.4421
 1306TIP3    H125409   7.001   5.281   1.287  1.1116 -1.6937 -1.2382
 1306TIP3    H225410   7.082   5.280   1.415 -0.1276 -0.1727 -0.4116
 1307TIP3   OH225411   3.928   6.316  14.382 -0.0390 -0.4820 -0.0696
 1307TIP3    H125412   4.005   6.305  14.326 -0.5965 -0.8746 -0.7904
 1307TIP3    H225413   3.929   6.241  14.441 -0.0734 -0.6937 -0.3364
 1308TIP3   OH225414   0.385   0.819   2.568 -0.0951  0.3125 -0.4232
 1308TIP3    H125415   0.426   0.863   2.643 -0.6873  0.3113 -0.0943
 1308TIP3    H225416   0.292   0.839   2.576 -0.4698 -1.4351  0.0374
 1309TIP3   OH225417   2.445   2.024  14.967  0.3009 -0.1522  0.1946
 1309TIP3    H125418   2.487   1.941  14.991 -0.5549 -0.6273  0.1076
 1309TIP3    H225419   2.404   2.054  15.048  0.9705  0.4196  0.3325
 1310TIP3   OH225420   3.397   4.201   9.937  0.4393  0.4978 -0.2856
 1310TIP3    H125421   3.307   4.233   9.946  1.1672  2.2711  1.4310
 1310TIP3    H225422   3.436   4.258   9.870 -0.4750 -2.3376 -3.5356
 1311TIP3   OH225423   5.005   3.247   1.271  0.6511  1.3576  0.4719
 1311TIP3    H125424   4.979   3.226   1.361  0.9340  3.0932  0.9993
 1311TIP3    H225425   5.027   3.340   1.274  0.4240  1.5075 -1.4664
 1312TIP3   OH225426   1.902   5.032  10.591  0.3034 -0.5572  0.3814
 1312TIP3    H125427   1.983   5.021  10.541  0.4905 -0.7493  0.7272
 1312TIP3    H225428   1.912   4.974  10.666 -0.9467 -2.0819 -0.5520
 1313TIP3   OH225429   4.231   3.907  14.033 -0.3496  0.0840  0.0064
 1313TIP3    H125430   4.225   3.871  14.121  0.8119 -0.2465 -0.0306
 1313TIP3    H225431   4.319   3.883  14.003 -0.6160  0.4483 -1.1285
 1314TIP3   OH225432   1.368   4.002  12.859  0.1446  0.3818  0.0899
 1314TIP3    H125433   1.292   3.951  12.830  0.7944  0.0631 -1.1355
 1314TIP3    H225434   1.402   4.040  12.778  0.3565  1.8217  0.8433
 1315TIP3   OH225435   4.998   7.200  14.140  0.0485 -0.2469  0.2765
 1315TIP3    H125436   5.033   7.151  14.066  0.4561  1.9271 -1.0492
 1315TIP3    H225437   5.070   7.258  14.167 -1.4215  2.0747 -0.4690
 1316TIP3   OH225438   3.108   1.947  11.492  0.2899  0.2519  0.1305
 1316TIP3    H125439   3.145   1.970  11.577  1.2273 -2.1024  0.4350
 1316TIP3    H225440   3.138   1.857  11.477  0.8251  0.8704 -3.0789
 1317TIP3   OH225441   0.526   5.425  11.012 -0.0697 -0.4862 -0.0702
 1317TIP3    H125442   0.456   5.402  10.951 -0.6234 -0.2045  0.4396
 1317TIP3    H225443   0.483   5.482  11.076  0.5268 -0.6867  0.5122
 1318TIP3   OH225444   4.140   1.331  14.398 -0.0514 -0.1479  0.1373
 1318TIP3    H125445   4.199   1.256  14.393  2.1475  1.5518 -0.4636
 1318TIP3    H225446   4.087   1.324  14.318  1.6062  0.0688 -1.0316
 1319TIP3   OH225447   3.617   4.962  12.630  0.3505 -0.2321 -0.3794
 1319TIP3    H125448   3.594   4.870  12.645  1.3655 -0.1720  1.9721
 1319TIP3    H225449   3.712   4.960  12.619  0.2233  0.4079 -1.6836
 1320TIP3   OH225450   1.678   0.703  10.606 -0.2715 -0.0924 -0.4698
 1320TIP3    H125451   1.621   0.750  10.545 -1.8022 -2.2087 -0.8060
 1320TIP3    H225452   1.764   0.701  10.563 -1.1485 -0.9465 -2.2984
 1321TIP3   OH225453   1.426   5.875   9.941  0.4257  0.2817 -0.4790
 1321TIP3    H125454   1.488   5.805   9.962 -0.8186 -1.0036 -0.9338
 1321TIP3    H225455   1.478   5.955   9.946  1.8472 -0.6414  0.2661
 1322TIP3   OH225456   2.135   0.490  10.785  0.2880  0.1102 -0.1161
 1322TIP3    H125457   2.153   0.582  10.770  1.0865 -0.0084  0.0825
 1322TIP3    H225458   2.050   0.488  10.828 -0.1594  0.6963 -0.9523
 1323TIP3   OH225459   7.170   0.544  11.013  0.1766  0.0528  0.3804
 1323TIP3    H125460   7.263   0.546  11.038  0.7309  0.1233 -1.5173
 1323TIP3    H225461   7.142   0.455  11.033  0.9438 -0.2731  0.0713
 1324TIP3   OH225462   1.862   2.624   0.582  0.1514  0.5989 -0.4474
 1324TIP3    H125463   1.798   2.560   0.614  0.7493 -1.2637 -2.6379
 1324TIP3    H225464   1.919   2.641   0.657 -1.6310  0.6787  0.9527
 1325TIP3   OH225465   4.092   4.704  14.554 -0.6328 -0.4233  0.1217
 1325TIP3    H125466   4.035   4.764  14.603 -1.4211 -1.2735  0.2776
 1325TIP3    H225467   4.077   4.619  14.595  0.2177 -0.7950 -0.3199
 1326TIP3   OH225468   3.269   6.892  12.628  0.4709  0.0430  0.0225
 1326TIP3    H125469   3.309   6.970  12.668  2.1396 -0.8014  0.0778
 1326TIP3    H225470   3.205   6.927  12.566  0.8250  1.4454  0.4141
 1327TIP3   OH225471   7.055   4.129  12.831 -0.5016  0.4093  0.4149
 1327TIP3    H125472   7.099   4.103  12.912  0.1233  1.5109  0.4457
 1327TIP3    H225473   7.073   4.058  12.770  3.5138  1.8483 -0.3788
 1328TIP3   OH225474   3.569   3.648  11.784  0.5016  0.6274  0.4761
 1328TIP3    H125475   3.507   3.720  11.788  0.0280  0.2067  0.9289
 1328TIP3    H225476   3.548   3.603  11.702  1.1361  1.2944 -0.0590
 1329TIP3   OH225477   5.123   1.763   9.085  0.3577 -0.0495 -0.1690
 1329TIP3    H125478   5.215   1.774   9.060 -0.1212  1.7677 -1.2940
 1329TIP3    H225479   5.106   1.670   9.069  1.3990  0.0400 -2.2492
 1330TIP3   OH225480   2.956   6.809   9.459 -0.2749  0.3790 -0.1788
 1330TIP3    H125481   3.037   6.808   9.407  0.3052  0.0481  0.7007
 1330TIP3    H225482   2.898   6.748   9.413 -0.7773  2.0485 -1.9126
 1331TIP3   OH225483   5.197   3.405  14.322  0.0606  0.2661 -0.3396
 1331TIP3    H125484   5.228   3.488  14.285  2.7770 -0.2632  0.4889
 1331TIP3    H225485   5.216   3.341  14.254 -0.2288  0.0636 -0.2279
 1332TIP3   OH225486   4.098   6.374  11.612 -0.2926  0.1232 -0.2311
 1332TIP3    H125487   4.147   6.357  11.693 -0.1445  0.1994 -0.3042
 1332TIP3    H225488   4.028   6.433  11.638 -0.8716 -0.6579  0.0478
 1333TIP3   OH225489   3.010   6.778  10.608 -0.2516 -0.3398  0.3465
 1333TIP3    H125490   2.983   6.691  10.635 -0.6806 -0.3277 -0.0327
 1333TIP3    H225491   3.016   6.774  10.512  0.7927 -0.2504  0.3962
 1334TIP3   OH225492   3.095   3.312  11.482  0.5549 -0.2689  0.0366
 1334TIP3    H125493   3.132   3.225  11.469 -0.6121 -0.3874 -4.0878
 1334TIP3    H225494   3.012   3.296  11.527 -0.1171 -1.4770 -1.5499
 1335TIP3   OH225495   2.256   1.246  13.418  0.1431  0.0401 -0.0173
 1335TIP3    H125496   2.174   1.195  13.417  0.8407 -1.1307  0.5289
 1335TIP3    H225497   2.308   1.209  13.346 -0.3595  1.7767 -1.3362
 1336TIP3   OH225498   3.926   0.510   1.040  0.2517  0.3271 -0.2888
 1336TIP3    H125499   3.933   0.427   0.991  0.0608  0.4624 -0.5449
 1336TIP3    H225500   3.836   0.512   1.071  0.5522 -0.0882  0.6672
 1337TIP3   OH225501   3.738   5.139   5.655 -0.4446 -0.4425 -0.8378
 1337TIP3    H125502   3.815   5.105   5.609  1.1443 -0.5618  1.7116
 1337TIP3    H225503   3.768   5.219   5.698 -2.2979  0.5431 -1.2510
 1338TIP3   OH225504   3.519   1.173  10.419 -0.4868  0.4188 -0.6593
 1338TIP3    H125505   3.591   1.228  10.450  0.0168 -0.2037 -0.7106
 1338TIP3    H225506   3.504   1.202  10.329  1.2938 -1.0215 -1.4719
 1339TIP3   OH225507   3.897   6.948  10.881 -0.9549 -0.0422  0.6510
 1339TIP3    H125508   3.870   7.040  10.877  0.4518  0.3597 -0.5619
 1339TIP3    H225509   3.969   6.948  10.945  0.7986  0.2411 -1.2214
 1340TIP3   OH225510   3.595   1.736  13.178  0.7549 -0.6402 -0.0655
 1340TIP3    H125511   3.664   1.762  13.117 -0.9522  0.6009 -1.6058
 1340TIP3    H225512   3.535   1.684  13.125  0.6529 -1.9756  1.3195
 1341TIP3   OH225513   0.904   5.496   2.983  0.2928 -0.2047  0.0578
 1341TIP3    H125514   0.831   5.494   2.921 -2.2899 -0.9523  2.8967
 1341TIP3    H225515   0.911   5.589   3.008  2.0652  0.2917 -1.9784
 1342TIP3   OH225516   6.676   0.894  10.702  0.6183 -0.1484 -0.2138
 1342TIP3    H125517   6.702   0.874  10.792  0.0021 -0.9338 -0.1986
 1342TIP3    H225518   6.597   0.948  10.711  1.5478  1.2768 -0.2761
 1343TIP3   OH225519   6.501   0.043  10.470  0.0050 -0.2962 -0.7248
 1343TIP3    H125520   6.594   0.040  10.488 -0.5059  0.8374  2.8143
 1343TIP3    H225521   6.483  -0.036  10.419  2.5525 -1.5680  0.2262
 1344TIP3   OH225522   5.111   4.066  10.008 -0.1485 -0.4780  0.3097
 1344TIP3    H125523   5.202   4.091  10.022 -0.5201  1.3066 -0.1876
 1344TIP3    H225524   5.068   4.081  10.093 -0.2366 -0.0961  0.1966
 1345TIP3   OH225525   1.513   2.992  13.698 -0.2140  0.7675 -0.4670
 1345TIP3    H125526   1.465   3.032  13.770 -0.8568  1.0925 -1.0681
 1345TIP3    H225527   1.451   2.931  13.659  0.5076 -0.2843 -0.0351
 1346TIP3   OH225528   5.085   6.937  11.368 -0.2624 -0.1198  0.1900
 1346TIP3    H125529   5.022   7.003  11.396  0.2774  0.8817 -0.8722
 1346TIP3    H225530   5.140   6.922  11.445  0.4785  1.7127  0.0544
 1347TIP3   OH225531   1.028   1.622   3.600 -0.8297  0.4403 -0.3736
 1347TIP3    H125532   0.976   1.610   3.679  1.1886  0.0905  0.9700
 1347TIP3    H225533   1.037   1.535   3.563 -1.8669  0.6181 -1.1099
 1348TIP3   OH225534   2.935   6.981  10.347 -0.0599 -0.0456  0.1992
 1348TIP3    H125535   2.995   6.923  10.300  1.8644  1.2304  0.9584
 1348TIP3    H225536   2.951   7.068  10.311 -2.1306  0.2528 -0.1737
 1349TIP3   OH225537   7.111   2.256  13.310 -0.1312  0.4499 -0.1454
 1349TIP3    H125538   7.113   2.177  13.257 -0.3971 -0.0747  0.6025
 1349TIP3    H225539   7.093   2.225  13.399  3.8568  0.8994  1.0146
 1350TIP3   OH225540   5.827   4.529  14.089 -0.1450 -0.1534 -0.6717
 1350TIP3    H125541   5.882   4.502  14.016  0.4053  1.1835 -0.7786
 1350TIP3    H225542   5.804   4.448  14.133  0.2568 -0.9013 -1.8003
 1351TIP3   OH225543   2.399   6.508  13.088  0.4089 -0.1651  0.2761
 1351TIP3    H125544   2.428   6.417  13.098 -1.8666 -0.9708  0.0371
 1351TIP3    H225545   2.480   6.559  13.093  1.9873 -2.3049 -1.4119
 1352TIP3   OH225546   4.518   4.049  10.225  0.7044 -0.1068 -0.6304
 1352TIP3    H125547   4.427   4.042  10.254  0.6284  2.2504 -0.1403
 1352TIP3    H225548   4.511   4.064  10.130  0.6993 -1.5623 -0.8896
 1353TIP3   OH225549   2.260   1.352  14.584 -0.4554 -0.2660 -0.1359
 1353TIP3    H125550   2.282   1.421  14.647 -1.1101 -1.6067  1.6439
 1353TIP3    H225551   2.174   1.321  14.611 -0.5658 -1.1877 -1.4506
 1354TIP3   OH225552   2.045   1.104  13.349 -0.1180  0.1109 -0.0536
 1354TIP3    H125553   1.986   1.044  13.394  1.8449 -2.3269 -0.5148
 1354TIP3    H225554   2.001   1.125  13.267 -0.1212 -2.2120 -0.7024
 1355TIP3   OH225555   1.165   0.939  12.329 -0.0704 -0.1206  0.4357
 1355TIP3    H125556   1.208   0.928  12.244  0.2432  1.9046  0.2685
 1355TIP3    H225557   1.075   0.961  12.307  0.0399  0.5231  0.6028
 1356TIP3   OH225558   5.290   5.185   2.083 -0.2171  0.1485  0.6873
 1356TIP3    H125559   5.307   5.277   2.099 -2.2479  0.8479 -0.7438
 1356TIP3    H225560   5.325   5.168   1.995 -0.4561 -0.2581  0.6645
 1357TIP3   OH225561   4.617   5.674   0.039 -0.2635 -0.0451 -0.1052
 1357TIP3    H125562   4.681   5.745   0.030 -0.9962  0.4461 -2.0453
 1357TIP3    H225563   4.539   5.716   0.076  0.4902 -0.6596  2.3360
 1358TIP3   OH225564   5.618   1.396   0.662 -0.2843 -0.1123  0.5705
 1358TIP3    H125565   5.599   1.335   0.734  1.5302 -0.3459  0.8894
 1358TIP3    H225566   5.688   1.452   0.695 -0.7537  1.0627 -0.3429
 1359TIP3   OH225567   1.163   5.504   9.894  0.1087 -0.0105  0.0779
 1359TIP3    H125568   1.247   5.517   9.851 -0.1813  0.4994 -0.3434
 1359TIP3    H225569   1.112   5.450   9.833 -0.0712  0.1557  0.0813
 1360TIP3   OH225570   4.361   2.807  12.896 -0.3785 -0.3097  0.6217
 1360TIP3    H125571   4.330   2.889  12.932  0.7738 -0.3203  1.6992
 1360TIP3    H225572   4.312   2.739  12.943  0.3749 -0.2944  1.4405
 1361TIP3   OH225573   6.784   4.612  11.197  0.2577 -0.5609  0.4506
 1361TIP3    H125574   6.805   4.703  11.177 -1.6340  0.0510  1.0360
 1361TIP3    H225575   6.775   4.570  11.111  0.3574  0.0145  0.1558
 1362TIP3   OH225576   2.349   2.600   0.746 -0.0240 -0.3638 -0.2131
 1362TIP3    H125577   2.358   2.687   0.708 -0.2631 -0.2811 -0.0812
 1362TIP3    H225578   2.263   2.569   0.717 -1.3258  0.6754  2.1730
 1363TIP3   OH225579   1.023   4.882  12.486  0.5323 -0.8832  0.1407
 1363TIP3    H125580   0.974   4.919  12.559 -0.4420  0.4129 -1.1112
 1363TIP3    H225581   1.112   4.870  12.520  0.1852  0.0349  1.4275
 1364TIP3   OH225582   4.598   5.698   1.648  0.1456  0.0262 -1.1896
 1364TIP3    H125583   4.613   5.691   1.742  0.3885  0.6969 -1.1720
 1364TIP3    H225584   4.503   5.691   1.638  0.2283 -1.4385 -1.0317
 1365TIP3   OH225585   2.633   5.508   0.291 -1.0017  0.7823  0.3724
 1365TIP3    H125586   2.631   5.603   0.307 -2.0027  0.3879  3.0746
 1365TIP3    H225587   2.600   5.470   0.371  0.0268 -1.9420 -0.3995
 1366TIP3   OH225588   5.844   1.783  10.605  0.2192 -0.3886 -0.5108
 1366TIP3    H125589   5.880   1.696  10.625 -0.1471 -0.4298 -0.0109
 1366TIP3    H225590   5.753   1.778  10.633 -0.5686 -0.6977 -2.9207
 1367TIP3   OH225591   0.609   6.215  14.567  0.5311  0.5794  0.1732
 1367TIP3    H125592   0.642   6.200  14.656 -0.5328  0.1011  0.5083
 1367TIP3    H225593   0.650   6.297  14.539  0.5043  0.9917  1.2977
 1368TIP3   OH225594   2.539   2.362   1.883  0.4739 -0.4119  0.3485
 1368TIP3    H125595   2.584   2.396   1.960  1.4272 -2.2197  0.6349
 1368TIP3    H225596   2.554   2.428   1.815  2.0731 -0.1459  0.9318
 1369TIP3   OH225597   6.984   6.695  14.722 -0.1670 -0.1927  1.0564
 1369TIP3    H125598   6.967   6.727  14.633 -0.5010 -0.2354  1.1050
 1369TIP3    H225599   7.076   6.668  14.720 -0.1216 -0.0239  0.7744
 1370TIP3   OH225600   0.919   6.218  11.540  0.1932  0.1395 -0.1066
 1370TIP3    H125601   0.950   6.158  11.471 -0.9400  0.1837 -0.6736
 1370TIP3    H225602   0.844   6.262  11.501  0.1847  0.9524  0.7968
 1371TIP3   OH225603   1.060   0.075  15.088  0.1323 -0.1209 -0.3892
 1371TIP3    H125604   1.061   0.166  15.059  1.0160  0.2465  0.7036
 1371TIP3    H225605   0.968   0.059  15.110 -0.5034 -0.3024 -2.8776
 1372TIP3   OH225606   3.234   1.855  10.133  0.2498 -0.6268  0.2738
 1372TIP3    H125607   3.183   1.815  10.204  0.7326  1.1408  1.7002
 1372TIP3    H225608   3.248   1.945  10.162  1.7783 -0.2798 -1.3855
 1373TIP3   OH225609   2.077   0.607  13.689 -0.4762 -0.2274 -0.6357
 1373TIP3    H125610   1.991   0.598  13.729 -1.0281 -0.6958 -1.8799
 1373TIP3    H225611   2.060   0.602  13.595  1.0060 -1.2169 -0.8834
 1374TIP3   OH225612   7.255   1.715  11.942  0.1267 -0.3267 -0.0902
 1374TIP3    H125613   7.168   1.681  11.963 -0.6724  0.0156 -2.5755
 1374TIP3    H225614   7.312   1.637  11.945 -0.2711 -0.5973  1.2679
 1375TIP3   OH225615   6.747   4.468  12.661 -0.7160  0.2174  0.2410
 1375TIP3    H125616   6.829   4.419  12.649 -1.9955 -1.6812 -1.3595
 1375TIP3    H225617   6.770   4.537  12.723  2.0827 -0.2609 -0.1081
 1376TIP3   OH225618   2.041   2.649  13.395  0.1240  0.2453  0.2299
 1376TIP3    H125619   1.980   2.706  13.441  1.3131  0.5228  1.5301
 1376TIP3    H225620   2.127   2.674  13.428  0.8410 -1.0174 -0.5812
 1377TIP3   OH225621   5.716   6.402  12.346  0.2561  0.2353 -0.2413
 1377TIP3    H125622   5.775   6.459  12.395 -2.8732  1.9531  1.8752
 1377TIP3    H225623   5.657   6.365  12.412 -1.0653 -1.3592 -2.1881
 1378TIP3   OH225624   6.116   6.561  10.809 -0.6490  0.4988 -0.0752
 1378TIP3    H125625   6.185   6.628  10.802  0.2133 -0.2774  0.6313
 1378TIP3    H225626   6.038   6.603  10.774  0.2268  1.3445 -1.0959
 1379TIP3   OH225627   5.710   6.293  13.484  0.5452  0.1929  0.2401
 1379TIP3    H125628   5.627   6.334  13.459  0.4932 -0.5208 -0.8197
 1379TIP3    H225629   5.703   6.282  13.579 -0.4687  0.3728  0.2030
 1380TIP3   OH225630   4.758   3.525  10.287 -0.3959 -0.1563  0.7201
 1380TIP3    H125631   4.701   3.588  10.330 -0.7481  0.3171 -0.4017
 1380TIP3    H225632   4.839   3.573  10.271  0.5160 -0.9423  2.6644
 1381TIP3   OH225633   1.297   6.789  10.209  0.3655 -0.5113 -0.1848
 1381TIP3    H125634   1.344   6.747  10.281  0.1497 -0.5378 -0.0567
 1381TIP3    H225635   1.323   6.740  10.131 -0.2063 -1.1577  0.0195
 1382TIP3   OH225636   3.434   6.204  11.708  0.1085  0.7866  0.0871
 1382TIP3    H125637   3.372   6.261  11.754 -1.1397 -0.8092  0.4703
 1382TIP3    H225638   3.512   6.205  11.764 -0.3961  1.0197  0.8049
 1383TIP3   OH225639   0.776   2.383  13.077  0.6116 -0.0211 -0.6563
 1383TIP3    H125640   0.866   2.417  13.073  0.2698  0.9125 -0.5768
 1383TIP3    H225641   0.772   2.319  13.006  0.8750  1.0708 -1.6842
 1384TIP3   OH225642   2.362   0.372  12.407  0.3704  0.0647 -0.0267
 1384TIP3    H125643   2.294   0.350  12.343 -0.0333 -2.0144  1.0129
 1384TIP3    H225644   2.406   0.448  12.371 -3.1694  2.2147 -0.2819
 1385TIP3   OH225645   6.000   1.686  12.462  0.0643 -0.4411 -0.9172
 1385TIP3    H125646   5.991   1.779  12.479  0.7206 -0.7482  1.4502
 1385TIP3    H225647   5.912   1.658  12.437 -0.3292  0.6706 -0.8371
 1386TIP3   OH225648   1.039   4.774  11.074  0.2123  0.3030  0.6783
 1386TIP3    H125649   1.007   4.845  11.129  0.6468  1.6251 -0.7133
 1386TIP3    H225650   1.120   4.807  11.037  0.0959 -0.6702 -0.5014
 1387TIP3   OH225651   4.821   0.170   3.002 -0.1010  0.3171 -0.6803
 1387TIP3    H125652   4.828   0.085   3.045  0.1215  0.1461 -1.0545
 1387TIP3    H225653   4.896   0.220   3.035 -0.1871  0.3397 -0.5204
 1388TIP3   OH225654   5.847   4.289  10.803 -0.4865  0.5034 -0.2696
 1388TIP3    H125655   5.772   4.231  10.817  0.8099 -0.7652  2.1417
 1388TIP3    H225656   5.902   4.241  10.740 -1.4541  1.2756 -1.7666
 1389TIP3   OH225657   2.706   2.185  11.275  0.4560  0.2759 -0.2496
 1389TIP3    H125658   2.757   2.254  11.233  0.6001  2.2824  2.9013
 1389TIP3    H225659   2.747   2.172  11.360 -2.0800 -0.6849  0.9447
 1390TIP3   OH225660   0.796   6.196  10.101  0.0592  0.1013 -0.1258
 1390TIP3    H125661   0.751   6.124  10.146  0.7007 -0.0328  0.3164
 1390TIP3    H225662   0.737   6.220  10.030 -1.1226  0.4960  0.9445
 1391TIP3   OH225663   0.415   7.205   1.597  0.3080  0.2384  0.2005
 1391TIP3    H125664   0.411   7.199   1.693  1.8419 -0.7632  0.2485
 1391TIP3    H225665   0.486   7.267   1.580  0.9798 -0.6368 -0.2640
 1392TIP3   OH225666   5.495   7.104   4.872  0.7509 -0.4373 -0.4457
 1392TIP3    H125667   5.459   7.191   4.852  0.0127  0.0759  2.6043
 1392TIP3    H225668   5.419   7.047   4.875  0.8469 -0.5210  0.5673
 1393TIP3   OH225669   1.532   4.516  11.614  0.1527 -0.2946 -0.0491
 1393TIP3    H125670   1.589   4.462  11.559 -0.0294  1.2455 -1.8508
 1393TIP3    H225671   1.451   4.525  11.564 -0.5784 -0.0248  1.1453
 1394TIP3   OH225672   0.531   1.875  10.739 -0.1474  0.2345  0.7733
 1394TIP3    H125673   0.614   1.886  10.693 -1.3841  1.0682 -1.4189
 1394TIP3    H225674   0.500   1.788  10.713 -1.0850  0.9042 -0.4704
 1395TIP3   OH225675   0.637   1.669  12.551 -0.5928  0.2099  0.1466
 1395TIP3    H125676   0.715   1.703  12.508 -0.8447  0.0432 -0.4569
 1395TIP3    H225677   0.583   1.746  12.569 -0.0111  0.4071  1.1780
 1396TIP3   OH225678   1.519   0.760  15.171  0.8330 -0.1752 -0.2843
 1396TIP3    H125679   1.548   0.780  15.260  0.6965 -2.7216  0.4255
 1396TIP3    H225680   1.424   0.758  15.176  0.7827  0.6076 -0.7469
 1397TIP3   OH225681   5.418   2.000  14.716 -0.6384 -0.0474  0.0254
 1397TIP3    H125682   5.370   2.082  14.700 -1.1412 -0.2057  0.6877
 1397TIP3    H225683   5.508   2.020  14.689 -0.7618  0.7154  0.1291
 1398TIP3   OH225684   7.240   1.258  11.446 -0.2842 -0.3442  0.2432
 1398TIP3    H125685   7.274   1.187  11.499 -1.5809  0.0986  1.7156
 1398TIP3    H225686   7.152   1.230  11.421  0.0326 -0.2233 -1.0947
 1399TIP3   OH225687   4.523   3.245  13.977  0.1000 -0.1546 -0.3247
 1399TIP3    H125688   4.580   3.308  14.021  0.0778 -1.1524  1.1956
 1399TIP3    H225689   4.488   3.294  13.902  0.0593  1.6577  0.7940
 1400TIP3   OH225690   3.323   4.256  14.201 -0.1467  0.5393  0.8056
 1400TIP3    H125691   3.363   4.191  14.259  0.4057 -1.2864 -1.4836
 1400TIP3    H225692   3.379   4.334  14.210  1.3104 -0.4846  0.9722
 1401TIP3   OH225693   2.995   6.316   9.629 -0.3850 -0.0050 -0.3439
 1401TIP3    H125694   3.062   6.332   9.696 -0.7685  0.4011 -0.0548
 1401TIP3    H225695   2.994   6.221   9.618 -0.3982 -0.0824  0.3034
 1402TIP3   OH225696   5.594   2.840  12.947  0.3479 -0.5225  0.4198
 1402TIP3    H125697   5.545   2.917  12.976  0.2514  0.2025 -1.4889
 1402TIP3    H225698   5.586   2.778  13.019 -0.2095  0.9664  1.7080
 1403TIP3   OH225699   3.083   3.528   9.624  0.4845 -0.1789  0.7366
 1403TIP3    H125700   3.125   3.579   9.693 -2.4165  1.6404  1.3461
 1403TIP3    H225701   3.139   3.539   9.548  1.8709  0.8209  1.8477
 1404TIP3   OH225702   3.316   2.503  12.770  0.1297 -0.2871 -0.0443
 1404TIP3    H125703   3.284   2.516  12.680 -0.2626  1.2752  0.2825
 1404TIP3    H225704   3.243   2.461  12.816  1.0085 -2.9097 -0.8607
 1405TIP3   OH225705   0.355   3.093  14.057 -0.0986  0.3894  1.3982
 1405TIP3    H125706   0.351   3.047  14.141  2.2641 -2.0640  0.3064
 1405TIP3    H225707   0.441   3.072  14.022 -0.8420  1.6555 -1.4984
 1406TIP3   OH225708   5.380   2.498  13.059 -0.3131  0.4360  0.3598
 1406TIP3    H125709   5.438   2.424  13.078 -0.6145 -0.2729 -1.2773
 1406TIP3    H225710   5.293   2.466  13.080 -0.6050 -0.2204 -1.6062
 1407TIP3   OH225711   0.116   2.758  10.800 -0.2209  0.0504  0.0652
 1407TIP3    H125712   0.054   2.783  10.732  0.5950  0.5850 -0.5073
 1407TIP3    H225713   0.187   2.714  10.753  1.0726  1.7224  0.3304
 1408TIP3   OH225714   1.436   3.767  13.768 -0.2212  0.1716  0.0481
 1408TIP3    H125715   1.377   3.692  13.772  1.8652 -1.5679 -0.1928
 1408TIP3    H225716   1.423   3.804  13.681 -0.8957 -0.2122 -0.0160
 1409TIP3   OH225717   1.205   3.800  13.303  0.4353 -0.5382 -0.1581
 1409TIP3    H125718   1.187   3.863  13.233  2.5482  0.0041 -0.2873
 1409TIP3    H225719   1.127   3.802  13.358  0.2899  1.9878 -0.3381
 1410TIP3   OH225720   5.250   1.338  14.470  0.3014 -0.0896  0.2862
 1410TIP3    H125721   5.234   1.423  14.429  0.3759 -0.1496  0.1301
 1410TIP3    H225722   5.203   1.342  14.553  0.1458  0.0315  0.1918
 1411TIP3   OH225723   6.558   0.802  13.629 -0.1679 -0.5518  0.2649
 1411TIP3    H125724   6.536   0.764  13.545  0.2985 -1.5321  0.5772
 1411TIP3    H225725   6.654   0.807  13.629 -0.2244  2.1895 -0.4416
 1412TIP3   OH225726   4.860   2.291   0.827 -0.4518  0.3325  0.5418
 1412TIP3    H125727   4.895   2.373   0.862 -1.4269  1.6318 -1.3576
 1412TIP3    H225728   4.934   2.249   0.783 -0.6249  1.8445 -1.3006
 1413TIP3   OH225729   6.385   3.168  11.600 -0.2791  0.4860  0.8638
 1413TIP3    H125730   6.431   3.109  11.661  1.4585  1.6425  0.7381
 1413TIP3    H225731   6.363   3.245  11.653 -0.6714  0.6073  0.5310
 1414TIP3   OH225732   6.768   7.168   1.393 -0.0453  0.1154  0.0298
 1414TIP3    H125733   6.790   7.160   1.486  0.3602  1.3471  0.0563
 1414TIP3    H225734   6.813   7.095   1.351  0.7408  0.2417  0.6440
 1415TIP3   OH225735   6.794   4.648  10.611  0.1980  0.5981 -0.3241
 1415TIP3    H125736   6.887   4.626  10.604  0.2618  1.0555 -1.0404
 1415TIP3    H225737   6.750   4.587  10.552  0.0994  0.7171 -0.3740
 1416TIP3   OH225738   6.920   3.604   3.206  0.0664  0.2633 -0.2906
 1416TIP3    H125739   6.838   3.577   3.248 -1.5343  1.1163 -2.6753
 1416TIP3    H225740   6.987   3.555   3.253 -1.9537 -1.8757  0.6148
 1417TIP3   OH225741   0.145   2.334   2.679  0.3091  0.2645 -0.1855
 1417TIP3    H125742   0.113   2.418   2.713 -0.5204 -0.5100  1.0711
 1417TIP3    H225743   0.208   2.304   2.745  0.7328 -0.0216 -0.7116
 1418TIP3   OH225744   1.502   3.386  11.569 -0.5961  0.2850  0.6415
 1418TIP3    H125745   1.594   3.362  11.584 -0.6885  0.2213  1.1186
 1418TIP3    H225746   1.503   3.482  11.570 -0.2028  0.3541 -1.4115
 1419TIP3   OH225747   6.468   1.111   2.669  0.1764 -0.3570  0.0204
 1419TIP3    H125748   6.527   1.112   2.744  0.3920 -0.0010 -0.1508
 1419TIP3    H225749   6.517   1.154   2.599 -1.0387  1.8773  0.4495
 1420TIP3   OH225750   5.811   4.982  12.134  0.2587  0.0741  0.1838
 1420TIP3    H125751   5.743   5.022  12.188 -0.4712  0.6280 -1.1090
 1420TIP3    H225752   5.775   4.896  12.111  0.0208  0.3302 -0.4223
 1421TIP3   OH225753   4.410   5.163  11.540  0.6435  0.2358 -0.6047
 1421TIP3    H125754   4.431   5.103  11.469  1.4979 -1.9732  1.3955
 1421TIP3    H225755   4.315   5.159  11.548  0.5052  0.7682 -1.7860
 1422TIP3   OH225756   1.883   1.058  12.077 -0.0849  0.2947  0.4447
 1422TIP3    H125757   1.907   1.070  11.985 -0.0501  2.0250  0.6560
 1422TIP3    H225758   1.831   0.978  12.078  0.8660 -0.3730 -0.8988
 1423TIP3   OH225759   3.367   5.127  10.607  0.0513  0.6137  0.3293
 1423TIP3    H125760   3.404   5.107  10.521  1.4473  0.8467  0.8405
 1423TIP3    H225761   3.330   5.043  10.637  0.2083  0.3555 -0.1882
 1424TIP3   OH225762   4.778   0.024  12.249  0.1028 -0.0385 -0.7392
 1424TIP3    H125763   4.797  -0.066  12.223 -1.2020  0.0562 -2.1235
 1424TIP3    H225764   4.864   0.060  12.270  0.9951 -0.8677 -2.6524
 1425TIP3   OH225765   0.374   5.145  13.575  0.0958 -0.3901 -0.0807
 1425TIP3    H125766   0.451   5.088  13.581 -0.2346 -1.1079 -2.0191
 1425TIP3    H225767   0.374   5.176  13.484 -2.6749 -1.5270 -0.5582
 1426TIP3   OH225768   6.894   2.010   9.881  0.0372  0.3620 -0.3023
 1426TIP3    H125769   6.851   2.086   9.921  2.7219  1.6388  0.4053
 1426TIP3    H225770   6.916   2.039   9.793 -2.6865 -1.2104 -1.6350
 1427TIP3   OH225771   3.967   4.976  10.038 -0.5619  0.3943  0.1741
 1427TIP3    H125772   4.029   5.049  10.044 -1.3215  0.9568  1.6384
 1427TIP3    H225773   3.901   4.995  10.105 -2.4706 -0.0748 -1.4926
 1428TIP3   OH225774   2.732   6.087  10.853  0.0074  0.3259  0.1296
 1428TIP3    H125775   2.641   6.103  10.875 -0.4855  0.6213 -1.9262
 1428TIP3    H225776   2.774   6.173  10.857 -0.8004  0.9949 -2.8990
 1429TIP3   OH225777   2.161   4.588  14.343 -0.0158 -0.1159 -0.1194
 1429TIP3    H125778   2.251   4.568  14.370 -0.2760 -0.6763  0.3422
 1429TIP3    H225779   2.114   4.505  14.351 -0.4683  0.0578 -0.8312
 1430TIP3   OH225780   2.020   3.262  11.775  0.0768 -0.3963 -0.0675
 1430TIP3    H125781   2.059   3.215  11.849 -0.2623  0.9957  1.0391
 1430TIP3    H225782   2.086   3.327  11.750 -1.0056  1.1970  1.0642
 1431TIP3   OH225783   4.240   2.008  10.841 -0.1828  0.1923  0.0729
 1431TIP3    H125784   4.258   1.915  10.853 -0.5385  0.1049 -0.0511
 1431TIP3    H225785   4.293   2.052  10.907 -0.1143 -0.1066  0.2171
 1432TIP3   OH225786   6.844   6.669   0.556 -0.6426 -0.0918  0.2603
 1432TIP3    H125787   6.792   6.718   0.492  1.0844 -1.4290 -2.3335
 1432TIP3    H225788   6.929   6.714   0.557  0.6973 -2.3458 -1.5572
 1433TIP3   OH225789   6.722   5.437  12.122 -0.5627 -0.5999 -0.7534
 1433TIP3    H125790   6.797   5.442  12.182 -0.2069 -1.8722 -1.0714
 1433TIP3    H225791   6.731   5.514  12.067 -0.7043  0.4260  0.5893
 1434TIP3   OH225792   3.040   0.609  11.665 -0.4607 -0.4738 -0.3197
 1434TIP3    H125793   3.092   0.648  11.735 -1.1336 -1.1314  0.5694
 1434TIP3    H225794   3.016   0.523  11.698 -0.8387 -0.7786 -1.3489
 1435TIP3   OH225795   0.287   1.795  13.748 -0.2692  0.7167  0.4384
 1435TIP3    H125796   0.369   1.787  13.795  0.1011 -0.0845 -0.3246
 1435TIP3    H225797   0.237   1.717  13.771  1.2204 -1.4783 -2.9039
 1436TIP3   OH225798   5.297   5.190   0.223 -0.3353 -0.6203  0.3012
 1436TIP3    H125799   5.352   5.125   0.180  0.4164  1.0547 -1.4057
 1436TIP3    H225800   5.335   5.199   0.310  0.3438 -1.5145  0.1171
 1437TIP3   OH225801   0.009   6.567  13.494 -0.4247  0.7331 -0.1717
 1437TIP3    H125802  -0.011   6.660  13.486  1.4902  1.2529  0.5981
 1437TIP3    H225803  -0.044   6.525  13.426 -0.6583  2.4786 -1.1138
 1438TIP3   OH225804   5.218   4.891   3.428 -0.4768  0.0580 -0.0992
 1438TIP3    H125805   5.236   4.970   3.377 -0.5233 -1.3865 -2.4398
 1438TIP3    H225806   5.297   4.838   3.421 -0.4825 -0.1932  1.3685
 1439TIP3   OH225807   5.937   1.309  10.915  0.1391  0.2268 -0.0790
 1439TIP3    H125808   5.861   1.362  10.892  2.1722  3.8345  0.8280
 1439TIP3    H225809   5.987   1.363  10.975  1.6184 -3.5098  2.4103
 1440TIP3   OH225810   5.595   6.336  14.521 -0.6972  0.2664  0.0698
 1440TIP3    H125811   5.549   6.268  14.571  1.9813 -1.3543  0.5011
 1440TIP3    H225812   5.685   6.304  14.514  0.8550  3.9741  0.7095
 1441TIP3   OH225813   0.866   6.173  13.320  0.1828 -0.7327 -0.6358
 1441TIP3    H125814   0.832   6.224  13.246 -0.8901  0.5859  0.6858
 1441TIP3    H225815   0.950   6.213  13.341  0.1849 -0.6768 -0.7536
 1442TIP3   OH225816   0.082   2.239  14.629  0.1481  0.0953  0.7418
 1442TIP3    H125817   0.065   2.333  14.627 -0.0324  0.0983 -2.2002
 1442TIP3    H225818   0.177   2.231  14.617  0.2028 -0.1044  1.2820
 1443TIP3   OH225819   4.014   5.669  10.998 -0.2984  0.5414 -0.1548
 1443TIP3    H125820   4.037   5.634  10.911 -1.7753  0.1271 -0.4007
 1443TIP3    H225821   4.046   5.602  11.059 -2.0192 -0.7250 -0.5650
 1444TIP3   OH225822   1.401   2.209  11.226  0.4492  0.2803 -0.2259
 1444TIP3    H125823   1.410   2.113  11.223  2.5360  0.3549  1.1005
 1444TIP3    H225824   1.328   2.224  11.286 -0.3494 -0.4683 -0.9824
 1445TIP3   OH225825   1.468   1.143  10.301 -0.4702 -0.7084 -0.2843
 1445TIP3    H125826   1.501   1.168  10.387  0.5147 -1.4823 -0.4146
 1445TIP3    H225827   1.400   1.207  10.281 -1.8162 -1.4329  1.7332
 1446TIP3   OH225828   5.006   1.349  15.027  0.1951 -0.4061  0.9645
 1446TIP3    H125829   4.955   1.271  15.007 -0.8118  0.7454 -1.3360
 1446TIP3    H225830   4.996   1.361  15.121 -3.4643 -0.5066  0.7143
 1447TIP3   OH225831   5.263   6.481   3.632  0.4084  0.7338 -0.3128
 1447TIP3    H125832   5.296   6.495   3.721  0.5967 -1.2988 -0.0183
 1447TIP3    H225833   5.339   6.498   3.576  1.1330 -0.8241  0.1483
 1448TIP3   OH225834   5.119   3.418  11.208 -1.0372 -0.3584 -0.1276
 1448TIP3    H125835   5.137   3.433  11.301 -1.0199 -0.9251 -0.0356
 1448TIP3    H225836   5.106   3.505  11.171 -0.5472 -0.0981  0.3061
 1449TIP3   OH225837   6.159   5.716   2.596 -0.5399  0.2406 -0.0907
 1449TIP3    H125838   6.177   5.657   2.522 -0.5818 -0.3983  0.3979
 1449TIP3    H225839   6.194   5.801   2.569 -0.6574  0.0373 -0.8876
 1450TIP3   OH225840   0.761   7.255   9.728 -0.6209 -0.2320  0.2841
 1450TIP3    H125841   0.706   7.192   9.773  0.0362 -0.8619  0.2219
 1450TIP3    H225842   0.751   7.235   9.635  1.0037 -1.4878  0.3308
 1451TIP3   OH225843   2.775   6.675   9.877 -0.1288  0.0039  0.0748
 1451TIP3    H125844   2.684   6.688   9.852 -0.1831  0.2664  0.3991
 1451TIP3    H225845   2.782   6.714   9.964  0.4536  0.5824 -0.2214
 1452TIP3   OH225846   4.709   3.322  13.527 -0.3109 -0.2885  0.0013
 1452TIP3    H125847   4.652   3.355  13.457  2.2276  0.1788 -1.9976
 1452TIP3    H225848   4.688   3.377  13.603 -1.7461  0.5683 -0.9647
 1453TIP3   OH225849   6.230   6.349  12.027  0.0949 -0.6762 -0.0961
 1453TIP3    H125850   6.298   6.283  12.038  1.0373  0.1735 -0.7130
 1453TIP3    H225851   6.274   6.425  11.988 -1.0977  0.0757 -0.0676
 1454TIP3   OH225852   4.687   2.900   9.923 -0.3511  0.6983 -0.0429
 1454TIP3    H125853   4.690   2.805   9.921 -0.4098  0.7027 -1.1343
 1454TIP3    H225854   4.652   2.925   9.837 -1.2589  1.6699  0.5697
 1455TIP3   OH225855   1.694   3.767  14.848  0.1846 -0.0753 -0.1249
 1455TIP3    H125856   1.747   3.842  14.823  0.1115  0.6751  1.7408
 1455TIP3    H225857   1.686   3.775  14.943 -2.2009 -0.8624 -0.1920
 1456TIP3   OH225858   4.487   3.177  11.966 -0.0397 -0.5238 -0.8336
 1456TIP3    H125859   4.565   3.222  11.998  0.3217 -1.7728  0.1341
 1456TIP3    H225860   4.414   3.223  12.008  0.4083 -2.0465  1.8792
 1457TIP3   OH225861   5.187   5.027   9.868  0.2676  0.0469 -0.8244
 1457TIP3    H125862   5.278   5.055   9.858 -0.2864  2.0202 -0.7030
 1457TIP3    H225863   5.153   5.022   9.779  0.6333 -1.3431 -0.9168
 1458TIP3   OH225864   2.513   5.430  10.539  0.0185  0.8203 -0.2026
 1458TIP3    H125865   2.527   5.355  10.596 -1.2003 -1.6307 -2.9011
 1458TIP3    H225866   2.598   5.447  10.500  0.5047  1.5229  1.0775
 1459TIP3   OH225867   2.596   5.786  10.591  0.0509  0.5062 -0.7029
 1459TIP3    H125868   2.674   5.841  10.581  1.1939 -1.0010 -0.5052
 1459TIP3    H225869   2.567   5.770  10.501  0.9414 -0.2187 -0.8769
 1460TIP3   OH225870   0.215   4.692   3.547  0.3669 -0.4788 -0.2056
 1460TIP3    H125871   0.166   4.610   3.546 -3.1150  1.3635  1.3597
 1460TIP3    H225872   0.236   4.706   3.639  0.0218  0.8343 -0.3087
 1461TIP3   OH225873   0.144   0.880  10.342 -0.1249  0.3757  0.0253
 1461TIP3    H125874   0.068   0.845  10.295 -0.3711 -0.3056  0.8921
 1461TIP3    H225875   0.125   0.862  10.434  0.6965  0.9857  0.3236
 1462TIP3   OH225876   0.767   5.571  11.333  0.3418  0.1033 -0.3311
 1462TIP3    H125877   0.674   5.552  11.318  0.1419  1.7125 -1.2797
 1462TIP3    H225878   0.802   5.591  11.246  0.9777  2.0381  0.3325
 1463TIP3   OH225879   6.585   4.018   2.112 -0.1502 -0.4229 -0.1852
 1463TIP3    H125880   6.504   4.068   2.114 -1.1936 -1.8574 -2.7274
 1463TIP3    H225881   6.650   4.080   2.077  0.9146  1.8067  4.8087
 1464TIP3   OH225882   1.865   7.049   9.348  0.3710  0.2655  0.0309
 1464TIP3    H125883   1.819   6.974   9.310 -0.5705  0.4709  0.7294
 1464TIP3    H225884   1.954   7.018   9.363 -0.4015 -1.2547  1.8164
 1465TIP3   OH225885   2.736   0.106  10.039 -0.0114  0.2945  0.3616
 1465TIP3    H125886   2.765   0.180  10.092 -1.6829  1.6455 -0.5170
 1465TIP3    H225887   2.644   0.123  10.022 -0.4550 -2.0457  0.1541
 1466TIP3   OH225888   5.384   6.117  10.515 -0.1324  0.0122  0.3724
 1466TIP3    H125889   5.289   6.101  10.515 -0.3285  0.9109 -1.5292
 1466TIP3    H225890   5.413   6.086  10.601 -2.0533 -0.7949  0.7926
 1467TIP3   OH225891   0.160   4.717  10.522 -0.3244  0.2645  0.1912
 1467TIP3    H125892   0.106   4.656  10.573  0.3957  0.3503  1.0718
 1467TIP3    H225893   0.236   4.735  10.578  0.7340 -0.0187 -1.0964
 1468TIP3   OH225894   6.295   5.010  12.501  0.6832 -0.0930 -0.0491
 1468TIP3    H125895   6.246   5.038  12.425  0.8088  2.8897  0.8501
 1468TIP3    H225896   6.285   4.914  12.503 -0.5964 -0.0936 -2.8492
 1469TIP3   OH225897   6.301   1.806  10.730  0.3397 -0.5800  0.2623
 1469TIP3    H125898   6.219   1.771  10.764  0.5502 -1.8105 -0.4246
 1469TIP3    H225899   6.289   1.809  10.635  0.7260  0.2040  0.2345
 1470TIP3   OH225900   4.529   1.873  12.802  0.4082  0.0531  0.3539
 1470TIP3    H125901   4.524   1.779  12.783  0.2959  0.5677 -2.6840
 1470TIP3    H225902   4.439   1.904  12.790  0.4960  0.6039  1.0575
 1471TIP3   OH225903   3.987   3.298   0.473 -0.4990  0.0165 -0.0101
 1471TIP3    H125904   3.987   3.385   0.513 -0.7344  0.5252 -1.0869
 1471TIP3    H225905   3.916   3.301   0.409  0.2822 -0.5378 -0.9411
 1472TIP3   OH225906   6.730   2.020   0.162 -0.8671 -0.0268  0.4061
 1472TIP3    H125907   6.824   2.013   0.147 -1.0196  1.2799 -1.4232
 1472TIP3    H225908   6.721   2.098   0.217 -0.9799  1.0790 -1.1207
 1473TIP3   OH225909   6.992   0.114   2.957 -0.1444  0.3286 -0.4851
 1473TIP3    H125910   7.049   0.190   2.960  1.5414 -0.9039  0.9112
 1473TIP3    H225911   6.913   0.140   3.004  0.3390  1.2551 -0.1800
 1474TIP3   OH225912   3.078   4.813  14.616  0.1022  0.3133  0.1131
 1474TIP3    H125913   3.014   4.743  14.628  0.2808  0.2237  0.6023
 1474TIP3    H225914   3.027   4.894  14.620 -0.1340  0.2095 -0.6704
 1475TIP3   OH225915   3.920   4.580  12.611 -0.1268  0.2778 -0.6532
 1475TIP3    H125916   3.889   4.489  12.601 -0.4025  0.3163 -0.2131
 1475TIP3    H225917   3.879   4.609  12.693 -0.3006  0.9073 -0.9616
 1476TIP3   OH225918   0.380   1.197   9.807 -0.1588 -0.0901 -0.0803
 1476TIP3    H125919   0.452   1.156   9.855  1.0855 -0.5889 -2.2395
 1476TIP3    H225920   0.305   1.191   9.866  0.5318 -3.4159  0.6298
 1477TIP3   OH225921   1.975   7.224  12.096  0.2449 -0.4454 -0.0008
 1477TIP3    H125922   1.897   7.232  12.151  0.5716 -2.2311  0.7895
 1477TIP3    H225923   1.940   7.217  12.007 -0.3077  2.0019 -0.0477
 1478TIP3   OH225924   3.646   0.458  12.787 -0.3765 -0.4512 -0.1666
 1478TIP3    H125925   3.564   0.461  12.837 -1.3117  0.1252 -1.6802
 1478TIP3    H225926   3.650   0.369  12.752 -1.3691  0.0568 -1.6642
 1479TIP3   OH225927   2.574   6.421   1.472 -0.0792 -0.0649 -0.3185
 1479TIP3    H125928   2.569   6.349   1.535 -1.5340  0.2588 -0.0239
 1479TIP3    H225929   2.586   6.378   1.388 -0.4402 -0.6294 -0.0894
 1480TIP3   OH225930   0.381   5.053  11.344  0.5227 -0.0826  0.5594
 1480TIP3    H125931   0.406   5.133  11.390 -1.8361  1.0885 -0.0619
 1480TIP3    H225932   0.385   4.984  11.411  1.5083  0.7436  1.3728
 1481TIP3   OH225933   2.667   1.059  14.001  0.0367 -0.2077 -0.2516
 1481TIP3    H125934   2.615   1.122  13.952 -0.5363 -0.4353  0.0523
 1481TIP3    H225935   2.646   1.078  14.093  0.1514 -0.5902 -0.1453
 1482TIP3   OH225936   4.200   2.790  10.034  0.2011 -0.5013  0.8827
 1482TIP3    H125937   4.243   2.855  10.089 -1.9186  0.4221  1.5707
 1482TIP3    H225938   4.160   2.841   9.963 -0.1373 -1.2483  0.5225
 1483TIP3   OH225939   6.639   1.744  12.197  0.2837  0.1323  0.1602
 1483TIP3    H125940   6.547   1.767  12.183  0.3515  0.5402  0.3673
 1483TIP3    H225941   6.674   1.733  12.108  0.4278  1.5913  0.0055
 1484TIP3   OH225942   3.752   2.947  13.290  0.3497 -0.3697  0.3102
 1484TIP3    H125943   3.727   3.033  13.322  1.2929  0.5964 -1.4023
 1484TIP3    H225944   3.819   2.917  13.351  1.3484  0.9531 -0.0935
 1485TIP3   OH225945   6.806   3.246  11.655  0.0561  0.4737  0.0995
 1485TIP3    H125946   6.820   3.152  11.643 -0.5614  0.1822  1.4690
 1485TIP3    H225947   6.743   3.271  11.587 -1.1617 -0.4836  0.8524
 1486TIP3   OH225948   1.841   3.601  14.591  0.7725  0.2934 -0.0436
 1486TIP3    H125949   1.753   3.636  14.602  1.0190  0.2067  2.8718
 1486TIP3    H225950   1.828   3.507  14.583  0.5833  0.2302  0.8540
 1487TIP3   OH225951   0.579   4.186   3.352  0.1158  0.1230  0.2672
 1487TIP3    H125952   0.654   4.185   3.411  0.0338 -1.4541  0.3804
 1487TIP3    H225953   0.604   4.248   3.283  0.7124  1.0547  1.2862
 1488TIP3   OH225954   2.256   6.733  10.766 -0.1143 -0.4894 -0.3386
 1488TIP3    H125955   2.164   6.748  10.741  0.2001 -0.0348 -1.2697
 1488TIP3    H225956   2.297   6.819  10.758 -0.4954  0.3405  4.2490
 1489TIP3   OH225957   4.055   5.741   2.705  0.2083  0.5252 -0.5672
 1489TIP3    H125958   4.024   5.691   2.781 -0.2730 -0.0905 -1.1558
 1489TIP3    H225959   4.054   5.832   2.734  2.3096  0.1370  0.9548
 1490TIP3   OH225960   5.103   6.179   9.584  0.4872 -0.7390  0.5371
 1490TIP3    H125961   5.087   6.273   9.593  0.2631 -0.6795 -0.3679
 1490TIP3    H225962   5.044   6.151   9.514  1.1348 -1.3932  0.2319
 1491TIP3   OH225963   0.547   3.474  11.266 -0.4305 -0.5093  0.0673
 1491TIP3    H125964   0.540   3.380  11.249  1.6606 -0.9564  1.3377
 1491TIP3    H225965   0.627   3.500  11.220 -1.5703  0.9181 -1.1894
 1492TIP3   OH225966   5.765   4.296  11.230  0.3921 -0.2292  0.8007
 1492TIP3    H125967   5.710   4.227  11.265 -1.9712  0.6981 -0.8464
 1492TIP3    H225968   5.785   4.352  11.305 -1.2818 -0.3734  1.3835
 1493TIP3   OH225969   4.074   2.626  10.490  0.1680  0.5377 -0.0157
 1493TIP3    H125970   4.005   2.657  10.431  0.3510  3.5675  1.1747
 1493TIP3    H225971   4.154   2.632  10.438 -0.1019 -0.3352 -0.5509
 1494TIP3   OH225972   6.714   6.485  13.563 -0.1603 -0.1138  0.4113
 1494TIP3    H125973   6.796   6.474  13.514 -0.5905  0.3486 -0.4227
 1494TIP3    H225974   6.740   6.472  13.654  0.8283 -0.0866  0.1525
 1495TIP3   OH225975   6.236   1.092   9.576 -0.0001  0.6860  0.1459
 1495TIP3    H125976   6.147   1.073   9.607  0.3493  0.0857  0.8180
 1495TIP3    H225977   6.288   1.100   9.657  1.2011 -2.1712 -0.2149
 1496TIP3   OH225978   1.879   2.404  13.659  0.4197 -0.2783  0.4009
 1496TIP3    H125979   1.856   2.480  13.606 -0.5481  0.6358  2.0404
 1496TIP3    H225980   1.804   2.346  13.651  1.0284 -0.9642 -0.6036
 1497TIP3   OH225981   3.126   6.189  10.783 -0.4134  0.3714  0.4134
 1497TIP3    H125982   3.109   6.225  10.696  2.2216  0.3209 -0.1962
 1497TIP3    H225983   3.140   6.096  10.768  0.0448  0.3581  0.8980
 1498TIP3   OH225984   0.011   0.804   3.624 -1.0359  0.1949 -0.3543
 1498TIP3    H125985   0.078   0.742   3.595 -1.3225  0.2826 -1.2403
 1498TIP3    H225986  -0.030   0.762   3.700 -2.0330 -1.2872 -1.6382
 1499TIP3   OH225987   2.726   2.154   3.144  0.7370 -0.4241 -0.4014
 1499TIP3    H125988   2.802   2.182   3.195 -0.0536 -0.3042  0.7549
 1499TIP3    H225989   2.759   2.081   3.091  1.5580 -0.6591  0.3932
 1500TIP3   OH225990   0.221   3.315   9.961  0.0957 -0.4434 -0.2930
 1500TIP3    H125991   0.177   3.287  10.041 -1.6858  0.2303 -0.9722
 1500TIP3    H225992   0.217   3.239   9.903  0.7815 -0.7142  0.0056
 1501TIP3   OH225993   1.245   6.813  14.002 -0.6090  0.1477 -0.1966
 1501TIP3    H125994   1.299   6.794  13.925 -2.5206 -2.2128 -1.0731
 1501TIP3    H225995   1.256   6.908  14.016  1.9798  0.1625 -1.6021
 1502TIP3   OH225996   4.730   0.864  12.976 -0.2281 -0.0105 -0.4323
 1502TIP3    H125997   4.644   0.834  13.004 -0.2945  0.4918 -0.0829
 1502TIP3    H225998   4.790   0.793  13.002 -0.4337 -0.0205  0.0284
 1503TIP3   OH225999   1.197   3.046  14.513  0.1355 -0.6111  0.4632
 1503TIP3    H126000   1.216   3.133  14.547  0.8790 -0.5465 -0.1051
 1503TIP3    H226001   1.183   2.992  14.591  0.8448 -0.2516  0.8440
 1504TIP3   OH226002   4.308   6.161  14.166  0.0414 -0.7564  0.3707
 1504TIP3    H126003   4.266   6.121  14.243  0.0612 -0.8264  0.3455
 1504TIP3    H226004   4.235   6.192  14.113 -0.0292 -1.8329 -0.1863
 1505TIP3   OH226005   1.622   1.641   4.394  0.3234  0.1518  0.1295
 1505TIP3    H126006   1.623   1.628   4.489  2.7545  0.6504  0.2470
 1505TIP3    H226007   1.531   1.658   4.373 -0.2171  0.5049  2.4490
 1506TIP3   OH226008   6.491   0.110   9.462 -0.0672  0.1486 -0.1990
 1506TIP3    H126009   6.503   0.043   9.395  0.1285 -1.4400  1.3463
 1506TIP3    H226010   6.397   0.132   9.457  0.3501  1.8786 -2.5350
 1507TIP3   OH226011   7.236   5.102   3.960  0.2723 -0.5125 -0.0717
 1507TIP3    H126012   7.165   5.092   3.897  0.0456 -1.2090  0.2780
 1507TIP3    H226013   7.252   5.013   3.992  1.0805 -0.3160  0.0926
 1508TIP3   OH226014   1.924   4.363  13.744 -0.2397  0.7316 -0.2396
 1508TIP3    H126015   1.934   4.400  13.832  1.7970  0.7386 -0.4351
 1508TIP3    H226016   1.856   4.296  13.755  0.0681  0.6228  1.3849
 1509TIP3   OH226017   2.458   6.862  12.757 -0.4544 -0.3309 -0.1829
 1509TIP3    H126018   2.395   6.807  12.805 -1.7928 -0.6655 -2.2251
 1509TIP3    H226019   2.486   6.927  12.821 -0.8151 -1.7955  1.5581
 1510TIP3   OH226020   0.922   4.851  11.909  0.1563  0.4966  0.1197
 1510TIP3    H126021   0.920   4.804  11.992 -1.4338 -0.0831 -0.2252
 1510TIP3    H226022   0.859   4.922  11.919  0.1181  0.5601 -0.5130
 1511TIP3   OH226023   5.037   1.094  11.523 -0.4085  0.1623 -0.1857
 1511TIP3    H126024   5.051   1.001  11.537 -0.3583 -0.0873 -1.8057
 1511TIP3    H226025   5.119   1.135  11.549 -0.4811 -0.2159  0.6756
 1512TIP3   OH226026   1.273   5.068  11.605 -0.0834 -0.1410  0.6061
 1512TIP3    H126027   1.224   5.117  11.672 -0.2751  0.6112 -0.0617
 1512TIP3    H226028   1.330   5.010  11.655  0.9170  1.5067  1.4803
 1513TIP3   OH226029   5.135   5.538  12.241  0.2132 -0.2862 -0.0701
 1513TIP3    H126030   5.167   5.522  12.329  1.4701  0.0685 -0.4470
 1513TIP3    H226031   5.097   5.626  12.245 -0.8416 -0.7499  0.4028
 1514TIP3   OH226032   0.757   5.925  11.201  0.1139  0.3321  0.1164
 1514TIP3    H126033   0.795   5.934  11.288  1.3388  0.1433 -0.3896
 1514TIP3    H226034   0.831   5.905  11.143 -0.3374  2.4366 -1.3102
 1515TIP3   OH226035   2.321   4.569  13.710 -0.7744  0.2382 -0.1442
 1515TIP3    H126036   2.321   4.473  13.705 -0.8210  0.2310 -0.0321
 1515TIP3    H226037   2.363   4.588  13.794 -0.2176  0.3379 -0.4417
 1516TIP3   OH226038   0.967   0.319  12.808  0.7816 -0.2304 -0.1102
 1516TIP3    H126039   1.043   0.277  12.766  1.8437  0.2423  1.2712
 1516TIP3    H226040   1.002   0.401  12.844 -0.1765 -0.4179  1.3161
 1517TIP3   OH226041   3.170   0.800   0.467 -0.5680 -0.5671  0.2360
 1517TIP3    H126042   3.244   0.833   0.417 -2.2779  0.9458 -1.4538
 1517TIP3    H226043   3.162   0.858   0.542  0.9461 -1.7883  1.4011
 1518TIP3   OH226044   6.647   1.983  10.518  0.2344 -0.0895  0.3935
 1518TIP3    H126045   6.587   2.056  10.512 -0.8504 -1.0772 -1.4440
 1518TIP3    H226046   6.600   1.909  10.481  2.2100 -1.1444 -0.1712
 1519TIP3   OH226047   5.003   3.240  12.159 -0.3951  0.5015 -0.4446
 1519TIP3    H126048   5.059   3.169  12.192 -0.2316  0.8947  0.1395
 1519TIP3    H226049   4.915   3.204  12.160 -0.5559  0.8748  1.5353
 1520TIP3   OH226050   1.713   2.911  11.157  0.1628  0.3558  0.0963
 1520TIP3    H126051   1.736   2.822  11.132 -0.3809 -0.3999  2.1162
 1520TIP3    H226052   1.797   2.957  11.162  0.4372  0.0255 -1.0494
 1521TIP3   OH226053   6.289   6.806  14.199 -0.5220  0.0726  0.0233
 1521TIP3    H126054   6.199   6.779  14.181  0.0887 -1.8930 -0.3726
 1521TIP3    H226055   6.340   6.763  14.130  0.8278  0.3644  0.8140
 1522TIP3   OH226056   6.521   5.601  10.926  0.2402 -0.3107  0.5981
 1522TIP3    H126057   6.450   5.663  10.909 -0.7662 -1.5363  0.1678
 1522TIP3    H226058   6.496   5.560  11.009  0.7929 -0.2974  0.7723
 1523TIP3   OH226059   2.745   5.290  11.692 -0.3202  0.4822  0.1239
 1523TIP3    H126060   2.724   5.371  11.738 -0.6808  0.0030  0.8138
 1523TIP3    H226061   2.732   5.221  11.757  0.5499 -0.0822 -0.2856
 1524TIP3   OH226062   2.473   6.474   4.793  0.0102 -0.2871  0.3674
 1524TIP3    H126063   2.491   6.554   4.743  0.9671 -0.2118  0.8256
 1524TIP3    H226064   2.420   6.504   4.867 -3.2055 -0.6603 -1.5594
 1525TIP3   OH226065   3.926   4.152  15.167 -0.0255 -0.1240 -0.0070
 1525TIP3    H126066   3.963   4.084  15.112 -0.2588  0.5770 -1.0499
 1525TIP3    H226067   3.834   4.128  15.178  0.0544 -0.3386  0.2021
 1526TIP3   OH226068   4.210   0.023  13.583  0.1771  0.0812  0.4678
 1526TIP3    H126069   4.168   0.004  13.499  0.4401  0.2861  0.2873
 1526TIP3    H226070   4.139   0.017  13.648 -0.3298  1.3679  0.0525
 1527TIP3   OH226071   6.740   5.088  11.228 -0.3417  0.2038  0.0568
 1527TIP3    H126072   6.673   5.060  11.166 -0.5498  0.9869 -0.0874
 1527TIP3    H226073   6.754   5.181  11.207 -0.0215  0.3338  0.8192
 1528TIP3   OH226074   1.376   2.590  10.326 -0.1299 -0.1115 -0.0132
 1528TIP3    H126075   1.336   2.526  10.386  0.4446  0.5686  1.1186
 1528TIP3    H226076   1.347   2.562  10.239 -2.8584  0.1613  0.7064
 1529TIP3   OH226077   5.941   5.142   4.034  0.5683  0.2750  0.2304
 1529TIP3    H126078   6.032   5.121   4.053  0.3251 -0.9789  0.1038
 1529TIP3    H226079   5.890   5.079   4.086 -0.1957  0.2215 -0.5529
 1530TIP3   OH226080   3.259   3.455  10.207  0.6040 -0.6140  0.3454
 1530TIP3    H126081   3.341   3.466  10.159  0.9339  0.5538  1.1194
 1530TIP3    H226082   3.193   3.443  10.140  0.9376  1.6795 -0.4926
 1531TIP3   OH226083   1.131   5.389   3.072 -0.4092 -0.2466  0.1959
 1531TIP3    H126084   1.049   5.428   3.041 -1.2190 -0.5027  1.8822
 1531TIP3    H226085   1.177   5.461   3.116 -0.1980 -0.3356  0.1222
 1532TIP3   OH226086   3.145   0.623  14.531 -0.2060  0.1775  0.8443
 1532TIP3    H126087   3.185   0.537  14.518  2.1367  0.9242  2.4301
 1532TIP3    H226088   3.060   0.605  14.571 -0.1537 -1.3964  0.2972
 1533TIP3   OH226089   0.264   2.057  10.863  0.1167 -0.4546 -0.0344
 1533TIP3    H126090   0.345   2.100  10.835 -0.1250 -0.1640 -0.2918
 1533TIP3    H226091   0.198   2.086  10.799 -0.0825 -1.0772 -0.1142
 1534TIP3   OH226092   0.816   0.705  11.858 -0.2391 -0.1885  0.0379
 1534TIP3    H126093   0.743   0.731  11.803  0.3483  1.7971  0.1392
 1534TIP3    H226094   0.776   0.665  11.935 -1.1960  0.4148 -0.1409
 1535TIP3   OH226095   3.425   6.877  10.445 -0.0094 -0.0399 -0.1929
 1535TIP3    H126096   3.350   6.937  10.444 -0.8011 -0.8488  2.5411
 1535TIP3    H226097   3.497   6.930  10.479 -0.1325 -0.0583  0.0976
 1536TIP3   OH226098   1.060   2.809  13.663 -0.2165  0.2201 -0.4000
 1536TIP3    H126099   1.046   2.879  13.726 -0.8297  0.8895 -1.2458
 1536TIP3    H226100   0.986   2.750  13.676  0.1547 -0.1366  0.1285
 1537TIP3   OH226101   6.138   2.684  14.848  0.1791 -0.2886 -0.2297
 1537TIP3    H126102   6.070   2.708  14.785 -1.4565 -0.3806  1.3849
 1537TIP3    H226103   6.103   2.715  14.932  2.3466  0.0056  0.6252
 1538TIP3   OH226104   2.165   1.829  10.856 -1.1645  0.1153  0.3290
 1538TIP3    H126105   2.132   1.806  10.769 -0.5619 -4.5961  1.0775
 1538TIP3    H226106   2.244   1.879  10.839 -0.4013 -1.6686 -1.9667
 1539TIP3   OH226107   5.378   5.350  12.583  0.4161 -0.1727  0.0107
 1539TIP3    H126108   5.325   5.421  12.547 -0.4660  0.4111  2.2690
 1539TIP3    H226109   5.317   5.277  12.593  0.6436 -0.3317  0.2571
 1540TIP3   OH226110   3.337   1.965  11.660 -0.0203 -0.3319  0.2566
 1540TIP3    H126111   3.387   1.908  11.719  0.2809 -1.9496 -1.4757
 1540TIP3    H226112   3.323   2.045  11.711  1.7189 -0.9780  1.8850
 1541TIP3   OH226113   3.377   5.868  11.955  0.1187 -0.1561 -0.3088
 1541TIP3    H126114   3.411   5.790  11.998 -0.0664  0.0530  0.2311
 1541TIP3    H226115   3.344   5.923  12.027  1.7759  1.1779 -0.5141
 1542TIP3   OH226116   0.297   6.396  14.020  0.7281  0.2621  0.7030
 1542TIP3    H126117   0.379   6.409  13.971  1.8212 -0.9743  2.1201
 1542TIP3    H226118   0.273   6.305  14.003 -1.2894  1.0232 -0.9743
 1543TIP3   OH226119   7.225   3.733  12.926  0.0645 -0.1395 -0.2775
 1543TIP3    H126120   7.196   3.684  12.849  0.5157 -2.2847  0.8334
 1543TIP3    H226121   7.267   3.667  12.982  0.5026  1.5002  1.4266
 1544TIP3   OH226122   0.101   1.153  12.048 -0.0337  0.2775  0.2442
 1544TIP3    H126123   0.117   1.146  12.142  0.4054 -5.8381  0.0894
 1544TIP3    H226124   0.007   1.167  12.041 -0.1976 -0.0187  1.6038
 1545TIP3   OH226125   4.087   7.181  13.061 -0.0855 -0.1736  0.0946
 1545TIP3    H126126   4.108   7.159  13.152  1.3202  0.7456  0.0192
 1545TIP3    H226127   4.138   7.118  13.010  1.5172  1.1784 -0.0676
 1546TIP3   OH226128   0.057   4.903   3.114  0.0616  0.1121 -0.0402
 1546TIP3    H126129  -0.019   4.958   3.131 -0.3101 -0.0222 -1.2005
 1546TIP3    H226130   0.130   4.964   3.111 -0.2652  0.4783 -0.7329
 1547TIP3   OH226131   1.427   4.080  11.210  0.5004  0.2552  0.2199
 1547TIP3    H126132   1.376   4.078  11.291  0.3807  1.0754  0.1683
 1547TIP3    H226133   1.374   4.132  11.149  1.8727  2.0697  0.5038
 1548TIP3   OH226134   4.403   3.826  11.636  1.2226  0.4310  0.1415
 1548TIP3    H126135   4.462   3.754  11.658 -0.1781 -0.9072 -0.2707
 1548TIP3    H226136   4.388   3.817  11.542 -1.3071 -0.6695  0.5628
 1549TIP3   OH226137   0.600   1.707  10.121 -0.0981 -0.2387  0.4315
 1549TIP3    H126138   0.678   1.728  10.070  0.3019  0.4711  1.3046
 1549TIP3    H226139   0.629   1.711  10.212 -0.5677 -2.3588  0.7350
 1550TIP3   OH226140   4.393   1.205  11.100 -0.2039  0.6515 -0.0043
 1550TIP3    H126141   4.308   1.221  11.142  0.2669  2.9549  0.1873
 1550TIP3    H226142   4.446   1.165  11.168 -0.4945  1.1994  0.5533
 1551TIP3   OH226143   4.414   6.127  11.480 -0.0253 -0.3038 -0.2640
 1551TIP3    H126144   4.354   6.123  11.406  0.9827  2.7563 -1.3947
 1551TIP3    H226145   4.477   6.056  11.464 -1.7638 -1.9012 -0.3966
 1552TIP3   OH226146   4.719   3.077  12.232 -0.8849  0.2065 -0.0625
 1552TIP3    H126147   4.628   3.095  12.258 -1.1582 -0.0058 -0.8401
 1552TIP3    H226148   4.712   3.041  12.143 -0.0930 -0.4661  0.1339
 1553TIP3   OH226149   1.372   1.733  10.478  0.3442  0.0086  0.2688
 1553TIP3    H126150   1.357   1.653  10.528 -0.2823 -0.7759 -1.1371
 1553TIP3    H226151   1.427   1.706  10.404  1.2152  1.1315  0.4738
 1554TIP3   OH226152   6.184   1.148  14.869 -0.1145 -0.0315  0.2561
 1554TIP3    H126153   6.170   1.219  14.807 -0.2559  0.3391  0.7012
 1554TIP3    H226154   6.262   1.102  14.837 -1.0277 -0.7528 -1.0073
 1555TIP3   OH226155   6.108   0.795  10.291  0.4096  0.4896 -0.0139
 1555TIP3    H126156   6.038   0.789  10.356 -0.3883 -0.6212 -0.9246
 1555TIP3    H226157   6.178   0.739  10.326 -0.1147 -0.3048 -0.2155
 1556TIP3   OH226158   5.128   5.782   3.853 -0.3590 -0.3733  0.5875
 1556TIP3    H126159   5.187   5.707   3.860 -1.0238 -1.0729 -0.8050
 1556TIP3    H226160   5.152   5.822   3.769 -1.3481 -0.2239  0.3697
 1557TIP3   OH226161   1.737   3.321  14.553  0.0273 -0.7845  0.0885
 1557TIP3    H126162   1.736   3.266  14.474 -0.6034 -0.3111 -0.2375
 1557TIP3    H226163   1.814   3.290  14.602  0.0067 -1.5786 -0.3541
 1558TIP3   OH226164   2.419   2.506  12.686  0.8026 -0.2318  0.5236
 1558TIP3    H126165   2.375   2.574  12.635 -1.3027 -0.9324  1.2917
 1558TIP3    H226166   2.464   2.452  12.621 -0.5373 -0.2099 -0.4508
 1559TIP3   OH226167   2.506   0.071  13.459  0.3513 -0.4574  0.1916
 1559TIP3    H126168   2.487   0.148  13.514  1.3877 -1.3210  1.8564
 1559TIP3    H226169   2.490  -0.004  13.517  1.2197 -1.4366 -0.7913
 1560TIP3   OH226170   5.001   5.064  11.909  0.2186 -0.0518 -0.1960
 1560TIP3    H126171   5.007   5.104  11.822  1.0751 -1.2802 -0.7164
 1560TIP3    H226172   4.997   5.139  11.969 -0.3032  0.8147 -1.2712
 1561TIP3   OH226173   4.716   1.557  11.668  0.0524 -0.7112  0.5587
 1561TIP3    H126174   4.667   1.640  11.668 -1.0775 -1.3543  1.2959
 1561TIP3    H226175   4.687   1.512  11.589 -0.0235 -0.8047  0.6404
 1562TIP3   OH226176   6.102   2.766   1.952  0.1042 -0.4952 -0.3891
 1562TIP3    H126177   6.083   2.836   1.889 -0.4153  0.8374  1.1607
 1562TIP3    H226178   6.197   2.757   1.949  0.3778  1.4259  0.4452
 1563TIP3   OH226179   1.465   2.911  12.925 -0.8573  0.5030  0.1193
 1563TIP3    H126180   1.412   2.990  12.933 -0.5360  0.7199  0.0916
 1563TIP3    H226181   1.554   2.939  12.946 -1.0115 -0.2112  1.8686
 1564TIP3   OH226182   4.194   2.999   1.194  0.5058  0.2225 -0.3637
 1564TIP3    H126183   4.183   3.083   1.149 -0.8983  0.7690  0.8832
 1564TIP3    H226184   4.278   3.007   1.239  0.2623  1.0959 -0.0295
 1565TIP3   OH226185   5.466   3.615  15.108 -0.5514 -1.0329 -0.4473
 1565TIP3    H126186   5.388   3.628  15.054  0.2340 -0.3471 -1.4439
 1565TIP3    H226187   5.520   3.553  15.059  1.1337  1.1713 -1.5792
 1566TIP3   OH226188   2.853   2.896  12.682 -0.0783  0.1090  0.1931
 1566TIP3    H126189   2.885   2.943  12.758  1.3273 -0.2042 -0.1805
 1566TIP3    H226190   2.869   2.955  12.608  0.4905 -0.4053 -0.1102
 1567TIP3   OH226191   7.215   1.453   1.088  0.4094  0.3618 -0.2726
 1567TIP3    H126192   7.205   1.375   1.033  0.5485 -1.1838  1.7822
 1567TIP3    H226193   7.141   1.449   1.149  0.2293  2.0532 -0.3471
 1568TIP3   OH226194   7.018   6.139  12.026 -0.1255  0.2031  0.1044
 1568TIP3    H126195   7.036   6.208  11.962 -1.0419  1.6520  1.3328
 1568TIP3    H226196   7.077   6.157  12.098 -0.8096  0.0831  0.7049
 1569TIP3   OH226197   3.502   1.973   9.692  0.1834 -0.1082 -0.1783
 1569TIP3    H126198   3.589   1.976   9.654 -0.2423 -0.3450 -1.2235
 1569TIP3    H226199   3.445   2.012   9.625 -0.4679  0.3518  0.6187
 1570TIP3   OH226200   5.914   2.591  13.808 -0.1277 -0.0955 -0.2439
 1570TIP3    H126201   5.987   2.651  13.795  1.1591 -1.4380  0.5472
 1570TIP3    H226202   5.836   2.643  13.786  0.8737  1.9818  0.8354
 1571TIP3   OH226203   6.449   0.278  10.974 -0.4023 -0.2008 -0.0280
 1571TIP3    H126204   6.456   0.239  10.887  0.7331 -1.5253  0.6122
 1571TIP3    H226205   6.536   0.267  11.013 -0.5408  1.4343  0.8572
 1572TIP3   OH226206   1.895   5.584  14.605  0.3030 -0.1980 -0.5049
 1572TIP3    H126207   1.812   5.583  14.653 -0.2584 -0.9413 -1.4485
 1572TIP3    H226208   1.887   5.659  14.547  1.8643  2.0381  1.9573
 1573TIP3   OH226209   3.563   1.019  11.789  0.3533  0.5898 -0.0416
 1573TIP3    H126210   3.468   1.017  11.803  0.0367  2.4931 -1.4688
 1573TIP3    H226211   3.574   1.005  11.695  1.6500 -1.4697  0.3617
 1574TIP3   OH226212   2.964   0.959  11.815  0.1244 -0.3653 -0.1593
 1574TIP3    H126213   2.934   0.894  11.752 -0.1180 -0.7712  0.3660
 1574TIP3    H226214   2.892   1.022  11.821 -0.3259 -0.9281  0.5326
 1575TIP3   OH226215   3.526   4.198   0.911  0.2776  0.5841  0.2912
 1575TIP3    H126216   3.594   4.263   0.930  1.4843 -0.2920 -0.8167
 1575TIP3    H226217   3.573   4.127   0.867 -1.1472 -0.6661  0.7156
 1576TIP3   OH226218   2.335   0.885  11.928  0.0632  0.3267 -0.4115
 1576TIP3    H126219   2.264   0.886  11.864 -1.3080 -1.0886  0.9892
 1576TIP3    H226220   2.407   0.840  11.884 -0.6657 -0.1594 -1.1214
 1577TIP3   OH226221   2.163   0.539   9.614 -0.1738 -0.3148  0.2817
 1577TIP3    H126222   2.211   0.609   9.657 -0.0362  0.2127 -0.6857
 1577TIP3    H226223   2.074   0.574   9.604 -1.0973 -1.6500  2.9278
 1578TIP3   OH226224   5.248   6.826  12.099 -0.0576 -0.6172  0.2753
 1578TIP3    H126225   5.191   6.757  12.134  0.8277 -0.6040  1.8265
 1578TIP3    H226226   5.329   6.818  12.150  1.1855 -0.3624 -1.5885
 1579TIP3   OH226227   0.067   4.850   9.611  0.1648 -1.0508 -0.1407
 1579TIP3    H126228   0.072   4.914   9.540  0.9383 -2.0406 -1.0108
 1579TIP3    H226229   0.139   4.874   9.670 -1.0241  0.3238  0.8396
 1580TIP3   OH226230   6.599   4.016  12.514  0.1587  0.3529 -0.0421
 1580TIP3    H126231   6.677   4.017  12.570 -0.0484 -0.1970  0.2691
 1580TIP3    H226232   6.529   3.984  12.572  0.4715 -2.8785 -1.2608
 1581TIP3   OH226233   2.311   1.782  14.863  0.8820  0.0426 -0.0426
 1581TIP3    H126234   2.373   1.843  14.904 -1.3449  0.7314  2.6044
 1581TIP3    H226235   2.257   1.837  14.807  0.1714  0.2078  0.7741
 1582TIP3   OH226236   1.814   3.502  14.886  0.1486  0.5155  0.1285
 1582TIP3    H126237   1.890   3.472  14.835  0.7590  1.9089  0.1685
 1582TIP3    H226238   1.791   3.586  14.847 -0.2967  0.9188  1.2241
 1583TIP3   OH226239   0.248   0.913  12.745 -0.0250 -0.4009  0.0269
 1583TIP3    H126240   0.309   0.843  12.721  0.8116  0.3092  0.0383
 1583TIP3    H226241   0.270   0.985  12.686  0.3843  0.4957  1.2299
 1584TIP3   OH226242   4.883   1.008  10.424 -0.5837 -0.2633 -0.2302
 1584TIP3    H126243   4.819   1.056  10.477  0.4241 -0.8543  1.6339
 1584TIP3    H226244   4.830   0.953  10.366 -1.7677 -0.2021  0.7487
 1585TIP3   OH226245   2.193   3.050  11.405 -0.5208 -0.1292 -0.0923
 1585TIP3    H126246   2.116   3.057  11.461 -1.7962 -0.8396 -1.6854
 1585TIP3    H226247   2.168   2.988  11.337  0.4276  1.7543 -2.2863
 1586TIP3   OH226248   0.099   4.595   9.535  0.3744 -0.1415  0.0988
 1586TIP3    H126249   0.104   4.685   9.565 -0.6323 -0.0544  0.0517
 1586TIP3    H226250   0.014   4.589   9.491  0.5586 -1.0287 -0.1612
 1587TIP3   OH226251   1.970   1.188  11.152 -0.5595  0.1285  0.2679
 1587TIP3    H126252   1.898   1.163  11.210  0.1882 -4.5134 -0.4422
 1587TIP3    H226253   2.048   1.187  11.207 -0.1517 -2.1072 -0.2657
 1588TIP3   OH226254   2.028   4.300  12.970  0.2567 -0.1701  0.3936
 1588TIP3    H126255   2.032   4.307  13.066  0.7633 -0.9184  0.4403
 1588TIP3    H226256   2.080   4.222  12.950  0.0239 -0.1091 -0.4822
 1589TIP3   OH226257   5.290   4.691  10.072  0.0887  0.0828  0.0576
 1589TIP3    H126258   5.322   4.709  10.161  1.9240 -3.3680  0.2553
 1589TIP3    H226259   5.335   4.755  10.017 -0.1611  1.4983  1.4175
 1590TIP3   OH226260   2.581   5.349  10.161  0.1336 -0.2389  0.3403
 1590TIP3    H126261   2.629   5.415  10.211  1.3984 -0.2773 -0.7584
 1590TIP3    H226262   2.543   5.292  10.227  2.3501 -0.7244  1.3008
 1591TIP3   OH226263   5.448   4.938  12.661  0.9727 -0.7809 -0.0527
 1591TIP3    H126264   5.497   4.907  12.585 -0.2446 -0.7322 -0.8918
 1591TIP3    H226265   5.515   4.953  12.728  2.2639  0.6102 -1.5677
 1592TIP3   OH226266   2.082   5.258  13.008 -0.4273  0.2656  0.2146
 1592TIP3    H126267   2.107   5.171  13.041  1.9350  1.1207  0.8630
 1592TIP3    H226268   2.003   5.281  13.058 -0.2847 -0.9277  1.0318
 1593TIP3   OH226269   3.824   0.116  10.298  0.0412 -0.2407  0.1665
 1593TIP3    H126270   3.734   0.098  10.272  0.8228 -3.6055 -0.7411
 1593TIP3    H226271   3.841   0.205  10.268 -2.4964 -0.0683 -0.9968
 1594TIP3   OH226272   3.027   2.620  13.038 -0.4868  0.7056 -0.5296
 1594TIP3    H126273   3.103   2.669  13.007 -0.2536  1.1563  0.6801
 1594TIP3    H226274   3.022   2.544  12.981  1.3394  0.2677 -0.1806
 1595TIP3   OH226275   0.838   1.231  13.894  0.0184  0.0578 -0.6616
 1595TIP3    H126276   0.804   1.214  13.982  1.4499 -3.8179 -0.6596
 1595TIP3    H226277   0.904   1.299  13.907 -0.8577  0.6547  0.9836
 1596TIP3   OH226278   0.431   1.690  15.242  1.0418  0.1840  0.1384
 1596TIP3    H126279   0.417   1.695  15.337  0.7564 -0.2398  0.1230
 1596TIP3    H226280   0.374   1.618  15.213  2.1192 -0.5798 -0.1558
 1597TIP3   OH226281   5.064   0.044  11.741 -0.0387  0.4519 -0.4326
 1597TIP3    H126282   5.065   0.063  11.648 -1.4788  0.0718 -0.5466
 1597TIP3    H226283   5.056  -0.052  11.746 -1.1174  0.5459  0.0433
 1598TIP3   OH226284   5.609   6.780  11.943  0.2999 -0.7395 -0.3208
 1598TIP3    H126285   5.672   6.707  11.947 -1.5781 -2.4081  1.0161
 1598TIP3    H226286   5.644   6.845  12.004  1.2412 -1.1855 -0.3677
 1599TIP3   OH226287   0.507   6.907  11.078  0.1536  0.0819  0.2699
 1599TIP3    H126288   0.450   6.874  11.148  0.5468 -1.0372  0.0829
 1599TIP3    H226289   0.453   6.971  11.031 -0.0509  1.0249  1.7132
 1600TIP3   OH226290   2.476   4.025   0.807 -0.0064 -0.4001  0.1900
 1600TIP3    H126291   2.538   4.083   0.851 -0.9566  0.5622  0.2930
 1600TIP3    H226292   2.465   4.063   0.720 -0.4100 -0.5757  0.1600
 1601TIP3   OH226293   7.062   5.843  10.339  0.3221 -0.2377 -1.0718
 1601TIP3    H126294   7.113   5.853  10.420 -2.3074 -1.2167  0.8261
 1601TIP3    H226295   7.070   5.929  10.296 -0.3037  1.2479  1.5617
 1602TIP3   OH226296   6.527   0.901   2.997  0.8304  0.0010 -0.3040
 1602TIP3    H126297   6.463   0.919   2.929  0.7906 -0.3719 -0.3648
 1602TIP3    H226298   6.601   0.959   2.977  1.8886 -1.8783 -2.1388
 1603TIP3   OH226299   4.697   1.324  12.513  0.2252  0.0762 -0.0994
 1603TIP3    H126300   4.755   1.354  12.583 -0.3582 -0.1703  0.4999
 1603TIP3    H226301   4.630   1.273  12.558  1.6026 -2.8335 -1.1315
 1604TIP3   OH226302   6.125   2.192  13.406 -0.7397  0.3124 -0.3744
 1604TIP3    H126303   6.060   2.183  13.475  0.4904  1.3070  0.9795
 1604TIP3    H226304   6.132   2.286  13.392  1.0566  0.2996  0.1932
 1605TIP3   OH226305   2.689   6.790   0.172 -0.1378 -0.0869  0.5954
 1605TIP3    H126306   2.706   6.879   0.141 -0.7358  0.3563  1.4882
 1605TIP3    H226307   2.615   6.760   0.118  1.6246 -1.0104 -1.4272
 1606TIP3   OH226308   1.444   5.069   9.839 -0.4842  0.4027  0.0809
 1606TIP3    H126309   1.526   5.080   9.790  0.7431 -0.3142  1.8760
 1606TIP3    H226310   1.438   5.148   9.892  1.0496 -1.0922  2.6713
 1607TIP3   OH226311   3.556   5.334  12.833 -0.2385  0.3042 -0.1443
 1607TIP3    H126312   3.482   5.359  12.778  1.6164  0.8818 -2.5660
 1607TIP3    H226313   3.593   5.417  12.863  0.0039  0.0664  0.2248
 1608TIP3   OH226314   2.998   5.616   9.616  0.5265 -0.1119  0.0861
 1608TIP3    H126315   2.976   5.694   9.667 -0.4593 -0.9023  0.9403
 1608TIP3    H226316   3.089   5.629   9.589  0.7640  0.7908  1.2330
 1609TIP3   OH226317   4.873   4.155  12.513 -0.3823  0.2699  0.2989
 1609TIP3    H126318   4.824   4.088  12.466 -1.6063 -1.0952  3.2533
 1609TIP3    H226319   4.956   4.114  12.535  0.6849  1.3144 -1.5593
 1610TIP3   OH226320   2.268   0.011  13.300 -0.7082 -0.1992 -0.4763
 1610TIP3    H126321   2.210   0.013  13.376 -1.2990 -0.5075 -0.9072
 1610TIP3    H226322   2.353  -0.014  13.335 -0.8114  0.3318  0.1767
 1611TIP3   OH226323   3.233   5.472  15.246  0.1445  0.1521 -0.1755
 1611TIP3    H126324   3.288   5.445  15.319 -1.8523  1.8237  2.1056
 1611TIP3    H226325   3.281   5.543  15.204  0.4197  0.5454  0.7897
 1612TIP3   OH226326   3.235   4.643   0.611  0.1608  0.7922  0.3832
 1612TIP3    H126327   3.208   4.625   0.701  1.8517 -0.8759  0.6395
 1612TIP3    H226328   3.329   4.624   0.611  0.6279  2.8233 -1.2533
 1613TIP3   OH226329   2.042   2.384  14.762 -0.0133 -0.1488 -0.2779
 1613TIP3    H126330   2.054   2.388  14.667  0.8287  1.4651 -0.1327
 1613TIP3    H226331   1.972   2.447  14.780  1.1163  0.9689  0.3399
 1614TIP3   OH226332   1.248   1.678   9.811 -0.4766 -0.5470  0.5888
 1614TIP3    H126333   1.208   1.752   9.764  0.3960 -0.6305 -0.3408
 1614TIP3    H226334   1.204   1.601   9.776  0.8277 -0.6896 -0.8942
 1615TIP3   OH226335   0.418   1.267  10.394  0.5427 -0.3397 -0.0556
 1615TIP3    H126336   0.477   1.208  10.348  0.9016 -0.5059  0.6072
 1615TIP3    H226337   0.477   1.331  10.436  0.2746 -0.7039  0.8863
 1616TIP3   OH226338   4.339   0.948  12.975  0.7727 -0.1871  0.5878
 1616TIP3    H126339   4.419   0.991  12.944  0.4654 -0.1304 -0.1355
 1616TIP3    H226340   4.318   0.884  12.907  0.6978 -0.8358  1.2060
 1617TIP3   OH226341   6.329   4.741   2.307  0.2637 -0.0368  0.1300
 1617TIP3    H126342   6.287   4.657   2.325  1.1138 -0.4870  0.0315
 1617TIP3    H226343   6.409   4.740   2.359 -0.6024  1.4909  1.6144
 1618TIP3   OH226344   1.549   0.303   0.535 -0.5704  0.3971  0.3069
 1618TIP3    H126345   1.630   0.260   0.564 -0.5632 -0.8907 -1.4775
 1618TIP3    H226346   1.571   0.397   0.535  1.1940  0.0449 -0.8046
 1619TIP3   OH226347   0.362   3.144  11.748 -0.4731 -0.0850 -0.0870
 1619TIP3    H126348   0.380   3.080  11.679 -1.1278  0.3020 -0.6265
 1619TIP3    H226349   0.266   3.148  11.751 -0.5277 -1.3600  2.0099
 1620TIP3   OH226350   2.506   5.618   0.018 -0.4182  0.0287  0.3975
 1620TIP3    H126351   2.559   5.673  -0.041 -1.2273  0.7863  0.3519
 1620TIP3    H226352   2.524   5.529  -0.009  0.8288  0.2709  0.3735
 1621TIP3   OH226353   5.839   6.759  12.995  0.0736 -0.1618 -0.4360
 1621TIP3    H126354   5.868   6.850  12.993 -0.1129 -0.0966 -0.2499
 1621TIP3    H226355   5.847   6.734  13.087  0.8629 -0.5783 -0.6129
 1622TIP3   OH226356   5.957   7.114  13.528 -0.2716  0.1044  0.7048
 1622TIP3    H126357   5.955   7.146  13.618 -0.6993  1.5696  0.2049
 1622TIP3    H226358   5.868   7.084  13.510  0.0259 -1.0158  1.0358
 1623TIP3   OH226359   0.684   0.703  13.077  0.4839 -0.6172  0.1820
 1623TIP3    H126360   0.692   0.619  13.033  0.2376 -0.7983  0.4753
 1623TIP3    H226361   0.668   0.681  13.169 -0.0191 -0.2586  0.1869
 1624TIP3   OH226362   0.446   3.911   0.270 -0.0449 -0.6430 -0.0500
 1624TIP3    H126363   0.453   3.823   0.305 -0.1009 -1.1102 -1.1773
 1624TIP3    H226364   0.422   3.899   0.178 -0.3263  0.5494 -0.1559
 1625TIP3   OH226365   0.593   6.362  11.173  0.0215 -0.0769 -0.3493
 1625TIP3    H126366   0.631   6.295  11.116 -0.7273  0.6787 -1.7649
 1625TIP3    H226367   0.508   6.326  11.199  0.0327 -0.0901 -0.3303
 1626TIP3   OH226368   3.322   4.249   2.947 -0.0931 -0.1315 -0.6871
 1626TIP3    H126369   3.369   4.317   2.899  0.9162 -1.4337 -1.6232
 1626TIP3    H226370   3.265   4.209   2.881 -1.7747  0.7172  0.1859
 1627TIP3   OH226371   2.743   2.909   1.942 -0.4563  0.0651 -0.3037
 1627TIP3    H126372   2.676   2.892   2.009 -0.9725 -1.5319 -1.1668
 1627TIP3    H226373   2.819   2.939   1.991 -1.2243  0.1687  0.8722
 1628TIP3   OH226374   4.664   2.010   9.971  0.4515 -0.2209  0.2187
 1628TIP3    H126375   4.582   1.969   9.945  0.4192 -0.3650  0.5487
 1628TIP3    H226376   4.713   2.019   9.889 -0.1468  0.4431 -0.0856
 1629TIP3   OH226377   1.664   3.314  12.693  0.2467  1.2556  0.3924
 1629TIP3    H126378   1.649   3.267  12.774 -1.0771 -0.1390 -0.6025
 1629TIP3    H226379   1.727   3.259  12.645  0.8143  1.9269  0.3572
 1630TIP3   OH226380   4.504   4.011  10.856 -0.8304 -0.1068  0.4859
 1630TIP3    H126381   4.581   3.955  10.844  2.0704  3.5424  0.5191
 1630TIP3    H226382   4.467   4.020  10.769 -1.0245 -1.5124  0.3901
 1631TIP3   OH226383   7.034   1.473  11.251 -0.1760  0.4320 -0.6330
 1631TIP3    H126384   7.091   1.425  11.192  1.2245  1.6805 -0.3499
 1631TIP3    H226385   7.091   1.538  11.292 -2.0311  2.5976 -1.2898
 1632TIP3   OH226386   4.977   2.690   9.286 -0.1346 -0.3988 -0.1660
 1632TIP3    H126387   4.882   2.685   9.273 -0.2336  1.1433 -0.2983
 1632TIP3    H226388   5.014   2.661   9.202 -0.3700 -3.4871  0.7021
 1633TIP3   OH226389   6.802   6.453  12.674 -0.1307 -0.3400 -0.1432
 1633TIP3    H126390   6.805   6.384  12.741 -0.9816 -0.1412  0.1088
 1633TIP3    H226391   6.887   6.496  12.680  0.4190 -1.3852 -0.3219
 1634TIP3   OH226392   4.522   0.581  12.951  0.2101 -0.0150 -0.5373
 1634TIP3    H126393   4.427   0.593  12.955  0.2960  1.3881 -1.8675
 1634TIP3    H226394   4.534   0.487  12.937 -1.0285 -0.0435 -1.5309
 1635TIP3   OH226395   6.299   0.989  12.348  0.1980 -0.3494 -0.3573
 1635TIP3    H126396   6.258   0.935  12.416 -0.1781 -0.9615 -1.0613
 1635TIP3    H226397   6.274   1.079  12.372  1.0007 -0.4399  0.9339
 1636TIP3   OH226398   1.749   5.653  11.771 -0.4366  0.4183  0.8299
 1636TIP3    H126399   1.814   5.597  11.815  0.3257  0.9188  0.3642
 1636TIP3    H226400   1.792   5.738  11.763 -1.0065  0.6530  0.1595
 1637TIP3   OH226401   1.706   1.983  10.669 -0.2564 -0.2649  0.0566
 1637TIP3    H126402   1.774   2.043  10.700  0.9850 -2.4709  1.8687
 1637TIP3    H226403   1.692   2.009  10.577 -0.2730  3.1219  0.8647
 1638TIP3   OH226404   6.435   0.587  11.761  0.1427  0.2016 -0.4630
 1638TIP3    H126405   6.476   0.536  11.690 -1.6592 -0.2986 -1.2062
 1638TIP3    H226406   6.428   0.525  11.833  1.7407  0.6355  0.0943
 1639TIP3   OH226407   6.684   6.532  11.546  0.0968 -0.1586  0.1798
 1639TIP3    H126408   6.590   6.531  11.565 -0.0272  1.6248 -0.1220
 1639TIP3    H226409   6.702   6.445  11.511 -1.2315 -0.8732  1.1437
 1640TIP3   OH226410   0.560   2.882  11.803 -0.1959 -0.0715 -0.4308
 1640TIP3    H126411   0.647   2.896  11.766  0.2478  0.6056  0.8146
 1640TIP3    H226412   0.570   2.899  11.896 -1.7435  0.4037 -0.3177
 1641TIP3   OH226413   1.452   2.221   1.775  0.4175 -0.7729 -0.2975
 1641TIP3    H126414   1.536   2.249   1.811  0.1408  0.1700 -0.3402
 1641TIP3    H226415   1.454   2.126   1.780  0.8911 -0.7188  1.0463
 1642TIP3   OH226416   6.730   3.233   0.017 -0.7654  0.9638 -0.2292
 1642TIP3    H126417   6.671   3.158   0.006  0.9671 -0.2028 -2.7432
 1642TIP3    H226418   6.813   3.193   0.044 -0.4805  2.2780  0.8835
 1643TIP3   OH226419   4.205   4.191   5.147 -0.3232 -0.0442  0.2965
 1643TIP3    H126420   4.224   4.117   5.205 -1.2830 -0.4666  0.1028
 1643TIP3    H226421   4.111   4.208   5.160 -0.3255  0.5144 -0.3775
 1644TIP3   OH226422   5.677   1.425  10.421  0.5487 -0.0240 -0.2086
 1644TIP3    H126423   5.756   1.428  10.474 -0.5951  0.3328  1.5411
 1644TIP3    H226424   5.631   1.346  10.450 -0.8854  1.0429  0.5848
 1645TIP3   OH226425   2.669   5.802   1.286 -0.1094  0.1836 -0.2618
 1645TIP3    H126426   2.594   5.838   1.334 -0.6683 -1.3528  0.1085
 1645TIP3    H226427   2.661   5.839   1.198 -2.3191 -1.1906 -0.7233
 1646TIP3   OH226428   1.319   1.658  12.119  0.8667 -0.4637 -0.1285
 1646TIP3    H126429   1.360   1.648  12.033  1.3277  0.1082  0.0201
 1646TIP3    H226430   1.275   1.743  12.114 -1.3846 -1.5951 -0.7188
 1647TIP3   OH226431   3.229   6.925  10.179  0.1097 -0.0006 -0.1549
 1647TIP3    H126432   3.190   6.867  10.113 -2.0039 -1.3482  2.1385
 1647TIP3    H226433   3.203   7.013  10.152 -2.0439 -0.6485 -0.3312
 1648TIP3   OH226434   1.998   5.174   0.206  0.0376  0.7077  0.6226
 1648TIP3    H126435   2.074   5.134   0.248 -0.5607  0.0889  1.1473
 1648TIP3    H226436   2.004   5.147   0.115  0.3670  0.5267  0.6962
 1649TIP3   OH226437   5.418   2.578  10.462 -0.6238 -0.0077 -0.0392
 1649TIP3    H126438   5.441   2.623  10.381 -0.5362 -0.1593 -0.0992
 1649TIP3    H226439   5.502   2.548  10.497 -0.9055 -3.2292 -1.7941
 1650TIP3   OH226440   4.537   2.764  10.200  0.1945 -0.2970 -0.1762
 1650TIP3    H126441   4.601   2.807  10.256 -1.2510 -1.6063  2.6748
 1650TIP3    H226442   4.589   2.705  10.146  1.5187 -0.4559  1.2030
 1651TIP3   OH226443   3.199   2.699   5.193  0.4902 -0.0103 -0.0191
 1651TIP3    H126444   3.197   2.711   5.098 -1.0330 -0.1052 -0.0186
 1651TIP3    H226445   3.115   2.731   5.223  1.3465  0.9791  1.4482
 1652TIP3   OH226446   5.150   0.156   2.962  0.4911 -0.5550  0.0098
 1652TIP3    H126447   5.116   0.236   3.001  0.0589 -0.7900  0.1221
 1652TIP3    H226448   5.079   0.124   2.907  1.5683  0.4924 -2.0716
 1653TIP3   OH226449   1.368   5.101  12.051 -0.2701  0.1707  0.4391
 1653TIP3    H126450   1.422   5.159  11.997  0.1234 -1.6501 -1.2159
 1653TIP3    H226451   1.280   5.139  12.045  0.4742  2.3644  2.0299
 1654TIP3   OH226452   3.914   1.176  12.811  0.4692  0.7594 -0.3876
 1654TIP3    H126453   3.824   1.148  12.795  0.3879  1.1431 -0.5953
 1654TIP3    H226454   3.914   1.270  12.796  1.1196  0.6259 -1.3915
 1655TIP3   OH226455   0.116   4.303   9.679  0.2794 -0.4711 -0.0625
 1655TIP3    H126456   0.037   4.336   9.635 -0.3636  0.5946  1.7520
 1655TIP3    H226457   0.083   4.266   9.762  1.8328  2.3790  2.0168
 1656TIP3   OH226458   4.371   0.720  10.936 -0.4492  0.1231 -0.0666
 1656TIP3    H126459   4.333   0.718  11.024 -0.8132 -0.6934 -0.2275
 1656TIP3    H226460   4.465   0.710  10.950 -0.4854  0.1965  0.2382
 1657TIP3   OH226461   4.733   6.027  11.611  0.4871  0.0271 -0.1768
 1657TIP3    H126462   4.718   6.113  11.651 -0.3990  0.3902 -1.2645
 1657TIP3    H226463   4.793   5.983  11.672  1.5942  1.6952  0.0158
 1658TIP3   OH226464   4.013   5.231  10.254  0.5411  0.0818  0.2663
 1658TIP3    H126465   4.030   5.321  10.279 -0.6066  0.3411  0.1768
 1658TIP3    H226466   4.097   5.198  10.223  1.2284  0.7613  1.3528
 1659TIP3   OH226467   2.800   2.628  13.943  0.0369  0.0355 -0.0163
 1659TIP3    H126468   2.759   2.662  14.022  0.4573  0.1136  0.1681
 1659TIP3    H226469   2.877   2.581  13.973  0.6780  0.7855 -0.4301
 1660TIP3   OH226470   4.778   5.953  14.080  0.9621  0.0793 -0.3114
 1660TIP3    H126471   4.868   5.982  14.064  1.8538 -0.7610  2.4915
 1660TIP3    H226472   4.733   6.031  14.112  1.4906 -0.0518  0.8168
 1661TIP3   OH226473   6.802   1.436  11.380  0.0947 -0.0141 -0.2019
 1661TIP3    H126474   6.749   1.493  11.324 -2.0452 -0.2361  1.4308
 1661TIP3    H226475   6.890   1.439  11.343 -1.3067 -0.7976 -4.0634
 1662TIP3   OH226476   1.883   2.464   2.940 -0.0214 -0.2715 -0.1799
 1662TIP3    H126477   1.911   2.443   2.851 -0.7994  1.9204 -1.0125
 1662TIP3    H226478   1.917   2.552   2.957 -2.2394  0.5275  0.5603
 1663TIP3   OH226479   5.051   2.856  10.617 -0.1631  0.1433  0.5658
 1663TIP3    H126480   5.126   2.868  10.675  0.9786  0.0617 -0.8160
 1663TIP3    H226481   5.080   2.788  10.556 -1.3976  0.0681  0.0419
 1664TIP3   OH226482   1.429   6.595  12.732  0.4126 -0.2902 -0.5562
 1664TIP3    H126483   1.519   6.607  12.761  0.1002 -0.5828  0.5863
 1664TIP3    H226484   1.411   6.502  12.748 -0.0268 -0.2846 -0.9874
 1665TIP3   OH226485   6.894   6.240  14.910  0.2771  0.2271 -0.0616
 1665TIP3    H126486   6.807   6.238  14.950  0.1479  1.9607 -0.1570
 1665TIP3    H226487   6.896   6.323  14.861  0.8764 -1.1961 -2.6454
 1666TIP3   OH226488   3.069   4.033  10.885 -0.2869  0.1867  0.3345
 1666TIP3    H126489   3.037   3.985  10.808 -0.5332  1.6630 -0.5403
 1666TIP3    H226490   2.991   4.075  10.921  0.2461  2.0422 -0.5183
 1667TIP3   OH226491   2.620   6.391   0.459  0.4383  0.3084  0.2346
 1667TIP3    H126492   2.653   6.465   0.407  0.6678  0.7057  0.9373
 1667TIP3    H226493   2.556   6.349   0.402 -1.2530  2.2619  0.5614
 1668TIP3   OH226494   0.149   4.285  10.218 -0.0605  0.1430 -0.0914
 1668TIP3    H126495   0.054   4.285  10.211 -0.2219  0.6566  1.7154
 1668TIP3    H226496   0.169   4.354  10.280  1.5347  0.2399 -0.6602
 1669TIP3   OH226497   6.307   3.403  11.681  0.2503 -0.2402 -0.3384
 1669TIP3    H126498   6.249   3.476  11.659 -1.3758 -1.6209 -0.8548
 1669TIP3    H226499   6.394   3.441  11.683 -0.7367  2.1834  1.5600
 1670TIP3   OH226500   0.113   3.275  11.126 -0.8035 -0.8865  0.0483
 1670TIP3    H126501   0.084   3.227  11.048 -1.5465  0.6762 -0.6918
 1670TIP3    H226502   0.054   3.350  11.131  1.0137  0.5882  0.4822
 1671TIP3   OH226503   1.613   3.932  11.606  0.0217  0.2209  0.3499
 1671TIP3    H126504   1.621   3.873  11.681 -0.5985 -1.1267 -0.5963
 1671TIP3    H226505   1.682   3.903  11.545  0.0996  0.8755  0.1170
 1672TIP3   OH226506   4.570   6.819  13.087 -0.4867  0.4658  0.1304
 1672TIP3    H126507   4.633   6.795  13.019 -2.3208  0.5239 -1.6981
 1672TIP3    H226508   4.491   6.769  13.065 -1.8630  2.2093  0.8603
 1673TIP3   OH226509   4.595   5.947  12.583 -0.2739  0.7694 -1.1730
 1673TIP3    H126510   4.619   6.026  12.535  1.2386  0.2583 -1.2886
 1673TIP3    H226511   4.560   5.979  12.666 -0.8245  1.5831 -1.6928
 1674TIP3   OH226512   2.928   3.543  11.355 -0.1167 -0.6327 -0.1896
 1674TIP3    H126513   2.999   3.479  11.352 -0.9411 -1.5418 -0.5580
 1674TIP3    H226514   2.955   3.613  11.295  0.7728 -0.6325  0.1978
 1675TIP3   OH226515   3.038   7.064  11.282 -0.1983 -0.5287  0.0301
 1675TIP3    H126516   2.995   7.071  11.197 -1.0460 -0.4308  0.4608
 1675TIP3    H226517   2.967   7.069  11.346  0.4132 -0.7496  0.7440
 1676TIP3   OH226518   0.552   4.133   9.988  0.1131 -0.0825  0.0704
 1676TIP3    H126519   0.471   4.180   9.966  0.2072 -0.3774 -0.9529
 1676TIP3    H226520   0.522   4.049  10.022 -0.0319  0.3066  0.9244
 1677TIP3   OH226521   4.506   0.014  11.109 -0.2443 -0.1500  0.0390
 1677TIP3    H126522   4.585   0.051  11.068 -1.0984 -0.2513 -1.7733
 1677TIP3    H226523   4.538  -0.062  11.157  0.9059  0.3911  0.1760
 1678TIP3   OH226524   5.932   4.630  10.041  0.3174  0.1565 -0.5937
 1678TIP3    H126525   5.930   4.559   9.977  0.2007 -0.1848 -0.2148
 1678TIP3    H226526   5.934   4.586  10.126  0.5657  0.6043 -0.3612
 1679TIP3   OH226527   2.645   6.240  10.071 -0.1032  0.5978  0.3253
 1679TIP3    H126528   2.607   6.327  10.076 -2.0839 -0.2537  0.8922
 1679TIP3    H226529   2.719   6.250  10.011 -0.3236  2.6309  0.3245
 1680TIP3   OH226530   5.638   1.511  10.131  0.2683  0.1442 -0.0548
 1680TIP3    H126531   5.620   1.474  10.218 -4.7222 -1.9633 -1.5762
 1680TIP3    H226532   5.709   1.458  10.096  0.8216 -0.4803  1.9112
 1681TIP3   OH226533   1.952   0.752  10.562 -0.3173 -0.7987 -0.0552
 1681TIP3    H126534   2.035   0.762  10.516 -2.0325  0.2668 -3.1680
 1681TIP3    H226535   1.929   0.660  10.551 -0.0588 -0.8598 -0.0845
 1682TIP3   OH226536   2.313   6.014  14.545 -0.3188  0.3711  0.0696
 1682TIP3    H126537   2.280   6.088  14.493  2.1127  0.9695 -0.7734
 1682TIP3    H226538   2.388   5.981  14.494  0.2570 -0.9985  1.7202
 1683TIP3   OH226539   0.294   0.568   0.697 -0.0679 -0.5442  0.3435
 1683TIP3    H126540   0.331   0.656   0.699  0.2661 -0.6705 -0.1186
 1683TIP3    H226541   0.368   0.511   0.677  0.1281 -1.1609  2.5812
 1684TIP3   OH226542   5.365   3.523   9.432  0.2396  0.1376 -0.2118
 1684TIP3    H126543   5.282   3.478   9.448  0.8405 -0.6055  0.9371
 1684TIP3    H226544   5.342   3.616   9.430 -0.7527 -0.1130 -0.8439
 1685TIP3   OH226545   6.382   4.015   0.120 -0.1114  0.0344  0.0045
 1685TIP3    H126546   6.421   3.952   0.059  0.3001  1.0167 -0.7881
 1685TIP3    H226547   6.427   4.000   0.203  0.4282 -0.2774 -0.3429
 1686TIP3   OH226548   3.331   3.284   9.311  0.2039 -0.1654  0.1548
 1686TIP3    H126549   3.286   3.363   9.281  1.5567 -0.1005 -1.9478
 1686TIP3    H226550   3.264   3.236   9.360 -1.1987  1.4015 -0.1267
 1687TIP3   OH226551   4.348   5.305  10.761  0.4739  0.4032  0.1629
 1687TIP3    H126552   4.405   5.377  10.736 -0.0996  2.0276  3.0841
 1687TIP3    H226553   4.365   5.237  10.696  2.0346  2.6283 -1.9425
 1688TIP3   OH226554   4.471   0.805  13.493  0.1110  0.3231 -0.3459
 1688TIP3    H126555   4.461   0.787  13.399  0.6646  2.4544 -0.8776
 1688TIP3    H226556   4.513   0.727  13.528 -0.4351 -0.6630 -1.8020
 1689TIP3   OH226557   6.359   1.310   4.026 -0.3347 -0.1743  0.5328
 1689TIP3    H126558   6.433   1.260   4.059 -1.1288 -1.6728  0.0963
 1689TIP3    H226559   6.384   1.402   4.043  1.9696 -0.5647 -0.3456
 1690TIP3   OH226560   4.939   1.860   2.185 -0.2204  0.4381  0.4330
 1690TIP3    H126561   5.014   1.808   2.154 -2.4402 -3.4287  0.8407
 1690TIP3    H226562   4.888   1.878   2.106 -1.3477 -1.4932  0.6627
 1691TIP3   OH226563   3.148   0.782  13.586  0.6639 -0.1187 -0.2952
 1691TIP3    H126564   3.150   0.700  13.635  0.5404 -0.5241 -0.9491
 1691TIP3    H226565   3.059   0.816  13.598  0.0499 -1.1267 -1.6667
 1692TIP3   OH226566   5.033   3.362   9.815  0.2942  0.1681  0.1985
 1692TIP3    H126567   5.103   3.410   9.770 -0.9382  0.8740 -1.0119
 1692TIP3    H226568   4.969   3.343   9.747 -0.2629 -1.3308  1.0995
 1693TIP3   OH226569   0.786   4.999  10.509  0.2670  0.2461  0.2393
 1693TIP3    H126570   0.711   5.043  10.469 -0.6060 -0.5842  0.9162
 1693TIP3    H226571   0.810   4.931  10.446 -0.6532 -0.5934  0.7536
 1694TIP3   OH226572   2.429   5.104  13.167  0.2012 -0.4012  0.0590
 1694TIP3    H126573   2.466   5.134  13.084 -1.1209  0.5450 -0.2132
 1694TIP3    H226574   2.501   5.056  13.209  0.5285 -1.9575 -2.1447
 1695TIP3   OH226575   1.184   3.522  12.915  0.2179  0.0271 -1.0778
 1695TIP3    H126576   1.273   3.518  12.949  0.6883 -0.7190 -2.3095
 1695TIP3    H226577   1.134   3.463  12.971  0.2076  1.3282  0.3468
 1696TIP3   OH226578   0.654   3.359  10.754 -0.3502 -0.3927 -0.3829
 1696TIP3    H126579   0.699   3.378  10.671  0.1271  0.6471  0.1110
 1696TIP3    H226580   0.568   3.326  10.727  0.4433 -1.7841 -1.3261
 1697TIP3   OH226581   3.015   0.248  11.282  0.5257  0.2639  0.1802
 1697TIP3    H126582   3.098   0.208  11.310  0.2666 -1.0306 -0.7762
 1697TIP3    H226583   3.003   0.323  11.341  1.7854 -0.2111  1.0939
 1698TIP3   OH226584   3.999   4.197   9.806 -0.7231 -0.5432 -0.9059
 1698TIP3    H126585   4.061   4.238   9.745  2.1100 -2.0078  0.7939
 1698TIP3    H226586   3.996   4.105   9.779  0.6403 -1.2390  1.1223
 1699TIP3   OH226587   7.023   1.687  11.524  0.1366  0.2348  0.2492
 1699TIP3    H126588   7.067   1.658  11.444  1.9569 -0.7354  1.5374
 1699TIP3    H226589   7.091   1.728  11.576 -1.0149  0.8397  1.3390
 1700TIP3   OH226590   0.395   2.057  14.335 -0.5641  0.4347 -0.2676
 1700TIP3    H126591   0.359   2.138  14.372 -1.2669  0.1122 -0.2321
 1700TIP3    H226592   0.338   1.988  14.369  0.6229 -0.1862  0.4978
 1701TIP3   OH226593   7.173   5.562   0.616 -0.0509 -0.2737 -0.4209
 1701TIP3    H126594   7.213   5.621   0.552 -0.6343  0.2336 -0.3165
 1701TIP3    H226595   7.214   5.477   0.598 -1.3668 -0.5345 -2.5794
 1702TIP3   OH226596   3.894   1.053  10.363  0.5840 -0.0920  0.6486
 1702TIP3    H126597   3.923   1.019  10.447  2.3659  2.1263  1.0349
 1702TIP3    H226598   3.843   1.131  10.385 -0.2366 -0.3356 -0.3082
 1703TIP3   OH226599   2.407   2.763   9.849  0.2432  0.4603 -0.3078
 1703TIP3    H126600   2.485   2.712   9.871 -0.6796 -0.3205  1.3583
 1703TIP3    H226601   2.362   2.776   9.933 -1.2197  1.2511 -1.1582
 1704TIP3   OH226602   0.040   3.481  11.658  0.4471 -0.2060  0.3954
 1704TIP3    H126603   0.121   3.503  11.704 -0.0007 -1.1946  1.7213
 1704TIP3    H226604   0.048   3.387  11.639 -0.7045 -0.5102  1.2756
 1705TIP3   OH226605   3.063   3.555  12.836 -0.2780  0.1967  0.8530
 1705TIP3    H126606   3.036   3.640  12.869  1.3930  1.6808 -1.3568
 1705TIP3    H226607   3.053   3.561  12.741  0.1910 -1.9695  0.6052
 1706TIP3   OH226608   0.003   3.927  12.675 -0.2727  0.1730 -0.3938
 1706TIP3    H126609  -0.021   3.850  12.727 -0.8181 -0.2055 -1.1750
 1706TIP3    H226610  -0.075   3.944  12.621 -0.5462  1.8916  0.4683
 1707TIP3   OH226611   2.436   7.011  11.034 -0.1681  0.7336  0.1543
 1707TIP3    H126612   2.497   6.937  11.026 -0.0574  0.9177 -0.7693
 1707TIP3    H226613   2.490   7.089  11.018 -0.7531  0.8634 -1.3121
 1708TIP3   OH226614   4.116   5.539  12.399 -0.3661 -0.1467 -0.3604
 1708TIP3    H126615   4.085   5.478  12.332 -0.2435  0.0496 -0.5978
 1708TIP3    H226616   4.074   5.622  12.377 -0.0442  0.0066 -0.4056
 1709TIP3   OH226617   0.501   5.671   1.285  1.3968 -0.8030 -0.3671
 1709TIP3    H126618   0.521   5.635   1.371  2.4982 -1.8003 -1.0085
 1709TIP3    H226619   0.551   5.752   1.280  0.1634  0.0448  0.4709
 1710TIP3   OH226620   5.523   2.342  11.123  0.2555 -0.3186 -0.0495
 1710TIP3    H126621   5.608   2.319  11.163  0.8030  0.5454 -0.6867
 1710TIP3    H226622   5.491   2.416  11.175  1.3164  1.2978 -1.5642
 1711TIP3   OH226623   4.797   5.708  11.613  0.0248 -0.6762 -0.1299
 1711TIP3    H126624   4.741   5.663  11.677 -1.0832  1.8856  0.8530
 1711TIP3    H226625   4.868   5.745  11.665  0.5051 -0.6596 -0.7874
 1712TIP3   OH226626   6.232   4.215   9.909 -0.5011  0.3728  0.2026
 1712TIP3    H126627   6.238   4.302   9.947 -0.0261  1.0539 -1.3505
 1712TIP3    H226628   6.181   4.227   9.829  1.3734 -0.3226 -1.1882
 1713TIP3   OH226629   1.999   1.267  12.691  0.0992  0.1565 -0.0665
 1713TIP3    H126630   2.056   1.192  12.671 -1.3455 -1.1516  0.5230
 1713TIP3    H226631   2.016   1.284  12.784 -0.1540  0.0399  0.0009
 1714TIP3   OH226632   3.637   1.357  15.286 -0.2849  0.1386  0.5529
 1714TIP3    H126633   3.619   1.451  15.296 -0.7581  0.0562  0.5029
 1714TIP3    H226634   3.727   1.347  15.317 -0.0565  0.6891  0.0956
 1715TIP3   OH226635   0.174   3.894  10.027 -0.1451  0.1776 -0.0322
 1715TIP3    H126636   0.174   3.799  10.042 -0.2340  0.0476 -0.8415
 1715TIP3    H226637   0.231   3.907   9.952  0.2846  0.8265  0.4001
 1716TIP3   OH226638   5.316   5.663  10.642 -0.2336  0.5048  0.1219
 1716TIP3    H126639   5.227   5.678  10.611  0.5491 -0.4355 -2.8548
 1716TIP3    H226640   5.311   5.578  10.687 -0.7361  0.1771 -0.5281
 1717TIP3   OH226641   3.699   6.199   0.342  0.0711  0.4036 -0.3837
 1717TIP3    H126642   3.638   6.247   0.398  1.9043  0.7173  1.4555
 1717TIP3    H226643   3.658   6.201   0.256 -1.6378  2.1481  0.3861
 1718TIP3   OH226644   4.133   4.429  10.872 -0.0488 -0.3407 -0.0290
 1718TIP3    H126645   4.175   4.356  10.918  0.4161  0.2032  0.4171
 1718TIP3    H226646   4.107   4.489  10.941  0.6580  0.4890 -0.4690
 1719TIP3   OH226647   0.547   4.856  11.006  0.2055  0.1895  0.3026
 1719TIP3    H126648   0.520   4.936  11.052 -1.0030 -0.6460  1.1159
 1719TIP3    H226649   0.549   4.881  10.914 -1.5688  0.8020  0.3975
 1720TIP3   OH226650   3.390   1.642  10.400 -0.9173  0.2800 -0.1040
 1720TIP3    H126651   3.376   1.735  10.417  1.0221  0.5551  0.2511
 1720TIP3    H226652   3.307   1.600  10.425 -1.9145  1.9129 -0.5217
 1721TIP3   OH226653   1.017   7.000   0.978 -0.6519 -0.5632  0.2174
 1721TIP3    H126654   1.036   7.020   0.887 -0.7328  1.6969  0.6393
 1721TIP3    H226655   1.083   6.935   1.002  0.6130  0.2219 -0.9532
 1722TIP3   OH226656   7.194   1.999   1.155 -0.7197  0.7098 -0.0904
 1722TIP3    H126657   7.192   1.944   1.077 -1.6092  0.4680  0.0921
 1722TIP3    H226658   7.112   2.048   1.152 -1.3353 -0.1547  1.2692
 1723TIP3   OH226659   0.293   0.639  13.916 -0.1637 -0.1969  0.1367
 1723TIP3    H126660   0.253   0.578  13.854 -1.4761  0.5731  0.1930
 1723TIP3    H226661   0.381   0.604  13.930  0.5976  0.1713 -2.9486
 1724TIP3   OH226662   2.298   6.715  12.103 -0.4012 -0.0908  0.0371
 1724TIP3    H126663   2.223   6.772  12.086 -0.2570 -0.6183 -2.9852
 1724TIP3    H226664   2.374   6.769  12.081 -0.1215 -0.6436 -0.3658
 1725TIP3   OH226665   5.053   7.203  14.695  0.1429  0.0207  0.4729
 1725TIP3    H126666   5.105   7.123  14.693 -0.4220 -0.3698  0.9651
 1725TIP3    H226667   4.966   7.177  14.663  0.2987  0.7102 -0.5632
 1726TIP3   OH226668   3.571   3.664  11.179 -0.6084  0.4220 -0.1523
 1726TIP3    H126669   3.599   3.708  11.098 -0.2296 -0.8419 -0.7328
 1726TIP3    H226670   3.478   3.646  11.165 -1.1101  2.2171  0.6570
 1727TIP3   OH226671   4.173   5.503  11.752  0.5153 -0.4580  0.5762
 1727TIP3    H126672   4.222   5.554  11.817  0.1484  1.4389 -0.5316
 1727TIP3    H226673   4.237   5.486  11.682 -0.1835  1.7645 -0.7337
 1728TIP3   OH226674   0.707   1.814  12.824 -0.0431 -0.8770  0.2359
 1728TIP3    H126675   0.706   1.806  12.728  0.4587 -0.9371  0.2323
 1728TIP3    H226676   0.629   1.767  12.852 -1.1982  0.6746 -0.2486
 1729TIP3   OH226677   1.001   5.511  12.497 -0.2431 -0.2592  0.1666
 1729TIP3    H126678   0.973   5.422  12.477 -1.2261  0.3545 -1.2911
 1729TIP3    H226679   0.947   5.567  12.442 -1.4610  1.4417  2.8431
 1730TIP3   OH226680   3.694   0.927  10.045 -0.5787  0.4127 -0.3993
 1730TIP3    H126681   3.659   0.988   9.980 -2.0331 -1.4846 -1.4804
 1730TIP3    H226682   3.713   0.848   9.996  1.6949  0.0709  0.8889
 1731TIP3   OH226683   4.134   4.450   0.492 -0.4471  0.0507  0.7704
 1731TIP3    H126684   4.137   4.541   0.519 -4.1976 -0.0662  2.2361
 1731TIP3    H226685   4.135   4.401   0.574 -0.4352 -1.1029  0.1075
 1732TIP3   OH226686   5.725   6.967   2.576  0.0463  0.0802 -0.2694
 1732TIP3    H126687   5.773   7.048   2.556 -0.2880  0.4170  0.2477
 1732TIP3    H226688   5.786   6.916   2.629  0.9450 -0.8308 -2.1137
 1733TIP3   OH226689   4.408   1.453  10.974 -0.9360 -0.2378 -0.0621
 1733TIP3    H126690   4.402   1.364  11.008 -2.7363 -0.2499 -0.3369
 1733TIP3    H226691   4.384   1.446  10.882  0.8156  0.2737 -0.6047
 1734TIP3   OH226692   3.113   6.370  11.624 -0.0296  0.1410  0.9912
 1734TIP3    H126693   3.092   6.462  11.607  0.6192  0.0776 -0.2529
 1734TIP3    H226694   3.145   6.369  11.714  2.4126  1.5820  0.2298
 1735TIP3   OH226695   0.789   2.240  13.752 -0.3409  0.1848 -0.1770
 1735TIP3    H126696   0.871   2.206  13.716  1.0842  1.3787  1.7387
 1735TIP3    H226697   0.776   2.323  13.706 -0.2834  0.1511 -0.2545
 1736TIP3   OH226698   3.773   4.036  12.420 -0.1193 -0.3826 -0.5719
 1736TIP3    H126699   3.781   3.956  12.367  0.5627 -0.5457 -0.2420
 1736TIP3    H226700   3.680   4.057  12.418 -0.7648 -2.5688  1.2768
 1737TIP3   OH226701   6.977   0.731  12.695 -0.1629 -0.7071 -0.1835
 1737TIP3    H126702   7.009   0.789  12.626 -1.6520  0.7857  0.3049
 1737TIP3    H226703   6.894   0.698  12.661  0.7699 -2.8481 -0.5606
 1738TIP3   OH226704   2.013   4.793   9.665  0.5246  0.2000  0.1796
 1738TIP3    H126705   2.053   4.878   9.648 -0.3661  0.6765  0.3986
 1738TIP3    H226706   2.032   4.775   9.757 -0.3740  0.7718  0.4879
 1739TIP3   OH226707   5.998   5.432  14.976 -0.1631  0.0638 -0.2532
 1739TIP3    H126708   6.088   5.409  14.951 -0.3420 -1.9156  0.6983
 1739TIP3    H226709   5.960   5.469  14.897  0.9181 -0.8828 -1.2726
 1740TIP3   OH226710   4.761   2.037  12.555 -0.1677  0.0521  0.2395
 1740TIP3    H126711   4.684   2.076  12.596 -1.3998  0.2077 -2.0224
 1740TIP3    H226712   4.726   1.965  12.503  1.3473 -0.4546 -0.1201
 1741TIP3   OH226713   2.716   4.950  10.585 -0.0595  0.5123  0.5503
 1741TIP3    H126714   2.734   4.997  10.504  0.0769 -0.0902  0.2280
 1741TIP3    H226715   2.629   4.912  10.572  0.5517 -0.7784  0.1123
 1742TIP3   OH226716   4.092   2.482  15.155  0.4310 -0.1441 -0.0863
 1742TIP3    H126717   4.071   2.549  15.090  0.2545 -1.6058 -1.5884
 1742TIP3    H226718   4.085   2.528  15.239 -0.7147  1.4429 -0.9938
 1743TIP3   OH226719   1.363   2.265   0.936  0.1033  0.5959 -0.1453
 1743TIP3    H126720   1.441   2.230   0.980 -1.0556  0.0456  1.5802
 1743TIP3    H226721   1.312   2.305   1.007 -1.5415  0.2533 -1.0882
 1744TIP3   OH226722   1.324   6.979   0.107  0.2718 -0.0271  0.6172
 1744TIP3    H126723   1.382   7.055   0.112 -0.2320  0.4060  0.0315
 1744TIP3    H226724   1.356   6.929   0.032 -0.9532  0.9451 -0.5919
 1745TIP3   OH226725   2.209   1.380  12.206 -0.0780  0.3804  0.1345
 1745TIP3    H126726   2.187   1.319  12.136 -0.7450 -0.1317  0.7716
 1745TIP3    H226727   2.169   1.342  12.284 -0.1871  1.4444  0.6119
 1746TIP3   OH226728   1.339   1.650  11.853  0.0997  0.7558 -0.3592
 1746TIP3    H126729   1.294   1.577  11.810 -0.3915  2.1357 -2.3337
 1746TIP3    H226730   1.324   1.725  11.795  2.2892  1.9870  0.5600
 1747TIP3   OH226731   6.023   6.965   9.581 -0.2689 -0.1204 -0.5663
 1747TIP3    H126732   6.000   6.988   9.671  0.1240 -0.9593 -0.2432
 1747TIP3    H226733   6.088   7.030   9.556  0.3239 -0.4435  0.0970
 1748TIP3   OH226734   5.559   6.437   2.013 -0.2571 -0.1969 -0.4412
 1748TIP3    H126735   5.609   6.461   1.935  0.1153  0.0656 -0.1252
 1748TIP3    H226736   5.623   6.396   2.072 -0.6607 -0.9884 -0.5263
 1749TIP3   OH226737   3.461   3.715  12.398 -0.0242  0.2215 -0.1971
 1749TIP3    H126738   3.409   3.785  12.438 -0.5796  0.5055 -1.3854
 1749TIP3    H226739   3.520   3.687  12.468 -1.5044  0.1505  1.0768
 1750TIP3   OH226740   5.831   6.596  13.202  0.0367  0.4685 -0.3930
 1750TIP3    H126741   5.900   6.560  13.259  0.5145 -0.0806 -1.2901
 1750TIP3    H226742   5.757   6.537  13.215 -1.1463  2.3814  2.3580
 1751TIP3   OH226743   0.522   3.184  10.138  0.0171  0.9662 -0.2872
 1751TIP3    H126744   0.470   3.264  10.141 -0.5262  0.6079  0.0924
 1751TIP3    H226745   0.491   3.137  10.061  0.9966  1.5480 -1.0596
 1752TIP3   OH226746   3.544   2.953  10.353  0.0799 -0.3113  0.7965
 1752TIP3    H126747   3.535   2.990  10.441  1.8696 -1.1509  1.3812
 1752TIP3    H226748   3.590   3.020  10.303 -1.4922  0.4280  0.2768
 1753TIP3   OH226749   7.219   4.144  11.078 -0.0522  0.4350  0.5821
 1753TIP3    H126750   7.274   4.105  11.146  1.0381 -0.7800 -0.9314
 1753TIP3    H226751   7.210   4.076  11.012  0.9901  2.3313 -1.6728
 1754TIP3   OH226752   0.101   6.259   9.456 -0.2298 -0.0855 -0.0477
 1754TIP3    H126753   0.091   6.170   9.490  5.4386 -1.6405 -1.4127
 1754TIP3    H226754   0.131   6.310   9.531 -0.3349 -0.1468  0.0364
 1755TIP3   OH226755   0.385   4.108   0.430  0.5008 -0.1672 -0.0257
 1755TIP3    H126756   0.412   4.048   0.361 -1.2435 -0.8607 -0.1509
 1755TIP3    H226757   0.356   4.187   0.384  0.1486 -0.2987 -0.0271
 1756TIP3   OH226758   2.418   2.013   0.717 -0.0735  0.4308  0.0801
 1756TIP3    H126759   2.337   1.971   0.746  0.5173 -1.3107 -0.6665
 1756TIP3    H226760   2.397   2.106   0.715 -1.7022  0.1238  0.9836
 1757TIP3   OH226761   0.907   7.002   0.371  0.0313  0.4590 -0.5917
 1757TIP3    H126762   0.900   7.089   0.410 -1.9510  1.0651 -2.1177
 1757TIP3    H226763   0.963   7.015   0.295  2.0892 -0.2577  0.7361
 1758TIP3   OH226764   3.196   5.379  13.711 -0.4841 -0.4797  0.4689
 1758TIP3    H126765   3.123   5.344  13.762 -0.7822 -0.8843 -0.2179
 1758TIP3    H226766   3.174   5.356  13.620 -0.1034  0.4727  0.1329
 1759TIP3   OH226767   7.055   2.384  10.955 -0.1068 -0.1396  0.7746
 1759TIP3    H126768   7.140   2.411  10.920  0.0266 -0.3238  0.9533
 1759TIP3    H226769   6.991   2.427  10.898  0.1049 -1.2491 -0.3708
 1760TIP3   OH226770   6.224   1.104  12.784  0.1567 -0.6418  0.1563
 1760TIP3    H126771   6.190   1.175  12.837 -3.2134 -2.8350  1.3144
 1760TIP3    H226772   6.215   1.135  12.694 -0.3486  0.7206  0.6546
 1761TIP3   OH226773   1.799   2.193  10.457 -0.9981  0.0865  0.2998
 1761TIP3    H126774   1.772   2.252  10.528  0.9042 -0.3682  1.5089
 1761TIP3    H226775   1.732   2.202  10.390 -3.7036 -0.5539  2.7472
 1762TIP3   OH226776   6.625   6.930   0.599 -0.0786 -0.2131 -0.1506
 1762TIP3    H126777   6.614   7.003   0.660 -0.8898 -0.1151 -0.3931
 1762TIP3    H226778   6.559   6.866   0.626 -0.5529 -0.0999 -1.0098
 1763TIP3   OH226779   0.152   6.561  14.184  0.1253  0.6434  0.6601
 1763TIP3    H126780   0.179   6.497  14.118 -0.6768  0.5164  0.4466
 1763TIP3    H226781   0.178   6.523  14.267 -0.3237  0.0435  0.5344
 1764TIP3   OH226782   5.236   5.483  11.172 -0.0190  0.0106  0.1854
 1764TIP3    H126783   5.186   5.555  11.132  0.2535 -1.1283 -2.3846
 1764TIP3    H226784   5.294   5.527  11.234 -1.9129  1.6849  0.9158
 1765TIP3   OH226785   2.152   2.156  12.902  0.3019  0.2849 -0.4861
 1765TIP3    H126786   2.151   2.229  12.840  1.6763  2.1989  1.6092
 1765TIP3    H226787   2.245   2.134  12.911  0.0421 -0.5661  0.2210
 1766TIP3   OH226788   2.315   4.359  13.103 -0.0514  0.4176 -0.2845
 1766TIP3    H126789   2.256   4.309  13.159 -0.6973  1.3854 -0.0884
 1766TIP3    H226790   2.400   4.353  13.147 -0.8949  2.7133  1.8737
 1767TIP3   OH226791   4.601   2.375  10.386 -0.0157 -0.3145  0.1400
 1767TIP3    H126792   4.550   2.328  10.321 -1.3543  0.5432  0.5397
 1767TIP3    H226793   4.554   2.363  10.468 -0.9370  2.3970  0.1081
 1768TIP3   OH226794   2.378   4.267   9.908 -0.2273  0.0153 -0.3144
 1768TIP3    H126795   2.376   4.239   9.817  0.4619  1.8971 -0.9395
 1768TIP3    H226796   2.444   4.210   9.949  0.1547 -0.2108 -1.2198
 1769TIP3   OH226797   4.525   1.289  14.514 -0.5600  0.1614 -0.3060
 1769TIP3    H126798   4.457   1.335  14.564 -0.2259  0.2281  0.0885
 1769TIP3    H226799   4.480   1.259  14.435 -0.9604  0.5252 -0.2189
 1770TIP3   OH226800   1.326   3.289  14.756 -0.7572 -0.7722 -0.3422
 1770TIP3    H126801   1.233   3.311  14.754 -1.1974 -2.5585 -1.5022
 1770TIP3    H226802   1.357   3.310  14.668  0.6501  2.3288  0.7388
 1771TIP3   OH226803   0.234   6.523  10.566 -0.1385  0.3759 -0.3958
 1771TIP3    H126804   0.291   6.446  10.564 -0.4723  0.1209 -0.2053
 1771TIP3    H226805   0.146   6.488  10.552 -0.2568  0.7588 -0.6178
 1772TIP3   OH226806   4.654   4.184  11.858 -0.0833 -0.2030 -0.3276
 1772TIP3    H126807   4.723   4.232  11.904  0.2483  1.1138 -2.1123
 1772TIP3    H226808   4.591   4.251  11.833 -0.9667 -1.1072 -0.5551
 1773TIP3   OH226809   5.391   4.417  13.432 -0.3668 -0.2979 -0.4396
 1773TIP3    H126810   5.343   4.335  13.440 -0.3074 -0.2504  0.4879
 1773TIP3    H226811   5.338   4.470  13.372 -1.3684 -0.3445  0.3663
 1774TIP3   OH226812   2.180   0.980  13.695  0.1952  0.2839  0.1141
 1774TIP3    H126813   2.263   0.947  13.729  0.7895  1.5356 -0.0848
 1774TIP3    H226814   2.181   1.073  13.714 -2.4061 -0.0548  2.5904
 1775TIP3   OH226815   2.160   6.172  12.418 -0.6816 -0.1471 -0.3477
 1775TIP3    H126816   2.146   6.224  12.339  2.0855  2.8082  0.8912
 1775TIP3    H226817   2.090   6.201  12.478 -0.0843  1.0596 -0.2065
 1776TIP3   OH226818   0.429   6.674  14.200  0.0803  0.4857 -0.3516
 1776TIP3    H126819   0.433   6.676  14.105 -0.0002 -0.2999 -0.3793
 1776TIP3    H226820   0.395   6.587  14.221  0.7992  0.3768  0.4205
 1777TIP3   OH226821   4.010   2.595  13.956  0.4633 -0.0014  0.1663
 1777TIP3    H126822   4.060   2.516  13.977 -1.5503 -1.2267  0.6649
 1777TIP3    H226823   3.989   2.633  14.041 -1.0724 -0.6132  0.0939
 1778TIP3   OH226824   3.771   0.488  11.486 -0.4604 -0.0994  0.1145
 1778TIP3    H126825   3.788   0.429  11.412  0.4966 -0.1505  0.3664
 1778TIP3    H226826   3.753   0.429  11.560 -1.3246 -0.0487 -0.0427
 1779TIP3   OH226827   6.296   6.735   1.434 -0.5226  0.1252  0.0702
 1779TIP3    H126828   6.315   6.641   1.434  2.1366  0.5650 -0.3010
 1779TIP3    H226829   6.245   6.750   1.355 -0.7151 -0.9742 -0.0190
 1780TIP3   OH226830   6.911   5.895  12.561  0.0881  0.3021 -0.5189
 1780TIP3    H126831   6.934   5.857  12.645  0.9977  2.9784  0.5633
 1780TIP3    H226832   6.816   5.897  12.560  0.0466 -0.8491 -0.1242
 1781TIP3   OH226833   2.477   4.008   9.993  0.0635  0.4585 -0.3268
 1781TIP3    H126834   2.417   3.939   9.967  0.8845  0.3945 -2.2183
 1781TIP3    H226835   2.553   3.963  10.029 -0.7253  0.5247  1.5383
 1782TIP3   OH226836   0.231   5.489  11.151  0.0407  0.3243 -0.3026
 1782TIP3    H126837   0.251   5.405  11.110 -1.1637  0.6958 -1.7794
 1782TIP3    H226838   0.260   5.554  11.087  1.5961  1.1018  1.1136
 1783TIP3   OH226839   5.449   2.546   9.436  0.0978  0.1875 -0.3528
 1783TIP3    H126840   5.357   2.521   9.447  0.1158 -0.0528 -0.7203
 1783TIP3    H226841   5.446   2.632   9.393  0.0382 -0.5968 -2.0067
 1784TIP3   OH226842   0.083   0.774   3.106 -0.1786  0.0781 -0.5438
 1784TIP3    H126843   0.051   0.822   3.183  0.1764  1.0745 -1.0083
 1784TIP3    H226844   0.173   0.750   3.129 -0.3075 -0.2480 -0.3708
 1785TIP3   OH226845   3.217   1.300   0.741  0.0507  0.2036  0.1087
 1785TIP3    H126846   3.186   1.391   0.744 -0.6557  0.0011 -0.6001
 1785TIP3    H226847   3.283   1.300   0.672  2.4052  0.8324  2.2268
 1786TIP3   OH226848   6.516   5.344  11.337  0.5221  0.4605  0.5035
 1786TIP3    H126849   6.527   5.281  11.408  0.5662  0.5803  0.6031
 1786TIP3    H226850   6.605   5.355  11.302  0.4822  0.3113  0.3515
 1787TIP3   OH226851   4.991   2.139  11.900 -0.1548 -0.1932 -0.1653
 1787TIP3    H126852   4.900   2.126  11.874  0.6985 -3.4728 -2.0444
 1787TIP3    H226853   5.007   2.072  11.966  0.2591  2.1724  2.3213
 1788TIP3   OH226854   2.488   4.416   0.615 -0.0319 -0.3538  0.1043
 1788TIP3    H126855   2.493   4.486   0.680 -0.6553 -2.0715  2.1299
 1788TIP3    H226856   2.551   4.441   0.548  2.1831  0.5568  2.3614
 1789TIP3   OH226857   1.871   3.494  10.301  0.1138  0.7432 -0.7147
 1789TIP3    H126858   1.883   3.399  10.311 -0.5621  0.6690 -0.5703
 1789TIP3    H226859   1.817   3.519  10.377  1.0139  1.3872 -0.2687
 1790TIP3   OH226860   1.529   4.895  10.017 -0.3846 -0.2129 -0.6596
 1790TIP3    H126861   1.485   4.964   9.969  1.0592  1.4712  0.3133
 1790TIP3    H226862   1.616   4.890   9.976  0.3542  0.2476  0.7906
 1791TIP3   OH226863   5.349   5.113  10.887  0.1661 -0.0448 -0.1253
 1791TIP3    H126864   5.440   5.092  10.910  0.7713  2.2449 -0.2451
 1791TIP3    H226865   5.320   5.174  10.955 -1.4374 -0.9829  0.0958
 1792TIP3   OH226866   7.051   0.968  10.466 -0.0917  0.1628 -0.6061
 1792TIP3    H126867   7.092   0.896  10.514  0.3453  1.4007  0.9562
 1792TIP3    H226868   6.976   0.928  10.422 -0.5013 -1.0411  1.1033
 1793TIP3   OH226869   2.190   6.612   3.430 -0.0166  0.0339  0.2290
 1793TIP3    H126870   2.200   6.594   3.523 -1.5326  0.6982  0.5482
 1793TIP3    H226871   2.164   6.704   3.425  0.4234  0.1177 -0.8807
 1794TIP3   OH226872   6.973   0.666  14.625  0.5541 -0.7961  0.0423
 1794TIP3    H126873   7.064   0.675  14.652  1.5029 -0.3211 -2.8863
 1794TIP3    H226874   6.977   0.609  14.548 -1.5252 -0.2237 -0.5463
 1795TIP3   OH226875   1.581   4.448   1.874 -0.0885 -0.3177 -0.5558
 1795TIP3    H126876   1.525   4.500   1.933 -0.0684 -1.2609  0.3085
 1795TIP3    H226877   1.663   4.436   1.922  0.3235 -0.2114 -1.2134
 1796TIP3   OH226878   3.346   6.492  10.334 -0.2808 -0.1179 -1.3351
 1796TIP3    H126879   3.333   6.523  10.245 -1.4148 -0.7863 -1.4246
 1796TIP3    H226880   3.350   6.396  10.326 -0.1174 -0.1717 -0.7078
 1797TIP3   OH226881   6.908   1.341   9.565 -0.2039 -0.1125  0.1106
 1797TIP3    H126882   6.824   1.352   9.610 -0.1032  0.4874  0.1638
 1797TIP3    H226883   6.934   1.430   9.540  1.0192 -0.1160  1.2196
 1798TIP3   OH226884   6.262   5.179   1.512 -0.0140  0.3021  0.1060
 1798TIP3    H126885   6.245   5.263   1.555 -0.4752 -0.1963  0.9269
 1798TIP3    H226886   6.323   5.135   1.571 -2.7489 -1.5444  1.8110
 1799TIP3   OH226887   6.649   2.285  10.910  0.0799 -0.1180  0.0296
 1799TIP3    H126888   6.722   2.283  10.848 -0.1134 -0.4924 -0.1861
 1799TIP3    H226889   6.687   2.254  10.992 -0.1839 -1.8845 -0.4659
 1800TIP3   OH226890   0.084   1.583  14.283  0.1636 -0.1139  0.0036
 1800TIP3    H126891   0.028   1.542  14.218  1.3132 -2.3217  0.3328
 1800TIP3    H226892   0.026   1.643  14.330 -1.1665 -0.0515 -1.6338
 1801TIP3   OH226893   3.305   0.693  10.390 -0.1279  0.3150  0.3376
 1801TIP3    H126894   3.377   0.749  10.418  0.0546 -0.7685  2.2466
 1801TIP3    H226895   3.240   0.700  10.460 -0.5216 -1.0638  0.1523
 1802TIP3   OH226896   2.202   5.336  14.893 -0.4568 -0.7480 -0.0629
 1802TIP3    H126897   2.173   5.399  14.828 -2.1975 -1.7711 -0.3503
 1802TIP3    H226898   2.186   5.379  14.977  0.7129  0.1288 -0.2687
 1803TIP3   OH226899   2.212   7.142  10.909 -0.3002 -0.1343  0.0530
 1803TIP3    H126900   2.292   7.136  10.961 -1.3899 -0.9701  1.7423
 1803TIP3    H226901   2.144   7.162  10.973 -1.3419  1.5294 -1.4706
 1804TIP3   OH226902   7.216   0.524  13.373  0.1768  0.5265  0.3423
 1804TIP3    H126903   7.144   0.473  13.408  0.9250 -0.9598 -0.2100
 1804TIP3    H226904   7.178   0.574  13.301  0.1949 -2.3306 -1.7741
 1805TIP3   OH226905   4.791   5.089  10.903 -0.4307 -0.3621  0.0832
 1805TIP3    H126906   4.874   5.070  10.947 -0.0513 -0.0702 -0.4962
 1805TIP3    H226907   4.812   5.158  10.841 -1.3979  0.6697  0.8731
 1806TIP3   OH226908   7.148   2.464  12.899 -0.0932 -0.3313  0.1968
 1806TIP3    H126909   7.094   2.480  12.822  1.6536 -1.2607 -1.2986
 1806TIP3    H226910   7.085   2.458  12.971 -1.6495  2.4055 -0.7800
 1807TIP3   OH226911   4.019   0.462   2.661  0.1879  0.3833  0.1787
 1807TIP3    H126912   4.078   0.477   2.735  0.5868  0.3029 -0.1178
 1807TIP3    H226913   4.077   0.455   2.586 -0.0460 -1.6337  0.1491
 1808TIP3   OH226914   5.737   1.439  11.649  0.3666 -0.2318  0.5118
 1808TIP3    H126915   5.830   1.421  11.635  0.8015  1.9143  0.3711
 1808TIP3    H226916   5.694   1.354  11.632  2.1073 -0.8610 -1.2026
 1809TIP3   OH226917   6.808   2.522  11.830 -0.6854  0.1019  0.0667
 1809TIP3    H126918   6.776   2.444  11.876 -0.2406 -0.6247 -0.8108
 1809TIP3    H226919   6.899   2.502  11.810 -1.4980 -0.8984 -3.5613
 1810TIP3   OH226920   6.802   5.329  13.752  0.2085  0.1777 -0.3771
 1810TIP3    H126921   6.870   5.384  13.792  1.8419  0.1385 -2.8760
 1810TIP3    H226922   6.825   5.240  13.776  0.2178  0.2677 -0.0567
 1811TIP3   OH226923   5.767   6.870   9.939  0.2179 -0.1978 -0.0398
 1811TIP3    H126924   5.798   6.784   9.968 -1.6422 -0.6704  0.7167
 1811TIP3    H226925   5.676   6.855   9.915  0.3484  1.2281 -1.5851
 1812TIP3   OH226926   3.165   6.395  14.688  0.1681  0.2373 -0.8113
 1812TIP3    H126927   3.213   6.450  14.751  2.4468 -0.8217 -1.5202
 1812TIP3    H226928   3.233   6.349  14.640 -1.5236  0.4361 -3.5891
 1813TIP3   OH226929   2.306   1.636  12.501  0.3015  0.4016 -0.2983
 1813TIP3    H126930   2.385   1.647  12.448 -0.0063 -1.2197 -1.1822
 1813TIP3    H226931   2.320   1.554  12.548 -0.6338  0.3563 -0.0724
 1814TIP3   OH226932   2.499   6.827  10.203 -0.0110 -0.0159 -0.4725
 1814TIP3    H126933   2.496   6.843  10.109 -2.6421  0.8199 -0.3379
 1814TIP3    H226934   2.470   6.737  10.214  2.4146 -0.8515 -0.5312
 1815TIP3   OH226935   0.007   6.953   9.254  0.5154 -0.2130 -0.0452
 1815TIP3    H126936   0.067   6.974   9.326  0.6183  3.4530 -1.0055
 1815TIP3    H226937   0.063   6.932   9.180  0.4546 -1.3674  0.2161
 1816TIP3   OH226938   4.713   2.421  15.338 -0.3396  0.1114 -0.2197
 1816TIP3    H126939   4.710   2.500  15.392 -1.9820  0.9333 -1.4339
 1816TIP3    H226940   4.776   2.364  15.383 -2.1336  0.4166  3.0297
 1817TIP3   OH226941   6.438   5.564   9.762  0.0661 -0.5725 -0.4184
 1817TIP3    H126942   6.521   5.541   9.719  1.0132  0.8913  0.5424
 1817TIP3    H226943   6.391   5.617   9.698  0.1210 -0.9204 -0.7496
 1818TIP3   OH226944   2.123   5.973   0.982  0.1010 -0.6617  0.7567
 1818TIP3    H126945   2.203   6.005   1.026 -0.0509 -1.0733  1.3366
 1818TIP3    H226946   2.052   6.011   1.033 -0.0929  0.0686 -0.0221
 1819TIP3   OH226947   4.851   1.914  14.437 -0.0046  0.6224  0.8253
 1819TIP3    H126948   4.819   1.831  14.471 -1.5103  1.7131  2.1576
 1819TIP3    H226949   4.912   1.946  14.504  2.0943 -0.2411 -0.5511
 1820TIP3   OH226950   6.822   4.656  10.139 -0.0262 -0.2033  0.4640
 1820TIP3    H126951   6.792   4.576  10.183 -1.2510 -0.2950 -0.4720
 1820TIP3    H226952   6.917   4.646  10.132 -0.3025 -2.4136 -1.1829
 1821TIP3   OH226953   2.136   1.901   9.026  0.1184 -0.0207  0.1231
 1821TIP3    H126954   2.183   1.876   8.946 -0.8427  0.4835 -0.6130
 1821TIP3    H226955   2.093   1.820   9.054  1.0699 -0.3817  0.5631
 1822TIP3   OH226956   0.156   6.612  12.719 -0.7603 -0.0157  0.3092
 1822TIP3    H126957   0.073   6.580  12.683 -1.1009  0.2147  0.8791
 1822TIP3    H226958   0.187   6.539  12.773  0.8840 -1.2873 -2.1422
 1823TIP3   OH226959   2.312   1.745  11.193 -0.5960  0.6415  0.1206
 1823TIP3    H126960   2.368   1.813  11.230  0.4088  0.7182 -1.4236
 1823TIP3    H226961   2.232   1.790  11.168 -1.7889  0.3879  3.0757
 1824TIP3   OH226962   2.206   5.300  10.282 -0.0075  0.3742  0.2342
 1824TIP3    H126963   2.223   5.216  10.324 -1.4393  0.6882  1.5414
 1824TIP3    H226964   2.290   5.345  10.283  0.5252 -0.6035  0.5254
 1825TIP3   OH226965   3.262   0.195  11.586 -0.1905  0.6193 -0.7181
 1825TIP3    H126966   3.237   0.146  11.508 -1.7778  0.6958 -0.2963
 1825TIP3    H226967   3.312   0.270  11.553 -0.1142  0.2044 -1.5722
 1826TIP3   OH226968   1.848   6.094  10.116 -0.6169  0.8045 -0.4689
 1826TIP3    H126969   1.934   6.115  10.081 -0.1511 -1.5937 -0.9115
 1826TIP3    H226970   1.854   6.116  10.209  0.4755  0.7076 -0.5032
 1827TIP3   OH226971   0.836   6.531   1.811  0.6398 -0.4494  0.0697
 1827TIP3    H126972   0.906   6.571   1.863 -0.6737  1.5088  0.4222
 1827TIP3    H226973   0.810   6.454   1.862  0.7568  0.3105  1.3292
 1828TIP3   OH226974   5.275   6.364  12.779 -0.2639  0.0720 -0.1963
 1828TIP3    H126975   5.365   6.356  12.808 -0.6567 -0.0388  1.0535
 1828TIP3    H226976   5.223   6.354  12.859 -1.3617  0.5810 -0.8234
 1829TIP3   OH226977   1.139   4.787   1.637 -0.7281  0.1480  0.4994
 1829TIP3    H126978   1.108   4.838   1.712  0.8124  0.2134  1.1276
 1829TIP3    H226979   1.201   4.724   1.674 -0.7861 -0.5763 -0.5821
 1830TIP3   OH226980   3.852   0.277  10.891  0.2466  0.1695 -0.2671
 1830TIP3    H126981   3.813   0.217  10.828  0.6913  1.2573 -1.6327
 1830TIP3    H226982   3.779   0.329  10.924 -0.0564 -0.7206  0.5051
 1831TIP3   OH226983   6.552   3.859  11.170 -0.0437  1.1776  0.5832
 1831TIP3    H126984   6.647   3.861  11.168  0.0801 -1.5617 -0.8103
 1831TIP3    H226985   6.530   3.832  11.260  0.5844  0.5369  0.5509
 1832TIP3   OH226986   2.999   2.764   0.025 -0.0924  0.3244  0.0554
 1832TIP3    H126987   2.979   2.704  -0.048 -0.3384 -0.9316  1.1058
 1832TIP3    H226988   2.962   2.720   0.101  0.3030  1.5387  0.9668
 1833TIP3   OH226989   6.330   3.195  11.328  0.0288  0.1793 -0.0524
 1833TIP3    H126990   6.338   3.174  11.421  1.1110 -0.3746 -0.2512
 1833TIP3    H226991   6.378   3.277  11.318 -0.4249  0.4450 -0.0540
 1834TIP3   OH226992   4.221   6.050   4.807  0.4186 -0.3701 -0.1536
 1834TIP3    H126993   4.265   6.132   4.785 -0.4013 -0.2805 -1.6438
 1834TIP3    H226994   4.128   6.074   4.811  0.3846 -0.6883  2.1983
 1835TIP3   OH226995   4.580   4.584   4.626  0.6069 -0.3096  0.0095
 1835TIP3    H126996   4.508   4.626   4.580 -0.5720 -1.0024  1.1591
 1835TIP3    H226997   4.576   4.492   4.599  3.3136  0.1799 -2.6809
 1836TIP3   OH226998   5.224   5.603  11.611 -0.0668  0.0853 -0.1535
 1836TIP3    H126999   5.202   5.593  11.519  1.5286 -0.3675 -0.5132
 1836TIP3    H227000   5.172   5.536  11.656 -0.6318  0.1247 -0.7366
 1837TIP3   OH227001   2.708   7.248  12.507 -0.0763 -0.4110  0.4069
 1837TIP3    H127002   2.627   7.300  12.505 -0.1811 -0.5597  0.7448
 1837TIP3    H227003   2.749   7.266  12.422  0.2514  0.8070  0.7996
 1838TIP3   OH227004   4.273   2.514  13.246 -0.6189  0.2977  0.0525
 1838TIP3    H127005   4.359   2.550  13.222  0.8417 -3.9140 -2.2155
 1838TIP3    H227006   4.216   2.536  13.172 -1.5645  2.8248  1.4173
 1839TIP3   OH227007   5.389   3.262   9.583 -0.3891 -0.4680 -0.2697
 1839TIP3    H127008   5.297   3.280   9.563  0.3088  2.3341 -1.3751
 1839TIP3    H227009   5.429   3.249   9.497  0.4695 -0.4437  0.1203
 1840TIP3   OH227010   6.781   3.849  15.076 -0.3296  0.0222  0.3505
 1840TIP3    H127011   6.795   3.858  15.170 -0.6829 -0.1065  0.4177
 1840TIP3    H227012   6.692   3.814  15.068  0.2209 -1.3987  0.0393
 1841TIP3   OH227013   0.849   3.874  10.963 -0.0559  0.6969 -0.4022
 1841TIP3    H127014   0.798   3.955  10.964 -2.0889 -0.5253 -0.2646
 1841TIP3    H227015   0.837   3.839  10.874 -1.3406 -0.6893  0.2638
 1842TIP3   OH227016   4.366   0.578  10.650  0.2194 -0.4137  0.3807
 1842TIP3    H127017   4.390   0.626  10.570 -1.0799 -0.2543  0.0498
 1842TIP3    H227018   4.439   0.519  10.666  1.3269  0.8538  0.1256
 1843TIP3   OH227019   5.959   0.910  13.774  0.4283  0.5848 -0.0005
 1843TIP3    H127020   5.957   0.886  13.682  0.0621 -0.5098  0.2759
 1843TIP3    H227021   5.904   0.988  13.780  1.1395  1.1658 -0.8312
 1844TIP3   OH227022   1.430   1.946   5.046  0.0263  0.7010 -0.3526
 1844TIP3    H127023   1.397   1.898   5.122  0.9131 -0.0660 -0.4387
 1844TIP3    H227024   1.523   1.959   5.064  0.1736  0.8095 -1.1532
 1845TIP3   OH227025   6.051   7.236  10.828 -0.0040 -0.2548  0.0802
 1845TIP3    H127026   6.139   7.260  10.801 -0.2906  0.8887  0.0958
 1845TIP3    H227027   6.041   7.274  10.915 -0.8553  0.5268 -0.3421
 1846TIP3   OH227028   3.856   6.193  10.966  0.5858 -0.4511  0.4107
 1846TIP3    H127029   3.804   6.250  10.909 -0.7036 -1.6476  0.3346
 1846TIP3    H227030   3.902   6.253  11.025  0.0487  0.6977 -0.3128
 1847TIP3   OH227031   3.758   6.353  11.676 -0.1040  0.0250  0.1854
 1847TIP3    H127032   3.830   6.356  11.613  1.1137  1.8872  1.5768
 1847TIP3    H227033   3.707   6.433  11.660 -0.0026  0.3311  1.2756
 1848TIP3   OH227034   3.307   3.629  11.178 -0.1862  0.1399 -0.4638
 1848TIP3    H127035   3.248   3.660  11.109 -0.5837  1.2249  0.3216
 1848TIP3    H227036   3.286   3.536  11.188 -1.6833  0.4666 -0.3051
 1849TIP3   OH227037   6.024   7.062   0.559  0.1658 -0.3810  0.0407
 1849TIP3    H127038   6.022   7.033   0.651  0.2018  1.1162  0.5431
 1849TIP3    H227039   6.086   7.003   0.517  1.9863  0.3678  1.5280
 1850TIP3   OH227040   2.961   0.607   4.082 -0.3930  0.2280 -0.2784
 1850TIP3    H127041   2.905   0.681   4.060 -1.5992 -0.2923  0.9083
 1850TIP3    H227042   2.969   0.610   4.177 -0.9995 -1.4948 -0.1342
 1851TIP3   OH227043   6.264   4.539  14.989 -0.3933  0.1026 -0.2010
 1851TIP3    H127044   6.330   4.564  14.925 -0.8804  1.8585 -0.0861
 1851TIP3    H227045   6.253   4.445  14.977  0.6915  0.1168 -1.5684
 1852TIP3   OH227046   5.258   7.245  13.508  0.7583 -0.4341 -0.6355
 1852TIP3    H127047   5.264   7.337  13.483 -1.1923  0.7477  2.5855
 1852TIP3    H227048   5.198   7.244  13.583  2.0111 -4.1171  0.5647
 1853TIP3   OH227049   0.229   4.572   9.855 -0.6932 -0.3352  0.2880
 1853TIP3    H127050   0.182   4.560   9.773 -2.4299  3.7662  0.4104
 1853TIP3    H227051   0.301   4.631   9.833 -0.4661 -0.1202  1.4926
 1854TIP3   OH227052   6.776   5.918  14.559 -0.3820 -0.1043  0.6522
 1854TIP3    H127053   6.776   5.879  14.646  1.1242  0.1645  0.7911
 1854TIP3    H227054   6.850   5.979  14.559 -2.0082  2.0118  0.0994
 1855TIP3   OH227055   5.136   5.673   2.247  0.3318  0.2029  0.1825
 1855TIP3    H127056   5.042   5.673   2.263  0.3264  0.3556  0.1495
 1855TIP3    H227057   5.149   5.610   2.176  0.3913 -0.7284  1.0070
 1856TIP3   OH227058   2.126   5.895  12.503  0.5813  0.4861  0.4962
 1856TIP3    H127059   2.138   5.957  12.431 -2.4233  0.3713 -0.2666
 1856TIP3    H227060   2.133   5.808  12.461  0.4900  0.3947  0.6699
 1857TIP3   OH227061   6.294   2.042  15.199 -0.0509  0.8465 -0.1627
 1857TIP3    H127062   6.325   1.970  15.145  1.4873  0.7024  0.8528
 1857TIP3    H227063   6.337   2.029  15.283  0.3349  2.9941  0.0275
 1858TIP3   OH227064   4.239   4.544  13.815  0.0962  0.2266  0.3379
 1858TIP3    H127065   4.248   4.527  13.721  0.8209 -1.1191  0.6304
 1858TIP3    H227066   4.160   4.597  13.822  1.4756  2.7614 -1.2925
 1859TIP3   OH227067   3.947   2.877   9.525  0.0700 -0.3974  0.0961
 1859TIP3    H127068   3.864   2.892   9.570  0.4111  0.1509  0.5522
 1859TIP3    H227069   4.002   2.951   9.551 -0.1044  0.6047 -2.1455
 1860TIP3   OH227070   0.018   2.724  11.389  0.1697 -0.3986  0.2170
 1860TIP3    H127071   0.011   2.681  11.304  0.9510  0.6767 -0.4154
 1860TIP3    H227072   0.017   2.818  11.369 -0.9070 -0.1097  1.5103
 1861TIP3   OH227073   6.643   3.315  11.928  0.5966 -0.4032 -0.3132
 1861TIP3    H127074   6.581   3.338  11.859 -0.7732  0.1776  1.0357
 1861TIP3    H227075   6.694   3.395  11.941  0.2713 -0.2351 -0.0688
 1862TIP3   OH227076   6.849   3.527  10.042  0.4205 -0.3506  0.1416
 1862TIP3    H127077   6.909   3.502   9.972 -0.6281 -1.4395 -0.3744
 1862TIP3    H227078   6.856   3.456  10.106  1.6617  0.8081  1.3889
 1863TIP3   OH227079   6.870   5.586  14.254  0.2370  0.0515 -0.2574
 1863TIP3    H127080   6.837   5.673  14.279  0.5739 -0.1082  0.8135
 1863TIP3    H227081   6.810   5.525  14.296  1.5392 -0.2349  1.2813
 1864TIP3   OH227082   4.001   4.128  11.289  0.3583 -0.0717  0.4160
 1864TIP3    H127083   3.911   4.135  11.257  0.6565  0.2558 -0.3831
 1864TIP3    H227084   3.997   4.062  11.357 -0.2949 -0.8199 -0.3271
 1865TIP3   OH227085   5.924   1.156   0.951 -0.0581  0.4018 -0.1722
 1865TIP3    H127086   5.958   1.118   0.870 -0.8678 -0.3337 -0.1858
 1865TIP3    H227087   5.859   1.093   0.981 -1.0808  1.5405  0.0774
 1866TIP3   OH227088   5.131   3.795   9.982 -0.1237 -0.4704  0.1686
 1866TIP3    H127089   5.127   3.887  10.007  0.8061  0.1653 -1.8633
 1866TIP3    H227090   5.040   3.773   9.961 -0.7951 -0.7928  3.0088
 1867TIP3   OH227091   6.590   6.232  10.038  0.5595 -0.1251  0.2604
 1867TIP3    H127092   6.681   6.246  10.013  0.6520 -0.4436  0.4107
 1867TIP3    H227093   6.550   6.318  10.033  1.5257  0.5523  2.9332
 1868TIP3   OH227094   6.891   4.059  10.520  0.0021  0.2791 -0.6734
 1868TIP3    H127095   6.840   4.074  10.440 -1.1492 -0.4428 -0.1071
 1868TIP3    H227096   6.906   3.964  10.520 -0.1236  0.2583  0.0293
 1869TIP3   OH227097   1.989   4.900  12.458  1.1758  0.3587  0.2841
 1869TIP3    H127098   1.997   4.824  12.516  1.3505 -0.6314 -0.9910
 1869TIP3    H227099   1.930   4.871  12.389  0.4448  1.7459  0.3013
 1870TIP3   OH227100   3.521   7.130   2.480  0.2278 -0.0885  0.4111
 1870TIP3    H127101   3.570   7.073   2.421  0.6832  0.9281 -0.2114
 1870TIP3    H227102   3.435   7.139   2.439  0.5344  0.5943 -0.0931
 1871TIP3   OH227103   1.301   0.312  12.033 -0.0200  0.5672 -0.2219
 1871TIP3    H127104   1.299   0.389  11.977 -2.3066  0.4634 -0.3756
 1871TIP3    H227105   1.299   0.346  12.122 -0.9111  0.7100 -0.2882
 1872TIP3   OH227106   4.797   3.681   9.677 -0.3710 -0.1873  0.3973
 1872TIP3    H127107   4.805   3.745   9.607  0.0092  0.9873  1.4877
 1872TIP3    H227108   4.874   3.625   9.667 -1.4447 -1.4477 -1.4571
 1873TIP3   OH227109   4.563   3.128  11.599  0.7758 -0.6286 -0.1708
 1873TIP3    H127110   4.584   3.218  11.624  2.0944 -0.8923 -0.2462
 1873TIP3    H227111   4.578   3.076  11.678  1.6165 -0.9902 -0.5493
 1874TIP3   OH227112   0.407   3.633  13.530  0.3055  0.2978 -0.1524
 1874TIP3    H127113   0.384   3.545  13.558  0.0339 -0.2347 -1.9281
 1874TIP3    H227114   0.443   3.675  13.608  2.4445 -2.0574  0.2749
 1875TIP3   OH227115   5.655   6.781   1.647 -0.5810  0.1748  0.5266
 1875TIP3    H127116   5.684   6.822   1.566 -0.2309 -0.2560  0.4312
 1875TIP3    H227117   5.630   6.692   1.621 -0.8192  0.1536  0.8259
 1876TIP3   OH227118   0.471   7.006  12.262 -0.7170 -0.1144 -1.0229
 1876TIP3    H127119   0.526   7.067  12.212  0.2147  0.5366  0.7001
 1876TIP3    H227120   0.528   6.931  12.280 -0.9275 -0.1904 -0.6637
 1877TIP3   OH227121   4.031   3.822  10.738  0.0865  0.2542  0.4467
 1877TIP3    H127122   4.040   3.727  10.747 -0.3978  0.1560 -0.0649
 1877TIP3    H227123   4.029   3.837  10.643  2.6510  1.0218  0.4485
 1878TIP3   OH227124   1.049   3.138  12.774  0.1474  0.4017 -0.3921
 1878TIP3    H127125   1.005   3.212  12.732  0.2165  0.5541 -0.1946
 1878TIP3    H227126   0.987   3.107  12.839 -0.7157 -0.9650 -1.7937
 1879TIP3   OH227127   1.916   4.202  10.456  0.2537 -0.2060 -0.7839
 1879TIP3    H127128   1.947   4.138  10.391  0.7573 -0.9720  0.1865
 1879TIP3    H227129   1.824   4.178  10.470  0.6074 -1.1448  0.0407
 1880TIP3   OH227130   5.121   3.701   2.598 -0.0187  0.5611  0.1934
 1880TIP3    H127131   5.194   3.721   2.540 -0.5399 -0.2872 -0.7837
 1880TIP3    H227132   5.053   3.763   2.573 -1.6716 -2.1677 -2.9064
 1881TIP3   OH227133   4.730   6.251  13.538 -0.1579 -0.4342  0.0114
 1881TIP3    H127134   4.644   6.212  13.553 -0.0108 -0.8040 -0.0891
 1881TIP3    H227135   4.756   6.287  13.623 -1.1828  1.2734 -0.3440
 1882TIP3   OH227136   6.304   2.182  11.479 -0.4848 -0.1109  0.2409
 1882TIP3    H127137   6.285   2.210  11.568  1.3816 -1.0022  0.9746
 1882TIP3    H227138   6.287   2.088  11.480 -1.2630  0.0094 -0.6042
 1883TIP3   OH227139   2.454   6.501  12.803  0.9826 -0.1671 -0.0101
 1883TIP3    H127140   2.383   6.507  12.739  0.7264 -2.7251 -0.0649
 1883TIP3    H227141   2.533   6.523  12.752  0.5148  0.3008 -0.5529
 1884TIP3   OH227142   1.612   1.230  11.802 -0.2288  0.5017 -0.1285
 1884TIP3    H127143   1.565   1.272  11.874 -1.1184  2.4808 -1.7632
 1884TIP3    H227144   1.690   1.193  11.842 -2.8399 -2.6363  2.6928
 1885TIP3   OH227145   1.993   6.389  14.538  0.6822 -0.0063  0.3429
 1885TIP3    H127146   1.909   6.355  14.506  0.3431  0.0640  1.1419
 1885TIP3    H227147   2.003   6.473  14.493  0.3512 -0.0385  0.2036
 1886TIP3   OH227148   4.363   3.314   0.824  0.0410  0.2150 -0.1235
 1886TIP3    H127149   4.456   3.325   0.805  0.6941 -1.5785  1.7127
 1886TIP3    H227150   4.339   3.233   0.780 -0.9786  1.1914 -1.4605
 1887TIP3   OH227151   1.943   7.080  13.942 -0.2467  0.0642  0.3311
 1887TIP3    H127152   1.936   7.111  14.032  0.9363  1.7237 -0.1107
 1887TIP3    H227153   1.876   7.011  13.935 -0.9350  0.4937  2.2120
 1888TIP3   OH227154   3.907   0.861  12.753 -0.1874 -0.1927  0.5945
 1888TIP3    H127155   3.869   0.949  12.752 -0.8912 -0.4783  1.4133
 1888TIP3    H227156   3.835   0.805  12.724  0.3386 -0.4741 -0.1772
 1889TIP3   OH227157   3.957   4.226  12.301  0.1696  0.4749 -0.1621
 1889TIP3    H127158   4.040   4.244  12.345  0.4259  0.3466 -0.5856
 1889TIP3    H227159   3.905   4.176  12.364  0.5607  0.2290 -0.0364
 1890TIP3   OH227160   1.682   6.774   0.715 -0.5917 -0.3747 -0.3565
 1890TIP3    H127161   1.646   6.857   0.747 -2.7337 -0.3912 -2.4375
 1890TIP3    H227162   1.729   6.798   0.635  2.1561 -0.7217  1.0381
 1891TIP3   OH227163   1.453   2.255   9.859 -0.0960  0.6747  0.2287
 1891TIP3    H127164   1.541   2.245   9.823 -1.0331  0.0969 -2.1020
 1891TIP3    H227165   1.414   2.327   9.808 -1.0799  0.6843  0.9630
 1892TIP3   OH227166   3.747   1.398  13.376 -0.1348  0.5255 -0.0863
 1892TIP3    H127167   3.813   1.466  13.380  0.7523 -0.3477  1.7159
 1892TIP3    H227168   3.796   1.318  13.357 -1.0468  0.2267 -1.3425
 1893TIP3   OH227169   3.787   6.184  13.536  0.6023  0.0353  0.8814
 1893TIP3    H127170   3.818   6.235  13.610  1.8573  0.1075  0.3363
 1893TIP3    H227171   3.722   6.124  13.573 -0.1364  1.2986  1.7036
 1894TIP3   OH227172   7.154   4.636   1.605 -0.4355  0.8260 -0.3814
 1894TIP3    H127173   7.161   4.617   1.511 -0.1785  2.0887 -0.6418
 1894TIP3    H227174   7.214   4.574   1.647 -0.3050  0.4676 -1.0774
 1895TIP3   OH227175   6.424   1.849  14.989  0.1080 -0.2148 -0.3139
 1895TIP3    H127176   6.498   1.801  14.952 -0.4322 -0.4570 -1.1049
 1895TIP3    H227177   6.440   1.940  14.964  1.7059  0.2715  2.1149
 1896TIP3   OH227178   5.153   2.712  10.411 -0.2944  0.2393  0.2727
 1896TIP3    H127179   5.173   2.619  10.419  0.3807  0.4762  1.8098
 1896TIP3    H227180   5.230   2.750  10.368 -0.5840  0.0857 -0.3837
 1897TIP3   OH227181   2.075   7.067   9.072 -0.3054 -0.3660 -0.1396
 1897TIP3    H127182   2.029   6.989   9.043 -0.6406 -0.1072 -0.3139
 1897TIP3    H227183   2.030   7.139   9.028 -0.6867  0.0169  0.8628
 1898TIP3   OH227184   6.252   0.932   0.192 -0.4526 -0.3213 -0.3145
 1898TIP3    H127185   6.336   0.932   0.238  1.3713 -0.5327 -3.3599
 1898TIP3    H227186   6.232   0.840   0.178 -1.6423 -0.3034  0.9788
 1899TIP3   OH227187   0.370   2.179  14.610 -0.0564 -0.0478 -0.0191
 1899TIP3    H127188   0.464   2.174  14.625 -0.2251 -1.7065  0.7427
 1899TIP3    H227189   0.335   2.098  14.649 -1.8417  0.7191  0.0784
 1900TIP3   OH227190   4.859   6.166  12.640 -0.2731 -0.1118  0.0170
 1900TIP3    H127191   4.945   6.149  12.602 -0.5445 -2.0867  0.1418
 1900TIP3    H227192   4.800   6.168  12.565 -0.0891  1.7803 -0.1191
 1901TIP3   OH227193   2.383   0.705   9.725 -0.0349  0.0771  0.2837
 1901TIP3    H127194   2.437   0.784   9.720  1.5970 -0.9006  1.3853
 1901TIP3    H227195   2.430   0.642   9.670 -0.7844 -0.4158  0.2061
 1902TIP3   OH227196   1.886   2.239  12.599  0.1991  0.5805  0.1145
 1902TIP3    H127197   1.863   2.291  12.521  0.2033  0.3903 -0.0142
 1902TIP3    H227198   1.966   2.193  12.574  1.4195  2.1292  0.9623
 1903TIP3   OH227199   5.913   2.847   3.289  0.5944 -0.6583 -0.4269
 1903TIP3    H127200   5.976   2.888   3.347  1.2124 -0.9834 -0.8564
 1903TIP3    H227201   5.846   2.914   3.275 -0.0631 -0.8824  1.3841
 1904TIP3   OH227202   3.197   1.104   2.836 -0.0584  0.1936  0.4055
 1904TIP3    H127203   3.110   1.118   2.874  0.7206  2.5814  1.5188
 1904TIP3    H227204   3.207   1.175   2.773 -0.5069 -2.5335 -3.0812
 1905TIP3   OH227205   4.852   1.282  11.574  0.2801 -0.4184 -0.3765
 1905TIP3    H127206   4.920   1.214  11.568  0.2478 -0.3574 -1.5773
 1905TIP3    H227207   4.898   1.364  11.554  0.0353 -0.2613 -0.2923
 1906TIP3   OH227208   4.789   2.790  15.277  0.8042 -0.0068  0.2277
 1906TIP3    H127209   4.747   2.818  15.196 -0.5708  0.2605  1.0068
 1906TIP3    H227210   4.740   2.712  15.304 -0.4080  1.3076  2.0725
 1907TIP3   OH227211   4.757   0.627  12.135 -0.3959  0.3951 -0.2073
 1907TIP3    H127212   4.713   0.551  12.172 -1.0809  1.4339  1.2002
 1907TIP3    H227213   4.689   0.674  12.087  0.3625 -0.6376 -2.3988
 1908TIP3   OH227214   3.265   4.887   0.156 -0.0461 -0.5764 -0.0875
 1908TIP3    H127215   3.282   4.978   0.132 -1.6881 -0.3417 -0.4325
 1908TIP3    H227216   3.273   4.839   0.073 -2.2944 -0.2608 -0.5393
 1909TIP3   OH227217   3.190   6.760  13.885  0.1135  0.0809 -0.1067
 1909TIP3    H127218   3.246   6.769  13.962 -1.8843  0.1802  1.4363
 1909TIP3    H227219   3.218   6.829  13.825  1.0903  0.6250  0.9611
 1910TIP3   OH227220   3.302   6.023  14.330  0.5362 -0.2413 -0.0262
 1910TIP3    H127221   3.312   5.928  14.330 -0.4171 -0.5063  3.6727
 1910TIP3    H227222   3.381   6.055  14.374  0.4806  0.6096 -0.5350
 1911TIP3   OH227223   4.152   1.045  14.406 -0.1339  0.3040 -0.2079
 1911TIP3    H127224   4.247   1.035  14.393 -0.0577  0.7165  0.0201
 1911TIP3    H227225   4.113   0.986  14.341  0.2746  0.4032 -0.5517
 1912TIP3   OH227226   2.035   0.926   0.124 -0.4030  0.3301 -0.1444
 1912TIP3    H127227   1.976   0.996   0.151 -0.9675  0.2005 -1.0137
 1912TIP3    H227228   2.119   0.970   0.108  0.0086  0.3801  1.9433
 1913TIP3   OH227229   4.717   5.671   3.063 -0.2849  0.3113  0.2929
 1913TIP3    H127230   4.673   5.682   3.147 -0.4935  0.9579  0.1036
 1913TIP3    H227231   4.715   5.758   3.023 -0.1745  0.0156 -0.3719
 1914TIP3   OH227232   6.763   4.817  13.951  0.0001  0.6094 -0.1923
 1914TIP3    H127233   6.794   4.745  13.897  1.1814 -1.0226  2.4816
 1914TIP3    H227234   6.668   4.803  13.958 -0.1387  0.7242 -1.5733
 1915TIP3   OH227235   2.936   2.218  11.464 -0.0015 -0.1766 -0.1116
 1915TIP3    H127236   2.932   2.243  11.556  2.3508  0.2280 -0.0609
 1915TIP3    H227237   2.983   2.134  11.464 -1.5754 -1.0958 -0.8332
 1916TIP3   OH227238   3.536   1.849  14.027 -0.1323 -0.2536  0.3459
 1916TIP3    H127239   3.466   1.828  13.964 -1.4003 -0.0316  1.6245
 1916TIP3    H227240   3.532   1.945  14.034  0.4115 -0.2284  0.3219
 1917TIP3   OH227241   1.270   4.309  10.803  0.3363 -0.4984  0.4989
 1917TIP3    H127242   1.254   4.343  10.891 -2.4897 -0.7760  0.2094
 1917TIP3    H227243   1.239   4.218  10.807  0.4218 -0.5997 -0.6954
 1918TIP3   OH227244   0.608   5.171   9.770 -0.4792  0.0823  0.3367
 1918TIP3    H127245   0.610   5.183   9.675  2.4014 -1.5094  0.0959
 1918TIP3    H227246   0.569   5.084   9.782  1.6491 -0.9220  0.3579
 1919TIP3   OH227247   3.722   0.320   9.908  0.4194  0.2367 -0.0493
 1919TIP3    H127248   3.817   0.331   9.917  0.7947 -1.3179 -1.5443
 1919TIP3    H227249   3.698   0.255   9.974  0.4719  0.2924  0.0246
 1920TIP3   OH227250   2.343   0.970  12.180  0.0809  0.1910 -0.8884
 1920TIP3    H127251   2.329   0.918  12.101  1.7679  0.2527 -1.2538
 1920TIP3    H227252   2.405   0.918  12.232 -1.2888 -0.0475  0.6214
 1921TIP3   OH227253   1.057   2.233   9.529 -0.6376  0.4331  0.2742
 1921TIP3    H127254   1.005   2.154   9.518 -1.6359  0.9042  1.3715
 1921TIP3    H227255   0.993   2.304   9.532  0.2486  1.3253 -0.8230
 1922TIP3   OH227256   6.387   6.586  11.953  0.4285  0.2973  0.1932
 1922TIP3    H127257   6.456   6.520  11.959 -0.3632 -0.4723  1.3249
 1922TIP3    H227258   6.405   6.632  11.871  0.8684 -1.4954 -0.7802
 1923TIP3   OH227259   6.170   0.432   0.124  0.0250  0.1854 -0.4993
 1923TIP3    H127260   6.125   0.381   0.056 -0.0782  0.6880 -0.8131
 1923TIP3    H227261   6.197   0.367   0.189  0.7429 -0.3888 -1.3580
 1924TIP3   OH227262   6.054   5.781  10.397  0.5469  0.1490 -0.0043
 1924TIP3    H127263   6.065   5.707  10.457 -1.1516 -1.4111 -1.4962
 1924TIP3    H227264   6.047   5.858  10.454  1.7125 -0.8963  1.6232
 1925TIP3   OH227265   0.945   2.348  10.085 -0.1162  0.1022 -0.6237
 1925TIP3    H127266   0.995   2.303  10.017  0.2628  0.0990 -0.3482
 1925TIP3    H227267   1.010   2.402  10.131 -0.1004 -0.8894  0.5784
 1926TIP3   OH227268   4.959   4.635  12.251  0.0968  0.0591  0.5874
 1926TIP3    H127269   5.035   4.678  12.289  0.3161  0.4584 -0.2869
 1926TIP3    H227270   4.961   4.546  12.287  2.2718 -0.6744 -1.1724
 1927TIP3   OH227271   5.146   1.802   9.741  0.4305 -0.2231 -0.7204
 1927TIP3    H127272   5.126   1.891   9.712 -2.2419  0.2468  1.9925
 1927TIP3    H227273   5.068   1.751   9.716  0.5250 -1.0237  0.4987
 1928TIP3   OH227274   3.427   2.806   5.294 -0.4675 -0.0394 -0.7711
 1928TIP3    H127275   3.334   2.809   5.273 -0.4125 -1.1115 -1.2342
 1928TIP3    H227276   3.438   2.871   5.363 -1.4122  0.6477 -1.2403
 1929TIP3   OH227277   5.381   6.926  11.891 -0.5823  0.1213  0.3212
 1929TIP3    H127278   5.457   6.868  11.901  1.1652  2.6040  2.7216
 1929TIP3    H227279   5.324   6.904  11.964 -0.8803  0.1292  0.0947
 1930TIP3   OH227280   3.665   3.643  10.667 -0.1914 -0.1165 -0.8595
 1930TIP3    H127281   3.595   3.658  10.603 -0.6560 -0.2805 -0.3924
 1930TIP3    H227282   3.746   3.655  10.617 -0.5199  2.0194 -0.9867
 1931TIP3   OH227283   4.065   6.299  12.224 -0.5799  0.1056  0.2461
 1931TIP3    H127284   4.135   6.252  12.269 -0.0285  0.3143 -0.3660
 1931TIP3    H227285   4.013   6.230  12.182 -0.8440 -0.0601  0.8334
 1932TIP3   OH227286   2.300   7.064  13.129  0.3403  0.5733 -0.7854
 1932TIP3    H127287   2.217   7.018  13.112  1.1859 -2.3823  2.0094
 1932TIP3    H227288   2.275   7.139  13.182 -0.6313  0.3150 -0.8481
 1933TIP3   OH227289   0.574   3.678  12.628 -0.4348 -0.1397 -0.2098
 1933TIP3    H127290   0.554   3.756  12.576  0.9078  0.4645  0.1303
 1933TIP3    H227291   0.569   3.708  12.719 -1.5813 -0.8901 -0.0088
 1934TIP3   OH227292   0.829   0.951  11.691  0.5774  0.0671 -0.3645
 1934TIP3    H127293   0.781   0.873  11.664  0.6592 -0.2628  0.4303
 1934TIP3    H227294   0.762   1.018  11.703  0.3517 -0.2823  0.3536
 1935TIP3   OH227295   4.932   3.174  13.463  0.2006 -0.5120  0.2144
 1935TIP3    H127296   4.870   3.228  13.513  0.1483 -0.6012  0.2460
 1935TIP3    H227297   5.018   3.200  13.496  0.1083 -1.4997  1.2983
 1936TIP3   OH227298   1.472   0.824  12.126  0.5719 -0.0749  0.2497
 1936TIP3    H127299   1.382   0.828  12.095 -0.3980 -1.4656  2.5857
 1936TIP3    H227300   1.484   0.732  12.152  2.9137 -0.0815 -0.6282
 1937TIP3   OH227301   6.042   0.911   9.702 -0.4954 -0.0327  0.4642
 1937TIP3    H127302   6.050   0.817   9.720  0.3721  0.3251  2.1460
 1937TIP3    H227303   6.020   0.950   9.786 -0.7313  1.2925 -0.1900
 1938TIP3   OH227304   7.121   5.545  13.521  0.2822  0.7235 -0.3584
 1938TIP3    H127305   7.066   5.473  13.491  0.1608  1.0687 -0.9857
 1938TIP3    H227306   7.198   5.503  13.558 -0.6266  0.2099  1.0139
 1939TIP3   OH227307   6.329   2.492  10.740 -0.3258  0.4074  0.5424
 1939TIP3    H127308   6.241   2.471  10.709  0.1579 -0.3357 -0.3779
 1939TIP3    H227309   6.324   2.480  10.835 -0.7932 -1.2658  0.3318
 1940TIP3   OH227310   5.595   5.805  12.553  0.7411  0.1200 -0.5892
 1940TIP3    H127311   5.521   5.748  12.535  0.6335  0.2859 -0.6702
 1940TIP3    H227312   5.672   5.752  12.530  0.6552 -0.0987 -0.3765
 1941TIP3   OH227313   6.135   2.874   9.943  0.5478  0.3364  0.3988
 1941TIP3    H127314   6.166   2.819   9.871 -1.8353  0.5785 -0.9066
 1941TIP3    H227315   6.121   2.960   9.904  2.0547  1.3142  1.8947
 1942TIP3   OH227316   0.892   1.254   2.005  0.6107 -0.1581 -0.0463
 1942TIP3    H127317   0.812   1.294   1.972 -0.0302 -0.4642  1.0543
 1942TIP3    H227318   0.960   1.321   1.992 -0.3412  1.1574  1.3448
 1943TIP3   OH227319   5.060   6.165  11.832  0.3666 -0.4868  0.1694
 1943TIP3    H127320   5.143   6.146  11.789  1.1195 -0.6366  1.6528
 1943TIP3    H227321   5.030   6.247  11.792  1.2995 -0.3512 -0.2597
 1944TIP3   OH227322   3.367   7.128  12.674  0.2498 -0.3022  0.4595
 1944TIP3    H127323   3.378   7.169  12.588 -0.3125 -0.7417  0.1707
 1944TIP3    H227324   3.354   7.201  12.734  1.7600  0.0833  0.3697
 1945TIP3   OH227325   4.335   2.086   9.979 -0.3811 -0.5830 -0.1221
 1945TIP3    H127326   4.294   2.167  10.009  2.6667  0.6286  1.1559
 1945TIP3    H227327   4.262   2.035   9.942 -2.9282  1.4272  1.7208
 1946TIP3   OH227328   3.643   0.261  13.362 -0.4120 -0.6679  0.3673
 1946TIP3    H127329   3.719   0.239  13.308 -0.5661 -1.0650  0.3132
 1946TIP3    H227330   3.669   0.340  13.409  0.4373 -1.4057  1.1734
 1947TIP3   OH227331   1.392   6.213  10.449 -0.1149  0.5855 -0.2690
 1947TIP3    H127332   1.348   6.277  10.506  0.1918  1.5644 -1.1120
 1947TIP3    H227333   1.405   6.137  10.506  0.4100  1.6201  1.0596
 1948TIP3   OH227334   1.700   2.649  11.067 -0.2040 -0.1134  0.1429
 1948TIP3    H127335   1.619   2.691  11.097 -0.3272 -0.4249  0.2509
 1948TIP3    H227336   1.692   2.559  11.097 -0.3016 -0.4188 -0.7831
 1949TIP3   OH227337   1.682   0.068   9.782  0.0627 -0.1629 -0.3098
 1949TIP3    H127338   1.770   0.041   9.757  0.1004  0.1577 -0.5291
 1949TIP3    H227339   1.664   0.145   9.727  0.0495  0.4053  0.4790
 1950TIP3   OH227340   6.363   3.942  13.753 -0.0391 -0.5089 -0.5746
 1950TIP3    H127341   6.328   3.853  13.743 -1.3320  0.0500 -1.1660
 1950TIP3    H227342   6.372   3.953  13.848 -1.0683 -0.8262 -0.4307
 1951TIP3   OH227343   5.190   0.934   9.347  0.0862 -0.5174  0.1383
 1951TIP3    H127344   5.147   0.856   9.382  0.0881  0.1015  1.5827
 1951TIP3    H227345   5.131   1.006   9.370  1.3849  0.2287  1.3122
 1952TIP3   OH227346   1.062   1.064  15.226 -0.6503  0.7274 -0.2469
 1952TIP3    H127347   1.004   1.060  15.302  0.1116  1.1556  0.3710
 1952TIP3    H227348   1.034   1.142  15.179 -1.0346  0.5381 -0.3355
 1953TIP3   OH227349   1.289   1.629  13.154 -0.1903 -0.0033  0.4278
 1953TIP3    H127350   1.323   1.587  13.233 -1.5851 -0.0815  1.0270
 1953TIP3    H227351   1.203   1.661  13.180  0.2187  1.9397 -0.4444
 1954TIP3   OH227352   1.838   3.132  11.320  0.1006  0.2928 -0.0694
 1954TIP3    H127353   1.875   3.107  11.405  2.2048 -0.5632 -1.1572
 1954TIP3    H227354   1.884   3.077  11.257 -0.6874  1.6071 -1.8704
 1955TIP3   OH227355   5.285   0.260  10.238 -0.2518 -0.0753  0.3384
 1955TIP3    H127356   5.336   0.191  10.281 -1.6081  0.1082  2.3439
 1955TIP3    H227357   5.326   0.342  10.267  0.1877  0.0357 -0.5438
 1956TIP3   OH227358   5.638   1.812   0.576 -0.2801 -0.2169  0.3510
 1956TIP3    H127359   5.589   1.749   0.630 -0.5040 -1.7333 -1.5112
 1956TIP3    H227360   5.634   1.894   0.625 -2.8316 -0.8188  1.2960
 1957TIP3   OH227361   0.089   0.185   0.568 -0.5688  0.2604  0.1894
 1957TIP3    H127362   0.181   0.187   0.540 -0.8977 -0.8164 -1.0548
 1957TIP3    H227363   0.077   0.267   0.615  0.5665  1.2148 -1.1092
 1958TIP3   OH227364   6.114   2.146  12.028 -0.3641  0.2968  0.2614
 1958TIP3    H127365   6.089   2.230  11.990 -1.0995 -0.2532 -0.4980
 1958TIP3    H227366   6.037   2.117  12.076  0.1399  0.3957  1.1525
 1959TIP3   OH227367   1.781   4.783  12.308  0.0712 -0.2895  0.2265
 1959TIP3    H127368   1.770   4.817  12.220 -0.4456 -1.1857 -0.0752
 1959TIP3    H227369   1.826   4.699  12.296  2.4117  0.7613  1.0319
 1960TIP3   OH227370   1.765   3.202  14.305  0.6612 -0.6971 -0.3224
 1960TIP3    H127371   1.790   3.125  14.253 -2.5005 -1.7814 -0.4376
 1960TIP3    H227372   1.784   3.277  14.249  0.6785 -1.6078 -1.5702
 1961TIP3   OH227373   3.644   7.077  11.371  0.0640  0.1110 -0.2770
 1961TIP3    H127374   3.652   7.149  11.309 -0.3670  0.0195 -0.4486
 1961TIP3    H227375   3.639   7.119  11.457 -1.8778  0.4279 -0.4832
 1962TIP3   OH227376   6.941   3.778  10.596  0.0740 -0.0785  0.0568
 1962TIP3    H127377   7.032   3.782  10.626  0.2521  0.8752 -0.5986
 1962TIP3    H227378   6.912   3.690  10.622  0.8460 -0.0106  1.2154
 1963TIP3   OH227379   0.321   1.026  13.787  0.0551 -0.6837 -0.0843
 1963TIP3    H127380   0.236   1.024  13.743 -0.0987 -1.1955  0.2208
 1963TIP3    H227381   0.321   0.947  13.841  0.6331 -0.5652  0.0921
 1964TIP3   OH227382   0.559   6.509  12.007  0.4287  0.2748 -0.0102
 1964TIP3    H127383   0.586   6.508  11.915 -2.0902 -0.2267 -0.8102
 1964TIP3    H227384   0.617   6.446  12.050  0.3142 -1.0395 -1.6889
 1965TIP3   OH227385   5.305   4.753  11.099 -0.2816 -0.0753 -0.0916
 1965TIP3    H127386   5.386   4.703  11.111  0.2163  0.8150  0.3492
 1965TIP3    H227387   5.277   4.732  11.010  0.0663 -0.9144 -0.0098
 1966TIP3   OH227388   1.793   2.748  13.733 -0.3932 -0.2361 -0.4812
 1966TIP3    H127389   1.860   2.766  13.666 -0.0859  0.4553  0.0089
 1966TIP3    H227390   1.728   2.696  13.687  0.3359 -0.6738 -1.0490
 1967TIP3   OH227391   1.761   0.080  11.166  0.8279 -0.2648 -0.2769
 1967TIP3    H127392   1.666   0.075  11.180  0.4335  0.3915 -2.2786
 1967TIP3    H227393   1.797   0.105  11.251 -0.8616  0.0503  0.3842
 1968TIP3   OH227394   2.137   2.001   5.476 -0.2362  0.3099  0.1475
 1968TIP3    H127395   2.211   1.961   5.431 -0.2488  0.4010  0.0465
 1968TIP3    H227396   2.144   1.969   5.566 -0.3227 -0.0249  0.0370
 1969TIP3   OH227397   1.272   2.091  10.348  0.8488  0.2169  0.5143
 1969TIP3    H127398   1.303   2.080  10.438 -0.1769 -0.7064  0.7735
 1969TIP3    H227399   1.321   2.026  10.298 -1.4212 -2.1505  1.1409
 1970TIP3   OH227400   1.571   2.754  11.365 -0.5432 -0.3254 -0.4709
 1970TIP3    H127401   1.531   2.803  11.293 -1.0866 -2.1894 -1.5103
 1970TIP3    H227402   1.524   2.670  11.366 -2.6002  0.6105  3.9534
 1971TIP3   OH227403   2.958   1.758   9.107 -0.2052 -0.0060 -0.3720
 1971TIP3    H127404   3.049   1.730   9.097  0.4343  0.8231  2.2479
 1971TIP3    H227405   2.915   1.729   9.026  2.2613 -0.7932 -1.5155
 1972TIP3   OH227406   7.025   4.990  12.002  0.3203  0.7416 -0.1347
 1972TIP3    H127407   7.120   4.989  12.013  0.2641  0.0573  0.3981
 1972TIP3    H227408   7.001   4.897  12.002 -0.6145  0.9091  2.3067
 1973TIP3   OH227409   2.982   6.610  11.499  0.1267  0.2796  0.3181
 1973TIP3    H127410   3.064   6.657  11.482  1.0987 -0.9684  1.3121
 1973TIP3    H227411   2.972   6.614  11.594 -1.0120  0.4643  0.2003
 1974TIP3   OH227412   0.590   4.462   1.401  0.0216 -0.5253  0.1908
 1974TIP3    H127413   0.683   4.451   1.377  0.4819  1.0108  1.1418
 1974TIP3    H227414   0.591   4.525   1.472 -1.8435  0.1465 -0.3300
 1975TIP3   OH227415   1.918   1.379   9.864  0.1224  0.7560 -0.0553
 1975TIP3    H127416   1.945   1.299   9.819 -0.0970  0.5524  0.1757
 1975TIP3    H227417   1.850   1.416   9.807 -0.4348  0.2913  0.3063
 1976TIP3   OH227418   1.274   5.863  11.898 -0.3631 -0.2476  0.5445
 1976TIP3    H127419   1.352   5.808  11.896 -0.3431 -0.2050  0.1248
 1976TIP3    H227420   1.268   5.893  11.988 -0.7517 -1.4979  0.9520
 1977TIP3   OH227421   3.780   4.838  10.945 -0.5942 -0.2529  0.3970
 1977TIP3    H127422   3.781   4.918  10.892  1.4086  0.0287  0.7560
 1977TIP3    H227423   3.765   4.869  11.034 -3.1114 -0.6432  0.1669
 1978TIP3   OH227424   2.411   6.451  14.375 -0.1146 -0.1539 -0.3226
 1978TIP3    H127425   2.385   6.535  14.412 -2.2486 -0.7613 -0.2991
 1978TIP3    H227426   2.383   6.455  14.284 -0.7512 -1.0368 -0.1749
 1979TIP3   OH227427   6.544   0.206  10.745  0.0069  1.2251  0.4244
 1979TIP3    H127428   6.583   0.286  10.708 -0.3328  0.2360 -2.2584
 1979TIP3    H227429   6.608   0.138  10.725 -1.1589  0.3024 -0.2490
 1980TIP3   OH227430   2.029   5.595  10.183  0.4059  0.5837  0.1332
 1980TIP3    H127431   2.069   5.574  10.098 -1.1166 -0.5221 -0.3490
 1980TIP3    H227432   1.966   5.664  10.163  1.4545  1.7685  0.7604
 1981TIP3   OH227433   3.804   2.455   2.631 -0.2877  0.2657 -0.1477
 1981TIP3    H127434   3.780   2.501   2.712 -0.7241 -2.3325  1.2887
 1981TIP3    H227435   3.757   2.503   2.562  0.7113  3.0313  0.9442
 1982TIP3   OH227436   4.863   3.716  13.752  0.0167 -0.1321 -0.1970
 1982TIP3    H127437   4.900   3.772  13.684  1.4729  0.7570  1.2555
 1982TIP3    H227438   4.918   3.733  13.829 -1.3516 -1.3654  1.0995
 1983TIP3   OH227439   4.308   1.974  13.009  0.4615 -0.3443  0.5938
 1983TIP3    H127440   4.238   1.934  13.062 -0.7781  1.0469  0.0453
 1983TIP3    H227441   4.291   1.944  12.920 -0.4594  1.3406  0.1826
 1984TIP3   OH227442   1.804   6.851  11.146  0.1165  0.6631 -0.5298
 1984TIP3    H127443   1.764   6.850  11.232  2.3330  1.2549  0.5883
 1984TIP3    H227444   1.732   6.833  11.085 -1.8884  2.1348  1.2591
 1985TIP3   OH227445   6.028   2.787   1.223 -0.2255  0.2165 -0.9629
 1985TIP3    H127446   6.083   2.847   1.173  0.3324  2.3867  1.9792
 1985TIP3    H227447   6.090   2.737   1.276 -0.9033  0.4450  0.0717
 1986TIP3   OH227448   6.044   5.384  11.010  0.7137  0.0511 -0.1006
 1986TIP3    H127449   6.124   5.402  11.058 -0.3120  1.1192  1.3000
 1986TIP3    H227450   6.040   5.288  11.004  2.3224 -0.0091 -0.6763
 1987TIP3   OH227451   5.516   2.754   0.026  0.4667 -0.0575  0.1651
 1987TIP3    H127452   5.444   2.813   0.005  1.8350  1.2005 -1.3189
 1987TIP3    H227453   5.518   2.750   0.122 -0.5476  1.1807  0.2555
 1988TIP3   OH227454   6.099   1.511  11.089  0.0566 -0.3553  0.3144
 1988TIP3    H127455   6.079   1.495  11.181  0.7130  0.8570  0.6880
 1988TIP3    H227456   6.193   1.495  11.082  0.5146  1.8459  0.4406
 1989TIP3   OH227457   2.787   5.720   3.471 -0.5986  0.1519 -0.1236
 1989TIP3    H127458   2.766   5.641   3.420  2.6859 -1.5018  0.7636
 1989TIP3    H227459   2.784   5.791   3.407 -1.0606 -1.1127 -1.5691
 1990TIP3   OH227460   6.844   4.423   0.143 -0.3243  0.2233  0.1902
 1990TIP3    H127461   6.914   4.360   0.162 -0.2606  0.4999  0.8927
 1990TIP3    H227462   6.766   4.369   0.128 -1.3179 -0.0395  4.8469
 1991TIP3   OH227463   4.411   6.888   2.114  0.2591 -0.2143 -0.1342
 1991TIP3    H127464   4.502   6.915   2.111  0.3574 -0.5690 -2.2471
 1991TIP3    H227465   4.376   6.925   2.195  2.5756 -1.1463  1.3787
 1992TIP3   OH227466   0.944   5.589  15.303 -0.1139  0.0679  1.0061
 1992TIP3    H127467   1.000   5.609  15.227 -1.1283  1.3630  0.5483
 1992TIP3    H227468   0.893   5.669  15.315 -2.8224 -1.4875  0.5751
 1993TIP3   OH227469   2.943   2.888   4.881 -0.3061  0.1496 -0.0050
 1993TIP3    H127470   3.038   2.903   4.883 -0.1004 -1.1417  1.0102
 1993TIP3    H227471   2.932   2.800   4.917 -1.7284 -0.6659 -2.2751
 1994TIP3   OH227472   0.911   1.541   1.376 -0.4151 -0.2873 -0.1369
 1994TIP3    H127473   0.958   1.479   1.321  0.5260 -0.9619  1.3571
 1994TIP3    H227474   0.979   1.602   1.406 -0.4006 -1.2858  2.0656
 1995TIP3   OH227475   5.220   2.805   3.319 -0.1344 -0.2756  0.2198
 1995TIP3    H127476   5.239   2.801   3.413  0.7543  0.9237  0.1135
 1995TIP3    H227477   5.133   2.845   3.314 -0.7963 -1.5864  0.5456
 1996TIP3   OH227478   5.964   2.365   9.574  0.0225  0.3777 -0.3004
 1996TIP3    H127479   6.023   2.299   9.612 -1.3662  0.3604  2.0109
 1996TIP3    H227480   5.932   2.324   9.493  1.7815 -0.3287 -0.6947
 1997TIP3   OH227481   2.640   4.215   0.947 -0.1485 -0.5495 -0.3283
 1997TIP3    H127482   2.629   4.309   0.964  0.0921 -0.5922  0.0716
 1997TIP3    H227483   2.578   4.172   1.004 -2.1009 -0.5545 -2.3124
 1998TIP3   OH227484   3.717   4.074  10.107 -0.8421 -0.3790  0.5829
 1998TIP3    H127485   3.792   4.020  10.084  1.9543  3.5388 -0.5747
 1998TIP3    H227486   3.731   4.098  10.198 -1.1199 -0.2587  0.5953
 1999TIP3   OH227487   1.085   3.649  11.741 -0.0249  0.1257  0.4311
 1999TIP3    H127488   1.169   3.695  11.749  1.3362 -2.0739 -0.4740
 1999TIP3    H227489   1.057   3.637  11.832  0.6670  0.8256  0.7576
 2000TIP3   OH227490   0.091   3.488  13.941 -0.5784 -0.3862  0.8655
 2000TIP3    H127491   0.091   3.433  14.019 -1.1364 -1.9933 -0.2273
 2000TIP3    H227492  -0.000   3.512  13.928 -0.3645  0.6862  1.2294
 2001TIP3   OH227493   2.472   0.372   1.393  0.1000 -0.1573 -0.0273
 2001TIP3    H127494   2.469   0.318   1.472 -0.7715 -0.0836  0.0016
 2001TIP3    H227495   2.542   0.334   1.340 -0.8388 -1.6900 -0.2571
 2002TIP3   OH227496   0.187   2.533  10.159 -0.0682 -0.1143  0.3633
 2002TIP3    H127497   0.153   2.515  10.071  1.3153 -1.4351  0.0613
 2002TIP3    H227498   0.136   2.477  10.217  0.7046 -1.1584  0.0633
 2003TIP3   OH227499   5.713   0.278   9.870  0.4953  0.0981  0.1694
 2003TIP3    H127500   5.655   0.324   9.809 -0.3616 -1.1412  0.0207
 2003TIP3    H227501   5.801   0.304   9.843  0.0524  2.0884  0.4585
 2004TIP3   OH227502   5.453   2.993   1.532 -0.3636  0.1292 -0.1634
 2004TIP3    H127503   5.490   2.906   1.544  1.6812  0.5251 -2.6715
 2004TIP3    H227504   5.363   2.977   1.502 -0.6742 -0.9979  1.2439
 2005TIP3   OH227505   4.329   2.097   9.556  0.5852  0.4401  0.4506
 2005TIP3    H127506   4.267   2.156   9.512 -0.0300 -0.7703 -0.3697
 2005TIP3    H227507   4.304   2.010   9.525  2.8485 -0.0651 -0.0807
 2006TIP3   OH227508   1.733   2.190  12.234  0.0024 -0.3848  0.5234
 2006TIP3    H127509   1.793   2.252  12.276  0.6339 -2.0284  2.1697
 2006TIP3    H227510   1.703   2.236  12.156  0.8067  1.8016  1.4098
 2007TIP3   OH227511   1.146   6.213  14.075 -0.4697 -0.3368  0.2174
 2007TIP3    H127512   1.078   6.267  14.118 -0.7468 -0.1580 -0.4351
 2007TIP3    H227513   1.172   6.265  13.999  1.8963  0.5727  1.5522
 2008TIP3   OH227514   5.808   5.558  15.339 -0.0517 -0.0055  0.0579
 2008TIP3    H127515   5.772   5.645  15.358  0.4059  0.0515  0.7272
 2008TIP3    H227516   5.903   5.572  15.335  0.0043 -0.4252 -0.1188
 2009TIP3   OH227517   0.068   0.553   9.888  0.3175 -0.0772 -0.4219
 2009TIP3    H127518   0.011   0.629   9.878  0.4138 -0.1907 -1.9557
 2009TIP3    H227519   0.098   0.533   9.800 -0.7662 -2.7101 -0.2842
 2010TIP3   OH227520   4.118   7.061  10.174 -0.1409 -0.2825 -0.2453
 2010TIP3    H127521   4.203   7.064  10.217  0.0409 -1.0292 -0.5266
 2010TIP3    H227522   4.062   7.013  10.235  0.0205 -1.0190 -0.6619
 2011TIP3   OH227523   6.032   4.939  11.547  0.0442  0.0429 -0.3054
 2011TIP3    H127524   5.994   4.971  11.629  0.9500  0.6783 -0.1214
 2011TIP3    H227525   5.977   4.865  11.522  0.9914 -1.5089  1.9574
 2012TIP3   OH227526   6.605   2.860   9.623 -0.6342  0.0095  0.3708
 2012TIP3    H127527   6.589   2.952   9.601 -1.9762  0.1515  1.8373
 2012TIP3    H227528   6.553   2.811   9.559  1.8234  0.1120 -1.8948
 2013TIP3   OH227529   4.782   4.381  12.025  0.0136 -0.1016  0.7800
 2013TIP3    H127530   4.756   4.470  12.001 -0.0254 -0.0129  1.1554
 2013TIP3    H227531   4.843   4.392  12.097 -0.1807 -0.3906  0.9897
 2014TIP3   OH227532   3.358   6.727   1.608 -0.2239 -0.5548 -0.1014
 2014TIP3    H127533   3.397   6.666   1.546 -1.1133 -3.4768  1.9942
 2014TIP3    H227534   3.267   6.737   1.578 -0.7821 -2.3259  0.8931
 2015TIP3   OH227535   0.054   0.929   2.151  0.1592 -0.3741 -0.1374
 2015TIP3    H127536   0.135   0.963   2.187  0.5677 -0.3294 -1.0840
 2015TIP3    H227537  -0.002   1.005   2.140  0.8575 -0.0384 -1.6910
 2016TIP3   OH227538   1.582   1.246   9.910  0.6763  0.2985 -0.1059
 2016TIP3    H127539   1.525   1.318   9.941 -1.2561 -1.1304 -0.1437
 2016TIP3    H227540   1.652   1.242   9.976 -0.7694  0.3699  1.5236
 2017TIP3   OH227541   7.092   0.430   0.122 -0.0865 -0.4315 -0.2437
 2017TIP3    H127542   7.175   0.403   0.083  0.3534  1.0478 -0.4030
 2017TIP3    H227543   7.116   0.468   0.207 -0.8399 -1.9243  0.6674
 2018TIP3   OH227544   2.898   1.442  10.607  0.5993 -0.0589  0.1487
 2018TIP3    H127545   2.819   1.480  10.646  0.8194  0.6072 -0.0385
 2018TIP3    H227546   2.879   1.348  10.602  0.3429 -0.0985  1.3440
 2019TIP3   OH227547   2.068   5.765  13.220  0.5254  0.3749 -0.2142
 2019TIP3    H127548   2.068   5.859  13.238  1.9747  0.5456 -0.9362
 2019TIP3    H227549   2.160   5.743  13.206  0.4731 -1.5882  1.9880
 2020TIP3   OH227550   6.524   7.013  11.986 -0.0468 -0.2360 -0.0142
 2020TIP3    H127551   6.539   6.924  12.016 -0.0755 -0.7358 -1.3862
 2020TIP3    H227552   6.607   7.039  11.945 -0.2731  0.0797 -0.2802
 2021TIP3   OH227553   6.987   1.948  15.119 -0.0692 -0.6173  0.4848
 2021TIP3    H127554   6.998   2.043  15.124 -0.4360 -0.5250 -0.3650
 2021TIP3    H227555   7.077   1.914  15.116  0.0932 -0.1528 -1.3338
 2022TIP3   OH227556   4.018   5.343  12.211  0.1396  0.2911 -0.3666
 2022TIP3    H127557   3.943   5.389  12.250  0.8844 -0.3330  1.8980
 2022TIP3    H227558   3.978   5.278  12.154 -1.1062 -0.4143  1.2283
 2023TIP3   OH227559   6.335   5.555  13.872  0.0516  0.1498  0.1051
 2023TIP3    H127560   6.281   5.521  13.800 -1.4239 -0.2376  1.3374
 2023TIP3    H227561   6.330   5.650  13.863 -1.4458  0.1517  0.5655
 2024TIP3   OH227562   0.169   1.230   9.979 -0.1854  0.5852  0.2465
 2024TIP3    H127563   0.129   1.302   9.930  1.3166  0.4216 -1.3307
 2024TIP3    H227564   0.210   1.273  10.054 -0.2391  1.2399 -0.0871
 2025TIP3   OH227565   0.542   0.786  15.260 -0.2987 -0.6529  0.1012
 2025TIP3    H127566   0.546   0.758  15.351  0.6818 -0.3318  0.1719
 2025TIP3    H227567   0.487   0.865  15.261 -0.5233 -0.8125  0.3646
 2026TIP3   OH227568   4.122   3.886  13.176 -0.0760 -0.1946  0.0810
 2026TIP3    H127569   4.053   3.836  13.221  1.4474 -1.4325  1.1516
 2026TIP3    H227570   4.076   3.934  13.107 -1.9089 -1.4913  0.3331
 2027TIP3   OH227571   6.384   0.354  14.723  0.1678 -0.2111 -0.5034
 2027TIP3    H127572   6.435   0.362  14.803  0.6264 -2.6207 -0.4750
 2027TIP3    H227573   6.392   0.262  14.699 -0.5918  0.2864 -2.9147
 2028TIP3   OH227574   0.022   3.283   1.520 -0.2608 -0.6238  0.1040
 2028TIP3    H127575  -0.001   3.318   1.434 -0.5806  1.9609  1.1572
 2028TIP3    H227576  -0.011   3.348   1.582  1.2292 -1.6885  2.1359
 2029TIP3   OH227577   5.009   4.634  13.695 -0.0978 -0.0495  0.2113
 2029TIP3    H127578   5.036   4.652  13.785 -0.6769  1.5716  0.0997
 2029TIP3    H227579   5.089   4.605  13.651  0.5902  0.8557  0.8261
 2030TIP3   OH227580   2.500   5.797  13.505 -0.1461 -0.3704  0.0091
 2030TIP3    H127581   2.437   5.823  13.572 -0.9644 -2.3921  0.0979
 2030TIP3    H227582   2.568   5.865  13.507 -1.8759  1.4119  0.4994
 2031TIP3   OH227583   1.302   3.527  15.235  0.1386  0.2740  0.9232
 2031TIP3    H127584   1.339   3.455  15.287  0.7421  0.3536  0.6100
 2031TIP3    H227585   1.364   3.599  15.246  2.0411 -0.6391 -2.3823
 2032TIP3   OH227586   0.212   1.826  11.516  0.2546  0.8140 -0.2020
 2032TIP3    H127587   0.236   1.741  11.553 -0.9753  0.7509  0.5315
 2032TIP3    H227588   0.276   1.842  11.447  0.8405 -0.4472  0.0238
 2033TIP3   OH227589   4.381   2.267   0.975 -0.2878  0.4160 -0.4776
 2033TIP3    H127590   4.286   2.277   0.971 -1.0084 -3.7154  1.1263
 2033TIP3    H227591   4.409   2.266   0.884 -2.0116  0.3031 -1.0458
 2034TIP3   OH227592   1.282   3.376  13.501 -0.0784  0.5082 -0.4800
 2034TIP3    H127593   1.363   3.425  13.511  0.4985 -0.1678 -1.7088
 2034TIP3    H227594   1.243   3.409  13.421 -1.4413  1.3711  0.4898
 2035TIP3   OH227595   3.766   3.388   2.693  0.0695  0.6481  0.1327
 2035TIP3    H127596   3.841   3.336   2.722 -0.1436  1.1630  1.7617
 2035TIP3    H227597   3.780   3.474   2.734 -0.3440  1.4095 -1.2672
 2036TIP3   OH227598   2.326   0.574  13.316 -0.1092  0.8196  0.2985
 2036TIP3    H127599   2.295   0.485  13.333  0.7372  0.6983  1.2928
 2036TIP3    H227600   2.363   0.570  13.228 -1.4157  0.5796 -0.2719
 2037TIP3   OH227601   2.020   6.652  10.211  0.3258  0.4480  0.0672
 2037TIP3    H127602   2.012   6.659  10.116 -0.5434  2.5345  0.2531
 2037TIP3    H227603   1.968   6.575  10.234  1.3111 -0.6424 -1.1905
 2038TIP3   OH227604   3.381   4.289  10.193  0.0354  0.0377  0.4682
 2038TIP3    H127605   3.370   4.217  10.255  0.2784 -1.1356 -0.8045
 2038TIP3    H227606   3.415   4.248  10.114 -2.7511  1.0314 -1.3956
 2039TIP3   OH227607   1.784   0.811   1.784  0.6980 -0.1048  0.4118
 2039TIP3    H127608   1.806   0.835   1.695  0.1802 -0.4515  0.1834
 2039TIP3    H227609   1.765   0.717   1.780 -0.8548  0.1682  0.5631
 2040TIP3   OH227610   1.983   5.296  10.469 -0.1778 -0.2592  0.5230
 2040TIP3    H127611   2.065   5.247  10.476  0.9579  1.1752 -1.5310
 2040TIP3    H227612   1.962   5.321  10.559  0.8477 -1.8498  1.2483
 2041TIP3   OH227613   2.257   0.254  10.996 -0.1684 -0.0090  0.2895
 2041TIP3    H127614   2.196   0.197  10.949 -1.8696  1.0899  1.0620
 2041TIP3    H227615   2.344   0.229  10.963 -0.9138 -2.3550 -0.0866
 2042TIP3   OH227616   2.792   3.472   0.907  0.3448  0.7616  0.4810
 2042TIP3    H127617   2.867   3.418   0.931 -0.4941  0.3894  2.4334
 2042TIP3    H227618   2.789   3.541   0.973  0.4378  2.3170 -1.0395
 2043TIP3   OH227619   6.754   7.213  13.805  0.5844  0.4463 -0.0202
 2043TIP3    H127620   6.678   7.245  13.756  0.6610  1.9972  0.8027
 2043TIP3    H227621   6.759   7.120  13.785 -0.1389  0.7793 -1.9442
 2044TIP3   OH227622   1.471   2.511  10.032  0.5178  0.3902  0.1866
 2044TIP3    H127623   1.515   2.595  10.020  1.0547  0.0881  0.0087
 2044TIP3    H227624   1.542   2.449  10.051  0.2269 -0.1817 -0.5174
 2045TIP3   OH227625   2.817   2.735  10.787 -0.2605 -0.1469  0.7744
 2045TIP3    H127626   2.815   2.641  10.805 -1.0666 -0.1740  0.6090
 2045TIP3    H227627   2.858   2.742  10.700  1.0909 -0.2236  1.3819
 2046TIP3   OH227628   3.438   3.119  11.522 -0.0601 -0.9981 -0.8436
 2046TIP3    H127629   3.508   3.164  11.473  0.2692  0.6585  1.0033
 2046TIP3    H227630   3.482   3.046  11.565 -0.1566 -1.8654 -2.1430
 2047TIP3   OH227631   2.546   1.037  14.815  0.4511  0.0493  0.4302
 2047TIP3    H127632   2.638   1.049  14.837  0.3930  1.2863  0.0458
 2047TIP3    H227633   2.500   1.050  14.898  0.5713  0.0344  0.4999
 2048TIP3   OH227634   3.247   3.536   5.854  0.0647 -0.6001 -0.1120
 2048TIP3    H127635   3.267   3.629   5.843  0.9420 -0.8511 -0.7641
 2048TIP3    H227636   3.161   3.525   5.815 -0.3880  0.0836  0.6694
 2049TIP3   OH227637   6.416   1.682   1.743 -0.9948 -0.2441 -0.3513
 2049TIP3    H127638   6.363   1.745   1.791 -3.6050 -2.4160 -0.1197
 2049TIP3    H227639   6.486   1.659   1.803 -0.4931  1.7202 -0.1192
 2050TIP3   OH227640   4.690   6.534   9.509  0.6612  0.5263 -0.0609
 2050TIP3    H127641   4.742   6.484   9.571 -0.9418 -3.3081 -1.4236
 2050TIP3    H227642   4.603   6.540   9.550  0.6802  1.7215 -0.1768
 2051TIP3   OH227643   4.622   0.875  12.448  0.2602 -0.0451 -0.4959
 2051TIP3    H127644   4.710   0.889  12.412 -0.1044 -0.9713 -1.8308
 2051TIP3    H227645   4.634   0.884  12.543  1.7753 -0.0438 -0.6536
 2052TIP3   OH227646   3.245   6.117  12.983  0.0600 -0.3479  0.1022
 2052TIP3    H127647   3.305   6.043  12.987  0.1825 -0.5127 -2.7069
 2052TIP3    H227648   3.192   6.110  13.062  0.8855 -2.7170  0.5197
 2053TIP3   OH227649   3.403   3.185  15.291  0.3423  0.0521  0.5789
 2053TIP3    H127650   3.348   3.127  15.239  0.4866  0.8817 -0.5323
 2053TIP3    H227651   3.385   3.160  15.382 -1.6086  0.0781  0.2300
 2054TIP3   OH227652   2.331   2.886  10.122 -0.1947 -0.2568  0.2871
 2054TIP3    H127653   2.393   2.955  10.143  0.3479 -0.4328 -0.7190
 2054TIP3    H227654   2.297   2.858  10.208  1.5784 -0.6024  0.9163
 2055TIP3   OH227655   3.516   1.596  11.312 -0.6435 -0.2661  0.1581
 2055TIP3    H127656   3.448   1.573  11.376 -0.5667  1.2159  0.8208
 2055TIP3    H227657   3.593   1.615  11.365 -0.8490  1.9647 -0.2474
 2056TIP3   OH227658   2.753   3.505   9.639  0.1155 -0.5605 -0.1295
 2056TIP3    H127659   2.703   3.583   9.664  0.6331  0.6924 -2.6772
 2056TIP3    H227660   2.688   3.445   9.603  0.0595 -0.1276 -0.7617
 2057TIP3   OH227661   2.682   4.955  12.422 -0.5174 -0.1806 -0.1822
 2057TIP3    H127662   2.714   4.887  12.361  1.4950  0.2698  0.2767
 2057TIP3    H227663   2.755   4.968  12.483 -1.5831  1.0760  0.8813
 2058TIP3   OH227664   5.510   6.216   5.451  0.2241 -0.0455  0.3222
 2058TIP3    H127665   5.570   6.172   5.512  0.1611 -0.3342  0.1781
 2058TIP3    H227666   5.499   6.304   5.488  1.4004  0.2946 -0.0890
 2059TIP3   OH227667   1.866   0.816  14.510  0.0280  0.7425  0.0244
 2059TIP3    H127668   1.915   0.793  14.589  0.2159  2.1273  0.3374
 2059TIP3    H227669   1.927   0.803  14.438 -0.3601 -1.2332 -0.0199
 2060TIP3   OH227670   3.500   4.268   3.880 -1.1097  0.4695  0.0044
 2060TIP3    H127671   3.497   4.177   3.910  1.0029  0.3542 -0.0496
 2060TIP3    H227672   3.408   4.295   3.879 -1.8654 -1.8422 -0.5488
 2061TIP3   OH227673   0.535   3.071  12.013 -0.0835 -0.2538 -0.1910
 2061TIP3    H127674   0.521   3.102  11.923  0.1432  0.0137 -0.1372
 2061TIP3    H227675   0.622   3.105  12.036  0.1239 -0.8433 -0.0898
 2062TIP3   OH227676   4.090   2.400   3.097  0.2116  0.1781 -0.1550
 2062TIP3    H127677   4.005   2.363   3.074 -0.0591  0.0579  0.9647
 2062TIP3    H227678   4.136   2.409   3.014 -0.1397 -1.6277 -0.5825
 2063TIP3   OH227679   1.141   1.298   0.791 -0.0656 -0.0365  0.1559
 2063TIP3    H127680   1.046   1.312   0.790 -0.4912 -2.3925  0.9124
 2063TIP3    H227681   1.156   1.233   0.722  0.4198 -2.3067  2.2477
 2064TIP3   OH227682   4.001   4.454  13.489 -0.2510  0.3822 -0.3745
 2064TIP3    H127683   4.042   4.383  13.538 -0.3199 -0.3766 -1.3785
 2064TIP3    H227684   4.060   4.528  13.499  0.6983 -0.3156 -0.6963
 2065TIP3   OH227685   4.180   0.469   3.665  0.2059  0.3141 -0.2895
 2065TIP3    H127686   4.108   0.522   3.699  1.5700  2.0900 -0.0116
 2065TIP3    H227687   4.255   0.491   3.721  1.5937  0.4970 -2.0975
 2066TIP3   OH227688   2.346   2.366   9.290  0.3534  0.5910  0.0456
 2066TIP3    H127689   2.257   2.390   9.315 -0.0323  1.7093 -2.1866
 2066TIP3    H227690   2.402   2.411   9.353 -0.6111  0.5095  0.9930
 2067TIP3   OH227691   0.621   6.222  13.134 -0.0486  0.0358  0.2796
 2067TIP3    H127692   0.638   6.277  13.058  1.4008 -0.8287 -0.0495
 2067TIP3    H227693   0.579   6.281  13.197  0.2369  1.1693 -0.5575
 2068TIP3   OH227694   4.996   6.730  13.719  0.3684 -0.2276  0.0490
 2068TIP3    H127695   5.074   6.709  13.668  0.2298 -1.9510  0.4715
 2068TIP3    H227696   4.973   6.648  13.762 -1.8555  0.1301 -0.2974
 2069TIP3   OH227697   0.338   4.996  12.395 -0.5195  0.1268 -0.3533
 2069TIP3    H127698   0.373   5.081  12.369 -0.6172  0.1768 -0.3225
 2069TIP3    H227699   0.327   5.002  12.490 -2.5625  0.8576 -0.5918
 2070TIP3   OH227700   6.515   6.580  12.927  0.0786  0.6594  0.0767
 2070TIP3    H127701   6.533   6.621  13.012  0.8893 -0.1349  0.3066
 2070TIP3    H227702   6.481   6.493  12.950  2.3408 -0.4054 -0.3860
 2071TIP3   OH227703   2.586   0.823  14.679  0.1995  0.1922 -0.5562
 2071TIP3    H127704   2.552   0.891  14.738 -1.8611 -1.3012  0.1143
 2071TIP3    H227705   2.508   0.792  14.632  1.1980 -1.2416 -1.3074
 2072TIP3   OH227706   7.157   3.877  12.169 -0.2273 -0.0899 -0.1992
 2072TIP3    H127707   7.211   3.822  12.111 -0.5473 -0.4712 -0.1411
 2072TIP3    H227708   7.151   3.827  12.250 -1.7126 -0.6517 -0.6230
 2073TIP3   OH227709   5.026   7.018  15.249  0.4234  0.1932  0.6157
 2073TIP3    H127710   4.971   7.087  15.284  1.2039  0.0408  2.2449
 2073TIP3    H227711   5.006   7.016  15.156 -2.7475 -0.2421  1.1992
 2074TIP3   OH227712   2.378   1.453   2.716 -0.2448  0.2970  0.5520
 2074TIP3    H127713   2.417   1.374   2.679 -0.9197  0.2465 -0.0967
 2074TIP3    H227714   2.283   1.438   2.709 -0.3774  0.8320  1.1465
 2075TIP3   OH227715   5.069   5.886  14.573 -0.3078  0.0223  0.1370
 2075TIP3    H127716   5.064   5.877  14.668  2.1859  1.1034  0.4705
 2075TIP3    H227717   5.153   5.930  14.558 -0.2408 -0.8382 -2.6179
 2076TIP3   OH227718   0.869   0.975  10.066  0.3605  0.0280  0.0395
 2076TIP3    H127719   0.875   0.883  10.039 -0.9295  0.0407 -0.3330
 2076TIP3    H227720   0.853   1.023   9.985 -1.2474  0.3200  0.5019
 2077TIP3   OH227721   6.047   5.919  11.477 -0.1896 -0.3593 -0.0291
 2077TIP3    H127722   6.001   5.916  11.561 -1.4240 -0.2540 -0.6967
 2077TIP3    H227723   6.114   5.850  11.484 -1.6879 -1.8478  0.2261
 2078TIP3   OH227724   1.851   6.139  10.660  0.3030 -0.4256  0.2467
 2078TIP3    H127725   1.780   6.198  10.684  0.7215  0.5938 -0.9083
 2078TIP3    H227726   1.842   6.127  10.566  1.8579  0.0344  0.0065
 2079TIP3   OH227727   2.544   4.874  11.386 -0.3524  0.3720 -0.0842
 2079TIP3    H127728   2.452   4.898  11.373 -0.0478  1.8953  0.3142
 2079TIP3    H227729   2.582   4.874  11.298 -0.1479  2.4854 -0.0445
 2080TIP3   OH227730   4.048   2.589  11.121  0.6741 -0.5058  0.0260
 2080TIP3    H127731   3.971   2.563  11.171 -0.9081  2.6382 -0.5605
 2080TIP3    H227732   4.013   2.612  11.034  2.6641 -1.3065 -1.0502
 2081TIP3   OH227733   6.995   3.156  12.067  0.1607 -0.2516 -0.2497
 2081TIP3    H127734   7.079   3.120  12.036 -0.4262 -1.5815 -0.3665
 2081TIP3    H227735   6.972   3.223  12.003  0.5512 -0.7186 -0.8939
 2082TIP3   OH227736   0.054   0.552  10.457 -0.3030 -0.1092 -0.1932
 2082TIP3    H127737   0.089   0.640  10.473  0.0654 -0.1067 -0.9794
 2082TIP3    H227738   0.005   0.531  10.537 -1.8811  1.5252 -0.6744
 2083TIP3   OH227739   5.700   5.816   0.855  0.8608 -0.2430 -0.1686
 2083TIP3    H127740   5.726   5.801   0.764 -0.9984  0.6871 -0.9155
 2083TIP3    H227741   5.774   5.786   0.907  2.7934  1.0243 -2.0539
 2084TIP3   OH227742   5.400   6.156   9.614  0.7684  0.1894 -0.0883
 2084TIP3    H127743   5.431   6.109   9.536 -0.1424 -0.5452 -0.0212
 2084TIP3    H227744   5.318   6.196   9.587  0.3305 -0.2612  0.5528
 2085TIP3   OH227745   2.785   5.146  13.650  0.4287 -0.1790  0.0892
 2085TIP3    H127746   2.826   5.196  13.580 -1.4136 -0.5701 -1.3480
 2085TIP3    H227747   2.842   5.070  13.663  0.4529 -0.4445 -1.4822
 2086TIP3   OH227748   3.259   3.791  13.717  0.2956  0.1647 -0.1675
 2086TIP3    H127749   3.256   3.698  13.738  1.3454 -0.1069 -1.1293
 2086TIP3    H227750   3.346   3.819  13.746  1.0959  0.1729 -2.4291
 2087TIP3   OH227751   3.822   4.502  10.316 -0.6171  0.3878 -0.0741
 2087TIP3    H127752   3.829   4.597  10.302 -0.5183  0.1319 -1.9692
 2087TIP3    H227753   3.911   4.470  10.302 -0.4770  0.0657  1.3502
 2088TIP3   OH227754   1.223   4.717  12.807 -0.1624  0.2405  0.4510
 2088TIP3    H127755   1.212   4.684  12.718  2.9675  0.7763 -0.2372
 2088TIP3    H227756   1.217   4.639  12.863 -1.0644 -0.2498 -0.3056
 2089TIP3   OH227757   5.859   2.264  10.525  0.1625 -0.1412  0.4122
 2089TIP3    H127758   5.776   2.276  10.571  0.8674  0.2817  1.6496
 2089TIP3    H227759   5.845   2.188  10.469 -0.8628 -0.4566  1.0660
 2090TIP3   OH227760   4.044   4.921  11.076 -0.4171 -0.3696  0.4925
 2090TIP3    H127761   4.060   4.916  10.982 -0.6496  0.1210  0.4262
 2090TIP3    H227762   3.963   4.971  11.084  0.1644  0.5304  0.9896
 2091TIP3   OH227763   1.770   1.146   9.352  0.1364 -0.3374 -0.1845
 2091TIP3    H127764   1.729   1.231   9.331  1.2790  0.1314 -0.6159
 2091TIP3    H227765   1.703   1.099   9.402 -0.0398  1.3444  1.2671
 2092TIP3   OH227766   4.779   1.376  10.483 -0.0125 -0.1467 -1.0816
 2092TIP3    H127767   4.780   1.364  10.578  0.0120  0.4955 -0.9983
 2092TIP3    H227768   4.744   1.293  10.449 -1.1458  0.0532 -0.4449
 2093TIP3   OH227769   3.165   4.283  12.007  0.4813  0.7950 -0.4819
 2093TIP3    H127770   3.085   4.255  11.963  1.0261 -1.8780  0.0315
 2093TIP3    H227771   3.225   4.306  11.936  0.0969  0.3163 -0.9670
 2094TIP3   OH227772   4.766   3.743  10.559 -0.0717 -0.1141 -0.0665
 2094TIP3    H127773   4.720   3.752  10.643  1.1280  2.9197  0.4074
 2094TIP3    H227774   4.838   3.683  10.578 -1.3684 -1.6660  0.2448
 2095TIP3   OH227775   2.941   3.317  14.437  0.4138 -0.2403 -0.0279
 2095TIP3    H127776   2.903   3.239  14.478  0.9607 -0.3588  0.2605
 2095TIP3    H227777   2.938   3.384  14.506 -1.2977  0.4163 -0.6721
 2096TIP3   OH227778   4.547   1.131  13.472 -0.4635 -0.1984 -0.4978
 2096TIP3    H127779   4.565   1.070  13.544 -2.0539 -2.1021 -1.6344
 2096TIP3    H227780   4.614   1.111  13.407  0.3913  0.8756  0.0121
 2097TIP3   OH227781   1.105   5.174  12.004  0.2772 -0.1284 -0.1200
 2097TIP3    H127782   1.120   5.213  11.918  0.5207  0.2794  0.1072
 2097TIP3    H227783   1.023   5.214  12.034  1.0024  0.9314  0.5156
 2098TIP3   OH227784   1.745   4.736   2.587 -0.3464  0.0718 -0.5482
 2098TIP3    H127785   1.664   4.777   2.616 -0.1041  0.5448 -0.5276
 2098TIP3    H227786   1.798   4.809   2.554  1.1096  0.1667  1.7807
 2099TIP3   OH227787   1.863   0.877  11.644  0.2408 -0.3222 -0.2296
 2099TIP3    H127788   1.771   0.869  11.668  0.4018 -0.9844  0.1965
 2099TIP3    H227789   1.878   0.808  11.580 -0.0867  1.1820 -2.0330
 2100TIP3   OH227790   5.283   4.030   9.560 -0.4976 -0.4476  0.3020
 2100TIP3    H127791   5.324   3.964   9.616  0.9099  0.1552  0.0122
 2100TIP3    H227792   5.194   4.039   9.595 -0.0893 -1.1027  1.5505
 2101TIP3   OH227793   1.157   1.485   9.620 -0.5780  0.0518  0.5767
 2101TIP3    H127794   1.222   1.439   9.567 -1.7475 -0.7384 -0.2149
 2101TIP3    H227795   1.122   1.552   9.561  0.3069  1.2497  1.3633
 2102TIP3   OH227796   1.904   3.651   1.374 -0.2314  0.2497  0.3779
 2102TIP3    H127797   1.833   3.598   1.410  1.5038 -1.7231  1.0885
 2102TIP3    H227798   1.976   3.590   1.361  1.3161  2.1281 -0.4635
 2103TIP3   OH227799   1.087   6.679  10.373  0.2335  0.2519 -0.3114
 2103TIP3    H127800   1.146   6.745  10.337 -0.8708  2.4668  1.5602
 2103TIP3    H227801   1.003   6.696  10.329 -0.4237  1.1655  1.1949
 2104TIP3   OH227802   0.744   4.683  11.104  0.2174  0.0302 -0.4097
 2104TIP3    H127803   0.682   4.725  11.044  0.1366  1.1901  0.4542
 2104TIP3    H227804   0.824   4.672  11.052 -0.8670 -2.2180 -1.7936
 2105TIP3   OH227805   6.850   6.085  11.536  0.1250 -0.0581  0.4170
 2105TIP3    H127806   6.940   6.076  11.504  0.1663  3.3523 -0.7800
 2105TIP3    H227807   6.843   6.019  11.605  3.1487 -1.2142 -0.2147
 2106TIP3   OH227808   2.553   4.001  14.945  0.2720  0.0209  0.3669
 2106TIP3    H127809   2.468   3.976  14.910 -0.1245 -1.6938  2.3961
 2106TIP3    H227810   2.616   3.948  14.896 -0.1018 -0.8909  0.8556
 2107TIP3   OH227811   5.374   3.693  10.049  0.1668  0.0523  0.2797
 2107TIP3    H127812   5.288   3.724  10.022 -1.1513 -3.2392  0.1671
 2107TIP3    H227813   5.426   3.692   9.969 -0.6056 -0.4968 -0.2323
 2108TIP3   OH227814   4.525   5.543  10.712  0.5993 -0.0273 -0.7091
 2108TIP3    H127815   4.603   5.505  10.673  0.3443  0.1733 -1.4162
 2108TIP3    H227816   4.512   5.626  10.666 -0.4540 -0.3968 -1.1299
 2109TIP3   OH227817   4.201   3.722   0.940  0.0718  0.4723 -0.9370
 2109TIP3    H127818   4.271   3.778   0.908 -0.0642  1.0503 -0.2651
 2109TIP3    H227819   4.154   3.777   1.004  0.0933 -0.4904 -0.0626
 2110TIP3   OH227820   3.840   2.949  11.424 -0.0016 -0.1236 -0.3116
 2110TIP3    H127821   3.875   3.019  11.369 -0.0328 -0.6031 -0.9501
 2110TIP3    H227822   3.914   2.890  11.438 -0.0210 -0.0561  0.0728
 2111TIP3   OH227823   3.681   5.804  13.512 -0.0604  0.0700 -0.6134
 2111TIP3    H127824   3.677   5.732  13.448 -0.8536 -0.9219  0.5083
 2111TIP3    H227825   3.718   5.877  13.463 -1.3210 -0.4269 -2.4322
 2112TIP3   OH227826   4.056   0.024   3.526  0.2641 -0.0370 -0.1763
 2112TIP3    H127827   4.072  -0.066   3.499 -1.2770 -0.5196  0.4261
 2112TIP3    H227828   3.995   0.017   3.599  1.1380  1.4380  0.7489
 2113TIP3   OH227829   2.902   6.398  14.863 -0.4927  0.2089 -0.2104
 2113TIP3    H127830   2.997   6.399  14.878 -0.5687  1.0474  0.2546
 2113TIP3    H227831   2.865   6.437  14.942 -1.1282  1.2934 -1.0208
 2114TIP3   OH227832   2.493   4.636  10.458 -0.2655 -0.0178  0.3825
 2114TIP3    H127833   2.418   4.596  10.503  0.0520  0.8317  1.7372
 2114TIP3    H227834   2.569   4.596  10.498  0.0346  1.1333  1.0158
 2115TIP3   OH227835   4.688   0.754  10.730  0.2764 -0.5213  0.4180
 2115TIP3    H127836   4.687   0.660  10.710  0.8372 -0.3033 -0.7633
 2115TIP3    H227837   4.766   0.786  10.685 -0.5925  0.7313 -0.2413
 2116TIP3   OH227838   4.349   5.488   1.383  0.0273 -0.5223 -0.3349
 2116TIP3    H127839   4.429   5.487   1.330  0.0649  0.9417 -0.3497
 2116TIP3    H227840   4.378   5.516   1.470 -0.5903  1.1001 -0.6141
 2117TIP3   OH227841   5.285   6.285  10.303  0.0472 -0.5009  0.2742
 2117TIP3    H127842   5.249   6.351  10.362 -0.8909 -0.7949  0.0419
 2117TIP3    H227843   5.359   6.248  10.351 -0.1968 -0.1564  0.9216
 2118TIP3   OH227844   4.625   1.112  10.818 -0.1180 -0.0155 -0.7464
 2118TIP3    H127845   4.541   1.070  10.838 -0.8102  2.1203  1.2840
 2118TIP3    H227846   4.602   1.192  10.772  0.7778  0.7873  0.1672
 2119TIP3   OH227847   3.614   0.603  11.061  0.1181 -0.0812 -0.0006
 2119TIP3    H127848   3.567   0.660  11.123 -1.7417 -0.1030 -1.3095
 2119TIP3    H227849   3.550   0.535  11.038  1.2094 -0.8108 -0.9773
 2120TIP3   OH227850   2.415   3.787  11.667 -0.1692 -0.0343  0.2635
 2120TIP3    H127851   2.501   3.803  11.628  0.6025 -2.4424  0.8168
 2120TIP3    H227852   2.431   3.783  11.761 -0.8671 -0.5988  0.3698
 2121TIP3   OH227853   2.709   1.612  11.277 -0.2127  0.2677  0.0617
 2121TIP3    H127854   2.658   1.640  11.200 -1.5839 -0.1941  0.7648
 2121TIP3    H227855   2.665   1.655  11.351 -0.7588 -1.6241  0.8840
 2122TIP3   OH227856   1.142   1.385  11.381 -0.0807 -0.3107  0.0186
 2122TIP3    H127857   1.196   1.460  11.355  0.5667 -0.8095 -0.1172
 2122TIP3    H227858   1.205   1.320  11.411 -0.4498 -1.5340 -1.6673
 2123TIP3   OH227859   2.945   1.223  14.050 -0.0892  0.4178  0.1567
 2123TIP3    H127860   3.027   1.271  14.063 -0.4415  1.2501 -0.5604
 2123TIP3    H227861   2.882   1.290  14.021 -0.3303 -0.6080 -1.9348
 2124TIP3   OH227862   6.980   4.823  11.106  0.6049 -0.3414 -0.7214
 2124TIP3    H127863   6.898   4.864  11.078  0.5403 -0.0359 -0.1101
 2124TIP3    H227864   7.042   4.842  11.035  0.6223  0.9970 -0.3790
 2125TIP3   OH227865   2.420   2.710   1.417 -0.2181 -0.0235  1.1145
 2125TIP3    H127866   2.435   2.783   1.477  1.5482  1.0708 -0.5400
 2125TIP3    H227867   2.494   2.713   1.356 -3.0124  0.4928 -2.6492
 2126TIP3   OH227868   2.938   3.269   9.106 -0.3178 -0.2689  0.1599
 2126TIP3    H127869   2.871   3.333   9.079 -1.0219 -1.1106 -0.1509
 2126TIP3    H227870   2.994   3.317   9.167  0.3573  1.2433 -1.5479
 2127TIP3   OH227871   3.979   2.632  13.675 -0.1471  0.4918 -0.2288
 2127TIP3    H127872   3.993   2.629  13.769  1.1495 -2.0844 -0.4030
 2127TIP3    H227873   3.908   2.569  13.660 -2.3211  2.9023 -0.7940
 2128TIP3   OH227874   6.437   6.944  11.133 -0.5230  0.1900  0.5375
 2128TIP3    H127875   6.523   6.963  11.170  0.1484  0.6386 -1.1745
 2128TIP3    H227876   6.423   6.851  11.150  0.1973  0.1572  0.9845
 2129TIP3   OH227877   3.115   0.898  14.466 -0.1785  0.1299  0.4197
 2129TIP3    H127878   3.063   0.940  14.397  0.3725 -0.2870 -0.2749
 2129TIP3    H227879   3.102   0.804  14.451  2.1829 -0.0624 -0.9679
 2130TIP3   OH227880   6.595   2.006  11.445 -0.1990 -0.2749  0.4297
 2130TIP3    H127881   6.637   2.048  11.370  1.0311 -0.9822  0.6957
 2130TIP3    H227882   6.663   1.948  11.481 -0.5360  0.4881  2.4418
 2131TIP3   OH227883   5.188   1.357  11.647  0.2493 -0.6314  0.3703
 2131TIP3    H127884   5.261   1.338  11.706 -0.0246  1.6086  1.5334
 2131TIP3    H227885   5.138   1.426  11.692 -2.5160 -1.9604 -0.4418
 2132TIP3   OH227886   0.849   1.842  13.283  0.5198  0.1722 -0.4129
 2132TIP3    H127887   0.806   1.838  13.369 -0.0332 -0.2459 -0.6963
 2132TIP3    H227888   0.901   1.762  13.278 -0.2440 -0.3129 -0.8607
 2133TIP3   OH227889   6.051   0.041   9.858  0.6255 -0.4759  0.2387
 2133TIP3    H127890   6.002   0.053   9.777 -0.0029  3.5266  0.9889
 2133TIP3    H227891   5.995  -0.015   9.912 -0.7270 -0.1320 -0.7675
 2134TIP3   OH227892   0.749   1.635   0.862  0.3996 -0.0196 -0.6932
 2134TIP3    H127893   0.798   1.585   0.927  1.8789  2.3093  0.1237
 2134TIP3    H227894   0.683   1.682   0.913  0.4996  0.5698 -1.0938
 2135TIP3   OH227895   4.824   4.531  11.435 -0.4942  0.0691  0.3838
 2135TIP3    H127896   4.861   4.504  11.351 -0.9573  1.3233 -0.2545
 2135TIP3    H227897   4.892   4.585  11.475  0.3387 -1.7283  1.5509
 2136TIP3   OH227898   4.441   1.011  10.401 -0.7799  0.0737  0.4586
 2136TIP3    H127899   4.486   1.021  10.317 -0.5353  0.1650  0.5991
 2136TIP3    H227900   4.348   1.025  10.380 -0.6051  1.1896  0.3889
 2137TIP3   OH227901   2.160   4.392  11.401  0.5431  0.3592  0.0223
 2137TIP3    H127902   2.253   4.400  11.419  0.1097  1.3326  2.2145
 2137TIP3    H227903   2.134   4.310  11.443  0.2702  0.5313  0.1980
 2138TIP3   OH227904   2.994   2.980  12.091  0.0264 -0.5104 -0.3759
 2138TIP3    H127905   2.946   2.898  12.099  0.1435 -0.6296 -0.8260
 2138TIP3    H227906   2.930   3.043  12.058 -0.0838 -0.4000  0.0492
 2139TIP3   OH227907   5.027   1.520  11.488 -0.2506 -0.5456 -0.0972
 2139TIP3    H127908   5.109   1.478  11.513 -0.8345 -2.1925 -0.7790
 2139TIP3    H227909   5.042   1.613  11.503  2.1103 -0.6804 -1.1970
 2140TIP3   OH227910   0.271   0.989   1.948  0.2096  0.0874  0.4915
 2140TIP3    H127911   0.265   1.058   1.883 -0.2426  1.4675  1.9418
 2140TIP3    H227912   0.310   1.031   2.024  2.3395 -1.8851  0.6082
 2141TIP3   OH227913   0.011   5.089   4.839 -0.0955 -0.0915  0.1952
 2141TIP3    H127914   0.052   5.169   4.873  0.4900 -0.1297 -0.4222
 2141TIP3    H227915  -0.018   5.042   4.918  0.5721  0.1854  0.6116
 2142TIP3   OH227916   0.256   2.762  14.452 -0.2537 -0.2491  0.7299
 2142TIP3    H127917   0.211   2.780  14.369 -0.3525 -0.3714  0.7569
 2142TIP3    H227918   0.344   2.735  14.427 -0.0541  0.4111  0.6924
 2143TIP3   OH227919   6.331   5.793  10.987  0.2727  0.8651 -0.4407
 2143TIP3    H127920   6.243   5.780  10.952 -0.1670  0.0457  0.8727
 2143TIP3    H227921   6.347   5.887  10.977 -1.5319  1.4037  0.9627
 2144TIP3   OH227922   4.576   3.764   1.064 -0.0608  0.2489  0.4102
 2144TIP3    H127923   4.493   3.758   1.018 -0.9434 -1.3527  2.0571
 2144TIP3    H227924   4.624   3.686   1.036  1.7270  2.0388 -1.8942
 2145TIP3   OH227925   6.827   1.664  10.292 -0.3748 -0.2338  0.5187
 2145TIP3    H127926   6.819   1.568  10.296 -0.2061 -0.3483 -1.0968
 2145TIP3    H227927   6.882   1.686  10.367 -0.6578 -1.3650  1.0873
 2146TIP3   OH227928   5.908   3.756  15.303 -0.0848 -0.1251  0.3863
 2146TIP3    H127929   5.824   3.778  15.343 -0.8932 -1.5392 -0.4648
 2146TIP3    H227930   5.897   3.667  15.270  1.6666 -0.2459  0.0171
 2147TIP3   OH227931   5.517   0.798  12.593  0.0270  0.0200 -0.1198
 2147TIP3    H127932   5.589   0.835  12.541 -0.0656  2.5879  1.4087
 2147TIP3    H227933   5.443   0.793  12.532  0.8132 -0.3208 -1.0831
 2148TIP3   OH227934   6.727   3.821  11.486  0.1137  0.1022  0.0898
 2148TIP3    H127935   6.822   3.832  11.483 -0.1977  3.7848 -1.7461
 2148TIP3    H227936   6.704   3.832  11.578  1.3780  0.9930  0.3253
 2149TIP3   OH227937   6.768   4.301  12.877 -0.4678 -0.0682  0.0578
 2149TIP3    H127938   6.684   4.294  12.831 -0.3613 -1.0632  0.0023
 2149TIP3    H227939   6.834   4.279  12.811 -0.2983 -1.2915  0.6124
 2150TIP3   OH227940   2.268   4.725   4.719 -0.0864  0.2302 -0.2764
 2150TIP3    H127941   2.212   4.794   4.753  0.1709  0.0073  0.6186
 2150TIP3    H227942   2.348   4.770   4.690  0.3001  0.2648  0.7911
 2151TIP3   OH227943   6.717   1.635  12.843  0.9420 -0.5920 -0.0078
 2151TIP3    H127944   6.751   1.546  12.837 -0.2903 -1.0515 -0.6253
 2151TIP3    H227945   6.790   1.691  12.817  0.5483 -1.6865 -4.3856
 2152TIP3   OH227946   6.776   0.506  10.900 -0.0504 -0.1753 -0.0910
 2152TIP3    H127947   6.695   0.495  10.849  0.0086  0.5934 -0.3604
 2152TIP3    H227948   6.830   0.431  10.875 -0.5112 -0.4683 -0.2315
 2153TIP3   OH227949   2.115   4.007  12.309 -0.1736 -0.1091  0.0152
 2153TIP3    H127950   2.031   3.971  12.280 -0.0584 -0.4636  0.1211
 2153TIP3    H227951   2.180   3.963  12.254  0.0932 -1.1466  1.1221
 2154TIP3   OH227952   2.941   5.148  10.665  0.0461 -0.5760 -0.3071
 2154TIP3    H127953   2.905   5.236  10.655 -1.2659 -1.0501  0.0217
 2154TIP3    H227954   2.865   5.090  10.657  0.8774 -1.6820 -0.4573
 2155TIP3   OH227955   0.074   3.772  14.251 -0.2580 -0.0203 -0.1323
 2155TIP3    H127956   0.166   3.768  14.276 -0.2376  0.9059 -0.0072
 2155TIP3    H227957   0.035   3.834  14.313 -0.9446 -0.3370 -0.2393
 2156TIP3   OH227958   5.274   3.401  11.776 -0.0859  0.2318  0.3924
 2156TIP3    H127959   5.231   3.391  11.861 -3.9967 -0.4581 -1.4538
 2156TIP3    H227960   5.353   3.348  11.783 -1.2835 -1.4081  2.9877
 2157TIP3   OH227961   4.567   1.720   2.076 -0.2917 -0.3699  0.4266
 2157TIP3    H127962   4.525   1.650   2.026 -0.7076 -0.5010  0.9396
 2157TIP3    H227963   4.543   1.801   2.030  0.6621 -0.5972 -0.4901
 2158TIP3   OH227964   2.138   1.039  11.528  0.1212 -0.3517  0.2692
 2158TIP3    H127965   2.047   1.040  11.558 -0.2284 -1.0300 -0.6993
 2158TIP3    H227966   2.143   1.109  11.463 -0.4447 -1.9539 -1.6017
 2159TIP3   OH227967   0.694   6.677   9.556  0.5702 -0.3001  0.4095
 2159TIP3    H127968   0.658   6.759   9.523 -1.1900 -0.4305  1.8518
 2159TIP3    H227969   0.618   6.631   9.593  1.8676 -1.6167  1.5441
 2160TIP3   OH227970   3.793   0.770  13.352  0.0860 -0.1775 -1.0169
 2160TIP3    H127971   3.804   0.716  13.430  0.5421  0.5955 -0.5235
 2160TIP3    H227972   3.732   0.722  13.297 -1.3911 -0.0607  0.4648
 2161TIP3   OH227973   4.426   3.503   1.818  0.1350 -0.2135  0.2873
 2161TIP3    H127974   4.395   3.593   1.807  2.2618  0.5325 -0.0168
 2161TIP3    H227975   4.489   3.509   1.890  1.0458 -1.2528 -0.4021
 2162TIP3   OH227976   5.552   6.272  12.509  0.1759 -0.0860  0.4181
 2162TIP3    H127977   5.533   6.193  12.459  0.5727 -0.1549  0.3772
 2162TIP3    H227978   5.573   6.240  12.597  0.6644 -0.0514  0.3157
 2163TIP3   OH227979   4.225   0.524  12.952  0.9709 -0.5641 -0.3365
 2163TIP3    H127980   4.215   0.487  13.040  0.9585 -3.0559 -1.3139
 2163TIP3    H227981   4.180   0.463  12.894 -0.6624  1.9620 -1.9627
 2164TIP3   OH227982   1.286   1.974  15.304 -0.2842 -0.0857  0.6541
 2164TIP3    H127983   1.301   2.058  15.262 -2.3664 -0.1702 -0.4068
 2164TIP3    H227984   1.289   1.911  15.232 -1.6183 -0.5294  0.9696
 2165TIP3   OH227985   5.347   4.672  11.562 -0.0844  0.7084  0.6723
 2165TIP3    H127986   5.419   4.703  11.507 -0.4040 -0.0244 -0.1816
 2165TIP3    H227987   5.357   4.721  11.644  2.6795 -0.8661  1.4238
 2166TIP3   OH227988   5.688   0.578  11.176  0.2631 -0.2669 -0.0260
 2166TIP3    H127989   5.626   0.592  11.104  0.9234  1.9094 -0.2511
 2166TIP3    H227990   5.649   0.625  11.250  1.0961  0.1912  0.1316
 2167TIP3   OH227991   4.321   1.982   3.914  0.1853  0.3462  0.5952
 2167TIP3    H127992   4.236   1.946   3.889  1.1127 -1.6316  0.1058
 2167TIP3    H227993   4.362   2.006   3.831  1.3502 -1.7409  0.5046
 2168TIP3   OH227994   0.254   2.172  10.149  0.3226 -0.2460 -0.2190
 2168TIP3    H127995   0.236   2.079  10.164 -1.0727 -0.3828 -2.2907
 2168TIP3    H227996   0.203   2.218  10.216 -0.9685 -0.9289 -0.6984
 2169TIP3   OH227997   4.414   4.711  10.078 -0.0890  0.4182 -0.0569
 2169TIP3    H127998   4.335   4.687  10.029  1.8965 -2.8768 -2.1228
 2169TIP3    H227999   4.482   4.717  10.011  1.7227  1.7793  1.7736
 2170TIP3   OH228000   6.979   5.573   3.289  0.3014 -0.3966  0.2053
 2170TIP3    H128001   6.977   5.664   3.261  0.4508 -0.9153 -1.6188
 2170TIP3    H228002   6.931   5.572   3.372 -0.7494  1.1452 -0.3452
 2171TIP3   OH228003   3.743   6.636  13.671 -0.1107  0.4023 -0.5361
 2171TIP3    H128004   3.751   6.731  13.676  0.2475  0.3439  0.1366
 2171TIP3    H228005   3.819   6.608  13.620  0.2542  0.4097 -0.0011
 2172TIP3   OH228006   1.137   5.194  12.697  0.1010  0.7100  0.3002
 2172TIP3    H128007   1.138   5.110  12.742  0.8034  2.5703  4.1798
 2172TIP3    H228008   1.228   5.209  12.673  0.2429  1.0126  1.0118
 2173TIP3   OH228009   5.019   7.036  10.814 -0.1949  0.4378 -0.0321
 2173TIP3    H128010   4.977   7.093  10.749 -0.1937  0.2809 -0.1701
 2173TIP3    H228011   4.956   6.965  10.827  0.3451 -0.1935 -0.7907
 2174TIP3   OH228012   5.465   4.292  15.347 -0.1913 -0.2500 -0.3106
 2174TIP3    H128013   5.493   4.363  15.405  1.2307 -0.7622 -0.3287
 2174TIP3    H228014   5.507   4.311  15.264 -2.2055  0.4704 -1.2377
 2175TIP3   OH228015   2.121   1.321  11.884 -1.0839  0.2775  0.1184
 2175TIP3    H128016   2.031   1.351  11.883 -1.4387 -0.5319  2.1057
 2175TIP3    H228017   2.173   1.398  11.862 -2.2358  0.6987 -1.2844
 2176TIP3   OH228018   0.798   4.963  12.601 -0.0328  0.0566 -0.0260
 2176TIP3    H128019   0.720   5.011  12.628 -0.7545  0.3306 -2.3300
 2176TIP3    H228020   0.801   4.887  12.660 -1.6681  0.3827  0.5356
 2177TIP3   OH228021   1.181   5.030  13.690 -0.6434  0.0247 -0.2615
 2177TIP3    H128022   1.170   5.039  13.595 -2.1634  0.8579 -0.0282
 2177TIP3    H228023   1.263   5.076  13.709  0.3460 -1.2333 -1.3100
 2178TIP3   OH228024   4.072   4.567  13.207  0.0786 -0.1737  0.5276
 2178TIP3    H128025   4.104   4.609  13.127 -0.9050 -1.9375 -0.8898
 2178TIP3    H228026   3.993   4.616  13.230 -0.5116 -0.5647 -0.5448
 2179TIP3   OH228027   1.553   1.161  10.561  0.6185  0.1093  0.8521
 2179TIP3    H128028   1.569   1.152  10.655  0.3998  0.6238  0.9419
 2179TIP3    H228029   1.616   1.227  10.532  0.6870 -0.0508  0.6399
 2180TIP3   OH228030   3.490   2.899  13.101 -0.6818  0.2136  0.3543
 2180TIP3    H128031   3.486   2.944  13.017 -2.0422 -0.1827  0.1847
 2180TIP3    H228032   3.538   2.960  13.158  1.0759  0.0772 -0.9201
 2181TIP3   OH228033   5.857   6.881   1.805 -0.0839 -0.2367 -0.3397
 2181TIP3    H128034   5.881   6.950   1.744 -1.7174 -0.3824 -1.2016
 2181TIP3    H228035   5.797   6.825   1.756  0.7151 -1.9286  0.5367
 2182TIP3   OH228036   4.492   3.589  11.966  0.2815  0.0499 -0.1963
 2182TIP3    H128037   4.542   3.627  12.039 -1.4458  0.9964  0.5572
 2182TIP3    H228038   4.536   3.620  11.887  0.0227  2.1416  0.4336
 2183TIP3   OH228039   4.567   0.678  10.446  0.4856 -0.0625  0.5936
 2183TIP3    H128040   4.607   0.752  10.491  0.4965  0.3995 -0.1656
 2183TIP3    H228041   4.638   0.615  10.435  0.2871 -0.5774  2.0128
 2184TIP3   OH228042   3.454   0.636   2.489 -0.0972 -0.4584 -0.4803
 2184TIP3    H128043   3.384   0.696   2.514 -0.7674 -2.0130  1.7787
 2184TIP3    H228044   3.428   0.603   2.403  0.1848  2.2203 -1.6767
 2185TIP3   OH228045   2.221   6.074   1.541 -0.4034  0.8450  0.2024
 2185TIP3    H128046   2.164   6.107   1.472 -0.4699  1.4854  0.5622
 2185TIP3    H228047   2.162   6.051   1.612 -0.2818  0.7293  0.2680
 2186TIP3   OH228048   1.889   1.701   8.999  0.0852 -0.0536  0.5304
 2186TIP3    H128049   1.843   1.626   9.036 -2.0446  0.5580 -0.6904
 2186TIP3    H228050   1.933   1.666   8.921 -0.7669 -0.0885  0.0550
 2187TIP3   OH228051   5.489   6.406   3.472 -0.1224 -0.1790  0.1611
 2187TIP3    H128052   5.537   6.350   3.534  1.7760 -1.0794 -1.9945
 2187TIP3    H228053   5.501   6.364   3.387 -3.0306  0.7737 -0.8240
 2188TIP3   OH228054   4.001   6.938  15.292  0.3432 -0.3584 -0.7524
 2188TIP3    H128055   4.037   6.992  15.221 -1.0267  1.0850 -0.4230
 2188TIP3    H228056   3.907   6.956  15.289  0.2221 -0.5291  1.2137
 2189TIP3   OH228057   6.244   2.340  15.312  0.5957  0.1630  0.0817
 2189TIP3    H128058   6.178   2.281  15.348 -1.0140  1.8324  0.0144
 2189TIP3    H228059   6.325   2.316  15.357 -0.6889  0.0474  2.4983
 2190TIP3   OH228060   6.976   1.198  12.430 -0.0855 -0.3897  0.2891
 2190TIP3    H128061   6.938   1.242  12.506  0.0645 -1.7119  1.1642
 2190TIP3    H228062   6.953   1.254  12.356  0.5002  1.3847  1.3893
 2191TIP3   OH228063   3.485   3.203  13.511  0.4308 -0.0429 -0.1990
 2191TIP3    H128064   3.413   3.153  13.550  0.4313 -0.2923 -0.5131
 2191TIP3    H228065   3.541   3.227  13.585 -0.4281  0.9019  0.1721
 2192TIP3   OH228066   0.544   2.889  14.470 -0.2238  0.4250 -0.4281
 2192TIP3    H128067   0.613   2.870  14.407 -0.9955 -0.0211 -1.1608
 2192TIP3    H228068   0.590   2.908  14.551  0.7521 -0.0102 -0.8664
 2193TIP3   OH228069   6.568   0.329  12.937  0.3520 -0.0960  0.1069
 2193TIP3    H128070   6.504   0.271  12.896  0.2444  0.3502 -0.3706
 2193TIP3    H228071   6.518   0.378  13.002  0.1453  0.4584 -0.4677
 2194TIP3   OH228072   2.515   5.738  10.320  0.5209  0.1481 -0.4007
 2194TIP3    H128073   2.470   5.790  10.253  1.0102  0.1411 -0.7473
 2194TIP3    H228074   2.586   5.695  10.272  1.0431  0.3535  0.1817
 2195TIP3   OH228075   5.259   0.371  11.164 -0.1934 -0.2442  0.7711
 2195TIP3    H128076   5.299   0.302  11.110 -0.3155  0.3257 -0.0568
 2195TIP3    H228077   5.307   0.366  11.248 -0.7578 -1.8828  1.0376
 2196TIP3   OH228078   6.045   1.565   2.861 -0.1855 -0.0608  0.6052
 2196TIP3    H128079   6.008   1.650   2.835  0.2665  0.6278  2.1199
 2196TIP3    H228080   6.108   1.586   2.930  1.9974 -1.3440 -0.8690
 2197TIP3   OH228081   5.407   2.021  13.003 -0.6189  0.3493  0.0803
 2197TIP3    H128082   5.368   2.080  12.938  0.3384 -1.6430 -2.5113
 2197TIP3    H228083   5.478   1.977  12.955 -0.0942 -1.5448  2.4004
 2198TIP3   OH228084   5.074   5.996   4.634 -0.0616 -0.2157 -0.2025
 2198TIP3    H128085   5.141   6.056   4.665  1.3073 -2.3587  1.2082
 2198TIP3    H228086   5.022   6.048   4.572  2.3242  1.7659 -0.6708
 2199TIP3   OH228087   3.951   6.023  10.330 -0.0121 -0.2340  0.5916
 2199TIP3    H128088   3.857   6.008  10.338  0.0484 -0.9444  0.0255
 2199TIP3    H228089   3.964   6.111  10.365 -0.9595  0.0632  0.2237
 2200TIP3   OH228090   3.033   0.229  15.165 -0.6211 -0.5329 -0.5839
 2200TIP3    H128091   2.969   0.253  15.099 -0.9348 -2.1375 -0.8959
 2200TIP3    H228092   3.112   0.209  15.115  0.2731  1.6607 -0.1904
 2201TIP3   OH228093   3.430   5.253  11.408  0.0951 -0.1342 -0.3614
 2201TIP3    H128094   3.360   5.247  11.343  0.0345 -1.2399 -0.2165
 2201TIP3    H228095   3.508   5.276  11.357 -0.2632  0.5576 -0.6008
 2202TIP3   OH228096   6.634   1.715  14.475 -0.3569 -0.9690  0.3209
 2202TIP3    H128097   6.698   1.786  14.475 -2.2081  0.8623  2.1472
 2202TIP3    H228098   6.675   1.645  14.525  0.3608  0.0621  1.2253
 2203TIP3   OH228099   1.585   2.836  15.125  0.0619 -0.0220 -0.0618
 2203TIP3    H128100   1.641   2.791  15.061 -1.4358 -0.4132 -1.1540
 2203TIP3    H228101   1.510   2.778  15.136 -0.3420  0.6865  1.0543
 2204TIP3   OH228102   4.182   5.202  12.766  0.7817  0.0919  0.0417
 2204TIP3    H128103   4.105   5.252  12.793  0.9305  0.0777  0.5036
 2204TIP3    H228104   4.241   5.205  12.842 -0.2278 -2.8596  1.0981
 2205TIP3   OH228105   5.901   4.144   9.657  0.1193 -0.1645 -0.5362
 2205TIP3    H128106   5.879   4.062   9.613 -0.0460  0.0009 -0.7649
 2205TIP3    H228107   5.861   4.136   9.744  1.8542 -1.1893  0.2160
 2206TIP3   OH228108   0.516   3.389  12.728  0.0387 -0.5425  0.0235
 2206TIP3    H128109   0.535   3.447  12.654  0.7257 -0.6533  0.0988
 2206TIP3    H228110   0.451   3.436  12.779  1.5443  0.8067  0.7874
 2207TIP3   OH228111   6.969   5.822   0.825 -0.1073  0.0164  0.3670
 2207TIP3    H128112   6.964   5.881   0.900  0.1420 -0.2065  0.5606
 2207TIP3    H228113   6.929   5.871   0.753 -0.9063 -0.0001  0.7888
 2208TIP3   OH228114   5.396   2.861  10.629  1.1226 -0.1002  0.5818
 2208TIP3    H128115   5.484   2.852  10.667  1.0969 -0.7033  0.4954
 2208TIP3    H228116   5.410   2.919  10.554  1.3879  0.0871  0.7711
 2209TIP3   OH228117   3.637   3.277  12.407  0.5621  0.3540 -0.0533
 2209TIP3    H128118   3.663   3.369  12.414 -0.5187  0.5882  1.6539
 2209TIP3    H228119   3.568   3.276  12.341  0.2982  0.8535  0.2088
 2210TIP3   OH228120   1.851   5.709  12.707  0.4799  0.2462  0.3878
 2210TIP3    H128121   1.817   5.762  12.636 -0.8890  0.2469  1.0221
 2210TIP3    H228122   1.794   5.728  12.782  0.8877 -0.9652  1.0487
 2211TIP3   OH228123   3.352   0.554  12.907  0.2845 -0.1883  0.0817
 2211TIP3    H128124   3.335   0.640  12.945 -0.2800 -0.1219 -0.3041
 2211TIP3    H228125   3.350   0.569  12.812  1.9472 -0.2944 -0.0054
 2212TIP3   OH228126   1.590   4.531  10.769 -0.8446  0.1858  0.4518
 2212TIP3    H128127   1.635   4.581  10.701 -0.8068  0.5482  0.7445
 2212TIP3    H228128   1.619   4.441  10.754  1.5166  0.6455  1.7992
 2213TIP3   OH228129   6.623   0.163   4.473  0.1519  0.1583 -0.1633
 2213TIP3    H128130   6.702   0.216   4.459  0.4972 -0.5824 -1.0833
 2213TIP3    H228131   6.602   0.127   4.387 -1.0821  0.1747  0.1133
 2214TIP3   OH228132   5.371   1.457  13.101 -0.5646  0.0199 -0.1981
 2214TIP3    H128133   5.410   1.445  13.187  1.1389  0.6805 -0.8214
 2214TIP3    H228134   5.421   1.400  13.043 -1.8546 -0.6167 -0.7329
 2215TIP3   OH228135   5.224   5.421  13.297  0.4496  0.6261 -0.2457
 2215TIP3    H128136   5.158   5.469  13.346  0.9886 -0.3093  1.4946
 2215TIP3    H228137   5.307   5.459  13.326  0.8348 -0.6819  0.4805
 2216TIP3   OH228138   4.602   6.048  10.272  0.6693  0.3486  0.0824
 2216TIP3    H128139   4.656   6.003  10.337 -0.1606  0.6408  0.9901
 2216TIP3    H228140   4.633   6.014  10.188  4.0498  2.3286  0.3175
 2217TIP3   OH228141   6.981   5.486  11.755  0.2188 -0.7918 -0.5501
 2217TIP3    H128142   6.925   5.532  11.692  0.3723 -1.7322 -1.4009
 2217TIP3    H228143   7.000   5.551  11.822  0.6635  0.4668 -1.8530
 2218TIP3   OH228144   5.561   4.076  10.191  0.5868 -0.3449 -0.1024
 2218TIP3    H128145   5.502   4.009  10.226 -0.7923  1.1040  0.4872
 2218TIP3    H228146   5.512   4.114  10.117  1.1054  0.3442 -0.1037
 2219TIP3   OH228147   7.146   0.704  12.122 -0.5923  0.3724 -0.1541
 2219TIP3    H128148   7.227   0.729  12.166 -0.1114 -0.5932 -0.4624
 2219TIP3    H228149   7.165   0.618  12.083 -2.0894 -0.3516  0.6382
 2220TIP3   OH228150   2.917   1.853  12.643  0.6192 -0.4127 -0.4794
 2220TIP3    H128151   2.962   1.914  12.584  1.2850 -1.0271 -0.6128
 2220TIP3    H228152   2.983   1.827  12.707  0.0916 -0.3007  0.1288
 2221TIP3   OH228153   5.431   0.454   2.678 -0.1486 -0.4556 -0.4720
 2221TIP3    H128154   5.410   0.361   2.672 -3.2371 -0.0520  1.7104
 2221TIP3    H228155   5.485   0.462   2.757 -0.6462 -0.2986 -0.1463
 2222TIP3   OH228156   3.268   3.035  10.316 -0.2070 -0.1434 -0.0104
 2222TIP3    H128157   3.354   3.072  10.339 -0.8439  1.4472 -0.0912
 2222TIP3    H228158   3.286   2.942  10.300  1.5364  0.1840 -0.1969
 2223TIP3   OH228159   5.858   2.534   9.931 -0.1455  0.1830 -0.2407
 2223TIP3    H128160   5.874   2.587   9.853 -0.7028 -1.3280 -1.4371
 2223TIP3    H228161   5.944   2.527   9.973  0.1689  1.0210 -0.7204
 2224TIP3   OH228162   5.333   4.852  10.622 -0.4306  0.1583 -0.0092
 2224TIP3    H128163   5.344   4.945  10.639  0.7886  0.1793 -0.8013
 2224TIP3    H228164   5.326   4.845  10.526 -1.3506 -0.4954  0.0829
 2225TIP3   OH228165   4.485   1.681  10.210  0.5412  0.5578  0.1107
 2225TIP3    H128166   4.426   1.717  10.144 -0.5673 -0.3498  0.5690
 2225TIP3    H228167   4.499   1.753  10.272 -0.4514  0.6636  0.2224
 2226TIP3   OH228168   1.360   2.817  15.346 -0.7502  0.1638  0.4131
 2226TIP3    H128169   1.351   2.723  15.361  1.7390 -0.3652 -0.9817
 2226TIP3    H228170   1.325   2.831  15.258  0.5087  0.1761 -0.1115
 2227TIP3   OH228171   5.459   1.719  10.112 -0.7258  0.2655  0.0649
 2227TIP3    H128172   5.424   1.738  10.199  0.3537  0.1257  0.5453
 2227TIP3    H228173   5.541   1.673  10.129 -0.3884  0.4467 -1.0246
 2228TIP3   OH228174   1.146   7.034  10.518  0.2391 -0.3635  0.2891
 2228TIP3    H128175   1.187   7.038  10.431  1.9090 -1.9736  0.9327
 2228TIP3    H228176   1.192   6.963  10.563  0.3188  1.2660  2.9715
 2229TIP3   OH228177   1.312   2.518   2.508  0.1771  0.6762  0.3808
 2229TIP3    H128178   1.320   2.589   2.572 -0.4522  0.9640  0.1461
 2229TIP3    H228179   1.218   2.508   2.495  0.3136  1.0830 -1.0151
 2230TIP3   OH228180   1.723   1.300  13.483 -0.2827  1.4567  0.3587
 2230TIP3    H128181   1.672   1.299  13.564  2.5379  0.4240  2.2668
 2230TIP3    H228182   1.793   1.365  13.500  0.8036  0.6701 -0.9250
 2231TIP3   OH228183   1.886   0.661  12.019 -0.5621  0.0143  0.3780
 2231TIP3    H128184   1.875   0.735  12.079 -1.5591  0.3986 -0.2512
 2231TIP3    H228185   1.806   0.609  12.029 -0.7973  0.1469 -0.6863
 2232TIP3   OH228186   2.001   4.733   9.927  0.6998 -0.0524 -0.0991
 2232TIP3    H128187   2.065   4.731   9.999  1.4957 -1.8077 -0.7966
 2232TIP3    H228188   1.961   4.646   9.929  0.2946  0.0952 -1.3966
 2233TIP3   OH228189   6.579   3.697   9.405  0.4770  0.1290  0.0436
 2233TIP3    H128190   6.670   3.723   9.389  0.0330  0.3193 -2.4390
 2233TIP3    H228191   6.587   3.622   9.465  2.1413  1.1328  1.1853
 2234TIP3   OH228192   6.752   5.681  12.003  0.1824 -0.3585 -0.3943
 2234TIP3    H128193   6.845   5.668  12.021  0.2193 -0.7300 -0.8416
 2234TIP3    H228194   6.746   5.688  11.908 -0.1861  0.1764 -0.3345
 2235TIP3   OH228195   6.172   3.055  13.276 -0.4062  0.1233 -0.2285
 2235TIP3    H128196   6.143   2.989  13.339 -1.6669 -0.5175 -1.4226
 2235TIP3    H228197   6.144   3.138  13.313  0.3540 -0.0775  0.8371
 2236TIP3   OH228198   1.577   5.061  13.450  0.0914 -0.2477 -0.0334
 2236TIP3    H128199   1.658   5.044  13.497  0.1505  0.6529  0.2133
 2236TIP3    H228200   1.547   4.975  13.421  1.2092 -0.5752 -0.2545
 2237TIP3   OH228201   1.678   3.698  13.405 -0.0753  0.2260  0.2977
 2237TIP3    H128202   1.758   3.654  13.376 -0.9290 -1.6766  0.7394
 2237TIP3    H228203   1.620   3.695  13.329 -0.2288  0.3868  0.4076
 2238TIP3   OH228204   4.798   4.083   0.770 -0.7237  0.0440  0.0967
 2238TIP3    H128205   4.792   4.005   0.715  2.2038 -0.8161  0.8461
 2238TIP3    H228206   4.739   4.064   0.844 -0.3057 -1.3511  0.1125
 2239TIP3   OH228207   1.768   4.485   1.279 -0.1669  0.3241 -0.1810
 2239TIP3    H128208   1.808   4.436   1.351 -0.3768  0.0231 -0.2701
 2239TIP3    H228209   1.737   4.418   1.219  0.3608  0.5766 -0.7451
 2240TIP3   OH228210   3.708   0.706   9.828 -0.1326  0.4661 -0.0605
 2240TIP3    H128211   3.784   0.664   9.787 -0.3302  0.0594 -0.0219
 2240TIP3    H228212   3.669   0.758   9.758 -0.7836 -0.6533 -0.5673
 2241TIP3   OH228213   3.877   1.674   0.498 -0.2619 -0.1700 -0.2911
 2241TIP3    H128214   3.952   1.615   0.510  0.3731  0.7493  0.4644
 2241TIP3    H228215   3.848   1.693   0.586 -0.0471  1.1389 -0.4860
 2242TIP3   OH228216   5.849   6.237   9.581  0.0615  0.2117 -0.7290
 2242TIP3    H128217   5.786   6.188   9.634 -0.5467  1.1306 -0.5926
 2242TIP3    H228218   5.934   6.212   9.617 -0.3669  2.0003  1.8018
 2243TIP3   OH228219   5.360   1.111  11.001  0.2086  0.3727  0.0271
 2243TIP3    H128220   5.324   1.158  10.926 -0.0911  1.9134  1.0964
 2243TIP3    H228221   5.450   1.142  11.009  0.4331 -0.2375 -0.0395
 2244TIP3   OH228222   2.794   0.800  10.557  0.1761 -0.1605  0.3161
 2244TIP3    H128223   2.741   0.721  10.545 -0.6433 -0.0492  2.5683
 2244TIP3    H228224   2.737   0.858  10.608  1.4213  1.1625  0.2371
 2245TIP3   OH228225   1.700   4.780  11.122 -0.3455 -0.5525  0.0415
 2245TIP3    H128226   1.769   4.820  11.175  0.1758 -0.6121 -0.5765
 2245TIP3    H228227   1.731   4.691  11.107  1.2787  0.4060 -3.2557
 2246TIP3   OH228228   0.235   1.178  10.588  0.3791  0.0443 -0.3631
 2246TIP3    H128229   0.278   1.208  10.668 -2.8972  2.3240  0.7481
 2246TIP3    H228230   0.283   1.222  10.518  2.2323 -0.6325  0.4139
 2247TIP3   OH228231   5.866   1.446   9.505  0.0682  0.2983 -0.3294
 2247TIP3    H128232   5.931   1.428   9.438  1.7212  1.5310  0.8584
 2247TIP3    H228233   5.821   1.526   9.475  0.6794  0.7438 -0.0723
 2248TIP3   OH228234   0.755   1.135  14.712  0.0114 -0.3135  0.0099
 2248TIP3    H128235   0.676   1.175  14.675  0.6803  0.5884 -0.4766
 2248TIP3    H228236   0.731   1.116  14.803 -1.4091 -1.8943 -0.6195
 2249TIP3   OH228237   0.869   7.005  10.520  0.3985  0.2290  0.1438
 2249TIP3    H128238   0.816   6.989  10.442 -0.4142  2.8527  0.0501
 2249TIP3    H228239   0.959   7.010  10.487  0.2191 -0.0158 -0.3939
 2250TIP3   OH228240   2.922   0.683  13.232  0.4292  0.0386  0.0151
 2250TIP3    H128241   2.900   0.676  13.325  0.0480  0.7379 -0.0178
 2250TIP3    H228242   2.890   0.601  13.193 -1.1795  0.5757  0.1536
 2251TIP3   OH228243   3.460   4.541  10.208  0.4443 -0.1761  0.0458
 2251TIP3    H128244   3.375   4.585  10.201  0.0373 -0.8626  0.5350
 2251TIP3    H228245   3.441   4.449  10.192  0.9983 -0.4262  0.7688
 2252TIP3   OH228246   6.079   2.168  15.092  0.7116 -0.5726  0.0484
 2252TIP3    H128247   6.012   2.188  15.159  0.1131 -1.0614 -0.3916
 2252TIP3    H228248   6.152   2.131  15.141  0.4880 -0.4421  0.4875
 2253TIP3   OH228249   0.967   1.371  11.863  0.3908  0.7878 -0.2594
 2253TIP3    H128250   0.981   1.415  11.946 -0.6607 -0.2946  0.5295
 2253TIP3    H228251   1.042   1.395  11.809  0.8326  1.9023  0.8242
 2254TIP3   OH228252   6.119   0.979  10.097  0.3542 -1.1462 -0.4953
 2254TIP3    H128253   6.203   0.978  10.051  1.1792  0.0013  0.9191
 2254TIP3    H228254   6.126   0.907  10.159 -0.1938 -1.7893 -1.1637
 2255TIP3   OH228255   3.419   6.718  13.110 -0.2415  0.4680  0.1464
 2255TIP3    H128256   3.441   6.706  13.203  1.6583  1.6044 -0.1131
 2255TIP3    H228257   3.336   6.767  13.112 -0.3224  0.3144  1.2395
 2256TIP3   OH228258   2.441   4.873  11.930 -0.2058 -0.0096 -0.1656
 2256TIP3    H128259   2.355   4.830  11.934  0.4928 -1.3911  1.0704
 2256TIP3    H228260   2.503   4.800  11.925  1.0633  0.7765  2.4410
 2257TIP3   OH228261   4.302   4.948  11.724  0.1466 -0.3037 -0.3570
 2257TIP3    H128262   4.216   4.920  11.694  0.2041 -1.6093  0.6452
 2257TIP3    H228263   4.300   5.044  11.716 -2.1728 -0.0999  1.5855
 2258TIP3   OH228264   0.437   4.518  10.247 -0.3474 -0.1226 -0.7489
 2258TIP3    H128265   0.501   4.589  10.251 -1.1112  0.5297  0.6179
 2258TIP3    H228266   0.372   4.547  10.183 -0.0422 -0.1435 -1.0740
 2259TIP3   OH228267   5.456   3.606  13.583  0.8674  0.2448  0.3983
 2259TIP3    H128268   5.463   3.528  13.528 -1.3165  0.4401 -0.2786
 2259TIP3    H228269   5.523   3.665  13.549  1.6534 -0.8297  0.0340
 2260TIP3   OH228270   6.054   3.418  10.138 -0.1843  0.1753  0.3077
 2260TIP3    H128271   6.103   3.479  10.193  0.8132 -0.2635 -0.0598
 2260TIP3    H228272   6.036   3.467  10.058 -0.3528  0.3406  0.4455
 2261TIP3   OH228273   5.855   0.181  14.208  0.1919  0.3404  0.3721
 2261TIP3    H128274   5.905   0.256  14.178  0.2783  0.8391  1.6867
 2261TIP3    H228275   5.767   0.194  14.174 -0.1275  1.7279  1.6517
 2262TIP3   OH228276   4.687   3.818  11.425 -0.6951  0.0421  0.3673
 2262TIP3    H128277   4.689   3.738  11.477 -0.5916  0.8663  1.6928
 2262TIP3    H228278   4.678   3.888  11.490  0.8655  1.2207 -0.6094
 2263TIP3   OH228279   5.578   0.794   0.435 -0.1595  0.1355 -0.3143
 2263TIP3    H128280   5.523   0.790   0.513  1.6609  0.0698  1.0198
 2263TIP3    H228281   5.535   0.859   0.379 -2.7600 -1.4644 -0.3355
 2264TIP3   OH228282   2.484   4.453  13.376  0.5833 -0.0578 -0.1007
 2264TIP3    H128283   2.434   4.396  13.434  0.1233  0.0604 -0.3735
 2264TIP3    H228284   2.526   4.394  13.314  0.1240 -0.1076 -0.3712
 2265TIP3   OH228285   6.775   0.213  12.767  0.0429  0.1390  1.0628
 2265TIP3    H128286   6.847   0.261  12.725 -0.1015  0.1441  0.8222
 2265TIP3    H228287   6.709   0.279  12.785 -0.4562 -0.0665  0.0967
 2266TIP3   OH228288   6.032   2.213  12.727  0.5189  0.4901  0.1376
 2266TIP3    H128289   6.045   2.259  12.809 -0.5521  0.2522  0.4667
 2266TIP3    H228290   6.033   2.120  12.751  0.3152  0.4163 -0.1245
 2267TIP3   OH228291   0.429   2.679  12.906 -0.2168  0.1092 -0.0037
 2267TIP3    H128292   0.483   2.737  12.852 -2.2209  0.4076 -1.8318
 2267TIP3    H228293   0.353   2.732  12.929 -0.8845 -1.0159  0.4676
 2268TIP3   OH228294   5.262   6.315  13.643 -0.4002  0.4962 -0.3268
 2268TIP3    H128295   5.331   6.344  13.584 -0.2820  1.8543  0.4363
 2268TIP3    H228296   5.296   6.234  13.682  0.4938  0.8089 -0.4282
 2269TIP3   OH228297   2.434   2.606  11.671  0.1678  0.0615 -0.3510
 2269TIP3    H128298   2.375   2.670  11.631  3.0117  2.0677 -1.5978
 2269TIP3    H228299   2.383   2.571  11.745 -1.2195  4.6178  1.2164
 2270TIP3   OH228300   6.215   6.872  11.849 -0.5466 -0.6452  0.4135
 2270TIP3    H128301   6.188   6.788  11.813 -1.1290 -0.4445  0.3669
 2270TIP3    H228302   6.140   6.902  11.900 -1.0233  0.6103 -0.9276
 2271TIP3   OH228303   4.662   6.170  13.066  0.6905 -0.1470  0.5699
 2271TIP3    H128304   4.667   6.244  13.005 -2.0645  0.0784  0.5196
 2271TIP3    H228305   4.747   6.127  13.057  0.7640  0.4010 -2.7819
 2272TIP3   OH228306   3.758   3.191   9.589 -0.6120 -0.4481  0.6524
 2272TIP3    H128307   3.825   3.233   9.535 -1.1469 -0.4554 -0.0387
 2272TIP3    H228308   3.679   3.241   9.571 -0.1465  1.9434  4.1849
 2273TIP3   OH228309   3.172   7.100   9.889 -0.2198 -0.2755 -0.4071
 2273TIP3    H128310   3.108   7.162   9.852  0.8388  0.9211 -0.2669
 2273TIP3    H228311   3.220   7.067   9.812  1.3113  1.4627 -0.2413
 2274TIP3   OH228312   1.582   3.054   1.203 -0.7508  0.9143  0.0153
 2274TIP3    H128313   1.581   3.105   1.284  2.6090  1.0314  0.1399
 2274TIP3    H228314   1.622   3.113   1.139  0.0899 -0.4117 -0.7127
 2275TIP3   OH228315   1.208   5.317  12.355 -0.3119 -0.6373 -0.4331
 2275TIP3    H128316   1.186   5.243  12.412 -1.5011  0.0851  0.0811
 2275TIP3    H228317   1.143   5.313  12.285 -1.0995  0.5654  0.2051
 2276TIP3   OH228318   0.995   0.504  10.442 -0.0183 -0.1278  0.5141
 2276TIP3    H128319   0.993   0.466  10.530 -0.6440  1.4490  1.2177
 2276TIP3    H228320   0.903   0.506  10.414 -0.1645  1.9032  0.9991
 2277TIP3   OH228321   1.131   3.596  10.627  0.0900  0.3061 -0.0203
 2277TIP3    H128322   1.164   3.591  10.717  1.0368 -0.2505 -0.3832
 2277TIP3    H228323   1.143   3.688  10.603  1.0339  0.2020  0.0022
 2278TIP3   OH228324   2.129   3.917   9.673 -0.4292  0.3059 -0.1121
 2278TIP3    H128325   2.048   3.881   9.638 -1.5697 -1.6958  3.8933
 2278TIP3    H228326   2.196   3.853   9.647 -0.7709  0.1355 -0.5892
 2279TIP3   OH228327   6.033   4.025  10.750  0.0275  0.6207 -0.2018
 2279TIP3    H128328   5.948   3.982  10.764  0.1009  0.2223 -0.9633
 2279TIP3    H228329   6.094   3.975  10.805 -0.2064  0.8665  0.2941
 2280TIP3   OH228330   0.515   6.239  12.431  0.2577 -0.5217  0.5871
 2280TIP3    H128331   0.594   6.276  12.392 -1.0736  2.0789  0.0984
 2280TIP3    H228332   0.496   6.296  12.505 -0.9719 -1.2761  0.8783
 2281TIP3   OH228333   1.922   4.488  11.242  0.3366  0.7123 -0.2277
 2281TIP3    H128334   2.010   4.478  11.277  0.8713  1.2652 -1.3513
 2281TIP3    H228335   1.906   4.408  11.192 -0.8105 -0.5207  2.0010
 2282TIP3   OH228336   0.264   0.883   2.310 -0.0177  0.2048  0.2281
 2282TIP3    H128337   0.351   0.908   2.280 -0.5056  0.3880 -1.0973
 2282TIP3    H228338   0.260   0.915   2.400  1.8152 -1.1346  0.8487
 2283TIP3   OH228339   5.384   5.237  13.128 -0.3464  0.5234  0.1159
 2283TIP3    H128340   5.413   5.289  13.053 -2.1656 -0.0007 -1.0133
 2283TIP3    H228341   5.315   5.289  13.169 -1.7090 -0.6287 -0.6252
 2284TIP3   OH228342   3.034   3.979   9.923  0.0730  0.5060 -0.0098
 2284TIP3    H128343   3.106   3.952   9.866  1.7495  0.4541  2.0520
 2284TIP3    H228344   3.071   4.048   9.977 -1.6883  1.0354  0.5833
 2285TIP3   OH228345   1.623   6.147   9.700  0.0163 -0.7812 -0.1205
 2285TIP3    H128346   1.666   6.105   9.625 -0.5679 -1.0692 -0.2967
 2285TIP3    H228347   1.649   6.094   9.775 -0.2658 -1.1303 -0.2669
 2286TIP3   OH228348   0.593   1.078  13.731  0.0721  0.4062  0.4433
 2286TIP3    H128349   0.650   1.108  13.802  0.1784 -0.6379  0.8173
 2286TIP3    H228350   0.511   1.054  13.775 -0.5173  1.4553 -0.0346
 2287TIP3   OH228351   4.087   1.783  13.103  0.4803  0.4107 -0.0005
 2287TIP3    H128352   4.056   1.752  13.018  1.5359  0.7209 -0.5164
 2287TIP3    H228353   4.007   1.795  13.155 -0.2829  1.3981 -1.3488
 2288TIP3   OH228354   0.365   4.556  12.578 -0.1739  0.0843 -1.1483
 2288TIP3    H128355   0.300   4.568  12.647  1.4121 -1.0642  0.6383
 2288TIP3    H228356   0.330   4.606  12.504 -2.9849 -0.3422 -0.2543
 2289TIP3   OH228357   4.576   5.108   2.291  0.1207  0.0143  0.4763
 2289TIP3    H128358   4.565   5.199   2.263  2.1584  0.1307 -0.1114
 2289TIP3    H228359   4.648   5.111   2.354 -1.1523 -0.9446  2.0537
 2290TIP3   OH228360   2.213   3.901  13.697  0.1699  0.2445  0.2649
 2290TIP3    H128361   2.181   3.885  13.608  1.5654 -2.5252  0.1504
 2290TIP3    H228362   2.135   3.928  13.746 -1.3390 -1.4474 -1.0609
 2291TIP3   OH228363   1.797   6.863  12.159  0.4053  0.0566 -0.3827
 2291TIP3    H128364   1.721   6.814  12.191  0.4731  0.5325  0.5406
 2291TIP3    H228365   1.784   6.952  12.193  0.9279  0.3630 -0.9650
 2292TIP3   OH228366   3.870   6.365  11.362 -0.0417  0.3911 -0.0370
 2292TIP3    H128367   3.906   6.398  11.279 -0.2003 -1.3255 -0.8334
 2292TIP3    H228368   3.905   6.277  11.370 -1.1286  0.0337  1.0503
 2293TIP3   OH228369   4.669   0.425   9.816 -0.0646  0.4043 -0.1805
 2293TIP3    H128370   4.686   0.372   9.894  0.6143  0.9523  0.0521
 2293TIP3    H228371   4.650   0.361   9.747 -0.9599 -0.0719  0.4923
 2294TIP3   OH228372   1.156   7.151  13.078 -0.7864 -0.0298  0.1958
 2294TIP3    H128373   1.159   7.238  13.118 -2.1023 -0.2085  0.7294
 2294TIP3    H228374   1.132   7.093  13.149  1.0595 -1.0179  0.0747
 2295TIP3   OH228375   2.316   2.873  10.769 -0.5895 -0.0256 -0.0105
 2295TIP3    H128376   2.314   2.779  10.753  0.9460 -0.7477  3.2889
 2295TIP3    H228377   2.409   2.896  10.767 -0.8344  1.1322  0.6427
 2296TIP3   OH228378   5.468   4.055  13.279  0.0759  0.4021 -0.4695
 2296TIP3    H128379   5.443   4.097  13.361 -0.2285 -0.1389 -0.2800
 2296TIP3    H228380   5.427   3.969  13.283 -0.5249  0.6139 -1.4909
 2297TIP3   OH228381   0.893   6.497  10.941 -0.2146  0.0243 -0.3331
 2297TIP3    H128382   0.923   6.426  10.998 -1.5813 -0.7075 -0.4727
 2297TIP3    H228383   0.944   6.573  10.969  1.0313 -0.9249  0.0606
 2298TIP3   OH228384   0.723   3.611  13.086 -0.0228  0.2470 -0.4577
 2298TIP3    H128385   0.795   3.608  13.149 -0.4587 -3.2211  0.1163
 2298TIP3    H228386   0.645   3.593  13.139 -0.7675  0.0437 -1.5944
 2299TIP3   OH228387   5.191   6.869   3.393 -0.4546 -0.1531  0.2336
 2299TIP3    H128388   5.175   6.934   3.461  0.5211 -0.7860  1.0796
 2299TIP3    H228389   5.286   6.861   3.388 -0.5004 -0.1688 -1.1656
 2300TIP3   OH228390   3.325   3.102   2.599 -0.2864 -0.4464 -0.0275
 2300TIP3    H128391   3.371   3.031   2.644 -0.4618 -1.8953 -1.9846
 2300TIP3    H228392   3.393   3.149   2.551 -0.3856 -0.3284 -0.0538
 2301TIP3   OH228393   6.033   4.750  11.984  0.0401  0.4260  0.1341
 2301TIP3    H128394   6.037   4.705  11.899 -0.6562  0.9878 -0.2086
 2301TIP3    H228395   5.982   4.691  12.040  0.1495  0.2426  0.0398
 2302TIP3   OH228396   1.767   3.274   1.139  0.2402 -0.3774 -0.0226
 2302TIP3    H128397   1.839   3.250   1.198 -0.8781 -1.2600  1.0374
 2302TIP3    H228398   1.741   3.362   1.169 -1.4055 -1.4636  1.9960
 2303TIP3   OH228399   3.412   5.543  12.335  0.4637  0.0351 -0.2435
 2303TIP3    H128400   3.400   5.448  12.344 -0.8576  0.1606 -0.4164
 2303TIP3    H228401   3.445   5.555  12.246  2.2726 -0.3596  0.3337
 2304TIP3   OH228402   5.220   5.916  13.710 -0.3558 -0.5422  0.5452
 2304TIP3    H128403   5.126   5.927  13.727 -0.4192 -1.2590  0.6782
 2304TIP3    H228404   5.227   5.834  13.662 -0.0161  0.6732 -1.6174
 2305TIP3   OH228405   3.530   7.042  10.894 -0.1985  0.0623  0.1262
 2305TIP3    H128406   3.462   7.103  10.922  0.0109  0.0506  0.6595
 2305TIP3    H228407   3.592   7.097  10.845 -0.7905  0.0031 -0.7264
 2306TIP3   OH228408   0.586   3.853  10.764 -0.8895 -0.3509 -0.2334
 2306TIP3    H128409   0.565   3.936  10.807  1.1710 -0.5303  1.2832
 2306TIP3    H228410   0.674   3.866  10.730 -0.0500 -2.2279  1.0273
 2307TIP3   OH228411   1.854   6.089   9.335  0.0545  0.6247 -0.1597
 2307TIP3    H128412   1.914   6.153   9.296 -0.9875  0.2779 -2.5532
 2307TIP3    H228413   1.774   6.138   9.351  0.1827  0.5478  0.7981
 2308TIP3   OH228414   1.021   1.030  10.851  0.7042  0.8485 -0.1351
 2308TIP3    H128415   1.112   1.039  10.825  0.9448  2.8313  1.1812
 2308TIP3    H228416   0.982   0.975  10.783  2.8671 -0.0784 -0.6914
 2309TIP3   OH228417   3.051   4.413  14.390 -0.0808 -0.1261 -0.4193
 2309TIP3    H128418   3.096   4.400  14.307 -1.4882 -2.0017 -0.9669
 2309TIP3    H228419   2.980   4.474  14.370  0.2061  0.2355 -0.3405
 2310TIP3   OH228420   5.346   4.874   0.613  0.4137 -0.0405 -0.1325
 2310TIP3    H128421   5.404   4.936   0.657  1.1012 -0.1884 -0.8082
 2310TIP3    H228422   5.401   4.798   0.596 -0.0229 -0.2455 -0.6454
 2311TIP3   OH228423   5.121   6.923   0.372 -0.0209 -0.2915 -0.2482
 2311TIP3    H128424   5.167   6.839   0.379  0.2286 -0.2022 -0.8269
 2311TIP3    H228425   5.143   6.969   0.453 -1.6447 -1.5190  0.9686
 2312TIP3   OH228426   6.259   4.265  12.132 -0.6746  0.4881  0.0935
 2312TIP3    H128427   6.342   4.252  12.086  1.6797  2.9899  3.1258
 2312TIP3    H228428   6.267   4.212  12.211 -1.8448  0.9560  0.5483
 2313TIP3   OH228429   3.530   1.626  10.148  0.5170  0.1693 -0.4986
 2313TIP3    H128430   3.522   1.720  10.131 -1.3645 -0.0856 -1.1993
 2313TIP3    H228431   3.487   1.613  10.232  1.5052  0.0316 -0.0005
 2314TIP3   OH228432   3.703   1.337  14.396  0.0720  0.0062 -0.4638
 2314TIP3    H128433   3.728   1.286  14.319  4.3633  0.0948  0.5750
 2314TIP3    H228434   3.649   1.277  14.448 -0.7713 -0.9484 -2.3332
 2315TIP3   OH228435   1.638   3.498  12.319  0.2221  0.0523  0.3724
 2315TIP3    H128436   1.670   3.587  12.302  1.0917 -0.2834  0.1793
 2315TIP3    H228437   1.570   3.509  12.385 -0.6837  1.0131 -0.6681
 2316TIP3   OH228438   3.192   0.544  15.085  0.0487  0.4048 -0.2448
 2316TIP3    H128439   3.229   0.632  15.075  1.8029 -0.3562 -0.7977
 2316TIP3    H228440   3.156   0.523  14.999 -0.8868  0.7573  0.0357
 2317TIP3   OH228441   6.349   4.170  10.248  0.3509  0.2364 -0.1598
 2317TIP3    H128442   6.407   4.095  10.234 -0.8750 -1.2129  1.9534
 2317TIP3    H228443   6.408   4.245  10.250  1.7233 -0.7319 -1.5348
 2318TIP3   OH228444   6.204   3.729  12.953  0.3279 -0.5624  0.2221
 2318TIP3    H128445   6.256   3.677  12.892  0.4149 -0.8946  0.5767
 2318TIP3    H228446   6.114   3.698  12.941  0.6874 -2.6737  2.2566
 2319TIP3   OH228447   2.825   1.456  12.818 -0.3102 -0.3546 -0.3132
 2319TIP3    H128448   2.856   1.371  12.851 -2.2589 -1.2711 -0.7089
 2319TIP3    H228449   2.821   1.511  12.896 -0.2061 -0.9986  0.1584
 2320TIP3   OH228450   3.316   1.497  11.485 -0.0202 -0.1165 -0.0588
 2320TIP3    H128451   3.223   1.486  11.465  0.2413 -2.1947 -0.4267
 2320TIP3    H228452   3.318   1.526  11.576 -1.0450 -3.2978  1.1273
 2321TIP3   OH228453   0.678   4.160  14.030  0.3418  0.2939 -0.5426
 2321TIP3    H128454   0.658   4.254  14.035 -3.6496 -0.0206 -4.5690
 2321TIP3    H228455   0.755   4.155  13.974  0.5098  1.1256 -0.4104
 2322TIP3   OH228456   5.977   0.027  11.078  0.0119 -0.4921  0.2219
 2322TIP3    H128457   5.947   0.118  11.072 -1.1987 -0.9475 -1.1836
 2322TIP3    H228458   6.021   0.023  11.163 -2.1949  0.7637  1.5468
 2323TIP3   OH228459   1.047   1.609  11.156 -0.1909  0.3760 -0.1676
 2323TIP3    H128460   0.989   1.628  11.082 -0.1681 -0.0744 -0.3035
 2323TIP3    H228461   0.995   1.629  11.234 -1.1362 -1.5958 -0.2364
 2324TIP3   OH228462   1.776   2.806  10.277 -0.1661 -0.0353  0.1268
 2324TIP3    H128463   1.701   2.865  10.287 -0.7132 -0.6586 -0.1945
 2324TIP3    H228464   1.755   2.755  10.199  0.2336 -0.7444  0.4798
 2325TIP3   OH228465   4.907   0.186  14.963 -0.4348  0.1312 -0.1169
 2325TIP3    H128466   4.849   0.191  14.887 -0.3440  0.4397 -0.1690
 2325TIP3    H228467   4.849   0.199  15.038 -0.6404 -0.9205 -0.0828
 2326TIP3   OH228468   1.850   1.540   0.043 -0.5089 -0.0133  0.1200
 2326TIP3    H128469   1.768   1.494   0.026  0.5913 -1.5817 -1.2065
 2326TIP3    H228470   1.846   1.562   0.137 -2.5270  0.2047  0.0241
 2327TIP3   OH228471   1.629   2.910   0.504  0.0932 -0.1710 -0.0870
 2327TIP3    H128472   1.656   2.932   0.415 -0.1033  0.2031 -0.0545
 2327TIP3    H228473   1.648   2.988   0.556  2.4038 -1.1719  0.7045
 2328TIP3   OH228474   0.672   2.312  14.776 -0.0091 -0.1790 -0.2850
 2328TIP3    H128475   0.682   2.228  14.731 -1.9862 -0.7437  0.2317
 2328TIP3    H228476   0.714   2.299  14.861  1.2133 -0.0514 -0.8511
 2329TIP3   OH228477   0.203   0.555  14.499 -0.1485 -0.3080 -0.0579
 2329TIP3    H128478   0.237   0.497  14.431  2.0588  1.0009 -0.1793
 2329TIP3    H228479   0.168   0.630  14.451 -0.0747 -0.1142  0.1893
 2330TIP3   OH228480   0.775   6.664  13.087 -0.3078  0.4256 -0.4469
 2330TIP3    H128481   0.788   6.751  13.125  1.0311  0.4492 -0.9096
 2330TIP3    H228482   0.835   6.608  13.135 -0.0038  0.0752 -1.2166
 2331TIP3   OH228483   2.051   4.141  12.539  0.2030  1.2324 -0.1374
 2331TIP3    H128484   2.086   4.098  12.461 -1.4150  0.6459 -0.5818
 2331TIP3    H228485   1.970   4.094  12.558 -0.0786  2.1768  1.1664
 2332TIP3   OH228486   4.527   4.694   0.429  0.2599  0.3747 -0.1705
 2332TIP3    H128487   4.549   4.732   0.514 -0.6750  0.0428  0.2286
 2332TIP3    H228488   4.505   4.603   0.448  0.4579  0.1813 -0.8334
 2333TIP3   OH228489   7.199   6.815  10.286  0.0417  0.1570  0.1743
 2333TIP3    H128490   7.227   6.865  10.364  0.4549 -0.6888  0.5770
 2333TIP3    H228491   7.161   6.735  10.322 -2.7320  1.1229 -0.3592
 2334TIP3   OH228492   1.917   3.937  14.805  0.5023  0.0963  0.0281
 2334TIP3    H128493   1.996   3.967  14.850 -0.1664  3.0170 -0.5299
 2334TIP3    H228494   1.949   3.903  14.722  1.1996  1.8281 -0.4652
 2335TIP3   OH228495   3.629   0.695  14.236 -0.2133  0.5381  0.3276
 2335TIP3    H128496   3.706   0.741  14.269 -0.0339  1.2558 -0.9843
 2335TIP3    H228497   3.555   0.740  14.276  0.0213  0.6322  0.6558
 2336TIP3   OH228498   3.277   4.155   1.730 -0.0962 -0.2310  0.5107
 2336TIP3    H128499   3.269   4.248   1.751 -1.5010 -0.6418  1.9812
 2336TIP3    H228500   3.337   4.121   1.797  0.4597 -0.3886 -0.0573
 2337TIP3   OH228501   6.497   3.948  10.249 -0.0284 -0.0096  0.0287
 2337TIP3    H128502   6.577   3.918  10.293  0.2223  0.1025 -0.3446
 2337TIP3    H228503   6.427   3.899  10.291  0.2975 -0.5427 -0.0466
 2338TIP3   OH228504   5.885   0.153  10.442 -0.0600 -0.2749 -0.5638
 2338TIP3    H128505   5.795   0.182  10.456 -0.3562 -1.1987 -0.5274
 2338TIP3    H228506   5.886   0.119  10.352  0.5564  0.8108 -1.0000
 2339TIP3   OH228507   0.628   2.544  15.207  0.3566  0.0946 -0.0604
 2339TIP3    H128508   0.598   2.455  15.193 -0.3126  0.4320 -0.8359
 2339TIP3    H228509   0.690   2.538  15.280  0.4483 -1.0220 -0.2247
 2340TIP3   OH228510   2.128   7.006   9.351 -0.3529  0.2206  0.5344
 2340TIP3    H128511   2.214   6.966   9.359 -0.1701  0.6369  0.7047
 2340TIP3    H228512   2.129   7.049   9.266 -1.0236 -1.2249 -0.2397
 2341TIP3   OH228513   6.878   0.727  10.355 -0.2283 -0.3483 -0.0124
 2341TIP3    H128514   6.790   0.695  10.334 -0.4775  1.3021 -1.7740
 2341TIP3    H228515   6.923   0.728  10.271  0.5746  1.4368  0.3998
 2342TIP3   OH228516   3.466   3.641  10.143  0.7289  0.5136 -0.0155
 2342TIP3    H128517   3.393   3.667  10.085  0.8819  0.0069 -0.4469
 2342TIP3    H228518   3.545   3.665  10.094  0.8580  0.4998  0.1871
 2343TIP3   OH228519   3.925   6.910  10.295 -0.0138  0.4384 -0.1282
 2343TIP3    H128520   3.895   6.827  10.258 -0.2238  1.1647 -1.6784
 2343TIP3    H228521   3.943   6.890  10.387  0.2686 -1.3940 -0.5351
 2344TIP3   OH228522   4.203   4.827  12.297 -0.1414  0.6181 -0.1253
 2344TIP3    H128523   4.252   4.905  12.270  0.7159  0.2230  0.2593
 2344TIP3    H228524   4.167   4.792  12.215  2.3201 -0.5018 -0.8344
 2345TIP3   OH228525   0.547   7.063  10.655  0.2054 -0.4970  0.5219
 2345TIP3    H128526   0.482   7.131  10.676  0.8346 -0.0025  0.8943
 2345TIP3    H228527   0.604   7.060  10.732  1.9056  0.5899 -0.6424
 2346TIP3   OH228528   4.665   4.458  10.675 -0.0557  0.5301  0.1564
 2346TIP3    H128529   4.582   4.506  10.676 -1.0220 -1.0839  0.5394
 2346TIP3    H228530   4.722   4.511  10.618 -1.8123  0.8934 -1.3820
 2347TIP3   OH228531   4.979   7.039  11.734  0.4637  0.5047  0.1459
 2347TIP3    H128532   4.997   7.031  11.828  0.7053  2.9528  0.3632
 2347TIP3    H228533   5.040   6.978  11.693 -0.6020 -1.6776  1.5990
 2348TIP3   OH228534   5.999   5.404  10.317 -0.0371 -0.2641 -0.0911
 2348TIP3    H128535   6.064   5.384  10.384  1.4790 -0.4467 -1.5612
 2348TIP3    H228536   6.048   5.451  10.250 -1.6110  0.2976 -0.8856
 2349TIP3   OH228537   4.645   1.710   9.361  0.7395  0.9752  0.3738
 2349TIP3    H128538   4.741   1.708   9.356  0.7351  0.4728  0.4006
 2349TIP3    H228539   4.618   1.620   9.341  0.3071  0.9625  0.9782
 2350TIP3   OH228540   4.461   4.554  13.258 -0.5838 -0.2582  0.3057
 2350TIP3    H128541   4.419   4.627  13.304  0.4385 -0.6274  1.8883
 2350TIP3    H228542   4.554   4.567  13.271 -0.2782 -0.7557 -1.1471
 2351TIP3   OH228543   4.449   3.731  10.990  0.2493 -0.2419  1.5151
 2351TIP3    H128544   4.485   3.754  11.076 -0.0146  0.8082  1.3539
 2351TIP3    H228545   4.371   3.785  10.981  0.9495  0.5758  0.0987
 2352TIP3   OH228546   4.871   1.682   9.883 -0.6317  0.4294 -0.5989
 2352TIP3    H128547   4.824   1.703   9.964  0.3486  1.9370 -0.3783
 2352TIP3    H228548   4.808   1.699   9.813 -0.4465  2.5133 -0.3121
 2353TIP3   OH228549   5.236   0.006  12.638  0.0365  0.2302  0.0734
 2353TIP3    H128550   5.245  -0.071  12.581  1.4290  0.6248 -0.2804
 2353TIP3    H228551   5.295   0.071  12.599  0.0396  0.9441  1.2484
 2354TIP3   OH228552   3.543   3.600  11.463  0.3876 -0.3963  0.3599
 2354TIP3    H128553   3.533   3.674  11.403  1.6463 -1.1691 -0.8579
 2354TIP3    H228554   3.453   3.569  11.476  0.1219 -1.1358 -2.4043
 2355TIP3   OH228555   6.193   6.910  12.607 -0.2701 -0.2965  0.0814
 2355TIP3    H128556   6.271   6.872  12.567 -0.6457  0.0246 -0.9982
 2355TIP3    H228557   6.131   6.919  12.535 -1.6311 -1.3359  1.0627
 2356TIP3   OH228558   3.584   1.266   2.210 -0.1564 -0.4411 -0.1304
 2356TIP3    H128559   3.649   1.199   2.189  1.6416  0.9028  0.8686
 2356TIP3    H228560   3.570   1.257   2.304 -2.0325 -1.1734 -0.4313
 2357TIP3   OH228561   2.844   5.805  12.565 -0.1478  0.0817 -0.0544
 2357TIP3    H128562   2.852   5.712  12.544 -0.0861  0.4905 -1.9570
 2357TIP3    H228563   2.755   5.814  12.601 -0.3317 -0.6313 -0.3236
 2358TIP3   OH228564   7.042   0.979  11.677 -0.1109  0.1390  0.0756
 2358TIP3    H128565   7.123   0.930  11.684 -0.6223 -0.6938  0.2448
 2358TIP3    H228566   7.055   1.038  11.603  0.8242  0.3595  0.4104
 2359TIP3   OH228567   6.358   0.786  11.080 -0.6592  0.3948 -0.1456
 2359TIP3    H128568   6.363   0.694  11.107  1.0150  0.2427 -0.8236
 2359TIP3    H228569   6.372   0.784  10.986  0.8814  1.4175  0.0223
 2360TIP3   OH228570   6.795   0.474  12.061  0.1099 -0.0503  0.1262
 2360TIP3    H128571   6.729   0.407  12.046 -0.4544  0.7061 -0.8460
 2360TIP3    H228572   6.790   0.531  11.985 -0.9250  2.3521  1.8785
 2361TIP3   OH228573   0.066   2.622  11.009 -0.2719 -0.0259 -0.0284
 2361TIP3    H128574   0.085   2.657  10.921 -0.4466  0.8688  0.2814
 2361TIP3    H228575   0.011   2.689  11.050  1.8012  0.7299  1.6527
 2362TIP3   OH228576   0.549   3.962  15.020 -0.3757  0.5165 -0.1122
 2362TIP3    H128577   0.462   4.002  15.027 -0.8930 -0.4695 -0.5507
 2362TIP3    H228578   0.541   3.881  15.070  0.4331  0.6238  0.1973
 2363TIP3   OH228579   1.778   7.046  10.701 -0.0316  0.3184 -0.0884
 2363TIP3    H128580   1.788   7.071  10.609  1.5816  0.2737  0.0383
 2363TIP3    H228581   1.805   7.124  10.750 -1.0987  0.4202  0.3705
 2364TIP3   OH228582   5.674   3.114   0.234 -0.1395 -0.2910  0.0233
 2364TIP3    H128583   5.678   3.192   0.179 -0.6713 -1.7598 -2.2261
 2364TIP3    H228584   5.756   3.115   0.283  0.2717  1.1877 -0.6424
 2365TIP3   OH228585   2.859   1.921  14.322 -0.0774  0.0383  0.5721
 2365TIP3    H128586   2.814   1.946  14.403  0.6345 -0.4998  1.1478
 2365TIP3    H228587   2.927   1.860  14.351 -0.0419 -0.4342 -0.4804
 2366TIP3   OH228588   5.930   0.547  11.057 -0.1425  0.6529  0.6686
 2366TIP3    H128589   5.900   0.616  10.998  0.8404  1.5577  1.1923
 2366TIP3    H228590   5.857   0.532  11.116 -0.3211  1.3323  0.6248
 2367TIP3   OH228591   1.690   2.541   3.490  0.4764 -0.6421  0.7542
 2367TIP3    H128592   1.612   2.594   3.507  1.2292  0.0170  2.4121
 2367TIP3    H228593   1.725   2.574   3.408 -1.1829 -1.2178 -0.2299
 2368TIP3   OH228594   5.521   4.190  11.848  0.1131 -0.1976  0.3651
 2368TIP3    H128595   5.478   4.104  11.845  0.4102 -0.4166  1.6430
 2368TIP3    H228596   5.462   4.248  11.801 -0.1763 -1.0685 -0.3708
 2369TIP3   OH228597   3.251   5.299   9.511 -0.0438  0.0568  0.0708
 2369TIP3    H128598   3.318   5.366   9.522 -1.5785  2.1463 -2.3002
 2369TIP3    H228599   3.223   5.307   9.420 -1.4071 -2.8223  0.1055
 2370TIP3   OH228600   3.310   3.677   0.181  0.4035 -0.0940  0.0020
 2370TIP3    H128601   3.271   3.591   0.202  0.2360 -0.8429 -3.0166
 2370TIP3    H228602   3.323   3.718   0.267 -0.8502 -2.5326  1.4818
 2371TIP3   OH228603   5.665   1.043  11.266  0.7605  0.2145  0.3792
 2371TIP3    H128604   5.734   1.033  11.200  1.6593  1.1165  1.1513
 2371TIP3    H228605   5.651   1.138  11.271  1.0747  0.1979  1.8442
 2372TIP3   OH228606   0.626   3.319  12.416 -0.5491 -0.2262  0.0097
 2372TIP3    H128607   0.594   3.239  12.458 -2.4246  0.8622  0.7910
 2372TIP3    H228608   0.550   3.355  12.371  0.1470  1.3202 -0.0038
 2373TIP3   OH228609   4.256   7.015  12.966 -0.0553  0.0101  0.0092
 2373TIP3    H128610   4.285   6.936  13.013 -0.8899 -0.6422 -0.5382
 2373TIP3    H228611   4.213   6.982  12.888 -0.5106  1.0147 -0.1823
 2374TIP3   OH228612   4.065   1.323  11.110  0.5283 -0.2662  0.0364
 2374TIP3    H128613   4.099   1.408  11.138  0.6361 -0.0742 -0.6673
 2374TIP3    H228614   4.094   1.313  11.019 -1.3251 -0.0725 -0.6281
 2375TIP3   OH228615   5.720   6.630   2.255  0.1371 -0.1209  0.5310
 2375TIP3    H128616   5.647   6.661   2.201 -0.4398 -2.2655 -0.0316
 2375TIP3    H228617   5.779   6.705   2.262 -1.6005  1.3423  0.0991
 2376TIP3   OH228618   1.996   1.496  11.485  0.2399 -0.8871 -0.1917
 2376TIP3    H128619   2.083   1.489  11.524  0.2254 -2.7956 -0.3926
 2376TIP3    H228620   1.959   1.408  11.493 -1.9290  0.0140  0.4426
 2377TIP3   OH228621   5.467   0.448  13.551  0.0911 -0.7376 -0.0832
 2377TIP3    H128622   5.500   0.380  13.610  0.0339  0.2466  1.1305
 2377TIP3    H228623   5.483   0.414  13.464 -0.3973 -2.5252  0.4847
 2378TIP3   OH228624   0.641   5.282  12.568 -0.0531  0.5191  0.5262
 2378TIP3    H128625   0.736   5.284  12.581 -0.1633  0.9754  1.3624
 2378TIP3    H228626   0.613   5.198  12.605  0.1699 -0.2332 -0.9433
 2379TIP3   OH228627   5.636   3.174  10.063  0.8871  0.2418 -0.2948
 2379TIP3    H128628   5.706   3.239  10.051  0.1332  1.0849 -0.2452
 2379TIP3    H228629   5.576   3.190   9.990  0.6290 -0.3221 -0.2082
 2380TIP3   OH228630   5.084   1.814  13.048 -0.1268  0.1935 -0.4237
 2380TIP3    H128631   5.099   1.827  12.954  1.2728  1.3288 -0.0790
 2380TIP3    H228632   5.022   1.882  13.073 -0.4181 -0.0434 -0.4884
 2381TIP3   OH228633   3.044   2.019  11.211  0.0118  0.0851  0.2906
 2381TIP3    H128634   3.028   1.946  11.150 -1.1714  0.4692  0.1311
 2381TIP3    H228635   2.979   2.008  11.280 -0.5885  1.3454 -0.0596
 2382TIP3   OH228636   1.031   0.083  13.694  0.0481 -0.1612 -0.6120
 2382TIP3    H128637   1.121   0.095  13.665  0.2937 -1.4241 -0.4362
 2382TIP3    H228638   1.037   0.074  13.789 -0.4381  1.1308 -0.4346
 2383TIP3   OH228639   6.412   1.946   5.205 -0.8018  0.0217 -0.1536
 2383TIP3    H128640   6.360   1.912   5.278 -0.6418  0.6897  0.2827
 2383TIP3    H228641   6.361   1.925   5.127 -1.9988  1.1469  0.3072
 2384TIP3   OH228642   3.310   4.260  10.513  0.1254 -0.1114  0.2801
 2384TIP3    H128643   3.263   4.204  10.451 -0.3427  0.2333  0.3144
 2384TIP3    H228644   3.396   4.274  10.472 -0.1708  0.0989 -0.2921
 2385TIP3   OH228645   1.179   6.343  13.052  0.4749  0.0516  0.1272
 2385TIP3    H128646   1.171   6.338  13.148 -1.1908  1.0179  0.0924
 2385TIP3    H228647   1.169   6.436  13.033  1.0319 -0.1075 -0.9793
 2386TIP3   OH228648   0.891   4.432  15.260  0.3447  0.2584  0.0920
 2386TIP3    H128649   0.824   4.388  15.311 -0.7779  2.7464  0.9019
 2386TIP3    H228650   0.944   4.479  15.324  0.3773  1.5353 -0.8306
 2387TIP3   OH228651   1.320   0.581  10.080 -0.0342  0.7188  0.1197
 2387TIP3    H128652   1.366   0.590  10.163 -2.0067  1.2513  1.1993
 2387TIP3    H228653   1.231   0.556  10.104 -0.0972 -1.3736 -1.9448
 2388TIP3   OH228654   3.792   4.530  10.594  0.5716 -0.0278  0.0518
 2388TIP3    H128655   3.776   4.537  10.499 -1.9063  0.2841  0.4021
 2388TIP3    H228656   3.826   4.441  10.606 -0.9008 -0.7919 -0.9804
 2389TIP3   OH228657   3.857   2.696  10.946  0.4153  0.1567  0.4699
 2389TIP3    H128658   3.904   2.744  10.878  0.0826  2.2465  1.6488
 2389TIP3    H228659   3.841   2.760  11.015 -1.1739 -1.3437  1.5938
 2390TIP3   OH228660   3.821   2.082  13.021 -0.4370  0.1805 -0.0515
 2390TIP3    H128661   3.853   2.172  13.025  1.2143 -0.3683 -0.3764
 2390TIP3    H228662   3.727   2.091  13.004 -0.5159  1.8488  1.0000
 2391TIP3   OH228663   2.928   3.616  10.696  0.1565 -0.2575 -0.2244
 2391TIP3    H128664   2.965   3.531  10.720 -1.8476 -0.8475  0.9125
 2391TIP3    H228665   2.844   3.595  10.655  0.5104  1.1123 -1.7765
 2392TIP3   OH228666   7.013   2.001   0.791  0.3676  0.0269  0.4526
 2392TIP3    H128667   6.946   2.002   0.859  1.0254  1.2315  1.1093
 2392TIP3    H228668   6.972   1.955   0.718 -1.0882  0.5226  0.9167
 2393TIP3   OH228669   1.274   0.064   0.301  0.1006  0.2459 -1.0567
 2393TIP3    H128670   1.323   0.033   0.225  1.6084  0.8136 -0.3538
 2393TIP3    H228671   1.275   0.159   0.293  1.9650  0.4386  0.6151
 2394TIP3   OH228672   0.178   1.037  13.000 -0.3447  0.6790  0.0068
 2394TIP3    H128673   0.217   0.977  12.935  0.0569  1.6008 -0.6199
 2394TIP3    H228674   0.243   1.105  13.012 -1.0839  1.3718  0.1760
 2395TIP3   OH228675   1.331   7.091  10.873 -0.5911 -0.1336  0.1294
 2395TIP3    H128676   1.342   7.001  10.844  2.0117 -0.3628  1.5025
 2395TIP3    H228677   1.311   7.084  10.966  0.7972  0.6501  0.5272
 2396TIP3   OH228678   5.157   2.644  11.312  0.0594 -0.4829  0.7243
 2396TIP3    H128679   5.205   2.722  11.286  1.5728 -2.0333 -1.4863
 2396TIP3    H228680   5.065   2.671  11.311  0.5613  1.3376  0.3601
 2397TIP3   OH228681   3.754   2.142  10.728 -0.0288 -0.4923 -0.1140
 2397TIP3    H128682   3.743   2.231  10.693  1.2587 -0.6268 -0.9269
 2397TIP3    H228683   3.751   2.153  10.823  0.9431  0.5542 -0.1842
 2398TIP3   OH228684   4.257   2.394  10.084  0.2326  0.0239  0.0459
 2398TIP3    H128685   4.273   2.412  10.177 -0.3590  1.7084 -0.1444
 2398TIP3    H228686   4.186   2.453  10.060  0.2289 -0.5426 -1.4457
 2399TIP3   OH228687   0.488   2.404  13.484  0.5862  0.0753  0.5677
 2399TIP3    H128688   0.443   2.348  13.422  0.7666 -1.2176  1.5699
 2399TIP3    H228689   0.438   2.486  13.484  0.5229  0.0671 -1.1619
 2400TIP3   OH228690   3.194   6.078  11.061 -0.0929  0.1058 -0.4586
 2400TIP3    H128691   3.218   6.131  11.137 -0.4592 -2.2898  1.4442
 2400TIP3    H228692   3.237   6.121  10.987  1.7587  1.5451  1.3443
 2401TIP3   OH228693   4.124   0.429  14.719  0.0327 -0.0904 -0.2676
 2401TIP3    H128694   4.120   0.493  14.789 -0.4336 -2.2723  1.8281
 2401TIP3    H228695   4.217   0.407  14.713  0.0007 -0.3274  0.0859
 2402TIP3   OH228696   2.798   2.298  12.309 -0.2341  0.2081 -0.0248
 2402TIP3    H128697   2.766   2.253  12.231  1.4545 -1.3284  0.0918
 2402TIP3    H228698   2.884   2.330  12.285  0.3177 -0.2949  1.1791
 2403TIP3   OH228699   4.773   6.851  15.054  0.1804  0.6891 -0.0682
 2403TIP3    H128700   4.725   6.772  15.078 -0.8975  0.9706 -1.1882
 2403TIP3    H228701   4.865   6.825  15.057 -0.0842 -0.1766  1.0375
 2404TIP3   OH228702   5.754   5.814   9.130 -0.1399 -0.1958 -0.1919
 2404TIP3    H128703   5.703   5.804   9.210 -0.3924 -0.0050 -0.3258
 2404TIP3    H228704   5.819   5.744   9.133  0.8241  0.7087  0.9046
 2405TIP3   OH228705   4.199   1.025   3.927 -0.7226 -0.5743 -0.1419
 2405TIP3    H128706   4.165   0.942   3.895  1.4853 -1.1809 -1.0677
 2405TIP3    H228707   4.144   1.091   3.885 -1.5857 -1.5114 -0.5230
 2406TIP3   OH228708   7.226   6.290   9.229 -0.0287  0.1053  0.1793
 2406TIP3    H128709   7.288   6.266   9.298 -2.3673 -3.4474  1.3607
 2406TIP3    H228710   7.156   6.335   9.275 -0.5300 -0.1997 -0.2745
 2407TIP3   OH228711   6.848   6.342  10.853 -0.0545  0.1947  0.4239
 2407TIP3    H128712   6.848   6.354  10.758 -1.9241 -1.8310  0.0839
 2407TIP3    H228713   6.787   6.409  10.885 -1.3141 -0.6350 -0.1301
 2408TIP3   OH228714   4.525   4.500   0.144  0.1781 -0.2749  0.2507
 2408TIP3    H128715   4.497   4.527   0.057 -0.3383  0.0603  0.5193
 2408TIP3    H228716   4.449   4.513   0.200  0.8686  0.7045  1.0039
 2409TIP3   OH228717   2.929   4.095  10.474  0.1168 -0.1623 -0.3581
 2409TIP3    H128718   3.014   4.089  10.431  0.2268  0.8025 -0.2965
 2409TIP3    H228719   2.940   4.048  10.557  0.6188  0.0484 -0.3023
 2410TIP3   OH228720   5.090   1.161  10.533  0.0047  0.1171 -0.0897
 2410TIP3    H128721   5.129   1.220  10.468  0.1515  0.8722  0.6696
 2410TIP3    H228722   5.040   1.098  10.481 -0.2870  1.0022 -0.9210
 2411TIP3   OH228723   6.116   5.106  14.841 -0.0070  0.7275 -0.0302
 2411TIP3    H128724   6.164   5.176  14.886  0.9030  1.0340 -1.4135
 2411TIP3    H228725   6.163   5.026  14.866  0.3652  0.8724 -0.2517
 2412TIP3   OH228726   7.081   1.613  13.805  0.2086  0.1672 -0.0955
 2412TIP3    H128727   7.063   1.586  13.715  0.2611 -0.6249  0.1191
 2412TIP3    H228728   7.133   1.692  13.796  0.1336  0.1519 -0.7627
 2413TIP3   OH228729   2.561   2.835   4.606  0.1918  0.7195 -0.0887
 2413TIP3    H128730   2.542   2.835   4.513 -0.9527 -2.4782  0.0167
 2413TIP3    H228731   2.484   2.875   4.647  0.0848  0.8576 -0.4260
 2414TIP3   OH228732   1.598   3.006  10.318 -0.3409  0.1588  0.4819
 2414TIP3    H128733   1.600   3.068  10.391  0.4256  1.8802 -0.9306
 2414TIP3    H228734   1.511   2.965  10.324 -0.0037 -0.3366  2.7864
 2415TIP3   OH228735   0.437   2.298  10.322 -0.0942 -0.3172  0.4561
 2415TIP3    H128736   0.399   2.259  10.243  1.7012 -0.2306 -0.5192
 2415TIP3    H228737   0.387   2.377  10.336 -0.3340 -0.2326 -0.7407
 2416TIP3   OH228738   5.863   4.292  10.510  0.3133 -0.5326 -0.2319
 2416TIP3    H128739   5.943   4.277  10.460  0.4980  1.2982 -0.5559
 2416TIP3    H228740   5.871   4.382  10.541 -1.0488 -0.7476  0.8075
 2417TIP3   OH228741   4.361   1.182  10.707  0.1163  0.9646  0.0146
 2417TIP3    H128742   4.368   1.277  10.697  0.3714  1.2620  2.4422
 2417TIP3    H228743   4.298   1.155  10.640  2.3277  2.3424 -2.8512
 2418TIP3   OH228744   3.497   0.791  11.220 -0.1184  0.2407 -0.8532
 2418TIP3    H128745   3.538   0.873  11.248 -0.2239 -0.1516  0.5523
 2418TIP3    H228746   3.427   0.818  11.160  0.7224  1.0650 -1.4883
 2419TIP3   OH228747   4.928   4.432  11.200 -0.1525  0.1913 -0.2246
 2419TIP3    H128748   5.019   4.457  11.217 -0.1735  0.3788 -0.3897
 2419TIP3    H228749   4.928   4.403  11.108 -0.0204 -0.9046  0.1027
 2420TIP3   OH228750   2.727   4.936  10.906 -0.3168 -1.2230 -0.3931
 2420TIP3    H128751   2.822   4.951  10.907 -0.5792  0.7471 -0.0419
 2420TIP3    H228752   2.712   4.885  10.827  0.7291  1.1746 -2.2815
 2421TIP3   OH228753   1.628   2.294  13.677  0.0409 -0.2648  0.2817
 2421TIP3    H128754   1.594   2.329  13.759 -2.7186  0.0745 -0.8945
 2421TIP3    H228755   1.574   2.335  13.609  1.0738 -1.8263 -1.5865
 2422TIP3   OH228756   1.091   2.770  10.105  0.3629 -0.1056  0.0304
 2422TIP3    H128757   1.087   2.675  10.095 -1.8049  0.0109 -0.6893
 2422TIP3    H228758   1.099   2.783  10.199  0.2705 -0.9953  0.1757
 2423TIP3   OH228759   0.009   5.683  13.283 -0.0869 -0.5494  0.0478
 2423TIP3    H128760  -0.069   5.668  13.229  1.0034 -0.2047 -1.7122
 2423TIP3    H228761  -0.000   5.623  13.357 -0.5360 -2.7651 -1.7096
 2424TIP3   OH228762   1.356   0.529  13.718  0.0893  0.2655  0.5275
 2424TIP3    H128763   1.298   0.596  13.755  1.7172  2.4552 -0.6503
 2424TIP3    H228764   1.426   0.520  13.782  0.0830 -0.0238  0.4953
 2425TIP3   OH228765   5.940   6.473   9.533 -0.3578 -0.1177  0.1032
 2425TIP3    H128766   5.892   6.390   9.533 -1.2362  0.2401 -3.2535
 2425TIP3    H228767   5.875   6.538   9.560 -0.2827 -0.2621  0.6318
 2426TIP3   OH228768   1.842   0.752  12.442  0.1333 -0.3173  0.6700
 2426TIP3    H128769   1.788   0.808  12.497 -1.3432 -1.2129  0.1954
 2426TIP3    H228770   1.924   0.742  12.491  0.3640  1.9863  0.8825
 2427TIP3   OH228771   0.981   2.124  13.609  0.7452  0.7941  0.0312
 2427TIP3    H128772   1.073   2.104  13.627  0.0210 -2.5138  0.8479
 2427TIP3    H228773   0.969   2.101  13.517  1.0529  2.9304 -0.5905
 2428TIP3   OH228774   0.958   2.196  12.099  0.2316  0.2600 -0.3845
 2428TIP3    H128775   0.984   2.288  12.098 -0.9897  0.6291 -1.1974
 2428TIP3    H228776   1.030   2.150  12.142  0.6266  1.6676  0.5261
 2429TIP3   OH228777   0.708   4.547  13.568 -0.4547  0.2970  0.7009
 2429TIP3    H128778   0.757   4.467  13.553  1.5446  1.5295  0.1958
 2429TIP3    H228779   0.665   4.565  13.484 -1.8932 -0.8094  1.1595
 2430TIP3   OH228780   2.288   0.080  11.280  0.0823  0.0872  0.5169
 2430TIP3    H128781   2.332   0.162  11.258 -1.0832  0.0444 -2.4415
 2430TIP3    H228782   2.358   0.016  11.287  0.7497  0.5302 -1.4703
 2431TIP3   OH228783   2.716   5.766  11.931 -0.4829  1.1479 -0.1824
 2431TIP3    H128784   2.701   5.804  12.017  1.4119 -0.1531  0.8072
 2431TIP3    H228785   2.759   5.835  11.881 -0.8173  1.6383  0.1981
 2432TIP3   OH228786   6.750   7.242   9.627  0.3488  0.5448 -0.4774
 2432TIP3    H128787   6.745   7.151   9.596 -1.2954 -0.4352  2.2974
 2432TIP3    H228788   6.670   7.283   9.594  0.5192  0.6442 -0.7675
 2433TIP3   OH228789   2.245   1.094  11.087  0.3546 -0.2009 -0.1145
 2433TIP3    H128790   2.334   1.124  11.068  0.4075 -0.1682  0.1914
 2433TIP3    H228791   2.239   1.093  11.182  0.1406 -0.5427 -0.1305
 2434TIP3   OH228792   5.301   2.753  13.757 -0.0256  0.0827  0.6365
 2434TIP3    H128793   5.267   2.667  13.734 -0.4750  0.0635  1.3440
 2434TIP3    H228794   5.289   2.759  13.852 -0.2430  1.0298  0.5583
 2435TIP3   OH228795   0.580   5.935  10.294  0.2978  0.2082 -0.3771
 2435TIP3    H128796   0.658   5.919  10.240  0.9190 -0.2567  0.6306
 2435TIP3    H228797   0.576   5.860  10.354  0.6233  1.5330  1.3675
 2436TIP3   OH228798   5.633   4.451   1.432 -0.1046  0.1192 -0.2524
 2436TIP3    H128799   5.633   4.422   1.341 -0.3177 -1.0111  0.0991
 2436TIP3    H228800   5.606   4.374   1.482 -0.3394  0.8298  0.7358
 2437TIP3   OH228801   1.743   0.354  13.760  0.3388 -0.3166  0.0647
 2437TIP3    H128802   1.685   0.300  13.706  3.2797 -1.0477 -2.6599
 2437TIP3    H228803   1.757   0.434  13.710  1.0146  0.2256  1.0677
 2438TIP3   OH228804   1.953   2.456  13.938  0.1243  0.2473 -0.1745
 2438TIP3    H128805   1.939   2.442  13.844  0.7830 -0.0458 -0.2336
 2438TIP3    H228806   1.989   2.545  13.944  0.6967  0.0304 -0.2700
 2439TIP3   OH228807   6.257   1.652  14.805  0.1545  0.3190 -0.4257
 2439TIP3    H128808   6.231   1.740  14.833  1.9332  0.2988  1.5481
 2439TIP3    H228809   6.231   1.595  14.877 -0.6862 -0.7692 -1.5427
 2440TIP3   OH228810   4.827   6.620   2.059 -0.2773 -0.2422  0.0305
 2440TIP3    H128811   4.763   6.678   2.019 -0.3124 -0.1215  0.2591
 2440TIP3    H228812   4.807   6.623   2.153  1.0848  1.0734  0.3284
 2441TIP3   OH228813   4.595   3.650  11.720  0.0756  0.3295  0.0561
 2441TIP3    H128814   4.680   3.691  11.734  0.9018 -1.2226 -0.1443
 2441TIP3    H228815   4.611   3.557  11.733 -1.9692  0.1205  1.6508
 2442TIP3   OH228816   5.070   2.499   0.168  0.6517 -0.0764  0.1117
 2442TIP3    H128817   5.104   2.464   0.251 -1.7679  0.7231  1.5464
 2442TIP3    H228818   4.987   2.452   0.155 -0.3361  1.7137 -0.3996
 2443TIP3   OH228819   4.019   2.814  10.239 -0.2529  0.2290 -0.0833
 2443TIP3    H128820   4.083   2.809  10.169  0.9581  0.2763  0.9848
 2443TIP3    H228821   4.049   2.886  10.295 -1.1353  0.1313  0.5496
 2444TIP3   OH228822   1.398   5.273  14.209 -0.4834  0.0349  0.7732
 2444TIP3    H128823   1.355   5.188  14.198  1.1712 -0.7473 -0.0877
 2444TIP3    H228824   1.420   5.278  14.302 -0.3475 -0.6130  0.7781
 2445TIP3   OH228825   4.191   1.818  14.035  0.3791 -0.0051 -0.0122
 2445TIP3    H128826   4.134   1.856  14.103  0.3124 -0.4402  0.1754
 2445TIP3    H228827   4.148   1.841  13.953 -0.0931 -0.3589  0.1273
 2446TIP3   OH228828   2.030   2.576  12.622  0.2038  0.5656 -0.5256
 2446TIP3    H128829   2.039   2.655  12.568 -0.8821  0.1566 -1.3320
 2446TIP3    H228830   1.938   2.576  12.650 -0.2003 -1.1402 -1.7184
 2447TIP3   OH228831   4.931   1.964  10.588 -0.1940 -0.0303 -0.1564
 2447TIP3    H128832   4.890   1.881  10.613 -1.7480  0.3752 -1.2251
 2447TIP3    H228833   4.913   2.022  10.662  0.4530 -0.4819  0.3719
 2448TIP3   OH228834   6.850   0.102   9.883  0.7096  0.2048 -0.1469
 2448TIP3    H128835   6.880   0.178   9.833  0.1003  1.3898  1.2401
 2448TIP3    H228836   6.796   0.053   9.821 -1.0180  2.2695 -0.3905
 2449TIP3   OH228837   4.176   0.792  13.847  0.4869  0.4204 -0.9074
 2449TIP3    H128838   4.153   0.751  13.763 -0.5491  1.9304 -1.4041
 2449TIP3    H228839   4.135   0.878  13.843  0.7019  0.6475  1.0293
 2450TIP3   OH228840   3.909   6.496  12.522 -0.3652  0.0456  0.4012
 2450TIP3    H128841   3.896   6.576  12.472 -0.1388  0.1910  0.5770
 2450TIP3    H228842   3.823   6.476  12.558 -0.5851 -0.1845 -0.2322
 2451TIP3   OH228843   3.532   4.422   3.604 -0.1520 -0.5499 -0.8880
 2451TIP3    H128844   3.520   4.344   3.658 -1.3522  0.5170  0.4771
 2451TIP3    H228845   3.556   4.491   3.667 -0.4206  0.4738 -1.8700
 2452TIP3   OH228846   2.851   4.361  11.186  0.0433 -0.6270  0.3517
 2452TIP3    H128847   2.932   4.383  11.140  0.3533 -0.9797  0.7241
 2452TIP3    H228848   2.831   4.438  11.238 -0.3076 -0.2261 -0.3696
 2453TIP3   OH228849   0.375   5.354   4.085 -0.1112 -0.1271 -0.1509
 2453TIP3    H128850   0.450   5.378   4.031  0.5643 -0.1323  0.7798
 2453TIP3    H228851   0.307   5.330   4.021 -0.1696  2.2680 -1.0914
 2454TIP3   OH228852   5.561   0.199  12.964 -0.3946 -0.0387 -0.3898
 2454TIP3    H128853   5.531   0.195  12.873  0.0243  1.0640 -0.5881
 2454TIP3    H228854   5.490   0.242  13.011  0.1186  1.0000 -0.5380
 2455TIP3   OH228855   5.053   2.228   2.793  0.0099 -0.1649  0.2775
 2455TIP3    H128856   4.989   2.200   2.859 -0.0882  0.5626  0.5067
 2455TIP3    H228857   5.109   2.152   2.780 -0.4227 -0.5582  0.6569
 2456TIP3   OH228858   7.083   7.097  11.248 -0.0344 -0.2432 -0.4351
 2456TIP3    H128859   7.018   7.088  11.318  0.0074  0.1894 -0.3396
 2456TIP3    H228860   7.090   7.009  11.211 -2.0204  0.0660 -1.6633
 2457TIP3   OH228861   3.463   4.420  11.211  0.6387  0.6771 -0.4812
 2457TIP3    H128862   3.527   4.401  11.143  3.4201 -0.0032  2.1373
 2457TIP3    H228863   3.447   4.514  11.203 -1.3632  0.2495 -3.7293
 2458TIP3   OH228864   4.720   6.472  11.764 -0.0361 -0.1579  0.0721
 2458TIP3    H128865   4.639   6.437  11.726 -0.4529 -0.4630  1.2058
 2458TIP3    H228866   4.790   6.425  11.719 -0.3787  1.3583 -2.1877
 2459TIP3   OH228867   1.125   1.486   0.402 -0.2934 -0.5898 -0.6461
 2459TIP3    H128868   1.197   1.509   0.343  1.6822 -1.8615  1.0902
 2459TIP3    H228869   1.087   1.570   0.429  2.0737  0.3319  0.1190
 2460TIP3   OH228870   2.335   2.247  10.359 -0.2164  0.2062  0.1749
 2460TIP3    H128871   2.364   2.172  10.306 -1.8194 -1.7384  1.8723
 2460TIP3    H228872   2.254   2.275  10.318 -0.2412  0.2339  0.2430
 2461TIP3   OH228873   6.058   5.540  10.565 -0.0348 -0.5987 -0.5587
 2461TIP3    H128874   6.006   5.480  10.617  0.8016 -0.8324  0.0294
 2461TIP3    H228875   6.149   5.520  10.588  0.2604  1.1791 -0.0094
 2462TIP3   OH228876   1.994   2.850  13.545 -0.1703 -0.8057 -0.0230
 2462TIP3    H128877   2.003   2.940  13.514  2.0509 -1.0853 -0.3351
 2462TIP3    H228878   2.052   2.845  13.621 -1.0182 -1.7173  0.5781
 2463TIP3   OH228879   5.667   3.187  14.240 -0.3110 -0.7565  0.2471
 2463TIP3    H128880   5.626   3.105  14.269  0.0361 -0.4797  1.5889
 2463TIP3    H228881   5.747   3.194  14.292 -0.0130  0.1250 -0.3069
 2464TIP3   OH228882   0.304   2.685  13.854 -0.6663  0.0881 -0.5625
 2464TIP3    H128883   0.350   2.623  13.910 -0.6522  0.8834  0.3320
 2464TIP3    H228884   0.241   2.631  13.805  1.6674 -1.1423 -2.4026
 2465TIP3   OH228885   3.683   5.841  14.708 -0.5166 -0.1113  0.3968
 2465TIP3    H128886   3.680   5.798  14.794 -0.8033 -2.9789 -0.9341
 2465TIP3    H228887   3.776   5.854  14.691 -0.4173 -0.3646  0.7347
 2466TIP3   OH228888   1.126   6.412   0.745  0.3452  0.0200  0.7248
 2466TIP3    H128889   1.054   6.362   0.706 -0.7074  0.6502  1.7877
 2466TIP3    H228890   1.106   6.503   0.722 -1.1277  0.6194  3.7903
 2467TIP3   OH228891   4.405   1.145   9.189  0.0636 -0.3117  0.0461
 2467TIP3    H128892   4.485   1.116   9.144  0.2197 -2.4434  1.5474
 2467TIP3    H228893   4.336   1.089   9.153 -0.2575 -0.3208  0.6678
 2468TIP3   OH228894   0.665   1.340   2.530 -0.2346  0.5691 -0.1201
 2468TIP3    H128895   0.743   1.353   2.584 -0.4954  0.0985  0.3736
 2468TIP3    H228896   0.700   1.324   2.442  0.2970 -0.8417  0.3158
 2469TIP3   OH228897   0.230   4.045  10.267  0.4770  0.1022 -0.4002
 2469TIP3    H128898   0.220   3.999  10.184 -0.2320  0.6801 -0.6384
 2469TIP3    H228899   0.215   4.137  10.246  0.4305  0.2689  0.3415
 2470TIP3   OH228900   2.338   1.919  14.320 -0.0738  0.5286  0.1221
 2470TIP3    H128901   2.244   1.916  14.303  0.2074 -0.9213 -1.4195
 2470TIP3    H228902   2.378   1.888  14.239  1.6960  0.1853  1.0765
 2471TIP3   OH228903   6.193   5.195  10.114  0.2859 -0.2550  0.2499
 2471TIP3    H128904   6.216   5.276  10.160  1.2188 -0.8022  0.7680
 2471TIP3    H228905   6.275   5.167  10.073 -0.2222 -0.4950 -0.6337
 2472TIP3   OH228906   5.554   0.429   4.486  0.5331  0.9511  0.3837
 2472TIP3    H128907   5.619   0.391   4.427 -0.2135 -0.8802  0.6716
 2472TIP3    H228908   5.575   0.391   4.572 -1.0794  0.0524  0.4154
 2473TIP3   OH228909   1.230   1.874  13.379  0.1137 -0.4062 -0.3674
 2473TIP3    H128910   1.259   1.920  13.301  0.2086  0.0996 -0.0371
 2473TIP3    H228911   1.162   1.815  13.348  0.5764 -0.6537 -0.9325
 2474TIP3   OH228912   2.776   3.626  12.042  0.3201  0.1999 -0.2277
 2474TIP3    H128913   2.806   3.716  12.055 -1.4448  0.6633  1.0375
 2474TIP3    H228914   2.772   3.615  11.947  0.4042  1.5255 -0.3939
 2475TIP3   OH228915   6.025   6.632  11.047 -0.6072  0.3157 -0.1030
 2475TIP3    H128916   5.944   6.683  11.043 -1.0245 -0.2430  0.7350
 2475TIP3    H228917   6.079   6.666  10.977 -2.0755 -0.1725 -1.5471
 2476TIP3   OH228918   3.778   7.242  12.272 -0.1239 -0.1771 -0.1062
 2476TIP3    H128919   3.809   7.153  12.259  2.6200  0.8565 -1.3823
 2476TIP3    H228920   3.840   7.281  12.334 -0.9561  1.0403  0.0204
 2477TIP3   OH228921   4.091   5.128   0.521 -0.2023  0.0756  0.2883
 2477TIP3    H128922   4.067   5.069   0.450  0.0496  1.0549 -0.6262
 2477TIP3    H228923   4.018   5.123   0.582 -0.3967 -0.8108 -0.0002
 2478TIP3   OH228924   0.563   3.042   4.005 -0.3221  0.3026  0.3004
 2478TIP3    H128925   0.544   2.949   3.990  0.5960  0.2170 -0.4466
 2478TIP3    H228926   0.657   3.045   4.024 -0.1311  1.1708 -0.6865
 2479TIP3   OH228927   5.959   6.517  11.402  0.2406  0.0710  0.4504
 2479TIP3    H128928   5.885   6.557  11.356  1.2409 -0.0721 -1.3679
 2479TIP3    H228929   6.034   6.572  11.381  0.8863 -0.4681  1.2645
 2480TIP3   OH228930   6.943   2.703  14.051  0.7459 -0.3512  0.5906
 2480TIP3    H128931   6.978   2.790  14.028 -2.0515  0.5844 -0.6856
 2480TIP3    H228932   6.972   2.646  13.979  1.9421 -0.3193  1.0256
 2481TIP3   OH228933   6.268   1.119   0.844  0.0232  0.2196  0.1584
 2481TIP3    H128934   6.321   1.195   0.816  0.1135 -0.1909 -0.8292
 2481TIP3    H228935   6.230   1.146   0.927  0.3723  1.2043  0.0149
 2482TIP3   OH228936   3.653   7.059  12.025 -0.5608  0.0280  0.2776
 2482TIP3    H128937   3.631   7.149  12.003 -0.8064 -0.1240 -0.1276
 2482TIP3    H228938   3.654   7.014  11.940  2.0694  0.1677  0.1676
 2483TIP3   OH228939   5.332   5.317  13.660  0.0653 -0.4760 -1.0000
 2483TIP3    H128940   5.326   5.241  13.717  0.2794 -0.5638 -1.0924
 2483TIP3    H228941   5.242   5.348  13.650  0.1529  0.4085  0.5618
 2484TIP3   OH228942   3.089   4.905  11.204  0.0101 -0.2043  0.2795
 2484TIP3    H128943   3.013   4.848  11.211  1.2947 -2.0438 -0.0231
 2484TIP3    H228944   3.100   4.943  11.291 -1.6870  0.7441  0.1231
 2485TIP3   OH228945   4.164   5.408  14.405  0.1705 -0.5474 -0.8632
 2485TIP3    H128946   4.085   5.450  14.438  0.2192 -0.4272 -0.8966
 2485TIP3    H228947   4.164   5.321  14.443 -0.0601 -0.6018 -0.9873
 2486TIP3   OH228948   0.544   7.011  12.586  0.3680 -0.0851 -0.0636
 2486TIP3    H128949   0.456   7.006  12.625 -1.1704  1.4071 -3.0218
 2486TIP3    H228950   0.556   6.927  12.543 -1.1695  0.8071 -2.4444
 2487TIP3   OH228951   4.591   5.299  10.349  0.3247  0.4645 -0.0345
 2487TIP3    H128952   4.636   5.216  10.335  0.5948  0.5169  0.5034
 2487TIP3    H228953   4.655   5.366  10.326  1.2649  0.5939  2.5959
 2488TIP3   OH228954   0.113   2.468   1.394  0.5997  0.7329  0.2320
 2488TIP3    H128955   0.198   2.451   1.436  0.1759  1.3158  1.3777
 2488TIP3    H228956   0.118   2.558   1.364  0.4202  0.7392  0.2199
 2489TIP3   OH228957   0.463   6.262   4.404 -0.4733 -0.2658  0.5185
 2489TIP3    H128958   0.434   6.293   4.318  1.8508 -0.4306 -0.4121
 2489TIP3    H228959   0.447   6.168   4.403 -0.1756 -0.3133  0.1378
 2490TIP3   OH228960   0.546   0.465  11.415  0.1710 -0.3851 -0.1330
 2490TIP3    H128961   0.451   0.473  11.421  0.3549  0.9459  2.0476
 2490TIP3    H228962   0.575   0.548  11.377  0.6356  0.9121  2.7595
 2491TIP3   OH228963   3.742   1.948  15.154 -0.3747 -0.2916 -0.2543
 2491TIP3    H128964   3.652   1.955  15.122  0.1035 -0.6683 -1.7365
 2491TIP3    H228965   3.792   2.008  15.098 -0.0310  1.7873  2.0673
 2492TIP3   OH228966   4.224   1.833  14.819  0.6336 -0.0871 -0.0534
 2492TIP3    H128967   4.214   1.738  14.821 -1.1368  0.0554  2.8030
 2492TIP3    H228968   4.319   1.846  14.808  1.1532 -2.2174  1.2745
 2493TIP3   OH228969   6.190   5.111   9.255  0.5132  0.0347  0.5403
 2493TIP3    H128970   6.149   5.090   9.172  0.6874  0.4044  0.3584
 2493TIP3    H228971   6.181   5.206   9.264  2.0162  0.2413  0.1120
 2494TIP3   OH228972   5.160   3.466  11.521  0.2665 -0.1863  0.2784
 2494TIP3    H128973   5.171   3.461  11.616 -0.5588 -0.1129  0.3826
 2494TIP3    H228974   5.235   3.418  11.486  0.3692 -0.5475  0.9717
 2495TIP3   OH228975   7.231   6.143  13.273  0.4530  0.0722 -0.4234
 2495TIP3    H128976   7.312   6.093  13.267 -1.2771 -2.7970 -1.7010
 2495TIP3    H228977   7.174   6.090  13.330 -1.7262  0.0991 -2.4456
 2496TIP3   OH228978   1.004   0.777   0.686  0.1500 -0.1483 -0.3912
 2496TIP3    H128979   1.025   0.768   0.593  0.1214  0.1672 -0.4310
 2496TIP3    H228980   1.005   0.688   0.720 -0.9863 -0.3849 -0.9334
 2497TIP3   OH228981   0.579   1.594  10.567 -0.1680 -0.2569  0.1423
 2497TIP3    H128982   0.629   1.673  10.586 -0.7510 -0.0117  0.6980
 2497TIP3    H228983   0.487   1.622  10.573 -0.4776 -1.5773  3.2188
 2498TIP3   OH228984   7.106   6.092  12.800  0.1919  0.8584 -0.2750
 2498TIP3    H128985   7.048   6.149  12.751 -0.6570 -0.8664 -1.3737
 2498TIP3    H228986   7.177   6.072  12.739  0.5972  0.9028  0.1783
 2499TIP3   OH228987   4.784   4.443   3.797 -0.1766 -0.3507  0.1226
 2499TIP3    H128988   4.804   4.434   3.890  1.6430  0.4256 -0.1374
 2499TIP3    H228989   4.854   4.395   3.753 -0.6847 -0.2238 -0.8541
 2500TIP3   OH228990   6.869   4.917  11.759 -0.4385  0.1958 -0.1475
 2500TIP3    H128991   6.887   4.978  11.830 -0.6927  0.4552 -0.3049
 2500TIP3    H228992   6.792   4.953  11.714  0.8256  1.0816 -1.7176
 2501TIP3   OH228993   2.493   2.045  10.553 -0.4435 -0.3227  0.1419
 2501TIP3    H128994   2.531   2.129  10.530 -1.5356  0.8041  2.1600
 2501TIP3    H228995   2.475   2.002  10.469  3.1399 -0.0158 -0.9116
 2502TIP3   OH228996   0.427   0.783  10.330  0.3637  0.4411 -0.4683
 2502TIP3    H128997   0.518   0.772  10.303 -0.1654  0.2713 -2.3218
 2502TIP3    H228998   0.376   0.754  10.254 -1.2431  0.3011  0.6198
 2503TIP3   OH228999   0.457   2.826  10.758  0.4568  0.2805  0.1323
 2503TIP3    H129000   0.450   2.877  10.677 -0.4647  0.3315  0.2383
 2503TIP3    H229001   0.425   2.884  10.826 -1.3884 -0.6923  0.1493
 2504TIP3   OH229002   2.206   5.720   1.106 -0.2593 -0.1207  0.0756
 2504TIP3    H129003   2.177   5.787   1.169 -2.8340 -1.8370  0.8869
 2504TIP3    H229004   2.160   5.743   1.025  1.2411  0.7484 -0.5788
 2505TIP3   OH229005   4.508   4.221  12.910  0.4251 -0.2098 -0.0933
 2505TIP3    H129006   4.506   4.298  12.854 -1.5288 -0.4165 -0.4143
 2505TIP3    H229007   4.416   4.208  12.935  0.7293 -2.2490  0.1741
 2506TIP3   OH229008   0.352   3.060  14.335 -0.3791 -0.3622  0.2734
 2506TIP3    H129009   0.419   3.014  14.386 -0.9572 -1.1302  0.3727
 2506TIP3    H229010   0.300   3.107  14.400 -0.3186 -0.2728  0.2573
 2507TIP3   OH229011   4.274   2.373  10.367 -0.1261  0.0029  0.1333
 2507TIP3    H129012   4.326   2.453  10.368  2.0238 -1.3068  1.2114
 2507TIP3    H229013   4.246   2.361  10.457 -0.7128 -0.2832 -0.0841
 2508TIP3   OH229014   5.233   3.690  11.977  0.7022 -0.4159  0.2915
 2508TIP3    H129015   5.270   3.691  11.889  2.9443  0.7872  1.1348
 2508TIP3    H229016   5.225   3.598  12.000  1.0965 -0.7279 -0.8047
 2509TIP3   OH229017   5.132   2.372  13.146  0.0127 -0.4992  0.2800
 2509TIP3    H129018   5.111   2.426  13.223  0.6632  1.9063 -1.1097
 2509TIP3    H229019   5.158   2.288  13.182  0.7249  0.6683  2.7205
 2510TIP3   OH229020   5.255   2.668   9.953 -0.0951 -0.4699 -0.0246
 2510TIP3    H129021   5.171   2.708   9.931 -0.5520 -0.7138  1.2170
 2510TIP3    H229022   5.314   2.742   9.965  0.3840 -0.3218 -2.6914
 2511TIP3   OH229023   3.948   6.954  11.704  0.4189 -0.0101  0.7470
 2511TIP3    H129024   3.908   6.931  11.620 -2.9132  3.2035  1.1639
 2511TIP3    H229025   4.022   6.895  11.713  0.5281 -1.0001 -4.0894
 2512TIP3   OH229026   2.695   3.102  10.628 -0.1968 -0.4817 -0.0724
 2512TIP3    H129027   2.721   3.169  10.691 -1.7129 -0.2931  0.3865
 2512TIP3    H229028   2.688   3.148  10.545  1.4873 -0.6654 -0.3497
 2513TIP3   OH229029   1.308   5.499  11.973 -0.1080  0.2938  1.1628
 2513TIP3    H129030   1.366   5.561  11.930  1.1927  1.0078  3.7478
 2513TIP3    H229031   1.250   5.468  11.903  2.5371  0.4842 -1.2835
 2514TIP3   OH229032   2.861   0.277  10.234 -0.1927 -0.4744  0.1522
 2514TIP3    H129033   2.936   0.272  10.175 -0.2913  2.2553 -0.3554
 2514TIP3    H229034   2.898   0.260  10.321  1.2474  1.4782 -0.0005
 2515TIP3   OH229035   2.740   6.059   0.554 -0.3775  0.3101 -0.5213
 2515TIP3    H129036   2.782   6.096   0.475 -1.3438  1.7019 -0.4212
 2515TIP3    H229037   2.647   6.059   0.533 -0.7769  1.7916  1.0123
 2516TIP3   OH229038   2.437   2.142  12.058 -0.4789 -0.7084  0.6430
 2516TIP3    H129039   2.426   2.091  12.138  2.2586 -0.3005  1.3741
 2516TIP3    H229040   2.501   2.093  12.006  1.3715  1.3227  0.8725
 2517TIP3   OH229041   3.211   0.335  14.488  0.2694  0.1102  0.3544
 2517TIP3    H129042   3.292   0.327  14.539  0.4183  1.4997  0.3749
 2517TIP3    H229043   3.240   0.338  14.397  0.1414 -0.4592  0.2864
 2518TIP3   OH229044   6.208   6.017   1.518  0.0868  0.4544 -0.7185
 2518TIP3    H129045   6.122   6.057   1.513 -0.4298 -0.5728 -0.2726
 2518TIP3    H229046   6.257   6.071   1.579 -1.3883 -0.9377  1.8677
 2519TIP3   OH229047   5.388   0.196   0.226 -0.2340 -0.1897 -0.2841
 2519TIP3    H129048   5.334   0.126   0.189  0.4835 -0.0618 -1.6423
 2519TIP3    H229049   5.422   0.160   0.308 -0.3798 -1.1939 -0.6506
 2520TIP3   OH229050   3.278   1.031  12.732  0.6646  0.1713 -0.3915
 2520TIP3    H129051   3.187   1.004  12.748  0.1080  2.6184  1.1023
 2520TIP3    H229052   3.279   1.061  12.642  0.4793 -1.5022 -0.9873
 2521TIP3   OH229053   6.116   3.128  12.259 -0.0664  0.4956 -0.0158
 2521TIP3    H129054   6.118   3.219  12.288 -1.1619  0.5475 -0.0873
 2521TIP3    H229055   6.024   3.110  12.241 -0.3713 -1.5769  2.9914
 2522TIP3   OH229056   7.055   6.230   5.671  0.0563 -0.1942  0.2433
 2522TIP3    H129057   7.139   6.244   5.715 -0.4231  1.3395  0.7327
 2522TIP3    H229058   6.989   6.255   5.736 -0.7131  0.3713 -0.7304
 2523TIP3   OH229059   3.020   1.338  12.139  0.0797  0.1251 -0.1050
 2523TIP3    H129060   3.020   1.429  12.168  0.6579 -0.1479  0.7737
 2523TIP3    H229061   2.929   1.310  12.149 -0.1235  0.6370 -0.4915
 2524TIP3   OH229062   6.786   2.379  11.539 -0.2391  0.0958 -0.2008
 2524TIP3    H129063   6.880   2.399  11.536 -0.4039  0.7820 -2.1269
 2524TIP3    H229064   6.752   2.435  11.608  0.6156  0.5314 -0.1174
 2525TIP3   OH229065   3.282   5.568   1.386 -0.0890  0.1042  0.4202
 2525TIP3    H129066   3.338   5.527   1.321  0.6845  1.1925  0.3777
 2525TIP3    H229067   3.194   5.559   1.351  0.0751 -1.2431  0.2815
 2526TIP3   OH229068   3.512   0.515   9.897  0.5462 -0.1576 -0.0447
 2526TIP3    H129069   3.584   0.458   9.870  0.8110 -0.5397  1.4215
 2526TIP3    H229070   3.549   0.603   9.894 -0.2561  0.2147 -3.7032
 2527TIP3   OH229071   1.986   4.227  11.871  0.1430  0.4130 -0.1439
 2527TIP3    H129072   2.053   4.255  11.809 -0.1825 -1.7155 -1.5462
 2527TIP3    H229073   1.912   4.285  11.854 -0.2508 -0.6425 -2.4431
 2528TIP3   OH229074   4.569   5.414   0.424  0.2906 -0.0100  0.0582
 2528TIP3    H129075   4.519   5.346   0.378  2.7096 -0.5222 -2.0802
 2528TIP3    H229076   4.525   5.496   0.400 -1.5095 -0.6206  1.0861
 2529TIP3   OH229077   1.521   4.279   0.808 -0.7030 -0.5500 -0.1272
 2529TIP3    H129078   1.575   4.254   0.733 -0.6914  1.4020 -0.8452
 2529TIP3    H229079   1.472   4.200   0.831  2.0399 -2.2681  0.2312
 2530TIP3   OH229080   0.231   4.625  11.750 -0.1586 -0.0370 -0.4215
 2530TIP3    H129081   0.262   4.694  11.809 -0.6005  0.4228 -0.7235
 2530TIP3    H229082   0.243   4.661  11.662 -2.2707  0.4956 -0.5464
 2531TIP3   OH229083   4.520   4.593  15.245  0.4355  0.3335 -0.5537
 2531TIP3    H129084   4.567   4.527  15.193  1.0652  0.8340 -0.6276
 2531TIP3    H229085   4.450   4.622  15.187  0.8794  0.5842 -0.9798
 2532TIP3   OH229086   4.194   2.925  11.619 -0.4993 -0.0047  0.3326
 2532TIP3    H129087   4.150   3.010  11.628  1.1696  0.8461  0.9059
 2532TIP3    H229088   4.142   2.879  11.553 -2.2381  0.9086  0.9920
 2533TIP3   OH229089   4.814   5.720  14.419  0.1184 -0.4188  0.5276
 2533TIP3    H129090   4.799   5.685  14.507 -1.2918 -1.4057 -0.0690
 2533TIP3    H229091   4.763   5.801  14.416  3.3247  1.8349  1.8846
 2534TIP3   OH229092   1.225   3.060  11.061 -0.2619 -0.1998  0.0566
 2534TIP3    H129093   1.216   3.103  11.147  1.2254  0.0607  0.1060
 2534TIP3    H229094   1.315   3.078  11.035 -0.2292 -1.5830 -0.8676
 2535TIP3   OH229095   4.508   1.575  12.819 -0.4939 -0.1035 -0.5290
 2535TIP3    H129096   4.514   1.552  12.726 -1.8678 -1.4456 -0.3363
 2535TIP3    H229097   4.441   1.516  12.853  0.1668  0.1830  1.3810
 2536TIP3   OH229098   0.074   4.876   1.415 -0.0892 -0.4545  0.1446
 2536TIP3    H129099  -0.007   4.912   1.452 -1.0857 -0.9787 -1.4344
 2536TIP3    H229100   0.067   4.894   1.321  1.6544 -0.4975 -0.0121
 2537TIP3   OH229101   0.872   3.396   5.512  0.5779 -0.7174 -0.3510
 2537TIP3    H129102   0.879   3.373   5.419  1.2130  1.2484 -0.8348
 2537TIP3    H229103   0.949   3.356   5.552 -0.1657 -2.3258 -0.4827
 2538TIP3   OH229104   2.790   3.851  13.946 -0.4397  0.3244  0.3848
 2538TIP3    H129105   2.702   3.875  13.917 -0.1553 -0.2851 -1.0666
 2538TIP3    H229106   2.848   3.905  13.893  0.0879  1.7098  2.2569
 2539TIP3   OH229107   6.033   1.458  11.617 -0.1578  0.0339  0.2652
 2539TIP3    H129108   6.075   1.375  11.638 -0.1527  0.0693  0.4001
 2539TIP3    H229109   6.089   1.524  11.658 -1.7806 -0.0617  2.8874
 2540TIP3   OH229110   4.494   4.806  11.945  0.3395  0.2608 -0.7228
 2540TIP3    H129111   4.462   4.895  11.929  1.2065  1.2298  2.2361
 2540TIP3    H229112   4.589   4.815  11.952  0.4962 -1.0193 -0.8813
 2541TIP3   OH229113   1.942   1.301  14.662 -0.5720  0.1904 -0.9698
 2541TIP3    H129114   1.939   1.395  14.681  1.3325  0.0721  0.1856
 2541TIP3    H229115   1.931   1.259  14.747 -0.2033 -0.6110 -1.3122
 2542TIP3   OH229116   2.156   4.892  14.443  0.1755 -0.3976 -0.3205
 2542TIP3    H129117   2.166   4.928  14.355  0.5877 -0.2227 -0.2060
 2542TIP3    H229118   2.149   4.798  14.430 -2.9377 -0.1802 -0.7960
 2543TIP3   OH229119   2.160   0.018  13.546 -0.0621 -0.2472  0.9313
 2543TIP3    H129120   2.081   0.051  13.588  0.1793  0.7399  0.6378
 2543TIP3    H229121   2.231   0.072  13.581  0.3610 -0.4947  0.4786
 2544TIP3   OH229122   0.742   1.824  10.601  0.8951 -0.0205  0.0315
 2544TIP3    H129123   0.763   1.866  10.517  0.8209  0.5063  0.2730
 2544TIP3    H229124   0.827   1.795  10.635  1.0875  0.9175  0.3793
 2545TIP3   OH229125   6.113   1.856  10.506 -0.4939 -0.0619  0.5261
 2545TIP3    H129126   6.019   1.843  10.524 -0.5285 -1.1792 -0.3409
 2545TIP3    H229127   6.117   1.875  10.412  0.3173 -2.4247  0.0188
 2546TIP3   OH229128   2.121   5.612   1.883 -0.4417 -0.1118  0.2126
 2546TIP3    H129129   2.147   5.655   1.801  1.2498 -3.9651 -1.4893
 2546TIP3    H229130   2.201   5.612   1.936 -0.5742 -0.6716  0.4107
 2547TIP3   OH229131   6.667   5.476   9.584 -0.1337  0.4613 -0.0629
 2547TIP3    H129132   6.661   5.544   9.517 -0.0562 -1.0702 -1.6945
 2547TIP3    H229133   6.755   5.440   9.575 -0.2518 -0.0228  0.6058
 2548TIP3   OH229134   4.156   4.950  13.563 -0.5921  0.3630 -0.0923
 2548TIP3    H129135   4.072   4.992  13.541 -0.8107 -0.6135 -1.2378
 2548TIP3    H229136   4.207   5.020  13.604 -1.8839  1.0388  0.4439
 2549TIP3   OH229137   0.199   7.065  14.177 -0.3263 -0.2458 -0.2100
 2549TIP3    H129138   0.258   7.119  14.124  1.3210 -2.2651 -0.5909
 2549TIP3    H229139   0.187   7.115  14.257 -0.4069  1.5100 -1.2598
 2550TIP3   OH229140   4.052   2.629   9.411  0.1960 -0.0284 -0.5376
 2550TIP3    H129141   3.979   2.568   9.424 -0.3229  0.0029 -2.8213
 2550TIP3    H229142   4.016   2.715   9.432 -0.6074  0.0375 -2.0580
 2551TIP3   OH229143   5.832   6.510  14.057  0.5161  0.9330  0.2636
 2551TIP3    H129144   5.743   6.545  14.064  0.8900  1.7186  1.2968
 2551TIP3    H229145   5.870   6.557  13.983 -0.7374 -1.3275 -1.9811
 2552TIP3   OH229146   7.040   0.153  12.575  0.0352  0.5359 -0.3390
 2552TIP3    H129147   7.047   0.110  12.661  0.1839 -1.4017 -1.2633
 2552TIP3    H229148   7.127   0.191  12.561  0.9678 -1.5659 -0.7761
 2553TIP3   OH229149   6.429   5.201  12.747 -0.4355  0.1782  0.2381
 2553TIP3    H129150   6.382   5.215  12.665 -1.5567 -1.7147  0.5035
 2553TIP3    H229151   6.517   5.172  12.721 -0.9209 -0.8195 -0.3041
 2554TIP3   OH229152   4.283   0.135  10.504  0.9283 -0.6460  0.6562
 2554TIP3    H129153   4.190   0.118  10.490  0.9172 -0.4120  0.4448
 2554TIP3    H229154   4.327   0.074  10.445  0.8685  1.2177 -1.4482
 2555TIP3   OH229155   4.051   1.753  14.476  0.3563 -0.5830  0.0705
 2555TIP3    H129156   4.059   1.740  14.570 -0.3974  1.4298  0.4672
 2555TIP3    H229157   3.990   1.685  14.447  0.6148 -1.2345  1.0151
 2556TIP3   OH229158   3.911   2.012  13.813  0.3285  0.2413  0.2531
 2556TIP3    H129159   3.925   1.943  13.747  0.9949  0.2846  0.3474
 2556TIP3    H229160   3.917   1.966  13.897  2.2139  0.6397  0.3665
 2557TIP3   OH229161   0.237   3.208  15.132  0.4101  0.0190 -1.0317
 2557TIP3    H129162   0.269   3.123  15.163  0.4258  0.6793  0.8457
 2557TIP3    H229163   0.241   3.200  15.036 -0.1510 -2.2922 -0.9350
 2558TIP3   OH229164   4.055   1.466  10.139  0.4479 -0.5218 -0.5029
 2558TIP3    H129165   4.090   1.469  10.228  0.4959 -2.3908 -0.4127
 2558TIP3    H229166   3.960   1.469  10.150  0.4340  2.1128 -0.6124
 2559TIP3   OH229167   5.169   4.467   0.708  0.7236  0.6495 -0.1456
 2559TIP3    H129168   5.159   4.523   0.631  1.1998 -0.0328 -0.7152
 2559TIP3    H229169   5.090   4.412   0.708 -1.0250  2.9358  1.8280
 2560TIP3   OH229170   2.062   1.862  12.083  0.0544 -0.5927  0.4470
 2560TIP3    H129171   2.071   1.798  12.153  1.3196 -0.3846  0.4908
 2560TIP3    H229172   2.120   1.830  12.013 -2.5234 -1.8049 -1.3146
 2561TIP3   OH229173   5.901   6.344  13.092 -0.2612  0.0187 -0.3564
 2561TIP3    H129174   5.809   6.362  13.110 -0.5293 -1.5096 -0.0181
 2561TIP3    H229175   5.926   6.408  13.026 -1.7705 -0.0004 -0.9836
 2562TIP3   OH229176   4.362   2.210  13.103 -0.5128  0.5393  0.1535
 2562TIP3    H129177   4.330   2.145  13.040 -0.4115 -0.6959  1.3418
 2562TIP3    H229178   4.442   2.245  13.063 -0.1807 -0.5743 -0.1742
 2563TIP3   OH229179   5.155   0.555   9.975  0.0584  0.0395  0.5487
 2563TIP3    H129180   5.237   0.542   9.926  0.2801  1.5083  0.4872
 2563TIP3    H229181   5.139   0.471  10.017  1.3298 -0.4292  0.1489
 2564TIP3   OH229182   4.529   0.105  11.760 -0.9303  0.7572  0.5327
 2564TIP3    H129183   4.508   0.041  11.828  0.4181 -0.9212 -0.5546
 2564TIP3    H229184   4.577   0.174  11.806 -0.9215  0.1565  1.4578
 2565TIP3   OH229185   0.287   6.031  11.847  0.1411  0.2361 -0.1361
 2565TIP3    H129186   0.308   5.941  11.869  1.2807 -0.1285 -2.4270
 2565TIP3    H229187   0.231   6.061  11.919 -0.0582 -2.1787  0.7994
 2566TIP3   OH229188   7.036   2.328  10.402 -0.4074  0.1184  0.2784
 2566TIP3    H129189   6.979   2.283  10.340 -1.0032  0.4003  0.6192
 2566TIP3    H229190   7.026   2.280  10.484 -1.0190  0.8427  0.6347
 2567TIP3   OH229191   4.185   1.628  10.363 -0.1230  0.0630  0.1750
 2567TIP3    H129192   4.239   1.693  10.409 -1.9237 -0.0158  2.5958
 2567TIP3    H229193   4.106   1.676  10.339  0.7523  0.1088 -3.0951
 2568TIP3   OH229194   1.648   1.414   1.224 -0.1277  0.1911  0.0685
 2568TIP3    H129195   1.689   1.460   1.298 -0.4309  0.5437  0.0232
 2568TIP3    H229196   1.563   1.458   1.213 -0.6814 -0.7469  0.3958
 2569TIP3   OH229197   5.920   0.714  11.670 -0.1751 -0.2330  0.4442
 2569TIP3    H129198   5.994   0.659  11.645 -1.4742 -2.1215  0.4342
 2569TIP3    H229199   5.950   0.762  11.747  1.4705  0.0807 -0.3525
 2570TIP3   OH229200   6.961   3.777  13.053 -0.1436  0.4265  0.1999
 2570TIP3    H129201   6.917   3.705  13.007  0.8351 -0.9167  1.2728
 2570TIP3    H229202   7.051   3.774  13.023  0.1792  0.4415  1.1366
 2571TIP3   OH229203   5.268   3.650  10.422  0.8817  0.5695 -0.1533
 2571TIP3    H129204   5.297   3.568  10.383  0.4686  0.2675  0.1640
 2571TIP3    H229205   5.173   3.650  10.409  0.5759 -0.0558  1.8003
 2572TIP3   OH229206   6.314   4.763  10.552  0.4716 -0.1250 -0.3893
 2572TIP3    H129207   6.393   4.778  10.603  0.8509 -1.0127 -0.7036
 2572TIP3    H229208   6.250   4.730  10.615  0.1765  1.0784 -0.0352
 2573TIP3   OH229209   5.601   5.876  13.060 -0.4935 -0.4309 -0.2630
 2573TIP3    H129210   5.661   5.819  13.011 -0.4802  0.3472 -1.1854
 2573TIP3    H229211   5.548   5.919  12.992 -0.3692  0.7953  0.3889
 2574TIP3   OH229212   1.966   0.084   3.598  0.2206 -0.8035  0.3581
 2574TIP3    H129213   2.007   0.156   3.549 -0.0848 -1.3785 -0.7927
 2574TIP3    H229214   1.879   0.118   3.621  0.9471  0.0729  1.9848
 2575TIP3   OH229215   2.851   6.338   9.287 -0.1966 -0.2320 -0.1649
 2575TIP3    H129216   2.879   6.278   9.356 -1.6106 -0.0975  0.5449
 2575TIP3    H229217   2.803   6.282   9.226  0.7514 -0.2851 -0.8928
 2576TIP3   OH229218   6.133   6.222  12.989  0.2150 -0.0750  0.3802
 2576TIP3    H129219   6.059   6.274  13.019  0.3272  0.9420 -1.0253
 2576TIP3    H229220   6.180   6.199  13.070 -0.6345  0.7747  1.1439
 2577TIP3   OH229221   1.177   5.532  10.162 -0.4403  0.0698 -0.1676
 2577TIP3    H129222   1.258   5.497  10.199  0.8884  1.5203 -1.5492
 2577TIP3    H229223   1.174   5.497  10.073 -0.2580  1.5827 -0.8018
 2578TIP3   OH229224   5.260   0.437   0.158  0.7334 -0.5965  0.6532
 2578TIP3    H129225   5.249   0.486   0.240  0.3729 -1.0171  0.8603
 2578TIP3    H229226   5.308   0.358   0.183 -0.8304 -1.5475  0.7835
 2579TIP3   OH229227   3.827   5.815  13.753  0.1286  0.2718 -0.5950
 2579TIP3    H129228   3.906   5.850  13.711 -0.4686  3.1245  0.4800
 2579TIP3    H229229   3.768   5.796  13.680  1.6163 -1.6568 -1.3983
 2580TIP3   OH229230   5.594   2.591   9.705  0.2271 -0.1748 -0.7996
 2580TIP3    H129231   5.544   2.536   9.646  0.7406 -0.6122 -0.8392
 2580TIP3    H229232   5.685   2.564   9.692  0.2839 -0.9608  0.8519
 2581TIP3   OH229233   4.301   3.649  10.283 -0.2263  0.0915  0.2372
 2581TIP3    H129234   4.381   3.670  10.331  0.3698 -2.2925  0.3796
 2581TIP3    H229235   4.305   3.555  10.269 -2.7489 -0.0104 -0.2639
 2582TIP3   OH229236   1.700   4.813  13.164 -0.1886 -0.2063  0.4343
 2582TIP3    H129237   1.682   4.811  13.258  1.6386 -0.8266  0.8274
 2582TIP3    H229238   1.748   4.894  13.150 -0.7907  0.0773 -0.0532
 2583TIP3   OH229239   6.928   6.788  14.969  0.3704 -0.3337 -0.3406
 2583TIP3    H129240   6.891   6.707  15.004 -1.5847 -0.0363 -1.5538
 2583TIP3    H229241   6.945   6.768  14.877 -0.9936  0.8395 -0.8904
 2584TIP3   OH229242   3.797   4.611  12.367 -0.3997 -0.0546  0.1306
 2584TIP3    H129243   3.838   4.625  12.452 -1.7293  2.6028  0.4398
 2584TIP3    H229244   3.705   4.634  12.380 -0.2570  2.5687 -2.4127
 2585TIP3   OH229245   6.940   1.173   9.800  0.1519  0.5272  0.1698
 2585TIP3    H129246   6.931   1.229   9.723  1.5625  0.9671  0.3086
 2585TIP3    H229247   6.975   1.091   9.765  0.0325  0.4449  0.2428
 2586TIP3   OH229248   4.174   6.429  10.878 -0.1895  0.5384 -0.4506
 2586TIP3    H129249   4.223   6.510  10.863 -0.2110  0.7161  0.4194
 2586TIP3    H229250   4.082   6.458  10.881 -0.2539  0.3793 -0.8384
 2587TIP3   OH229251   2.939   3.188  10.176 -0.5196 -0.3760  0.3275
 2587TIP3    H129252   2.970   3.167  10.264  1.3121  0.8494  0.0355
 2587TIP3    H229253   2.938   3.283  10.173 -0.5796 -0.3984 -0.9719
 2588TIP3   OH229254   2.947   5.196   9.860  0.0077  0.1888 -0.2128
 2588TIP3    H129255   2.877   5.191   9.924  0.4717  0.5116  0.3282
 2588TIP3    H229256   2.916   5.144   9.786 -0.8219  0.3758 -0.0025
 2589TIP3   OH229257   5.378   6.218   1.024  0.2184 -0.0758 -0.0175
 2589TIP3    H129258   5.449   6.158   1.046  0.5923  0.2859 -0.2339
 2589TIP3    H229259   5.304   6.161   1.002  0.0833 -0.4644  1.3065
 2590TIP3   OH229260   3.409   1.651  12.449 -0.2279  0.3177 -0.4021
 2590TIP3    H129261   3.463   1.586  12.404  3.3377  2.8694 -0.2694
 2590TIP3    H229262   3.421   1.632  12.542  1.4840  1.5075 -0.3347
 2591TIP3   OH229263   2.184   2.788  14.262  0.0683  0.1549  0.1581
 2591TIP3    H129264   2.242   2.762  14.333 -0.6793 -0.5166  0.5464
 2591TIP3    H229265   2.230   2.859  14.217  0.7088  0.3456  1.0898
 2592TIP3   OH229266   2.925   4.209  11.900  0.4261 -0.2242 -0.1486
 2592TIP3    H129267   2.901   4.300  11.881  0.8803 -0.1644 -0.4678
 2592TIP3    H229268   2.842   4.165  11.918  0.1641  0.1625 -0.3998
 2593TIP3   OH229269   5.845   0.853  11.443 -0.5116  0.2787  0.1937
 2593TIP3    H129270   5.922   0.893  11.404 -0.3507 -1.6541 -1.6321
 2593TIP3    H229271   5.880   0.796  11.512 -0.3542 -0.0902 -0.1881
 2594TIP3   OH229272   4.519   6.583  12.078 -0.8477  0.3454 -0.2023
 2594TIP3    H129273   4.457   6.510  12.083  0.6310 -0.9090  0.4943
 2594TIP3    H229274   4.595   6.547  12.033 -1.1540  2.3095 -2.5319
 2595TIP3   OH229275   5.626   3.942   9.695  0.4102 -0.4429 -0.4966
 2595TIP3    H129276   5.706   3.915   9.651  1.3587  0.7729  0.4259
 2595TIP3    H229277   5.592   3.861   9.733  1.6181 -0.8486 -0.2442
 2596TIP3   OH229278   5.822   0.930  13.522  0.0890 -0.2209 -0.1247
 2596TIP3    H129279   5.793   0.843  13.493  1.8193 -0.9097  0.0727
 2596TIP3    H229280   5.741   0.980  13.533 -1.0868 -2.2542  1.1753
 2597TIP3   OH229281   1.738   4.350  10.173  0.1988 -0.0931 -0.3157
 2597TIP3    H129282   1.759   4.323  10.084 -2.5927  0.4224 -1.2222
 2597TIP3    H229283   1.736   4.269  10.223 -0.5439 -0.6948 -1.2828
 2598TIP3   OH229284   6.287   7.226   9.959  0.1667 -0.3192  0.1691
 2598TIP3    H129285   6.290   7.131   9.950  0.0147 -0.1677 -1.9091
 2598TIP3    H229286   6.196   7.248   9.942 -0.0264  0.1457  1.6713
 2599TIP3   OH229287   5.105   6.559  13.095 -0.1669 -0.0989 -0.1266
 2599TIP3    H129288   5.074   6.650  13.091 -1.0390 -0.4311 -2.2057
 2599TIP3    H229289   5.029   6.507  13.071  0.0993 -1.5004  1.8045
 2600TIP3   OH229290   7.110   4.770   0.492  0.2437 -0.0741 -0.4293
 2600TIP3    H129291   7.032   4.741   0.538  1.8671 -2.4977  1.0613
 2600TIP3    H229292   7.141   4.692   0.446  2.1927  0.5976 -0.3503
 2601TIP3   OH229293   6.052   6.112  11.159 -0.0062  0.0780 -0.0631
 2601TIP3    H129294   6.095   6.047  11.216  0.5428  0.9849  0.5757
 2601TIP3    H229295   5.998   6.164  11.218  0.5135  0.9904 -0.3738
 2602TIP3   OH229296   6.366   6.069  10.888  0.1500 -0.1918 -0.4907
 2602TIP3    H129297   6.368   6.077  10.793 -2.6565  0.0743 -0.5988
 2602TIP3    H229298   6.315   6.145  10.918 -0.9199 -1.4387  1.0241
 2603TIP3   OH229299   1.976   1.789   9.803  0.1787  0.3108  0.0059
 2603TIP3    H129300   1.961   1.763   9.712  0.8789  0.7639 -0.2449
 2603TIP3    H229301   1.922   1.868   9.814  0.3589  0.4537 -0.1230
 2604TIP3   OH229302   0.195   2.933  11.998  1.1916 -0.2916 -0.3310
 2604TIP3    H129303   0.287   2.954  11.986  0.7550  1.3249 -1.2704
 2604TIP3    H229304   0.181   2.854  11.946  1.9518 -0.2743 -0.5686
 2605TIP3   OH229305   0.233   1.974  12.736 -0.1494 -0.2726  0.0383
 2605TIP3    H129306   0.293   2.048  12.730  0.7200 -0.7323  2.2513
 2605TIP3    H229307   0.217   1.950  12.645 -0.0186  2.2419 -0.7411
 2606TIP3   OH229308   3.328   6.381  12.931  0.2914  0.3316 -0.7341
 2606TIP3    H129309   3.408   6.364  12.881 -0.3539 -0.7742 -1.4277
 2606TIP3    H229310   3.298   6.295  12.958 -0.3107  0.7943  0.1033
 2607TIP3   OH229311   2.303   5.445   1.140  0.0898  0.6951 -0.6223
 2607TIP3    H129312   2.299   5.408   1.228 -0.4430  0.6164 -0.6735
 2607TIP3    H229313   2.269   5.534   1.148  0.8225  0.9806 -0.6051
 2608TIP3   OH229314   6.698   2.291  11.905  0.2631 -0.4088 -0.0033
 2608TIP3    H129315   6.717   2.230  11.976 -1.6169  0.1776  1.0869
 2608TIP3    H229316   6.680   2.235  11.830 -0.4800 -1.1904  0.7353
 2609TIP3   OH229317   3.808   2.132  14.932 -0.4459  0.2960  0.4674
 2609TIP3    H129318   3.857   2.211  14.953 -0.5436  0.8104 -1.1262
 2609TIP3    H229319   3.876   2.064  14.925 -0.1482  0.6190  0.1146
 2610TIP3   OH229320   5.907   5.148   0.385 -0.1247  0.2530  0.2272
 2610TIP3    H129321   5.987   5.193   0.413  0.2682 -0.9217  1.0451
 2610TIP3    H229322   5.858   5.215   0.338  1.3833  0.9853 -0.4050
 2611TIP3   OH229323   5.322   1.884   0.665 -0.3551  0.5331  0.0021
 2611TIP3    H129324   5.369   1.803   0.685 -0.8062 -0.7416 -3.5168
 2611TIP3    H229325   5.241   1.877   0.716  0.6186 -0.0912  1.5296
 2612TIP3   OH229326   1.544   5.497  12.482 -0.1667 -1.1543 -0.3782
 2612TIP3    H129327   1.524   5.476  12.391  1.7638  0.2556 -1.1846
 2612TIP3    H229328   1.462   5.479  12.529 -1.0356 -2.4262 -2.2769
 2613TIP3   OH229329   4.285   0.665  12.045 -0.8727  0.1010  0.1463
 2613TIP3    H129330   4.259   0.720  12.119 -1.1886  0.6772 -0.3764
 2613TIP3    H229331   4.209   0.668  11.986  0.0519  1.1417 -1.0383
 2614TIP3   OH229332   1.772   3.063  13.726  0.1129  0.3354 -0.7717
 2614TIP3    H129333   1.708   3.003  13.764  1.1447 -1.6225 -1.9531
 2614TIP3    H229334   1.844   3.064  13.789 -0.0262  0.5656 -0.6160
 2615TIP3   OH229335   0.658   5.093  11.635 -0.0993  0.5125  0.0827
 2615TIP3    H129336   0.660   5.091  11.731  1.6875  0.8158  0.0802
 2615TIP3    H229337   0.750   5.092  11.609 -0.5482 -1.1572 -1.6808
 2616TIP3   OH229338   0.865   4.005  14.217 -0.5394 -0.1001 -0.0759
 2616TIP3    H129339   0.779   3.977  14.186 -2.3959  3.4413  1.2426
 2616TIP3    H229340   0.913   4.029  14.138 -1.5691 -0.1657 -0.7350
 2617TIP3   OH229341   4.174   1.548  11.214  0.3090 -0.2197  0.7225
 2617TIP3    H129342   4.264   1.518  11.214  0.6742  0.8111  1.4931
 2617TIP3    H229343   4.162   1.588  11.300 -0.7562  0.0215  0.4823
 2618TIP3   OH229344   4.380   5.617   2.714 -0.4760 -0.0359  0.3711
 2618TIP3    H129345   4.469   5.640   2.740 -1.3266  1.3787  2.2982
 2618TIP3    H229346   4.374   5.642   2.622  0.8363  0.6986  0.4647
 2619TIP3   OH229347   0.565   3.222   2.016  0.2414  0.1062  0.2090
 2619TIP3    H129348   0.571   3.194   2.107  0.4231  1.5529  0.6722
 2619TIP3    H229349   0.654   3.251   1.994 -0.1991  1.5482  0.2026
 2620TIP3   OH229350   5.574   1.361  13.286  0.2072  0.7161 -0.4816
 2620TIP3    H129351   5.644   1.319  13.236  1.6737  0.5051  1.6345
 2620TIP3    H229352   5.618   1.425  13.341 -0.9713 -0.6260  2.1861
 2621TIP3   OH229353   1.845   4.130  15.263 -0.2475 -0.4903 -0.1979
 2621TIP3    H129354   1.879   4.045  15.291 -1.8266 -0.9142  0.5503
 2621TIP3    H229355   1.822   4.117  15.170  0.8775 -0.4146 -0.5008
 2622TIP3   OH229356   5.583   0.411   9.671 -0.5876 -0.2043 -0.2218
 2622TIP3    H129357   5.507   0.453   9.711  0.6611  1.9654  0.0281
 2622TIP3    H229358   5.576   0.433   9.578  0.7829  1.9053  0.0996
 2623TIP3   OH229359   6.211   4.139   1.189 -0.3680 -0.1434  0.0249
 2623TIP3    H129360   6.123   4.174   1.200 -0.2449  0.2053 -0.1037
 2623TIP3    H229361   6.213   4.107   1.099 -0.6782 -1.0491  0.3232
 2624TIP3   OH229362   5.133   5.926   4.990 -0.6617  0.2598 -0.4115
 2624TIP3    H129363   5.215   5.878   4.998 -0.9434 -0.0835  0.4680
 2624TIP3    H229364   5.157   6.006   4.942 -0.1400 -0.6035 -1.6470
 2625TIP3   OH229365   2.276   2.883  11.036  0.5228  0.0418 -0.2046
 2625TIP3    H129366   2.282   2.890  10.941 -0.1738  1.3565 -0.1653
 2625TIP3    H229367   2.188   2.914  11.057  0.9937  0.6649  0.9503
 2626TIP3   OH229368   4.269   0.771   2.692  0.3387  0.3952 -0.2658
 2626TIP3    H129369   4.273   0.675   2.695 -0.4140  0.3675  1.3069
 2626TIP3    H229370   4.321   0.799   2.768 -2.6166  1.0342  1.6964
 2627TIP3   OH229371   3.890   7.077  14.867 -0.2618 -0.6163  0.3942
 2627TIP3    H129372   3.965   7.048  14.919 -0.4319  2.0064  2.3275
 2627TIP3    H229373   3.929   7.119  14.790  0.2694  0.0818  1.0224
 2628TIP3   OH229374   3.736   2.083   0.479  0.4829  0.0644 -0.0037
 2628TIP3    H129375   3.670   2.152   0.486  0.5668  0.2359 -0.7722
 2628TIP3    H229376   3.738   2.042   0.566 -0.4025  0.2674  0.1223
 2629TIP3   OH229377   2.103   7.081   9.696 -0.1192 -0.0364  0.4973
 2629TIP3    H129378   2.097   7.018   9.624  0.9148  1.7453 -1.2518
 2629TIP3    H229379   2.030   7.141   9.682  0.7752  1.0177  0.1788
 2630TIP3   OH229380   0.843   2.647   2.667  0.2249 -0.2041  0.0444
 2630TIP3    H129381   0.789   2.568   2.674 -0.2917  0.0887 -0.5756
 2630TIP3    H229382   0.933   2.616   2.682 -0.0251 -0.8217  0.3004
 2631TIP3   OH229383   2.276   2.037   4.438  0.6713 -0.1019  0.3378
 2631TIP3    H129384   2.253   2.004   4.351 -0.1577  0.0954  0.4779
 2631TIP3    H229385   2.193   2.040   4.485  0.3650  3.5996 -0.1443
 2632TIP3   OH229386   5.233   5.151  12.281  0.1318 -0.0456 -0.2352
 2632TIP3    H129387   5.294   5.219  12.252  0.2487 -0.8131 -1.9059
 2632TIP3    H229388   5.202   5.182  12.366  1.4439  1.2681 -0.1869
 2633TIP3   OH229389   0.260   5.647   0.740 -0.2223 -0.2486  0.6764
 2633TIP3    H129390   0.231   5.578   0.681  0.9617 -0.0213 -0.2104
 2633TIP3    H229391   0.313   5.601   0.806  0.3214 -0.2352  0.2559
 2634TIP3   OH229392   3.964   6.441  14.665 -0.0054 -0.0587 -0.2780
 2634TIP3    H129393   3.872   6.417  14.653  0.0067  1.0109 -3.0785
 2634TIP3    H229394   3.962   6.532  14.693  0.2262 -0.2593  0.4334
 2635TIP3   OH229395   5.879   0.190  13.885  0.2719 -0.2582  0.2293
 2635TIP3    H129396   5.902   0.251  13.955  1.1677 -1.4490  1.0038
 2635TIP3    H229397   5.937   0.115  13.898 -1.2923 -1.6170 -0.2341
 2636TIP3   OH229398   1.823   2.996   2.245 -0.5433 -0.1914  0.0873
 2636TIP3    H129399   1.793   2.989   2.335 -0.0843  0.1945  0.2727
 2636TIP3    H229400   1.743   2.986   2.192 -0.8188 -0.3658  0.5320
 2637TIP3   OH229401   0.835   1.112   9.813  0.2889  0.7628  0.0761
 2637TIP3    H129402   0.920   1.155   9.820 -0.4326  2.3166 -0.2474
 2637TIP3    H229403   0.820   1.105   9.718 -0.6111  1.9339  0.1129
 2638TIP3   OH229404   4.117   5.187   9.979  0.0504  0.1114 -0.1563
 2638TIP3    H129405   4.064   5.263   9.957  0.1052  0.5994  1.2817
 2638TIP3    H229406   4.152   5.157   9.895  0.0540  1.6886 -0.7556
 2639TIP3   OH229407   5.793   2.952  11.956  0.4921 -0.4598 -0.2525
 2639TIP3    H129408   5.821   2.932  11.866  0.8773  0.9343 -0.4748
 2639TIP3    H229409   5.742   2.875  11.983  2.6673 -2.1284 -0.6370
 2640TIP3   OH229410   1.261   2.315   2.960  0.5083  0.0565 -0.1978
 2640TIP3    H129411   1.339   2.278   2.918  1.2259  0.0190  1.1311
 2640TIP3    H229412   1.200   2.241   2.967  1.0702 -0.3526  0.4186
 2641TIP3   OH229413   3.871   7.241   9.296 -0.0560  0.2577 -0.4522
 2641TIP3    H129414   3.921   7.216   9.219  0.9068 -0.8414  0.4822
 2641TIP3    H229415   3.933   7.294   9.348 -0.1144 -0.3991  0.3165
 2642TIP3   OH229416   0.376   2.036  10.557 -0.4605 -0.0868 -0.3456
 2642TIP3    H129417   0.411   1.974  10.621 -0.2206  1.5782  1.2265
 2642TIP3    H229418   0.286   2.052  10.586  0.2925  2.2757  0.9420
 2643TIP3   OH229419   3.770   4.580  11.479 -0.0975  0.0121 -0.0149
 2643TIP3    H129420   3.791   4.639  11.407  0.9170  0.2877  0.4805
 2643TIP3    H229421   3.854   4.543  11.505 -0.2676  0.6643  1.6499
 2644TIP3   OH229422   6.786   6.388  14.515 -0.2734  0.0446 -0.4687
 2644TIP3    H129423   6.777   6.477  14.482 -1.7827  0.1827  0.2112
 2644TIP3    H229424   6.810   6.399  14.607 -3.2098 -0.1077  0.4206
 2645TIP3   OH229425   2.036   2.390  13.321 -0.3077 -0.2222  0.0068
 2645TIP3    H129426   2.072   2.411  13.235 -0.1844  0.7792  0.2907
 2645TIP3    H229427   2.010   2.475  13.357  1.7510 -0.2896  1.8842
 2646TIP3   OH229428   6.418   1.603  10.148  0.0868 -0.1382  0.1593
 2646TIP3    H129429   6.429   1.512  10.119 -0.2327 -0.3297  0.6379
 2646TIP3    H229430   6.387   1.649  10.070  0.8609 -0.3048 -0.2610
 2647TIP3   OH229431   1.231   2.360   4.222  0.8885 -0.2944  0.4273
 2647TIP3    H129432   1.298   2.427   4.233  0.8590 -0.3161  0.7748
 2647TIP3    H229433   1.227   2.344   4.128  1.5803 -0.5130  0.4346
 2648TIP3   OH229434   6.213   1.275  13.012  0.2496 -0.8636  0.1264
 2648TIP3    H129435   6.135   1.319  12.978 -0.9292 -1.7462  1.5710
 2648TIP3    H229436   6.286   1.323  12.974 -0.9795 -0.3172 -1.6795
 2649TIP3   OH229437   6.984   6.722  11.849 -0.7033  0.0140  0.9123
 2649TIP3    H129438   6.928   6.685  11.917 -1.3946 -2.7643 -0.9878
 2649TIP3    H229439   6.944   6.695  11.767  3.8777 -3.3287 -0.6537
 2650TIP3   OH229440   5.656   6.059   0.395  0.0730  0.8419  0.4177
 2650TIP3    H129441   5.660   6.036   0.302 -0.0735  2.2387  0.0404
 2650TIP3    H229442   5.563   6.072   0.412 -0.0401 -0.7394  1.1251
 2651TIP3   OH229443   3.442   3.293  12.230 -0.2986  0.4478 -0.1896
 2651TIP3    H129444   3.447   3.366  12.169 -0.8287  0.1490 -0.5978
 2651TIP3    H229445   3.349   3.269  12.231  0.2832 -2.3868 -2.6443
 2652TIP3   OH229446   4.517   4.147  13.347  0.0944 -0.1102 -0.5054
 2652TIP3    H129447   4.554   4.203  13.278  1.3299 -2.0144 -1.5121
 2652TIP3    H229448   4.425   4.138  13.324 -0.1878  1.6728 -0.1643
 2653TIP3   OH229449   2.818   1.752   2.277 -0.1008  0.6625  0.0018
 2653TIP3    H129450   2.842   1.700   2.201 -3.4321  0.3156 -0.9586
 2653TIP3    H229451   2.901   1.792   2.306  1.6292 -0.8799 -2.4578
 2654TIP3   OH229452   0.494   6.329  11.520  0.2896 -0.3452 -0.0937
 2654TIP3    H129453   0.436   6.400  11.492  1.8502  0.8861 -0.3099
 2654TIP3    H229454   0.480   6.322  11.614  0.3986  0.5189 -0.0077
 2655TIP3   OH229455   3.352   1.950  13.809  0.2960  0.1232  0.2672
 2655TIP3    H129456   3.420   1.990  13.756  1.1088 -1.3449  0.1747
 2655TIP3    H229457   3.337   2.013  13.880  1.2051  0.8031 -0.1293
 2656TIP3   OH229458   2.567   1.650  10.459  0.4085  0.4075  0.7646
 2656TIP3    H129459   2.586   1.603  10.540 -1.5434 -1.4402  0.2522
 2656TIP3    H229460   2.541   1.581  10.397  2.0469  1.7208 -1.5484
 2657TIP3   OH229461   1.480   4.115  11.757 -0.0526 -0.3595 -0.8921
 2657TIP3    H129462   1.514   4.043  11.704 -1.0009 -1.4219 -0.1117
 2657TIP3    H229463   1.539   4.120  11.832 -0.7145 -1.1769 -0.3105
 2658TIP3   OH229464   4.447   1.672   4.806  0.0032  0.2555  0.0116
 2658TIP3    H129465   4.352   1.667   4.799 -0.2224 -0.4542  2.7024
 2658TIP3    H229466   4.479   1.610   4.741 -1.4595 -1.0111  0.4587
 2659TIP3   OH229467   5.242   6.907  10.297  0.3713 -0.1102  0.4023
 2659TIP3    H129468   5.278   6.923  10.384  1.5251 -1.4554  0.2185
 2659TIP3    H229469   5.168   6.848  10.312  0.0150  0.3687  0.5408
 2660TIP3   OH229470   3.013   2.064  10.197  0.0688  0.2752  0.5882
 2660TIP3    H129471   2.973   2.049  10.111  1.3358 -0.1534  0.0523
 2660TIP3    H229472   2.939   2.070  10.257 -0.8063 -0.4685 -0.3788
 2661TIP3   OH229473   0.836   0.508   9.409  0.5040  0.7151 -0.4190
 2661TIP3    H129474   0.829   0.475   9.319 -0.1260 -0.8798  0.1757
 2661TIP3    H229475   0.920   0.473   9.440 -0.5927 -1.2371  0.5226
 2662TIP3   OH229476   6.655   1.825   2.975  0.0787 -0.1273  0.7723
 2662TIP3    H129477   6.662   1.730   2.970 -0.1241 -0.1293  0.4930
 2662TIP3    H229478   6.678   1.847   3.065 -1.9723 -0.6263  1.4775
 2663TIP3   OH229479   0.925   5.005  14.070  0.2948 -0.7680 -0.0263
 2663TIP3    H129480   0.936   5.022  13.976 -1.8423 -1.3568 -0.4444
 2663TIP3    H229481   0.918   4.910  14.077 -1.3565 -0.6359  0.4591
 2664TIP3   OH229482   1.627   5.198  10.213 -0.1184  0.2257 -0.1808
 2664TIP3    H129483   1.641   5.222  10.121  1.6782 -1.3799 -0.3981
 2664TIP3    H229484   1.706   5.228  10.258 -0.0258 -0.8661  0.4205
 2665TIP3   OH229485   2.250   4.537  10.554  0.3471  0.6564  0.1347
 2665TIP3    H129486   2.175   4.589  10.583 -0.2710  0.3029 -0.7918
 2665TIP3    H229487   2.220   4.492  10.475  1.2982 -0.0735  0.1609
 2666TIP3   OH229488   6.631   1.348   9.655  0.3342 -0.1085  0.1533
 2666TIP3    H129489   6.609   1.423   9.709 -0.6429 -1.7520  2.1689
 2666TIP3    H229490   6.569   1.280   9.681 -1.7891 -0.4476 -4.6005
 2667TIP3   OH229491   3.376   1.914  10.459 -0.2596 -0.1366  0.8309
 2667TIP3    H129492   3.391   1.947  10.548 -1.1091  1.7318  0.3409
 2667TIP3    H229493   3.376   1.993  10.405 -2.1936 -0.9875 -0.4960
 2668TIP3   OH229494   3.419   4.140  13.056  0.1462  0.6866  0.3712
 2668TIP3    H129495   3.352   4.082  13.091  0.7335  0.1531  0.6480
 2668TIP3    H229496   3.394   4.227  13.085 -1.3913  0.7601 -1.0235
 2669TIP3   OH229497   2.447   5.472  13.074  0.0396  0.4727 -0.0782
 2669TIP3    H129498   2.477   5.464  12.984  0.5584  2.5541 -0.1584
 2669TIP3    H229499   2.506   5.537  13.113 -0.2230 -0.3238  1.7440
 2670TIP3   OH229500   0.998   0.352  12.014 -0.0867 -0.4243 -0.0358
 2670TIP3    H129501   1.005   0.287  11.943 -0.1559 -3.7994  2.7755
 2670TIP3    H229502   0.904   0.354  12.035  0.0945 -0.5209  0.8118
 2671TIP3   OH229503   6.188   5.407   3.320 -0.5248  0.1984 -0.0440
 2671TIP3    H129504   6.159   5.320   3.346  0.4970  0.0873  0.8226
 2671TIP3    H229505   6.159   5.465   3.391  0.2611  0.2717  0.2365
 2672TIP3   OH229506   0.269   4.091  14.469 -0.1266  0.0134 -0.0716
 2672TIP3    H129507   0.251   4.009  14.424  1.5548 -0.9114  0.8219
 2672TIP3    H229508   0.276   4.066  14.562  0.0513  1.2189  0.2518
 2673TIP3   OH229509   6.441   1.254  14.012 -0.1628 -0.0022 -0.3788
 2673TIP3    H129510   6.438   1.327  13.949 -0.3845 -0.3472 -0.7715
 2673TIP3    H229511   6.535   1.238  14.025 -0.1130 -0.1234 -0.8568
 2674TIP3   OH229512   2.689   6.099  10.550 -0.1375  0.4961 -0.1392
 2674TIP3    H129513   2.689   6.191  10.523 -0.1480  0.9652  1.3618
 2674TIP3    H229514   2.702   6.102  10.645 -0.9844 -1.0221  0.0516
 2675TIP3   OH229515   4.073   0.976  13.234  0.3135  0.1114  0.0004
 2675TIP3    H129516   4.121   0.938  13.308  0.3843  1.2807  0.5800
 2675TIP3    H229517   4.136   1.035  13.193  0.7207 -1.5344 -1.8584
 2676TIP3   OH229518   2.875   1.667   0.218 -0.7009 -0.3383 -0.8168
 2676TIP3    H129519   2.795   1.663   0.165  0.0177  1.8001 -2.1784
 2676TIP3    H229520   2.929   1.732   0.174  1.9495 -1.9311 -0.0934
 2677TIP3   OH229521   2.155   0.962   3.718  0.2653 -0.0988  0.5292
 2677TIP3    H129522   2.081   0.901   3.721 -0.6977  0.6042 -3.2243
 2677TIP3    H229523   2.126   1.032   3.659  3.3132  1.1181  0.2812
 2678TIP3   OH229524   7.237   4.996  12.902 -0.4455 -0.0713 -0.0390
 2678TIP3    H129525   7.223   4.909  12.939  0.0872 -0.5633 -0.9569
 2678TIP3    H229526   7.330   5.000  12.884 -0.4353  0.7703  0.1557
 2679TIP3   OH229527   5.190   5.669  14.378  0.0478 -0.1667 -0.1298
 2679TIP3    H129528   5.109   5.719  14.389  0.6719  0.8680 -0.0918
 2679TIP3    H229529   5.179   5.593  14.435 -2.6830 -2.3765 -3.2367
 2680TIP3   OH229530   2.668   4.718  13.333  0.3378 -0.2645 -0.0565
 2680TIP3    H129531   2.574   4.712  13.314  0.3740  1.3102 -0.9020
 2680TIP3    H229532   2.709   4.658  13.271 -0.2671 -4.0867  2.8667
 2681TIP3   OH229533   3.989   0.264  11.456 -0.1124 -0.0490 -0.2909
 2681TIP3    H129534   3.968   0.295  11.368  2.3060 -0.8451 -1.2189
 2681TIP3    H229535   4.070   0.309  11.480  0.1112 -1.0000  0.8843
 2682TIP3   OH229536   6.736   5.987  12.287  0.1768  0.3670  0.4078
 2682TIP3    H129537   6.661   6.034  12.323 -1.4426 -0.8075 -1.2340
 2682TIP3    H229538   6.725   5.897  12.317  1.5138  0.3731  0.9757
 2683TIP3   OH229539   0.614   4.960  10.758  0.5697  0.0714 -0.7152
 2683TIP3    H129540   0.687   4.906  10.786  1.5422  1.1717 -1.0458
 2683TIP3    H229541   0.651   5.048  10.748 -0.9141  0.7814 -0.3466
 2684TIP3   OH229542   6.467   0.130  14.185  0.3317 -0.3689 -0.1246
 2684TIP3    H129543   6.524   0.142  14.261 -0.5526  1.2481  0.3402
 2684TIP3    H229544   6.382   0.107  14.221  0.2711 -1.1259 -0.7215
 2685TIP3   OH229545   1.425   3.709  14.094 -0.5709  0.0046 -0.2450
 2685TIP3    H129546   1.444   3.616  14.091 -2.8325 -0.4831 -1.1421
 2685TIP3    H229547   1.468   3.740  14.173 -0.1815 -1.8877  0.3216
 2686TIP3   OH229548   1.038   1.911  10.377  0.6764 -0.5525  0.6058
 2686TIP3    H129549   1.124   1.941  10.349 -0.0191  1.3037  0.3718
 2686TIP3    H229550   1.034   1.933  10.470  0.2922 -0.2128  0.5134
 2687TIP3   OH229551   5.445   1.144   9.515 -0.4164  0.2164  0.2699
 2687TIP3    H129552   5.500   1.219   9.538 -1.6886  0.5835  2.4645
 2687TIP3    H229553   5.367   1.182   9.476 -0.3382 -0.0944 -0.1937
 2688TIP3   OH229554   4.405   6.368  13.801 -0.1333  0.2308  0.1023
 2688TIP3    H129555   4.317   6.363  13.765  0.2343  1.0022 -0.9641
 2688TIP3    H229556   4.398   6.425  13.877 -0.4542  0.7884 -0.3380
 2689TIP3   OH229557   0.398   2.878  10.382 -0.2332 -0.0618 -0.4216
 2689TIP3    H129558   0.368   2.939  10.450  2.6633  0.7310  0.3178
 2689TIP3    H229559   0.348   2.901  10.304 -1.6172  0.9601  0.7307
 2690TIP3   OH229560   2.843   4.256  14.067 -0.0413 -0.3685 -0.9167
 2690TIP3    H129561   2.851   4.351  14.063  0.7523 -0.4401 -1.2961
 2690TIP3    H229562   2.933   4.224  14.055  0.0481 -1.1267  1.4249
 2691TIP3   OH229563   3.154   2.182  13.982 -0.3618  0.4329 -0.0014
 2691TIP3    H129564   3.202   2.199  14.063 -0.4037  2.2784 -0.3142
 2691TIP3    H229565   3.191   2.244  13.918  1.2246 -2.4600 -2.0903
 2692TIP3   OH229566   3.956   1.454   1.148 -0.0233  0.9234 -0.0880
 2692TIP3    H129567   3.937   1.362   1.133  1.6953  0.1560  1.9062
 2692TIP3    H229568   3.940   1.467   1.242 -1.3882  3.0052 -0.5239
 2693TIP3   OH229569   4.911   5.941  11.797  0.0589  0.0938  0.1665
 2693TIP3    H129570   4.987   5.883  11.802  1.0938  1.2103 -1.5963
 2693TIP3    H229571   4.944   6.026  11.827 -0.5431  0.5254 -0.3741
 2694TIP3   OH229572   2.996   4.172   2.902  0.4930  0.7253  0.3605
 2694TIP3    H129573   2.903   4.157   2.890  0.4739  1.7147 -1.0186
 2694TIP3    H229574   3.018   4.127   2.983 -0.9893 -0.2851  0.2340
 2695TIP3   OH229575   3.713   0.640  10.474  0.1531 -0.1322  0.3037
 2695TIP3    H129576   3.798   0.648  10.517  1.1990 -0.4739 -1.6268
 2695TIP3    H229577   3.709   0.714  10.413 -0.1675 -1.0937 -0.8681
 2696TIP3   OH229578   2.684   0.600  10.775 -0.2378 -0.5665  0.6768
 2696TIP3    H129579   2.631   0.597  10.855 -0.8419 -0.4991  0.2842
 2696TIP3    H229580   2.771   0.627  10.805 -0.6127  0.0518  1.2410
 2697TIP3   OH229581   1.067   0.616  13.623 -0.0973  0.3529 -0.0331
 2697TIP3    H129582   1.070   0.522  13.608  1.7436  0.2279  0.7630
 2697TIP3    H229583   1.050   0.654  13.537 -1.2061 -0.6945 -0.3076
 2698TIP3   OH229584   2.270   1.569   0.931 -0.6835 -0.6478 -0.0619
 2698TIP3    H129585   2.199   1.506   0.934 -3.6823  2.3437 -1.7239
 2698TIP3    H229586   2.265   1.616   1.014 -2.0229  0.8025 -0.9087
 2699TIP3   OH229587   5.198   5.966  12.086  0.1764 -0.0636 -0.0731
 2699TIP3    H129588   5.260   5.902  12.051 -2.7942 -3.1457 -0.0949
 2699TIP3    H229589   5.190   6.031  12.016 -0.2778 -2.2580 -2.2029
 2700TIP3   OH229590   0.054   6.663  10.094  0.1129  0.0995  0.1798
 2700TIP3    H129591   0.014   6.734  10.143  1.7299  0.8257  0.5245
 2700TIP3    H229592   0.147   6.668  10.116  0.3291 -1.9003 -0.0819
 2701TIP3   OH229593   5.102   4.637   1.048 -0.3371  0.1439  0.5611
 2701TIP3    H129594   5.108   4.680   0.962  1.5454 -0.8665  0.1330
 2701TIP3    H229595   5.150   4.695   1.107  0.1841 -0.2043  0.4805
 2702TIP3   OH229596   4.117   2.892  11.894  0.3670 -0.4381 -0.0436
 2702TIP3    H129597   4.172   2.932  11.827 -0.1496  0.7433  0.2055
 2702TIP3    H229598   4.070   2.823  11.848  0.4466 -0.0150 -0.7819
 2703TIP3   OH229599   5.566   3.669  11.237  0.0643  0.2158 -0.2032
 2703TIP3    H129600   5.618   3.640  11.312 -0.7973 -0.6277  0.0847
 2703TIP3    H229601   5.598   3.617  11.163 -0.5766 -0.5490  0.0429
 2704TIP3   OH229602   2.391   1.107  15.021  0.2069 -0.5091 -0.0293
 2704TIP3    H129603   2.333   1.165  15.070 -0.1945 -0.6351 -0.3512
 2704TIP3    H229604   2.334   1.037  14.989  0.7593 -1.3176  0.7118
 2705TIP3   OH229605   6.876   3.002  10.192  0.2319 -0.0515 -0.0872
 2705TIP3    H129606   6.818   2.979  10.120 -1.6115 -0.0302  1.3290
 2705TIP3    H229607   6.927   2.922  10.207  1.7274  0.3853 -2.2910
 2706TIP3   OH229608   2.389   1.063  10.193  0.3049  0.3964  0.4224
 2706TIP3    H129609   2.332   0.990  10.216 -1.0693  1.4695  0.5992
 2706TIP3    H229610   2.465   1.023  10.151 -1.0225 -1.0586 -0.7066
 2707TIP3   OH229611   6.119   0.973  12.129 -0.0462 -0.0116  0.0404
 2707TIP3    H129612   6.192   0.998  12.185  0.0537 -0.5941  0.1872
 2707TIP3    H229613   6.044   0.972  12.188  0.2209 -1.5231  0.3966
 2708TIP3   OH229614   5.872   4.541   5.114  0.6066 -0.5501 -0.0659
 2708TIP3    H129615   5.822   4.564   5.192  0.6167  2.6567 -0.8786
 2708TIP3    H229616   5.930   4.471   5.143  0.0839 -0.0011  2.6046
 2709TIP3   OH229617   6.291   5.095   0.237 -0.2940 -0.7064  0.1671
 2709TIP3    H129618   6.386   5.094   0.245 -0.4619 -2.3847  3.5836
 2709TIP3    H229619   6.270   5.019   0.182  0.2924  0.2923 -1.5209
 2710TIP3   OH229620   5.298   5.971  12.359 -0.1598  1.1491  0.0475
 2710TIP3    H129621   5.381   6.018  12.369 -0.1116  1.0206  0.2587
 2710TIP3    H229622   5.267   5.995  12.272 -0.1260  1.5609  0.1435
 2711TIP3   OH229623   0.975   2.816  12.984  0.3886  0.1996 -0.4005
 2711TIP3    H129624   0.996   2.837  12.893  1.2819 -1.2125 -0.5332
 2711TIP3    H229625   1.006   2.727  12.997 -0.5015  0.0632  1.0525
 2712TIP3   OH229626   4.939   5.553  12.464  0.1749  0.2315  0.0220
 2712TIP3    H129627   4.867   5.614  12.448  0.5526  0.1056 -2.5546
 2712TIP3    H229628   4.920   5.477  12.408  0.5905 -1.3472  1.8782
 2713TIP3   OH229629   5.272   2.220  14.633  0.5293 -0.2762 -0.0942
 2713TIP3    H129630   5.299   2.290  14.573  3.2097 -0.7261  0.4502
 2713TIP3    H229631   5.188   2.189  14.597  0.7032  1.2577 -2.0193
 2714TIP3   OH229632   2.398   1.461  11.186 -0.3123  0.3245 -0.1365
 2714TIP3    H129633   2.366   1.551  11.193 -0.0395  0.3781  0.4667
 2714TIP3    H229634   2.482   1.469  11.139 -1.0716  0.2003 -1.5689
 2715TIP3   OH229635   3.131   0.941  10.651 -0.2930 -0.3551  0.4431
 2715TIP3    H129636   3.106   0.879  10.582 -0.0275 -0.4922  0.4723
 2715TIP3    H229637   3.206   0.901  10.694  0.6064  0.5011 -0.2656
 2716TIP3   OH229638   2.076   3.600   0.474 -0.2510 -0.2311  0.3586
 2716TIP3    H129639   2.029   3.666   0.424  0.6437  0.0919 -0.0935
 2716TIP3    H229640   2.052   3.516   0.434  0.9899  0.0719 -1.1138
 2717TIP3   OH229641   4.654   6.653   9.871  0.0618 -0.4919 -0.3317
 2717TIP3    H129642   4.636   6.727   9.812  1.2446 -2.1278 -2.8976
 2717TIP3    H229643   4.586   6.589   9.849  1.9524 -2.1144 -1.8606
 2718TIP3   OH229644   3.786   0.161  15.007  0.7694  0.2790 -0.5625
 2718TIP3    H129645   3.742   0.176  14.924  0.1219 -1.1665 -0.4983
 2718TIP3    H229646   3.757   0.075  15.036  2.9005 -0.3498 -0.0564
 2719TIP3   OH229647   5.766   0.274   2.005  0.0362 -0.1750 -0.1804
 2719TIP3    H129648   5.804   0.361   2.015  0.3332 -0.3769  0.4740
 2719TIP3    H229649   5.812   0.220   2.069  0.3091 -0.9698 -1.0304
 2720TIP3   OH229650   5.876   6.796  10.243  0.3304 -0.2986  1.2532
 2720TIP3    H129651   5.911   6.775  10.156  1.4068  2.1986  1.0008
 2720TIP3    H229652   5.953   6.819  10.295 -0.3983 -0.8119  2.6191
 2721TIP3   OH229653   6.641   0.804  11.260 -0.3733 -0.0892 -0.1561
 2721TIP3    H129654   6.653   0.710  11.269  0.7359 -0.1857 -2.0207
 2721TIP3    H229655   6.567   0.814  11.201 -0.7725  0.2361  0.3858
 2722TIP3   OH229656   6.258   5.458  12.176 -0.2112  0.0962 -0.5710
 2722TIP3    H129657   6.259   5.553  12.191  0.5341  0.0141 -0.0483
 2722TIP3    H229658   6.172   5.430  12.206  0.1454  0.3828  0.7909
 2723TIP3   OH229659   1.090   3.207   2.218 -0.3061  0.4147 -0.4452
 2723TIP3    H129660   1.159   3.159   2.173 -0.2823  0.5204 -0.5190
 2723TIP3    H229661   1.062   3.147   2.288 -0.2128  0.3302 -0.4802
 2724TIP3   OH229662   4.681   4.356  15.165 -0.0896 -0.0593  0.1493
 2724TIP3    H129663   4.758   4.340  15.220 -0.5291 -1.0013  0.5216
 2724TIP3    H229664   4.607   4.339  15.224 -0.5716  0.1780 -0.3875
 2725TIP3   OH229665   5.547   4.417  11.494 -0.2420 -0.6064 -0.6972
 2725TIP3    H129666   5.599   4.373  11.561  0.5332 -1.5252 -1.8439
 2725TIP3    H229667   5.474   4.456  11.541  1.7673  1.2360  1.0777
 2726TIP3   OH229668   3.597   0.129  12.114 -0.7283  0.2542  1.3394
 2726TIP3    H129669   3.643   0.085  12.186  0.4167  0.3683  0.6982
 2726TIP3    H229670   3.547   0.198  12.157  0.7419  0.9774  1.9505
 2727TIP3   OH229671   4.216   0.825  10.222  0.2605  0.4595 -0.3451
 2727TIP3    H129672   4.180   0.839  10.134  0.4870  1.9007 -0.2218
 2727TIP3    H229673   4.311   0.816  10.208  0.2319  0.0722 -0.3060
 2728TIP3   OH229674   2.807   2.710   1.786  0.2144 -0.2581 -0.6215
 2728TIP3    H129675   2.894   2.734   1.752  0.0213 -0.0260 -0.9653
 2728TIP3    H229676   2.781   2.785   1.839  0.7322 -0.8348  0.4780
 2729TIP3   OH229677   3.123   3.635   3.054  0.0405 -0.4608  0.0929
 2729TIP3    H129678   3.179   3.560   3.074 -0.0572 -0.7204 -0.5779
 2729TIP3    H229679   3.039   3.614   3.094  0.5040  0.0893  1.4101
 2730TIP3   OH229680   2.007   3.361  12.742  0.2284  0.0844 -0.1301
 2730TIP3    H129681   2.024   3.391  12.653  0.5785 -0.3520 -0.2129
 2730TIP3    H229682   1.943   3.290  12.731 -0.1252  0.3780  0.0123
 2731TIP3   OH229683   3.866   1.761   3.917  0.5275  0.3445  0.1485
 2731TIP3    H129684   3.788   1.779   3.865  1.2116 -0.3586 -1.1595
 2731TIP3    H229685   3.836   1.767   4.008 -1.2892 -0.9681 -0.3204
 2732TIP3   OH229686   6.210   2.681  13.163  0.2901 -0.4655 -0.5745
 2732TIP3    H129687   6.300   2.655  13.143  0.4322 -1.7495  1.4449
 2732TIP3    H229688   6.190   2.636  13.245 -1.6805  1.0105 -0.1751
 2733TIP3   OH229689   0.136   2.112  11.298 -0.0243 -1.0401  0.1040
 2733TIP3    H129690   0.132   2.208  11.302 -0.7263 -1.0194 -0.8821
 2733TIP3    H229691   0.213   2.094  11.244  1.1153 -1.0835  1.6757
 2734TIP3   OH229692   6.356   5.200   3.511  0.3174  0.2277  0.2598
 2734TIP3    H129693   6.408   5.135   3.464  0.5157  0.3496  0.3097
 2734TIP3    H229694   6.410   5.279   3.510  0.6342  0.0395  1.2970
 2735TIP3   OH229695   2.905   2.037   0.134  0.3465  0.2475 -0.0636
 2735TIP3    H129696   2.984   2.091   0.127 -0.3922  1.4364  0.4045
 2735TIP3    H229697   2.933   1.950   0.108  2.0420  0.4150  1.0539
 2736TIP3   OH229698   0.880   4.681  11.657 -0.4044 -0.0191  0.5182
 2736TIP3    H129699   0.914   4.734  11.729 -1.2451 -0.3770  1.1984
 2736TIP3    H229700   0.925   4.714  11.580 -1.7547  2.5295  0.7189
 2737TIP3   OH229701   2.836   1.346   9.916  0.0751  0.0710 -0.1254
 2737TIP3    H129702   2.815   1.255   9.937  1.6486 -0.5610 -1.0779
 2737TIP3    H229703   2.796   1.360   9.830  0.6758 -0.0637 -0.4337
 2738TIP3   OH229704   0.097   4.522  10.322 -0.5402 -0.1648 -0.3287
 2738TIP3    H129705   0.113   4.595  10.382  1.8687 -1.3320  0.5458
 2738TIP3    H229706   0.130   4.554  10.237 -0.0920 -0.0122 -0.0984
 2739TIP3   OH229707   4.020   1.739  12.854  0.8312  0.4570  0.0133
 2739TIP3    H129708   3.972   1.786  12.785  0.7290 -0.1159 -0.3103
 2739TIP3    H229709   4.067   1.670  12.808  2.7226  1.5457  0.1898
 2740TIP3   OH229710   6.089   5.936  12.128 -0.3852 -0.8064  0.2230
 2740TIP3    H129711   6.055   6.019  12.095  0.2939 -0.3174  0.7269
 2740TIP3    H229712   6.151   5.907  12.060  1.0133  0.2011  1.0212
 2741TIP3   OH229713   6.732   4.027   0.320 -0.0922  0.4040 -0.4124
 2741TIP3    H129714   6.720   3.960   0.253  0.8068  0.5288 -0.7083
 2741TIP3    H229715   6.655   4.018   0.377  0.7456 -1.9452  0.4630
 2742TIP3   OH229716   6.595   6.521  10.183  0.0455  0.4438 -0.4163
 2742TIP3    H129717   6.531   6.544  10.251  0.4472 -0.0992  0.1567
 2742TIP3    H229718   6.564   6.567  10.105  0.3701  2.2675  0.4819
 2743TIP3   OH229719   7.141   2.063   9.999  0.7171 -0.0050  0.2633
 2743TIP3    H129720   7.062   2.052   9.946  1.6342  2.1636 -1.7236
 2743TIP3    H229721   7.191   1.983   9.985 -0.6156 -0.9462  0.7001
 2744TIP3   OH229722   3.159   4.689  11.741  0.6551  0.2848  0.5242
 2744TIP3    H129723   3.097   4.649  11.680  1.1214 -0.7410  0.6937
 2744TIP3    H229724   3.220   4.738  11.685 -0.3388  1.3795  0.3633
 2745TIP3   OH229725   1.208   5.819  10.131  0.2812  0.3678  0.2508
 2745TIP3    H129726   1.210   5.728  10.160 -0.3411  0.1942 -0.2184
 2745TIP3    H229727   1.286   5.830  10.077 -0.2601 -0.2401 -0.6798
 2746TIP3   OH229728   3.368   3.749  14.863 -0.6435 -0.0903  0.5608
 2746TIP3    H129729   3.351   3.701  14.944  1.4038  0.7616  1.5590
 2746TIP3    H229730   3.288   3.800  14.848 -1.2561 -0.6629  1.7301
 2747TIP3   OH229731   7.121   6.020  11.507  0.7891  0.0602  0.4962
 2747TIP3    H129732   7.084   5.955  11.448  2.2209  0.5221 -0.9783
 2747TIP3    H229733   7.199   5.978  11.544  0.9050  0.4152  0.6689
 2748TIP3   OH229734   6.904   5.249  11.867  0.8448  0.7817  0.4152
 2748TIP3    H129735   6.950   5.319  11.822  1.5415 -0.1599 -0.3817
 2748TIP3    H229736   6.962   5.173  11.860 -1.2223 -0.7652 -1.5453
 2749TIP3   OH229737   5.037   4.024   9.680 -0.5262  0.2460 -0.5152
 2749TIP3    H129738   5.000   4.000   9.764 -0.9624 -1.3938 -1.1440
 2749TIP3    H229739   4.969   4.003   9.616 -1.1558  3.5932 -1.1857
 2750TIP3   OH229740   2.418   2.290   9.654 -0.2722  0.2296  0.2855
 2750TIP3    H129741   2.402   2.365   9.596 -0.1920 -0.2887 -0.4151
 2750TIP3    H229742   2.489   2.319   9.710  0.0351  0.5409 -0.2518
 2751TIP3   OH229743   2.647   6.540  12.606 -0.1752  0.0577 -0.0658
 2751TIP3    H129744   2.598   6.472  12.561  1.1580 -0.0833 -1.4085
 2751TIP3    H229745   2.621   6.621  12.563 -0.2004  0.1391  0.1014
 2752TIP3   OH229746   3.880   2.232  11.316  0.3079 -0.1426 -0.0944
 2752TIP3    H129747   3.877   2.158  11.255  2.6074 -0.4668  0.0826
 2752TIP3    H229748   3.889   2.309  11.261 -0.1581 -0.1761 -0.2210
 2753TIP3   OH229749   3.392   0.692   5.108  0.1300  0.4191 -0.2165
 2753TIP3    H129750   3.377   0.615   5.164  0.3594  1.1857  0.9233
 2753TIP3    H229751   3.450   0.748   5.159 -1.6191  2.2844 -0.1467
 2754TIP3   OH229752   0.532   5.354  12.288  0.4662  0.0658 -0.4484
 2754TIP3    H129753   0.456   5.408  12.266  1.9454  1.5171 -2.3068
 2754TIP3    H229754   0.555   5.381  12.377 -1.0949 -0.3302  0.1070
 2755TIP3   OH229755   3.076   4.522  13.885  0.2494  0.2845 -0.2995
 2755TIP3    H129756   3.054   4.528  13.792  0.5814  0.2080 -0.3850
 2755TIP3    H229757   2.993   4.535  13.930  0.5758  4.1054 -0.4606
 2756TIP3   OH229758   0.638   6.634  11.109 -0.5798 -0.3171  0.0349
 2756TIP3    H129759   0.667   6.547  11.137 -0.8911 -0.4243  0.0270
 2756TIP3    H229760   0.700   6.658  11.039 -0.6664 -0.6550 -0.1632
 2757TIP3   OH229761   2.390   3.145  13.822  0.5863  0.2430 -0.7103
 2757TIP3    H129762   2.463   3.163  13.762  0.4409  0.7543 -0.7399
 2757TIP3    H229763   2.361   3.057  13.799  2.7279 -0.9833  0.8940
 2758TIP3   OH229764   1.181   5.572  12.861  0.8729 -0.2948  0.6116
 2758TIP3    H129765   1.220   5.498  12.907  0.0464 -0.1520  1.5941
 2758TIP3    H229766   1.178   5.642  12.927  0.0713  0.0677  0.2089
 2759TIP3   OH229767   3.682   2.927  12.199  0.2465  0.4449  0.7318
 2759TIP3    H129768   3.709   2.997  12.141  0.1616 -0.5604 -0.5698
 2759TIP3    H229769   3.586   2.934  12.203 -0.1883 -1.6507 -2.2916
 2760TIP3   OH229770   2.143   7.022  11.660 -0.3835  0.7132 -0.2930
 2760TIP3    H129771   2.210   7.024  11.728 -0.2632 -1.6066 -0.2820
 2760TIP3    H229772   2.060   7.032  11.707 -0.3000 -0.8750  0.2443
 2761TIP3   OH229773   2.816   4.589  12.806 -0.0153 -1.0813  0.6257
 2761TIP3    H129774   2.910   4.588  12.819 -0.0136 -1.9822  0.5564
 2761TIP3    H229775   2.804   4.621  12.716  0.2643 -1.8696  0.3039
 2762TIP3   OH229776   3.911   5.591  10.677 -0.0143 -0.4736  0.4273
 2762TIP3    H129777   3.996   5.628  10.704 -0.3809  1.0505 -0.3535
 2762TIP3    H229778   3.902   5.619  10.586 -2.1167  0.9051  0.9871
 2763TIP3   OH229779   5.507   5.464  14.658 -0.1381 -0.3551 -0.0987
 2763TIP3    H129780   5.559   5.492  14.582 -1.7204  1.5149 -0.5709
 2763TIP3    H229781   5.566   5.476  14.733 -0.1000  2.7368 -0.4843
 2764TIP3   OH229782   1.361   6.949  13.292 -0.0253  0.4319 -0.1316
 2764TIP3    H129783   1.341   7.033  13.333  0.4375  0.2884  0.4070
 2764TIP3    H229784   1.427   6.910  13.350 -0.1139 -0.2247 -0.4707
 2765TIP3   OH229785   2.872   4.329   9.982 -0.0598 -0.2755  0.0937
 2765TIP3    H129786   2.796   4.325   9.924 -0.7866 -0.2759  1.0211
 2765TIP3    H229787   2.900   4.421   9.977  0.6161 -0.5231 -1.1421
 2766TIP3   OH229788   5.363   0.310  15.040 -0.3423 -0.1637 -0.0106
 2766TIP3    H129789   5.304   0.261  15.097  0.2373 -2.3914 -1.1964
 2766TIP3    H229790   5.451   0.286  15.069 -0.0494 -0.2604 -0.9272
 2767TIP3   OH229791   2.864   3.367   9.839 -0.5295  0.3921 -0.2573
 2767TIP3    H129792   2.832   3.442   9.789 -2.1143  0.7702  1.2138
 2767TIP3    H229793   2.827   3.291   9.795 -1.2135  0.6664 -0.1731
 2768TIP3   OH229794   6.780   3.939  10.868  0.1543  0.6899 -0.2731
 2768TIP3    H129795   6.831   4.016  10.841  0.6761 -0.3278 -2.3880
 2768TIP3    H229796   6.714   3.930  10.800  0.9951 -1.5570 -0.8439
 2769TIP3   OH229797   2.139   6.408  11.456 -0.5302  0.4241 -0.0985
 2769TIP3    H129798   2.188   6.325  11.457 -0.0980  0.6421 -1.6532
 2769TIP3    H229799   2.145   6.439  11.547 -0.4649 -1.0952  0.4608
 2770TIP3   OH229800   1.184   5.467   0.752  0.5097  0.2493  0.3791
 2770TIP3    H129801   1.174   5.384   0.706  1.3590  0.3411  0.0163
 2770TIP3    H229802   1.213   5.442   0.840  1.3942  0.1720  0.0799
 2771TIP3   OH229803   2.826   1.104  14.914 -0.2166  0.3881  0.2440
 2771TIP3    H129804   2.803   1.076  15.003 -0.6543  0.7767  0.2564
 2771TIP3    H229805   2.922   1.101  14.913 -0.2401 -0.8711  0.3056
 2772TIP3   OH229806   1.726   3.296  13.372 -0.9569  0.5560 -0.0324
 2772TIP3    H129807   1.780   3.339  13.438  1.1397  0.9000 -1.8503
 2772TIP3    H229808   1.650   3.263  13.421  1.6688 -1.5175  3.0837
 2773TIP3   OH229809   2.072   7.168  12.395  0.1156 -0.3542  0.5783
 2773TIP3    H129810   2.116   7.247  12.363  0.5435  0.5412  3.1055
 2773TIP3    H229811   2.009   7.201  12.459 -2.4224 -1.8254 -0.9895
 2774TIP3   OH229812   5.377   1.338  11.855  0.1582 -0.1446 -0.2862
 2774TIP3    H129813   5.341   1.367  11.939 -0.5191  0.9350 -0.9207
 2774TIP3    H229814   5.471   1.330  11.870  0.0818  0.3707  0.4842
 2775TIP3   OH229815   2.189   4.125  10.387  0.0671  0.1065  0.3575
 2775TIP3    H129816   2.277   4.089  10.384 -0.2338 -0.6764  0.6061
 2775TIP3    H229817   2.154   4.108  10.299  0.0192  0.0323  0.3906
 2776TIP3   OH229818   1.121   1.330  10.129  0.6858  0.1122  0.2537
 2776TIP3    H129819   1.194   1.348  10.190  1.4165 -1.4282 -0.1288
 2776TIP3    H229820   1.157   1.267  10.067 -0.9972 -0.6888  0.0571
 2777TIP3   OH229821   5.397   0.177  12.470  0.0087 -0.2316 -0.5275
 2777TIP3    H129822   5.368   0.254  12.421  0.6907  0.1003 -0.4230
 2777TIP3    H229823   5.475   0.147  12.425  1.1030  0.5425  0.7825
 2778TIP3   OH229824   4.063   3.162  10.293  0.0698  0.6736 -0.4126
 2778TIP3    H129825   4.130   3.197  10.234  0.9301 -0.2431 -0.0125
 2778TIP3    H229826   3.981   3.167  10.243  0.7066  0.3272 -1.5220
 2779TIP3   OH229827   5.558   2.335   9.873 -0.1531  0.2091 -0.3301
 2779TIP3    H129828   5.488   2.347   9.936  0.3332  1.0762  0.0575
 2779TIP3    H229829   5.575   2.423   9.838 -0.0346 -0.1685 -1.2563
 2780TIP3   OH229830   0.183   2.502  13.302 -0.1340 -0.2106 -0.9086
 2780TIP3    H129831   0.269   2.542  13.286 -0.3615  0.6295 -0.0485
 2780TIP3    H229832   0.164   2.454  13.221  2.3870 -2.7439 -0.1839
 2781TIP3   OH229833   2.280   4.641  10.938  0.6855  0.6072 -0.4038
 2781TIP3    H129834   2.293   4.645  11.033 -1.2039  1.8986 -0.1313
 2781TIP3    H229835   2.342   4.704  10.902  0.0474  1.6092  0.1915
 2782TIP3   OH229836   5.770   3.213   9.696 -0.0824  0.6882  0.9492
 2782TIP3    H129837   5.745   3.235   9.606  0.5432 -0.2520  0.5364
 2782TIP3    H229838   5.687   3.190   9.738 -0.4627  1.6913  0.7986
 2783TIP3   OH229839   7.161   5.158   0.242 -0.4471 -0.2604  0.0277
 2783TIP3    H129840   7.239   5.103   0.250 -0.2110 -0.0481 -0.6720
 2783TIP3    H229841   7.100   5.124   0.307  0.1017 -0.6493  0.3479
 2784TIP3   OH229842   5.229   4.034   1.395 -0.4056 -0.1119 -0.7106
 2784TIP3    H129843   5.189   4.109   1.351 -1.0210 -0.8556 -1.4760
 2784TIP3    H229844   5.202   3.959   1.342  0.9151 -0.7864 -0.4569
 2785TIP3   OH229845   0.832   0.865  12.585  0.1658 -0.0946  0.3322
 2785TIP3    H129846   0.850   0.886  12.677  0.5897 -1.8012  0.6628
 2785TIP3    H229847   0.783   0.941  12.553  0.7251  0.9044  1.7255
 2786TIP3   OH229848   6.642   5.673   9.401  0.4989 -0.5898  0.2378
 2786TIP3    H129849   6.733   5.689   9.377  0.1044  0.5086 -0.6274
 2786TIP3    H229850   6.595   5.749   9.368 -0.8271 -1.4352  0.0861
 2787TIP3   OH229851   7.122   6.048  10.176 -0.1638 -0.1117 -0.4738
 2787TIP3    H129852   7.075   6.040  10.092 -0.2882 -2.5171 -0.2389
 2787TIP3    H229853   7.212   6.024  10.155 -0.0011  0.1559 -0.0842
 2788TIP3   OH229854   5.552   3.476   9.624  0.2975  0.0170 -0.4990
 2788TIP3    H129855   5.491   3.492   9.551 -0.8402 -0.6309  0.2788
 2788TIP3    H229856   5.528   3.388   9.655  1.2613 -0.0022  0.1911
 2789TIP3   OH229857   6.304   0.599  14.298 -0.1544  0.1912  0.1981
 2789TIP3    H129858   6.312   0.560  14.211 -1.2042 -0.5380  0.4044
 2789TIP3    H229859   6.256   0.680  14.284  1.5298  1.1756 -0.1565
 2790TIP3   OH229860   4.692   0.201   9.366  0.8526  0.0080  0.2796
 2790TIP3    H129861   4.688   0.106   9.359  1.1138  0.0427 -0.3634
 2790TIP3    H229862   4.604   0.231   9.341  1.7421  0.1345 -3.2537
 2791TIP3   OH229863   4.938   0.594  14.052 -0.3352  0.1566 -0.4154
 2791TIP3    H129864   4.941   0.504  14.084 -3.8848  0.3541  0.8614
 2791TIP3    H229865   4.951   0.586  13.958 -1.5457 -1.8383 -0.4724
 2792TIP3   OH229866   0.985   2.757   9.840 -0.0911  0.5265  0.5279
 2792TIP3    H129867   1.041   2.711   9.902 -1.1533  1.4892  2.3008
 2792TIP3    H229868   1.038   2.832   9.811  0.9650 -0.7329 -0.9670
 2793TIP3   OH229869   1.158   3.138  10.383  0.0110  0.2962  0.5987
 2793TIP3    H129870   1.179   3.091  10.464 -1.9021  0.4697  1.2518
 2793TIP3    H229871   1.171   3.230  10.404 -0.5170  0.3437  0.7353
 2794TIP3   OH229872   6.971   1.167  15.012 -0.3519  0.0799 -0.0086
 2794TIP3    H129873   6.981   1.261  15.023 -0.1964 -0.1486  2.0236
 2794TIP3    H229874   7.060   1.132  15.018 -0.2871 -0.1516 -1.7172
 2795TIP3   OH229875   6.084   4.943  10.644 -0.3616  0.0867  0.0384
 2795TIP3    H129876   6.154   4.891  10.604  0.5497  0.1718  1.4519
 2795TIP3    H229877   6.116   4.961  10.732 -2.6729 -0.8224  1.1116
 2796TIP3   OH229878   6.177   4.509  12.266  0.4437 -0.1173 -0.6241
 2796TIP3    H129879   6.196   4.470  12.351 -1.3093 -0.9502 -0.5721
 2796TIP3    H229880   6.197   4.440  12.203  0.9157  0.2085 -0.8388
 2797TIP3   OH229881   4.368   3.712  10.668  0.2038 -0.7819 -1.0970
 2797TIP3    H129882   4.432   3.641  10.669  0.3863 -0.6255  0.0132
 2797TIP3    H229883   4.289   3.674  10.706  1.2455  0.3704  2.6262
 2798TIP3   OH229884   2.509   2.143   1.081  0.0790  0.5540 -0.6580
 2798TIP3    H129885   2.560   2.219   1.054 -1.0668  1.5699 -0.0458
 2798TIP3    H229886   2.545   2.070   1.030  3.5690  0.7434  1.2035
 2799TIP3   OH229887   7.219   7.213  13.634 -1.0417  0.0677  0.3115
 2799TIP3    H129888   7.134   7.172  13.622 -1.3829  0.8867 -0.2065
 2799TIP3    H229889   7.258   7.168  13.708 -0.7353 -2.2303 -1.1465
 2800TIP3   OH229890   2.328   0.505  11.100  0.5773 -0.2800 -0.2419
 2800TIP3    H129891   2.299   0.429  11.050  0.5536  0.5842 -1.5982
 2800TIP3    H229892   2.275   0.577  11.066  0.7075  0.3789  0.9111
 2801TIP3   OH229893   1.121   3.053  13.056 -0.2455 -1.1548 -0.3255
 2801TIP3    H129894   1.193   3.044  13.119  0.1485 -0.7020 -0.7002
 2801TIP3    H229895   1.081   2.967  13.053 -2.3927 -0.4685  3.0088
 2802TIP3   OH229896   5.455   4.142  10.863  0.3106  0.5959 -0.2231
 2802TIP3    H129897   5.534   4.144  10.917  0.3027 -1.8085 -0.0406
 2802TIP3    H229898   5.488   4.131  10.774  0.1894 -0.0288 -0.1892
 2803TIP3   OH229899   1.910   1.667   9.569  0.1844  0.7250 -0.3597
 2803TIP3    H129900   1.827   1.651   9.525  0.9698  0.4049 -1.7574
 2803TIP3    H229901   1.971   1.603   9.531  1.1327  1.0963  0.4843
 2804TIP3   OH229902   3.143   2.948  11.044  0.3329 -0.0574 -0.0039
 2804TIP3    H129903   3.169   2.892  11.117  0.7732  0.0230 -0.0942
 2804TIP3    H229904   3.177   3.034  11.067  0.6105 -0.0664 -0.3762
 2805TIP3   OH229905   2.400   1.863  10.370 -0.1988  0.2403  0.0411
 2805TIP3    H129906   2.458   1.794  10.402  1.0912  1.3885  0.3005
 2805TIP3    H229907   2.335   1.817  10.316  0.2554 -1.2225  0.6814
 2806TIP3   OH229908   6.541   1.165  15.237 -0.6544 -0.1013 -0.0241
 2806TIP3    H129909   6.459   1.163  15.187 -0.0850  0.1718 -0.9969
 2806TIP3    H229910   6.572   1.255  15.227  0.1968 -0.4299 -0.3785
 2807TIP3   OH229911   1.293   3.080  12.476 -1.0393 -0.8120 -0.4897
 2807TIP3    H129912   1.301   3.050  12.566  2.5985 -0.6998 -0.6244
 2807TIP3    H229913   1.301   3.176  12.482 -0.0652 -0.8479 -0.9085
 2808TIP3   OH229914   0.517   4.718  13.681 -0.0660  0.0160 -0.4958
 2808TIP3    H129915   0.597   4.669  13.664 -0.2968 -0.7284  0.5258
 2808TIP3    H229916   0.511   4.779  13.607 -0.2401 -2.0392 -2.2899
 2809TIP3   OH229917   5.461   6.291   9.232 -0.2904  0.5189 -0.0913
 2809TIP3    H129918   5.540   6.278   9.180 -1.0663 -3.2035 -0.6343
 2809TIP3    H229919   5.476   6.242   9.313 -1.7555  0.3297  0.1057
 2810TIP3   OH229920   2.198   1.242  11.331  0.1065 -0.1595  0.6431
 2810TIP3    H129921   2.287   1.216  11.354  0.3018 -0.0908 -0.0204
 2810TIP3    H229922   2.187   1.329  11.371 -0.0985 -0.6785  1.7576
 2811TIP3   OH229923   5.981   1.868  13.087 -0.0779 -0.0183  0.3779
 2811TIP3    H129924   5.932   1.836  13.012 -0.8660 -0.4591  1.0639
 2811TIP3    H229925   5.915   1.905  13.145  0.7072  2.0986  0.0221
 2812TIP3   OH229926   2.676   3.914  10.162 -0.1527 -0.0420  0.2338
 2812TIP3    H129927   2.742   3.870  10.109 -0.8792  0.1072 -0.8040
 2812TIP3    H229928   2.722   3.988  10.202  1.4113 -2.2824  2.9378
 2813TIP3   OH229929   2.060   5.951  10.406  0.1039 -0.0840  0.1507
 2813TIP3    H129930   2.134   5.962  10.346  0.5666 -2.3908  0.2101
 2813TIP3    H229931   2.073   5.865  10.446 -1.2403  0.5444  2.1313
 2814TIP3   OH229932   0.794   1.921  12.026 -0.4468  0.2745  0.7553
 2814TIP3    H129933   0.705   1.947  12.002 -0.2144  0.8433  0.5156
 2814TIP3    H229934   0.843   2.002  12.029  0.4462 -0.1859 -0.6417
 2815TIP3   OH229935   1.109   2.473  14.077 -0.1986 -0.2117  0.3743
 2815TIP3    H129936   1.038   2.412  14.055  0.2572 -0.9109  0.8022
 2815TIP3    H229937   1.186   2.417  14.086  0.6957  0.6645 -1.3097
 2816TIP3   OH229938   6.589   5.886  13.538 -0.0368  0.2351 -0.1109
 2816TIP3    H129939   6.501   5.901  13.571  0.6002 -0.8735  2.3223
 2816TIP3    H229940   6.637   5.849  13.613  2.3094  0.1691 -1.5392
 2817TIP3   OH229941   6.033   1.059  13.393  0.3939 -0.1882 -0.8792
 2817TIP3    H129942   6.078   0.981  13.424 -1.7194 -1.1795 -0.0942
 2817TIP3    H229943   5.940   1.041  13.409 -0.4586  1.1031 -3.8203
 2818TIP3   OH229944   2.206   6.552   1.608 -0.2201 -0.0702  0.6323
 2818TIP3    H129945   2.236   6.513   1.526 -0.8801  1.4766 -0.3850
 2818TIP3    H229946   2.226   6.486   1.675 -1.4414 -2.2071 -0.9943
 2819TIP3   OH229947   6.182   3.647  12.373  0.3198  0.3925 -0.4671
 2819TIP3    H129948   6.124   3.703  12.425  2.0887  1.1525  0.7685
 2819TIP3    H229949   6.198   3.698  12.293 -2.5374 -0.8488 -1.9921
 2820TIP3   OH229950   4.469   0.772  10.187  0.2436 -0.0705  0.4891
 2820TIP3    H129951   4.520   0.718  10.126 -0.7290 -1.0680  0.5392
 2820TIP3    H229952   4.479   0.728  10.271 -0.8706 -0.4053  0.4547
 2821TIP3   OH229953   1.164   0.629  11.143 -0.4119  0.2035 -0.5470
 2821TIP3    H129954   1.247   0.669  11.116 -0.1230 -0.0717 -0.0863
 2821TIP3    H229955   1.171   0.623  11.238 -1.9625  2.4536 -0.1988
 2822TIP3   OH229956   6.007   3.400   0.153  0.1884 -0.5023 -0.3536
 2822TIP3    H129957   5.932   3.341   0.162  0.2671 -0.7200 -1.0853
 2822TIP3    H229958   6.054   3.367   0.076  1.0899 -0.4279  0.1553
 2823TIP3   OH229959   2.708   0.419  11.285 -0.2117  0.1974  0.0453
 2823TIP3    H129960   2.692   0.507  11.250  0.1414  0.5511  0.7555
 2823TIP3    H229961   2.802   0.406  11.274 -0.5119 -0.8030 -1.6585
 2824TIP3   OH229962   0.798   4.315  13.398  0.1064 -0.1767  0.4766
 2824TIP3    H129963   0.843   4.393  13.367 -1.5083  0.0564 -1.4004
 2824TIP3    H229964   0.711   4.320  13.360 -1.2263 -1.1369  3.1678
 2825TIP3   OH229965   4.172   0.647  13.601  0.5233  0.4027  0.0201
 2825TIP3    H129966   4.133   0.595  13.531 -0.7141 -0.2201  1.1301
 2825TIP3    H229967   4.239   0.590  13.639 -0.3363 -0.1291  0.7668
 2826TIP3   OH229968   7.123   6.460  11.958  0.1819  0.1238  0.2951
 2826TIP3    H129969   7.168   6.536  11.921 -0.6544  0.2650 -0.4883
 2826TIP3    H229970   7.042   6.454  11.907 -0.7617 -0.0190  1.7569
 2827TIP3   OH229971   2.964   2.287  11.104 -0.0267  0.7410  0.4046
 2827TIP3    H129972   2.982   2.206  11.151  0.6137  1.6298  1.7237
 2827TIP3    H229973   2.962   2.261  11.012 -0.3157 -0.8520  0.8341
 2828TIP3   OH229974   3.499   1.742  11.972 -0.0314 -0.2276  0.1513
 2828TIP3    H129975   3.447   1.775  12.045 -1.5596  1.9796 -1.8108
 2828TIP3    H229976   3.590   1.761  11.997 -0.5696  1.1931  1.1489
 2829TIP3   OH229977   0.816   2.932   9.990  0.1974  1.0515  0.0518
 2829TIP3    H129978   0.882   2.868   9.964  1.5015  2.0806  0.7043
 2829TIP3    H229979   0.750   2.928   9.921  1.0275  0.1218 -0.7189
 2830TIP3   OH229980   6.615   6.837  10.155  0.3747 -0.4628 -0.5472
 2830TIP3    H129981   6.535   6.789  10.176 -1.1589  2.2259  0.3292
 2830TIP3    H229982   6.677   6.812  10.223 -0.8423 -0.2096  0.7035
 2831TIP3   OH229983   0.610   5.421  13.705  0.3912  0.3333  0.3650
 2831TIP3    H129984   0.627   5.347  13.647  0.1674 -0.0036  0.7308
 2831TIP3    H229985   0.645   5.496  13.658  1.5785 -0.1459  0.4566
 2832TIP3   OH229986   4.446   0.865  10.670 -0.2686 -0.1785  0.1041
 2832TIP3    H129987   4.451   0.919  10.591 -1.8119 -0.6092 -0.3222
 2832TIP3    H229988   4.535   0.834  10.684  0.0530  0.0031 -1.3974
 2833TIP3   OH229989   5.225   5.660  14.939  0.3969  0.7125 -0.4375
 2833TIP3    H129990   5.232   5.754  14.918  0.5798  0.4759 -1.5237
 2833TIP3    H229991   5.255   5.653  15.029 -2.1775  2.0788  0.6209
 2834TIP3   OH229992   2.095   0.968  12.326  0.2535 -0.0661  0.3728
 2834TIP3    H129993   2.057   0.910  12.261 -1.8188 -0.6977  2.0409
 2834TIP3    H229994   2.187   0.976  12.300  0.1462 -2.4572 -1.0564
 2835TIP3   OH229995   4.739   3.327  12.012 -0.6697 -0.0818 -0.1396
 2835TIP3    H129996   4.777   3.390  12.073 -2.0824  1.2747 -0.6125
 2835TIP3    H229997   4.814   3.292  11.964  0.3447 -0.2824  1.5016
 2836TIP3   OH229998   1.574   1.515  11.633  0.0457  0.6451 -0.2365
 2836TIP3    H129999   1.560   1.477  11.719  0.5297 -0.6381 -0.7069
 2836TIP3    H230000   1.642   1.581  11.646 -1.8073  2.4696  0.8588
 2837TIP3   OH230001   0.042   5.382  11.527 -0.6510  0.1416  0.2155
 2837TIP3    H130002   0.040   5.350  11.617 -0.0754  1.8123  0.8502
 2837TIP3    H230003   0.016   5.306  11.474 -1.7709 -0.6454  1.8311
 2838TIP3   OH230004   5.007   2.514  12.188 -0.3059  0.4909  0.1966
 2838TIP3    H130005   5.018   2.573  12.113 -0.9220 -0.3172 -0.5506
 2838TIP3    H230006   4.913   2.515  12.205 -0.1205  1.0232  1.2741
 2839TIP3   OH230007   3.107   5.421  14.396  0.2186 -0.4918  0.6039
 2839TIP3    H130008   3.064   5.455  14.474 -0.1864  1.0483 -0.2472
 2839TIP3    H230009   3.134   5.333  14.420 -0.0503 -0.1212  2.4142
 2840TIP3   OH230010   3.163   4.392  12.404 -1.1472 -0.0138  0.0431
 2840TIP3    H130011   3.192   4.301  12.391 -0.0183  0.3365 -0.0040
 2840TIP3    H230012   3.120   4.415  12.322  0.6026  0.2245 -0.8523
 2841TIP3   OH230013   1.693   4.427  11.390  0.4327 -0.4322 -0.3600
 2841TIP3    H130014   1.766   4.485  11.369 -0.3984  0.3291 -1.3101
 2841TIP3    H230015   1.714   4.345  11.346  1.4806 -0.7837  0.7449
 2842TIP3   OH230016   6.185   5.112  10.888  0.1219  0.2774  0.4031
 2842TIP3    H130017   6.197   5.074  10.975 -0.8446  0.5451  0.6713
 2842TIP3    H230018   6.254   5.073  10.835  1.2642  0.7533  1.4865
 2843TIP3   OH230019   7.059   5.801  14.097  0.0964  0.6302 -0.2573
 2843TIP3    H130020   6.987   5.799  14.159 -0.3445  1.1416 -0.7435
 2843TIP3    H230021   7.138   5.804  14.151 -0.1611 -1.2647  0.3142
 2844TIP3   OH230022   7.098   0.763  10.658 -0.4939 -0.1195 -0.2636
 2844TIP3    H130023   7.040   0.776  10.733  0.7953 -0.1670  0.7672
 2844TIP3    H230024   7.069   0.681  10.619  0.1537 -1.2316  1.4715
 2845TIP3   OH230025   6.593   3.772  14.734 -0.2863 -0.2274  0.0963
 2845TIP3    H130026   6.659   3.835  14.705 -0.7545 -0.0688 -0.6516
 2845TIP3    H230027   6.578   3.716  14.658 -1.8005  0.4179 -0.1239
 2846TIP3   OH230028   6.289   7.163   3.602 -0.0085 -0.5208  0.2799
 2846TIP3    H130029   6.292   7.198   3.513  0.4827 -0.7309  0.2070
 2846TIP3    H230030   6.197   7.142   3.617 -0.0662 -0.6563 -0.2522
 2847TIP3   OH230031   0.031   6.598  13.777 -0.4846 -0.1832  0.2780
 2847TIP3    H130032   0.001   6.545  13.850 -0.1444 -1.7239 -0.6502
 2847TIP3    H230033   0.005   6.549  13.699 -2.9636  2.5299 -0.7717
 2848TIP3   OH230034   4.391   4.334   2.465 -0.0669  0.2082 -0.2736
 2848TIP3    H130035   4.311   4.320   2.416 -0.1598  0.0189 -0.0680
 2848TIP3    H230036   4.407   4.428   2.459 -0.4159  0.2773 -0.1438
 2849TIP3   OH230037   3.131   7.126  14.404 -0.0056  0.2241  0.3860
 2849TIP3    H130038   3.088   7.047  14.437  0.3746 -1.0924 -1.9897
 2849TIP3    H230039   3.075   7.198  14.432 -1.5520 -1.0921  0.8264
 2850TIP3   OH230040   6.691   6.632  10.928 -0.1397  0.7435 -0.0318
 2850TIP3    H130041   6.665   6.720  10.904  0.4162  0.7403 -0.6465
 2850TIP3    H230042   6.617   6.599  10.980 -0.2750  1.6203  0.3465
 2851TIP3   OH230043   6.749   3.898  11.820  0.3325 -0.1721 -0.1268
 2851TIP3    H130044   6.681   3.863  11.878  0.8892 -2.0086 -0.5264
 2851TIP3    H230045   6.825   3.842  11.835  1.0749  0.4923 -1.2611
 2852TIP3   OH230046   4.176   0.060  12.710 -0.1103  0.0614  0.8734
 2852TIP3    H130047   4.180   0.053  12.615  2.3989  1.8287  0.7614
 2852TIP3    H230048   4.086   0.035  12.732 -1.7422  2.5021 -2.2246
 2853TIP3   OH230049   6.076   1.979  10.276 -0.6140 -0.1754  0.1859
 2853TIP3    H130050   6.103   2.059  10.231  0.0646  0.1477  1.1441
 2853TIP3    H230051   5.983   1.992  10.295 -0.7005  0.0368 -0.3644
 2854TIP3   OH230052   1.870   6.384   0.865 -0.2297 -0.3106 -0.0508
 2854TIP3    H130053   1.915   6.328   0.801 -0.4528  0.5215 -0.9660
 2854TIP3    H230054   1.919   6.372   0.946  1.1026 -0.1404 -0.7895
 2855TIP3   OH230055   3.373   7.109   0.756  0.3797 -0.0622  0.2004
 2855TIP3    H130056   3.454   7.129   0.803  0.8323 -0.7236 -0.2850
 2855TIP3    H230057   3.360   7.184   0.698  1.8026 -0.8689 -1.2500
 2856TIP3   OH230058   6.786   4.841  10.913 -0.3724 -0.4743 -0.9256
 2856TIP3    H130059   6.737   4.767  10.949 -1.1175  0.1926 -0.5278
 2856TIP3    H230060   6.719   4.907  10.894  0.2718  0.0815 -1.3196
 2857TIP3   OH230061   3.792   2.774  10.379 -0.5962  0.3548  0.3381
 2857TIP3    H130062   3.853   2.800  10.310 -0.4430  0.2394  0.4292
 2857TIP3    H230063   3.706   2.785  10.339 -0.4805 -1.0331 -0.3672
 2858TIP3   OH230064   4.128   1.500  10.618 -0.4165 -0.2136 -0.6542
 2858TIP3    H130065   4.099   1.567  10.679  1.2935  0.3332 -0.3899
 2858TIP3    H230066   4.107   1.536  10.532 -1.7804 -0.4773 -0.4559
 2859TIP3   OH230067   0.545   6.654  10.363 -0.1072  0.0597  0.2363
 2859TIP3    H130068   0.454   6.650  10.332  0.0787 -1.3267 -0.2062
 2859TIP3    H230069   0.592   6.590  10.309  0.9754  0.1932  0.9751
 2860TIP3   OH230070   0.262   2.546  10.632 -0.2598 -0.3653 -0.0982
 2860TIP3    H130071   0.309   2.482  10.686 -0.3443 -0.7879 -0.5185
 2860TIP3    H230072   0.177   2.504  10.616 -0.9233  0.5289  0.9415
 2861TIP3   OH230073   3.442   5.924  10.904  0.2429  0.4151 -0.3265
 2861TIP3    H130074   3.476   5.991  10.963 -1.6713  1.0901  0.0900
 2861TIP3    H230075   3.411   5.854  10.963 -0.7150  0.6232 -0.5690
 2862TIP3   OH230076   6.842   4.895   2.313 -0.0775  0.0354 -0.2769
 2862TIP3    H130077   6.916   4.940   2.353  2.3890 -2.0781 -2.0990
 2862TIP3    H230078   6.769   4.956   2.322  2.2426  2.9783  0.1971
 2863TIP3   OH230079   4.610   7.124  10.439 -0.0219  0.3210 -0.3390
 2863TIP3    H130080   4.640   7.188  10.375 -1.8220  0.6606 -0.8921
 2863TIP3    H230081   4.587   7.177  10.516 -0.1709  0.1822 -0.2880
 2864TIP3   OH230082   1.892   2.586  10.439 -0.0942 -0.1350  0.0518
 2864TIP3    H130083   1.868   2.539  10.519 -0.7264  1.0496  0.5677
 2864TIP3    H230084   1.813   2.634  10.414  0.8788  1.6334  0.2340
 2865TIP3   OH230085   4.464   6.501   1.788  0.4892 -0.2796 -0.1653
 2865TIP3    H130086   4.483   6.574   1.846 -1.0007  0.1942 -0.2387
 2865TIP3    H230087   4.386   6.460   1.824 -0.1403 -0.3215 -1.4970
 2866TIP3   OH230088   3.955   5.400  11.413 -0.1571  0.4273 -0.6722
 2866TIP3    H130089   3.946   5.419  11.320  1.2640  2.3514 -0.4767
 2866TIP3    H230090   3.889   5.454  11.456 -0.0164  0.4451 -0.4778
 2867TIP3   OH230091   4.925   0.595   1.322 -0.2308 -0.0079  0.2642
 2867TIP3    H130092   5.001   0.635   1.364 -1.3388  2.8671 -0.2801
 2867TIP3    H230093   4.909   0.648   1.244 -1.2026 -2.2126 -1.1687
 2868TIP3   OH230094   2.389   7.249  14.144 -0.2171  0.1586  0.3673
 2868TIP3    H130095   2.397   7.344  14.160  0.8987 -0.0661  1.3845
 2868TIP3    H230096   2.453   7.231  14.075  2.6691 -0.4064  2.9606
 2869TIP3   OH230097   1.228   7.037  10.258  0.0167 -0.3359 -0.2237
 2869TIP3    H130098   1.250   6.947  10.231 -0.6438 -0.4876 -0.2684
 2869TIP3    H230099   1.307   7.088  10.238  0.1228 -0.7574 -0.9140
 2870TIP3   OH230100   7.116   4.234  12.383 -0.2232  0.2270 -0.2409
 2870TIP3    H130101   7.091   4.240  12.291  0.5419 -0.7895 -0.5314
 2870TIP3    H230102   7.033   4.239  12.431 -0.7809 -0.8391 -1.0638
 2871TIP3   OH230103   4.646   2.421  14.050  0.3037  0.4841  0.1670
 2871TIP3    H130104   4.587   2.496  14.056  2.5181  2.2371  1.3480
 2871TIP3    H230105   4.640   2.378  14.135  0.6424  0.6264  0.2664
 2872TIP3   OH230106   2.539   6.093  10.294 -0.7694 -0.2148  0.3535
 2872TIP3    H130107   2.591   6.093  10.374 -1.1286  2.1044  0.6590
 2872TIP3    H230108   2.594   6.138  10.229 -1.0532 -0.7835 -0.2949
 2873TIP3   OH230109   6.031   0.348  10.077 -0.3270  0.3689  0.9033
 2873TIP3    H130110   5.983   0.404  10.016  0.1251  0.9962  1.0992
 2873TIP3    H230111   6.114   0.330  10.032 -1.0732 -1.4413  0.1907
 2874TIP3   OH230112   2.634   1.075  13.671  0.1186  0.2897  0.5432
 2874TIP3    H130113   2.638   1.013  13.598  2.5082  1.5713 -0.5558
 2874TIP3    H230114   2.566   1.138  13.646  1.6189  1.3274 -1.2114
 2875TIP3   OH230115   2.425   6.628   0.599 -0.3154  0.4176 -0.1605
 2875TIP3    H130116   2.514   6.661   0.608 -0.6495  1.8943 -1.7321
 2875TIP3    H230117   2.392   6.670   0.519 -2.4676  0.0351  0.4642
 2876TIP3   OH230118   5.711   4.595  10.267  0.1377 -0.0678  0.2479
 2876TIP3    H130119   5.725   4.502  10.247 -0.0067  0.2761 -1.6082
 2876TIP3    H230120   5.783   4.617  10.326  2.4337 -0.4974 -2.1951
 2877TIP3   OH230121   0.619   3.872   2.324 -0.3704 -0.0534 -0.3490
 2877TIP3    H130122   0.569   3.830   2.394  1.4944 -0.0439  1.0740
 2877TIP3    H230123   0.691   3.812   2.305 -0.4923  0.2241 -1.8613
 2878TIP3   OH230124   1.482   6.842   4.315  0.1440  0.0084  0.1092
 2878TIP3    H130125   1.478   6.771   4.379 -2.4217  1.0214  1.1776
 2878TIP3    H230126   1.567   6.829   4.272  1.8953 -0.9449  3.4434
 2879TIP3   OH230127   0.769   6.020   2.196 -0.6875 -0.3717 -0.1776
 2879TIP3    H130128   0.685   6.063   2.177 -0.3856  0.8079  1.0662
 2879TIP3    H230129   0.765   5.999   2.289  0.5974  0.1517  0.0114
 2880TIP3   OH230130   3.054   0.559  12.970  0.0958  0.1241  0.7257
 2880TIP3    H130131   3.101   0.625  13.021 -0.3261  0.7089  0.3606
 2880TIP3    H230132   3.119   0.526  12.908 -0.3889  2.2540 -1.0515
 2881TIP3   OH230133   0.089   4.941  10.283  0.2148 -0.1724 -0.8890
 2881TIP3    H130134   0.150   4.870  10.300 -1.5153 -1.3148  0.9940
 2881TIP3    H230135   0.072   4.935  10.189 -0.4289 -2.7935 -0.6975
 2882TIP3   OH230136   4.853   2.509  10.186 -0.4493  0.3916 -0.3344
 2882TIP3    H130137   4.865   2.415  10.177 -1.2933  0.3338 -1.0181
 2882TIP3    H230138   4.934   2.540  10.227 -0.7824 -0.8310  1.3644
 2883TIP3   OH230139   0.931   6.151   0.786  0.3613  0.1486  0.3144
 2883TIP3    H130140   0.846   6.110   0.773  0.2037 -0.3047  2.4999
 2883TIP3    H230141   0.911   6.243   0.806  0.2248 -0.3338  2.5760
 2884TIP3   OH230142   3.285   4.840   1.896  0.3934  0.4019  0.2121
 2884TIP3    H130143   3.303   4.934   1.889  1.4280  0.2505  0.6637
 2884TIP3    H230144   3.356   4.807   1.951  0.0639 -0.6555  0.0055
 2885TIP3   OH230145   6.183   1.199  11.647  0.0189 -0.1940 -0.4795
 2885TIP3    H130146   6.268   1.222  11.685  0.6597 -0.0888 -1.9225
 2885TIP3    H230147   6.201   1.124  11.591 -0.8755 -0.2705 -0.6873
 2886TIP3   OH230148   1.600   6.950  13.404  0.7222  0.0165 -0.1313
 2886TIP3    H130149   1.623   7.029  13.354 -0.4073  0.7451  0.4653
 2886TIP3    H230150   1.653   6.956  13.484  1.2545 -0.2735 -0.4534
 2887TIP3   OH230151   3.827   2.317   0.686  0.3559 -0.0968 -0.0161
 2887TIP3    H130152   3.773   2.258   0.739  0.2850  0.2205  0.2665
 2887TIP3    H230153   3.910   2.270   0.675 -0.3636 -1.1061 -1.4324
 2888TIP3   OH230154   3.141   6.716  10.341 -0.4624 -0.3175 -0.0337
 2888TIP3    H130155   3.211   6.681  10.395  0.6467 -1.2854 -1.9788
 2888TIP3    H230156   3.173   6.801  10.312 -0.5661 -0.2791 -0.0361
 2889TIP3   OH230157   3.527   0.245   1.358 -0.2581 -0.7836 -0.0131
 2889TIP3    H130158   3.522   0.161   1.313 -1.3645 -0.6342 -0.1963
 2889TIP3    H230159   3.440   0.257   1.396 -0.1683  0.3656 -0.1462
 2890TIP3   OH230160   2.566   2.511  12.224  0.0030  0.1103 -0.7324
 2890TIP3    H130161   2.649   2.520  12.271 -0.8409 -3.0518  1.7177
 2890TIP3    H230162   2.520   2.593  12.243  1.2673  0.5355  0.7571
 2891TIP3   OH230163   6.240   4.964   9.484 -0.0195  0.7003  0.3547
 2891TIP3    H130164   6.217   4.986   9.394 -1.1534 -1.3033  0.0859
 2891TIP3    H230165   6.170   4.905   9.512  0.2409  1.3703  2.6041
 2892TIP3   OH230166   6.553   6.003  14.862  0.4589 -0.3391 -0.0078
 2892TIP3    H130167   6.470   6.007  14.909 -0.3742 -2.1502 -1.1925
 2892TIP3    H230168   6.531   6.030  14.773  1.1876 -0.6197 -0.2780
 2893TIP3   OH230169   1.905   0.215   9.577 -0.0218 -0.3981 -0.2387
 2893TIP3    H130170   1.998   0.211   9.599  0.2301  1.9962 -0.6351
 2893TIP3    H230171   1.903   0.239   9.484 -0.9769  1.3447  0.1883
 2894TIP3   OH230172   7.248   1.085  12.559 -0.2317 -0.8299  0.5997
 2894TIP3    H130173   7.163   1.128  12.555 -0.6954 -1.6714  0.9726
 2894TIP3    H230174   7.234   1.000  12.517  0.6353 -0.6611 -0.0512
 2895TIP3   OH230175   7.066   4.011   1.641 -0.0194 -0.3097  0.2262
 2895TIP3    H130176   7.097   3.927   1.608 -0.7308 -1.3549  2.0818
 2895TIP3    H230177   7.012   4.046   1.570  0.1335 -1.4928 -0.4950
 2896TIP3   OH230178   6.316   1.654  13.674  0.2929 -0.4169  0.2043
 2896TIP3    H130179   6.364   1.728  13.638  0.9545 -0.5767  0.7275
 2896TIP3    H230180   6.228   1.687  13.690  1.1048  0.8748  2.3448
 2897TIP3   OH230181   3.082   4.855  11.980  0.4265  0.2304  0.4584
 2897TIP3    H130182   3.129   4.819  11.906 -1.5233  0.0904 -0.7819
 2897TIP3    H230183   3.085   4.787  12.047  0.5239 -0.4460 -0.2285
 2898TIP3   OH230184   4.183   2.493  12.168 -0.3771 -0.7593  0.5361
 2898TIP3    H130185   4.228   2.509  12.251  0.3999 -0.3783  0.0517
 2898TIP3    H230186   4.167   2.581  12.133 -0.7808 -0.9169  0.3198
 2899TIP3   OH230187   6.380   0.940  11.315  0.6498 -0.0597 -0.4467
 2899TIP3    H130188   6.384   0.858  11.265  3.1702 -0.1200 -0.2844
 2899TIP3    H230189   6.354   1.006  11.251  1.8420 -0.4743 -1.3963
 2900TIP3   OH230190   4.072   3.420  12.533 -0.6874 -0.1942  0.5804
 2900TIP3    H130191   4.066   3.348  12.470 -1.6462  0.5771 -0.2513
 2900TIP3    H230192   4.051   3.380  12.617 -1.1673 -0.9106  0.1329
 2901TIP3   OH230193   5.315   5.879  12.764 -0.1584 -0.0430 -0.5710
 2901TIP3    H130194   5.349   5.794  12.793 -0.2394 -0.5470 -1.9045
 2901TIP3    H230195   5.227   5.860  12.731 -1.2661  1.0114  1.5060
 2902TIP3   OH230196   6.073   7.230  11.321  0.2203  0.8752 -0.1656
 2902TIP3    H130197   5.989   7.212  11.363 -0.4335 -1.9192 -2.3802
 2902TIP3    H230198   6.134   7.168  11.360  1.2883  2.7377  1.2649
 2903TIP3   OH230199   0.454   5.865  10.658  0.7521 -0.2535 -0.6237
 2903TIP3    H130200   0.436   5.935  10.596  1.5823  0.5171 -0.0304
 2903TIP3    H230201   0.515   5.806  10.612  1.3517  0.3051 -0.5625
 2904TIP3   OH230202   3.009   3.011  14.800  0.5524  0.3870  0.9603
 2904TIP3    H130203   3.092   3.021  14.846  0.9955  0.4528  0.1642
 2904TIP3    H230204   3.031   2.962  14.721 -0.4042 -0.7817  1.3908
 2905TIP3   OH230205   2.599   6.932   2.760  0.2897 -0.3188  0.4542
 2905TIP3    H130206   2.676   6.875   2.761 -0.0684 -0.8174 -0.1327
 2905TIP3    H230207   2.544   6.898   2.690 -0.4547  0.0533  0.8433
 2906TIP3   OH230208   2.844   2.708  11.192  0.0861 -0.2627 -0.3511
 2906TIP3    H130209   2.843   2.635  11.253 -0.2587 -0.7321 -0.9131
 2906TIP3    H230210   2.916   2.689  11.132  2.0844  1.4303  1.3491
 2907TIP3   OH230211   0.635   5.244   0.134 -0.2786 -0.5284 -0.1432
 2907TIP3    H130212   0.630   5.183   0.061 -1.2891  0.5639 -1.0339
 2907TIP3    H230213   0.560   5.222   0.189 -1.1168  0.3612 -0.8780
 2908TIP3   OH230214   5.064   3.371   0.951  0.0287 -0.5859  0.0842
 2908TIP3    H130215   4.995   3.312   0.982  0.0715  0.7012  2.8400
 2908TIP3    H230216   5.018   3.433   0.894 -0.2562 -2.2712 -1.6538
 2909TIP3   OH230217   5.842   7.237  11.502 -0.1410  0.5138 -0.3859
 2909TIP3    H130218   5.843   7.152  11.548  1.4501  0.9190  0.3893
 2909TIP3    H230219   5.759   7.237  11.455 -0.4704 -1.2083  0.1108
 2910TIP3   OH230220   3.829   7.212  10.831  0.0448  0.3961  0.7222
 2910TIP3    H130221   3.907   7.253  10.870  1.1954 -0.8584 -0.1440
 2910TIP3    H230222   3.831   7.240  10.740 -0.8829  0.8273  0.8262
 2911TIP3   OH230223   6.931   0.277  13.215  0.3160  0.4246  1.1071
 2911TIP3    H130224   6.846   0.232  13.212  0.6661 -0.1802 -0.8311
 2911TIP3    H230225   6.923   0.346  13.150  0.9213  1.1470  1.7838
 2912TIP3   OH230226   0.711   6.658  14.241 -0.1016 -0.4777 -0.2653
 2912TIP3    H130227   0.620   6.665  14.213 -0.4680  1.9282  1.2974
 2912TIP3    H230228   0.760   6.653  14.159 -1.5979 -2.6906 -1.1452
 2913TIP3   OH230229   4.438   6.779  14.054  0.2621 -0.1104  0.3725
 2913TIP3    H130230   4.409   6.852  13.999 -0.9503 -0.7547  0.1037
 2913TIP3    H230231   4.533   6.780  14.049  0.2469  1.1757  0.0217
 2914TIP3   OH230232   0.359   6.445  12.883 -0.0884  0.1931 -0.4449
 2914TIP3    H130233   0.420   6.455  12.956 -0.2582  0.5603 -0.3513
 2914TIP3    H230234   0.303   6.371  12.908 -0.0798  0.2526 -0.2502
 2915TIP3   OH230235   0.486   0.687  14.534  0.4391 -0.3278 -0.1528
 2915TIP3    H130236   0.473   0.660  14.443  0.1007 -1.6311  0.2559
 2915TIP3    H230237   0.415   0.645  14.582 -0.2222  1.4793  0.5321
 2916TIP3   OH230238   2.860   4.093  14.640 -0.1990 -1.2530 -0.5465
 2916TIP3    H130239   2.918   4.077  14.566 -0.6210  0.3993 -1.2908
 2916TIP3    H230240   2.800   4.018  14.640 -0.0033 -1.4250 -1.6896
 2917TIP3   OH230241   5.996   2.365  10.984 -0.0730  0.0472  0.4568
 2917TIP3    H130242   6.081   2.349  11.024 -1.2220 -2.3427  2.1837
 2917TIP3    H230243   5.962   2.278  10.962 -1.4271  1.0134 -1.6971
 2918TIP3   OH230244   1.142   0.512  12.948  0.3264  0.4573  0.0443
 2918TIP3    H130245   1.216   0.453  12.959 -1.3610 -1.7652  0.0510
 2918TIP3    H230246   1.172   0.576  12.883  1.4492 -1.8261 -1.8141
 2919TIP3   OH230247   1.700   4.167  13.746 -0.1930  0.1528 -0.3789
 2919TIP3    H130248   1.644   4.107  13.695  1.0070 -2.2278  0.9298
 2919TIP3    H230249   1.639   4.215  13.802 -1.1438 -0.5147 -0.8048
 2920TIP3   OH230250   6.191   5.411  12.731 -0.0533  0.5628 -0.5692
 2920TIP3    H130251   6.206   5.374  12.644 -0.1319  1.1203 -0.8210
 2920TIP3    H230252   6.232   5.497  12.728 -1.6115  1.3266 -0.6359
 2921TIP3   OH230253   0.382   0.956  10.540  0.0920 -0.3479  0.2699
 2921TIP3    H130254   0.312   1.019  10.558 -0.1777 -0.9155  1.3263
 2921TIP3    H230255   0.353   0.908  10.463  0.5034  1.0863 -0.8164
 2922TIP3   OH230256   1.513   6.938  12.627 -0.1180  0.0718 -0.7144
 2922TIP3    H130257   1.577   6.889  12.679 -0.1600  0.8742  0.1205
 2922TIP3    H230258   1.455   6.977  12.692 -0.1668  1.1209 -1.3724
 2923TIP3   OH230259   4.078   1.336  10.828 -0.3737  0.0256 -0.5839
 2923TIP3    H130260   4.121   1.384  10.757  1.0090  1.5354  1.1823
 2923TIP3    H230261   3.994   1.309  10.791  0.0450  1.2524 -2.5955
 2924TIP3   OH230262   4.374   5.596  12.891  0.5334 -0.0992  0.0948
 2924TIP3    H130263   4.309   5.538  12.932  0.3219  1.1551  1.6329
 2924TIP3    H230264   4.322   5.664  12.850  0.8163 -0.4659 -0.8878
 2925TIP3   OH230265   1.459   5.295  13.481 -0.9813 -0.1522  0.0649
 2925TIP3    H130266   1.500   5.368  13.433  0.5677  1.3112  3.2839
 2925TIP3    H230267   1.527   5.228  13.485 -1.0081 -0.1604  0.4117
 2926TIP3   OH230268   5.072   1.454  10.799  0.0229  0.6022  0.0931
 2926TIP3    H130269   5.044   1.474  10.710 -0.0029  0.8470  0.1580
 2926TIP3    H230270   4.994   1.421  10.842  0.1667 -0.0649 -0.1416
 2927TIP3   OH230271   3.885   6.985  13.411 -0.3063  0.0109  0.4327
 2927TIP3    H130272   3.810   6.998  13.352  0.3689  0.2666 -0.3840
 2927TIP3    H230273   3.924   6.903  13.383  1.4094  1.2648 -1.0674
 2928TIP3   OH230274   3.921   3.556   0.321 -0.3611  0.2305  0.1475
 2928TIP3    H130275   3.931   3.620   0.392  1.0998 -1.6801  1.8059
 2928TIP3    H230276   3.836   3.515   0.339 -0.3379  0.2695  0.3541
 2929TIP3   OH230277   1.469   3.630  12.528 -0.3083 -0.1852 -0.1188
 2929TIP3    H130278   1.507   3.709  12.490 -1.1245 -0.0382 -0.6529
 2929TIP3    H230279   1.383   3.622  12.487 -0.0346 -1.6470 -0.4644
 2930TIP3   OH230280   7.054   6.660  12.801  0.2467 -0.0354  0.3335
 2930TIP3    H130281   6.996   6.686  12.873 -1.0557 -1.5588 -0.0936
 2930TIP3    H230282   7.080   6.570  12.822 -1.0693 -0.9418 -1.5841
 2931TIP3   OH230283   5.320   2.605  10.697  0.3069 -0.4957 -0.0494
 2931TIP3    H130284   5.366   2.566  10.622  3.0445  1.1148  0.6422
 2931TIP3    H230285   5.327   2.699  10.683 -0.5492 -0.1809  1.4356
 2932TIP3   OH230286   1.836   5.762  10.133  0.3473 -0.0690 -0.4869
 2932TIP3    H130287   1.759   5.772  10.189  0.8260 -1.5211  0.5043
 2932TIP3    H230288   1.801   5.734  10.048 -0.5196  3.6429 -1.5406
 2933TIP3   OH230289   2.627   1.688   0.122 -0.4509  0.0015  1.1796
 2933TIP3    H130290   2.579   1.727   0.049  3.3171 -0.6794 -1.9848
 2933TIP3    H230291   2.590   1.600   0.130 -1.1814  0.2100  0.2736
 2934TIP3   OH230292   6.343   5.863  13.923 -0.1969  0.4416 -0.3149
 2934TIP3    H130293   6.287   5.933  13.956  0.0532 -0.2804  1.8281
 2934TIP3    H230294   6.400   5.841  13.997  0.5603 -1.1758 -1.3182
 2935TIP3   OH230295   1.015   6.902   9.045 -0.5366  0.7309 -0.0736
 2935TIP3    H130296   1.000   6.847   9.122 -0.9361 -0.1809 -0.7830
 2935TIP3    H230297   1.102   6.940   9.059 -0.2351 -0.1157  0.4055
 2936TIP3   OH230298   7.124   2.931   9.753  0.0722  0.0292 -0.2537
 2936TIP3    H130299   7.030   2.941   9.772 -0.2316 -2.0109 -0.4057
 2936TIP3    H230300   7.166   2.931   9.839 -0.0111  1.2638 -0.2014
 2937TIP3   OH230301   2.979   3.339  10.728  0.4448 -0.2380 -0.1853
 2937TIP3    H130302   2.973   3.269  10.663 -1.1266  0.7213 -1.1374
 2937TIP3    H230303   2.911   3.318  10.792  0.9771 -0.3661  0.3480
 2938TIP3   OH230304   4.952   0.710  14.306 -0.0363  0.0506  0.4385
 2938TIP3    H130305   4.946   0.661  14.224 -0.1944 -1.5968  1.3842
 2938TIP3    H230306   5.040   0.748  14.304 -0.0397  0.0446 -0.4861
 2939TIP3   OH230307   6.484   0.605   3.519 -0.4593 -0.1110  0.2147
 2939TIP3    H130308   6.576   0.587   3.500 -0.8278 -0.5640 -1.3273
 2939TIP3    H230309   6.484   0.646   3.605  0.9521 -2.5846  1.4993
 2940TIP3   OH230310   3.842   3.082  13.710  0.0788 -0.7301 -0.1532
 2940TIP3    H130311   3.907   3.013  13.725  0.2032 -0.1954  2.1127
 2940TIP3    H230312   3.895   3.157  13.683 -0.0008 -1.2880 -2.0036
 2941TIP3   OH230313   5.576   0.211  14.836 -0.1169 -0.3600  0.1705
 2941TIP3    H130314   5.557   0.201  14.743 -0.8999  0.9904  0.1640
 2941TIP3    H230315   5.581   0.121  14.869 -1.0216 -0.8415 -0.9421
 2942TIP3   OH230316   4.612   0.183  11.325 -0.7491 -0.6917 -0.0316
 2942TIP3    H130317   4.635   0.262  11.276 -5.1600  1.4508  0.8499
 2942TIP3    H230318   4.549   0.138  11.269 -2.0425 -0.8520  1.4775
 2943TIP3   OH230319   0.777   1.660  12.131  0.2473  0.4490  0.6379
 2943TIP3    H130320   0.785   1.743  12.086 -0.8698  0.7960  1.0414
 2943TIP3    H230321   0.715   1.677  12.202  1.5704 -0.1881  2.0366
 2944TIP3   OH230322   0.141   2.246  13.474  0.1278  0.1362 -0.6351
 2944TIP3    H130323   0.136   2.337  13.445  0.8930  0.5233  0.4104
 2944TIP3    H230324   0.158   2.197  13.394  3.0356  1.2670 -0.8591
 2945TIP3   OH230325   7.162   1.129  13.583  0.0435  0.1996 -0.5923
 2945TIP3    H130326   7.129   1.052  13.536  0.0657  0.6021 -1.2797
 2945TIP3    H230327   7.255   1.132  13.562 -0.0279  0.6166 -0.8540
 2946TIP3   OH230328   1.832   1.367   1.027 -0.9036  0.3131  0.1718
 2946TIP3    H130329   1.799   1.438   0.972 -0.3946  0.3290 -0.1115
 2946TIP3    H230330   1.769   1.363   1.099 -0.6326  1.4260  0.4957
 2947TIP3   OH230331   0.676   7.190   0.823  0.2242  0.0569  0.3577
 2947TIP3    H130332   0.749   7.204   0.883 -0.1661  0.0176  0.8513
 2947TIP3    H230333   0.615   7.134   0.871 -0.7327  1.1402  0.4699
 2948TIP3   OH230334   5.684   1.806  12.346 -0.5842  0.7279 -0.3327
 2948TIP3    H130335   5.681   1.794  12.251 -1.1118 -0.3793 -0.1920
 2948TIP3    H230336   5.600   1.846  12.367 -0.1801  1.6431 -0.3999
 2949TIP3   OH230337   6.293   6.014  14.967 -0.1361  0.4704  0.3793
 2949TIP3    H130338   6.199   6.027  14.951  0.0064  1.8945  0.5683
 2949TIP3    H230339   6.303   5.919  14.973 -1.3395  0.2106 -0.9861
 2950TIP3   OH230340   3.719   6.869  14.824 -0.1465 -0.3046  0.2056
 2950TIP3    H130341   3.664   6.852  14.900 -2.1291  1.4787 -0.6931
 2950TIP3    H230342   3.784   6.932  14.855  0.1291 -0.8683  0.7958
 2951TIP3   OH230343   3.017   5.875   9.774 -0.3987  0.7868  0.6558
 2951TIP3    H130344   2.976   5.949   9.730 -0.6112  0.8221  0.9074
 2951TIP3    H230345   3.110   5.896   9.774 -0.3895  0.7546  0.1719
 2952TIP3   OH230346   0.836   2.205  12.864 -0.1578 -0.6519 -0.2314
 2952TIP3    H130347   0.813   2.295  12.843 -0.5168 -0.7357 -0.2154
 2952TIP3    H230348   0.868   2.169  12.781  1.7092 -0.0008  0.1730
 2953TIP3   OH230349   5.818   5.386   9.660 -0.3170 -0.1826  0.0478
 2953TIP3    H130350   5.858   5.394   9.573 -0.3189 -1.0256 -0.0418
 2953TIP3    H230351   5.767   5.466   9.670  2.3477  1.5476  0.6966
 2954TIP3   OH230352   1.071   4.714   0.747 -0.3003  0.2531  0.6573
 2954TIP3    H130353   1.061   4.759   0.663 -0.2650 -1.0872 -0.0965
 2954TIP3    H230354   1.011   4.639   0.741  0.3476 -0.3485  1.4788
 2955TIP3   OH230355   6.091   5.362  14.119 -0.3892 -0.4680  0.9201
 2955TIP3    H130356   6.048   5.385  14.037 -0.1498 -0.9142  0.6642
 2955TIP3    H230357   6.098   5.267  14.116  1.5652 -0.3340  0.4799
 2956TIP3   OH230358   4.202   5.716  12.712 -0.0584 -0.4817 -0.2695
 2956TIP3    H130359   4.212   5.760  12.628  1.5258  0.0196  0.1522
 2956TIP3    H230360   4.232   5.626  12.696 -0.3418 -0.5606 -0.3737
 2957TIP3   OH230361   4.296   6.378   9.621  0.1830 -0.2354 -0.1919
 2957TIP3    H130362   4.308   6.283   9.613 -0.5649 -0.3967  0.3905
 2957TIP3    H230363   4.201   6.390   9.622  0.2682  0.4740  0.2217
 2958TIP3   OH230364   1.039   4.043  12.476 -0.0706  0.2469  0.1162
 2958TIP3    H130365   1.133   4.053  12.484 -0.2622  0.9563  1.7700
 2958TIP3    H230366   1.028   3.966  12.419  1.5025 -0.9360  1.3283
 2959TIP3   OH230367   7.174   5.033  13.815 -1.0087 -0.4338 -0.6643
 2959TIP3    H130368   7.144   5.112  13.860  0.8399  2.0695 -3.4251
 2959TIP3    H230369   7.120   4.963  13.851 -2.6285  1.9964  2.1241
 2960TIP3   OH230370   7.175   4.307  11.800  0.4884 -0.6414  0.2995
 2960TIP3    H130371   7.265   4.290  11.775  0.5964 -0.4693  0.5584
 2960TIP3    H230372   7.122   4.258  11.738  0.6519  1.8197 -1.9854
 2961TIP3   OH230373   5.595   3.914  15.137 -0.4851 -0.0951  0.3056
 2961TIP3    H130374   5.639   3.895  15.221 -0.9474 -0.4188  0.4806
 2961TIP3    H230375   5.537   3.839  15.124 -0.8796  0.2607  0.0095
 2962TIP3   OH230376   2.441   0.919  14.413  0.1807  0.4650  0.4416
 2962TIP3    H130377   2.519   0.967  14.386  1.6308 -1.8609  0.2605
 2962TIP3    H230378   2.380   0.987  14.441  2.5758  2.3448  1.4576
 2963TIP3   OH230379   4.604   2.345  12.039 -0.7652 -0.1682  0.1537
 2963TIP3    H130380   4.643   2.306  12.117  2.0464  0.9310 -0.5664
 2963TIP3    H230381   4.619   2.439  12.049 -1.7683  0.1483 -1.0010
 2964TIP3   OH230382   0.670   1.653  13.551 -0.4187 -0.2863  0.3703
 2964TIP3    H130383   0.635   1.615  13.632 -2.1311  0.1750 -0.1278
 2964TIP3    H230384   0.681   1.746  13.572 -1.6525 -0.0041 -0.1495
 2965TIP3   OH230385   1.510   4.133  10.731  0.2512 -0.5029 -0.0225
 2965TIP3    H130386   1.516   4.051  10.780  0.0250 -0.4824  0.0407
 2965TIP3    H230387   1.424   4.168  10.753  0.2866 -0.3226 -0.1662
 2966TIP3   OH230388   4.523   1.508  10.460 -0.4760  0.0889 -0.4467
 2966TIP3    H130389   4.614   1.477  10.460 -0.5163 -0.0290 -0.4024
 2966TIP3    H230390   4.506   1.532  10.369 -0.5545 -0.3424 -0.5480
 2967TIP3   OH230391   5.311   6.646   0.047  0.7485  0.0301  0.0500
 2967TIP3    H130392   5.291   6.614   0.135  1.4025 -0.4529  0.0307
 2967TIP3    H230393   5.231   6.692   0.019  0.6175  0.3767  0.9772
 2968TIP3   OH230394   6.036   4.979   9.075  0.3158  0.0395  0.3373
 2968TIP3    H130395   5.949   5.019   9.072 -0.2182 -1.1467 -1.0504
 2968TIP3    H230396   6.020   4.885   9.076  1.5805 -0.1941  0.5891
 2969TIP3   OH230397   7.197   3.272  15.136 -0.4022 -0.9135 -0.0427
 2969TIP3    H130398   7.165   3.223  15.212  0.6026 -1.4046  0.0841
 2969TIP3    H230399   7.290   3.285  15.154 -0.3895 -0.0556 -0.6774
 2970TIP3   OH230400   2.800   0.997  12.471 -0.2057  0.0756  0.3683
 2970TIP3    H130401   2.834   1.078  12.511 -0.1870  0.4855 -0.4482
 2970TIP3    H230402   2.708   0.995  12.498  0.5162 -1.3644  3.1133
 2971TIP3   OH230403   5.601   6.110  11.000  0.3520 -0.6035 -0.0558
 2971TIP3    H130404   5.525   6.148  10.956  1.7834  1.2697 -1.0679
 2971TIP3    H230405   5.575   6.104  11.092 -1.4542 -1.2469 -0.5669
 2972TIP3   OH230406   1.065   2.840  14.686 -0.3287 -0.1846  0.1531
 2972TIP3    H130407   1.007   2.786  14.740 -1.4638 -2.0456 -2.6778
 2972TIP3    H230408   1.148   2.841  14.733 -0.5164 -3.7334  0.8024
 2973TIP3   OH230409   6.308   2.876   2.334 -0.3674 -0.5422 -0.6917
 2973TIP3    H130410   6.381   2.856   2.391 -0.5344  0.5214 -0.0897
 2973TIP3    H230411   6.286   2.967   2.352 -1.3754 -0.6208 -1.3789
 2974TIP3   OH230412   3.649   6.668   9.831  0.0443  0.2790  0.1082
 2974TIP3    H130413   3.664   6.739   9.769  0.9983 -0.4419 -0.5195
 2974TIP3    H230414   3.715   6.603   9.809 -1.0135 -0.9591  0.4426
 2975TIP3   OH230415   4.490   0.299  12.954 -0.4165  0.4859 -0.5169
 2975TIP3    H130416   4.407   0.306  13.001 -0.5565 -1.0224 -0.5058
 2975TIP3    H230417   4.481   0.221  12.900  0.7518  0.6783 -1.0225
 2976TIP3   OH230418   5.474   4.808   9.864  0.4814 -0.0675 -0.2294
 2976TIP3    H130419   5.570   4.804   9.869  0.4223 -0.5176  2.8002
 2976TIP3    H230420   5.456   4.863   9.789  3.1427  0.6613 -0.4427
 2977TIP3   OH230421   3.217   5.907   1.237  0.5633 -0.2702 -0.2444
 2977TIP3    H130422   3.213   5.990   1.285  0.1585  0.2074 -1.0866
 2977TIP3    H230423   3.145   5.855   1.274  0.3818  0.0158 -0.1947
 2978TIP3   OH230424   4.150   3.858  13.767  0.0083 -0.5870  0.8507
 2978TIP3    H130425   4.184   3.938  13.728 -1.0844 -0.5916 -0.1632
 2978TIP3    H230426   4.183   3.859  13.857  2.3760 -0.4517  0.0269
 2979TIP3   OH230427   4.671   0.916   9.983  0.3208 -0.5867  0.3561
 2979TIP3    H130428   4.716   0.973   9.920 -1.0881 -1.0129 -1.0805
 2979TIP3    H230429   4.664   0.832   9.939 -3.2840 -0.1388 -0.2419
 2980TIP3   OH230430   4.308   3.422  11.865  0.0161 -0.0748  0.3448
 2980TIP3    H130431   4.285   3.359  11.933  0.6820 -0.8217 -0.1121
 2980TIP3    H230432   4.385   3.468  11.899  0.4223 -0.5314  0.0524
 2981TIP3   OH230433   3.024   4.438  12.166  0.1385 -0.2221 -0.2556
 2981TIP3    H130434   2.947   4.382  12.171 -0.8367  1.1390  0.2853
 2981TIP3    H230435   3.090   4.383  12.123 -1.4119 -1.0950 -1.6445
 2982TIP3   OH230436   3.297   7.171  10.981  0.1023 -0.4028 -0.2212
 2982TIP3    H130437   3.222   7.232  10.984 -0.1345 -0.7107  0.3078
 2982TIP3    H230438   3.257   7.084  10.979  0.4047 -0.6858  2.3056
 2983TIP3   OH230439   7.080   3.159  10.298  0.5911  0.2087 -0.1949
 2983TIP3    H130440   7.012   3.096  10.274  0.4657  0.0972  0.4255
 2983TIP3    H230441   7.036   3.221  10.357  0.5743  1.2032 -1.2231
 2984TIP3   OH230442   2.670   1.210  10.602  0.3777  0.2360  0.1252
 2984TIP3    H130443   2.644   1.300  10.620  0.8551 -0.0448  2.4375
 2984TIP3    H230444   2.598   1.174  10.551  0.3263  1.9877 -1.1116
 2985TIP3   OH230445   4.426   1.349  12.987  0.5068 -0.1957  0.3589
 2985TIP3    H130446   4.336   1.331  13.014  1.3852 -3.5273  1.6321
 2985TIP3    H230447   4.466   1.389  13.064  0.9020 -1.8938  1.0790
 2986TIP3   OH230448   2.355   3.966  14.771 -0.5276  1.0399 -0.2462
 2986TIP3    H130449   2.331   3.932  14.684  1.0548 -0.9661  0.0392
 2986TIP3    H230450   2.288   3.932  14.829  0.5223 -0.9777 -0.1199
 2987TIP3   OH230451   7.077   4.274   0.277 -0.2476  0.2844 -0.7237
 2987TIP3    H130452   7.149   4.212   0.285 -0.0926  0.3946 -1.1829
 2987TIP3    H230453   7.003   4.233   0.321 -0.1985 -0.3101 -1.1916
 2988TIP3   OH230454   2.796   0.059  11.866  0.3550  0.0917  0.3468
 2988TIP3    H130455   2.890   0.063  11.848  0.5581  0.1386  1.3173
 2988TIP3    H230456   2.773   0.149  11.889 -0.0269  0.1668 -0.3170
 2989TIP3   OH230457   0.126   0.803  10.609 -0.2032 -0.7975  0.3962
 2989TIP3    H130458   0.165   0.860  10.676 -1.7068  1.6137 -0.6300
 2989TIP3    H230459   0.038   0.784  10.642 -1.7700  2.1396 -1.6111
 2990TIP3   OH230460   1.737   4.045  14.512 -0.1144 -0.4606  0.4057
 2990TIP3    H130461   1.768   3.962  14.548  0.3905  0.0470  1.1778
 2990TIP3    H230462   1.674   4.020  14.445 -1.0338 -1.4431  1.6039
 2991TIP3   OH230463   0.750   5.339   1.700 -0.6564  0.3177  0.2763
 2991TIP3    H130464   0.737   5.414   1.642  1.1223 -0.0318 -0.6516
 2991TIP3    H230465   0.718   5.264   1.650  0.5083  0.0686 -0.1259
 2992TIP3   OH230466   0.254   6.735   9.472 -0.1836  0.2277 -0.6948
 2992TIP3    H130467   0.205   6.678   9.413 -0.6391  0.3447 -0.4320
 2992TIP3    H230468   0.301   6.675   9.530 -0.5698  0.1201 -0.4935
 2993TIP3   OH230469   5.881   4.423  13.430  0.4400 -0.1531 -0.4502
 2993TIP3    H130470   5.945   4.352  13.430 -1.2913 -1.8168 -1.1879
 2993TIP3    H230471   5.894   4.467  13.346 -1.0538 -2.1876 -1.8399
 2994TIP3   OH230472   7.127   6.125  10.828 -0.5679  0.1809  0.1101
 2994TIP3    H130473   7.072   6.079  10.892  0.0425 -0.6403  0.0716
 2994TIP3    H230474   7.072   6.132  10.750 -0.4271 -1.2447 -0.1602
 2995TIP3   OH230475   0.772   0.035   9.006 -0.6626 -0.0730 -0.0550
 2995TIP3    H130476   0.742   0.079   9.086 -0.2969 -1.0673  0.6482
 2995TIP3    H230477   0.821  -0.041   9.038  0.0459 -0.1207 -1.2223
 2996TIP3   OH230478   6.272   5.022  12.882 -0.3351 -0.7145  0.1569
 2996TIP3    H130479   6.289   5.094  12.820 -2.8759  1.8612  2.1739
 2996TIP3    H230480   6.359   4.984  12.899  0.7944  0.2812 -2.7828
 2997TIP3   OH230481   2.939   2.856  10.506 -0.1357  0.4058  0.1299
 2997TIP3    H130482   2.982   2.792  10.449 -0.1195  0.7484 -0.2453
 2997TIP3    H230483   2.866   2.890  10.453 -0.2341  0.5892  0.3812
 2998TIP3   OH230484   3.213   0.929  12.002  0.2879 -0.1252 -0.3834
 2998TIP3    H130485   3.121   0.903  11.993  0.2087 -0.3931  0.9898
 2998TIP3    H230486   3.233   0.977  11.921 -0.8213 -0.7548 -1.0444
 2999TIP3   OH230487   3.063   2.683  12.677  0.0035 -0.6616 -0.0190
 2999TIP3    H130488   3.010   2.758  12.648  3.1743  0.8679 -2.5044
 2999TIP3    H230489   3.034   2.610  12.621 -1.6414 -0.7836  0.9423
 3000TIP3   OH230490   3.602   3.933   1.195  0.5017  0.1861  0.2622
 3000TIP3    H130491   3.558   3.860   1.241 -0.2798  0.3191 -0.2495
 3000TIP3    H230492   3.620   3.997   1.264 -0.5634  0.3344  0.4279
 3001TIP3   OH230493   4.958   3.550   0.710 -0.0944  0.6186 -0.9489
 3001TIP3    H130494   4.935   3.636   0.747  1.5068  0.7878 -0.2826
 3001TIP3    H230495   4.977   3.568   0.618  1.6268  1.2740 -0.5003
 3002TIP3   OH230496   0.152   2.893   9.415  0.1512 -0.6350 -0.0026
 3002TIP3    H130497   0.061   2.864   9.411  0.2249 -1.0111  0.7432
 3002TIP3    H230498   0.147   2.983   9.449  0.0866 -0.8719  0.6253
 3003TIP3   OH230499   1.695   2.046  15.108 -0.1911  0.3040  0.0834
 3003TIP3    H130500   1.762   2.086  15.052  1.9833 -1.9414  0.8705
 3003TIP3    H230501   1.655   1.979  15.052 -0.3038  0.2356  0.2470
 3004TIP3   OH230502   0.076   5.218  10.681 -0.4815 -0.2363  0.0268
 3004TIP3    H130503   0.136   5.284  10.714 -1.2061  0.6834 -0.4499
 3004TIP3    H230504   0.133   5.148  10.649  0.4536  1.3182 -1.9399
 3005TIP3   OH230505   4.520   5.267   9.992 -0.2307 -0.6656 -0.2466
 3005TIP3    H130506   4.509   5.356  10.024 -0.2589 -0.3898 -0.9920
 3005TIP3    H230507   4.487   5.211  10.062 -2.2542 -0.0136 -0.6107
 3006TIP3   OH230508   6.022   5.543  11.871 -0.4410  0.0264  0.0324
 3006TIP3    H130509   6.067   5.612  11.823 -0.5373 -0.1268 -0.2837
 3006TIP3    H230510   6.011   5.578  11.960 -0.1193  0.2465 -0.0154
 3007TIP3   OH230511   3.945   3.191  14.173 -0.3748  0.1709 -0.4010
 3007TIP3    H130512   3.876   3.159  14.115 -0.0707 -0.7425 -0.2769
 3007TIP3    H230513   4.026   3.163  14.131 -0.1351 -0.0502  0.2059
 3008TIP3   OH230514   6.565   0.366   9.502 -0.1226  0.0810 -0.2239
 3008TIP3    H130515   6.482   0.406   9.476 -0.1996  0.1537  0.1298
 3008TIP3    H230516   6.547   0.272   9.497 -0.5518  0.0944  0.8566
 3009TIP3   OH230517   0.820   2.705  11.259 -0.1322 -0.2389 -0.2006
 3009TIP3    H130518   0.859   2.703  11.347 -0.5265 -2.0787 -0.0212
 3009TIP3    H230519   0.828   2.796  11.231  0.2030  0.3450  1.6591
 3010TIP3   OH230520   3.615   2.648  13.212  0.0621 -0.0983 -0.5130
 3010TIP3    H130521   3.575   2.654  13.125 -0.7392 -0.2650 -0.1658
 3010TIP3    H230522   3.583   2.724  13.259 -0.8878 -0.8961  0.1768
 3011TIP3   OH230523   6.057   1.196  11.886  0.0406  0.0458 -0.3474
 3011TIP3    H130524   6.096   1.181  11.800  0.4529 -0.7916 -0.0224
 3011TIP3    H230525   5.972   1.153  11.883 -0.5558  1.2069 -0.7916
 3012TIP3   OH230526   0.542   2.321  11.099  0.2621  0.4952 -0.5802
 3012TIP3    H130527   0.630   2.349  11.073  1.6495 -0.6091  2.4379
 3012TIP3    H230528   0.513   2.387  11.161 -2.0158  1.9002 -2.9142
 3013TIP3   OH230529   1.315   5.940  15.154  0.0399 -0.2418  0.0903
 3013TIP3    H130530   1.358   6.014  15.197 -0.5815 -0.0050  0.3134
 3013TIP3    H230531   1.257   5.904  15.220 -1.1587  0.3182 -0.6282
 3014TIP3   OH230532   4.696   2.648  12.069  0.0413  0.4827 -0.5766
 3014TIP3    H130533   4.729   2.707  12.136 -1.1310 -0.2462  0.6996
 3014TIP3    H230534   4.637   2.703  12.016  0.3077  0.8559 -0.4932
 3015TIP3   OH230535   0.790   2.288  10.291 -0.4104  0.3380 -0.5117
 3015TIP3    H130536   0.834   2.332  10.218 -0.4785  2.7466  0.7938
 3015TIP3    H230537   0.728   2.352  10.324 -1.8607 -1.4491  0.3967
 3016TIP3   OH230538   6.402   4.316  11.662 -0.1601 -0.2065 -0.4432
 3016TIP3    H130539   6.438   4.230  11.641  0.2660 -0.3329  0.7344
 3016TIP3    H230540   6.324   4.324  11.607  0.4295 -0.8608 -1.3941
 3017TIP3   OH230541   0.473   0.172   8.991 -0.5450  0.4494  0.0240
 3017TIP3    H130542   0.563   0.151   9.016 -1.7053 -3.1571  1.9513
 3017TIP3    H230543   0.454   0.112   8.919 -1.9249 -0.2153  0.9063
 3018TIP3   OH230544   4.821   4.878  10.149  0.0651  0.4684  1.0960
 3018TIP3    H130545   4.769   4.802  10.173 -0.8831  0.4485 -0.7902
 3018TIP3    H230546   4.877   4.847  10.078  0.2703  1.3074  0.8772
 3019TIP3   OH230547   6.390   1.241  12.600 -0.5287 -0.4165  0.4684
 3019TIP3    H130548   6.354   1.311  12.546 -1.3756 -2.5723 -1.9803
 3019TIP3    H230549   6.452   1.196  12.542  0.8631 -1.0150  2.3385
 3020TIP3   OH230550   5.863   0.802  10.156 -0.6613 -0.2109  0.4124
 3020TIP3    H130551   5.956   0.802  10.182 -0.7823 -1.5119  0.9354
 3020TIP3    H230552   5.817   0.833  10.234 -0.7473 -0.7107  0.5660
 3021TIP3   OH230553   4.548   0.378  11.136 -0.0109 -0.0943  0.1190
 3021TIP3    H130554   4.538   0.447  11.202  0.9652 -0.2955  0.4935
 3021TIP3    H230555   4.615   0.412  11.076 -0.2375 -0.2979 -0.2533
 3022TIP3   OH230556   7.065   6.994  15.337 -1.1792  0.8677  0.2016
 3022TIP3    H130557   7.140   6.953  15.379  0.8063  1.2993 -2.5974
 3022TIP3    H230558   6.998   7.000  15.405  0.9694 -0.4332  2.5631
 3023TIP3   OH230559   5.541   0.757  10.159 -0.1039 -0.4487  0.1340
 3023TIP3    H130560   5.456   0.785  10.124  0.9441 -1.1957 -3.4360
 3023TIP3    H230561   5.548   0.665  10.132  2.2391 -0.0974 -0.6633
 3024TIP3   OH230562   5.522   7.019   3.667 -0.2096  0.6856  0.2161
 3024TIP3    H130563   5.577   6.978   3.734  0.1914  0.6571 -0.1287
 3024TIP3    H230564   5.524   7.113   3.688 -0.4932  0.6241  0.5374
 3025TIP3   OH230565   2.924   3.656   1.150  0.1345  0.0241  0.0926
 3025TIP3    H130566   2.947   3.740   1.192 -1.2522  0.5681 -0.2059
 3025TIP3    H230567   2.881   3.606   1.219  0.4411 -0.2170  0.1091
 3026TIP3   OH230568   0.222   2.665  12.191 -0.3623  0.3457  0.4989
 3026TIP3    H130569   0.154   2.599  12.175 -0.0656 -0.0829  0.9856
 3026TIP3    H230570   0.283   2.654  12.118 -0.4947  0.3294  0.3876
 3027TIP3   OH230571   6.768   4.503  10.935 -0.0408 -0.0449 -0.4547
 3027TIP3    H130572   6.704   4.435  10.915 -0.1108 -0.2382  0.4225
 3027TIP3    H230573   6.832   4.497  10.863 -0.9377  0.0919 -1.2884
 3028TIP3   OH230574   3.567   1.060  11.258 -0.2215  0.0775 -0.0223
 3028TIP3    H130575   3.642   1.116  11.236 -0.4789 -0.0411 -1.2694
 3028TIP3    H230576   3.498   1.121  11.283 -0.3687  0.3096 -0.9628
 3029TIP3   OH230577   2.701   1.185  11.480 -0.3508 -0.2572  0.2917
 3029TIP3    H130578   2.672   1.107  11.433 -1.6976  1.3549 -1.7768
 3029TIP3    H230579   2.796   1.186  11.468 -0.5089 -0.6496 -1.2562
 3030TIP3   OH230580   5.425   3.543   0.893  0.1075 -0.0693 -0.1999
 3030TIP3    H130581   5.494   3.521   0.830  0.4313 -0.8437  0.4119
 3030TIP3    H230582   5.470   3.591   0.963 -0.2087  0.5764 -0.4304
 3031TIP3   OH230583   1.481   5.199  10.465 -0.1726  0.0374 -0.1874
 3031TIP3    H130584   1.566   5.210  10.508  0.9193 -0.9359 -1.9727
 3031TIP3    H230585   1.432   5.141  10.522 -0.0514  1.3936  1.3691
 3032TIP3   OH230586   3.583   0.262  10.999  0.2326  0.7716 -0.6771
 3032TIP3    H130587   3.539   0.217  11.071  0.3244  1.7381  0.0017
 3032TIP3    H230588   3.540   0.230  10.920  0.4032 -0.6129 -0.2335
 3033TIP3   OH230589   1.576   0.757  12.940  0.7769  0.5665  0.0067
 3033TIP3    H130590   1.669   0.778  12.927  1.1610 -2.0209 -2.2831
 3033TIP3    H230591   1.530   0.811  12.875  0.9411  0.2546 -0.3760
 3034TIP3   OH230592   0.878   6.935  15.038 -0.1662 -0.7944 -0.1491
 3034TIP3    H130593   0.952   6.931  15.097 -0.6739  0.7737  0.6671
 3034TIP3    H230594   0.845   6.846  15.033  2.4151 -1.7687 -1.4430
 3035TIP3   OH230595   0.172   4.666   0.697  0.8301 -0.9651 -0.5497
 3035TIP3    H130596   0.200   4.720   0.771 -1.9379  0.0917 -0.1620
 3035TIP3    H230597   0.254   4.632   0.661  2.3510 -0.9415  2.5130
 3036TIP3   OH230598   3.184   1.527  14.586 -0.0359 -0.0139 -0.1928
 3036TIP3    H130599   3.236   1.603  14.562  1.8993 -1.2724 -0.2659
 3036TIP3    H230600   3.217   1.457  14.529 -3.3450 -0.4585 -1.8328
 3037TIP3   OH230601   2.301   2.753   9.326  0.3732  0.6166  0.4316
 3037TIP3    H130602   2.295   2.746   9.422  0.9105 -0.3844  0.3993
 3037TIP3    H230603   2.221   2.713   9.294  1.2908 -1.3038  0.4061
 3038TIP3   OH230604   7.236   2.418   1.135 -0.5970  0.5234 -0.1293
 3038TIP3    H130605   7.252   2.498   1.084 -2.2437  0.7078 -0.4103
 3038TIP3    H230606   7.141   2.415   1.145 -0.3749  0.2348  2.5502
 3039TIP3   OH230607   3.766   4.701   0.848 -0.0254  0.2165 -0.8918
 3039TIP3    H130608   3.842   4.674   0.898 -0.0044  1.0045 -0.4756
 3039TIP3    H230609   3.802   4.753   0.775 -0.0780 -0.6312 -1.5360
 3040TIP3   OH230610   1.207   5.276  11.419  0.0140  0.1788 -0.0128
 3040TIP3    H130611   1.196   5.201  11.477  0.2264 -1.9803 -2.5918
 3040TIP3    H230612   1.118   5.303  11.397 -0.0674 -0.1305 -0.0650
 3041TIP3   OH230613   4.648   3.817  10.176  0.5285 -0.5138 -0.2601
 3041TIP3    H130614   4.608   3.765  10.246 -0.3425  0.3963 -0.0640
 3041TIP3    H230615   4.589   3.891  10.165  1.1858 -0.1325 -1.2859
 3042TIP3   OH230616   2.359   6.369  11.851 -0.4997 -0.3304  0.2460
 3042TIP3    H130617   2.446   6.389  11.885  0.0012 -0.2316 -1.0143
 3042TIP3    H230618   2.365   6.279  11.819 -0.5173  0.0428 -0.8487
 3043TIP3   OH230619   6.057   7.062   3.750  0.4939  0.1105 -0.2442
 3043TIP3    H130620   5.977   7.091   3.793  0.3120  2.6682 -2.0531
 3043TIP3    H230621   6.028   7.003   3.681  0.3433 -0.2963  0.1644
 3044TIP3   OH230622   0.262   5.224  12.139 -0.1265 -0.4463  0.9749
 3044TIP3    H130623   0.231   5.283  12.071  1.6880  1.3873  1.6349
 3044TIP3    H230624   0.291   5.146  12.092 -0.1029  0.2571 -0.2237
 3045TIP3   OH230625   2.706   1.900  11.100  0.0074 -0.0456  0.1732
 3045TIP3    H130626   2.743   1.981  11.063  0.4881 -0.3605 -0.0486
 3045TIP3    H230627   2.643   1.930  11.166  0.1895  0.5104  0.0989
 3046TIP3   OH230628   0.859   0.394  13.679  0.8487 -0.1483  0.1874
 3046TIP3    H130629   0.924   0.405  13.749  0.1049  1.4772  0.6735
 3046TIP3    H230630   0.793   0.337  13.718  0.3315  0.9199  0.9248
 3047TIP3   OH230631   7.249   1.769  12.296  0.1189 -0.1100 -0.1328
 3047TIP3    H130632   7.197   1.723  12.361  1.2891  0.0093  0.9151
 3047TIP3    H230633   7.188   1.832  12.257 -0.6408 -0.2839  0.7434
 3048TIP3   OH230634   2.080   5.062   9.697  0.0864  0.5720 -0.2376
 3048TIP3    H130635   2.003   5.082   9.750  0.2500  0.0574  0.2078
 3048TIP3    H230636   2.088   5.136   9.636 -1.0234  0.4045 -0.6034
 3049TIP3   OH230637   4.249   3.479  12.286  0.5777  0.2157 -0.2257
 3049TIP3    H130638   4.343   3.481  12.268  0.5654  1.2756 -0.2278
 3049TIP3    H230639   4.243   3.460  12.380  0.8540  1.5586  0.0865
 3050TIP3   OH230640   5.926   6.203  13.366 -0.1425  0.1035 -0.0258
 3050TIP3    H130641   5.907   6.166  13.280  2.5101  1.3071 -1.2645
 3050TIP3    H230642   5.844   6.244  13.393 -0.5850  1.4554 -2.9854
 3051TIP3   OH230643   2.064   1.613  12.691  0.1757  0.2176  0.0164
 3051TIP3    H130644   2.052   1.542  12.754  2.3921 -0.3061 -0.0747
 3051TIP3    H230645   2.015   1.585  12.613 -0.7886 -0.1476  0.7426
 3052TIP3   OH230646   1.131   4.000  12.056  0.1745  0.1670 -0.2627
 3052TIP3    H130647   1.225   4.013  12.067  0.1801 -0.8061  1.2014
 3052TIP3    H230648   1.094   4.089  12.060  0.9881  0.5207 -0.4015
 3053TIP3   OH230649   0.275   7.214  11.608  0.0215 -0.5745  0.1296
 3053TIP3    H130650   0.338   7.286  11.609 -0.0794 -0.4861  1.2259
 3053TIP3    H230651   0.252   7.203  11.516  0.7633  0.1609 -0.1485
 3054TIP3   OH230652   0.928   4.876   9.927  0.2332 -0.4926 -0.0499
 3054TIP3    H130653   0.969   4.941   9.984 -0.9335 -0.9330  1.3634
 3054TIP3    H230654   1.000   4.840   9.876  0.8345  2.3743 -1.4264
 3055TIP3   OH230655   1.186   5.049   1.551 -0.2668  0.1107 -0.0171
 3055TIP3    H130656   1.190   4.955   1.571  1.8204  0.0328 -0.5452
 3055TIP3    H230657   1.255   5.087   1.605  0.2939  1.0287 -1.3437
 3056TIP3   OH230658   1.516   2.118   3.342 -0.0573 -0.4247  0.1076
 3056TIP3    H130659   1.435   2.160   3.314  0.1849  0.4255  0.6614
 3056TIP3    H230660   1.488   2.043   3.394 -0.4906  0.2177  0.8099
 3057TIP3   OH230661   6.676   0.653   0.708  0.5010  0.0402 -0.4191
 3057TIP3    H130662   6.631   0.737   0.710  0.3336  0.0411 -2.2361
 3057TIP3    H230663   6.769   0.675   0.712  0.4539  0.3155 -0.7880
 3058TIP3   OH230664   4.638   0.253  13.243 -0.0742  0.5380  0.2461
 3058TIP3    H130665   4.575   0.201  13.192  0.0745  0.6942 -0.0983
 3058TIP3    H230666   4.690   0.299  13.177 -0.0833  0.9865  0.5500
 3059TIP3   OH230667   3.606   5.083   1.725  0.0784  0.5556 -0.2703
 3059TIP3    H130668   3.628   4.994   1.755 -3.7254 -0.4078  0.1942
 3059TIP3    H230669   3.541   5.069   1.655 -0.0316  2.9784 -0.7260
 3060TIP3   OH230670   2.131   1.542  10.665  0.2966  0.0858 -0.6517
 3060TIP3    H130671   2.067   1.607  10.691  2.6655  2.7050 -0.8453
 3060TIP3    H230672   2.196   1.541  10.736 -0.2056 -3.0492 -0.0685
 3061TIP3   OH230673   7.179   7.019  12.300 -0.6852 -0.8181 -0.3946
 3061TIP3    H130674   7.119   7.093  12.304 -1.8909 -1.7371 -0.7714
 3061TIP3    H230675   7.230   7.024  12.381 -2.2240 -0.7769  0.5987
 3062TIP3   OH230676   0.157   6.465   0.856  0.6711  0.3731 -0.9993
 3062TIP3    H130677   0.164   6.546   0.907  0.2899  0.1329 -0.5577
 3062TIP3    H230678   0.241   6.421   0.869 -0.4257 -1.1158  1.8939
 3063TIP3   OH230679   4.672   0.623  10.015  0.1697  0.2710  0.0794
 3063TIP3    H130680   4.677   0.530   9.993 -1.8438  0.0841  0.2642
 3063TIP3    H230681   4.764   0.652  10.018  0.8847 -1.8910  0.9011
 3064TIP3   OH230682   1.307   3.749  14.482  0.0813  0.0642 -0.0062
 3064TIP3    H130683   1.254   3.685  14.530 -2.2505  1.9255  0.0908
 3064TIP3    H230684   1.337   3.701  14.404 -1.1872 -1.2997  0.2793
 3065TIP3   OH230685   4.086   2.924   0.861 -0.6573  0.6098  0.2008
 3065TIP3    H130686   4.009   2.923   0.917 -0.8788  1.6865 -0.0594
 3065TIP3    H230687   4.059   2.877   0.782 -0.7746  0.2539  0.4527
 3066TIP3   OH230688   5.659   1.649  14.059  0.0283 -0.3817  0.0202
 3066TIP3    H130689   5.722   1.662  14.130  0.7019  2.8717 -1.0156
 3066TIP3    H230690   5.584   1.703  14.083 -0.3738 -0.4644 -1.0011
 3067TIP3   OH230691   4.627   4.787   9.894  0.0897 -0.0634  0.6652
 3067TIP3    H130692   4.612   4.881   9.907 -1.2108 -0.3211  1.2345
 3067TIP3    H230693   4.606   4.772   9.802  0.4703  0.2346  0.5289
 3068TIP3   OH230694   4.144   2.750  15.298  0.0595 -0.5379 -0.2173
 3068TIP3    H130695   4.141   2.677  15.361 -1.3223  0.2948  0.7465
 3068TIP3    H230696   4.058   2.747  15.256 -0.1584  0.7602  0.1160
 3069TIP3   OH230697   3.551   5.739  15.332 -0.4989  0.0241 -0.3883
 3069TIP3    H130698   3.511   5.815  15.374  0.2692  0.7302 -0.9148
 3069TIP3    H230699   3.485   5.709  15.270 -0.7826  0.2982 -0.2263
 3070TIP3   OH230700   4.773   6.233   4.222  0.5498 -0.1762 -0.0116
 3070TIP3    H130701   4.680   6.214   4.208  0.4117  0.2598  0.3080
 3070TIP3    H230702   4.774   6.314   4.274  1.1072 -0.1370 -0.0748
 3071TIP3   OH230703   0.882   2.158  11.411  0.6275  0.5123  0.2179
 3071TIP3    H130704   0.940   2.122  11.478  0.0896 -0.7418  0.0432
 3071TIP3    H230705   0.934   2.154  11.330  0.9790  1.2321  0.4042
 3072TIP3   OH230706   2.303   4.016   1.659 -0.2815 -0.8001  0.0343
 3072TIP3    H130707   2.262   4.085   1.606 -1.9522 -2.2326 -0.6736
 3072TIP3    H230708   2.388   4.002   1.618 -0.8956 -0.7809 -1.2976
 3073TIP3   OH230709   6.723   3.299   0.479  0.8582  0.5614  0.5150
 3073TIP3    H130710   6.789   3.235   0.453 -0.7196 -0.8860 -0.1244
 3073TIP3    H230711   6.644   3.247   0.495 -0.3740  2.3136  0.3896
 3074TIP3   OH230712   5.598   6.198  12.756  0.2433 -0.4457  0.2075
 3074TIP3    H130713   5.596   6.102  12.759  3.3466 -0.5995  0.1113
 3074TIP3    H230714   5.687   6.221  12.781 -0.4599  2.4716  0.3961
 3075TIP3   OH230715   5.932   2.038  12.196 -0.3551 -0.0601 -0.2466
 3075TIP3    H130716   5.934   2.035  12.291 -1.7242  1.1393 -0.1480
 3075TIP3    H230717   5.843   2.012  12.173 -0.6001  1.3894 -1.0776
 3076TIP3   OH230718   4.778   7.244  14.648 -0.0283  0.2698  0.1986
 3076TIP3    H130719   4.696   7.196  14.638 -0.7328  1.7836 -2.5171
 3076TIP3    H230720   4.752   7.329  14.682  0.7161  0.0614  1.3335
 3077TIP3   OH230721   6.799   4.069  13.784 -0.6730  0.0631  0.2141
 3077TIP3    H130722   6.799   4.091  13.691  1.9459  0.2172  0.1829
 3077TIP3    H230723   6.742   4.135  13.824 -0.0681  1.3858 -1.0080
 3078TIP3   OH230724   6.374   4.868  11.603 -0.0299 -0.0742 -0.2140
 3078TIP3    H130725   6.376   4.782  11.561 -2.3863 -0.1960 -0.1840
 3078TIP3    H230726   6.330   4.925  11.540 -0.5204  0.5557  0.6762
 3079TIP3   OH230727   1.855   3.336  10.055  0.5780 -0.6061 -0.0820
 3079TIP3    H130728   1.874   3.430  10.057  2.0471 -0.8827  1.5715
 3079TIP3    H230729   1.765   3.330  10.022  0.6427  1.3304 -0.7265
 3080TIP3   OH230730   5.338   2.136  12.777 -0.1599 -1.0597  0.0213
 3080TIP3    H130731   5.401   2.103  12.712 -0.6490 -0.5245 -0.7298
 3080TIP3    H230732   5.337   2.231  12.763  2.3890 -0.4002  3.1739
 3081TIP3   OH230733   6.513   5.153   0.688 -0.7854 -0.0153 -0.3356
 3081TIP3    H130734   6.574   5.081   0.706 -1.0744  0.0027  0.7714
 3081TIP3    H230735   6.480   5.178   0.774 -2.4837 -0.1291 -0.9190
 3082TIP3   OH230736   0.859   5.337  11.773 -0.0101 -0.0575 -0.3335
 3082TIP3    H130737   0.878   5.257  11.724 -0.3188 -2.8974  3.6552
 3082TIP3    H230738   0.824   5.397  11.708  1.1511 -2.7693 -3.7951
 3083TIP3   OH230739   2.295   5.940  10.236  0.4974  0.0230 -0.2579
 3083TIP3    H130740   2.300   5.867  10.175 -0.5912 -1.3563  1.2135
 3083TIP3    H230741   2.387   5.962  10.256  0.8419 -1.4161 -0.1895
 3084TIP3   OH230742   0.463   1.140  13.467  0.4335 -0.0847 -0.3986
 3084TIP3    H130743   0.487   1.096  13.549  1.3632  1.7936  0.3837
 3084TIP3    H230744   0.544   1.142  13.416  0.3472  0.5283 -0.5156
 3085TIP3   OH230745   0.865   6.591  13.735 -0.3895 -0.2891  0.4588
 3085TIP3    H130746   0.811   6.517  13.709 -1.3241  0.2670  0.7613
 3085TIP3    H230747   0.854   6.655  13.665 -0.9682  0.2417  1.0223
 3086TIP3   OH230748   2.949   5.614  10.494 -0.0950  0.6724  0.4946
 3086TIP3    H130749   2.895   5.689  10.471  1.2098  1.8322  1.1076
 3086TIP3    H230750   3.016   5.610  10.426  1.2456  1.5374  1.7196
 3087TIP3   OH230751   4.811   2.651  14.993 -0.0940 -0.4473 -0.2022
 3087TIP3    H130752   4.748   2.722  15.009  0.0980 -0.3636  0.2103
 3087TIP3    H230753   4.769   2.573  15.030  0.3311 -0.2621  0.6946
 3088TIP3   OH230754   1.102   1.951  11.268 -0.3045  0.7134 -0.1253
 3088TIP3    H130755   1.091   1.860  11.296  0.2481  0.6090 -0.2495
 3088TIP3    H230756   1.186   1.978  11.305  0.6899  0.4211 -2.0336
 3089TIP3   OH230757   1.533   0.200  13.928  0.3518 -0.6946  0.6599
 3089TIP3    H130758   1.532   0.149  14.009 -1.2126 -0.0056  1.1231
 3089TIP3    H230759   1.452   0.175  13.883  0.4064  0.1188  0.0843
 3090TIP3   OH230760   1.035   5.715  10.785  0.0061 -0.2790  0.3373
 3090TIP3    H130761   1.020   5.790  10.728  0.3818  0.0026  0.5963
 3090TIP3    H230762   0.985   5.643  10.746  0.2184 -0.0797 -0.3168
 3091TIP3   OH230763   6.107   4.438  14.255 -0.3117  0.1259  0.0323
 3091TIP3    H130764   6.046   4.476  14.318  0.8440  1.4929  0.3725
 3091TIP3    H230765   6.141   4.513  14.207  0.2423 -0.7239 -0.9412
 3092TIP3   OH230766   5.591   4.424  13.606 -0.0308 -0.3115 -0.4083
 3092TIP3    H130767   5.596   4.518  13.589 -1.3268 -0.3285 -0.9751
 3092TIP3    H230768   5.524   4.392  13.546  0.6359 -1.6729 -0.4756
 3093TIP3   OH230769   4.876   1.176  10.159 -0.6247 -0.3936  0.5058
 3093TIP3    H130770   4.843   1.145  10.074 -1.3978 -1.2239  1.0875
 3093TIP3    H230771   4.800   1.173  10.217 -0.0956  0.1259  1.2447
 3094TIP3   OH230772   6.527   4.979  11.056  0.0926 -0.3030 -0.2521
 3094TIP3    H130773   6.539   5.054  10.997 -1.5339 -0.4605 -0.8240
 3094TIP3    H230774   6.516   4.904  10.997  1.1572 -0.9287  0.3121
 3095TIP3   OH230775   1.372   6.021  11.229  0.1811  0.4605  0.1102
 3095TIP3    H130776   1.368   5.963  11.305 -0.1626 -0.0390 -0.2803
 3095TIP3    H230777   1.419   6.098  11.260  3.7435 -1.3713 -0.1904
 3096TIP3   OH230778   1.688   0.331  11.799  0.4661 -0.4559  0.2184
 3096TIP3    H130779   1.617   0.384  11.834  1.2415 -0.1065  1.2989
 3096TIP3    H230780   1.710   0.270  11.869  1.6707 -0.1211  0.1460
 3097TIP3   OH230781   2.382   4.805   2.619  0.6234 -0.2327  0.1528
 3097TIP3    H130782   2.427   4.763   2.546  0.7638  0.2474 -0.0450
 3097TIP3    H230783   2.314   4.859   2.578 -0.3702 -1.2054  0.4640
 3098TIP3   OH230784   5.361   1.520  12.660  0.3373 -0.5042 -0.0915
 3098TIP3    H130785   5.388   1.611  12.671 -1.4650  0.4516 -2.6199
 3098TIP3    H230786   5.284   1.510  12.715  1.0167 -0.7850  0.8287
 3099TIP3   OH230787   4.339   6.826  12.027 -0.8532 -0.0604 -0.0411
 3099TIP3    H130788   4.354   6.883  11.951 -1.8945 -0.3591 -0.4880
 3099TIP3    H230789   4.398   6.752  12.012  0.4548  0.8211  0.5020
 3100TIP3   OH230790   6.007   1.140  14.074 -0.4055 -0.1205 -0.4778
 3100TIP3    H130791   5.936   1.150  14.011 -0.7462  0.8879  0.0482
 3100TIP3    H230792   6.072   1.086  14.028 -0.5860  0.7092 -1.7459
 3101TIP3   OH230793   1.746   5.540  10.950 -0.6534  0.5136  0.3680
 3101TIP3    H130794   1.831   5.584  10.960 -0.4192  0.4394 -1.0360
 3101TIP3    H230795   1.760   5.479  10.877 -1.0556 -1.7307  2.0768
 3102TIP3   OH230796   2.253   5.532  13.698 -0.4508  0.4981 -0.1456
 3102TIP3    H130797   2.240   5.536  13.793 -0.9728 -0.8115 -0.1335
 3102TIP3    H230798   2.348   5.532  13.687 -0.2841 -1.8112  0.5820
 3103TIP3   OH230799   1.040   2.390   9.770  0.0992 -0.0212  0.1111
 3103TIP3    H130800   1.096   2.371   9.695  1.0308  0.8936  0.5505
 3103TIP3    H230801   0.950   2.381   9.737  0.4477  1.9034 -1.5727
 3104TIP3   OH230802   0.824   0.794  10.414  0.0700  0.6939 -0.2014
 3104TIP3    H130803   0.832   0.872  10.358  0.6111  1.3311  0.7321
 3104TIP3    H230804   0.763   0.737  10.367  2.0624  0.2678 -2.4834
 3105TIP3   OH230805   3.171   2.751  12.172 -0.2565 -0.0048 -0.5073
 3105TIP3    H130806   3.157   2.818  12.105  0.7609  0.1608 -0.5714
 3105TIP3    H230807   3.154   2.796  12.255  0.0987  0.2442 -0.5684
 3106TIP3   OH230808   5.677   3.242   9.444  0.4760  0.1216 -0.3339
 3106TIP3    H130809   5.746   3.274   9.386  0.4181 -0.2631 -0.6219
 3106TIP3    H230810   5.601   3.233   9.387  0.5760 -0.8298 -0.3389
 3107TIP3   OH230811   0.031   0.715  14.379  0.2875  0.1004 -0.4366
 3107TIP3    H130812  -0.000   0.806  14.373 -0.1913  0.0177  0.6039
 3107TIP3    H230813   0.057   0.693  14.290 -0.2496  1.0316 -0.8422
 3108TIP3   OH230814   6.704   2.919   9.978  0.3125  0.6234 -0.6991
 3108TIP3    H130815   6.608   2.929   9.978  0.4122  1.7085  0.0219
 3108TIP3    H230816   6.728   2.932   9.886 -0.3566 -1.2833 -1.1938
 3109TIP3   OH230817   2.207   4.561  12.406 -0.4542 -0.2359 -0.3007
 3109TIP3    H130818   2.202   4.465  12.413 -1.9567 -0.2648 -1.3310
 3109TIP3    H230819   2.122   4.592  12.438 -0.1682  0.7282 -0.4418
 3110TIP3   OH230820   0.025   6.504   1.788  1.0402 -0.0712 -0.3361
 3110TIP3    H130821  -0.006   6.419   1.755 -1.5103  1.0403 -1.0812
 3110TIP3    H230822   0.014   6.498   1.883 -1.0925  0.0367 -0.5153
 3111TIP3   OH230823   1.137   2.457   5.630  0.1372 -0.5621 -0.1999
 3111TIP3    H130824   1.076   2.465   5.556  0.1277 -0.1401 -0.1522
 3111TIP3    H230825   1.223   2.476   5.592 -0.0462  1.2313  0.1801
 3112TIP3   OH230826   3.072   2.624  10.131 -0.3856  1.0906  0.1496
 3112TIP3    H130827   3.125   2.579  10.196  1.3246 -0.6270 -2.2358
 3112TIP3    H230828   3.046   2.705  10.173  2.7812  1.2740  2.0775
 3113TIP3   OH230829   6.100   0.826  11.885 -0.5479  0.5513 -0.2470
 3113TIP3    H130830   6.156   0.765  11.933 -0.1718 -0.4002 -1.8212
 3113TIP3    H230831   6.063   0.883  11.953  0.6348 -0.1670  1.0545
 3114TIP3   OH230832   3.306   6.204   0.046  0.6464 -0.3310 -0.2921
 3114TIP3    H130833   3.267   6.267   0.106 -0.7380 -1.7710  0.4061
 3114TIP3    H230834   3.274   6.229  -0.040 -2.1319 -1.5342  0.2568
 3115TIP3   OH230835   4.840   6.549  13.416 -0.4120  0.3128 -0.0121
 3115TIP3    H130836   4.776   6.513  13.478 -0.3229  0.7462  0.3354
 3115TIP3    H230837   4.805   6.634  13.391 -0.7957 -0.1514 -1.1045
 3116TIP3   OH230838   3.544   1.156  14.569 -1.1350  0.1101  0.4615
 3116TIP3    H130839   3.481   1.093  14.535  0.4893 -0.0076 -2.6786
 3116TIP3    H230840   3.600   1.105  14.627 -0.4446 -1.2009 -1.2768
 3117TIP3   OH230841   2.674   5.465  11.229  0.2083 -0.3119  0.0526
 3117TIP3    H130842   2.605   5.527  11.254  0.3815 -0.4366  0.8828
 3117TIP3    H230843   2.665   5.455  11.134  0.0148  0.7833 -0.0522
 3118TIP3   OH230844   0.424   3.238  10.588  0.1640 -0.0602  0.5139
 3118TIP3    H130845   0.345   3.187  10.568  0.4114 -0.2002 -0.1335
 3118TIP3    H230846   0.489   3.208  10.525  0.2037  1.3302 -0.1517
 3119TIP3   OH230847   4.009   1.035  13.800  0.4817  0.5847  0.3398
 3119TIP3    H130848   3.970   1.059  13.716 -3.1136  0.3271  1.7335
 3119TIP3    H230849   4.064   1.110  13.823  2.4974  0.1772 -2.6405
 3120TIP3   OH230850   2.140   3.445  13.141  0.3930 -0.3788  0.1265
 3120TIP3    H130851   2.095   3.361  13.143  0.5519 -0.6197 -2.3579
 3120TIP3    H230852   2.230   3.425  13.166  0.6069 -1.1355 -1.1379
 3121TIP3   OH230853   4.148   6.097  11.281  0.4891  0.0269 -0.8084
 3121TIP3    H130854   4.156   6.021  11.224  2.4315 -0.6401  0.2846
 3121TIP3    H230855   4.091   6.068  11.353  1.8552 -0.6928  0.0163
 3122TIP3   OH230856   4.531   3.993  12.012 -0.5693  0.5813 -0.1403
 3122TIP3    H130857   4.515   4.031  12.098  1.4001  1.8786 -0.2876
 3122TIP3    H230858   4.581   4.059  11.965 -1.5855 -0.0892 -2.3240
 3123TIP3   OH230859   7.213   1.500  10.490 -0.1351  0.5506  0.7388
 3123TIP3    H130860   7.254   1.534  10.410  1.6095 -0.8612  0.9573
 3123TIP3    H230861   7.173   1.417  10.462 -2.4061  1.6007  0.6760
 3124TIP3   OH230862   0.351   4.487  10.775 -0.1716  0.5808  0.1260
 3124TIP3    H130863   0.279   4.538  10.738 -0.6885  0.7141  1.2740
 3124TIP3    H230864   0.309   4.410  10.813  0.4478 -0.0079 -0.3647
 3125TIP3   OH230865   4.701   4.874   0.210  0.1856  0.4840  0.3362
 3125TIP3    H130866   4.653   4.926   0.275  0.2377  0.4988  0.3629
 3125TIP3    H230867   4.776   4.839   0.258 -1.1556 -1.6812  0.9879
 3126TIP3   OH230868   3.126   5.383  10.070  0.7751 -0.2006  0.0666
 3126TIP3    H130869   3.085   5.449  10.015  0.5008 -1.5842 -1.4627
 3126TIP3    H230870   3.200   5.351  10.018  1.4829 -0.4480  1.1838
 3127TIP3   OH230871   5.442   3.819  10.950 -0.4980  0.3252 -0.5776
 3127TIP3    H130872   5.483   3.871  10.881 -0.3496 -0.2679 -0.9403
 3127TIP3    H230873   5.513   3.766  10.986 -0.2440  1.6716  1.0364
 3128TIP3   OH230874   1.874   5.372   0.336 -0.2643  0.3651 -0.1758
 3128TIP3    H130875   1.922   5.303   0.290  1.7855  0.9485  0.9642
 3128TIP3    H230876   1.885   5.351   0.429 -0.7150  1.5048  0.1510
 3129TIP3   OH230877   0.713   1.406  12.023 -0.2279  0.1425 -0.2404
 3129TIP3    H130878   0.702   1.490  12.067 -1.8963 -0.1767 -0.0023
 3129TIP3    H230879   0.731   1.429  11.932  0.2913  0.7587  0.0061
 3130TIP3   OH230880   5.528   0.093  11.169  0.2984 -0.3682  0.0824
 3130TIP3    H130881   5.487   0.143  11.239 -0.6200 -0.6124 -0.2592
 3130TIP3    H230882   5.612   0.136  11.154  0.3590 -0.1129  1.0965
 3131TIP3   OH230883   5.977   5.963  11.750  0.0563  0.0153  0.6259
 3131TIP3    H130884   6.015   5.892  11.802 -0.8727 -0.6234  0.4826
 3131TIP3    H230885   5.958   6.032  11.813 -0.2623 -0.4098  1.0124
 3132TIP3   OH230886   2.602   2.576  11.013 -0.4315 -0.1412  0.1588
 3132TIP3    H130887   2.628   2.668  11.022  1.0382 -0.6249  1.2102
 3132TIP3    H230888   2.601   2.542  11.102 -2.0162 -0.9121 -0.1102
 3133TIP3   OH230889   5.710   2.003  13.540  0.4014 -0.6859 -0.4764
 3133TIP3    H130890   5.667   2.088  13.535 -0.3978 -0.9818  0.6955
 3133TIP3    H230891   5.763   2.008  13.619  0.3508 -1.2602 -0.4019
 3134TIP3   OH230892   5.548   4.058  12.324  0.5252 -0.3664 -0.8223
 3134TIP3    H130893   5.507   4.133  12.368 -0.1494  0.1389 -2.2569
 3134TIP3    H230894   5.477   4.018  12.274  0.9576 -1.7699 -0.3816
 3135TIP3   OH230895   3.188   3.254   9.769  0.0382  0.0874 -0.3229
 3135TIP3    H130896   3.225   3.178   9.723 -2.5700 -1.3818 -0.2186
 3135TIP3    H230897   3.102   3.266   9.729 -0.2625  1.9929  0.7940
 3136TIP3   OH230898   0.472   2.268  11.377 -0.0268  0.2741 -0.0235
 3136TIP3    H130899   0.513   2.217  11.306 -0.4240 -0.0260 -0.0440
 3136TIP3    H230900   0.533   2.260  11.450 -1.1633 -2.2429  0.7582
 3137TIP3   OH230901   4.610   7.188   2.836  0.4419  0.4836  0.0437
 3137TIP3    H130902   4.574   7.244   2.905 -1.9815 -1.0603  0.1665
 3137TIP3    H230903   4.634   7.250   2.766 -1.6968  1.7644  0.3453
 3138TIP3   OH230904   5.293   2.054  15.041 -0.6282  0.2113 -0.3291
 3138TIP3    H130905   5.264   2.144  15.052  1.5205  1.1966 -1.9885
 3138TIP3    H230906   5.382   2.061  15.008  0.1707 -2.5657  0.9190
 3139TIP3   OH230907   2.908   4.870  13.721 -0.0852  0.2522  0.0841
 3139TIP3    H130908   2.940   4.816  13.649 -0.3489 -2.3091  1.7909
 3139TIP3    H230909   2.834   4.821  13.757 -0.9735  2.2480  1.1265
 3140TIP3   OH230910   2.998   6.384   2.050  0.2099 -0.0700 -0.6082
 3140TIP3    H130911   3.025   6.301   2.089  1.8531 -0.4027 -2.3151
 3140TIP3    H230912   3.004   6.370   1.956 -1.3686  1.4125 -0.9840
 3141TIP3   OH230913   4.052   0.581  10.140 -0.6639  1.0329  0.4222
 3141TIP3    H130914   4.141   0.587  10.105 -1.6625  1.2203 -2.3236
 3141TIP3    H230915   4.062   0.601  10.233  2.6409 -2.6343  1.1319
 3142TIP3   OH230916   0.837   4.833  10.857 -0.3144 -0.1741  0.0612
 3142TIP3    H130917   0.905   4.848  10.923 -1.6050  0.4520  1.3081
 3142TIP3    H230918   0.861   4.749  10.818  0.9266 -0.1857  0.7733
 3143TIP3   OH230919   6.418   4.264  14.714  0.3060 -0.4497 -0.1698
 3143TIP3    H130920   6.395   4.203  14.784 -2.3602  2.4737  1.7636
 3143TIP3    H230921   6.366   4.235  14.639  1.3153 -2.1749 -0.2517
 3144TIP3   OH230922   3.154   5.154   0.050  0.5411  0.1568 -0.0833
 3144TIP3    H130923   3.184   5.220   0.113 -1.4225 -0.6750  1.8708
 3144TIP3    H230924   3.061   5.174   0.037 -0.1883 -2.2763  0.7590
 3145TIP3   OH230925   4.197   1.771   2.366 -0.0595  0.1082 -0.5405
 3145TIP3    H130926   4.187   1.685   2.326 -1.9162  0.9108 -1.9003
 3145TIP3    H230927   4.288   1.795   2.348 -0.1569 -0.6161 -2.1638
 3146TIP3   OH230928   4.940   3.849  14.235 -0.2552 -0.0330  0.3373
 3146TIP3    H130929   5.000   3.841  14.309  1.5426  0.3955 -0.9739
 3146TIP3    H230930   4.877   3.916  14.262  0.7812  0.6144  1.2440
 3147TIP3   OH230931   4.749   0.838  10.249 -0.2942 -0.2954  0.3002
 3147TIP3    H130932   4.745   0.859  10.156 -0.1097  0.1394  0.3836
 3147TIP3    H230933   4.659   0.815  10.273 -0.3314 -0.4568  0.0063
 3148TIP3   OH230934   0.918   3.976   4.169 -0.1277  0.3355 -0.0132
 3148TIP3    H130935   0.879   4.062   4.187 -1.7281 -0.2070 -0.6490
 3148TIP3    H230936   0.846   3.925   4.132  0.9407 -1.1101 -0.1828
 3149TIP3   OH230937   7.222   2.450  11.214 -0.0033 -0.1646 -0.8442
 3149TIP3    H130938   7.242   2.488  11.129  1.6169  1.3132  0.1174
 3149TIP3    H230939   7.308   2.436  11.255 -0.7534  0.2259  0.9592
 3150TIP3   OH230940   1.858   3.400   0.494  0.0033 -0.1131 -0.2179
 3150TIP3    H130941   1.897   3.416   0.580 -0.1649 -2.0468  0.2618
 3150TIP3    H230942   1.786   3.462   0.488 -1.4802 -1.4597  2.0814
 3151TIP3   OH230943   6.094   6.863  10.405 -0.4301  0.0452  0.8313
 3151TIP3    H130944   6.166   6.863  10.468  0.4718  0.3002 -0.1665
 3151TIP3    H230945   6.024   6.911  10.448  0.3685  0.7059  1.4153
 3152TIP3   OH230946   5.687   0.771  10.399  0.7164 -0.2484 -0.0533
 3152TIP3    H130947   5.624   0.804  10.463  0.3215  0.1399 -0.6303
 3152TIP3    H230948   5.633   0.741  10.326  1.2216  1.8240 -1.3830
 3153TIP3   OH230949   5.328   2.247  10.950  0.0609  0.1903 -0.3235
 3153TIP3    H130950   5.268   2.310  10.911 -0.4450  1.0518  1.7097
 3153TIP3    H230951   5.393   2.300  10.996 -0.4372 -0.7327  1.5291
 3154TIP3   OH230952   1.206   1.638  14.909  0.0202 -0.1472  0.7471
 3154TIP3    H130953   1.155   1.607  14.984  0.8071 -0.3183  1.2288
 3154TIP3    H230954   1.277   1.574  14.900  0.7618  0.6509  0.7624
 3155TIP3   OH230955   0.890   5.312  14.164  0.4269 -0.1956  0.1183
 3155TIP3    H130956   0.911   5.403  14.144  1.1758 -0.2856  0.4537
 3155TIP3    H230957   0.960   5.284  14.223  1.5427 -1.6505 -1.7474
 3156TIP3   OH230958   5.295   6.599  10.112 -0.6813 -0.0734 -0.0403
 3156TIP3    H130959   5.313   6.586  10.019 -0.4426  2.0197 -0.3187
 3156TIP3    H230960   5.210   6.644  10.114  0.0487  1.3378  0.6399
 3157TIP3   OH230961   7.028   1.554  11.873 -0.1876  0.4857  0.1218
 3157TIP3    H130962   7.094   1.490  11.849 -0.9432 -0.2626 -0.0346
 3157TIP3    H230963   6.961   1.503  11.920 -1.4553  0.8808 -1.1765
 3158TIP3   OH230964   0.954   1.165  13.306 -0.3942  0.3741 -0.7304
 3158TIP3    H130965   0.924   1.080  13.338 -0.5091 -0.0044 -1.7979
 3158TIP3    H230966   1.049   1.164  13.321 -0.3673 -0.0272 -0.9072
 3159TIP3   OH230967   7.038   3.025  13.598  0.4874  0.2390  0.2236
 3159TIP3    H130968   7.127   3.060  13.597  0.4199  0.4622  1.2851
 3159TIP3    H230969   6.983   3.099  13.574  0.4156  0.6876  1.6823
 3160TIP3   OH230970   1.825   6.873  14.331  0.3513  0.6854 -0.4610
 3160TIP3    H130971   1.825   6.885  14.426 -0.6406 -0.5268 -0.2850
 3160TIP3    H230972   1.733   6.880  14.306  0.2271 -1.7195 -0.9290
 3161TIP3   OH230973   2.134   6.741  14.610  0.6039  0.5250 -0.0152
 3161TIP3    H130974   2.220   6.754  14.572 -0.4693  2.3051 -2.1105
 3161TIP3    H230975   2.075   6.734  14.535 -1.3585  1.7249  1.2972
 3162TIP3   OH230976   6.417   1.530  11.603 -0.2703  0.1379 -0.2489
 3162TIP3    H130977   6.405   1.585  11.525 -1.1603 -0.4067 -0.5094
 3162TIP3    H230978   6.457   1.450  11.569 -0.2330  0.0855 -0.0781
 3163TIP3   OH230979   2.744   3.044   0.301 -0.5808  0.0669 -0.3371
 3163TIP3    H130980   2.706   3.132   0.302  0.3210  0.4703 -0.3926
 3163TIP3    H230981   2.837   3.058   0.281 -0.2861 -0.8403  0.3188
 3164TIP3   OH230982   2.965   6.143  12.495 -0.3515 -0.0733 -0.5080
 3164TIP3    H130983   3.024   6.140  12.570 -0.2602 -0.6065 -0.5973
 3164TIP3    H230984   2.878   6.153  12.533 -0.2278  0.5351 -0.3694
 3165TIP3   OH230985   0.350   7.010  13.152  0.4807  0.5072  0.7180
 3165TIP3    H130986   0.302   6.935  13.115  0.0495  0.0777  2.0863
 3165TIP3    H230987   0.326   7.083  13.096 -1.9628  0.3480  1.4229
 3166TIP3   OH230988   3.808   3.447  11.085  0.0086  0.4925 -0.3577
 3166TIP3    H130989   3.738   3.475  11.144 -0.3242  1.0614 -1.0110
 3166TIP3    H230990   3.765   3.436  11.000 -0.0248 -2.6197 -0.0591
 3167TIP3   OH230991   4.503   5.020   9.895  0.3820 -0.1315 -0.2687
 3167TIP3    H130992   4.463   4.988   9.976  1.9862 -1.1906  0.1435
 3167TIP3    H230993   4.511   5.114   9.907 -2.1950  0.2057 -0.4991
 3168TIP3   OH230994   1.706   0.444  12.779  0.0776  0.5444  0.1984
 3168TIP3    H130995   1.646   0.423  12.851 -0.7579  2.3192  0.0710
 3168TIP3    H230996   1.659   0.509  12.728  1.1664  0.2003 -1.2859
 3169TIP3   OH230997   4.403   0.708  11.516 -0.7666 -0.1938 -0.2869
 3169TIP3    H130998   4.372   0.676  11.601 -0.3474  0.4911  0.1283
 3169TIP3    H230999   4.345   0.782  11.496 -0.7460 -0.2381 -0.5115
 3170TIP3   OH231000   3.754   6.485   0.758  0.3104  0.1787 -0.3505
 3170TIP3    H131001   3.818   6.415   0.756  2.8836  2.3142  0.9737
 3170TIP3    H231002   3.704   6.470   0.839  2.6966  1.2753  1.4313
 3171TIP3   OH231003   1.327   6.493   0.439 -0.3443 -0.4696  0.4427
 3171TIP3    H131004   1.343   6.577   0.481 -0.1232 -0.7089  0.8472
 3171TIP3    H231005   1.405   6.441   0.459  1.5210  0.5346 -3.2188
 3172TIP3   OH231006   1.738   6.448  12.563  0.0111  0.1290 -0.0245
 3172TIP3    H131007   1.775   6.517  12.509 -0.2593 -1.0254 -1.7464
 3172TIP3    H231008   1.710   6.493  12.643  3.9326  1.2588  0.9292
 3173TIP3   OH231009   3.462   5.506  10.755 -0.0836 -0.0426  0.5125
 3173TIP3    H131010   3.528   5.575  10.766 -1.4328  1.1402  1.6806
 3173TIP3    H231011   3.418   5.527  10.673  0.1186 -0.0755  0.3937
 3174TIP3   OH231012   7.249   0.843  12.425  0.3344  0.5766  0.1275
 3174TIP3    H131013   7.296   0.823  12.345 -1.0823 -0.8421 -0.3982
 3174TIP3    H231014   7.286   0.785  12.491 -1.0997 -1.0603 -0.4563
 3175TIP3   OH231015   0.207   6.208  10.288  0.4637  0.2399 -0.4754
 3175TIP3    H131016   0.157   6.185  10.366  0.7214 -1.3107 -0.7444
 3175TIP3    H231017   0.251   6.290  10.311  0.1600  0.0571  0.8301
 3176TIP3   OH231018   5.242   1.291  10.024  0.5700  0.3208  1.0135
 3176TIP3    H131019   5.306   1.360  10.043  1.3062 -0.4871  1.5400
 3176TIP3    H231020   5.193   1.324   9.948  1.4646  1.0526  0.7372
 3177TIP3   OH231021   0.782   6.336  13.618 -0.4611 -0.5689  0.8578
 3177TIP3    H131022   0.811   6.245  13.620 -0.8227 -0.7530 -0.8997
 3177TIP3    H231023   0.686   6.331  13.612 -0.5580 -0.0425  1.7386
 3178TIP3   OH231024   6.767   0.697  11.844 -0.0360  0.2424  0.0507
 3178TIP3    H131025   6.690   0.754  11.834  1.1423  2.1896  1.4103
 3178TIP3    H231026   6.838   0.757  11.867  1.6527 -1.6344 -0.0851
 3179TIP3   OH231027   1.856   1.762   2.328 -0.1248  0.4899 -0.4925
 3179TIP3    H131028   1.933   1.818   2.318  1.7143 -1.8171 -0.1176
 3179TIP3    H231029   1.792   1.818   2.371  0.5508  3.1231 -2.6453
 3180TIP3   OH231030   0.680   4.183   2.926  0.2987 -0.4857  0.0248
 3180TIP3    H131031   0.719   4.241   2.861 -0.8853 -1.4633 -1.6388
 3180TIP3    H231032   0.719   4.097   2.908 -0.3434 -0.8524  0.3403
 3181TIP3   OH231033   3.436   1.956  10.724 -0.8287 -0.6386 -0.4644
 3181TIP3    H131034   3.498   1.984  10.791  1.0492 -0.9115 -2.0107
 3181TIP3    H231035   3.354   1.942  10.772 -0.2029  1.4080  1.3657
 3182TIP3   OH231036   1.331   6.318  12.791 -0.0040  0.2612 -0.2958
 3182TIP3    H131037   1.263   6.302  12.725 -0.5159 -1.6723  0.6317
 3182TIP3    H231038   1.289   6.297  12.874  0.8787  1.9090  0.6207
 3183TIP3   OH231039   0.856   4.879  14.540 -0.8023 -0.2664 -0.0961
 3183TIP3    H131040   0.782   4.937  14.524 -0.1604  0.2163 -1.4509
 3183TIP3    H231041   0.875   4.840  14.455 -0.1107 -1.1253  0.4346
 3184TIP3   OH231042   0.483   6.829   9.724  0.0676 -0.4138  0.2529
 3184TIP3    H131043   0.466   6.745   9.682 -3.1231  0.5498 -0.6289
 3184TIP3    H231044   0.516   6.885   9.653  1.0563 -0.5469  0.5850
 3185TIP3   OH231045   3.859   0.986   2.345  0.7122 -0.6351 -0.1011
 3185TIP3    H131046   3.890   1.006   2.434  0.8267  1.5130 -0.5758
 3185TIP3    H231047   3.789   0.921   2.359 -1.0342  1.4631  1.8545
 3186TIP3   OH231048   0.569   3.094   9.318 -0.0605 -0.7016 -0.1390
 3186TIP3    H131049   0.611   3.172   9.283 -0.6044 -0.9487 -1.4041
 3186TIP3    H231050   0.613   3.079   9.402  0.2191  0.8061  0.0203
 3187TIP3   OH231051   0.900   7.127  14.223 -0.3253  0.1363 -0.3942
 3187TIP3    H131052   0.934   7.062  14.162 -0.0276  0.3759 -0.4895
 3187TIP3    H231053   0.805   7.116  14.221 -0.3930  0.8250 -1.6812
 3188TIP3   OH231054   0.122   2.928  13.890  0.6198 -0.3885 -0.3028
 3188TIP3    H131055   0.185   2.997  13.869  1.7209 -1.0263  0.7829
 3188TIP3    H231056   0.168   2.847  13.870 -0.9467 -0.8705 -2.3488
 3189TIP3   OH231057   4.426   0.205  13.674  0.0237  0.3568  0.2236
 3189TIP3    H131058   4.360   0.139  13.653  0.4799 -0.5970  1.6327
 3189TIP3    H231059   4.499   0.155  13.712  1.3330  1.4383 -0.7257
 3190TIP3   OH231060   5.463   6.345   5.206 -0.3507 -0.0833  0.0679
 3190TIP3    H131061   5.473   6.300   5.290  0.5133  1.3017  0.7404
 3190TIP3    H231062   5.373   6.327   5.180 -0.4095 -1.1290  0.9249
 3191TIP3   OH231063   0.322   6.182  12.229 -0.3768  0.0897  0.3006
 3191TIP3    H131064   0.336   6.259  12.174 -0.7694 -0.7236 -0.9895
 3191TIP3    H231065   0.395   6.183  12.291  1.7609 -0.4984 -2.0561
 3192TIP3   OH231066   2.440   2.295  13.037  0.1404 -0.0065  0.1729
 3192TIP3    H131067   2.489   2.284  13.118  1.1216 -0.9773 -0.5201
 3192TIP3    H231068   2.483   2.368  12.993  3.0848 -2.6960 -1.8241
 3193TIP3   OH231069   0.097   2.444   9.929  0.3571  0.7538  0.0048
 3193TIP3    H131070   0.004   2.420   9.924  0.8376 -1.1923 -0.8019
 3193TIP3    H231071   0.143   2.366   9.898  2.2481  1.9392 -0.3251
 3194TIP3   OH231072   6.792   4.840  12.648  0.2058 -0.2716  0.6833
 3194TIP3    H131073   6.801   4.799  12.562 -0.2514 -0.3383  0.6635
 3194TIP3    H231074   6.844   4.786  12.706 -0.4995 -0.9667  0.6815
 3195TIP3   OH231075   3.604   4.213   9.288 -0.2639 -0.2765 -0.1467
 3195TIP3    H131076   3.535   4.192   9.352  0.2742  1.0588  0.9176
 3195TIP3    H231077   3.557   4.241   9.210 -0.9664  0.8475  0.6464
 3196TIP3   OH231078   7.104   5.120   9.438  0.4296 -0.0243  0.3399
 3196TIP3    H131079   7.086   5.094   9.529 -1.2819 -0.2553 -0.0240
 3196TIP3    H231080   7.190   5.082   9.418  0.2022 -1.1698  1.4189
 3197TIP3   OH231081   2.004   1.291  10.147  0.7805 -0.0479 -0.0969
 3197TIP3    H131082   1.984   1.340  10.067  0.9058 -0.7407 -0.5546
 3197TIP3    H231083   2.016   1.201  10.118  0.0305 -0.4577  0.8126
 3198TIP3   OH231084   5.188   1.552  11.018 -0.1155 -0.5874 -0.2208
 3198TIP3    H131085   5.173   1.512  10.932 -0.7868 -0.3612 -0.2179
 3198TIP3    H231086   5.237   1.486  11.067 -0.6511 -1.1526 -0.4273
 3199TIP3   OH231087   0.230   3.245   2.780  0.2538  0.1187 -0.1322
 3199TIP3    H131088   0.182   3.197   2.713  0.1952  1.0178 -0.7422
 3199TIP3    H231089   0.164   3.266   2.847 -0.5546  2.4339 -1.5417
 3200TIP3   OH231090   4.089   4.814   1.299  0.1911 -0.7719 -0.3237
 3200TIP3    H131091   4.076   4.856   1.214 -0.5660 -1.3105 -0.4860
 3200TIP3    H231092   4.182   4.790   1.299  0.6509  0.8647 -0.2215
 3201TIP3   OH231093   3.944   0.278  14.612  0.0826  0.1953  0.4372
 3201TIP3    H131094   3.996   0.201  14.590  1.4272  1.5576 -1.4925
 3201TIP3    H231095   4.007   0.340  14.649 -0.4279  1.3033 -0.4748
 3202TIP3   OH231096   4.527   4.494  14.316 -0.1672 -0.1352  0.8241
 3202TIP3    H131097   4.618   4.486  14.345 -0.4328  0.8744  2.0263
 3202TIP3    H231098   4.528   4.464  14.226  1.6555  1.2677  0.3203
 3203TIP3   OH231099   1.061   6.355  14.484 -0.2559  0.4565 -0.0902
 3203TIP3    H131100   1.011   6.436  14.496  0.6918  1.6581 -3.2660
 3203TIP3    H231101   1.034   6.323  14.398  0.6358 -1.7245  0.3771
 3204TIP3   OH231102   5.189   5.455  15.218 -0.3597  0.4865  0.6929
 3204TIP3    H131103   5.141   5.414  15.289 -2.2305  1.8347  0.2757
 3204TIP3    H231104   5.181   5.549  15.234  0.9784  0.7842 -0.1652
 3205TIP3   OH231105   6.365   1.504  12.351  0.4633  0.6199 -0.1190
 3205TIP3    H131106   6.424   1.469  12.284 -0.7030 -1.0910 -0.3451
 3205TIP3    H231107   6.303   1.559  12.303  0.6979  0.8325 -0.1770
 3206TIP3   OH231108   1.684   4.521   9.301  0.3751 -0.1913 -0.0094
 3206TIP3    H131109   1.619   4.592   9.301 -3.0595 -3.0447 -0.3916
 3206TIP3    H231110   1.720   4.522   9.389 -2.4796 -0.2745  1.2655
 3207TIP3   OH231111   5.945   6.775   9.362  0.0122 -0.1084 -0.6079
 3207TIP3    H131112   5.941   6.869   9.379 -1.2862 -0.3844  0.8824
 3207TIP3    H231113   5.883   6.737   9.425 -0.5647 -1.8357 -2.1233
 3208TIP3   OH231114   6.623   1.403  13.598 -0.2794 -0.4174  0.1279
 3208TIP3    H131115   6.630   1.309  13.585  1.8104 -0.1231 -1.5533
 3208TIP3    H231116   6.551   1.414  13.660 -2.2262 -2.9670 -1.4780
 3209TIP3   OH231117   2.286   6.732  14.991 -0.1195  0.3055 -0.8744
 3209TIP3    H131118   2.245   6.798  14.936 -1.3583  0.5073  0.2415
 3209TIP3    H231119   2.222   6.715  15.060 -0.1412 -2.5471 -1.4764
 3210TIP3   OH231120   3.327   3.857  10.954 -0.2623 -0.2072  0.4800
 3210TIP3    H131121   3.393   3.924  10.938 -0.0402 -0.5249  0.0359
 3210TIP3    H231122   3.254   3.882  10.897 -1.0338  0.8192  1.8422
 3211TIP3   OH231123   2.904   6.641  14.616 -0.5095  0.7163  0.1042
 3211TIP3    H131124   2.834   6.687  14.663 -0.3026  0.1156  1.0174
 3211TIP3    H231125   2.954   6.711  14.574 -1.6420  1.1556 -0.5518
 3212TIP3   OH231126   1.138   0.771   1.082 -0.2457  0.4764 -0.1837
 3212TIP3    H131127   1.091   0.714   1.144 -0.7658 -0.1922 -1.1516
 3212TIP3    H231128   1.148   0.854   1.128 -1.9145  0.4676  0.2834
 3213TIP3   OH231129   2.754   6.302   1.835  0.2796 -0.2373 -0.0401
 3213TIP3    H131130   2.818   6.232   1.834  2.7098  1.8519 -0.6015
 3213TIP3    H231131   2.728   6.311   1.926  1.9310 -0.1608  0.4343
 3214TIP3   OH231132   4.515   5.269  12.180  0.3970 -0.0473  0.4336
 3214TIP3    H131133   4.557   5.355  12.188  0.4306  0.0334 -0.4906
 3214TIP3    H231134   4.426   5.288  12.152  0.3435 -0.2979  0.4270
 3215TIP3   OH231135   4.291   4.470  12.209  0.7325 -0.1609 -0.0202
 3215TIP3    H131136   4.281   4.420  12.128  0.3829  0.3623 -0.3001
 3215TIP3    H231137   4.212   4.524  12.214  0.2750 -0.8932  1.1591
 3216TIP3   OH231138   4.642   6.726  11.712 -0.2939  0.4471  0.3674
 3216TIP3    H131139   4.674   6.755  11.627 -0.7740  1.7572  0.6157
 3216TIP3    H231140   4.662   6.632  11.715  3.0911  1.0430  0.3276
 3217TIP3   OH231141   6.169   0.823  12.993  0.2416 -0.5667 -0.1094
 3217TIP3    H131142   6.188   0.902  13.043  1.5653  0.0663 -1.5706
 3217TIP3    H231143   6.092   0.786  13.037  0.0521  1.0986  1.0669
 3218TIP3   OH231144   5.864   1.481   0.499 -0.4585 -0.6549 -0.4014
 3218TIP3    H131145   5.903   1.517   0.579 -0.9740 -1.9785  0.4754
 3218TIP3    H231146   5.857   1.387   0.516 -2.3797 -0.7046 -1.2383
 3219TIP3   OH231147   2.475   3.827   1.220 -0.0186  0.1159  0.2535
 3219TIP3    H131148   2.514   3.751   1.176  0.2317 -0.1332  0.8857
 3219TIP3    H231149   2.397   3.793   1.263 -0.6147  0.4911 -0.5122
 3220TIP3   OH231150   5.640   6.970  11.368  0.6513 -0.3188  0.3694
 3220TIP3    H131151   5.596   7.049  11.399 -0.7728 -0.9427 -0.0140
 3220TIP3    H231152   5.671   6.993  11.280  1.9283  0.4104  0.9735
 3221TIP3   OH231153   2.664   1.465   5.414 -0.0837 -0.3312  0.0231
 3221TIP3    H131154   2.649   1.373   5.393  4.2652 -1.4812  0.7929
 3221TIP3    H231155   2.739   1.463   5.474  0.7391  3.7592 -0.6022
 3222TIP3   OH231156   2.635   3.459   0.670 -0.3069 -0.5839 -0.1782
 3222TIP3    H131157   2.559   3.503   0.708 -0.0991  1.9950 -2.4304
 3222TIP3    H231158   2.705   3.475   0.733 -0.8102  0.2802  0.1897
 3223TIP3   OH231159   3.191   3.814  10.287  0.3561 -0.2851  0.0812
 3223TIP3    H131160   3.208   3.803  10.194 -1.5419 -0.2982 -0.2863
 3223TIP3    H231161   3.134   3.741  10.310 -0.1280  0.3703  1.0006
 3224TIP3   OH231162   4.846   6.360   3.369 -0.4512  0.0063  0.4176
 3224TIP3    H131163   4.756   6.391   3.367 -0.2740  0.4892 -1.0347
 3224TIP3    H231164   4.886   6.394   3.289  0.4247 -1.9731 -0.0711
 3225TIP3   OH231165   6.163   5.498  10.129  0.0050  0.2650  0.0986
 3225TIP3    H131166   6.242   5.503  10.075  0.6967 -1.3343  0.8875
 3225TIP3    H231167   6.108   5.570  10.099  0.8167  0.0610 -1.9971
 3226TIP3   OH231168   6.546   2.466  11.088 -0.3208  0.1591 -0.7286
 3226TIP3    H131169   6.589   2.426  11.164 -3.1281 -1.2301  0.2384
 3226TIP3    H231170   6.588   2.425  11.013  0.6828 -0.4298  0.1210
 3227TIP3   OH231171   2.097   1.921  11.290 -0.0935 -0.1390 -0.1558
 3227TIP3    H131172   2.045   1.911  11.370 -1.1277 -0.3045 -0.8328
 3227TIP3    H231173   2.129   2.011  11.294 -1.4157  0.3599 -0.2850
 3228TIP3   OH231174   3.975   1.898  12.372  0.1702  0.3756 -0.5443
 3228TIP3    H131175   4.030   1.880  12.296 -0.4801 -1.1472 -0.7051
 3228TIP3    H231176   3.886   1.894  12.338 -0.1272 -0.2406  0.2770
 3229TIP3   OH231177   5.448   5.629  12.899  0.6158  0.2081  0.1894
 3229TIP3    H131178   5.538   5.651  12.876  0.8534 -0.5455  0.3732
 3229TIP3    H231179   5.448   5.625  12.995  0.6734 -0.9224  0.1549
 3230TIP3   OH231180   1.440   7.009  11.366  0.7720 -0.1968  0.2690
 3230TIP3    H131181   1.503   6.960  11.418 -0.3002 -2.2685 -0.2925
 3230TIP3    H231182   1.380   7.047  11.430  2.6232  1.9986  0.8244
 3231TIP3   OH231183   5.345   1.887  11.829  0.5933 -0.1289  0.0195
 3231TIP3    H131184   5.404   1.901  11.904 -0.7750  0.9863  0.9437
 3231TIP3    H231185   5.336   1.974  11.789 -1.1886 -0.0181  0.5420
 3232TIP3   OH231186   1.287   1.304   3.720 -0.1399 -1.0355 -0.0261
 3232TIP3    H131187   1.366   1.314   3.772 -0.2507  0.3109 -0.0966
 3232TIP3    H231188   1.224   1.262   3.780 -0.4762  1.0752  1.1849
 3233TIP3   OH231189   3.544   5.649  11.464 -0.4036  0.2572  0.0831
 3233TIP3    H131190   3.561   5.727  11.411 -2.5127  0.6154 -0.1491
 3233TIP3    H231191   3.460   5.666  11.506  1.3193  0.1584  3.9716
 3234TIP3   OH231192   5.987   4.209  14.271 -0.5702 -0.4403 -0.1348
 3234TIP3    H131193   6.028   4.289  14.237 -0.9308 -0.2294 -0.0828
 3234TIP3    H231194   5.898   4.236  14.293 -0.4585 -0.6716  0.6147
 3235TIP3   OH231195   0.431   6.979   1.283 -0.0326  0.6372  0.6602
 3235TIP3    H131196   0.464   6.889   1.288 -1.0496  0.2475  0.7850
 3235TIP3    H231197   0.508   7.034   1.296  1.1219 -0.1431 -2.1818
 3236TIP3   OH231198   2.632   1.262  10.135  0.6183  0.3707  0.0021
 3236TIP3    H131199   2.633   1.208  10.057 -2.5067  0.3494 -0.1657
 3236TIP3    H231200   2.707   1.233  10.186  0.6633 -2.1636 -1.3517
 3237TIP3   OH231201   5.320   1.746  10.394  0.0397 -0.4059  0.1643
 3237TIP3    H131202   5.270   1.827  10.380  1.0465  0.5033  1.4729
 3237TIP3    H231203   5.312   1.730  10.488 -1.4058 -2.7364 -0.2685
 3238TIP3   OH231204   5.118   0.336  12.582  0.4459  0.2557 -0.0447
 3238TIP3    H131205   5.105   0.309  12.673 -1.9243  1.1618 -0.0364
 3238TIP3    H231206   5.203   0.381  12.582  1.1180 -0.9262  1.3937
 3239TIP3   OH231207   5.088   0.653   5.978 -0.4560 -0.0220  0.5703
 3239TIP3    H131208   5.006   0.637   5.931 -1.3082 -0.6467  2.2084
 3239TIP3    H231209   5.096   0.748   5.982  0.4508  0.1176 -2.1124
 3240TIP3   OH231210   4.449   0.850   0.170  0.0642  0.0804 -0.5903
 3240TIP3    H131211   4.472   0.898   0.090  1.2474  0.6888  0.0921
 3240TIP3    H231212   4.478   0.760   0.153 -0.1362  0.0922 -1.0206
 3241TIP3   OH231213   0.941   4.412   9.435 -1.1186 -0.0034 -0.9767
 3241TIP3    H131214   0.902   4.499   9.438  0.7033  0.8746  2.2045
 3241TIP3    H231215   1.033   4.427   9.414 -0.7361 -1.0973 -0.2130
 3242TIP3   OH231216   6.860   7.047  10.403 -0.0942  0.5026 -0.0614
 3242TIP3    H131217   6.942   7.057  10.355 -0.1687  1.1349 -0.0653
 3242TIP3    H231218   6.799   7.105  10.358 -1.2885 -1.8210 -1.6653
 3243TIP3   OH231219   5.550   1.320  10.950 -0.1723  0.4046 -0.1449
 3243TIP3    H131220   5.496   1.357  11.020  0.2695  2.4521 -0.8285
 3243TIP3    H231221   5.598   1.395  10.914  2.0656 -1.1102 -0.5094
 3244TIP3   OH231222   1.244   7.028   1.679 -0.6332 -0.3703 -0.2430
 3244TIP3    H131223   1.240   6.937   1.653  0.1952 -0.0188 -1.6594
 3244TIP3    H231224   1.309   7.030   1.750 -0.7458 -0.8848 -0.1200
 3245TIP3   OH231225   5.852   3.005  12.268  0.2323 -0.8007  0.6402
 3245TIP3    H131226   5.824   2.916  12.247  0.8593 -0.8165 -0.1349
 3245TIP3    H231227   5.838   3.012  12.363 -0.4837 -1.4789  0.5948
 3246TIP3   OH231228   3.559   6.626   2.231 -0.0272  0.6589 -0.5448
 3246TIP3    H131229   3.531   6.713   2.202 -0.3360  0.8440  0.2866
 3246TIP3    H231230   3.652   6.637   2.252 -0.3707  1.1200  0.7920
 3247TIP3   OH231231   6.323   0.769  12.779 -0.2475 -0.4228 -0.1495
 3247TIP3    H131232   6.333   0.674  12.785 -2.6727 -0.6655  0.9355
 3247TIP3    H231233   6.254   0.790  12.841 -1.1571  1.8124 -1.8007
 3248TIP3   OH231234   4.977   2.675  13.576  0.1005 -0.3060 -0.0888
 3248TIP3    H131235   5.016   2.762  13.584  0.4325 -0.5954  1.9610
 3248TIP3    H231236   5.050   2.615  13.590 -0.7068 -0.8572  2.1389
 3249TIP3   OH231237   2.567   4.829  12.658  0.1958  0.6589 -0.1303
 3249TIP3    H131238   2.506   4.757  12.643  0.1416  0.4453  1.0371
 3249TIP3    H231239   2.596   4.854  12.570  0.4708 -1.0020 -0.5396
 3250TIP3   OH231240   2.841   0.342  14.375 -0.5908 -0.9295  0.1758
 3250TIP3    H131241   2.876   0.382  14.296 -2.0765 -2.4319 -1.3448
 3250TIP3    H231242   2.809   0.415  14.428  1.5994  0.1936  0.0316
 3251TIP3   OH231243   7.184   3.454  10.701 -0.3975  0.1030 -0.1311
 3251TIP3    H131244   7.166   3.382  10.641 -1.6451  0.7276 -0.5478
 3251TIP3    H231245   7.097   3.483  10.730  0.1071  1.0295  0.5089
 3252TIP3   OH231246   3.338   2.202  12.069 -0.2082 -0.0908 -0.2868
 3252TIP3    H131247   3.424   2.206  12.027 -0.2536 -1.3512 -0.5565
 3252TIP3    H231248   3.336   2.277  12.128  1.0851 -0.0500 -0.2630
 3253TIP3   OH231249   4.117   4.915   2.973 -0.3127 -0.5575  0.4476
 3253TIP3    H131250   4.090   4.967   3.049 -0.2584 -1.6788  1.2481
 3253TIP3    H231251   4.139   4.981   2.907 -1.3672  0.4274  1.0319
 3254TIP3   OH231252   2.747   4.659  11.034 -0.1935  0.0695 -0.7190
 3254TIP3    H131253   2.793   4.654  11.118  0.5342 -2.1327 -1.1824
 3254TIP3    H231254   2.817   4.676  10.970 -0.5542  0.3847 -1.0311
 3255TIP3   OH231255   2.831   2.125   3.612  0.3276  0.0683 -0.2146
 3255TIP3    H131256   2.892   2.086   3.548 -0.2126 -0.4839 -0.4058
 3255TIP3    H231257   2.765   2.057   3.625  1.0314 -0.2866  1.7978
 3256TIP3   OH231258   1.823   5.320   1.245 -0.1274 -0.1567  0.0630
 3256TIP3    H131259   1.844   5.371   1.168  0.9561 -0.0634  0.4122
 3256TIP3    H231260   1.806   5.231   1.212 -2.1091  0.4014 -0.5544
 3257TIP3   OH231261   5.729   5.299  14.187  0.0297  0.4450  0.0197
 3257TIP3    H131262   5.646   5.324  14.147 -0.7157  1.7145  2.1895
 3257TIP3    H231263   5.771   5.242  14.122 -2.0257  0.6488 -1.5863
 3258TIP3   OH231264   3.414   0.325  13.027 -0.4202  0.1974  0.3308
 3258TIP3    H131265   3.380   0.392  12.968 -1.5172 -1.1907 -0.7058
 3258TIP3    H231266   3.416   0.366  13.113 -0.0268  1.8684 -0.4390
 3259TIP3   OH231267   4.296   0.601  11.738  0.0591  0.4614  1.0978
 3259TIP3    H131268   4.250   0.520  11.760  0.8491 -0.4319 -0.3612
 3259TIP3    H231269   4.384   0.589  11.774  0.6702 -0.0593 -0.4916
 3260TIP3   OH231270   3.150   0.815  13.305  0.2703  0.4430 -0.1938
 3260TIP3    H131271   3.149   0.814  13.401 -1.2089  0.6105 -0.1840
 3260TIP3    H231272   3.079   0.756  13.279 -1.4804  2.7750 -1.1097
 3261TIP3   OH231273   4.351   5.214  11.159  0.9352  0.1623 -0.1911
 3261TIP3    H131274   4.350   5.142  11.095 -2.1564  0.6392 -0.8256
 3261TIP3    H231275   4.313   5.176  11.238 -0.5659  0.9719 -0.4834
 3262TIP3   OH231276   3.471   5.489  11.244 -0.2526  0.4644 -0.4991
 3262TIP3    H131277   3.564   5.465  11.240 -0.7283 -1.9684  0.8599
 3262TIP3    H231278   3.467   5.554  11.314  0.1572 -1.4657  1.4307
 3263TIP3   OH231279   0.946   5.868  11.028 -0.5901  0.1951 -0.9312
 3263TIP3    H131280   0.888   5.850  10.954  0.1299 -1.2339 -1.1978
 3263TIP3    H231281   0.989   5.784  11.044  2.5722  1.5119 -1.7547
 3264TIP3   OH231282   0.988   2.242  14.278  0.8669 -0.1990 -0.0211
 3264TIP3    H131283   0.972   2.239  14.184 -0.4463 -1.0562  0.1947
 3264TIP3    H231284   0.915   2.192  14.316  2.4224 -1.5951  1.3150
 3265TIP3   OH231285   4.029   2.659  12.717 -0.4154 -0.1429  0.0037
 3265TIP3    H131286   4.008   2.606  12.640 -0.4366  0.4830 -0.4230
 3265TIP3    H231287   3.944   2.689  12.749 -0.4220 -0.5441  0.3875
 3266TIP3   OH231288   1.523   6.287   0.542  0.2091  0.7382  0.1122
 3266TIP3    H131289   1.511   6.264   0.634 -0.6321  0.0971 -0.1460
 3266TIP3    H231290   1.593   6.230   0.512  1.3311  1.7928  0.6480
 3267TIP3   OH231291   3.806   5.772  15.245  0.1806  0.6341  0.3841
 3267TIP3    H131292   3.866   5.724  15.303 -0.6606 -0.5963  0.2700
 3267TIP3    H231293   3.719   5.747  15.274 -0.2859 -0.6916 -1.8911
 3268TIP3   OH231294   4.503   3.417  13.078  0.2536 -0.3379 -0.0359
 3268TIP3    H131295   4.545   3.462  13.005  0.3292 -0.7039 -0.2243
 3268TIP3    H231296   4.421   3.383  13.041 -0.8270  1.4096  0.6425
 3269TIP3   OH231297   2.067   7.192   0.477 -0.1358 -0.2867 -0.1768
 3269TIP3    H131298   1.982   7.170   0.516 -0.6946 -1.2032 -1.7996
 3269TIP3    H231299   2.064   7.286   0.464 -0.1737 -0.0443  1.3622
 3270TIP3   OH231300   0.937   4.148  11.254  0.1786 -0.3390  0.1112
 3270TIP3    H131301   0.963   4.057  11.267 -1.2975 -0.7146  0.5191
 3270TIP3    H231302   0.950   4.189  11.340  5.0313  1.0381 -0.9442
 3271TIP3   OH231303   5.290   1.712  11.614 -0.1086  0.5202  0.0959
 3271TIP3    H131304   5.252   1.647  11.674  0.1129  0.4850  0.2034
 3271TIP3    H231305   5.319   1.783  11.671 -2.8138  2.0151 -0.2378
 3272TIP3   OH231306   5.257   4.874  12.875 -0.3918  0.0089  0.1652
 3272TIP3    H131307   5.290   4.876  12.785 -1.0429 -1.6394 -0.1550
 3272TIP3    H231308   5.315   4.933  12.924  0.6230  0.1151 -1.1113
 3273TIP3   OH231309   1.990   1.579  10.432 -0.0886 -0.0104 -0.2810
 3273TIP3    H131310   2.018   1.558  10.521 -1.1830  0.4686  0.1906
 3273TIP3    H231311   2.006   1.498  10.382  0.4857 -0.2942  0.3572
 3274TIP3   OH231312   4.784   2.967  13.658 -0.2916  0.1673  0.2218
 3274TIP3    H131313   4.846   3.024  13.612 -0.4212  1.5004  1.6114
 3274TIP3    H231314   4.783   2.887  13.606  2.6212  0.0647  0.1345
 3275TIP3   OH231315   3.531   5.016   4.229 -0.3088 -0.2701  0.8277
 3275TIP3    H131316   3.443   5.053   4.223 -0.8646 -1.6785 -0.4328
 3275TIP3    H231317   3.563   5.015   4.139  0.0163 -1.9883  0.9225
 3276TIP3   OH231318   4.368   5.001   1.260 -0.5069  0.3784 -0.2638
 3276TIP3    H131319   4.286   5.037   1.295 -1.2213  0.2596 -1.7108
 3276TIP3    H231320   4.396   4.938   1.326 -1.5703  0.4483  0.2868
 3277TIP3   OH231321   0.905   3.336  10.203  0.0998 -0.2573 -0.1485
 3277TIP3    H131322   0.870   3.250  10.181  0.8372 -0.8192  0.7787
 3277TIP3    H231323   0.992   3.337  10.165  0.8469 -0.7023  1.4652
 3278TIP3   OH231324   4.210   4.558  11.717  0.7232 -0.4590 -0.0791
 3278TIP3    H131325   4.189   4.517  11.801 -0.4154 -0.0477 -0.1399
 3278TIP3    H231326   4.301   4.533  11.699  1.2474  0.0855  1.6418
 3279TIP3   OH231327   5.260   0.031   9.196  0.3158 -0.5335 -0.6220
 3279TIP3    H131328   5.290  -0.041   9.139 -3.2053 -2.4501 -0.3066
 3279TIP3    H231329   5.167   0.015   9.208 -0.2664  3.1618  0.9950
 3280TIP3   OH231330   6.852   3.728  15.323 -0.1189  0.4529 -0.4119
 3280TIP3    H131331   6.836   3.667  15.251  0.6055  2.0340 -1.9756
 3280TIP3    H231332   6.913   3.682  15.380  0.1493 -0.4206 -1.3744
 3281TIP3   OH231333   2.481   2.822  11.225 -0.3776  0.4384 -0.1761
 3281TIP3    H131334   2.408   2.856  11.173  1.2023  0.9305 -2.1659
 3281TIP3    H231335   2.479   2.727  11.211 -0.2518  0.5196 -0.7660
 3282TIP3   OH231336   1.050   2.017  13.952  0.4602 -0.0054  0.1638
 3282TIP3    H131337   1.031   2.110  13.938 -1.0632 -0.5740 -2.2540
 3282TIP3    H231338   1.077   2.011  14.043  1.1637  2.8788  0.2324
 3283TIP3   OH231339   1.532   0.270  10.302 -0.0760 -0.4005 -0.0612
 3283TIP3    H131340   1.505   0.361  10.312  1.0711 -0.2322  2.0954
 3283TIP3    H231341   1.468   0.220  10.353 -0.7657 -0.8437 -1.3228
 3284TIP3   OH231342   0.159   4.240   1.642 -0.1923  0.0112  0.2882
 3284TIP3    H131343   0.205   4.219   1.560  0.5477 -1.0438  0.9440
 3284TIP3    H231344   0.220   4.297   1.690  0.3099 -1.1015  1.0068
 3285TIP3   OH231345   3.853   3.287   1.722  0.4668  0.0961  0.3459
 3285TIP3    H131346   3.832   3.379   1.706 -0.2570 -0.1219 -0.0201
 3285TIP3    H231347   3.853   3.279   1.818 -4.0722 -0.4255  0.5412
 3286TIP3   OH231348   6.704   2.611  14.376  0.0203 -0.7830  0.7879
 3286TIP3    H131349   6.798   2.629  14.378 -0.2806  1.1217 -0.1832
 3286TIP3    H231350   6.682   2.602  14.284 -0.9065 -0.2214  0.9302
 3287TIP3   OH231351   2.534   2.330  12.460 -0.7929  0.1455 -0.2746
 3287TIP3    H131352   2.465   2.373  12.409 -0.0276  3.6412  1.3657
 3287TIP3    H231353   2.611   2.335  12.405 -0.3602  2.4204  0.4323
 3288TIP3   OH231354   3.029   2.761  14.322  0.1789  0.1529  0.8264
 3288TIP3    H131355   3.069   2.847  14.336  1.5545  0.0885 -2.0344
 3288TIP3    H231356   3.095   2.699  14.355 -0.0531  0.1533  1.2946
 3289TIP3   OH231357   6.358   6.311  12.287  0.3140 -0.1038  0.0977
 3289TIP3    H131358   6.395   6.399  12.296  2.1818 -1.0475  3.8138
 3289TIP3    H231359   6.278   6.313  12.339  0.3472 -0.5890  0.1691
 3290TIP3   OH231360   0.730   0.426  12.631 -0.3584 -0.1900  0.3786
 3290TIP3    H131361   0.815   0.404  12.668 -0.1590 -2.5431 -1.2709
 3290TIP3    H231362   0.705   0.507  12.675  1.0011 -1.3823  3.6835
 3291TIP3   OH231363   1.506   1.906   2.788 -0.0820 -0.1889 -0.5544
 3291TIP3    H131364   1.576   1.875   2.730  0.3906  0.4688 -0.3533
 3291TIP3    H231365   1.452   1.829   2.804 -0.4399 -0.3028 -2.1689
 3292TIP3   OH231366   6.780   3.684   1.408 -0.2085 -0.5497  0.4283
 3292TIP3    H131367   6.866   3.672   1.368 -0.9063  0.6550 -1.5846
 3292TIP3    H231368   6.718   3.666   1.337 -1.5982 -0.1124  1.4807
 3293TIP3   OH231369   1.746   3.386  13.102 -0.7090 -0.4089  0.5601
 3293TIP3    H131370   1.660   3.365  13.065 -0.1378  0.0392 -1.1451
 3293TIP3    H231371   1.739   3.366  13.195 -2.4746 -0.9229  0.3381
 3294TIP3   OH231372   0.155   0.678  11.824 -0.1759  0.3577  0.6060
 3294TIP3    H131373   0.083   0.637  11.872 -1.1013  0.8328 -0.3414
 3294TIP3    H231374   0.146   0.771  11.842 -1.5730  0.7647 -1.7395
 3295TIP3   OH231375   5.043   1.414  13.059  0.1478  0.1074  0.0023
 3295TIP3    H131376   5.118   1.371  13.018  0.4053 -0.2676  0.8539
 3295TIP3    H231377   4.998   1.458  12.986  1.8485  1.3651 -0.3585
 3296TIP3   OH231378   2.770   5.747  10.227  0.1954  0.0795  0.4750
 3296TIP3    H131379   2.817   5.819  10.269 -0.3332  1.4113 -1.1181
 3296TIP3    H231380   2.816   5.733  10.144 -1.0234  0.1060 -0.2378
 3297TIP3   OH231381   0.811   1.377  11.300 -0.0827 -0.0024 -0.3752
 3297TIP3    H131382   0.790   1.409  11.212 -2.4300 -1.0912 -0.3033
 3297TIP3    H231383   0.867   1.445  11.338 -2.7286  2.8493 -1.1107
 3298TIP3   OH231384   1.185   1.772  14.053 -0.0061 -0.1641 -0.1034
 3298TIP3    H131385   1.178   1.826  14.132 -1.5539 -0.4031 -0.0428
 3298TIP3    H231386   1.110   1.797  14.000  1.2128  0.2493 -1.6983
 3299TIP3   OH231387   3.723   1.837  14.515 -0.2578  0.2385  0.1269
 3299TIP3    H131388   3.725   1.751  14.556 -2.6010 -0.7080 -1.5116
 3299TIP3    H231389   3.690   1.896  14.583  1.6935 -0.0160  1.3712
 3300TIP3   OH231390   6.170   4.342   1.784  0.0144  0.6363 -0.1959
 3300TIP3    H131391   6.112   4.354   1.709  0.0602  1.0046 -0.1754
 3300TIP3    H231392   6.235   4.412   1.774  0.6483  0.0303 -0.4041
 3301TIP3   OH231393   4.830   3.005  11.081 -0.4758  0.4803 -0.4099
 3301TIP3    H131394   4.805   2.947  11.009  0.5825 -0.4850 -0.0220
 3301TIP3    H231395   4.905   3.053  11.049 -0.0076  0.0573  0.0223
 3302TIP3   OH231396   4.413   3.117   1.300 -0.0948 -0.1036  0.7515
 3302TIP3    H131397   4.396   3.195   1.354 -2.4709 -0.0526  0.0203
 3302TIP3    H231398   4.490   3.077   1.341  0.3917  1.8925  1.9519
 3303TIP3   OH231399   0.654   5.131  13.986 -0.5578  0.2557  0.0769
 3303TIP3    H131400   0.741   5.106  14.018  0.4156  1.8575 -1.1387
 3303TIP3    H231401   0.629   5.059  13.928 -0.9306 -1.1216  1.8510
 3304TIP3   OH231402   5.360   2.966  12.785 -0.0426  0.1617  0.4444
 3304TIP3    H131403   5.407   3.008  12.858  1.1187  0.7319 -0.5954
 3304TIP3    H231404   5.382   2.873  12.793  0.9868  0.3698  0.1966
 3305TIP3   OH231405   6.421   4.537  11.056 -0.1831 -0.9196 -0.7919
 3305TIP3    H131406   6.438   4.451  11.095  0.4192 -0.1422  0.7448
 3305TIP3    H231407   6.326   4.539  11.043 -0.4396 -1.1518  0.8561
 3306TIP3   OH231408   5.303   3.831   9.758  0.3866  1.3072  0.3251
 3306TIP3    H131409   5.220   3.817   9.802  0.1938  1.8642  0.1461
 3306TIP3    H231410   5.353   3.752   9.776  0.5115  1.7275  1.9631
 3307TIP3   OH231411   0.168   0.600  12.502  0.0842  0.1156 -0.4886
 3307TIP3    H131412   0.158   0.545  12.424 -2.1847 -0.3287  0.0397
 3307TIP3    H231413   0.095   0.574  12.559  0.1504  2.2627  0.6676
 3308TIP3   OH231414   1.943   0.311   1.055  0.7032  0.0341 -0.0488
 3308TIP3    H131415   1.968   0.327   1.146 -1.1864  0.2270  0.4666
 3308TIP3    H231416   1.848   0.300   1.057  0.8270 -2.0441 -1.7140
 3309TIP3   OH231417   3.176   1.056  13.603  0.3748 -0.2847 -0.6801
 3309TIP3    H131418   3.214   0.969  13.589 -3.1668 -1.7773 -2.1227
 3309TIP3    H231419   3.148   1.054  13.694  0.8202 -0.3934 -0.5382
 3310TIP3   OH231420   4.374   7.053  13.261  0.0824  0.2997  0.4256
 3310TIP3    H131421   4.430   6.982  13.293  1.3540  1.1897  0.2644
 3310TIP3    H231422   4.296   7.050  13.317  1.7571  1.1621  2.9845
 3311TIP3   OH231423   1.723   2.353   9.788 -0.0671 -0.2300  0.3825
 3311TIP3    H131424   1.664   2.350   9.712  0.8295 -0.5060 -0.3273
 3311TIP3    H231425   1.805   2.386   9.753  0.4291 -0.5656  1.1965
 3312TIP3   OH231426   0.067   7.106  14.794  0.1364 -0.5184  0.5589
 3312TIP3    H131427   0.028   7.099  14.707  1.7150  1.5211 -0.3933
 3312TIP3    H231428   0.043   7.024  14.838 -1.5052 -1.1807 -1.4319
 3313TIP3   OH231429   7.135   2.007  11.800 -0.3682 -0.5094 -0.4168
 3313TIP3    H131430   7.065   1.974  11.855  0.3146 -0.2169  0.6505
 3313TIP3    H231431   7.152   1.936  11.738 -0.7049 -1.1039  0.1590
 3314TIP3   OH231432   6.439   4.778   9.921 -0.1500 -0.2792  0.3250
 3314TIP3    H131433   6.349   4.756   9.943 -0.6223 -0.1685 -1.3752
 3314TIP3    H231434   6.434   4.816   9.833  1.6486 -1.0665 -0.1656
 3315TIP3   OH231435   5.148   4.926  11.391  0.1205 -0.5496 -0.3311
 3315TIP3    H131436   5.146   5.021  11.396 -1.9220 -0.4690 -1.5080
 3315TIP3    H231437   5.222   4.906  11.333  0.2606  0.3364 -0.4598
 3316TIP3   OH231438   2.920   4.231  15.137  0.2788  0.0841  0.6164
 3316TIP3    H131439   3.013   4.241  15.116 -0.0172  2.1728  0.0641
 3316TIP3    H231440   2.891   4.159  15.080  1.4194 -0.2168  0.3814
 3317TIP3   OH231441   0.460   6.109   9.587  0.0110 -0.2239 -0.3368
 3317TIP3    H131442   0.542   6.087   9.631  0.4051 -0.1187 -1.0114
 3317TIP3    H231443   0.480   6.188   9.537 -0.9178  0.7303  0.7130
 3318TIP3   OH231444   5.124   5.430  14.230  0.1221 -0.1620 -0.1106
 3318TIP3    H131445   5.032   5.409  14.249 -0.2993  1.0066 -0.7697
 3318TIP3    H231446   5.139   5.513  14.275  0.9616 -0.5236  0.2790
 3319TIP3   OH231447   3.311   5.525   4.457 -0.0867 -0.7101  0.3337
 3319TIP3    H131448   3.327   5.441   4.501  1.3591 -0.2807  0.6860
 3319TIP3    H231449   3.232   5.511   4.406 -0.7381 -1.8227  1.5822
 3320TIP3   OH231450   3.151   5.041   3.192  0.2127  0.4877 -0.1548
 3320TIP3    H131451   3.165   5.019   3.284 -0.3278  0.0712 -0.1659
 3320TIP3    H231452   3.137   5.136   3.191  4.4221  1.2946 -0.3184
 3321TIP3   OH231453   7.128   6.410  13.332  0.5072  0.1137  0.4348
 3321TIP3    H131454   7.182   6.337  13.302 -0.5328  0.3947 -2.4078
 3321TIP3    H231455   7.040   6.389  13.302 -0.0317  2.0071  0.5594
 3322TIP3   OH231456   4.322   0.268  15.148  0.4022 -0.1363 -0.6538
 3322TIP3    H131457   4.279   0.251  15.065  0.4089  0.1870 -0.7246
 3322TIP3    H231458   4.251   0.283  15.210  0.3474  3.3645 -1.3683
 3323TIP3   OH231459   1.662   0.693  10.209  0.2206 -0.0531  0.0025
 3323TIP3    H131460   1.756   0.690  10.225  0.0867  1.2149  1.1422
 3323TIP3    H231461   1.642   0.786  10.198 -1.0090 -0.2421  0.4648
 3324TIP3   OH231462   4.308   2.624   4.763 -0.5416 -0.4034 -0.1595
 3324TIP3    H131463   4.290   2.571   4.841  2.8748 -0.9681  0.4069
 3324TIP3    H231464   4.279   2.712   4.786  1.1415 -0.3715  2.2061
 3325TIP3   OH231465   3.932   1.263  11.652  0.1509 -0.3179  0.3211
 3325TIP3    H131466   3.907   1.244  11.743  1.1358  1.6531  1.0662
 3325TIP3    H231467   3.866   1.218  11.599 -0.3111 -1.7168  1.9815
 3326TIP3   OH231468   6.690   4.168   3.497  0.1399  0.0736 -0.3440
 3326TIP3    H131469   6.659   4.146   3.585  0.3781 -0.1340 -0.3119
 3326TIP3    H231470   6.702   4.263   3.500  0.8889 -0.0304  0.0872
 3327TIP3   OH231471   4.069   2.239  12.167 -0.5164  0.3015 -0.6352
 3327TIP3    H131472   4.098   2.329  12.153 -2.4273  1.0773  0.0081
 3327TIP3    H231473   4.132   2.186  12.120  2.3052  1.7539  1.2358
 3328TIP3   OH231474   4.930   0.729  11.424  0.6044  0.5636  0.2535
 3328TIP3    H131475   4.847   0.762  11.459  0.5177  1.0534 -0.4077
 3328TIP3    H231476   4.909   0.642  11.391  0.0618  1.1486 -1.0002
 3329TIP3   OH231477   2.449   2.625   2.123 -0.1900  0.3940 -0.3647
 3329TIP3    H131478   2.431   2.713   2.090 -0.4461  0.8029  0.8084
 3329TIP3    H231479   2.389   2.569   2.075 -0.0479  0.8560 -1.1056
 3330TIP3   OH231480   1.998   4.999   4.802 -0.7407 -0.3884  0.1069
 3330TIP3    H131481   1.911   5.032   4.826 -0.0737  1.1544  0.5489
 3330TIP3    H231482   1.988   4.904   4.799 -1.9011 -0.3899  2.3035
 3331TIP3   OH231483   3.697   5.646  13.264 -0.3436  0.1088  0.5871
 3331TIP3    H131484   3.704   5.550  13.265  1.1418  0.2046  2.0714
 3331TIP3    H231485   3.608   5.662  13.233 -0.5471 -1.7362  0.0517
 3332TIP3   OH231486   0.620   2.106  14.112 -0.3349  0.0352  0.1341
 3332TIP3    H131487   0.568   2.026  14.100 -1.5381  0.5038  1.8921
 3332TIP3    H231488   0.622   2.146  14.025 -3.5382  0.3298  0.0917
 3333TIP3   OH231489   3.810   3.941  12.089  0.3731 -0.6050  0.4185
 3333TIP3    H131490   3.822   3.880  12.017  2.2466  0.0739  0.1078
 3333TIP3    H231491   3.769   3.889  12.158  0.7193 -1.8554 -0.2980
 3334TIP3   OH231492   1.132   5.159  10.383  0.0067 -0.1955  0.4473
 3334TIP3    H131493   1.204   5.157  10.321  0.5945  0.0525  1.1111
 3334TIP3    H231494   1.129   5.250  10.414 -1.0054 -0.0412 -0.0424
 3335TIP3   OH231495   3.964   6.166   0.799 -0.7167 -0.1565  0.1041
 3335TIP3    H131496   3.953   6.145   0.891 -0.1028  1.0818  0.4768
 3335TIP3    H231497   3.883   6.135   0.757 -0.4711 -1.8662  0.8234
 3336TIP3   OH231498   3.049   5.820   0.684  0.4511 -0.2176 -0.3291
 3336TIP3    H131499   3.066   5.745   0.627 -0.3321 -0.5464 -0.1533
 3336TIP3    H231500   3.049   5.895   0.625  0.7091 -0.4210 -0.5938
 3337TIP3   OH231501   3.823   6.002   0.064  0.3215 -0.0338 -0.2076
 3337TIP3    H131502   3.817   5.928   0.004  1.0755  0.3150 -0.7293
 3337TIP3    H231503   3.746   6.055   0.045 -0.5829 -1.0145  0.6390
 3338TIP3   OH231504   5.273   0.034  12.925 -0.7037  0.5529  0.0879
 3338TIP3    H131505   5.280   0.012  12.833 -2.7281  0.4190 -0.0602
 3338TIP3    H231506   5.188   0.076  12.934 -2.3927 -2.9259  2.5393
 3339TIP3   OH231507   6.964   0.278  14.576 -0.0877 -0.3548 -0.3159
 3339TIP3    H131508   7.002   0.201  14.535  0.7540 -0.1278  0.0288
 3339TIP3    H231509   6.961   0.344  14.506 -1.0789 -0.7688 -0.6911
 3340TIP3   OH231510   1.758   5.776  12.137  0.4888  0.4103  0.5331
 3340TIP3    H131511   1.810   5.696  12.132 -0.8905 -0.4298 -1.7288
 3340TIP3    H231512   1.805   5.830  12.201  1.9290 -1.8283  1.5188
 3341TIP3   OH231513   4.850   4.824   0.715 -0.2671 -0.2278  0.4025
 3341TIP3    H131514   4.942   4.811   0.690 -0.4977 -1.0785 -0.0626
 3341TIP3    H231515   4.854   4.852   0.806  0.4582 -0.2502  0.3870
 3342TIP3   OH231516   4.231   1.604   3.175 -0.0837  0.1668  0.1765
 3342TIP3    H131517   4.252   1.574   3.086 -1.0884 -1.7988  0.5493
 3342TIP3    H231518   4.158   1.548   3.202 -0.8325  1.7828  1.6756
 3343TIP3   OH231519   4.615   3.048   2.130 -0.0953 -0.2528  0.2798
 3343TIP3    H131520   4.652   3.092   2.053  0.0509 -1.8066 -0.5840
 3343TIP3    H231521   4.684   2.987   2.158 -1.3105 -1.9881 -0.3309
 3344TIP3   OH231522   4.647   4.294  13.148 -0.5745 -0.9015 -0.0490
 3344TIP3    H131523   4.688   4.379  13.133  0.2586 -1.3455 -0.3529
 3344TIP3    H231524   4.583   4.286  13.077 -0.0942 -0.8717 -0.4878
 3345TIP3   OH231525   6.521   5.547   3.830 -0.1863  0.6900 -0.0610
 3345TIP3    H131526   6.548   5.617   3.771  1.0065  0.6340  0.4004
 3345TIP3    H231527   6.426   5.557   3.836  0.0338  2.8490  0.7228
 3346TIP3   OH231528   4.696   1.462   0.454  0.4403 -0.1786  0.3375
 3346TIP3    H131529   4.733   1.463   0.542  0.5782 -1.0527  0.2954
 3346TIP3    H231530   4.685   1.369   0.433 -2.3343  0.0266  0.5825
 3347TIP3   OH231531   0.445   0.672  13.608  0.0937  0.1323 -0.1545
 3347TIP3    H131532   0.380   0.631  13.550  0.2122  1.7207 -1.5017
 3347TIP3    H231533   0.408   0.663  13.696 -2.0515  1.0765 -0.8763
 3348TIP3   OH231534   0.130   2.769   2.587 -0.3738  0.1330  0.2905
 3348TIP3    H131535   0.044   2.764   2.629 -0.3199  0.2497  0.4172
 3348TIP3    H231536   0.173   2.687   2.611 -0.7542 -0.2971 -0.4559
 3349TIP3   OH231537   2.959   5.383  12.844 -0.2445  0.0046  0.1494
 3349TIP3    H131538   2.919   5.308  12.889  0.5825 -1.1760 -1.0055
 3349TIP3    H231539   3.039   5.400  12.894  0.7331 -1.3788 -0.8844
 3350TIP3   OH231540   5.193   3.511   3.987  0.3263  0.5391  0.3439
 3350TIP3    H131541   5.104   3.514   3.953  1.2258 -0.8333 -2.3899
 3350TIP3    H231542   5.182   3.483   4.078 -2.0418  1.0633  0.2840
 3351TIP3   OH231543   0.693   0.723   1.793 -0.1720  0.1020 -0.6279
 3351TIP3    H131544   0.707   0.666   1.718  2.0777 -0.2154 -0.0412
 3351TIP3    H231545   0.697   0.812   1.758  0.0490 -0.0553 -0.9990
 3352TIP3   OH231546   6.029   1.057   0.694 -0.3400  0.0901 -0.1769
 3352TIP3    H131547   6.118   1.063   0.729 -0.5996 -0.3911  0.5875
 3352TIP3    H231548   6.018   1.137   0.642 -0.2898  1.3733  1.6736
 3353TIP3   OH231549   1.359   6.825  13.592 -0.2178 -0.1927  0.2918
 3353TIP3    H131550   1.407   6.775  13.657  0.0335 -0.2062  0.0997
 3353TIP3    H231551   1.390   6.915  13.604  1.8135 -0.5666 -1.5174
 3354TIP3   OH231552   5.836   0.509  10.778  0.2814 -0.3913 -0.3450
 3354TIP3    H131553   5.802   0.597  10.794  1.3714 -0.2465  1.4234
 3354TIP3    H231554   5.757   0.454  10.771 -0.4092  0.1402  2.2880
 3355TIP3   OH231555   3.605   3.681   0.604 -0.7773  0.0266 -0.4563
 3355TIP3    H131556   3.682   3.720   0.646 -1.8579  0.7987  0.8774
 3355TIP3    H231557   3.573   3.617   0.667  0.0246 -1.9664 -1.9393
 3356TIP3   OH231558   2.616   6.221  14.160  0.2707  0.1897 -0.2811
 3356TIP3    H131559   2.616   6.315  14.180  0.7550 -0.1123  1.3296
 3356TIP3    H231560   2.524   6.201  14.143 -0.2014  0.5692  1.5585
 3357TIP3   OH231561   0.761   3.124  12.134 -0.3195  0.3193  0.3041
 3357TIP3    H131562   0.800   3.191  12.190  0.9386 -0.1268  0.0039
 3357TIP3    H231563   0.721   3.061  12.194 -1.2353  1.1537  0.5938
 3358TIP3   OH231564   1.026   4.104  10.944 -0.3378  0.1847  0.5563
 3358TIP3    H131565   0.955   4.103  11.008 -1.0081  2.7581 -0.0579
 3358TIP3    H231566   0.983   4.123  10.861  1.0848  2.5044  0.2748
 3359TIP3   OH231567   3.298   3.475  13.303 -0.1993 -0.0285 -0.2739
 3359TIP3    H131568   3.362   3.510  13.364 -0.1337 -0.9559  0.2146
 3359TIP3    H231569   3.274   3.549  13.247 -0.1796  0.8145  0.8006
 3360TIP3   OH231570   3.594   2.992  14.980 -0.0721 -0.0309 -0.4376
 3360TIP3    H131571   3.563   2.940  15.054 -3.0286 -0.5936 -1.9039
 3360TIP3    H231572   3.624   2.928  14.916  1.2882  0.3859 -0.2465
 3361TIP3   OH231573   3.951   4.322  10.675  0.0618 -0.1247  0.8099
 3361TIP3    H131574   4.008   4.304  10.750  0.1991 -0.0734  0.7176
 3361TIP3    H231575   3.993   4.277  10.601 -0.7514 -1.2642  1.0089
 3362TIP3   OH231576   5.746   5.552  10.564 -0.4560 -0.3316 -0.0574
 3362TIP3    H131577   5.788   5.609  10.500 -1.0868 -0.0576 -0.2375
 3362TIP3    H231578   5.818   5.513  10.613  0.0203 -0.3057 -0.7298
 3363TIP3   OH231579   2.951   3.245   0.079  0.0556 -0.1479 -0.0137
 3363TIP3    H131580   3.006   3.306   0.127 -1.1587  1.6479 -0.8211
 3363TIP3    H231581   2.870   3.293   0.062 -1.5955 -2.4832  0.6448
 3364TIP3   OH231582   1.755   6.210  11.730  0.5735 -0.4631  0.2707
 3364TIP3    H131583   1.812   6.154  11.678 -0.1898 -0.0730 -1.0174
 3364TIP3    H231584   1.815   6.256  11.789  1.2149 -2.6912  1.4894
 3365TIP3   OH231585   2.710   0.192   5.398 -0.1593  0.3803  0.1365
 3365TIP3    H131586   2.739   0.230   5.315 -0.2471 -0.4149 -0.2714
 3365TIP3    H231587   2.653   0.258   5.437  0.8166  1.2507  0.1258
 3366TIP3   OH231588   1.635   5.915  13.252 -0.1191 -0.0748 -0.0133
 3366TIP3    H131589   1.680   5.834  13.275  0.5195  0.2535 -0.1008
 3366TIP3    H231590   1.667   5.937  13.164  0.9222  1.1085  0.6293
 3367TIP3   OH231591   0.591   5.696   0.214 -0.6036 -1.1396 -0.0347
 3367TIP3    H131592   0.619   5.633   0.280 -1.3091 -1.4824 -0.0479
 3367TIP3    H231593   0.503   5.667   0.190  0.1735 -1.9143 -2.2025
 3368TIP3   OH231594   3.999   6.520   0.118 -0.5523 -0.2529  0.5500
 3368TIP3    H131595   3.995   6.426   0.101  0.4059 -0.4826  1.5037
 3368TIP3    H231596   3.980   6.560   0.033  0.1117 -1.3131 -0.1202
 3369TIP3   OH231597   0.386   5.666  14.092 -0.4790  0.5281  0.1816
 3369TIP3    H131598   0.444   5.612  14.038  0.0907  1.5738 -0.2778
 3369TIP3    H231599   0.319   5.605  14.123 -0.0877 -0.3576 -0.6500
 3370TIP3   OH231600   0.624   2.543   0.538 -0.0156 -0.3480  0.0982
 3370TIP3    H131601   0.559   2.474   0.548 -0.8826  0.4412 -0.0350
 3370TIP3    H231602   0.625   2.562   0.445 -2.1241  2.0035  0.4560
 3371TIP3   OH231603   5.001   0.504  14.730 -0.0533  0.8442  0.5528
 3371TIP3    H131604   4.916   0.508  14.775  0.8159 -0.2374  2.4321
 3371TIP3    H231605   4.988   0.439  14.661 -0.8210  0.8402  0.6843
 3372TIP3   OH231606   4.361   3.650   3.384 -0.0227  0.1487 -0.1800
 3372TIP3    H131607   4.432   3.675   3.324 -0.2254 -0.5168 -0.7135
 3372TIP3    H231608   4.397   3.578   3.435  0.2100  0.8315  0.6432
 3373TIP3   OH231609   3.998   0.956   9.399 -0.4500  0.3452 -0.0332
 3373TIP3    H131610   3.950   0.874   9.391  0.6837 -0.6525  2.4359
 3373TIP3    H231611   3.937   1.017   9.440 -0.3535 -0.1965  0.9243
 3374TIP3   OH231612   3.248   0.800   0.036 -0.4374 -0.6577 -0.0326
 3374TIP3    H131613   3.172   0.828  -0.016 -0.3653  1.8832  1.0912
 3374TIP3    H231614   3.319   0.793  -0.028 -0.5073  1.7681 -0.4743
 3375TIP3   OH231615   6.156   6.757   1.183  0.7798  0.6356 -0.1891
 3375TIP3    H131616   6.067   6.749   1.218  0.1900  0.8963 -1.5361
 3375TIP3    H231617   6.160   6.692   1.112  1.0229  1.8560 -1.3372
 3376TIP3   OH231618   5.271   7.206  11.936 -0.0684  0.4805 -0.2303
 3376TIP3    H131619   5.184   7.167  11.926 -1.1021  1.4333  3.3490
 3376TIP3    H231620   5.331   7.131  11.932 -0.9174 -0.1712 -3.0127
 3377TIP3   OH231621   5.828   6.074  13.110  0.2101 -0.4480 -0.0275
 3377TIP3    H131622   5.855   6.005  13.050  3.7257  0.7464 -0.0537
 3377TIP3    H231623   5.829   6.154  13.057  0.3510  0.1958  0.9196
 3378TIP3   OH231624   2.562   1.580   5.184  0.5302 -0.0612  0.2230
 3378TIP3    H131625   2.583   1.526   5.108  0.2492  0.0983  0.0301
 3378TIP3    H231626   2.607   1.538   5.257 -0.3195 -0.9901  0.2161
 3379TIP3   OH231627   5.826   4.677  11.161 -0.4509  0.4043  0.1917
 3379TIP3    H131628   5.859   4.738  11.095 -0.4733 -1.8361 -2.0466
 3379TIP3    H231629   5.732   4.672  11.144 -0.4305 -0.3232  0.2828
 3380TIP3   OH231630   5.339   0.785  11.902 -0.6027  0.1597  0.1367
 3380TIP3    H131631   5.310   0.820  11.986 -1.3391  1.6775 -0.7071
 3380TIP3    H231632   5.398   0.852  11.867 -0.8369 -0.1304 -0.8466
 3381TIP3   OH231633   0.622   4.055  10.448  0.1968  0.4415 -0.1304
 3381TIP3    H131634   0.548   4.096  10.493  1.4194  3.6722 -0.8498
 3381TIP3    H231635   0.699   4.098  10.483  1.6674 -1.5856 -0.7039
 3382TIP3   OH231636   5.474   2.411   1.528  0.2980  0.1412 -0.4937
 3382TIP3    H131637   5.512   2.422   1.440  0.1666  0.7412 -0.4779
 3382TIP3    H231638   5.420   2.489   1.540  1.2358  0.6503  0.5887
 3383TIP3   OH231639   3.725   4.372   1.015 -0.0091 -0.2633 -0.3643
 3383TIP3    H131640   3.771   4.433   0.958  0.0370  2.1724  2.0918
 3383TIP3    H231641   3.794   4.329   1.066 -0.1967 -0.0628  0.0663
 3384TIP3   OH231642   0.210   0.094   2.618  0.3595  0.2300 -0.3235
 3384TIP3    H131643   0.213   0.123   2.709  1.1422 -1.2630  0.1577
 3384TIP3    H231644   0.137   0.143   2.579 -0.0218  0.8397  1.1121
 3385TIP3   OH231645   6.954   0.537  10.557 -0.2350 -0.2108  0.1205
 3385TIP3    H131646   6.937   0.601  10.488 -0.5344 -1.3811 -0.9414
 3385TIP3    H231647   6.887   0.470  10.544  2.0365 -2.4431 -1.0254
 3386TIP3   OH231648   1.136   0.100  12.633  0.2291  0.1462 -0.3854
 3386TIP3    H131649   1.073   0.032  12.607  1.2649 -0.5072 -1.2475
 3386TIP3    H231650   1.126   0.168  12.566 -0.6535  0.7815  0.3575
 3387TIP3   OH231651   3.296   2.827  11.254  0.1167 -0.2770 -0.3438
 3387TIP3    H131652   3.296   2.755  11.316  1.3273 -3.0951 -3.3354
 3387TIP3    H231653   3.389   2.846  11.239 -0.1220 -0.0568 -1.6570
 3388TIP3   OH231654   3.730   1.997   0.740  0.0903 -0.2615 -0.3233
 3388TIP3    H131655   3.651   1.987   0.793 -0.2860  2.1129 -0.3249
 3388TIP3    H231656   3.793   2.039   0.799  0.3268  0.6341 -1.1952
 3389TIP3   OH231657   0.309   1.663  10.616  0.3402  0.4041 -0.1192
 3389TIP3    H131658   0.225   1.648  10.659  1.3589 -3.8645  0.7873
 3389TIP3    H231659   0.287   1.705  10.533 -2.6373 -0.2056  0.2730
 3390TIP3   OH231660   1.291   2.580  10.871 -0.3188 -0.0152 -0.8368
 3390TIP3    H131661   1.217   2.520  10.859 -0.9074  0.5256 -0.0265
 3390TIP3    H231662   1.329   2.554  10.955 -2.3573  2.5215  1.0312
 3391TIP3   OH231663   1.953   0.986   0.435 -0.8883 -0.2811  0.3210
 3391TIP3    H131664   1.897   1.062   0.417  0.2880  0.2533 -1.3815
 3391TIP3    H231665   2.033   1.024   0.471 -0.3553 -0.6998 -0.3908
 3392TIP3   OH231666   6.070   2.865   1.557  0.1463 -0.4625 -0.1748
 3392TIP3    H131667   6.037   2.940   1.507  0.2309 -1.4205 -1.7379
 3392TIP3    H231668   5.991   2.822   1.591  0.1407  1.3679  2.4461
 3393TIP3   OH231669   5.157   6.095  13.467 -0.1262  0.3581  0.3985
 3393TIP3    H131670   5.221   6.163  13.488 -1.7896  1.7060  1.3148
 3393TIP3    H231671   5.144   6.047  13.549  0.6682 -0.8244 -0.1210
 3394TIP3   OH231672   5.371   2.113   5.178 -0.1991  0.0094  0.6250
 3394TIP3    H131673   5.464   2.100   5.195 -0.0391  1.9910  1.5590
 3394TIP3    H231674   5.331   2.115   5.266 -1.1579 -1.0211  0.2283
 3395TIP3   OH231675   4.713   6.799  13.980  0.3334  0.9492  0.2229
 3395TIP3    H131676   4.745   6.708  13.977 -0.7389  0.5536  0.4001
 3395TIP3    H231677   4.754   6.836  14.059  0.5050  0.5156  0.3424
 3396TIP3   OH231678   5.971   2.501   1.991  0.2559  0.3474 -0.1733
 3396TIP3    H131679   6.021   2.578   1.965  1.2621  0.5224  2.0277
 3396TIP3    H231680   5.891   2.536   2.031  0.3999  0.2406  0.2144
 3397TIP3   OH231681   7.135   2.005  10.973  0.2121  0.1895 -0.1768
 3397TIP3    H131682   7.136   1.961  11.058  1.2772  1.1407  0.3293
 3397TIP3    H231683   7.090   2.088  10.990 -0.2725  0.0487 -0.7333
 3398TIP3   OH231684   3.038   0.535  10.039 -0.4530  0.1679  0.0671
 3398TIP3    H131685   3.054   0.455  10.089 -0.3654  0.3384  0.3218
 3398TIP3    H231686   3.020   0.506   9.950  1.1895 -0.0542 -0.2269
 3399TIP3   OH231687   2.129   0.716  11.443  0.2635 -0.1842 -0.6011
 3399TIP3    H131688   2.220   0.705  11.416  0.3575  1.8952 -1.3330
 3399TIP3    H231689   2.089   0.769  11.374 -1.0775  0.2700  0.4646
 3400TIP3   OH231690   6.690   6.887   2.317  0.3297 -0.4646 -0.2637
 3400TIP3    H131691   6.784   6.888   2.296  1.2205  0.4564  3.0959
 3400TIP3    H231692   6.663   6.797   2.303  1.5254 -0.6117 -1.9203
 3401TIP3   OH231693   5.022   4.902  10.978 -0.0411 -0.0433 -0.9392
 3401TIP3    H131694   5.035   4.980  11.032  1.1237 -0.2669 -0.8748
 3401TIP3    H231695   5.011   4.831  11.041 -0.4296 -0.0378 -0.9993
 3402TIP3   OH231696   3.164   5.643   5.422 -0.0874 -0.4589  0.1890
 3402TIP3    H131697   3.233   5.679   5.477 -0.8171  0.0065  0.8154
 3402TIP3    H231698   3.101   5.605   5.483  0.3998 -2.3766 -0.4321
 3403TIP3   OH231699   4.332   4.007  11.812 -0.0971  0.4637 -0.0978
 3403TIP3    H131700   4.332   3.929  11.758 -1.2869 -0.1109  0.6809
 3403TIP3    H231701   4.399   3.991  11.879  0.4653  0.6217 -0.6151
 3404TIP3   OH231702   0.278   3.622  11.746  0.2328  0.4290 -0.7719
 3404TIP3    H131703   0.263   3.655  11.658 -0.4707 -0.0213 -0.8341
 3404TIP3    H231704   0.258   3.697  11.803 -3.0729 -0.2661 -0.8162
 3405TIP3   OH231705   6.722   5.850  10.673  0.3989  0.6631 -0.5698
 3405TIP3    H131706   6.671   5.931  10.673  1.8351  1.6672 -2.8057
 3405TIP3    H231707   6.798   5.870  10.618  0.7902 -2.2229 -1.2202
 3406TIP3   OH231708   5.582   4.504  12.909  0.2341 -0.0135 -0.0404
 3406TIP3    H131709   5.501   4.516  12.860  0.5811 -0.6090 -0.7948
 3406TIP3    H231710   5.563   4.537  12.997 -0.6466  0.3600 -0.3615
 3407TIP3   OH231711   1.363   0.263  10.635 -0.3232  0.3388 -0.0123
 3407TIP3    H131712   1.312   0.340  10.609  0.6827  0.9798 -0.1744
 3407TIP3    H231713   1.306   0.189  10.618 -1.7306  1.0967  1.1422
 3408TIP3   OH231714   1.478   1.310   0.919 -0.1478 -0.0972 -0.5826
 3408TIP3    H131715   1.481   1.246   0.990 -2.3185  0.0073 -0.3252
 3408TIP3    H231716   1.440   1.388   0.960  0.1612  0.5316 -1.4739
 3409TIP3   OH231717   5.497   6.510  14.322  0.1720  0.3393  0.1311
 3409TIP3    H131718   5.528   6.450  14.389 -0.3253 -0.0264  0.0451
 3409TIP3    H231719   5.564   6.577  14.317  0.0650  0.5469  1.2197
 3410TIP3   OH231720   1.448   4.472  11.925  0.2165 -0.5506 -0.1821
 3410TIP3    H131721   1.394   4.410  11.974  1.2256 -1.1853  0.1650
 3410TIP3    H231722   1.412   4.471  11.836 -0.9247 -0.2339  0.2549
 3411TIP3   OH231723   3.947   5.504   4.514 -0.3099  0.4484  0.4076
 3411TIP3    H131724   4.014   5.571   4.501 -1.1467  0.9066 -2.2756
 3411TIP3    H231725   3.996   5.422   4.519  0.5870  1.0253  1.3181
 3412TIP3   OH231726   7.197   3.851   1.419  0.2005 -0.5710  0.5151
 3412TIP3    H131727   7.151   3.931   1.393 -1.2791 -1.1277  1.2630
 3412TIP3    H231728   7.284   3.880   1.446 -0.0572  0.6751  0.0609
 3413TIP3   OH231729   5.189   4.657  10.810 -0.0177 -0.0530  0.1644
 3413TIP3    H131730   5.262   4.606  10.846  0.5314  0.1187 -0.6997
 3413TIP3    H231731   5.228   4.712  10.742 -0.6479  1.3223  0.8634
 3414TIP3   OH231732   0.419   6.073  11.412 -0.1992  0.1894  0.2759
 3414TIP3    H131733   0.438   6.019  11.489 -1.0713 -1.2029 -0.4358
 3414TIP3    H231734   0.459   6.157  11.431  0.9798 -0.6184  1.5673
 3415TIP3   OH231735   3.844   4.636   5.109  1.0306  0.1636  0.1981
 3415TIP3    H131736   3.804   4.620   5.195  0.2527  2.3554  0.2926
 3415TIP3    H231737   3.864   4.548   5.076  1.9592 -0.7520  2.8690
 3416TIP3   OH231738   5.942   1.068  12.942  0.5600 -0.1531  0.1450
 3416TIP3    H131739   6.032   1.040  12.963  0.4755  0.8886  2.1930
 3416TIP3    H231740   5.894   0.986  12.931  1.4651 -0.7501  0.4679
 3417TIP3   OH231741   3.962   5.514  13.744 -0.6225 -0.5332  0.1530
 3417TIP3    H131742   4.035   5.520  13.805 -0.4108 -2.0156  0.0886
 3417TIP3    H231743   3.979   5.583  13.680  0.4377 -0.5082  0.4381
 3418TIP3   OH231744   0.243   4.079  13.336 -0.7275 -0.0929  0.0378
 3418TIP3    H131745   0.199   4.164  13.338 -1.8169 -0.6452  0.1658
 3418TIP3    H231746   0.229   4.043  13.424  0.4229 -0.0683  0.2414
 3419TIP3   OH231747   5.416   2.050  10.793  0.0268  0.3229 -0.4706
 3419TIP3    H131748   5.365   2.076  10.716 -0.5885 -1.4343 -0.6899
 3419TIP3    H231749   5.380   2.104  10.864 -0.0538  1.2751 -1.2062
 3420TIP3   OH231750   5.247   2.389  12.639  0.0064 -0.1891  0.1484
 3420TIP3    H131751   5.193   2.468  12.628  0.9270  0.2223 -1.9884
 3420TIP3    H231752   5.327   2.408  12.590  0.0228 -2.6603 -0.9255
 3421TIP3   OH231753   4.762   6.867  12.557  0.5069  0.1457  0.4818
 3421TIP3    H131754   4.667   6.875  12.559  0.3250 -1.2425 -0.9147
 3421TIP3    H231755   4.781   6.789  12.609  0.6232 -1.1427 -1.4154
 3422TIP3   OH231756   6.962   5.205   3.357  0.0780 -0.0380  0.0634
 3422TIP3    H131757   6.997   5.152   3.428  1.3817  2.3054  1.2867
 3422TIP3    H231758   6.883   5.246   3.394 -0.6896 -0.7737 -0.7261
 3423TIP3   OH231759   2.901   3.611  14.013 -0.0270 -0.0274  0.3264
 3423TIP3    H131760   2.954   3.640  14.087 -0.3936 -0.6979  0.8646
 3423TIP3    H231761   2.841   3.684  13.996  0.3170  0.2828  0.4297
 3424TIP3   OH231762   3.204   0.731  14.843  0.0976  0.0317 -0.3374
 3424TIP3    H131763   3.124   0.764  14.885  0.2573 -0.5006  0.4047
 3424TIP3    H231764   3.183   0.728  14.750 -0.7997 -0.2429 -0.1335
 3425TIP3   OH231765   2.064   4.416   9.733  0.3750  0.4816  0.7601
 3425TIP3    H131766   2.095   4.327   9.754 -0.3160  0.1175  0.2754
 3425TIP3    H231767   1.969   4.410   9.738  0.3323  1.2876  1.0430
 3426TIP3   OH231768   6.512   1.545   9.808 -0.2195 -0.0391  0.0281
 3426TIP3    H131769   6.442   1.483   9.829  0.2437  0.6039  4.1467
 3426TIP3    H231770   6.469   1.613   9.756 -2.0667 -0.9190  0.3227
 3427TIP3   OH231771   5.122   1.850  11.978  0.1880 -0.0883 -0.9872
 3427TIP3    H131772   5.189   1.870  11.914 -0.2837  0.0447 -1.4466
 3427TIP3    H231773   5.105   1.756  11.966  0.4405 -0.1685 -0.7253
 3428TIP3   OH231774   4.196   1.856  13.731  0.5264 -0.0524 -0.6177
 3428TIP3    H131775   4.264   1.892  13.675  0.9260 -0.6312 -0.5216
 3428TIP3    H231776   4.131   1.821  13.671  0.1363  0.8135 -0.7095
 3429TIP3   OH231777   1.858   5.351  14.408  0.5458 -0.0938  0.2544
 3429TIP3    H131778   1.949   5.333  14.433  0.6065  0.9945  0.8680
 3429TIP3    H231779   1.864   5.429  14.351 -0.1737  1.4388  2.1612
 3430TIP3   OH231780   1.289   2.380  10.493 -0.0367 -0.5774 -0.2896
 3430TIP3    H131781   1.200   2.352  10.473 -0.9134  0.8375  1.4477
 3430TIP3    H231782   1.328   2.305  10.538 -0.5154 -0.9858 -0.5445
 3431TIP3   OH231783   3.178   2.532  10.357 -0.1030 -0.4966  0.1049
 3431TIP3    H131784   3.252   2.499  10.307 -0.2160 -1.1318  0.3383
 3431TIP3    H231785   3.212   2.607  10.405  0.0644 -0.0195 -0.7434
 3432TIP3   OH231786   3.144   5.052  10.007  0.4768 -0.8959  0.7872
 3432TIP3    H131787   3.094   5.123   9.968  0.5611 -0.6081  1.2021
 3432TIP3    H231788   3.109   4.973   9.965 -1.8217 -0.9138  2.5276
 3433TIP3   OH231789   2.057   1.360  12.951 -0.0387  0.0404 -0.7230
 3433TIP3    H131790   2.033   1.453  12.956  0.6423  0.3408 -2.3675
 3433TIP3    H231791   2.152   1.359  12.958 -0.1732 -0.8074  1.9088
 3434TIP3   OH231792   5.431   4.261  12.775  0.1154 -0.3289  0.3012
 3434TIP3    H131793   5.480   4.277  12.856 -0.1699 -1.8842  0.8232
 3434TIP3    H231794   5.367   4.333  12.771  1.1891  0.6682  0.5850
 3435TIP3   OH231795   0.481   4.684  11.966 -0.3301  0.4138 -0.2874
 3435TIP3    H131796   0.551   4.673  12.031 -1.0787 -2.6862  0.1554
 3435TIP3    H231797   0.527   4.693  11.883  0.6592 -1.0600  0.0598
 3436TIP3   OH231798   0.675   1.441  14.857 -0.2627 -0.0220 -0.3137
 3436TIP3    H131799   0.600   1.435  14.917 -0.3258  1.3007 -0.2351
 3436TIP3    H231800   0.751   1.427  14.913 -0.3329  1.0205  0.0565
 3437TIP3   OH231801   3.740   1.208  11.873  0.0843 -0.1154 -0.0628
 3437TIP3    H131802   3.709   1.294  11.843  0.4693 -0.1294 -0.5250
 3437TIP3    H231803   3.677   1.146  11.838 -0.4272  0.0087  0.6227
 3438TIP3   OH231804   3.510   0.076  13.252 -0.1947 -0.3830 -0.6146
 3438TIP3    H131805   3.553   0.157  13.279 -0.3436  0.4581 -2.7339
 3438TIP3    H231806   3.442   0.104  13.192 -0.6619 -2.0513 -0.9034
 3439TIP3   OH231807   0.015   3.871  11.451  0.3801  0.0113 -0.4117
 3439TIP3    H131808   0.008   3.797  11.391  1.4613 -0.4167 -0.0529
 3439TIP3    H231809   0.099   3.856  11.496  0.6900  1.5391 -0.4450
 3440TIP3   OH231810   2.613   3.124  12.107 -0.1848  0.4708  0.0526
 3440TIP3    H131811   2.617   3.204  12.055 -2.6147  0.6406  0.0427
 3440TIP3    H231812   2.699   3.082  12.094  0.8604  2.6740 -0.5231
 3441TIP3   OH231813   6.281   3.330  10.339  0.7495 -0.0235  0.4251
 3441TIP3    H131814   6.375   3.313  10.343  0.6945 -0.1539  3.2017
 3441TIP3    H231815   6.241   3.253  10.380 -0.4986  0.4490  0.1377
 3442TIP3   OH231816   1.974   5.678  11.332 -0.7719  0.5568  0.5492
 3442TIP3    H131817   1.923   5.598  11.318  0.1985  0.0289 -0.0574
 3442TIP3    H231818   1.936   5.742  11.272 -0.9153  0.2658  0.3284
 3443TIP3   OH231819   2.732   6.762  11.451 -0.1133 -0.2608 -0.3541
 3443TIP3    H131820   2.718   6.668  11.440  0.4342 -0.9487  3.5607
 3443TIP3    H231821   2.819   6.770  11.488  0.2077  1.9274 -1.4132
 3444TIP3   OH231822   5.001   0.749  10.345  0.0047  0.1087 -0.5724
 3444TIP3    H131823   5.083   0.797  10.333 -0.9267  2.1656  0.7910
 3444TIP3    H231824   4.934   0.806  10.308 -1.4785  1.3175  3.4736
 3445TIP3   OH231825   3.425   6.489  14.810  0.0213 -0.2149 -0.1125
 3445TIP3    H131826   3.520   6.487  14.810  0.0809 -0.2184 -2.7426
 3445TIP3    H231827   3.402   6.575  14.776 -0.9796  0.1573  1.3730
 3446TIP3   OH231828   6.008   1.405  13.217 -0.4772 -0.5772 -0.4917
 3446TIP3    H131829   6.038   1.397  13.127 -0.5345  0.9998 -0.6810
 3446TIP3    H231830   5.933   1.465  13.213  1.1562  1.7344  0.8749
 3447TIP3   OH231831   0.427   2.154   3.138  0.0068  0.1264  0.5768
 3447TIP3    H131832   0.423   2.211   3.215 -0.8667 -0.1354  0.7296
 3447TIP3    H231833   0.375   2.078   3.162  1.3985 -0.8916  0.4883
 3448TIP3   OH231834   6.866   2.084  10.364 -0.3184  0.3051 -0.3410
 3448TIP3    H131835   6.904   2.007  10.321 -0.0268  0.2926 -0.0649
 3448TIP3    H231836   6.797   2.048  10.420  1.9323 -0.1738  2.3350
 3449TIP3   OH231837   3.166   7.075   2.124  0.5717  0.3847  0.4972
 3449TIP3    H131838   3.163   6.998   2.068  2.6582 -0.3120  1.2564
 3449TIP3    H231839   3.165   7.150   2.064  0.8566 -0.3027 -0.3716
 3450TIP3   OH231840   3.700   4.826  14.514 -0.0118 -0.0969  0.2697
 3450TIP3    H131841   3.656   4.901  14.474 -0.1002  0.1131  0.7516
 3450TIP3    H231842   3.631   4.782  14.563  0.1094 -0.3146  0.2432
 3451TIP3   OH231843   1.518   4.704   3.350  0.3888 -0.0555  0.2868
 3451TIP3    H131844   1.511   4.669   3.261 -3.1699 -0.7433  0.7059
 3451TIP3    H231845   1.567   4.637   3.398 -0.0632 -1.0269 -0.5668
 3452TIP3   OH231846   5.204   7.241  14.412  0.1184  0.4078 -0.0863
 3452TIP3    H131847   5.258   7.162  14.405 -1.1809 -0.6297  0.8675
 3452TIP3    H231848   5.219   7.288  14.330  0.0421 -1.4527 -1.2334
 3453TIP3   OH231849   0.416   3.478  10.449 -0.0457  0.3099 -0.3306
 3453TIP3    H131850   0.400   3.426  10.527 -0.2474  1.0889  0.1496
 3453TIP3    H231851   0.334   3.474  10.400 -0.3357  0.8470  0.1040
 3454TIP3   OH231852   4.290   5.951  11.726 -0.0779 -0.4483 -0.2800
 3454TIP3    H131853   4.285   6.006  11.648 -1.9187  2.7780  1.9039
 3454TIP3    H231854   4.212   5.895  11.720 -0.2927 -0.1136 -0.6708
 3455TIP3   OH231855   3.168   3.704   4.985  0.3317  0.2474 -0.6869
 3455TIP3    H131856   3.202   3.705   4.896  2.1907  0.9271 -0.0118
 3455TIP3    H231857   3.096   3.767   4.984  0.4931  0.4371 -1.6408
 3456TIP3   OH231858   2.243   3.737   1.348  0.4423 -0.0542 -0.4735
 3456TIP3    H131859   2.195   3.656   1.328  0.3620 -0.0371 -0.3493
 3456TIP3    H231860   2.184   3.786   1.405  1.3214 -0.8147  1.1571
 3457TIP3   OH231861   3.092   6.834   1.251  0.0147  0.2978  0.0034
 3457TIP3    H131862   3.177   6.877   1.266  1.0662 -1.3305 -0.9238
 3457TIP3    H231863   3.103   6.790   1.166 -0.4731 -2.8646  1.4516
 3458TIP3   OH231864   3.547   3.905  12.991  0.2272  0.0912  0.5590
 3458TIP3    H131865   3.534   4.000  12.988 -1.1999 -0.0973  0.0523
 3458TIP3    H231866   3.548   3.883  13.084  1.7763  0.7253  0.7285
 3459TIP3   OH231867   0.271   7.129   4.326  0.0335 -0.1491 -0.2980
 3459TIP3    H131868   0.225   7.176   4.396  0.3717 -0.9338  0.4639
 3459TIP3    H231869   0.307   7.052   4.368  1.1325 -0.1137 -1.1268
 3460TIP3   OH231870   6.965   3.087  10.986  0.0602  0.3011 -0.4621
 3460TIP3    H131871   6.880   3.055  10.958  0.1738  1.0300 -1.6875
 3460TIP3    H231872   7.026   3.059  10.918  0.1178  3.3246 -1.8186
 3461TIP3   OH231873   1.349   4.085  13.728  0.2673 -0.5941  0.2298
 3461TIP3    H131874   1.381   4.044  13.648  1.4630 -1.0871  0.9302
 3461TIP3    H231875   1.256   4.100  13.712  0.5262 -0.4888 -1.3243
 3462TIP3   OH231876   5.639   2.548  11.397  0.0292 -0.3856 -0.2879
 3462TIP3    H131877   5.557   2.548  11.348 -0.4916  1.0055  0.5360
 3462TIP3    H231878   5.691   2.478  11.357 -0.9413 -0.2569 -1.8300
 3463TIP3   OH231879   6.728   6.641  14.247 -0.1185 -0.8730  0.2921
 3463TIP3    H131880   6.634   6.633  14.260 -0.0945  0.0733  1.2347
 3463TIP3    H231881   6.738   6.717  14.190  0.1227  0.6479  2.2235
 3464TIP3   OH231882   2.978   1.909  12.194 -0.2262  0.3294  0.4102
 3464TIP3    H131883   3.043   1.961  12.146  1.1269 -1.4132  0.2411
 3464TIP3    H231884   2.901   1.965  12.198  1.2445  2.4569  0.5385
 3465TIP3   OH231885   4.194   0.105  11.573 -0.0048 -0.2785 -0.3912
 3465TIP3    H131886   4.137   0.125  11.647  0.7430 -0.4810  0.2538
 3465TIP3    H231887   4.148   0.141  11.497  0.1960  1.8209  0.4149
 3466TIP3   OH231888   5.040   6.750  10.089 -0.0996 -0.1058  0.2196
 3466TIP3    H131889   4.996   6.783  10.169  0.8317  0.3720  0.5502
 3466TIP3    H231890   5.002   6.664  10.075 -5.3196  2.1975 -2.6593
 3467TIP3   OH231891   3.345   4.191  12.231 -0.1895  0.2884  0.2847
 3467TIP3    H131892   3.359   4.272  12.181  0.3787  0.3752  0.5772
 3467TIP3    H231893   3.410   4.130  12.197  0.2602  0.3742  0.9742
 3468TIP3   OH231894   4.814   5.309  10.712 -0.4503 -0.3941 -0.3902
 3468TIP3    H131895   4.863   5.271  10.640 -0.6318  0.2278 -0.8535
 3468TIP3    H231896   4.839   5.402  10.711  2.7065 -0.9714  2.8528
 3469TIP3   OH231897   3.809   2.465  10.224 -0.6038 -0.2550 -0.0065
 3469TIP3    H131898   3.762   2.400  10.172 -4.4670  1.7884  0.5740
 3469TIP3    H231899   3.830   2.420  10.305  0.4360 -1.8394 -1.0871
 3470TIP3   OH231900   4.126   3.190   0.059 -0.4665 -0.7164 -0.1123
 3470TIP3    H131901   4.129   3.162  -0.032  0.8754 -0.4835 -0.1616
 3470TIP3    H231902   4.215   3.220   0.078 -0.7420 -0.6775  1.2441
 3471TIP3   OH231903   0.283   0.845  13.385  0.3421 -0.4003  0.1696
 3471TIP3    H131904   0.378   0.847  13.394  0.6661 -0.5182 -2.5989
 3471TIP3    H231905   0.262   0.752  13.376 -0.0796 -0.3851  0.8972
 3472TIP3   OH231906   0.135   1.351   4.462  0.1543  0.0550 -0.0528
 3472TIP3    H131907   0.210   1.401   4.431  1.0229 -1.5630 -0.6576
 3472TIP3    H231908   0.172   1.268   4.492 -1.1842 -0.0841  1.3431
 3473TIP3   OH231909   5.571   5.677  11.354 -0.6398 -0.2353  0.4662
 3473TIP3    H131910   5.591   5.607  11.416 -0.0565 -0.7554 -0.2892
 3473TIP3    H231911   5.655   5.720  11.338 -0.7790 -0.1133  0.0348
 3474TIP3   OH231912   0.337   5.034   1.406 -0.8329  0.1252 -0.3141
 3474TIP3    H131913   0.431   5.028   1.423 -0.7989  1.1825 -0.0338
 3474TIP3    H231914   0.298   4.967   1.462 -0.3896  1.0362  1.1542
 3475TIP3   OH231915   1.257   3.099  15.216 -0.6632 -0.2086 -0.3013
 3475TIP3    H131916   1.267   3.194  15.220  1.9109 -0.4135  0.0047
 3475TIP3    H231917   1.346   3.065  15.209 -1.2998 -2.6971  1.6925
 3476TIP3   OH231918   2.757   4.208  13.464  0.4410 -0.2828 -0.1879
 3476TIP3    H131919   2.685   4.234  13.521  0.3457 -2.5445  0.8308
 3476TIP3    H231920   2.810   4.287  13.454 -0.3226  0.5493  1.8567
 3477TIP3   OH231921   7.086   2.314  11.448  0.2123 -0.3362 -0.3122
 3477TIP3    H131922   7.155   2.312  11.515  0.0308 -1.0649 -0.1405
 3477TIP3    H231923   7.121   2.370  11.379  1.6651 -1.9473 -0.9625
 3478TIP3   OH231924   4.795   5.688  12.722  0.0531 -0.1365 -0.5578
 3478TIP3    H131925   4.740   5.759  12.688 -1.4619 -1.5282 -1.1522
 3478TIP3    H231926   4.738   5.641  12.783  1.7507  0.4389  1.5847
 3479TIP3   OH231927   5.278   4.255   0.554 -0.1502 -0.2456  0.9255
 3479TIP3    H131928   5.282   4.254   0.459  0.8604 -1.3977  0.9516
 3479TIP3    H231929   5.274   4.348   0.577  2.1286  0.1901 -0.1845
 3480TIP3   OH231930   0.975   6.150   1.816 -0.1047 -0.6389  0.2631
 3480TIP3    H131931   1.055   6.189   1.850 -0.0495 -1.7971  1.5602
 3480TIP3    H231932   0.995   6.131   1.724  0.3721  0.9162  0.0204
 3481TIP3   OH231933   4.673   4.932  13.015  0.1663 -0.3185  0.2943
 3481TIP3    H131934   4.703   4.985  13.089 -1.0578 -0.8898  1.2461
 3481TIP3    H231935   4.589   4.895  13.045  0.6334 -2.2082 -0.5770
 3482TIP3   OH231936   0.564   2.437   5.751  0.3845 -0.0367 -0.2837
 3482TIP3    H131937   0.511   2.516   5.742 -0.8160 -0.9140 -1.2843
 3482TIP3    H231938   0.633   2.447   5.684  0.1781  0.1243 -0.4755
 3483TIP3   OH231939   7.081   2.350  12.361  0.0262 -0.1555  0.4425
 3483TIP3    H131940   7.121   2.281  12.308  0.5105  1.2182 -1.0741
 3483TIP3    H231941   7.006   2.308  12.404  0.4849 -1.6733 -0.1859
 3484TIP3   OH231942   2.041   1.068  10.035 -0.4281 -0.3088  0.1479
 3484TIP3    H131943   2.016   0.979  10.059 -1.6599 -0.4274 -1.4122
 3484TIP3    H231944   2.060   1.064   9.942  2.2525  0.5257  0.5687
 3485TIP3   OH231945   4.155   4.443  11.354 -0.5113 -0.1955 -0.8561
 3485TIP3    H131946   4.242   4.403  11.358 -0.3931 -0.0210 -1.5238
 3485TIP3    H231947   4.114   4.420  11.438  0.5352  0.5475 -0.1124
 3486TIP3   OH231948   5.809   3.666   0.535 -0.4405 -0.0582 -0.4182
 3486TIP3    H131949   5.831   3.755   0.561  1.4483 -0.3214 -0.9922
 3486TIP3    H231950   5.763   3.676   0.451 -1.0223  0.4041 -0.0547
 3487TIP3   OH231951   4.741   4.158  10.941 -0.8346 -0.0176  0.3163
 3487TIP3    H131952   4.657   4.113  10.943 -0.5978 -0.4354  1.7970
 3487TIP3    H231953   4.720   4.249  10.963 -0.8974 -0.1452  0.7981
 3488TIP3   OH231954   4.488   1.037   9.484  0.0956  0.0267 -0.5143
 3488TIP3    H131955   4.459   1.045   9.393 -2.2512  2.1402  0.3215
 3488TIP3    H231956   4.550   1.109   9.497  1.0803 -0.7707 -0.6025
 3489TIP3   OH231957   1.232   0.499  12.477  0.3355 -0.2505 -0.2818
 3489TIP3    H131958   1.170   0.571  12.479 -0.9340 -1.1182 -3.4259
 3489TIP3    H231959   1.282   0.508  12.559 -2.6189  1.5783  1.4847
 3490TIP3   OH231960   0.330   2.136  11.113 -0.2004  0.1759  0.9863
 3490TIP3    H131961   0.400   2.197  11.088 -0.1126  0.6276  2.2577
 3490TIP3    H231962   0.302   2.097  11.030 -1.8222  3.5846 -0.2757
 3491TIP3   OH231963   6.270   1.916   9.753 -0.3976  0.4020 -0.4400
 3491TIP3    H131964   6.309   1.993   9.712 -0.7120  0.3022 -0.9352
 3491TIP3    H231965   6.253   1.856   9.680  2.0787 -1.1893  0.1524
 3492TIP3   OH231966   2.830   5.838   2.448 -0.0913  0.2974  0.7742
 3492TIP3    H131967   2.877   5.855   2.366 -0.1938 -0.4163  0.5614
 3492TIP3    H231968   2.742   5.874   2.433  0.2724  1.3238  1.0474
 3493TIP3   OH231969   2.609   7.033  12.310 -0.5401  0.4849 -0.1425
 3493TIP3    H131970   2.552   7.000  12.379 -0.0785  0.9955  0.4929
 3493TIP3    H231971   2.576   7.121  12.291 -2.1168 -0.4748 -2.2204
 3494TIP3   OH231972   0.361   6.768   9.962  0.0442 -0.7114 -0.7203
 3494TIP3    H131973   0.406   6.780   9.879 -0.0451  0.1284 -0.6594
 3494TIP3    H231974   0.420   6.806  10.027  0.0142 -1.1606 -0.4270
 3495TIP3   OH231975   1.371   5.319  11.192  0.2760 -0.2578  0.3981
 3495TIP3    H131976   1.325   5.264  11.256  0.6458 -1.9992 -0.7587
 3495TIP3    H231977   1.402   5.258  11.126  1.3871  1.2848 -0.5813
 3496TIP3   OH231978   2.779   4.879  14.443 -0.1428 -0.2036  0.2793
 3496TIP3    H131979   2.704   4.821  14.431 -1.3614  1.5389 -1.0703
 3496TIP3    H231980   2.780   4.933  14.364  2.8359 -0.4491  0.0502
 3497TIP3   OH231981   3.037   7.218  10.266  0.3125 -0.4927 -0.3293
 3497TIP3    H131982   3.062   7.281  10.199 -2.7594 -1.6245 -2.7742
 3497TIP3    H231983   2.998   7.270  10.336 -0.2386  0.4825 -1.3417
 3498TIP3   OH231984   2.900   3.060  12.457  0.2416  0.0500 -0.7675
 3498TIP3    H131985   2.879   3.149  12.485 -0.5022 -0.9635  2.3138
 3498TIP3    H231986   2.824   3.033  12.406 -0.0467  0.8007 -0.7496
 3499TIP3   OH231987   6.132   5.710   9.764 -0.1966  0.1786  0.5815
 3499TIP3    H131988   6.058   5.763   9.734  0.1633  0.1500 -0.3805
 3499TIP3    H231989   6.200   5.723   9.698  0.9513  0.8040  1.8339
 3500TIP3   OH231990   4.881   1.156  14.334 -0.0156 -0.1723 -0.1261
 3500TIP3    H131991   4.798   1.164  14.287 -0.1108 -0.4096  0.0007
 3500TIP3    H231992   4.901   1.245  14.363 -1.0201 -0.3649  1.2051
 3501TIP3   OH231993   3.969   5.340  13.153  0.4771 -0.0165 -0.0430
 3501TIP3    H131994   3.889   5.372  13.197 -0.3400  0.3600 -1.7167
 3501TIP3    H231995   3.988   5.257  13.195  0.0014  0.5345  1.3250
 3502TIP3   OH231996   3.304   3.325  11.214  0.3430 -0.5449 -0.3480
 3502TIP3    H131997   3.279   3.256  11.276 -2.9441  2.4329  2.0138
 3502TIP3    H231998   3.243   3.315  11.140 -1.1191  0.5450  0.6543
 3503TIP3   OH231999   0.532   5.979  12.518 -0.6387 -0.3244 -0.1503
 3503TIP3    H132000   0.591   5.959  12.445 -1.0666 -1.3537 -0.2295
 3503TIP3    H232001   0.505   6.069  12.502  1.5244  0.4749  0.3349
 3504TIP3   OH232002   3.772   4.634  12.865 -0.0615 -0.2299  0.9136
 3504TIP3    H132003   3.817   4.719  12.864 -1.7574  0.7862 -2.1422
 3504TIP3    H232004   3.794   4.597  12.950  2.8806  2.0986  1.3673
 3505TIP3   OH232005   1.182   4.646  14.860 -0.0748 -0.4410 -0.4284
 3505TIP3    H132006   1.167   4.585  14.932  1.1200  0.3318  0.5187
 3505TIP3    H232007   1.277   4.653  14.853 -0.1810  0.2785 -1.4139
 3506TIP3   OH232008   5.264   7.093  10.613 -0.2613 -0.0981  0.1360
 3506TIP3    H132009   5.182   7.139  10.596 -1.5511 -1.3337  2.5691
 3506TIP3    H232010   5.246   7.001  10.591  0.5098 -0.3645  0.5470
 3507TIP3   OH232011   4.949   2.773   0.842 -0.0583  0.0152 -0.2807
 3507TIP3    H132012   4.897   2.853   0.834 -0.1426  0.0523  0.6053
 3507TIP3    H232013   5.038   2.805   0.861  0.1431 -0.0738 -1.0304
 3508TIP3   OH232014   6.205   6.792   0.165 -0.0751 -0.3805 -0.0606
 3508TIP3    H132015   6.287   6.786   0.117 -0.6524  0.8151 -1.2783
 3508TIP3    H232016   6.147   6.730   0.122 -0.4568  0.3666 -0.6515
 3509TIP3   OH232017   4.210   5.887   9.232  0.4485  0.4030  1.0758
 3509TIP3    H132018   4.137   5.937   9.269  0.1866  0.1129  0.9679
 3509TIP3    H232019   4.287   5.916   9.281  0.7181  2.5959 -0.5448
 3510TIP3   OH232020   6.605   3.323   3.223 -0.2942 -0.6940 -0.1080
 3510TIP3    H132021   6.680   3.329   3.164 -0.5746 -0.6702 -0.4639
 3510TIP3    H232022   6.610   3.402   3.277  0.6409 -1.2891  0.7231
 3511TIP3   OH232023   4.415   0.422  12.046  0.0562  0.1756 -0.4624
 3511TIP3    H132024   4.375   0.507  12.065 -0.2689 -0.3266  1.2437
 3511TIP3    H232025   4.464   0.400  12.126 -0.3980 -1.5373 -0.6073
 3512TIP3   OH232026   1.115   2.554  13.518  0.5081 -0.4139 -1.0755
 3512TIP3    H132027   1.095   2.484  13.581 -1.4476 -0.3844 -1.5947
 3512TIP3    H232028   1.132   2.631  13.573 -0.9282 -0.4490 -0.5159
 3513TIP3   OH232029   4.232   0.263   9.135 -0.5755 -0.3623 -0.1526
 3513TIP3    H132030   4.285   0.250   9.214  1.5746 -0.3434 -1.5209
 3513TIP3    H232031   4.172   0.334   9.158 -0.6082 -0.9443  1.7309
 3514TIP3   OH232032   0.656   4.944  12.377 -0.1804  0.0750  0.9272
 3514TIP3    H132033   0.708   4.920  12.454 -1.8884  0.4493  2.2508
 3514TIP3    H232034   0.592   4.873  12.368  1.5028 -1.2758 -1.7137
 3515TIP3   OH232035   7.062   0.456   1.462  0.4526  0.2548  0.2235
 3515TIP3    H132036   7.026   0.540   1.491 -3.4847 -0.7453 -1.1145
 3515TIP3    H232037   7.068   0.403   1.541  0.4845  0.9972  0.7234
 3516TIP3   OH232038   4.452   0.760  13.828 -0.0017 -0.1983  0.4907
 3516TIP3    H132039   4.361   0.744  13.852 -0.0675  0.3005  0.5781
 3516TIP3    H232040   4.457   0.854  13.813  0.5505 -0.1918  0.6900
 3517TIP3   OH232041   2.596   1.407  11.681  0.0329  0.0448  0.2607
 3517TIP3    H132042   2.607   1.348  11.607 -0.8433 -0.8335  0.8159
 3517TIP3    H232043   2.598   1.495  11.642 -1.0596 -0.4205 -0.8834
 3518TIP3   OH232044   5.307   2.552   4.880  0.1779  0.0276 -0.7289
 3518TIP3    H132045   5.301   2.491   4.953  1.7803  0.3434 -0.2929
 3518TIP3    H232046   5.300   2.639   4.920 -2.2305  0.2108 -1.3560
 3519TIP3   OH232047   4.366   4.959  11.038  1.3034 -0.1269 -0.1489
 3519TIP3    H132048   4.272   4.971  11.021  1.5584  2.0776 -0.2435
 3519TIP3    H232049   4.397   4.906  10.964  0.6548  1.6295 -1.7656
 3520TIP3   OH232050   6.476   5.499  14.510 -0.0225 -0.0319 -0.2077
 3520TIP3    H132051   6.537   5.486  14.583  0.4253  0.9098 -0.3990
 3520TIP3    H232052   6.433   5.582  14.528 -0.6335 -0.2697 -0.5224
 3521TIP3   OH232053   0.809   2.470  11.728  0.4514  0.3225  0.5541
 3521TIP3    H132054   0.822   2.488  11.821  2.9168 -0.8584  0.5205
 3521TIP3    H232055   0.895   2.483  11.689  0.0150 -1.4059 -1.1526
 3522TIP3   OH232056   7.175   5.851   0.445 -0.6344 -0.7296  0.0190
 3522TIP3    H132057   7.103   5.853   0.382  0.1390  0.4353 -0.8537
 3522TIP3    H232058   7.240   5.794   0.405 -0.2232 -0.1436 -0.1515
 3523TIP3   OH232059   5.774   0.780  10.813 -0.5118  0.4706 -0.0167
 3523TIP3    H132060   5.736   0.822  10.736 -1.6820  2.1974  1.4090
 3523TIP3    H232061   5.807   0.853  10.866  1.0852 -0.7240  0.7262
 3524TIP3   OH232062   4.459   4.280  13.565  0.2174  0.1957  0.4560
 3524TIP3    H132063   4.502   4.238  13.490  1.4407  0.7103  0.8383
 3524TIP3    H232064   4.489   4.228  13.640  1.9973  1.8544  0.9734
 3525TIP3   OH232065   5.980   2.518  11.648 -0.4776  0.0254  0.3646
 3525TIP3    H132066   6.025   2.436  11.670  0.1715  0.3694  0.3443
 3525TIP3    H232067   5.999   2.577  11.721 -1.4773 -0.0320  0.6909
 3526TIP3   OH232068   5.044   4.835   9.982 -0.7589 -0.5048  0.8272
 3526TIP3    H132069   5.110   4.785  10.030 -1.0358 -1.4778  0.2260
 3526TIP3    H232070   5.091   4.911   9.947  0.0389 -1.1615  0.4450
 3527TIP3   OH232071   1.714   4.603  13.650 -0.0366 -0.1939 -0.0445
 3527TIP3    H132072   1.790   4.579  13.702 -0.2017 -0.8495 -0.0905
 3527TIP3    H232073   1.688   4.689  13.684  0.7073  0.0303 -0.0204
 3528TIP3   OH232074   5.734   7.169   0.592 -0.1513  0.1994 -0.0223
 3528TIP3    H132075   5.736   7.226   0.515  2.0210  2.1822  1.3574
 3528TIP3    H232076   5.823   7.133   0.596 -0.5680 -0.7577  0.9319
 3529TIP3   OH232077   6.618   7.100  14.196 -0.2598  0.0939 -0.2852
 3529TIP3    H132078   6.539   7.085  14.248  0.1484 -0.2149  0.2550
 3529TIP3    H232079   6.635   7.193  14.204  0.7979 -0.2159  1.6222
 3530TIP3   OH232080   0.702   1.234  10.480 -0.0385 -0.0994  0.5172
 3530TIP3    H132081   0.660   1.236  10.566 -0.6284  1.8994  0.2368
 3530TIP3    H232082   0.714   1.326  10.457  2.3404 -0.5911 -0.5027
 3531TIP3   OH232083   5.643   5.086  14.627  0.2175 -0.6807 -0.3444
 3531TIP3    H132084   5.568   5.108  14.683 -0.6214 -0.2520 -1.6043
 3531TIP3    H232085   5.674   5.002  14.662 -0.4374 -0.5522  0.6023
 3532TIP3   OH232086   3.870   4.411   0.724 -0.0429  0.6682 -0.2313
 3532TIP3    H132087   3.889   4.455   0.641  1.2661 -1.0394 -0.9143
 3532TIP3    H232088   3.812   4.339   0.700  1.4023 -0.6437  0.0595
 3533TIP3   OH232089   5.955   5.188  12.017 -0.3317  0.3099 -0.2456
 3533TIP3    H132090   5.902   5.119  12.056 -0.9338  0.4523 -0.7981
 3533TIP3    H232091   5.891   5.247  11.977  0.2932 -0.5110 -2.6073
 3534TIP3   OH232092   2.813   3.220  10.897 -0.2909  0.0185  0.3697
 3534TIP3    H132093   2.791   3.128  10.913  1.3254 -0.7216 -1.2102
 3534TIP3    H232094   2.863   3.246  10.975 -4.2955  1.0263  2.9019
 3535TIP3   OH232095   6.168   0.953   3.155  0.8745  0.3877  0.4001
 3535TIP3    H132096   6.236   0.894   3.188  1.0933  0.7090  0.5295
 3535TIP3    H232097   6.217   1.028   3.121  0.5417  1.0067  1.2664
 3536TIP3   OH232098   5.707   6.519  13.774  0.3988  0.5330 -0.1722
 3536TIP3    H132099   5.663   6.435  13.768 -0.4799  1.0197 -0.8043
 3536TIP3    H232100   5.788   6.508  13.725 -0.0474  0.2638 -0.8599
 3537TIP3   OH232101   0.594   5.863  13.625  0.1573 -0.2754  0.2204
 3537TIP3    H132102   0.655   5.789  13.616  2.0878  1.2171  0.3016
 3537TIP3    H232103   0.508   5.823  13.636  1.1702 -2.4960  0.4880
 3538TIP3   OH232104   4.197   6.915   4.249 -0.8133  0.2393 -0.2327
 3538TIP3    H132105   4.285   6.896   4.283 -2.0336 -0.1294  3.0529
 3538TIP3    H232106   4.206   6.907   4.154  1.9834 -3.1134  0.1219
 3539TIP3   OH232107   3.817   0.357  12.360  0.7128 -0.3976  0.0983
 3539TIP3    H132108   3.858   0.337  12.444  0.2752  0.2680  0.4828
 3539TIP3    H232109   3.862   0.302  12.297 -0.5040 -2.6637  1.1023
 3540TIP3   OH232110   2.810   2.530  13.223 -0.3865  0.3606 -0.2436
 3540TIP3    H132111   2.812   2.439  13.195 -0.7913  0.1942  0.2427
 3540TIP3    H232112   2.869   2.575  13.164 -2.1821  0.2683 -2.2287
 3541TIP3   OH232113   0.566   0.050  12.553  0.3528  0.4506 -0.2932
 3541TIP3    H132114   0.547  -0.042  12.570 -2.1357  0.9282 -0.0957
 3541TIP3    H232115   0.577   0.056  12.458 -1.1080  0.1753 -0.4970
 3542TIP3   OH232116   2.223   2.439   1.717 -0.5105  0.2671 -0.1558
 3542TIP3    H132117   2.300   2.456   1.661 -0.7897  1.3222 -0.2450
 3542TIP3    H232118   2.195   2.526   1.745 -2.2592 -0.0206 -0.9158
 3543TIP3   OH232119   4.440   6.481   9.813 -0.5428  0.7549 -0.5450
 3543TIP3    H132120   4.396   6.442   9.738 -0.3035  1.1380 -0.8869
 3543TIP3    H232121   4.446   6.409   9.877 -0.5262  0.3610 -0.9834
 3544TIP3   OH232122   4.479   4.454   3.345 -0.3904  0.3144  0.3991
 3544TIP3    H132123   4.573   4.467   3.357 -0.0508 -2.1067  0.8549
 3544TIP3    H232124   4.451   4.404   3.422 -2.1393  1.2374  0.4305
 3545TIP3   OH232125   4.812   5.251   1.970 -0.1146 -0.4181  0.0649
 3545TIP3    H132126   4.881   5.259   1.904 -0.7947 -0.7910 -0.7039
 3545TIP3    H232127   4.842   5.306   2.043  1.0163 -0.6223 -0.2360
 3546TIP3   OH232128   1.076   5.132   9.490  0.0841  0.1490 -0.3449
 3546TIP3    H132129   1.127   5.073   9.545  0.6281  0.4657 -0.5030
 3546TIP3    H232130   1.140   5.195   9.456  0.0233 -0.7845 -2.3763
 3547TIP3   OH232131   0.649   1.419   2.869 -0.4850 -0.2715  0.7745
 3547TIP3    H132132   0.615   1.506   2.847 -0.7830 -0.6620 -0.3502
 3547TIP3    H232133   0.688   1.430   2.956  0.6679  1.3091  0.1063
 3548TIP3   OH232134   7.200   2.713  13.063 -0.2753  0.2849  0.0664
 3548TIP3    H132135   7.171   2.638  13.010 -1.1426  1.4114 -1.1192
 3548TIP3    H232136   7.200   2.681  13.153  1.4249 -1.7684 -0.5751
 3549TIP3   OH232137   1.539   2.996  10.738 -0.2282  0.2766 -0.5631
 3549TIP3    H132138   1.614   2.937  10.723 -1.5359 -1.0388 -2.4311
 3549TIP3    H232139   1.529   3.000  10.833  0.9804 -1.1099 -0.3495
 3550TIP3   OH232140   4.720   0.443  10.394 -0.5087  0.1542 -0.0090
 3550TIP3    H132141   4.681   0.419  10.310  0.5288  1.1568 -0.8075
 3550TIP3    H232142   4.809   0.407  10.391 -0.2056  0.8493  0.3345
 3551TIP3   OH232143   1.899   1.432   3.146  0.2799 -0.5962  0.5834
 3551TIP3    H132144   1.882   1.524   3.123 -0.9590 -0.8453  0.4588
 3551TIP3    H232145   1.818   1.402   3.188  0.5069 -1.7683  0.2185
 3552TIP3   OH232146   3.685   6.902   9.995 -1.0024  0.4508  0.0896
 3552TIP3    H132147   3.705   6.821   9.948 -0.1134  0.9009 -0.3332
 3552TIP3    H232148   3.620   6.876  10.061 -0.4911 -0.6734  0.1743
 3553TIP3   OH232149   5.096   1.276  13.313  0.8779  0.0914  0.2621
 3553TIP3    H132150   5.184   1.247  13.336  1.0604 -0.3309 -0.8618
 3553TIP3    H232151   5.106   1.315  13.226  0.3878  2.3342  1.1515
 3554TIP3   OH232152   4.397   5.640  10.268  0.3474  0.6727  0.3084
 3554TIP3    H132153   4.328   5.614  10.207  0.7917 -0.7500  0.3893
 3554TIP3    H232154   4.389   5.579  10.341  1.7005  0.4840  0.3162
 3555TIP3   OH232155   2.242   1.286   1.349  0.1451 -0.2137 -0.0746
 3555TIP3    H132156   2.252   1.192   1.366 -0.3566 -0.1590  0.5560
 3555TIP3    H232157   2.156   1.294   1.309  0.5228 -0.1112 -0.8733
 3556TIP3   OH232158   5.959   6.544   2.381 -0.0206  0.5595  0.3866
 3556TIP3    H132159   5.927   6.588   2.302 -0.5082  0.7884  0.7045
 3556TIP3    H232160   6.051   6.527   2.363 -0.2041  0.2957 -0.3713
 3557TIP3   OH232161   6.907   3.734  12.359 -0.0935  0.0358  0.4638
 3557TIP3    H132162   6.835   3.731  12.297 -1.8252  0.3188  2.3318
 3557TIP3    H232163   6.983   3.704  12.310 -0.7366  2.7260 -2.5408
 3558TIP3   OH232164   0.553   0.686   0.148 -0.4538 -0.1584 -0.0727
 3558TIP3    H132165   0.600   0.701   0.229  0.7930 -1.5243 -0.4793
 3558TIP3    H232166   0.475   0.636   0.174  0.0430 -0.7692  0.2858
 3559TIP3   OH232167   0.723   3.219   2.958  0.3857  0.9353  0.6093
 3559TIP3    H132168   0.713   3.246   3.049 -1.2867  0.7124  0.5309
 3559TIP3    H232169   0.718   3.124   2.960  0.5087  0.9207  0.3060
 3560TIP3   OH232170   5.422   3.872   4.982 -0.2756  0.2952  0.7107
 3560TIP3    H132171   5.494   3.916   4.936  0.2821  1.0761  2.2642
 3560TIP3    H232172   5.431   3.780   4.957 -0.2432  0.7271 -1.0250
 3561TIP3   OH232173   2.243   0.841  10.276 -0.9538 -0.0591  0.2455
 3561TIP3    H132174   2.307   0.773  10.253 -2.1205 -0.2862 -2.7781
 3561TIP3    H232175   2.245   0.845  10.371  2.0617 -1.4746  0.3507
 3562TIP3   OH232176   2.074   0.204   0.437  0.1958  0.3322  0.2366
 3562TIP3    H132177   2.158   0.246   0.419 -0.0868  0.9114  0.2387
 3562TIP3    H232178   2.046   0.242   0.520  0.8367 -1.3006  1.2412
 3563TIP3   OH232179   7.151   0.441  10.118  0.3601 -0.1736  0.0953
 3563TIP3    H132180   7.174   0.522  10.073 -1.2294 -0.8548 -2.1358
 3563TIP3    H232181   7.195   0.372  10.068  2.1457 -0.7442  2.2837
 3564TIP3   OH232182   4.959   6.768  12.181 -0.0647 -0.2208 -1.1773
 3564TIP3    H132183   4.865   6.753  12.166  0.1090 -1.9020 -0.7284
 3564TIP3    H232184   5.002   6.693  12.140  1.1291  0.7228 -1.6991
 3565TIP3   OH232185   1.402   2.480   0.739  0.1610  0.1788  0.6936
 3565TIP3    H132186   1.342   2.542   0.780  1.3033  1.5354  0.3866
 3565TIP3    H232187   1.389   2.399   0.788  0.7386  1.4440  3.0879
 3566TIP3   OH232188   1.648   3.883   0.931  0.1111 -0.5489  0.0006
 3566TIP3    H132189   1.655   3.851   1.021 -0.7372 -0.1037  0.2326
 3566TIP3    H232190   1.712   3.831   0.883 -0.2515 -1.6277  0.6369
 3567TIP3   OH232191   2.848   0.476   1.094  0.2401 -0.0301 -0.5409
 3567TIP3    H132192   2.809   0.545   1.041  0.6427  1.1974  0.6898
 3567TIP3    H232193   2.786   0.403   1.089 -0.1927  0.4031 -1.8719
 3568TIP3   OH232194   1.694   6.823   3.525 -0.0145 -0.3332 -0.1083
 3568TIP3    H132195   1.727   6.734   3.515 -1.2248 -1.0126  1.4486
 3568TIP3    H232196   1.771   6.876   3.546  0.7544 -0.9494 -1.3165
 3569TIP3   OH232197   5.876   6.851  14.760  0.4738  0.4030 -0.5747
 3569TIP3    H132198   5.790   6.887  14.782 -0.8701 -1.8313 -1.8605
 3569TIP3    H232199   5.883   6.770  14.810  1.9546  0.6193 -0.3585
 3570TIP3   OH232200   2.866   5.737  14.323  0.0832  0.0734 -0.3925
 3570TIP3    H132201   2.914   5.813  14.354  0.2107  0.2700 -1.0564
 3570TIP3    H232202   2.862   5.748  14.228 -0.4292 -0.4354 -0.4349
 3571TIP3   OH232203   4.263   2.951  14.479 -0.0012  0.3194  0.5547
 3571TIP3    H132204   4.174   2.979  14.457  0.1261 -0.4732 -1.1036
 3571TIP3    H232205   4.319   2.998  14.418  0.6737  0.3531  1.1848
 3572TIP3   OH232206   1.209   5.234  13.163  0.5278  0.1213  0.1474
 3572TIP3    H132207   1.242   5.317  13.199  1.9701 -0.2431 -0.3033
 3572TIP3    H232208   1.160   5.260  13.085  0.1544  0.6227  0.5375
 3573TIP3   OH232209   6.336   5.135  13.166  0.3092 -0.0106  0.2331
 3573TIP3    H132210   6.391   5.067  13.129  0.7699  0.2703  0.3865
 3573TIP3    H232211   6.387   5.215  13.156  0.3538  0.1057  1.2722
 3574TIP3   OH232212   6.780   0.208   0.533 -0.2053  0.0032  0.4844
 3574TIP3    H132213   6.755   0.148   0.463 -0.6468  0.0549  0.5923
 3574TIP3    H232214   6.836   0.272   0.491 -0.1083 -0.2189  0.2702
 3575TIP3   OH232215   0.936   5.082  11.664 -0.1986  1.0046 -0.3257
 3575TIP3    H132216   0.977   5.031  11.733 -2.7473 -0.2286  0.4062
 3575TIP3    H232217   0.958   5.035  11.583  0.0271  0.5372  0.0026
 3576TIP3   OH232218   3.325   1.637   4.559  0.5767  0.4056  0.3650
 3576TIP3    H132219   3.242   1.676   4.586  0.8150  0.7927  0.5308
 3576TIP3    H232220   3.323   1.549   4.598  0.3037  0.4612  0.4805
 3577TIP3   OH232221   0.704   5.035   0.507  0.0045 -0.2996 -0.3222
 3577TIP3    H132222   0.747   4.950   0.514  0.3267 -0.2927 -1.9215
 3577TIP3    H232223   0.617   5.016   0.473 -0.9480 -0.2049  1.8650
 3578TIP3   OH232224   6.791   2.927  12.633  0.2633  0.0487 -0.1375
 3578TIP3    H132225   6.777   2.836  12.608 -1.1183  0.1925  0.0594
 3578TIP3    H232226   6.854   2.922  12.705 -3.0590 -1.2023  3.0174
 3579TIP3   OH232227   2.581   2.520  11.265 -0.1033 -0.1743  0.6029
 3579TIP3    H132228   2.522   2.456  11.305 -2.1775  1.4226  0.3004
 3579TIP3    H232229   2.617   2.568  11.339  0.0800 -0.5492  0.7588
 3580TIP3   OH232230   6.357   6.567  10.325  0.6821  0.0858 -0.4709
 3580TIP3    H132231   6.346   6.473  10.336  3.0610 -0.0522  1.6691
 3580TIP3    H232232   6.273   6.605  10.349  0.3957 -1.3675  0.9562
 3581TIP3   OH232233   5.632   5.797  15.037  0.2563 -0.1510  0.4976
 3581TIP3    H132234   5.716   5.753  15.050  0.8905  1.2451  1.4628
 3581TIP3    H232235   5.648   5.888  15.065 -1.0204  0.6633 -1.2333
 3582TIP3   OH232236   1.820   6.122   2.087  0.5563 -0.1886  0.4787
 3582TIP3    H132237   1.788   6.065   2.018 -3.3456  0.6391  1.3672
 3582TIP3    H232238   1.841   6.063   2.159 -1.1464 -0.7157  0.5782
 3583TIP3   OH232239   1.112   6.759   1.793 -0.6741 -0.1602 -0.1138
 3583TIP3    H132240   1.186   6.715   1.834 -0.4454  0.7524  0.4864
 3583TIP3    H232241   1.126   6.745   1.699  0.1245 -0.2199  0.0017
 3584TIP3   OH232242   3.010   5.396   0.063  0.2376  0.1133 -0.1899
 3584TIP3    H132243   3.079   5.434   0.007  1.2028 -1.1336  0.1107
 3584TIP3    H232244   2.995   5.462   0.130  1.7596  0.0740  0.2253
 3585TIP3   OH232245   5.875   6.375  14.303 -0.8121 -0.3482 -0.0551
 3585TIP3    H132246   5.822   6.418  14.235 -1.4867 -0.9714  0.0607
 3585TIP3    H232247   5.966   6.393  14.277 -1.0659  0.6549 -0.3140
 3586TIP3   OH232248   1.237   4.167  11.689  0.3753 -0.2179 -0.1976
 3586TIP3    H132249   1.245   4.182  11.594  0.5874  1.2119  0.0141
 3586TIP3    H232250   1.324   4.138  11.716  1.0524  1.7271 -0.0978
 3587TIP3   OH232251   4.509   2.332  11.409  0.4014  0.3359 -0.2884
 3587TIP3    H132252   4.472   2.420  11.412  2.4331  1.2932 -1.3971
 3587TIP3    H232253   4.542   2.317  11.498 -1.1355  0.1121  0.2677
 3588TIP3   OH232254   5.583   1.851  10.658  0.2152 -0.2794  0.5254
 3588TIP3    H132255   5.533   1.769  10.649  0.8928 -0.6391 -0.0485
 3588TIP3    H232256   5.520   1.913  10.694 -0.6295 -0.7487 -0.1017
 3589TIP3   OH232257   3.624   5.744   2.394  0.3186  0.5011  0.2127
 3589TIP3    H132258   3.596   5.831   2.423 -2.9333 -0.3882  0.0919
 3589TIP3    H232259   3.576   5.683   2.450 -1.5806 -1.2142 -3.0050
 3590TIP3   OH232260   0.637   4.082   0.524  0.6058 -0.0532 -0.5788
 3590TIP3    H132261   0.549   4.097   0.488  0.7298  0.6453 -0.6143
 3590TIP3    H232262   0.696   4.108   0.453  0.8476  0.8950 -0.0561
 3591TIP3   OH232263   3.496   4.165   9.638 -0.4172 -0.8955 -0.0258
 3591TIP3    H132264   3.572   4.141   9.691 -0.4806 -1.0395  0.0009
 3591TIP3    H232265   3.481   4.257   9.658  0.3660 -0.5886 -0.7981
 3592TIP3   OH232266   5.956   0.590  12.801  0.1219  0.7354  0.5536
 3592TIP3    H132267   6.033   0.545  12.836  1.4102  1.6499 -0.9975
 3592TIP3    H232268   5.937   0.543  12.720 -0.3821  1.1083  0.4570
 3593TIP3   OH232269   6.023   2.674  12.972  0.2086 -0.0288 -0.0372
 3593TIP3    H132270   6.090   2.664  13.039  0.3759  0.2618 -0.1616
 3593TIP3    H232271   6.072   2.688  12.891  0.0913 -2.3063 -0.5923
 3594TIP3   OH232272   6.479   2.100  12.097 -0.3664 -0.1899 -0.4362
 3594TIP3    H132273   6.462   2.104  12.191 -0.4421 -0.8803 -0.4173
 3594TIP3    H232274   6.436   2.020  12.068 -1.6274  0.7745 -1.3348
 3595TIP3   OH232275   2.904   0.115  10.781  0.7531  0.3490  0.0923
 3595TIP3    H132276   2.860   0.030  10.773 -0.3527  0.7776  1.1997
 3595TIP3    H232277   2.832   0.177  10.794  1.6974  0.8750  3.7911
 3596TIP3   OH232278   2.712   0.314  10.885  0.2607  0.2848  0.1993
 3596TIP3    H132279   2.710   0.274  10.972 -2.7159 -2.2758 -0.8561
 3596TIP3    H232280   2.672   0.400  10.897 -1.8678 -0.7521  1.1639
 3597TIP3   OH232281   6.541   4.475  13.678  0.4074  0.2711  0.4733
 3597TIP3    H132282   6.465   4.520  13.714  0.6416  0.1408  1.1480
 3597TIP3    H232283   6.519   4.382  13.686 -0.3423  0.2328 -1.4813
 3598TIP3   OH232284   1.156   3.474  10.134  0.6436 -0.1308  0.5889
 3598TIP3    H132285   1.174   3.441  10.222  1.3357 -0.1533  0.4400
 3598TIP3    H232286   1.210   3.552  10.126  2.0784 -1.1951 -0.5088
 3599TIP3   OH232287   6.879   5.065  13.863 -1.0345  0.3076  0.3248
 3599TIP3    H132288   6.907   5.077  13.954 -2.7841  0.3691  0.8866
 3599TIP3    H232289   6.857   4.972  13.856 -1.2995  0.3859  0.0925
 3600TIP3   OH232290   2.115   6.986  10.118  0.2343 -0.3141 -1.0394
 3600TIP3    H132291   2.140   7.015  10.206  0.2008  1.0717 -1.4703
 3600TIP3    H232292   2.021   6.970  10.124  0.3631 -0.9778 -0.6371
 3601TIP3   OH232293   1.035   5.712  12.684  0.0113 -0.1775  0.5681
 3601TIP3    H132294   1.011   5.647  12.618  1.9825  0.1159 -0.5266
 3601TIP3    H232295   1.085   5.662  12.748  1.1625  0.1376 -0.0554
 3602TIP3   OH232296   1.302   6.804  14.490 -0.2962  0.2999 -0.0920
 3602TIP3    H132297   1.294   6.810  14.395  0.5833 -0.7153 -0.2537
 3602TIP3    H232298   1.213   6.815  14.523 -1.1893 -2.6245 -1.2450
 3603TIP3   OH232299   5.173   6.843   1.092  0.5860  0.1750 -0.3251
 3603TIP3    H132300   5.201   6.771   1.035  0.7471  0.5189 -0.6836
 3603TIP3    H232301   5.161   6.802   1.178  0.0677 -0.4134 -0.6612
 3604TIP3   OH232302   0.567   4.286  15.107  0.3324  0.0902  1.0786
 3604TIP3    H132303   0.539   4.242  15.188  0.5597  0.0901  1.1598
 3604TIP3    H232304   0.641   4.233  15.076 -1.9293 -2.0809 -1.1048
 3605TIP3   OH232305   2.406   4.632  14.646  0.0281 -0.1081 -0.1986
 3605TIP3    H132306   2.483   4.678  14.679  0.4983 -0.4356 -0.8245
 3605TIP3    H232307   2.359   4.604  14.724  0.5243  0.1272  0.1885
 3606TIP3   OH232308   5.437   0.441  10.355 -0.5146 -0.6663  0.7183
 3606TIP3    H132309   5.517   0.400  10.323 -0.8317 -1.3652  0.7988
 3606TIP3    H232310   5.462   0.484  10.436  0.0145  0.0474  0.1919
 3607TIP3   OH232311   3.597   1.506  10.502  0.0555 -0.0516 -0.2580
 3607TIP3    H132312   3.513   1.536  10.466  0.3127  0.2785 -0.5886
 3607TIP3    H232313   3.648   1.586  10.511  0.6913 -0.3670 -0.9817
 3608TIP3   OH232314   1.693   4.855  14.025 -0.1403 -0.4148  0.8061
 3608TIP3    H132315   1.675   4.853  14.119  0.1956  0.3847  0.8973
 3608TIP3    H232316   1.755   4.927  14.014 -0.1030 -0.5590 -0.0187
 3609TIP3   OH232317   6.198   0.428   5.360 -0.1448 -0.3409  0.0902
 3609TIP3    H132318   6.262   0.498   5.375  0.0234 -0.9349  2.7098
 3609TIP3    H232319   6.248   0.357   5.320  0.0429  0.3974 -1.0337
 3610TIP3   OH232320   6.346   0.313   9.747 -0.2040  0.1341 -0.0620
 3610TIP3    H132321   6.340   0.391   9.692 -0.6330  0.3996  0.3552
 3610TIP3    H232322   6.332   0.240   9.687 -0.1166  0.3944 -0.3993
 3611TIP3   OH232323   0.797   1.633   2.391 -0.6292 -0.1676 -0.0095
 3611TIP3    H132324   0.763   1.561   2.445 -0.4272  0.4209  0.9218
 3611TIP3    H232325   0.883   1.652   2.429 -0.9631  1.0109  0.1674
 3612TIP3   OH232326   1.063   2.710  11.988  0.0264  0.2629 -0.4708
 3612TIP3    H132327   1.039   2.788  12.037 -0.4484 -0.2552  0.1447
 3612TIP3    H232328   1.158   2.703  11.999 -0.2374 -0.7649  1.8517
 3613TIP3   OH232329   3.725   4.599   2.964  1.0914 -0.4530  0.2610
 3613TIP3    H132330   3.816   4.606   2.992  0.8678  1.2602  0.6680
 3613TIP3    H232331   3.727   4.538   2.890  2.3760 -1.3807  1.0208
 3614TIP3   OH232332   6.234   2.895  10.195  0.1763  0.3520  0.0408
 3614TIP3    H132333   6.256   2.892  10.102  0.9253 -0.3025  0.2315
 3614TIP3    H232334   6.141   2.870  10.198  0.4523 -0.7608 -0.4285
 3615TIP3   OH232335   1.817   2.179  11.299  0.1078 -0.0545 -0.0346
 3615TIP3    H132336   1.906   2.205  11.322 -1.3140  2.8384  2.9274
 3615TIP3    H232337   1.788   2.124  11.372 -1.3176  1.1013  0.3071
 3616TIP3   OH232338   3.462   2.490  10.838  0.0667  0.1516 -0.0607
 3616TIP3    H132339   3.536   2.447  10.796  0.1046  0.0198  0.1384
 3616TIP3    H232340   3.406   2.418  10.868  0.8796  0.1638  1.6468
 3617TIP3   OH232341   2.848   2.944  13.537  0.2139 -0.4907  0.2701
 3617TIP3    H132342   2.867   3.025  13.585 -1.2276 -0.3423  0.6420
 3617TIP3    H232343   2.849   2.876  13.604 -0.4868 -0.4788  0.3039
 3618TIP3   OH232344   0.708   5.260  10.669 -0.3799 -0.1104 -0.1584
 3618TIP3    H132345   0.639   5.249  10.604 -0.3809  1.5767 -0.4942
 3618TIP3    H232346   0.787   5.225  10.626 -0.1748  1.8537 -1.5264
 3619TIP3   OH232347   0.662   1.008   1.874 -0.2525 -0.0561  0.0032
 3619TIP3    H132348   0.587   0.967   1.917 -1.2829  0.3405 -1.3487
 3619TIP3    H232349   0.636   1.099   1.861 -0.3449 -0.3400 -2.1673
 3620TIP3   OH232350   5.143   5.083  15.290  0.7477 -0.4050  0.1930
 3620TIP3    H132351   5.172   5.123  15.207 -1.1477  1.3189  0.2838
 3620TIP3    H232352   5.049   5.069  15.278  0.4093 -0.0094  2.0841
 3621TIP3   OH232353   3.207   2.796  12.891 -0.5681  0.1379  0.2770
 3621TIP3    H132354   3.259   2.850  12.832 -0.9359 -0.7250 -0.8679
 3621TIP3    H232355   3.160   2.736  12.834 -1.0496 -0.6339  1.4427
 3622TIP3   OH232356   1.968   1.690  11.281  0.0377  0.1194 -0.2937
 3622TIP3    H132357   1.987   1.624  11.348 -2.5109  0.5665  0.9766
 3622TIP3    H232358   2.027   1.763  11.302 -0.0548 -0.1263  0.9018
 3623TIP3   OH232359   0.429   3.555   1.166 -0.3844  0.5510 -0.1590
 3623TIP3    H132360   0.484   3.528   1.093 -0.1221 -1.3445  0.6907
 3623TIP3    H232361   0.490   3.592   1.230 -0.5444  1.6577 -0.6246
 3624TIP3   OH232362   5.939   4.951   5.042 -0.3571  0.8716 -0.0982
 3624TIP3    H132363   5.902   5.031   5.004 -0.7812  0.0632 -1.4680
 3624TIP3    H232364   5.880   4.881   5.013 -0.1277  0.0876  1.2715
 3625TIP3   OH232365   7.071   4.559  11.196 -0.3740 -1.0163 -0.7451
 3625TIP3    H132366   6.992   4.553  11.250 -0.4284 -0.9882 -0.8196
 3625TIP3    H232367   7.062   4.643  11.151  1.0786  0.3464  1.3526
 3626TIP3   OH232368   4.068   3.607  13.378 -0.2776 -0.3177  0.5094
 3626TIP3    H132369   4.029   3.591  13.464 -0.3832 -0.0480  0.5155
 3626TIP3    H232370   4.016   3.680  13.343  1.2953  1.2081  1.2247
 3627TIP3   OH232371   3.995   0.917   2.046  0.0645 -0.7068 -0.3674
 3627TIP3    H132372   3.962   0.919   2.136 -0.5972 -0.2279 -0.6179
 3627TIP3    H232373   4.072   0.859   2.050  0.7101  0.1800  0.7328
 3628TIP3   OH232374   2.740   3.374  12.909  0.2674 -0.1253  0.1079
 3628TIP3    H132375   2.823   3.399  12.949 -0.3163  0.2856  1.1027
 3628TIP3    H232376   2.680   3.362  12.983 -0.5215 -0.5643 -0.5812
 3629TIP3   OH232377   2.184   6.807   4.903 -0.0793 -0.4959  0.5547
 3629TIP3    H132378   2.155   6.876   4.843  0.1059 -0.8287  0.0739
 3629TIP3    H232379   2.121   6.809   4.975 -0.8311 -0.6879 -0.0912
 3630TIP3   OH232380   3.317   4.656  15.341  0.1082 -0.2084  0.1775
 3630TIP3    H132381   3.284   4.592  15.277 -1.3425 -0.3587  1.0325
 3630TIP3    H232382   3.281   4.626  15.425  0.8604  0.7534  0.8618
 3631TIP3   OH232383   1.569   6.092  10.246  0.5241  0.7111 -0.2454
 3631TIP3    H132384   1.494   6.135  10.287 -1.3536 -0.4452 -2.2411
 3631TIP3    H232385   1.603   6.157  10.184  0.7619  1.0093  0.1962
 3632TIP3   OH232386   4.538   2.563   2.419 -0.0534  0.5106  0.2088
 3632TIP3    H132387   4.534   2.634   2.355 -0.0058  0.7129  0.4325
 3632TIP3    H232388   4.606   2.504   2.385 -0.9200 -0.0583 -0.6219
 3633TIP3   OH232389   3.651   0.717  12.721 -0.7158  0.3721 -0.4434
 3633TIP3    H132390   3.621   0.748  12.636 -0.4502  0.5654 -0.4682
 3633TIP3    H232391   3.646   0.622  12.716 -1.9734  0.4025 -0.2121
 3634TIP3   OH232392   6.114   7.039  10.632 -0.3905 -0.3697 -0.1687
 3634TIP3    H132393   6.089   7.104  10.698 -0.0660 -0.7166  0.2939
 3634TIP3    H232394   6.203   7.014  10.655 -0.3521 -0.6507 -0.6129
 3635TIP3   OH232395   4.546   2.603  13.014  0.5812 -0.0930  0.9737
 3635TIP3    H132396   4.607   2.539  13.051 -0.7742 -1.1121  1.5050
 3635TIP3    H232397   4.498   2.555  12.947  1.0780  0.9981 -0.2098
 3636TIP3   OH232398   3.456   6.810   3.303 -0.1295  0.1507  0.3321
 3636TIP3    H132399   3.542   6.772   3.318  1.4148  2.1314 -2.6099
 3636TIP3    H232400   3.406   6.738   3.263  1.0179 -0.3209 -0.3108
 3637TIP3   OH232401   4.523   5.526  14.880 -0.1966 -0.1835  0.1303
 3637TIP3    H132402   4.468   5.464  14.833 -1.8691  0.7272  0.7914
 3637TIP3    H232403   4.525   5.604  14.824 -2.3068  0.9537  1.4811
 3638TIP3   OH232404   4.991   0.249   9.305 -0.0966  0.7948 -0.7028
 3638TIP3    H132405   4.897   0.236   9.308  0.1382 -0.9115 -0.0981
 3638TIP3    H232406   5.024   0.177   9.251  1.0896 -0.1609  1.1989
 3639TIP3   OH232407   1.486   0.533  10.324  0.1179  0.0506 -0.2164
 3639TIP3    H132408   1.437   0.575  10.396 -0.1502 -0.0686 -0.3292
 3639TIP3    H232409   1.555   0.596  10.303 -0.9303  0.9336 -1.1045
 3640TIP3   OH232410   4.550   0.120  12.145 -0.5059 -0.8807 -0.1192
 3640TIP3    H132411   4.540   0.040  12.093  0.1411 -2.6357  2.2236
 3640TIP3    H232412   4.630   0.104  12.197 -0.5639  1.1421  0.6876
 3641TIP3   OH232413   4.427   4.669   0.927 -0.6570 -0.7330 -0.4632
 3641TIP3    H132414   4.436   4.587   0.975 -1.8640 -1.3843 -1.3078
 3641TIP3    H232415   4.334   4.675   0.906 -0.3502  0.0912 -1.7253
 3642TIP3   OH232416   2.923   7.052  15.145  0.2324  0.3525  0.3239
 3642TIP3    H132417   3.015   7.029  15.159  0.2314 -0.1293 -0.3755
 3642TIP3    H232418   2.886   7.060  15.233  0.5930 -0.9086  0.6131
 3643TIP3   OH232419   1.650   4.880  15.156  0.0048  0.5629 -0.1735
 3643TIP3    H132420   1.687   4.926  15.231 -0.5050  0.6460  0.0321
 3643TIP3    H232421   1.668   4.937  15.081 -0.7481  1.1684  0.1015
 3644TIP3   OH232422   0.246   2.147  13.242  0.0945 -0.0476 -0.3037
 3644TIP3    H132423   0.223   2.125  13.151  0.3014 -2.1177  0.0936
 3644TIP3    H232424   0.328   2.195  13.235 -0.5260  0.9305 -1.2621
 3645TIP3   OH232425   0.410   3.901   9.825 -0.5351 -0.5752 -0.8558
 3645TIP3    H132426   0.425   3.925   9.733 -1.0925  2.7371 -0.2071
 3645TIP3    H232427   0.498   3.891   9.862 -0.1595  1.6980 -0.9864
 3646TIP3   OH232428   4.625   2.744  11.340 -0.3445  0.2994 -0.2244
 3646TIP3    H132429   4.672   2.756  11.423 -1.1542  0.1503  0.2710
 3646TIP3    H232430   4.677   2.680  11.292 -0.4223 -0.4219  0.6259
 3647TIP3   OH232431   0.396   6.458  10.114 -0.1141  0.5823 -0.3995
 3647TIP3    H132432   0.426   6.524  10.053  0.2505 -0.6119 -1.5602
 3647TIP3    H232433   0.361   6.507  10.188  2.8218  2.0750  0.1282
 3648TIP3   OH232434   1.114   4.497  11.940 -0.0037  0.5565 -0.1353
 3648TIP3    H132435   1.038   4.525  11.992 -1.2541 -1.0754 -1.0132
 3648TIP3    H232436   1.164   4.442  12.000 -0.4082  0.2708 -0.0513
 3649TIP3   OH232437   6.988   1.146  11.456  0.6335  0.6274 -0.3142
 3649TIP3    H132438   6.944   1.093  11.390  1.6735 -0.4886 -0.1523
 3649TIP3    H232439   6.922   1.159  11.524  0.6384 -1.4668  0.1809
 3650TIP3   OH232440   4.936   3.074  10.509 -0.0409  0.5663 -0.3430
 3650TIP3    H132441   4.882   3.099  10.584  0.0678  0.6175 -0.2813
 3650TIP3    H232442   4.991   3.004  10.542 -0.6517 -0.0673 -0.6343
 3651TIP3   OH232443   7.107   4.603  10.126  0.1263  0.4998 -0.5078
 3651TIP3    H132444   7.096   4.547  10.049  0.0906  1.7182 -1.4206
 3651TIP3    H232445   7.167   4.555  10.183  0.0731 -0.4637 -1.2413
 3652TIP3   OH232446   3.789   1.105  11.486 -0.0955  0.5176 -0.2556
 3652TIP3    H132447   3.708   1.056  11.469 -0.0658  0.1414  0.6550
 3652TIP3    H232448   3.857   1.057  11.438 -0.2324  0.2304 -0.1647
 3653TIP3   OH232449   6.644   2.374  10.544 -0.1580 -0.2815 -0.1666
 3653TIP3    H132450   6.698   2.389  10.467  0.5212  0.1386  0.3793
 3653TIP3    H232451   6.663   2.447  10.602 -1.5644  0.0495 -0.0832
 3654TIP3   OH232452   2.201   0.653  12.259  0.5411 -0.5267 -0.8054
 3654TIP3    H132453   2.165   0.583  12.204 -0.4603 -1.3730  0.8322
 3654TIP3    H232454   2.293   0.628  12.271  0.2573 -1.4673 -0.4443
 3655TIP3   OH232455   0.487   3.013   9.928  0.1895 -0.3466  0.5400
 3655TIP3    H132456   0.562   3.025   9.869 -0.3748  2.4867  0.2523
 3655TIP3    H232457   0.411   3.010   9.870 -0.1217 -0.7351  0.9609
 3656TIP3   OH232458   4.135   2.254  13.245 -0.3068  0.0808  0.4654
 3656TIP3    H132459   4.218   2.239  13.199 -0.6829 -0.9910  0.0806
 3656TIP3    H232460   4.132   2.348  13.260  1.2944  0.0612  1.0997
 3657TIP3   OH232461   2.501   2.924  10.491 -0.1337  0.4899 -0.0565
 3657TIP3    H132462   2.413   2.886  10.495 -0.1188  0.5618  1.7404
 3657TIP3    H232463   2.525   2.938  10.582  1.1374  1.9265 -0.5803
 3658TIP3   OH232464   6.234   6.479   1.992 -0.0346  0.2269  0.0770
 3658TIP3    H132465   6.307   6.529   2.028 -0.8322  0.5707  1.2548
 3658TIP3    H232466   6.262   6.387   1.998  0.4397  0.3770  0.1830
 3659TIP3   OH232467   4.145   5.932  15.089  0.2800 -0.9791  0.2016
 3659TIP3    H132468   4.054   5.913  15.066 -0.1468 -0.1831  1.1739
 3659TIP3    H232469   4.190   5.849  15.077 -0.2544 -1.0312 -1.7562
 3660TIP3   OH232470   0.866   0.926  14.513  0.8807  0.0627  0.2935
 3660TIP3    H132471   0.938   0.924  14.576 -0.0385 -0.6844  1.3606
 3660TIP3    H232472   0.797   0.977  14.555 -0.1244 -1.2751  0.3651
 3661TIP3   OH232473   4.793   0.407  11.005 -0.2203  0.5970  0.0384
 3661TIP3    H132474   4.852   0.350  11.054  0.1046  1.7703  1.0664
 3661TIP3    H232475   4.823   0.400  10.914  0.0954 -0.5022  0.2154
 3662TIP3   OH232476   2.638   1.528  11.024 -0.0194 -0.1611  0.0034
 3662TIP3    H132477   2.607   1.465  10.959 -0.3023  1.2646 -1.3037
 3662TIP3    H232478   2.719   1.563  10.987  0.2660  0.0664  0.8278
 3663TIP3   OH232479   4.552   1.100  12.937 -0.3712  0.2306 -0.0117
 3663TIP3    H132480   4.524   1.189  12.958 -1.0052 -0.1691  0.9243
 3663TIP3    H232481   4.590   1.066  13.018  0.9467  0.0289 -0.6854
 3664TIP3   OH232482   5.098   3.864  14.450  1.3481  0.5047 -0.0148
 3664TIP3    H132483   5.191   3.880  14.469  2.4351 -4.8115  0.8961
 3664TIP3    H232484   5.067   3.812  14.525 -0.8394 -2.0016 -2.4121
 3665TIP3   OH232485   7.168   0.226  10.849  0.2265 -0.3565  0.8750
 3665TIP3    H132486   7.196   0.165  10.781 -0.2205 -0.7194  1.0145
 3665TIP3    H232487   7.106   0.176  10.902 -2.0368  0.9347 -0.4087
 3666TIP3   OH232488   4.682   1.821   0.107  0.7197  0.1272  0.3722
 3666TIP3    H132489   4.692   1.913   0.130 -0.5056 -0.1387  2.1868
 3666TIP3    H232490   4.750   1.776   0.157  1.0582 -0.0219 -0.2053
 3667TIP3   OH232491   0.230   6.086  13.379  0.4091 -0.2368  0.1532
 3667TIP3    H132492   0.250   5.997  13.350  1.0658 -0.0477  0.0090
 3667TIP3    H232493   0.311   6.117  13.419  0.4381  0.5868 -0.5213
 3668TIP3   OH232494   2.082   1.652   3.392  0.1449 -0.7077 -0.3963
 3668TIP3    H132495   2.073   1.713   3.319  0.3218  1.5645  1.3584
 3668TIP3    H232496   1.997   1.609   3.399 -0.2112 -0.1697 -1.2519
 3669TIP3   OH232497   2.370   2.561  13.201 -0.7565 -0.5345 -0.1776
 3669TIP3    H132498   2.434   2.544  13.270 -0.6689 -0.6885 -0.2971
 3669TIP3    H232499   2.413   2.626  13.145 -0.9269 -0.2251  0.0504
 3670TIP3   OH232500   0.779   5.970  14.632  0.0956 -0.3773 -0.0621
 3670TIP3    H132501   0.751   5.938  14.546 -0.7102 -1.5541  0.6167
 3670TIP3    H232502   0.784   6.065  14.622 -2.2926 -0.2849 -0.7674
 3671TIP3   OH232503   6.142   4.284  10.795 -0.0314  0.1209 -0.2628
 3671TIP3    H132504   6.083   4.212  10.773  1.0511 -0.5473 -1.0406
 3671TIP3    H232505   6.228   4.243  10.805  0.4935  1.2155 -0.1324
 3672TIP3   OH232506   3.361   2.718  11.814  0.0562  0.2020  0.2534
 3672TIP3    H132507   3.345   2.803  11.855  1.0201 -0.4087  2.0197
 3672TIP3    H232508   3.275   2.679  11.804 -0.2393  0.4779  1.5393
 3673TIP3   OH232509   6.002   2.357  11.910  0.1078 -0.1060  0.2961
 3673TIP3    H132510   6.014   2.451  11.898  0.6230  0.4368  3.9729
 3673TIP3    H232511   5.945   2.350  11.987  0.8721 -2.7910  0.7096
 3674TIP3   OH232512   2.489   4.298  13.897 -0.0493 -0.0974 -0.2090
 3674TIP3    H132513   2.569   4.275  13.851 -0.9410 -0.4620 -1.6388
 3674TIP3    H232514   2.427   4.228  13.875 -0.8772  0.3675  0.5551
 3675TIP3   OH232515   1.571   6.654  13.449  0.2136 -0.3816  0.4740
 3675TIP3    H132516   1.628   6.711  13.500  0.1801  0.0355  0.0479
 3675TIP3    H232517   1.573   6.570  13.496  1.2301 -0.3988  0.4190
 3676TIP3   OH232518   0.367   2.433   0.885 -0.4444 -1.0075 -0.4198
 3676TIP3    H132519   0.312   2.473   0.818  0.0704  0.9452  0.2510
 3676TIP3    H232520   0.316   2.441   0.966  0.4773  0.2251  0.0841
 3677TIP3   OH232521   5.178   3.301  14.571  0.0878 -0.0347  0.6965
 3677TIP3    H132522   5.097   3.251  14.566 -0.7135  1.2877 -0.2535
 3677TIP3    H232523   5.194   3.331  14.481  0.8695  0.8782  1.1165
 3678TIP3   OH232524   6.807   3.718   0.322  0.1152  0.1858  0.9435
 3678TIP3    H132525   6.726   3.767   0.329  1.0590  1.6715  1.9251
 3678TIP3    H232526   6.782   3.627   0.341 -1.3613  0.5461  0.8217
 3679TIP3   OH232527   0.247   2.373   1.122 -0.0216 -0.4790  0.0321
 3679TIP3    H132528   0.187   2.403   1.190 -1.3305  0.6569 -1.5263
 3679TIP3    H232529   0.210   2.290   1.092 -0.6042 -0.0002 -0.6184
 3680TIP3   OH232530   0.672   4.027   1.857  0.1121 -0.3561 -0.0264
 3680TIP3    H132531   0.738   3.964   1.829  0.8932  0.1088  0.7095
 3680TIP3    H232532   0.721   4.107   1.877 -0.7466  0.2071 -0.0690
 3681TIP3   OH232533   1.990   3.523  10.724 -0.5105 -0.2478  0.1087
 3681TIP3    H132534   2.069   3.494  10.678 -0.3432 -0.7701  0.7155
 3681TIP3    H232535   2.021   3.552  10.810 -0.7141  1.4599 -0.3543
 3682TIP3   OH232536   5.236   5.109  12.608 -0.1634 -0.4338  0.2624
 3682TIP3    H132537   5.204   5.098  12.697  0.0572 -2.4386  0.1259
 3682TIP3    H232538   5.306   5.045  12.599 -2.5528 -2.9293 -2.4569
 3683TIP3   OH232539   5.114   2.926   2.081  0.1808  0.0797  0.1122
 3683TIP3    H132540   5.048   2.985   2.118 -0.6634 -0.7018 -0.1099
 3683TIP3    H232541   5.064   2.869   2.021  1.3430  0.6921 -1.5166
 3684TIP3   OH232542   5.683   0.577  12.626  0.3168 -0.2417  0.1377
 3684TIP3    H132543   5.622   0.587  12.552  0.9354  0.0662 -0.3372
 3684TIP3    H232544   5.652   0.641  12.691  0.5202  0.3873 -0.3693
 3685TIP3   OH232545   1.840   0.359  10.067 -0.2737 -0.0698 -0.0638
 3685TIP3    H132546   1.745   0.356  10.052 -0.3216 -1.8857  0.4222
 3685TIP3    H232547   1.877   0.307   9.996  0.3312  0.2745 -0.0060
 3686TIP3   OH232548   5.907   3.958  14.091  0.1108  0.1201  0.7634
 3686TIP3    H132549   5.818   3.958  14.125  0.4909  0.0495  1.7884
 3686TIP3    H232550   5.959   4.002  14.158  0.8900 -0.0596  0.2983
 3687TIP3   OH232551   0.783   1.457   1.066 -0.3743  0.0122  0.3174
 3687TIP3    H132552   0.840   1.407   1.125  0.5565  0.1571 -0.4320
 3687TIP3    H232553   0.695   1.425   1.084  0.2318 -2.2906 -0.4760
 3688TIP3   OH232554   4.198   1.020   1.277 -0.3908  0.3764  0.5176
 3688TIP3    H132555   4.246   0.966   1.338  0.0911  1.4548  1.1166
 3688TIP3    H232556   4.107   1.014   1.306 -0.5072 -0.8737 -0.0236
 3689TIP3   OH232557   1.798   5.683  13.385  0.0795 -0.7547 -0.2286
 3689TIP3    H132558   1.879   5.634  13.369  0.0433 -1.2813  1.0978
 3689TIP3    H232559   1.796   5.697  13.479 -0.1121  1.4984 -0.5047
 3690TIP3   OH232560   3.305   6.389  11.853 -0.4778 -0.4955 -0.0379
 3690TIP3    H132561   3.332   6.455  11.789 -0.6034 -0.6322 -0.2321
 3690TIP3    H232562   3.293   6.438  11.934 -0.8787 -0.2210 -0.2579
 3691TIP3   OH232563   3.129   0.259  10.724 -0.1515 -1.0089  0.6490
 3691TIP3    H132564   3.054   0.201  10.736 -0.6505 -0.5931 -0.3436
 3691TIP3    H232565   3.140   0.302  10.808 -0.6778 -1.4849  0.9687
 3692TIP3   OH232566   3.926   0.434  12.857 -0.3465  0.2813  0.1236
 3692TIP3    H132567   3.835   0.465  12.864  0.4036  2.3831  1.3611
 3692TIP3    H232568   3.973   0.506  12.816  1.0630 -0.1810  0.8774
 3693TIP3   OH232569   6.803   4.331   1.526  0.7499  0.4213  0.5638
 3693TIP3    H132570   6.817   4.307   1.617  1.1311  0.5962  0.5505
 3693TIP3    H232571   6.775   4.422   1.528  1.1246  0.5399  0.4803
 3694TIP3   OH232572   6.504   2.629   1.331 -0.2676  0.5094 -0.6372
 3694TIP3    H132573   6.574   2.634   1.265 -0.4814 -0.5074 -0.9465
 3694TIP3    H232574   6.525   2.700   1.392  1.1548  0.1025 -0.6160
 3695TIP3   OH232575   7.020   3.733   5.456 -0.3321 -0.1859 -0.6414
 3695TIP3    H132576   7.039   3.719   5.548 -0.5639 -1.3819 -0.7698
 3695TIP3    H232577   6.979   3.652   5.426 -0.4569  0.2596 -1.7461
 3696TIP3   OH232578   4.838   5.629   9.702 -0.5250  0.2242 -0.6664
 3696TIP3    H132579   4.766   5.673   9.747 -2.4142 -0.6250 -2.6913
 3696TIP3    H232580   4.855   5.683   9.625  1.8095  0.9874  0.2840
 3697TIP3   OH232581   7.220   1.495  14.059 -0.3448 -0.2831  0.6273
 3697TIP3    H132582   7.170   1.415  14.043 -0.4876  0.1832 -1.5544
 3697TIP3    H232583   7.175   1.562  14.008  1.1000  0.6872  0.5791
 3698TIP3   OH232584   0.363   6.753   0.275 -0.0698 -0.5632  0.1497
 3698TIP3    H132585   0.418   6.737   0.351  0.5244  0.1116 -0.1257
 3698TIP3    H232586   0.415   6.811   0.219 -1.5446  1.1766  0.4663
 3699TIP3   OH232587   2.225   0.890  15.115 -0.1193 -0.4793  0.2950
 3699TIP3    H132588   2.275   0.814  15.083 -0.2758 -0.5316  0.1707
 3699TIP3    H232589   2.235   0.887  15.210 -0.2506 -0.7456  0.3016
 3700TIP3   OH232590   6.976   3.339  11.851  0.1186  0.0062  0.1201
 3700TIP3    H132591   7.057   3.364  11.804 -0.4261  0.3661 -0.6512
 3700TIP3    H232592   6.925   3.292  11.785  0.3082 -1.5217  1.0213
 3701TIP3   OH232593   7.038   4.564   2.890 -0.3013  0.6827 -0.1600
 3701TIP3    H132594   7.053   4.617   2.812 -1.2345  1.0337 -0.1133
 3701TIP3    H232595   7.025   4.627   2.960 -1.2416  0.4093 -0.0718
 3702TIP3   OH232596   6.058   5.166  12.516 -0.1219 -0.0361  0.6109
 3702TIP3    H132597   5.963   5.155  12.522 -0.3784  1.5651 -0.0393
 3702TIP3    H232598   6.093   5.098  12.574 -1.6499 -0.7075  0.8101
 3703TIP3   OH232599   6.234   6.127   0.160  0.1411 -0.3828 -0.2615
 3703TIP3    H132600   6.181   6.182   0.103  1.3664  1.2758  0.1313
 3703TIP3    H232601   6.263   6.055   0.103 -0.6292 -0.0716 -1.0689
 3704TIP3   OH232602   1.714   3.882  13.609 -0.3379  0.4766  0.1655
 3704TIP3    H132603   1.684   3.812  13.550  0.6911 -0.7040  0.9928
 3704TIP3    H232604   1.689   3.852  13.696  2.4896 -0.2284  0.8295
 3705TIP3   OH232605   3.498   5.687  12.814  0.3138  0.3704  0.0066
 3705TIP3    H132606   3.555   5.753  12.775  1.2427 -0.5694 -0.2702
 3705TIP3    H232607   3.452   5.647  12.740  0.6043 -0.0559  0.0482
 3706TIP3   OH232608   0.167   7.063   0.272 -0.0039 -0.1003  0.0264
 3706TIP3    H132609   0.243   7.119   0.289  0.1129  0.1965 -1.3204
 3706TIP3    H232610   0.151   7.073   0.178 -1.0616 -0.9858  0.0927
 3707TIP3   OH232611   1.844   1.134  14.381  0.2256 -0.0626  0.5114
 3707TIP3    H132612   1.796   1.215  14.366  1.0908  0.7793  2.0987
 3707TIP3    H232613   1.854   1.129  14.476  1.9905 -0.9526  0.3175
 3708TIP3   OH232614   5.250   1.242  10.774  0.5491 -0.6526  0.0688
 3708TIP3    H132615   5.230   1.213  10.685  2.3008  1.1503 -0.9801
 3708TIP3    H232616   5.191   1.317  10.788  1.3526  0.0451 -0.2039
 3709TIP3   OH232617   1.062   1.303  13.025 -0.5462  0.0425 -0.4785
 3709TIP3    H132618   1.157   1.298  13.039 -0.8042  0.2509  1.7745
 3709TIP3    H232619   1.031   1.360  13.095 -2.3608 -0.1405 -1.0939
 3710TIP3   OH232620   1.842   0.834   2.761  0.3585  0.7567 -0.4537
 3710TIP3    H132621   1.817   0.753   2.715 -0.8681  0.5816  0.4784
 3710TIP3    H232622   1.765   0.858   2.811  0.8834  2.2517 -0.3131
 3711TIP3   OH232623   1.675   4.259  14.119  0.0619 -0.1773 -0.2735
 3711TIP3    H132624   1.700   4.323  14.185  0.7006 -1.5560  0.8730
 3711TIP3    H232625   1.598   4.297  14.077  0.0449  1.0400  0.7994
 3712TIP3   OH232626   5.478   0.099   0.507 -0.1640 -0.6892  0.6680
 3712TIP3    H132627   5.556   0.103   0.453  0.2250 -0.1709  1.2472
 3712TIP3    H232628   5.496   0.159   0.580 -1.4181  0.0750  0.3928
 3713TIP3   OH232629   3.109   5.308  15.047  0.3908 -0.0625  0.0781
 3713TIP3    H132630   3.115   5.213  15.058 -0.4528 -0.1992 -0.5244
 3713TIP3    H232631   3.158   5.344  15.121  0.6078 -0.9609  0.3867
 3714TIP3   OH232632   3.575   4.216   4.522  0.1525 -0.2679  0.5466
 3714TIP3    H132633   3.558   4.177   4.436 -0.8254 -2.0911  1.5089
 3714TIP3    H232634   3.618   4.147   4.572  1.3261  0.9863  1.3470
 3715TIP3   OH232635   7.183   2.023  10.418  0.0816 -0.1094  0.2270
 3715TIP3    H132636   7.111   2.018  10.355  0.5439 -0.2688 -0.2984
 3715TIP3    H232637   7.143   2.003  10.502 -0.5233 -0.0118 -0.0365
 3716TIP3   OH232638   4.845   5.832  14.880  0.2819 -0.0805  0.2864
 3716TIP3    H132639   4.827   5.757  14.823  1.4028  2.7651 -4.3314
 3716TIP3    H232640   4.762   5.878  14.887 -0.1123 -0.9527  2.0999
 3717TIP3   OH232641   0.069   0.351  15.336 -0.6293  0.4064  0.1009
 3717TIP3    H132642   0.118   0.292  15.393 -2.0441 -0.5792  0.3635
 3717TIP3    H232643   0.076   0.312  15.249 -0.8303  0.3397  0.1145
 3718TIP3   OH232644   2.989   6.988  12.071  0.4720 -0.1048 -0.1247
 3718TIP3    H132645   2.967   6.993  12.165 -1.1910  1.0075 -0.5250
 3718TIP3    H232646   3.045   7.064  12.056 -1.3339  1.2259 -0.4855
 3719TIP3   OH232647   7.062   2.712  10.034 -0.6287  0.6399 -0.6078
 3719TIP3    H132648   7.017   2.665   9.964 -0.9158  0.2138 -0.1518
 3719TIP3    H232649   7.101   2.642  10.087 -1.0905  0.9076  0.1022
 3720TIP3   OH232650   4.019   0.663  10.738  0.0500 -0.3857 -0.8047
 3720TIP3    H132651   4.029   0.568  10.728  0.6726 -0.7869  2.3556
 3720TIP3    H232652   3.929   0.674  10.766  0.6808 -0.4728  1.5247
 3721TIP3   OH232653   5.370   5.807   3.301 -0.1094 -0.0796 -0.3422
 3721TIP3    H132654   5.380   5.878   3.365  0.7532  0.5216 -1.1092
 3721TIP3    H232655   5.367   5.851   3.217  0.9508 -0.9756 -0.8738
 3722TIP3   OH232656   2.777   5.173   1.260  0.2586 -0.3618 -0.4622
 3722TIP3    H132657   2.830   5.243   1.222  1.1373 -0.8344 -0.1212
 3722TIP3    H232658   2.774   5.194   1.354  2.3206 -1.9027  0.0070
 3723TIP3   OH232659   1.879   3.185   1.737 -0.9941  0.0043  0.7187
 3723TIP3    H132660   1.847   3.096   1.753 -0.6506 -0.1237  0.6936
 3723TIP3    H232661   1.956   3.173   1.681  1.1841  0.0665  3.5219
 3724TIP3   OH232662   5.357   0.527  12.631  0.3891 -1.0466  0.1683
 3724TIP3    H132663   5.313   0.612  12.634 -1.6943 -1.8414 -2.8337
 3724TIP3    H232664   5.323   0.480  12.707 -0.6063 -0.1071  0.3319
 3725TIP3   OH232665   1.630   4.605  10.290 -0.0126 -0.6902  0.3851
 3725TIP3    H132666   1.650   4.518  10.256  0.2873 -0.1186 -0.9785
 3725TIP3    H232667   1.712   4.635  10.329  0.8638  0.1672 -1.9028
 3726TIP3   OH232668   3.851   5.031  12.418 -0.5676  0.1695  0.2536
 3726TIP3    H132669   3.834   5.107  12.473 -0.7697  1.0714 -1.0012
 3726TIP3    H232670   3.923   4.985  12.462  0.6264  1.9369  0.2445
 3727TIP3   OH232671   4.067   4.499  10.214  0.2250  0.0685  0.3476
 3727TIP3    H132672   4.137   4.434  10.211 -0.3874 -0.6459  0.9952
 3727TIP3    H232673   4.097   4.570  10.157  1.2851 -0.4029  0.2992
 3728TIP3   OH232674   5.364   7.232   1.362 -0.1428  0.1754 -0.3309
 3728TIP3    H132675   5.413   7.164   1.316 -0.4836  0.3159 -0.9162
 3728TIP3    H232676   5.274   7.219   1.334 -0.2266  0.7995 -0.3516
 3729TIP3   OH232677   5.070   3.157  11.328  0.7450 -0.1334 -0.4145
 3729TIP3    H132678   5.079   3.229  11.266  0.0478 -0.4995 -0.9553
 3729TIP3    H232679   4.989   3.176  11.376  2.9169  1.9344  2.8090
 3730TIP3   OH232680   3.935   2.398  10.951  0.0222  1.5179  0.2592
 3730TIP3    H132681   3.975   2.437  10.874  1.9069  2.9497  1.8477
 3730TIP3    H232682   3.981   2.316  10.964 -1.3198  0.5266 -0.9083
 3731TIP3   OH232683   4.375   5.665  11.872 -0.2449 -0.7065 -0.5259
 3731TIP3    H132684   4.426   5.732  11.825 -1.6937  0.5738 -0.3639
 3731TIP3    H232685   4.431   5.588  11.872  2.9625  1.3276  2.0412
 3732TIP3   OH232686   5.719   1.534  10.873 -0.0079  0.0513 -0.1446
 3732TIP3    H132687   5.653   1.603  10.880 -0.4712 -0.4326  0.3976
 3732TIP3    H232688   5.803   1.579  10.882 -0.2841  0.5927 -0.2336
 3733TIP3   OH232689   6.318   3.596  13.731 -0.2913  0.5975 -0.4343
 3733TIP3    H132690   6.284   3.622  13.816 -0.2014 -0.7821  0.0501
 3733TIP3    H232691   6.413   3.600  13.740 -0.2801  0.3596 -0.4385
 3734TIP3   OH232692   5.963   4.370  12.897  0.2244  0.1589  0.0958
 3734TIP3    H132693   5.940   4.463  12.903 -0.7019 -0.0060 -0.6856
 3734TIP3    H232694   5.888   4.329  12.854  0.3864 -1.0495  0.9059
 3735TIP3   OH232695   1.004   2.893  11.121  0.6522  0.2052 -0.2682
 3735TIP3    H132696   1.082   2.947  11.122  1.3206 -0.5856  3.1256
 3735TIP3    H232697   0.942   2.938  11.179  0.2178 -1.2082  0.4410
 3736TIP3   OH232698   5.097   1.807  11.161  0.4842  0.3500 -0.0172
 3736TIP3    H132699   5.104   1.730  11.105  0.0589  0.2803  0.0170
 3736TIP3    H232700   5.043   1.869  11.111 -2.0776 -0.6604  1.2687
 3737TIP3   OH232701   1.212   6.472  11.053  0.6083 -0.0930 -0.6089
 3737TIP3    H132702   1.146   6.418  11.009 -0.1693  1.0938 -0.9308
 3737TIP3    H232703   1.201   6.559  11.015  1.1705  0.5253  0.6000
 3738TIP3   OH232704   6.188   7.192   0.004 -0.1758  0.0485 -0.3589
 3738TIP3    H132705   6.266   7.164   0.053  0.1124  2.1349  0.4673
 3738TIP3    H232706   6.121   7.127   0.028  0.5289 -0.1612  1.2165
 3739TIP3   OH232707   6.543   4.743  10.281 -0.0705  0.3375  0.8923
 3739TIP3    H132708   6.598   4.744  10.359  1.0862  0.5772  0.1189
 3739TIP3    H232709   6.509   4.832  10.274  1.4171  0.8849  0.0898
 3740TIP3   OH232710   1.949   5.175  10.144 -0.4599 -0.4430 -0.3360
 3740TIP3    H132711   1.948   5.082  10.166 -0.9062 -0.9697 -2.3562
 3740TIP3    H232712   1.916   5.178  10.054  0.6384  1.5692 -0.7130
 3741TIP3   OH232713   2.132   1.853  13.983  0.2258 -0.2825 -0.3979
 3741TIP3    H132714   2.203   1.877  13.923 -0.9561 -0.1987 -1.8134
 3741TIP3    H232715   2.058   1.908  13.957 -0.2082  0.0977  1.4654
 3742TIP3   OH232716   6.951   0.706  10.889  0.0225  0.2752  0.0648
 3742TIP3    H132717   7.021   0.646  10.913  0.5483  0.7346 -0.2867
 3742TIP3    H232718   6.876   0.650  10.869  0.2115 -0.2075  0.6972
 3743TIP3   OH232719   2.016   4.079   1.321 -0.1650  0.7745  0.3810
 3743TIP3    H132720   2.013   4.008   1.385 -4.1704  0.8812  0.5204
 3743TIP3    H232721   2.043   4.036   1.239  0.1492 -0.3310  1.0400
 3744TIP3   OH232722   0.557   0.125  12.288 -0.0051 -0.1398  0.5443
 3744TIP3    H132723   0.574   0.218  12.269  0.0009 -0.7275 -2.7880
 3744TIP3    H232724   0.491   0.099  12.225 -2.0237 -1.8489  3.1362
 3745TIP3   OH232725   5.522   6.175  13.021 -0.2360 -0.5674  0.7387
 3745TIP3    H132726   5.547   6.176  12.929  0.8395  0.1916  1.0042
 3745TIP3    H232727   5.590   6.122  13.064  0.8330  1.2601  1.4406
 3746TIP3   OH232728   1.455   5.870   9.622  0.0440  0.3341  0.1281
 3746TIP3    H132729   1.483   5.913   9.703 -1.5814  1.7582 -0.0041
 3746TIP3    H232730   1.525   5.891   9.560  0.7857  0.1386  0.8815
 3747TIP3   OH232731   5.435   4.976  13.077 -0.3703 -0.3867 -0.2094
 3747TIP3    H132732   5.522   4.947  13.103 -0.2478  0.1549 -0.0037
 3747TIP3    H232733   5.433   5.070  13.097 -0.6394 -0.1679 -1.1784
 3748TIP3   OH232734   6.270   1.526  13.288 -0.0603  0.1065 -0.4916
 3748TIP3    H132735   6.187   1.482  13.273  0.3950 -0.7153 -0.6680
 3748TIP3    H232736   6.256   1.616  13.259 -1.3120  0.3571  0.8253
 3749TIP3   OH232737   6.715   2.036  13.349  0.1405 -0.3637 -0.1604
 3749TIP3    H132738   6.799   1.997  13.323  0.2018 -0.8142  0.6840
 3749TIP3    H232739   6.740   2.114  13.398  0.0552 -0.2012 -0.3773
 3750TIP3   OH232740   4.601   6.760  10.178  0.7096 -0.0718  0.4650
 3750TIP3    H132741   4.555   6.686  10.138  1.4734 -0.1059 -0.4119
 3750TIP3    H232742   4.678   6.721  10.219  1.3255  0.2582 -0.3399
 3751TIP3   OH232743   4.346   7.149  11.640 -0.7245 -0.0184 -0.6047
 3751TIP3    H132744   4.320   7.197  11.719  2.5670  0.2976  0.4274
 3751TIP3    H232745   4.341   7.215  11.570 -2.0638  0.1450 -0.3802
 3752TIP3   OH232746   2.400   4.688  13.202 -0.3166  0.3520 -0.1786
 3752TIP3    H132747   2.313   4.671  13.165  0.2922 -0.5383 -1.2773
 3752TIP3    H232748   2.390   4.669  13.295 -1.3018  0.2930 -0.2788
 3753TIP3   OH232749   5.317   6.346  11.462 -0.0934 -0.1616  0.2563
 3753TIP3    H132750   5.366   6.371  11.540 -0.5819  1.6504  0.0494
 3753TIP3    H232751   5.228   6.379  11.478  0.1611  1.6836 -1.6616
 3754TIP3   OH232752   5.152   2.167  10.606  0.0253 -0.6609 -0.0950
 3754TIP3    H132753   5.215   2.174  10.535 -2.6910  2.3250 -2.5716
 3754TIP3    H232754   5.088   2.102  10.576  0.2398 -1.3525  0.9011
 3755TIP3   OH232755   4.796   3.030  12.939 -0.1612  0.0893 -0.3240
 3755TIP3    H132756   4.798   3.035  13.034  1.3070 -1.3072 -0.2525
 3755TIP3    H232757   4.757   2.944  12.920 -1.0168  0.6070 -1.0154
 3756TIP3   OH232758   2.060   4.807  15.168  0.0903  0.2988  0.7385
 3756TIP3    H132759   2.155   4.814  15.161  0.3909 -1.5307  2.2066
 3756TIP3    H232760   2.037   4.736  15.108 -0.0287 -0.8145  2.0692
 3757TIP3   OH232761   0.055   2.748  10.269 -0.6966  0.0371  0.0112
 3757TIP3    H132762   0.136   2.714  10.230  0.6005 -0.3961  2.8577
 3757TIP3    H232763  -0.013   2.688  10.240  0.3344 -0.7995 -0.7737
 3758TIP3   OH232764   3.478   0.800  13.441 -0.1065  0.1821  0.6371
 3758TIP3    H132765   3.416   0.753  13.497 -1.1070  1.2147  0.4317
 3758TIP3    H232766   3.511   0.871  13.496  1.1599 -0.5377  0.8451
 3759TIP3   OH232767   4.331   0.764  12.763  0.6552  0.0708 -0.6976
 3759TIP3    H132768   4.411   0.737  12.717  1.6602  1.3541  0.2230
 3759TIP3    H232769   4.298   0.684  12.803  1.6492 -0.4199 -0.8356
 3760TIP3   OH232770   1.679   6.532  11.857  0.4270  0.0751 -0.5066
 3760TIP3    H132771   1.762   6.491  11.881  0.8748  0.9975 -0.3937
 3760TIP3    H232772   1.618   6.505  11.925  0.7987 -0.1088 -0.2421
 3761TIP3   OH232773   0.612   6.227   9.876 -0.4726 -0.3035  0.2254
 3761TIP3    H132774   0.536   6.277   9.847  1.2041  1.8587 -0.6588
 3761TIP3    H232775   0.647   6.187   9.797 -0.4265 -0.9401  0.5592
 3762TIP3   OH232776   4.068   6.463  12.845 -0.2287  0.2584 -0.1181
 3762TIP3    H132777   3.979   6.433  12.865  0.5505 -2.9870 -1.0500
 3762TIP3    H232778   4.106   6.394  12.791  3.1097  1.2257  0.7491
 3763TIP3   OH232779   5.439   3.113  11.287 -0.4047 -0.0216  0.1868
 3763TIP3    H132780   5.532   3.093  11.301 -0.7724 -0.8282  1.7017
 3763TIP3    H232781   5.407   3.137  11.374 -1.5363  0.6531 -0.3981
 3764TIP3   OH232782   3.721   4.797  15.212 -0.3388  0.2396 -0.0987
 3764TIP3    H132783   3.797   4.742  15.196  0.3437  0.9930  0.4586
 3764TIP3    H232784   3.653   4.762  15.154  0.4885 -0.3066 -0.7613
 3765TIP3   OH232785   3.983   0.082  12.419  0.3885  0.0097  0.4551
 3765TIP3    H132786   4.076   0.059  12.412  0.1771 -1.0368  0.8569
 3765TIP3    H232787   3.975   0.119  12.507  0.9503  2.9028 -0.5730
 3766TIP3   OH232788   2.459   6.143   9.838 -0.1443 -0.3991 -0.4574
 3766TIP3    H132789   2.505   6.150   9.922 -0.3927 -1.7186 -0.1795
 3766TIP3    H232790   2.525   6.164   9.773 -0.1672  1.4829  0.0862
 3767TIP3   OH232791   1.597   5.689  11.282  0.1402  0.1217 -0.6055
 3767TIP3    H132792   1.601   5.774  11.326 -0.5098  0.2669 -0.8234
 3767TIP3    H232793   1.506   5.680  11.255  0.1772 -0.6967 -0.4908
 3768TIP3   OH232794   3.760   4.238   9.514  0.1978  0.2183 -0.2197
 3768TIP3    H132795   3.798   4.326   9.509  0.2762  0.2480  0.8366
 3768TIP3    H232796   3.715   4.227   9.430  0.5904  1.0780 -0.5533
 3769TIP3   OH232797   4.723   3.296  15.054 -0.0539  1.2960  0.4579
 3769TIP3    H132798   4.641   3.306  15.007  0.2223  2.4546  0.2056
 3769TIP3    H232799   4.699   3.297  15.146 -0.5602 -0.6564  0.3930
 3770TIP3   OH232800   6.126   6.638  11.751 -0.3181  0.4269 -0.5878
 3770TIP3    H132801   6.194   6.576  11.728 -0.9913 -0.6749  0.2839
 3770TIP3    H232802   6.044   6.592  11.733 -0.8321  0.7924  0.7024
 3771TIP3   OH232803   6.845   2.980  12.226 -0.0168 -0.1270 -0.3552
 3771TIP3    H132804   6.799   3.021  12.152 -0.4608  1.2475  0.6553
 3771TIP3    H232805   6.936   3.007  12.214 -0.4569  2.1367  0.8665
 3772TIP3   OH232806   4.621   3.139  11.235 -0.5274 -0.0718 -0.2386
 3772TIP3    H132807   4.690   3.079  11.208 -0.2253  0.6580 -1.1455
 3772TIP3    H232808   4.554   3.130  11.167 -0.2066  1.0496 -0.7186
 3773TIP3   OH232809   2.918   0.332  12.200 -0.1203 -0.2592 -0.4959
 3773TIP3    H132810   2.909   0.412  12.252  0.1129 -0.6337  0.1258
 3773TIP3    H232811   2.832   0.320  12.161 -0.6777 -0.6434  0.7937
 3774TIP3   OH232812   5.837   2.100  13.206 -0.4305  0.0355 -0.1550
 3774TIP3    H132813   5.858   2.186  13.241  0.3901 -0.2756  0.1318
 3774TIP3    H232814   5.756   2.075  13.251 -0.9747  0.8924 -0.6553
 3775TIP3   OH232815   2.513   6.915  15.076  0.0819  0.1738 -0.1048
 3775TIP3    H132816   2.527   6.981  15.009  0.4499 -0.6734 -0.8836
 3775TIP3    H232817   2.447   6.856  15.040  0.5056 -0.4647  0.1275
 3776TIP3   OH232818   1.430   3.080  14.890  0.1032 -0.3039  0.4876
 3776TIP3    H132819   1.370   3.010  14.861  0.1058  0.2516 -0.9798
 3776TIP3    H232820   1.400   3.158  14.843  2.3297 -0.1359 -0.8257
 3777TIP3   OH232821   2.423   7.159  13.681  0.3800 -0.0729 -0.4028
 3777TIP3    H132822   2.357   7.150  13.749  1.5418  0.8167  0.8951
 3777TIP3    H232823   2.451   7.070  13.663 -0.3271 -0.3611 -0.1305
 3778TIP3   OH232824   3.428   5.843  13.955 -0.2365 -0.1158 -0.2514
 3778TIP3    H132825   3.418   5.922  13.903 -3.3165  0.8154  1.4810
 3778TIP3    H232826   3.459   5.777  13.893  0.8252  1.9981 -2.1099
 3779TIP3   OH232827   4.466   1.292   0.425  0.0865  0.3207 -0.1358
 3779TIP3    H132828   4.392   1.244   0.386 -0.0969  0.1306  0.4312
 3779TIP3    H232829   4.454   1.382   0.396 -0.7295  0.4190  0.4456
 3780TIP3   OH232830   6.499   4.757  10.905 -0.3746 -0.2410  0.1634
 3780TIP3    H132831   6.512   4.666  10.931 -1.2864 -0.3419  0.2844
 3780TIP3    H232832   6.524   4.759  10.813  0.8030 -0.3431  0.4674
 3781TIP3   OH232833   3.530   0.204   5.462 -0.0030  0.1467  0.1827
 3781TIP3    H132834   3.617   0.178   5.490  0.5201 -0.0398 -1.5196
 3781TIP3    H232835   3.472   0.137   5.498  0.7961 -0.8477 -0.3399
 3782TIP3   OH232836   5.080   3.936   0.385  0.0528  0.0481 -0.8333
 3782TIP3    H132837   5.117   4.013   0.342  2.0982 -1.5503 -2.0842
 3782TIP3    H232838   4.998   3.919   0.338 -0.5488  1.5435 -0.3841
 3783TIP3   OH232839   4.640   5.080  11.692  0.5093 -0.1629 -0.2241
 3783TIP3    H132840   4.639   5.071  11.787  0.9341  1.1619 -0.0686
 3783TIP3    H232841   4.557   5.122  11.671  0.5429 -0.1859 -0.4044
 3784TIP3   OH232842   4.219   0.981  10.841  0.5396  0.0734  0.0735
 3784TIP3    H132843   4.229   0.980  10.936  0.6310  0.8531  0.0804
 3784TIP3    H232844   4.263   1.061  10.814 -0.7257  0.5971 -0.4798
 3785TIP3   OH232845   2.485   5.157  10.349 -0.0634 -0.3303  0.0586
 3785TIP3    H132846   2.417   5.104  10.390 -0.3810  0.4074  0.5027
 3785TIP3    H232847   2.567   5.122  10.383 -0.2914 -0.2387  0.7130
 3786TIP3   OH232848   7.028   4.063  11.789 -0.5604  0.5195  0.3494
 3786TIP3    H132849   7.024   3.975  11.752 -0.3703  0.6972 -0.1053
 3786TIP3    H232850   7.122   4.084  11.791 -0.3770 -0.2021  2.6870
 3787TIP3   OH232851   7.200   2.280  11.888 -0.2707 -0.5179  0.1036
 3787TIP3    H132852   7.194   2.211  11.821 -1.3671 -1.0819  0.7512
 3787TIP3    H232853   7.294   2.297  11.896 -0.0881 -0.7598 -1.2397
 3788TIP3   OH232854   4.879   7.020   0.247 -0.1604 -0.1062  0.6229
 3788TIP3    H132855   4.953   6.993   0.302  0.0296 -0.1766  0.3367
 3788TIP3    H232856   4.920   7.069   0.175 -0.5705  2.0160  1.7543
 3789TIP3   OH232857   2.597   6.145  12.198 -0.2204  0.2518 -0.0414
 3789TIP3    H132858   2.620   6.053  12.187 -0.4435  0.4109 -2.4363
 3789TIP3    H232859   2.510   6.153  12.158 -0.5003  1.3873  0.7289
 3790TIP3   OH232860   6.222   1.113  14.396 -0.3296 -0.0549  0.2923
 3790TIP3    H132861   6.269   1.173  14.338  0.2669 -2.9132 -2.4916
 3790TIP3    H232862   6.228   1.153  14.483  2.0147  2.6704 -0.9670
 3791TIP3   OH232863   0.558   3.774   1.725  0.0851 -0.3170 -0.0623
 3791TIP3    H132864   0.593   3.701   1.675 -0.3462  0.8030 -2.0887
 3791TIP3    H232865   0.629   3.798   1.784  0.6053 -1.6785 -0.0974
 3792TIP3   OH232866   3.471   5.075   9.855  0.0236 -0.5367  0.1646
 3792TIP3    H132867   3.515   5.097   9.773 -1.1724 -1.3075 -0.7115
 3792TIP3    H232868   3.427   4.992   9.837  0.1872 -1.0131  1.7738
 3793TIP3   OH232869   6.768   6.384  12.968  0.0802  0.2221 -0.2905
 3793TIP3    H132870   6.711   6.403  13.042 -2.1112  1.3481 -2.1424
 3793TIP3    H232871   6.751   6.292  12.948  2.6574 -0.9251  2.0702
 3794TIP3   OH232872   3.705   3.508   2.429 -0.1238 -0.2907 -0.2257
 3794TIP3    H132873   3.732   3.452   2.503  0.0421  0.3175  0.1813
 3794TIP3    H232874   3.774   3.495   2.364  0.9633  0.9150  0.6380
 3795TIP3   OH232875   5.011   3.250  15.298  0.0593 -0.0035 -0.1653
 3795TIP3    H132876   4.980   3.170  15.256  1.4909 -0.5098 -0.3156
 3795TIP3    H232877   5.001   3.234  15.392 -1.0665  0.2528 -0.2325
 3796TIP3   OH232878   1.523   6.857  12.011  0.6493  0.4109  0.2441
 3796TIP3    H132879   1.619   6.860  12.009  0.7381 -0.5646 -2.7372
 3796TIP3    H232880   1.500   6.798  11.939 -2.2387  1.8335 -0.1405
 3797TIP3   OH232881   1.304   1.616  11.044  0.2786 -0.1621 -0.0098
 3797TIP3    H132882   1.226   1.582  11.086  0.6363 -0.5472  0.3596
 3797TIP3    H232883   1.289   1.710  11.036 -0.5555 -0.3423 -0.6680
 3798TIP3   OH232884   0.738   7.236  11.299 -0.4106 -0.4566 -0.1112
 3798TIP3    H132885   0.713   7.205  11.212  0.6357 -0.0496 -0.5627
 3798TIP3    H232886   0.673   7.196  11.357 -1.0206 -0.8733 -1.0489
 3799TIP3   OH232887   6.011   2.364   0.429 -0.6410  0.0191 -0.1273
 3799TIP3    H132888   6.080   2.309   0.392  0.2580 -0.1073  1.6199
 3799TIP3    H232889   6.003   2.437   0.367  0.0522 -0.7027 -1.0868
 3800TIP3   OH232890   4.120   3.584  12.051  0.1174 -0.3842  0.8599
 3800TIP3    H132891   4.157   3.567  12.138 -0.5799 -2.3143  0.8362
 3800TIP3    H232892   4.184   3.547  11.990  0.3868  0.5597  0.5492
 3801TIP3   OH232893   4.481   0.631   0.000 -0.4302  0.1544  0.5505
 3801TIP3    H132894   4.448   0.620  -0.089 -1.3597 -1.0654  1.0007
 3801TIP3    H232895   4.500   0.541   0.030  0.0415  0.5529  1.5085
 3802TIP3   OH232896   6.340   3.918  14.491 -0.7376 -0.1223 -0.2886
 3802TIP3    H132897   6.301   3.992  14.538  0.8915 -1.1782  3.0897
 3802TIP3    H232898   6.434   3.938  14.491 -0.4526 -1.4184 -0.8474
 3803TIP3   OH232899   3.353   5.954   0.075 -0.1770  0.7583  0.1412
 3803TIP3    H132900   3.294   5.899   0.024  1.8977  0.5703 -2.2841
 3803TIP3    H232901   3.315   6.042   0.071 -0.9012  0.4279 -0.3284
 3804TIP3   OH232902   3.352   2.440  12.268  0.2475 -0.3792 -0.3477
 3804TIP3    H132903   3.324   2.531  12.260  0.3511 -0.3349 -0.2103
 3804TIP3    H232904   3.445   2.441  12.247  0.3984 -0.3474  0.2945
 3805TIP3   OH232905   2.789   1.271  10.947  0.3780  0.5047  0.3651
 3805TIP3    H132906   2.859   1.205  10.952 -1.3249 -1.3412  0.8079
 3805TIP3    H232907   2.830   1.346  10.904  2.4927 -0.6862  0.1804
 3806TIP3   OH232908   4.488   6.785  10.895  0.5701  0.2214 -0.2825
 3806TIP3    H132909   4.469   6.866  10.943  1.8244  1.3768 -1.6094
 3806TIP3    H232910   4.403   6.741  10.887 -0.4357  2.1326 -0.7567
 3807TIP3   OH232911   2.268   2.113  11.796  1.1089  0.3255 -0.3617
 3807TIP3    H132912   2.346   2.152  11.757  0.7406  0.6580 -0.7665
 3807TIP3    H232913   2.291   2.020  11.806  1.7458  0.5157  0.0121
 3808TIP3   OH232914   2.543   4.252  12.306  0.4481  0.2930  0.2097
 3808TIP3    H132915   2.463   4.304  12.302  0.2110 -0.0063  0.9059
 3808TIP3    H232916   2.558   4.223  12.216  0.3168  1.1636 -0.0942
 3809TIP3   OH232917   0.585   6.425  13.866  0.3907  0.0059 -0.3065
 3809TIP3    H132918   0.593   6.382  13.781  0.3015  1.2564 -0.9684
 3809TIP3    H232919   0.590   6.518  13.846  2.0125  0.3090  1.2277
 3810TIP3   OH232920   1.368   7.009   1.993 -0.2717  0.4425 -0.1796
 3810TIP3    H132921   1.283   6.971   2.014  0.0892  0.3627  1.2786
 3810TIP3    H232922   1.428   6.934   1.994  0.0123  0.6722  0.0567
 3811TIP3   OH232923   4.447   4.514   9.763 -0.1629  0.5515  0.2679
 3811TIP3    H132924   4.459   4.586   9.701  0.4573  0.6061  0.4443
 3811TIP3    H232925   4.534   4.475   9.772 -0.7985 -1.3479 -1.1788
 3812TIP3   OH232926   4.544   5.955  12.849 -0.2910  0.1706  0.3102
 3812TIP3    H132927   4.529   6.044  12.881 -0.2736 -0.5562  2.5606
 3812TIP3    H232928   4.622   5.926  12.896  0.2309 -0.7468 -1.0745
 3813TIP3   OH232929   5.530   1.202  10.521 -0.2099  0.2542 -0.3004
 3813TIP3    H132930   5.461   1.268  10.531 -2.3205 -2.1586  2.8813
 3813TIP3    H232931   5.487   1.129  10.477 -0.2571 -1.7798  2.8195
 3814TIP3   OH232932   4.080   5.240  10.852  0.2135 -0.2835 -0.0236
 3814TIP3    H132933   4.152   5.291  10.814  0.5965 -0.5817  0.2845
 3814TIP3    H232934   4.111   5.150  10.850 -0.2066 -0.4309  0.0055
 3815TIP3   OH232935   3.698   4.901  13.638 -0.1774 -0.0361 -0.2308
 3815TIP3    H132936   3.621   4.911  13.695 -0.4805  0.5582 -0.7262
 3815TIP3    H232937   3.739   4.819  13.667 -2.0261 -1.3648 -1.1601
 3816TIP3   OH232938   3.747   2.813  10.650  1.0698 -0.6193  0.0484
 3816TIP3    H132939   3.779   2.812  10.560  1.5793  1.6405  0.1189
 3816TIP3    H232940   3.797   2.884  10.692 -0.8137 -0.0364  1.4482
 3817TIP3   OH232941   3.539   3.352   5.248  0.4142  0.0834 -0.4254
 3817TIP3    H132942   3.506   3.321   5.164 -0.1477  1.0710 -0.5903
 3817TIP3    H232943   3.615   3.407   5.225  0.0945  0.5751 -0.3156
 3818TIP3   OH232944   5.795   5.927  11.031  0.5049  0.7773  0.2392
 3818TIP3    H132945   5.757   5.857  10.977 -0.5131  1.1344  0.4731
 3818TIP3    H232946   5.740   6.003  11.014 -1.3445  0.3645  3.4642
 3819TIP3   OH232947   4.267   6.636  12.667 -0.0136 -0.1543 -0.4852
 3819TIP3    H132948   4.218   6.627  12.585  0.1944 -2.5720 -0.4033
 3819TIP3    H232949   4.206   6.606  12.734 -0.0862  1.5619  0.2696
 3820TIP3   OH232950   5.424   3.152  12.408  0.1495 -0.1658 -0.7062
 3820TIP3    H132951   5.341   3.151  12.359  0.9632 -0.5352 -2.1287
 3820TIP3    H232952   5.437   3.061  12.434  0.7820 -0.3676 -1.6912
 3821TIP3   OH232953   3.913   6.526  10.456 -0.4694  0.0491  0.2523
 3821TIP3    H132954   3.838   6.476  10.486 -0.0616 -0.0541  1.1286
 3821TIP3    H232955   3.953   6.560  10.536 -0.4410  1.3550 -0.2766
 3822TIP3   OH232956   5.085   4.195  10.956 -0.2024  0.2568 -0.2980
 3822TIP3    H132957   5.091   4.263  10.888  0.8680  0.8486  0.3659
 3822TIP3    H232958   5.148   4.222  11.023  0.5920 -1.6280 -0.2234
 3823TIP3   OH232959   3.056   2.975  11.606 -0.1360  0.2547  0.3881
 3823TIP3    H132960   3.130   3.027  11.639  0.4829  0.9511 -1.8484
 3823TIP3    H232961   3.086   2.946  11.520 -1.6691 -1.3020  0.3464
 3824TIP3   OH232962   4.358   6.066  10.432  1.0544 -0.1975 -0.4550
 3824TIP3    H132963   4.304   5.990  10.412 -1.3496  1.8454 -2.4510
 3824TIP3    H232964   4.439   6.051  10.384  0.4145 -1.2735 -1.2420
 3825TIP3   OH232965   5.187   2.156   3.162  0.4493  0.4810  0.1706
 3825TIP3    H132966   5.266   2.115   3.196 -0.8679 -0.7503  1.9356
 3825TIP3    H232967   5.217   2.207   3.086  2.7422 -0.7225  0.1773
 3826TIP3   OH232968   2.745   7.121   9.886 -0.0013  0.0737  0.5473
 3826TIP3    H132969   2.720   7.194   9.942 -1.2162 -1.4740  2.1670
 3826TIP3    H232970   2.676   7.056   9.900  0.6278 -1.0904 -1.4106
 3827TIP3   OH232971   4.004   4.512  12.213  0.0085 -0.3298 -0.2285
 3827TIP3    H132972   4.009   4.419  12.237 -0.1752 -0.6994 -1.5623
 3827TIP3    H232973   3.929   4.545  12.262 -1.1578 -1.3720 -1.2342
 3828TIP3   OH232974   5.508   0.913  12.851  0.5788  0.7851 -0.4352
 3828TIP3    H132975   5.414   0.928  12.846  0.2673 -0.8939 -0.3992
 3828TIP3    H232976   5.532   0.883  12.763  0.6197 -0.9620  0.1365
 3829TIP3   OH232977   5.739   5.121   9.117 -0.0513  0.0196  0.1086
 3829TIP3    H132978   5.735   5.151   9.026 -0.2951 -2.8419 -0.9252
 3829TIP3    H232979   5.791   5.188   9.162 -1.4609  2.4869 -1.6505
 3830TIP3   OH232980   4.958   4.957  12.203  0.0138 -0.5591 -0.5950
 3830TIP3    H132981   4.962   4.987  12.294  0.1636  1.1167 -1.1192
 3830TIP3    H232982   5.047   4.927  12.184 -0.3228 -2.1210  0.1707
 3831TIP3   OH232983   3.124   5.594   0.551 -0.2427 -0.4465 -0.1345
 3831TIP3    H132984   3.080   5.569   0.632 -1.8709 -1.0059 -1.1494
 3831TIP3    H232985   3.112   5.520   0.493 -4.0548  1.9034 -2.7815
 3832TIP3   OH232986   2.662   5.680  11.692 -0.6157  0.3940 -0.5214
 3832TIP3    H132987   2.596   5.750  11.696 -0.9482  0.1344 -1.2363
 3832TIP3    H232988   2.703   5.681  11.778 -1.5775  0.5423 -0.0450
 3833TIP3   OH232989   4.022   6.929   2.394  0.4233  0.1748 -0.6573
 3833TIP3    H132990   4.006   6.964   2.306  1.0325  1.0974 -0.4164
 3833TIP3    H232991   4.073   6.850   2.378  0.2437  0.1516 -1.1543
 3834TIP3   OH232992   6.594   6.898   0.225  0.0445 -0.2925  0.1082
 3834TIP3    H132993   6.561   6.813   0.199  1.1882 -1.3486  1.8804
 3834TIP3    H232994   6.521   6.958   0.210 -1.7416 -2.0384  1.3270
 3835TIP3   OH232995   3.078   4.610  13.628 -0.3392 -0.7685  0.3194
 3835TIP3    H132996   3.172   4.627  13.625  0.0029 -2.4682 -0.0976
 3835TIP3    H232997   3.040   4.674  13.568  0.5809 -0.2466  0.2746
 3836TIP3   OH232998   6.331   1.091  10.844 -0.4574 -0.0650 -0.7673
 3836TIP3    H132999   6.345   1.104  10.937 -1.0794 -1.6830 -0.4252
 3836TIP3    H233000   6.282   1.009  10.837 -1.2367  0.4798 -2.4627
 3837TIP3   OH233001   4.345   0.178   1.603 -0.0400  0.3542  0.1732
 3837TIP3    H133002   4.428   0.174   1.555  1.2982  0.7297  2.3102
 3837TIP3    H233003   4.281   0.208   1.538  1.6989  1.0679 -1.3078
 3838TIP3   OH233004   5.506   3.741   0.244  0.0143 -0.1701  0.1728
 3838TIP3    H133005   5.480   3.671   0.303  0.8080 -0.3526  0.3149
 3838TIP3    H233006   5.469   3.715   0.159 -1.5281  0.3246  0.6506
 3839TIP3   OH233007   1.652   6.302  10.713 -0.0658  0.5423 -0.3027
 3839TIP3    H133008   1.610   6.388  10.710  0.0258  0.5588 -1.2719
 3839TIP3    H233009   1.620   6.263  10.794 -1.3072  0.8851 -0.6042
 3840TIP3   OH233010   0.374   0.144  14.247 -0.1721  0.4075 -0.0171
 3840TIP3    H133011   0.457   0.112  14.281 -1.2945 -2.5290  0.2860
 3840TIP3    H233012   0.388   0.153  14.152  0.4685 -0.1754  0.0189
 3841TIP3   OH233013   7.136   6.386  12.765  0.1079 -0.2072 -0.0265
 3841TIP3    H133014   7.153   6.363  12.674  1.4271  1.3871 -0.2228
 3841TIP3    H233015   7.204   6.340  12.815  0.8116  0.7311 -0.1007
 3842TIP3   OH233016   6.324   7.111  11.357 -0.3564  0.0358  0.3296
 3842TIP3    H133017   6.302   7.140  11.269 -1.6012 -0.0152  0.5973
 3842TIP3    H233018   6.329   7.016  11.351  1.2213  0.1247 -0.0218
 3843TIP3   OH233019   1.407   5.489  12.237 -0.1399  0.4085 -0.3421
 3843TIP3    H133020   1.337   5.443  12.282 -0.9104  0.7010 -1.1998
 3843TIP3    H233021   1.372   5.507  12.149  1.3435 -0.2332 -1.1019
 3844TIP3   OH233022   5.371   6.781  10.813 -0.0789 -0.5158  0.1048
 3844TIP3    H133023   5.279   6.778  10.838 -0.2797  3.1871  0.3185
 3844TIP3    H233024   5.370   6.805  10.720  0.6576 -0.7192  0.0370
 3845TIP3   OH233025   2.326   6.262  10.338 -0.1781 -0.0607 -0.3546
 3845TIP3    H133026   2.395   6.198  10.319  0.2655 -0.5789  2.4345
 3845TIP3    H233027   2.342   6.334  10.277  1.9363 -0.8033 -0.7754
 3846TIP3   OH233028   6.893   4.120   0.055  0.0574  0.3801 -0.0375
 3846TIP3    H133029   6.846   4.131   0.138  0.5090  1.2583  0.1138
 3846TIP3    H233030   6.955   4.049   0.072 -1.3490 -0.9555 -0.3133
 3847TIP3   OH233031   5.646   1.251  14.687 -0.3544 -0.5203 -0.6127
 3847TIP3    H133032   5.602   1.187  14.631  1.0270 -1.3832 -0.7792
 3847TIP3    H233033   5.580   1.277  14.751 -1.7226 -0.1454 -2.1037
 3848TIP3   OH233034   6.171   6.385  13.787 -0.6001 -0.0500 -0.2093
 3848TIP3    H133035   6.256   6.423  13.762 -0.3478 -0.0794  0.5460
 3848TIP3    H233036   6.107   6.433  13.736 -0.3214  1.7081  0.9995
 3849TIP3   OH233037   4.373   2.759   5.456 -0.2167 -0.0320  0.3223
 3849TIP3    H133038   4.281   2.782   5.444 -0.4146 -0.5349  0.8331
 3849TIP3    H233039   4.421   2.838   5.429 -0.7873  0.1959 -0.0498
 3850TIP3   OH233040   1.951   6.239   0.245 -0.4448  0.3791  0.5760
 3850TIP3    H133041   1.990   6.239   0.333 -1.6740  0.7622  1.1451
 3850TIP3    H233042   2.008   6.297   0.194  1.3360 -1.2448  0.5917
 3851TIP3   OH233043   0.066   4.879  10.745  0.3118 -0.2224 -0.3173
 3851TIP3    H133044   0.119   4.898  10.668  0.8492 -0.9221 -0.1371
 3851TIP3    H233045   0.126   4.832  10.804 -0.4058 -0.7218  0.0325
 3852TIP3   OH233046   1.377   0.819   9.967  0.2447  0.1907  0.5493
 3852TIP3    H133047   1.376   0.729   9.999 -1.1181 -0.2882 -0.7058
 3852TIP3    H233048   1.284   0.841   9.956  0.5891  0.6924 -1.8744
 3853TIP3   OH233049   5.098   6.739  10.876 -0.1171 -0.4424 -0.0604
 3853TIP3    H133050   5.081   6.648  10.852 -0.3544 -0.6745  0.9189
 3853TIP3    H233051   5.081   6.742  10.970 -2.4031  1.1462 -0.4442
 3854TIP3   OH233052   3.901   1.540  14.397 -0.0062 -0.2890 -0.1422
 3854TIP3    H133053   3.833   1.475  14.378  0.8641 -0.8537 -1.4379
 3854TIP3    H233054   3.965   1.491  14.450  0.8066 -0.6034 -1.3877
 3855TIP3   OH233055   2.192   5.130   2.068 -0.3241 -0.8277 -0.0685
 3855TIP3    H133056   2.184   5.217   2.106  0.4114 -1.7818  2.5225
 3855TIP3    H233057   2.124   5.126   2.001  0.0080  1.8950 -0.6798
 3856TIP3   OH233058   4.569   5.383   1.944  0.1003 -0.1645 -0.5209
 3856TIP3    H133059   4.619   5.311   1.982 -0.5343  0.2496  1.2216
 3856TIP3    H233060   4.632   5.454   1.932  0.1166  0.1065  0.9751
 3857TIP3   OH233061   1.515   1.187  12.258  0.0466  0.5402 -0.1785
 3857TIP3    H133062   1.503   1.281  12.250 -0.3553  0.4152 -1.2144
 3857TIP3    H233063   1.486   1.152  12.174  0.2306 -0.5047  0.1786
 3858TIP3   OH233064   4.352   6.325   0.806  0.0552  0.1616  0.3953
 3858TIP3    H133065   4.266   6.349   0.770 -0.6718 -1.5437  0.9104
 3858TIP3    H233066   4.379   6.250   0.754 -0.2168 -1.2540  2.2231
 3859TIP3   OH233067   1.041   5.315  13.477  0.2550  0.2799 -0.5051
 3859TIP3    H133068   1.012   5.323  13.568 -0.3080 -0.5831 -0.5997
 3859TIP3    H233069   1.097   5.391  13.463  1.9237 -0.5621  1.1518
 3860TIP3   OH233070   2.693   0.539  10.502 -0.2846  0.2552 -0.1168
 3860TIP3    H133071   2.785   0.520  10.515 -0.0388  1.2650 -0.2950
 3860TIP3    H233072   2.653   0.528  10.588 -0.1868 -1.1008 -0.2206
 3861TIP3   OH233073   2.008   0.165   9.952  0.3363 -0.3177  0.1459
 3861TIP3    H133074   2.095   0.149   9.990 -0.8876 -1.4638  2.7647
 3861TIP3    H233075   1.967   0.078   9.952 -0.5830  0.0880 -1.7240
 3862TIP3   OH233076   4.152   1.790  12.208 -0.5106 -0.0592  0.6216
 3862TIP3    H133077   4.150   1.733  12.285  1.0154 -1.0440 -0.0281
 3862TIP3    H233078   4.132   1.732  12.135 -0.3915  0.5429  0.1049
 3863TIP3   OH233079   4.897   5.702  11.361  0.2235  0.0422 -0.2018
 3863TIP3    H133080   4.878   5.717  11.453  1.2878  1.9034 -0.2335
 3863TIP3    H233081   4.924   5.788  11.328 -0.7896 -0.4270 -2.4176
 3864TIP3   OH233082   3.062   1.448  13.603 -0.3054  0.2580 -0.4973
 3864TIP3    H133083   3.034   1.524  13.551  0.1699  1.3689  0.8141
 3864TIP3    H233084   2.992   1.436  13.667 -0.7323 -0.9079 -1.1460
 3865TIP3   OH233085   2.407   0.326  14.609  0.1565  0.4586 -0.4497
 3865TIP3    H133086   2.431   0.276  14.531 -0.2659 -0.2809 -0.1123
 3865TIP3    H233087   2.314   0.346  14.597 -0.0038  0.0178  0.0364
 3866TIP3   OH233088   4.597   1.024  13.195 -0.0136  0.2314  0.1810
 3866TIP3    H133089   4.585   1.119  13.203  2.0764  0.4734  1.0651
 3866TIP3    H233090   4.509   0.988  13.209 -0.7534  2.0028  0.4088
 3867TIP3   OH233091   1.020   6.741  12.340 -0.7296 -0.1793  0.4386
 3867TIP3    H133092   1.102   6.694  12.354 -0.0290  0.6946 -0.5665
 3867TIP3    H233093   0.956   6.693  12.391  0.3581 -1.0331  1.0435
 3868TIP3   OH233094   6.917   5.510  14.938 -0.4041 -0.2337 -0.1845
 3868TIP3    H133095   6.849   5.571  14.912  0.9956  2.2597  1.6286
 3868TIP3    H233096   6.905   5.497  15.032  2.2457  1.2699  0.4637
 3869TIP3   OH233097   2.955   0.701   0.736  0.3461 -0.4484  0.1774
 3869TIP3    H133098   2.891   0.699   0.807  0.4986  1.2090  0.4130
 3869TIP3    H233099   2.906   0.671   0.659 -0.1623 -1.0855  0.7371
 3870TIP3   OH233100   0.373   0.664   1.475 -0.1551 -0.7837 -0.0993
 3870TIP3    H133101   0.348   0.613   1.552 -0.3289 -0.5686 -0.0106
 3870TIP3    H233102   0.348   0.609   1.400  3.0188 -2.4846 -0.0492
 3871TIP3   OH233103   5.860   2.883  13.181  0.1318 -0.0377 -0.5342
 3871TIP3    H133104   5.950   2.913  13.165  0.0284 -0.1265 -1.3028
 3871TIP3    H233105   5.834   2.840  13.100 -0.7304  0.2913 -0.4445
 3872TIP3   OH233106   3.184   6.305   9.826  0.6783  0.0705 -0.1359
 3872TIP3    H133107   3.269   6.291   9.867  0.2003  1.1622  1.3215
 3872TIP3    H233108   3.126   6.242   9.869  0.5321  0.0106 -0.4179
 3873TIP3   OH233109   6.862   1.060  13.613 -0.3029  0.4666  0.5326
 3873TIP3    H133110   6.811   1.012  13.549 -0.7429 -0.4843  1.5592
 3873TIP3    H233111   6.797   1.114  13.660 -0.0285  0.9471  0.3692
 3874TIP3   OH233112   6.786   4.135   0.766 -0.9733  0.3513 -0.2193
 3874TIP3    H133113   6.791   4.081   0.845 -0.5438  1.8042  0.7768
 3874TIP3    H233114   6.752   4.075   0.699 -1.7739 -0.8004  1.1490
 3875TIP3   OH233115   4.497   4.508  12.923  0.1930  0.1406  0.1671
 3875TIP3    H133116   4.448   4.580  12.882 -0.2424 -0.2637 -0.0208
 3875TIP3    H233117   4.588   4.524  12.897  0.6386  2.3825  2.6259
 3876TIP3   OH233118   0.518   1.849  14.092 -0.0260  0.2928  0.4826
 3876TIP3    H133119   0.441   1.810  14.132 -0.2479 -0.9271 -1.0155
 3876TIP3    H233120   0.592   1.804  14.134 -0.0916  1.5917  2.0460
 3877TIP3   OH233121   4.663   3.105   0.551 -0.2040  0.5863  0.1365
 3877TIP3    H133122   4.665   3.150   0.467 -0.6410  1.0888  0.3892
 3877TIP3    H233123   4.696   3.017   0.532  0.1524  0.8440 -0.4636
 3878TIP3   OH233124   4.667   1.385  10.759  0.3036  0.1517 -0.0207
 3878TIP3    H133125   4.692   1.448  10.826  0.0216  2.9547 -2.3398
 3878TIP3    H233126   4.598   1.428  10.709 -0.8556 -2.5728 -1.0141
 3879TIP3   OH233127   0.742   5.986  11.674  0.0672  0.8387 -0.5012
 3879TIP3    H133128   0.787   6.070  11.662  0.4479  0.8143  0.6020
 3879TIP3    H233129   0.790   5.925  11.619  0.8703  0.9947  0.0047
 3880TIP3   OH233130   5.593   3.834   2.506 -0.1146  0.7200  0.5366
 3880TIP3    H133131   5.557   3.809   2.591 -0.5249  0.7030  0.3622
 3880TIP3    H233132   5.683   3.802   2.508 -0.6869 -1.0694  0.2266
 3881TIP3   OH233133   2.818   2.544  11.741 -0.7329 -0.2338  0.2279
 3881TIP3    H133134   2.871   2.475  11.782  0.1928  0.9207  1.0201
 3881TIP3    H233135   2.767   2.582  11.812 -0.1910  0.8322  0.0588
 3882TIP3   OH233136   3.952   1.715   2.590  0.2736 -0.7681 -0.6930
 3882TIP3    H133137   4.028   1.712   2.649  0.0789 -0.6862 -0.4326
 3882TIP3    H233138   3.953   1.630   2.546 -0.5214 -1.4987  0.6358
 3883TIP3   OH233139   2.525   1.912  13.055  0.0476 -0.2109 -0.3173
 3883TIP3    H133140   2.573   1.845  13.104 -0.2286  0.5718  1.0487
 3883TIP3    H233141   2.583   1.988  13.055 -0.7887  0.4455  0.5466
 3884TIP3   OH233142   0.888   6.494  13.267  0.7772  0.3062 -0.0257
 3884TIP3    H133143   0.941   6.445  13.330  1.5875 -0.6999 -1.4070
 3884TIP3    H233144   0.801   6.456  13.274  1.1040 -0.4963 -0.1974
 3885TIP3   OH233145   6.995   5.044  12.558 -0.5197  0.5652 -0.5640
 3885TIP3    H133146   6.929   5.026  12.625  2.0381 -1.9475  1.5441
 3885TIP3    H233147   7.049   5.114  12.595  0.8163 -0.7321  0.0374
 3886TIP3   OH233148   6.774   0.917  14.379 -0.1278 -0.0054 -0.2810
 3886TIP3    H133149   6.776   1.009  14.350  0.2964  0.2184  0.4228
 3886TIP3    H233150   6.764   0.923  14.474 -0.1646 -0.6937 -0.2428
 3887TIP3   OH233151   1.702   5.760  12.926  0.1393  0.0092 -0.5688
 3887TIP3    H133152   1.718   5.852  12.950  0.0161  0.2902 -1.5221
 3887TIP3    H233153   1.756   5.710  12.987 -1.1258  0.6195  1.1329
 3888TIP3   OH233154   0.893   6.132  15.258  0.3038  0.5351 -0.0891
 3888TIP3    H133155   0.952   6.069  15.217 -1.5981 -2.3690  1.2740
 3888TIP3    H233156   0.811   6.123  15.210  0.0445  2.2915 -0.0537
 3889TIP3   OH233157   5.945   3.631  11.207  0.0468  0.3119 -0.1225
 3889TIP3    H133158   5.902   3.641  11.292 -0.1466  0.3284 -0.2201
 3889TIP3    H233159   5.873   3.608  11.148 -0.4928  3.6639 -1.0043
 3890TIP3   OH233160   7.052   0.665  13.207  0.1900  0.0334 -0.3721
 3890TIP3    H133161   7.052   0.735  13.142 -3.1795 -1.4490 -2.1907
 3890TIP3    H233162   7.028   0.587  13.158 -3.0073 -1.1095  2.6188
 3891TIP3   OH233163   5.474   3.200   0.460  0.2925 -0.4395 -0.5962
 3891TIP3    H133164   5.426   3.173   0.382 -0.1276  0.6186 -0.7251
 3891TIP3    H233165   5.538   3.264   0.428  0.2900 -0.1920 -0.1131
 3892TIP3   OH233166   1.213   1.013  14.072  0.2592  0.2886  0.9189
 3892TIP3    H133167   1.156   0.942  14.042 -0.2125  1.0639 -0.0540
 3892TIP3    H233168   1.277   0.969  14.128 -0.7125 -0.7402  1.2706
 3893TIP3   OH233169   7.251   3.969  13.063  0.4070  1.0401 -0.3526
 3893TIP3    H133170   7.346   3.960  13.061  0.3113 -0.1532 -0.5037
 3893TIP3    H233171   7.219   3.900  13.005 -0.6909 -1.5415  2.9379
 3894TIP3   OH233172   0.779   2.084  14.355  0.2506  0.0509 -0.9189
 3894TIP3    H133173   0.784   1.988  14.351  0.4721 -0.0118  0.4961
 3894TIP3    H233174   0.712   2.107  14.291 -1.2290 -1.2095  0.1140
 3895TIP3   OH233175   4.264   1.327   3.668  0.2346 -0.0122  0.3888
 3895TIP3    H133176   4.311   1.394   3.718 -0.5760  1.5012 -0.7819
 3895TIP3    H233177   4.291   1.342   3.577 -1.6051  0.1597 -0.1660
 3896TIP3   OH233178   1.522   2.795  12.692  0.3412 -0.5830  0.2415
 3896TIP3    H133179   1.500   2.845  12.771 -0.6839 -1.4788  0.5378
 3896TIP3    H233180   1.440   2.753  12.666  0.5001  0.1741 -1.6699
 3897TIP3   OH233181   4.716   5.048  10.340  0.1958 -0.2885  0.4803
 3897TIP3    H133182   4.736   5.017  10.428  0.2406  0.0805  0.6008
 3897TIP3    H233183   4.761   4.988  10.282  1.5244  0.4241  0.7366
 3898TIP3   OH233184   6.803   6.542  11.259  0.3370 -0.3152 -0.0323
 3898TIP3    H133185   6.797   6.552  11.354  1.0060 -0.4415  0.0332
 3898TIP3    H233186   6.781   6.450  11.243 -0.8960 -0.0202 -0.1228
 3899TIP3   OH233187   6.678   0.386   9.800  0.4117 -0.1611  0.7401
 3899TIP3    H133188   6.628   0.340   9.732  0.9376 -1.9256  1.4912
 3899TIP3    H233189   6.761   0.408   9.757  0.1603  0.0891  0.3768
 3900TIP3   OH233190   0.512   3.367  12.145  0.2998 -0.2868 -0.0890
 3900TIP3    H133191   0.459   3.287  12.140 -0.5600  0.2880 -0.2978
 3900TIP3    H233192   0.448   3.438  12.141  0.9319  0.4072  1.4524
 3901TIP3   OH233193   5.169   2.080   1.616 -0.0414 -0.2346  0.5389
 3901TIP3    H133194   5.192   2.146   1.550 -1.3564  0.9456  1.2068
 3901TIP3    H233195   5.253   2.058   1.657  0.5224  0.5042 -0.1573
 3902TIP3   OH233196   7.035   4.054  13.427 -0.6251  0.2647  0.3826
 3902TIP3    H133197   6.960   4.012  13.470 -0.5440  0.4785  0.7405
 3902TIP3    H233198   7.067   4.117  13.492  0.9964 -1.1002  0.9743
 3903TIP3   OH233199   1.485   4.892  12.809  0.0585 -0.7160  0.2814
 3903TIP3    H133200   1.430   4.874  12.733 -0.1679 -0.3275  0.3487
 3903TIP3    H233201   1.468   4.820  12.870  1.1612 -1.6943 -0.5292
 3904TIP3   OH233202   6.114   3.099  12.591  0.1562  0.1818 -0.0118
 3904TIP3    H133203   6.039   3.045  12.564  0.5738 -0.4612  0.1030
 3904TIP3    H233204   6.153   3.052  12.664  0.7380  0.4678 -0.1326
 3905TIP3   OH233205   2.863   5.906  10.450 -0.8798 -0.0980 -0.7385
 3905TIP3    H133206   2.804   5.981  10.461 -0.2548  0.2170  0.6249
 3905TIP3    H233207   2.941   5.944  10.410 -0.9947 -0.2423 -1.1081
 3906TIP3   OH233208   7.250   1.198  13.299  0.4013  0.3992 -0.7830
 3906TIP3    H133209   7.160   1.172  13.322  1.6121 -2.8980  0.7893
 3906TIP3    H233210   7.246   1.217  13.205 -1.6641 -1.1082 -1.0749
 3907TIP3   OH233211   1.500   0.020  11.258 -0.4650 -0.0321 -0.8157
 3907TIP3    H133212   1.479  -0.062  11.302 -2.0655  0.5733 -0.3694
 3907TIP3    H233213   1.480   0.088  11.323  2.6627  0.7050 -0.4502
 3908TIP3   OH233214   5.893   3.152   0.058  0.1064  0.2347  0.2297
 3908TIP3    H133215   5.858   3.064   0.077  1.0697 -0.5870 -1.5691
 3908TIP3    H233216   5.914   3.150  -0.035 -0.8528  2.7704 -0.1172
 3909TIP3   OH233217   0.330   6.251  11.172 -0.2036 -0.6905 -0.1690
 3909TIP3    H133218   0.258   6.275  11.113 -0.8735  1.3854  1.3819
 3909TIP3    H233219   0.291   6.190  11.234 -0.3110 -0.4717 -0.0221
 3910TIP3   OH233220   7.093   2.671   9.597  0.0145  0.2721  0.6156
 3910TIP3    H133221   7.142   2.603   9.644  0.6794 -1.6055 -2.5000
 3910TIP3    H233222   7.138   2.752   9.620  1.2067 -0.7104  1.9806
 3911TIP3   OH233223   1.629   4.140  12.018 -0.0673 -0.2746  0.0567
 3911TIP3    H133224   1.668   4.208  12.073  0.3239 -0.5904  0.1768
 3911TIP3    H233225   1.701   4.081  11.998 -0.2846 -0.3523 -0.5108
 3912TIP3   OH233226   1.096   5.093  10.892  0.6608  0.2154 -0.3558
 3912TIP3    H133227   1.184   5.096  10.928  1.1055 -0.8091 -1.2798
 3912TIP3    H233228   1.100   5.023  10.826 -0.7230  0.4509 -0.7174
 3913TIP3   OH233229   5.543   7.200  14.914 -0.3397  0.0952 -0.0506
 3913TIP3    H133230   5.450   7.180  14.920 -0.2885 -0.4475 -0.8582
 3913TIP3    H233231   5.585   7.114  14.901  0.3195  0.2810  0.8128
 3914TIP3   OH233232   2.880   1.521  14.301 -0.6142  0.7593 -0.1319
 3914TIP3    H133233   2.896   1.516  14.395  3.2945  0.5479 -0.6675
 3914TIP3    H233234   2.835   1.439  14.280  1.3008 -0.6980  1.1384
 3915TIP3   OH233235   2.848   6.480  15.152  0.1360  0.4098  0.1120
 3915TIP3    H133236   2.942   6.477  15.166  0.1360 -1.4640 -0.0805
 3915TIP3    H233237   2.828   6.574  15.144  1.9588  0.8409  0.1596
 3916TIP3   OH233238   6.742   3.999   1.281 -0.3225  0.7171  0.3122
 3916TIP3    H133239   6.715   4.024   1.193  1.5544  0.2774 -0.4428
 3916TIP3    H233240   6.724   3.905   1.286 -0.0699  0.6632  0.2403
 3917TIP3   OH233241   3.982   0.220  10.022 -0.0527  0.5612  0.0116
 3917TIP3    H133242   3.943   0.137   9.994 -1.2057  0.3757  1.9279
 3917TIP3    H233243   4.039   0.246   9.950  0.2173 -1.8120 -0.7259
 3918TIP3   OH233244   2.697   1.969   4.301  0.1710 -0.6935  0.2890
 3918TIP3    H133245   2.650   2.037   4.348  0.2258 -0.4256 -0.0406
 3918TIP3    H233246   2.790   1.990   4.315  0.2179 -1.6161  1.5191
 3919TIP3   OH233247   2.382   1.687   9.691 -0.5820  0.0705 -0.0167
 3919TIP3    H133248   2.465   1.727   9.718 -1.4679  1.4995  0.6983
 3919TIP3    H233249   2.398   1.656   9.602  0.9088 -0.2707  0.3439
 3920TIP3   OH233250   2.579   6.501  10.688  0.6417  0.2122  0.2547
 3920TIP3    H133251   2.572   6.561  10.763  3.2001  0.5071  0.3693
 3920TIP3    H233252   2.489   6.491  10.656 -0.0593  3.0835  1.0301
 3921TIP3   OH233253   5.204   6.887  11.673  0.4733  0.2804 -0.6404
 3921TIP3    H133254   5.268   6.912  11.740  1.1277  2.3439 -1.9543
 3921TIP3    H233255   5.257   6.863  11.597 -0.2532 -2.3195 -0.4076
 3922TIP3   OH233256   6.810   0.100  10.599 -0.0364  0.1242  0.1247
 3922TIP3    H133257   6.809   0.189  10.562 -1.7592  0.4319  0.7865
 3922TIP3    H233258   6.901   0.085  10.623  0.5910  1.0428 -1.5611
 3923TIP3   OH233259   3.847   7.193  14.013 -0.4198  0.4387  0.2135
 3923TIP3    H133260   3.791   7.191  13.935  1.0478  2.1842 -0.9757
 3923TIP3    H233261   3.805   7.256  14.071 -0.2531  0.9562 -0.2222
 3924TIP3   OH233262   5.797   6.805  11.074 -0.3182  0.1656  0.2398
 3924TIP3    H133263   5.776   6.832  10.984  0.3216  2.6559  0.7536
 3924TIP3    H233264   5.718   6.762  11.105 -1.5740  1.6919 -0.6592
 3925TIP3   OH233265   3.844   4.901  11.690 -0.3249  0.2319  0.0790
 3925TIP3    H133266   3.932   4.866  11.700 -0.6993 -0.8805 -0.4244
 3925TIP3    H233267   3.856   4.996  11.691  0.5476  0.1876  3.0186
 3926TIP3   OH233268   6.090   0.972  11.374 -0.4304  0.4569  0.3464
 3926TIP3    H133269   6.150   0.990  11.302 -0.7920 -2.4229 -0.8166
 3926TIP3    H233270   6.145   0.969  11.452  0.2336  1.9015 -0.0356
 3927TIP3   OH233271   2.347   6.033   1.100  0.7541 -0.0825 -0.3881
 3927TIP3    H133272   2.426   5.983   1.082  1.8135  1.6499 -0.7715
 3927TIP3    H233273   2.370   6.090   1.173  0.1204  0.9744 -0.9925
 3928TIP3   OH233274   4.449   1.045  13.814  0.3752 -0.1967 -0.1317
 3928TIP3    H133275   4.460   1.139  13.794  2.0551 -0.2621  0.3373
 3928TIP3    H233276   4.414   1.044  13.902 -0.3089 -0.0083 -0.3948
 3929TIP3   OH233277   5.998   3.300  14.865  0.2462 -0.0258 -0.0902
 3929TIP3    H133278   6.083   3.292  14.821  0.7874  2.8706  0.2029
 3929TIP3    H233279   5.936   3.260  14.804  1.6717 -1.2497 -0.8074
 3930TIP3   OH233280   5.501   1.725  12.961 -0.2997  0.2740  0.1793
 3930TIP3    H133281   5.488   1.751  13.053 -0.5032  1.2360 -0.1174
 3930TIP3    H233282   5.427   1.666  12.943 -0.2282  0.0296  0.6436
 3931TIP3   OH233283   0.246   6.645  11.097  0.1272  0.4867  0.0726
 3931TIP3    H133284   0.329   6.663  11.053  1.9729 -1.2260  2.5356
 3931TIP3    H233285   0.238   6.715  11.163 -0.4090  0.6492 -0.1573
 3932TIP3   OH233286   0.529   2.171  13.845 -0.6822 -0.0065 -0.1531
 3932TIP3    H133287   0.466   2.205  13.782  1.6412  0.1810 -2.5757
 3932TIP3    H233288   0.614   2.203  13.814  0.7241 -0.8411  2.4947
 3933TIP3   OH233289   4.843   1.344   9.597 -0.5300 -0.1363 -0.1350
 3933TIP3    H133290   4.919   1.377   9.550  0.3981  1.7020  2.4355
 3933TIP3    H233291   4.853   1.249   9.594  2.2644  0.0416  0.5938
 3934TIP3   OH233292   6.632   4.243   0.122 -0.1450  0.0099 -0.0645
 3934TIP3    H133293   6.565   4.226   0.187 -0.9178  0.8608 -0.6138
 3934TIP3    H233294   6.622   4.174   0.057 -1.3726  0.8669 -0.8171
 3935TIP3   OH233295   2.824   7.091  11.107 -0.2201 -0.4026 -0.0494
 3935TIP3    H133296   2.781   7.174  11.088  1.4176  0.3249 -0.7730
 3935TIP3    H233297   2.811   7.079  11.201  0.0384  1.0115  0.1976
 3936TIP3   OH233298   1.013   1.525  10.417 -0.6836 -0.0161  0.0405
 3936TIP3    H133299   1.071   1.461  10.459 -0.8043 -0.7935 -0.9261
 3936TIP3    H233300   0.945   1.472  10.375 -0.2751  0.6779 -1.5674
 3937TIP3   OH233301   3.345   0.929  14.598  0.1982  0.0437  0.1068
 3937TIP3    H133302   3.366   0.937  14.505  1.3052 -1.5399  0.1903
 3937TIP3    H233303   3.249   0.923  14.600  0.1973 -0.5205 -0.9906
 3938TIP3   OH233304   1.108   4.666  13.538  0.1387  0.1638 -0.0364
 3938TIP3    H133305   1.176   4.626  13.592  0.1902 -0.9783 -0.9249
 3938TIP3    H233306   1.156   4.709  13.467 -0.0548 -0.4285 -0.5260
 3939TIP3   OH233307   2.618   3.487  12.657 -0.0043 -0.3544  0.3878
 3939TIP3    H133308   2.627   3.571  12.702  1.1319 -1.7559  2.9536
 3939TIP3    H233309   2.619   3.421  12.726 -0.4510 -2.5510 -1.5469
 3940TIP3   OH233310   2.859   1.346   0.846  0.5101 -0.3021 -0.1393
 3940TIP3    H133311   2.896   1.262   0.820  1.3788  0.0607 -0.1037
 3940TIP3    H233312   2.773   1.324   0.883  1.0360 -1.2571  0.5509
 3941TIP3   OH233313   1.837   6.687  13.593 -0.0633  0.2061 -0.6126
 3941TIP3    H133314   1.916   6.717  13.639  0.4927 -0.7030 -0.9438
 3941TIP3    H233315   1.857   6.702  13.501 -0.4586  0.3734 -0.6711
 3942TIP3   OH233316   3.017   2.729   3.639  0.1693 -0.2061 -0.0552
 3942TIP3    H133317   2.970   2.646   3.640  1.5393 -1.0667 -1.7156
 3942TIP3    H233318   3.027   2.750   3.546  2.0073  0.5248  0.2556
 3943TIP3   OH233319   1.547   5.781  10.558  0.0947 -0.3767 -0.4746
 3943TIP3    H133320   1.536   5.693  10.594 -1.8405  0.2774  0.6789
 3943TIP3    H233321   1.620   5.818  10.608 -1.4908 -0.0635  1.7602
 3944TIP3   OH233322   1.861   2.043   9.799  0.1132  0.3361  0.2858
 3944TIP3    H133323   1.897   2.124   9.835 -0.0135  0.1138  0.9396
 3944TIP3    H233324   1.766   2.055   9.805  0.0789  0.5460 -0.5647
 3945TIP3   OH233325   3.013   4.541  11.534  0.2754  0.3243  0.0578
 3945TIP3    H133326   2.965   4.622  11.520 -0.2568  0.2149  1.1296
 3945TIP3    H233327   2.951   4.484  11.580  1.0456 -0.2361  0.4279
 3946TIP3   OH233328   3.004   0.501  11.416  0.7312 -0.5636 -0.8354
 3946TIP3    H133329   2.921   0.527  11.456  0.6899  0.6724 -1.6469
 3946TIP3    H233330   3.070   0.517  11.483  0.4666 -0.1684 -0.6684
 3947TIP3   OH233331   5.359   6.674   4.836 -0.4854  0.5844 -0.5412
 3947TIP3    H133332   5.381   6.764   4.813  0.1834  1.1224  1.9206
 3947TIP3    H233333   5.428   6.622   4.796 -0.9784  1.0867 -2.1529
 3948TIP3   OH233334   2.668   5.098  11.883 -0.0825 -0.0321 -0.2943
 3948TIP3    H133335   2.745   5.045  11.905 -1.2443 -1.6909 -0.0691
 3948TIP3    H233336   2.594   5.043  11.906 -1.3564  1.2235 -1.2413
 3949TIP3   OH233337   0.194   6.646  12.134 -0.0969 -0.2150  0.1019
 3949TIP3    H133338   0.170   6.716  12.195 -2.4229  0.5512 -1.5358
 3949TIP3    H233339   0.122   6.643  12.071  1.8691 -1.3428 -2.2885
 3950TIP3   OH233340   6.013   6.473  13.372  0.0218  0.0831  0.7741
 3950TIP3    H133341   5.994   6.379  13.376  0.9428 -0.1129  0.8036
 3950TIP3    H233342   6.108   6.477  13.367  0.0386  1.0482  1.6844
 3951TIP3   OH233343   4.755   0.270  10.044 -0.1607 -0.5171 -0.4494
 3951TIP3    H133344   4.832   0.272  10.100 -1.0524 -0.5675  0.8208
 3951TIP3    H233345   4.721   0.181  10.052 -2.2525  0.3807  1.7608
 3952TIP3   OH233346   1.896   4.456  14.812  0.2522 -0.2826  0.3787
 3952TIP3    H133347   1.913   4.550  14.820 -0.5706 -0.2479  2.4225
 3952TIP3    H233348   1.806   4.450  14.782  0.1243 -0.3943  0.7739
 3953TIP3   OH233349   3.855   6.495  11.084  0.4439  0.2531 -0.2926
 3953TIP3    H133350   3.887   6.516  10.996  0.2224 -1.5176 -0.8481
 3953TIP3    H233351   3.760   6.496  11.076  0.3980 -1.9685 -0.6823
 3954TIP3   OH233352   4.520   1.776   9.864 -0.5568 -0.0889  0.0601
 3954TIP3    H133353   4.594   1.780   9.804 -0.5742 -1.6978 -0.1003
 3954TIP3    H233354   4.457   1.718   9.822 -1.5266  0.5137  0.6254
 3955TIP3   OH233355   1.474   4.561  14.924 -0.2937 -0.1237  0.1534
 3955TIP3    H133356   1.473   4.467  14.906 -0.1773  0.0103 -0.5919
 3955TIP3    H233357   1.567   4.583  14.930 -0.2663  0.1917 -1.1116
 3956TIP3   OH233358   1.771   1.601   1.837 -0.1811  0.1309  0.2503
 3956TIP3    H133359   1.841   1.537   1.824 -0.8620 -0.4025 -0.9098
 3956TIP3    H233360   1.803   1.658   1.907  2.3390  1.2022 -1.6500
 3957TIP3   OH233361   4.040   7.092  11.936 -0.7375  0.1548 -0.0996
 3957TIP3    H133362   4.001   7.175  11.967 -0.9438  0.0906 -0.1858
 3957TIP3    H233363   3.992   7.072  11.855  0.4210  0.8035 -0.9824
 3958TIP3   OH233364   0.641   5.658  12.835 -0.1221 -0.1855  0.1384
 3958TIP3    H133365   0.571   5.606  12.797 -0.2089  0.6221 -0.8520
 3958TIP3    H233366   0.700   5.594  12.875  0.4602 -1.1927 -2.1867
 3959TIP3   OH233367   3.477   3.901   3.641 -0.1323 -0.4160  0.2126
 3959TIP3    H133368   3.437   3.944   3.566  0.3146  0.1281  0.2786
 3959TIP3    H233369   3.409   3.843   3.675  0.2655 -2.1221 -1.7304
 3960TIP3   OH233370   5.767   5.330  13.567 -0.2177 -0.1717  0.4058
 3960TIP3    H133371   5.836   5.390  13.594  0.1812 -0.9821  1.2296
 3960TIP3    H233372   5.711   5.321  13.644 -0.9096  0.0103 -0.0654
 3961TIP3   OH233373   3.659   2.406  10.655 -0.1256 -0.1560  0.6213
 3961TIP3    H133374   3.733   2.453  10.694  0.4131 -0.3759 -0.1109
 3961TIP3    H233375   3.624   2.466  10.589 -0.4716 -0.1402  0.8135
 3962TIP3   OH233376   0.313   1.069  11.616 -0.2862  0.2371  0.2569
 3962TIP3    H133377   0.313   1.165  11.608 -2.1102  0.1895 -0.8511
 3962TIP3    H233378   0.398   1.042  11.580  0.2978  1.4390  0.6929
 3963TIP3   OH233379   5.768   5.262  10.314  0.3135  0.6812  0.0442
 3963TIP3    H133380   5.842   5.321  10.306  0.6532  0.2997  0.3282
 3963TIP3    H233381   5.803   5.185  10.359 -0.0854  0.2039 -0.4461
 3964TIP3   OH233382   1.646   6.404  10.455  0.8324  0.0925  0.0483
 3964TIP3    H133383   1.683   6.376  10.538  0.3768  0.5530  0.4104
 3964TIP3    H233384   1.558   6.366  10.454  0.5511  0.7365  0.1285
 3965TIP3   OH233385   4.746   0.538  14.832  0.8691 -0.2486 -0.2934
 3965TIP3    H133386   4.714   0.624  14.803  1.4260  0.7918  1.9523
 3965TIP3    H233387   4.751   0.545  14.928  0.6542 -2.9048 -0.0068
 3966TIP3   OH233388   4.039   3.091  13.491  0.4119 -0.4766  0.3507
 3966TIP3    H133389   3.954   3.049  13.503 -0.7341  1.4590 -0.5207
 3966TIP3    H233390   4.029   3.177  13.530  2.0477 -0.2742  0.3796
 3967TIP3   OH233391   4.567   7.041  15.100 -0.0463  0.0804 -0.1522
 3967TIP3    H133392   4.523   7.022  15.183  0.2687 -1.6888 -0.3522
 3967TIP3    H233393   4.636   6.975  15.094  1.8289  1.9531 -0.4749
 3968TIP3   OH233394   1.887   3.444  11.397  0.4764 -0.1974  0.3862
 3968TIP3    H133395   1.920   3.369  11.347 -0.9728 -0.7566  0.1889
 3968TIP3    H233396   1.939   3.518  11.367  2.0351 -1.1468  0.6847
 3969TIP3   OH233397   5.037   0.666   0.250  0.5837  0.7617  0.6258
 3969TIP3    H133398   4.942   0.658   0.259  0.5807  2.0686  2.2477
 3969TIP3    H233399   5.058   0.617   0.171 -1.1737 -1.3059  1.3488
 3970TIP3   OH233400   2.362   3.557   0.028  0.1008  0.1129 -0.0769
 3970TIP3    H133401   2.440   3.593   0.069 -0.8054 -0.0461  1.8852
 3970TIP3    H233402   2.334   3.487   0.087 -0.4004 -1.1847 -1.7870
 3971TIP3   OH233403   1.443   7.233   9.895 -0.2281 -0.5265  0.3864
 3971TIP3    H133404   1.445   7.271   9.983 -1.3193 -0.0792  0.2388
 3971TIP3    H233405   1.525   7.261   9.855 -0.2292  0.2272  0.8767
 3972TIP3   OH233406   7.046   0.909  14.448  0.5186  0.1653  0.2591
 3972TIP3    H133407   7.037   0.846  14.520  0.9675 -0.5009 -0.2563
 3972TIP3    H233408   6.964   0.901  14.400  0.2958  0.4731  0.5839
 3973TIP3   OH233409   6.474   5.703  11.197  0.6176  0.6182 -0.2228
 3973TIP3    H133410   6.558   5.750  11.194  1.8403 -1.4920 -1.8149
 3973TIP3    H233411   6.418   5.751  11.135  0.4223  2.3397  1.2167
 3974TIP3   OH233412   2.034   3.870   1.496  0.9041 -0.0462  0.3770
 3974TIP3    H133413   2.056   3.874   1.588 -0.5517 -1.3600  0.8242
 3974TIP3    H233414   1.970   3.799   1.489 -0.8872  1.5963 -1.2351
 3975TIP3   OH233415   5.112   0.993  13.202  0.0198  0.0957 -0.2301
 3975TIP3    H133416   5.103   0.898  13.207  2.5085 -0.1609  1.3524
 3975TIP3    H233417   5.022   1.026  13.204 -0.8789 -2.1758  0.8084
 3976TIP3   OH233418   4.151   5.694  10.754  0.2869  0.0005 -0.2466
 3976TIP3    H133419   4.212   5.686  10.828 -1.6425 -1.3931  1.2748
 3976TIP3    H233420   4.206   5.725  10.682  2.4993  0.2293  1.4219
 3977TIP3   OH233421   3.804   4.952   3.653  0.0410 -0.2773  0.4579
 3977TIP3    H133422   3.744   5.027   3.649 -0.6709 -0.7721  1.4014
 3977TIP3    H233423   3.752   4.878   3.621  0.5959 -0.4639 -0.0356
 3978TIP3   OH233424   3.386   1.070   0.758 -0.4938  1.1070 -0.1120
 3978TIP3    H133425   3.298   1.051   0.726 -0.5564  2.0376 -0.5238
 3978TIP3    H233426   3.379   1.156   0.800 -0.2651  0.1866  1.8774
 3979TIP3   OH233427   3.205   7.023  13.761  0.8645  0.1573  0.0664
 3979TIP3    H133428   3.274   7.083  13.787  0.3815 -0.3215  2.8301
 3979TIP3    H233429   3.144   7.076  13.710  1.8826  1.2640 -0.0321
 3980TIP3   OH233430   4.439   6.128  13.600 -0.0630  0.1056  0.2683
 3980TIP3    H133431   4.451   6.034  13.604 -1.2110 -0.0402  0.6449
 3980TIP3    H233432   4.418   6.153  13.690 -1.7435  0.4202 -0.1851
 3981TIP3   OH233433   5.911   4.203  12.215  0.4148  0.3497 -0.1123
 3981TIP3    H133434   5.831   4.234  12.172  0.9706  2.8653  0.4917
 3981TIP3    H233435   5.898   4.109  12.226 -1.8889  0.4813 -1.1865
 3982TIP3   OH233436   3.996   6.352  15.086 -0.1238  0.3177  0.0130
 3982TIP3    H133437   4.001   6.440  15.049 -2.0133  0.2445 -0.4800
 3982TIP3    H233438   4.083   6.315  15.068  0.4211  1.7706 -0.5330
 3983TIP3   OH233439   0.228   6.566   0.127 -0.4177 -0.0322  0.0917
 3983TIP3    H133440   0.242   6.642   0.183  0.2164 -0.9330  1.2105
 3983TIP3    H233441   0.242   6.491   0.185  1.6032 -1.0204 -1.5449
 3984TIP3   OH233442   6.897   2.306   9.784 -0.3864  0.3451  0.0063
 3984TIP3    H133443   6.810   2.273   9.761 -1.3553  2.4126  0.4771
 3984TIP3    H233444   6.950   2.290   9.705 -1.6308  0.5106 -0.9034
 3985TIP3   OH233445   4.788   4.929  15.051  0.2760  0.8777  0.1073
 3985TIP3    H133446   4.799   4.858  14.988 -1.6861 -0.0940  0.7696
 3985TIP3    H233447   4.751   4.888  15.129  0.0854  2.4607  0.9119
 3986TIP3   OH233448   4.081   0.272  15.305 -0.1783  0.8487  0.5078
 3986TIP3    H133449   4.104   0.300  15.394  0.4804 -0.2473  0.7032
 3986TIP3    H233450   3.988   0.249  15.310 -0.0882  0.5622  0.9869
 3987TIP3   OH233451   2.423   5.835  11.768  0.3085  0.5171 -0.4001
 3987TIP3    H133452   2.452   5.750  11.802 -0.3596  0.3583 -0.2195
 3987TIP3    H233453   2.335   5.819  11.736  0.4647  0.9698 -1.0658
 3988TIP3   OH233454   4.632   0.817  11.091 -0.1755 -0.1208  0.0741
 3988TIP3    H133455   4.636   0.795  10.998  0.1189  1.0119 -0.1902
 3988TIP3    H233456   4.723   0.809  11.122 -0.2735 -0.5016  0.2737
 3989TIP3   OH233457   6.135   1.339   5.259  0.0040  0.4661  0.1428
 3989TIP3    H133458   6.185   1.419   5.277  1.8212 -1.0948  2.6316
 3989TIP3    H233459   6.196   1.283   5.211 -0.5331 -0.1802  0.2083
 3990TIP3   OH233460   1.223   2.734  13.912 -0.8423 -0.7578 -0.1166
 3990TIP3    H133461   1.139   2.701  13.882 -0.0304 -3.0495 -0.0712
 3990TIP3    H233462   1.284   2.662  13.897  0.9420  0.4983  0.6981
 3991TIP3   OH233463   6.970   0.783  10.080  0.4387  1.2163 -0.1389
 3991TIP3    H133464   6.987   0.775   9.987  0.3526  1.0159 -0.1398
 3991TIP3    H233465   6.931   0.870  10.091  0.3094  1.1789 -0.3107
 3992TIP3   OH233466   3.060   6.469  13.098 -0.3905 -0.1086 -0.1988
 3992TIP3    H133467   3.124   6.442  13.032  0.5025 -1.5445  1.1876
 3992TIP3    H233468   3.099   6.547  13.138  0.2434 -0.6424  0.2496
 3993TIP3   OH233469   1.397   3.677  10.191 -0.1357  0.4786  0.1717
 3993TIP3    H133470   1.459   3.606  10.203  0.0610  0.6623  0.2516
 3993TIP3    H233471   1.399   3.726  10.273  3.1386  3.2734 -1.2868
 3994TIP3   OH233472   1.742   2.891  12.531 -0.5681 -0.2380  0.0460
 3994TIP3    H133473   1.664   2.866  12.579 -1.2876  1.4291 -0.1791
 3994TIP3    H233474   1.768   2.812  12.484 -1.1745 -1.2543  1.3597
 3995TIP3   OH233475   1.196   2.348  11.342  0.1372 -0.0865 -0.5064
 3995TIP3    H133476   1.124   2.329  11.403  0.4620 -1.0822 -0.4211
 3995TIP3    H233477   1.155   2.403  11.274 -0.6344 -0.3793 -0.2960
 3996TIP3   OH233478   6.819   1.607  12.351  0.2498  0.0074  0.1313
 3996TIP3    H133479   6.864   1.673  12.403  1.2292  1.0350 -1.9081
 3996TIP3    H233480   6.767   1.657  12.288 -2.0618 -1.1795  0.9699
 3997TIP3   OH233481   5.959   5.751   2.801  0.4173  0.1410  0.6400
 3997TIP3    H133482   6.004   5.750   2.717 -1.1495 -1.2004 -0.2082
 3997TIP3    H233483   6.006   5.687   2.854  1.3687  0.9458  0.8012
 3998TIP3   OH233484   1.814   3.317  13.636 -0.0734 -0.3225  0.5013
 3998TIP3    H133485   1.900   3.337  13.673  0.1555 -0.7135  0.1957
 3998TIP3    H233486   1.793   3.230  13.671 -1.8221  1.0394  3.1938
 3999TIP3   OH233487   7.013   6.690  10.782 -0.7286  0.7528  0.0715
 3999TIP3    H133488   6.931   6.697  10.732 -0.9949  2.3874  0.6480
 3999TIP3    H233489   6.987   6.649  10.865 -0.5145 -0.8151 -0.6045
 4000TIP3   OH233490   0.926   0.418  14.276 -0.1318  0.1117  0.5292
 4000TIP3    H133491   0.857   0.447  14.216  0.7794 -0.3735 -0.8044
 4000TIP3    H233492   0.938   0.325  14.255  0.9371  0.1952  0.6958
 4001TIP3   OH233493   6.378   3.900  13.282 -0.6564  0.4542  0.1784
 4001TIP3    H133494   6.394   3.989  13.313 -0.2448  0.2231  0.6496
 4001TIP3    H233495   6.461   3.873  13.243 -0.9030  0.4184 -0.3310
 4002TIP3   OH233496   6.675   2.321   0.623  0.2164 -0.5110 -0.0295
 4002TIP3    H133497   6.742   2.342   0.688 -0.2965 -0.3245  0.4461
 4002TIP3    H233498   6.715   2.342   0.539  0.2410  1.0241  0.3415
 4003TIP3   OH233499   3.253   2.685  15.317 -0.3576  0.9217 -0.2372
 4003TIP3    H133500   3.165   2.720  15.307 -0.7053  0.3537  0.7309
 4003TIP3    H233501   3.261   2.666  15.410  0.4407  0.0643 -0.4692
 4004TIP3   OH233502   1.215   1.489  12.326  0.0862 -0.2528 -0.0547
 4004TIP3    H133503   1.166   1.414  12.292  1.9365 -1.5508 -0.0008
 4004TIP3    H233504   1.257   1.527  12.249  0.9816 -0.6912  0.2012
 4005TIP3   OH233505   4.615   2.004  13.038 -0.2559 -0.8627  0.4249
 4005TIP3    H133506   4.539   2.010  13.096 -0.1182 -1.8922  0.7308
 4005TIP3    H233507   4.581   1.962  12.959 -0.0399 -1.2000  0.5092
 4006TIP3   OH233508   3.401   6.385  11.156 -0.2593 -0.4117 -0.6543
 4006TIP3    H133509   3.450   6.440  11.095  0.1533  1.4658  1.2525
 4006TIP3    H233510   3.460   6.374  11.230 -1.1916 -1.6234 -0.0763
 4007TIP3   OH233511   1.876   3.261   2.867 -0.2911 -0.0939  0.2859
 4007TIP3    H133512   1.961   3.230   2.835 -0.8149 -1.3506  0.0639
 4007TIP3    H233513   1.858   3.339   2.815  0.2782 -0.3766 -0.3497
 4008TIP3   OH233514   1.999   5.648  10.954 -0.3470 -0.1611  0.1010
 4008TIP3    H133515   2.093   5.631  10.950 -0.5167 -0.9882 -1.0756
 4008TIP3    H233516   1.988   5.707  11.029  1.4799  2.5129 -1.5534
 4009TIP3   OH233517   5.099   6.471   1.495  0.1041 -0.3476  0.1867
 4009TIP3    H133518   5.015   6.466   1.542 -0.0602 -0.2741 -0.0994
 4009TIP3    H233519   5.107   6.563   1.471  1.1964  0.0600  1.9046
 4010TIP3   OH233520   5.884   5.610  14.711 -0.9971 -0.1744  0.4917
 4010TIP3    H133521   5.827   5.572  14.644 -1.4364  0.4277  0.5235
 4010TIP3    H233522   5.970   5.571  14.693 -1.1580 -0.1847 -0.2853
 4011TIP3   OH233523   0.976   4.483  13.217  0.2810 -0.1120  0.2686
 4011TIP3    H133524   0.966   4.487  13.122 -3.8556 -0.1495  0.4999
 4011TIP3    H233525   0.981   4.574  13.245 -0.1262 -0.0353  0.0967
 4012TIP3   OH233526   3.153   6.165   1.331 -0.8693 -0.3908 -0.6433
 4012TIP3    H133527   3.061   6.156   1.356 -0.7253  0.8511  0.3945
 4012TIP3    H233528   3.154   6.238   1.269 -0.3283  1.0618  1.0077
 4013TIP3   OH233529   3.228   2.033   1.466  0.1574 -0.1888 -0.3837
 4013TIP3    H133530   3.258   1.942   1.464  2.8398  0.6140 -2.1748
 4013TIP3    H233531   3.293   2.078   1.521 -0.3168  0.8937 -0.6901
 4014TIP3   OH233532   0.347   0.646  12.016 -0.3208  0.7852 -0.0015
 4014TIP3    H133533   0.391   0.563  12.000 -0.3173  0.8598 -0.4039
 4014TIP3    H233534   0.267   0.640  11.963 -0.1683  1.1599 -0.2818
 4015TIP3   OH233535   3.793   4.687   0.329 -0.0207  0.1741  0.6591
 4015TIP3    H133536   3.777   4.729   0.413 -1.4307  0.8165  0.1065
 4015TIP3    H233537   3.771   4.754   0.264  0.7297 -0.4088 -0.2247
 4016TIP3   OH233538   0.599   0.460  15.265 -0.3300  0.2335  0.0337
 4016TIP3    H133539   0.593   0.553  15.287 -0.2559  0.7606 -1.9640
 4016TIP3    H233540   0.528   0.446  15.202 -0.1327 -0.9967  0.0643
 4017TIP3   OH233541   1.786   6.074  10.410  0.3536 -0.3365  0.2379
 4017TIP3    H133542   1.852   6.012  10.380  0.7239  0.8220 -1.5383
 4017TIP3    H233543   1.710   6.056  10.355 -0.5554 -1.1276  1.7175
 4018TIP3   OH233544   5.423   3.118  11.770  0.1300 -0.0326 -0.8478
 4018TIP3    H133545   5.365   3.089  11.700  0.4101 -0.7818 -0.7830
 4018TIP3    H233546   5.404   3.059  11.843 -1.3933  1.8156  0.3324
 4019TIP3   OH233547   1.594   2.440   0.019  0.3613 -0.1785  0.0998
 4019TIP3    H133548   1.628   2.476   0.101  0.8738 -0.6893  0.1225
 4019TIP3    H233549   1.615   2.347   0.024  0.4099 -0.2098 -0.6231
 4020TIP3   OH233550   7.082   5.604  10.783  0.2258  0.0074 -0.2211
 4020TIP3    H133551   7.092   5.521  10.830 -0.6289  1.1042  2.0115
 4020TIP3    H233552   7.026   5.581  10.708 -1.0532 -1.2460  1.0455
 4021TIP3   OH233553   4.735   4.248   3.476 -0.1658  0.1074 -0.0105
 4021TIP3    H133554   4.715   4.205   3.393  0.1905 -0.4836  0.2029
 4021TIP3    H233555   4.772   4.178   3.531  1.4015  0.8962 -0.0076
 4022TIP3   OH233556   5.969   0.661   9.709 -0.6964 -0.1720  0.5759
 4022TIP3    H133557   5.948   0.591   9.770  0.4807 -2.4016 -1.4234
 4022TIP3    H233558   5.896   0.663   9.648  0.0009 -0.8109 -0.3098
 4023TIP3   OH233559   0.197   5.058   0.259 -0.5721 -0.3568  0.3378
 4023TIP3    H133560   0.262   5.011   0.207  1.0329  0.6412  1.3701
 4023TIP3    H233561   0.162   4.993   0.319 -0.8291 -0.9878 -0.4679
 4024TIP3   OH233562   1.574   6.165  10.937  1.0324 -0.2381  0.3997
 4024TIP3    H133563   1.630   6.186  11.012  1.0489 -0.3788  0.4269
 4024TIP3    H233564   1.578   6.069  10.930  1.7113 -0.1765 -0.2971
 4025TIP3   OH233565   0.421   6.016  13.121 -0.0330  0.3090 -0.2330
 4025TIP3    H133566   0.412   6.041  13.213  0.4561  0.2260 -0.1607
 4025TIP3    H233567   0.510   6.041  13.098 -0.1578  0.3456 -0.6933
 4026TIP3   OH233568   3.107   4.177  14.057  0.9685  0.4074  0.1148
 4026TIP3    H133569   3.101   4.086  14.086 -0.3248  0.1981 -0.7302
 4026TIP3    H233570   3.177   4.215  14.111  0.2375 -0.5729  1.8383
 4027TIP3   OH233571   5.397   0.255  11.368  0.8780 -0.2982 -0.0150
 4027TIP3    H133572   5.367   0.222  11.453  0.5594 -0.0987 -0.0471
 4027TIP3    H233573   5.446   0.334  11.389  2.6749 -1.3990  0.1703
 4028TIP3   OH233574   7.238   0.948  11.266 -0.5322 -0.2514  0.5199
 4028TIP3    H133575   7.241   1.037  11.302  0.5387  0.0543 -0.2965
 4028TIP3    H233576   7.149   0.918  11.284 -0.8637  0.9314  0.9273
 4029TIP3   OH233577   2.396   0.708  10.100 -0.0461  0.4155  0.2232
 4029TIP3    H133578   2.311   0.746  10.079 -0.6910 -1.1960 -0.2610
 4029TIP3    H233579   2.459   0.764  10.054 -0.7765  1.9100  0.9827
 4030TIP3   OH233580   4.498   1.904  11.249 -0.0925 -0.2399 -0.3333
 4030TIP3    H133581   4.512   1.812  11.230  1.2635 -0.1358  0.0843
 4030TIP3    H233582   4.579   1.947  11.221 -0.4333  0.7224  0.1176
 4031TIP3   OH233583   6.403   5.837  10.633 -0.1201 -0.0835 -0.3919
 4031TIP3    H133584   6.315   5.832  10.671  0.4854  0.7507  1.2134
 4031TIP3    H233585   6.460   5.802  10.702  0.7919 -0.9242 -1.5403
 4032TIP3   OH233586   7.093   4.217   2.303  0.5584  0.0019 -0.0135
 4032TIP3    H133587   7.094   4.191   2.395  1.1767 -0.0792 -0.0397
 4032TIP3    H233588   7.003   4.201   2.275  0.5124 -0.5419  0.4179
 4033TIP3   OH233589   0.449   5.503  15.102  0.0483  0.1482  0.0316
 4033TIP3    H133590   0.494   5.553  15.034 -0.0480 -0.3741 -0.4230
 4033TIP3    H233591   0.519   5.461  15.152  0.0827 -0.2059 -0.3179
 4034TIP3   OH233592   4.345   1.015   0.556 -0.0804 -0.3889 -0.0433
 4034TIP3    H133593   4.365   0.925   0.582 -1.5485 -0.9230 -0.6062
 4034TIP3    H233594   4.345   1.065   0.638  2.3961 -0.5035  0.0959
 4035TIP3   OH233595   1.077   4.397  12.553 -0.2218  0.0841 -0.3661
 4035TIP3    H133596   1.139   4.424  12.485  0.6946 -1.4341 -0.2006
 4035TIP3    H233597   1.067   4.474  12.609  1.0718  0.5497 -0.7377
 4036TIP3   OH233598   5.968   1.200  10.166 -0.3862 -0.1291  0.4780
 4036TIP3    H133599   5.905   1.173  10.233 -0.2569  0.0762  0.6828
 4036TIP3    H233600   6.011   1.119  10.140  0.4598 -0.0464  1.5570
 4037TIP3   OH233601   6.509   5.952  11.744  0.1217 -0.3545 -0.4218
 4037TIP3    H133602   6.498   5.925  11.653 -0.5760  0.4254 -0.5849
 4037TIP3    H233603   6.420   5.952  11.780  0.3171 -0.0232  0.0697
 4038TIP3   OH233604   2.320   3.406  11.712 -0.2282 -0.3385 -0.2294
 4038TIP3    H133605   2.362   3.325  11.740 -0.8537 -0.5608  0.0678
 4038TIP3    H233606   2.283   3.443  11.792  0.4010  0.4542 -0.2889
 4039TIP3   OH233607   3.534   0.259   0.123 -0.0943 -0.0010 -0.2952
 4039TIP3    H133608   3.471   0.201   0.080 -0.6713  0.1320  0.3527
 4039TIP3    H233609   3.557   0.324   0.057 -1.0341  0.2557 -0.3848
 4040TIP3   OH233610   2.302   1.702   1.191  0.2325 -0.2964  0.3962
 4040TIP3    H133611   2.282   1.795   1.194  1.5836  0.0199  0.3546
 4040TIP3    H233612   2.258   1.665   1.267 -0.1012  0.4117  0.5546
 4041TIP3   OH233613   1.309   3.801   4.486  0.6117  0.1333 -0.4722
 4041TIP3    H133614   1.403   3.784   4.481  0.4281 -1.2871  0.3125
 4041TIP3    H233615   1.277   3.738   4.550 -1.0381 -0.1155 -1.4823
 4042TIP3   OH233616   5.802   4.530  10.656  0.0726  0.2305 -0.1250
 4042TIP3    H133617   5.723   4.578  10.680  0.2457 -0.5726  2.4098
 4042TIP3    H233618   5.796   4.448  10.706  2.3773  0.0507 -0.0307
 4043TIP3   OH233619   5.242   0.951   1.341 -0.0220  0.2999 -0.1306
 4043TIP3    H133620   5.278   1.013   1.405 -2.3154  1.6781 -0.0454
 4043TIP3    H233621   5.181   1.003   1.289 -0.4227 -1.4441 -1.5112
 4044TIP3   OH233622   0.371   4.531  15.089 -0.2548 -0.4779 -0.2173
 4044TIP3    H133623   0.460   4.503  15.110  0.5935  1.3044 -1.1971
 4044TIP3    H233624   0.315   4.476  15.143  1.4710 -1.1638  0.9532
 4045TIP3   OH233625   2.101   1.584  15.334 -0.3578  0.7483  0.3469
 4045TIP3    H133626   2.008   1.577  15.354 -0.1421 -0.2014  1.0757
 4045TIP3    H233627   2.104   1.587  15.238 -1.1564  1.1490  0.3284
 4046TIP3   OH233628   0.908   5.619   2.524  0.4398  0.0615  0.5480
 4046TIP3    H133629   0.969   5.546   2.518  1.3147  0.7788  0.3586
 4046TIP3    H233630   0.947   5.676   2.591  0.0912  0.6430  0.2609
 4047TIP3   OH233631   3.506   1.918  10.089 -0.2458  0.5985  0.2822
 4047TIP3    H133632   3.416   1.917  10.121 -0.6464  1.1905 -0.7893
 4047TIP3    H233633   3.506   1.980  10.016  0.3515 -1.5722 -1.6847
 4048TIP3   OH233634   1.740   2.989  13.470 -0.5483 -0.2144  0.0332
 4048TIP3    H133635   1.650   3.005  13.498 -0.0138  1.7311  0.7892
 4048TIP3    H233636   1.792   3.001  13.549  0.5081  0.1279 -0.6962
 4049TIP3   OH233637   3.621   2.684   9.857 -0.1259  0.2289 -0.0968
 4049TIP3    H133638   3.570   2.762   9.837  0.4508  0.8554  0.8450
 4049TIP3    H233639   3.621   2.678   9.952  1.6459  0.3200 -0.0613
 4050TIP3   OH233640   5.345   0.644  13.874 -0.3582 -0.3954 -0.4406
 4050TIP3    H133641   5.296   0.725  13.858  0.3575  0.1858  0.1818
 4050TIP3    H233642   5.425   0.653  13.821  0.6782  0.2570  1.1405
 4051TIP3   OH233643   6.948   4.409  14.451  0.0515 -0.2129 -0.8340
 4051TIP3    H133644   7.035   4.368  14.452  0.3895  0.4948 -0.7027
 4051TIP3    H233645   6.964   4.498  14.419 -0.6469 -0.1191 -0.9306
 4052TIP3   OH233646   2.367   4.601   0.361 -0.1789  0.1027  0.3083
 4052TIP3    H133647   2.451   4.561   0.383  0.0929 -0.0397 -0.9006
 4052TIP3    H233648   2.332   4.631   0.445  1.7078  1.4071  0.6966
 4053TIP3   OH233649   2.380   1.948   1.292 -0.1953 -0.2459  0.0079
 4053TIP3    H133650   2.461   1.896   1.295 -1.6327 -2.6752 -0.5599
 4053TIP3    H233651   2.399   2.018   1.230  1.9465  0.2143  1.0533
 4054TIP3   OH233652   0.823   4.306  10.382 -0.5428 -0.0826  0.2421
 4054TIP3    H133653   0.804   4.348  10.299  0.9728  0.4956  0.1501
 4054TIP3    H233654   0.881   4.233  10.359  1.2552  1.0640  0.8850
 4055TIP3   OH233655   0.703   6.942   0.564  0.0382  0.0815  0.1529
 4055TIP3    H133656   0.695   7.032   0.596 -0.0480 -0.3734  1.4487
 4055TIP3    H233657   0.754   6.950   0.484 -0.6119  1.3666 -0.1631
 4056TIP3   OH233658   1.702   0.304  11.487  0.4701  0.3679 -0.4032
 4056TIP3    H133659   1.736   0.295  11.576 -0.6547 -0.8370 -0.0667
 4056TIP3    H233660   1.769   0.266  11.431  0.5413 -0.2068  0.0722
 4057TIP3   OH233661   2.536   0.398   5.491  0.1545 -0.3507  0.3341
 4057TIP3    H133662   2.542   0.469   5.428  0.2415 -0.6337  0.0206
 4057TIP3    H233663   2.591   0.426   5.565 -0.5414  0.3112  0.6113
 4058TIP3   OH233664   3.997   6.416  10.089  0.0482  0.7325 -0.5873
 4058TIP3    H133665   3.936   6.352  10.127  1.7626 -0.6708 -0.0599
 4058TIP3    H233666   4.055   6.363  10.034 -0.2747  2.2756 -2.5151
 4059TIP3   OH233667   6.989   5.445   9.779 -0.4175  0.3037  0.7511
 4059TIP3    H133668   7.053   5.391   9.826 -0.0479 -0.9152 -1.0725
 4059TIP3    H233669   6.927   5.383   9.743  1.7115  0.5718 -4.0531
 4060TIP3   OH233670   3.233   2.102  12.320 -0.1520  0.5069  0.8148
 4060TIP3    H133671   3.231   2.135  12.230 -2.1804  0.9935  0.9912
 4060TIP3    H233672   3.325   2.082  12.336  0.4341  1.5711 -0.9399
 4061TIP3   OH233673   1.429   2.446  11.061 -0.1300  0.2366  0.2406
 4061TIP3    H133674   1.430   2.468  11.155 -1.0651 -0.7559  0.5051
 4061TIP3    H233675   1.429   2.351  11.059 -0.6524  0.2418 -0.7596
 4062TIP3   OH233676   1.326   0.824  13.522  0.7013  0.3073 -0.2331
 4062TIP3    H133677   1.360   0.882  13.454  0.2363  1.3870  0.4296
 4062TIP3    H233678   1.305   0.742  13.476 -0.4020  1.2859 -1.5466
 4063TIP3   OH233679   0.195   4.660  10.105 -0.1938  0.0673  0.0468
 4063TIP3    H133680   0.175   4.753  10.094  0.2853  0.1897  0.1859
 4063TIP3    H233681   0.221   4.631  10.017  0.1401  0.1862  0.1043
 4064TIP3   OH233682   1.274   2.851  14.845 -0.0658  0.2140  0.1373
 4064TIP3    H133683   1.266   2.826  14.937  1.3812 -1.2279 -0.0961
 4064TIP3    H233684   1.301   2.771  14.801  1.2944  1.3821 -1.2251
 4065TIP3   OH233685   5.369   1.052  14.138 -0.0936 -0.2449  0.0955
 4065TIP3    H133686   5.358   1.053  14.043  0.5737  0.6997  0.0108
 4065TIP3    H233687   5.347   1.142  14.165 -1.7495 -0.8760  1.0217
 4066TIP3   OH233688   2.743   1.343  11.901  0.2280  0.2224 -0.9125
 4066TIP3    H133689   2.698   1.376  11.824  0.5216  0.6855 -0.8901
 4066TIP3    H233690   2.782   1.420  11.942 -0.5361  0.0861  0.1176
 4067TIP3   OH233691   4.689   3.080  14.103  0.1329  0.0634  0.0917
 4067TIP3    H133692   4.756   3.040  14.047  0.8596 -0.9942  1.6302
 4067TIP3    H233693   4.612   3.087  14.047  0.7403 -1.1920 -0.9650
 4068TIP3   OH233694   6.426   5.554  10.313  0.1553 -0.3428  0.0538
 4068TIP3    H133695   6.507   5.604  10.328  0.5595 -0.4871 -1.5428
 4068TIP3    H233696   6.432   5.524  10.223 -1.3261 -1.0491  0.1596
 4069TIP3   OH233697   6.301   5.775  11.519 -0.0246 -0.7178  0.4547
 4069TIP3    H133698   6.377   5.799  11.465  0.1129 -0.7620  0.6276
 4069TIP3    H233699   6.300   5.680  11.518 -0.7567 -0.7169 -0.4887
 4070TIP3   OH233700   3.688   0.752   2.352 -0.2317 -0.0367  0.4528
 4070TIP3    H133701   3.669   0.728   2.261 -1.9836  1.2014  0.4385
 4070TIP3    H233702   3.618   0.709   2.402  1.9953 -2.6341  1.5735
 4071TIP3   OH233703   0.772   3.604  13.986 -0.3114 -0.4964 -0.3559
 4071TIP3    H133704   0.844   3.592  13.924  0.3855 -0.5146  0.4512
 4071TIP3    H233705   0.701   3.640  13.932  0.7379  0.8546 -0.9184
 4072TIP3   OH233706   1.541   5.542  10.096 -0.3870  0.3166 -0.0804
 4072TIP3    H133707   1.610   5.565  10.034  0.9313 -0.1799  1.1473
 4072TIP3    H233708   1.535   5.617  10.154  0.9352 -0.5982  1.3347
 4073TIP3   OH233709   4.186   1.306   9.514  0.1750 -0.1358 -0.3421
 4073TIP3    H133710   4.182   1.368   9.587 -0.1926  1.6434 -1.8157
 4073TIP3    H233711   4.111   1.248   9.528  1.3413 -1.2511  1.8412
 4074TIP3   OH233712   2.481   4.000  12.399  0.2209 -0.4251 -0.1499
 4074TIP3    H133713   2.512   3.985  12.488  2.1743 -1.6276 -0.9446
 4074TIP3    H233714   2.520   4.083  12.373 -0.5188  0.0262  0.1887
 4075TIP3   OH233715   0.233   2.684   0.745 -0.5052 -0.3316 -0.2925
 4075TIP3    H133716   0.316   2.704   0.788 -0.6387  3.0354 -1.2945
 4075TIP3    H233717   0.249   2.701   0.652 -2.0317 -0.6915 -0.6524
 4076TIP3   OH233718   1.187   6.555   4.810  0.4494 -0.6043  0.3838
 4076TIP3    H133719   1.282   6.543   4.812  1.0534  1.7691 -3.4570
 4076TIP3    H233720   1.155   6.479   4.761  0.7598 -0.1732 -0.5171
 4077TIP3   OH233721   0.403   6.082  14.180 -0.1524 -0.3580 -0.3160
 4077TIP3    H133722   0.448   6.167  14.175  0.4546 -0.5847  0.8891
 4077TIP3    H233723   0.400   6.063  14.273 -1.2123 -1.1868 -0.5122
 4078TIP3   OH233724   1.729   7.254  12.235 -0.0671  0.3618  0.4617
 4078TIP3    H133725   1.780   7.293  12.306 -0.2368  0.6360  0.4317
 4078TIP3    H233726   1.688   7.177  12.276  2.1778 -1.2275 -0.0768
 4079TIP3   OH233727   4.234   4.210   0.114 -0.5949  0.4015  0.0515
 4079TIP3    H133728   4.249   4.121   0.081 -1.1672  0.1545  0.4440
 4079TIP3    H233729   4.298   4.220   0.185  0.1646  0.6825 -0.6510
 4080TIP3   OH233730   4.445   2.335  15.339  0.1676 -0.2048 -0.0849
 4080TIP3    H133731   4.537   2.338  15.365  0.4111 -1.6181 -0.6911
 4080TIP3    H233732   4.427   2.242  15.324 -0.9422  0.1955 -1.4753
 4081TIP3   OH233733   3.004   5.214  12.491  0.0383 -0.4843 -0.1549
 4081TIP3    H133734   3.019   5.157  12.567  0.2554 -0.2367 -0.0098
 4081TIP3    H233735   2.927   5.266  12.516  1.0007  0.6631  0.5398
 4082TIP3   OH233736   3.630   5.645   1.466 -0.3353  0.0211  0.1672
 4082TIP3    H133737   3.583   5.566   1.491  1.6909 -1.0215  0.9179
 4082TIP3    H233738   3.564   5.714   1.468 -2.4730 -1.8190 -1.8515
 4083TIP3   OH233739   2.636   4.506   0.416  0.3319  0.4189  0.2774
 4083TIP3    H133740   2.667   4.420   0.388 -1.4364  0.2426 -1.2567
 4083TIP3    H233741   2.685   4.568   0.361  0.4500  0.3254  0.2755
 4084TIP3   OH233742   2.271   6.700  12.903 -0.0220  0.1119  1.3728
 4084TIP3    H133743   2.299   6.743  12.984  2.3383  0.2859  0.5373
 4084TIP3    H233744   2.300   6.610  12.912 -1.7922 -0.4579  1.6373
 4085TIP3   OH233745   2.523   2.217  11.755 -0.3208  0.0166  0.5700
 4085TIP3    H133746   2.542   2.287  11.817  0.0383  0.5857 -0.1724
 4085TIP3    H233747   2.598   2.158  11.762  1.0561  1.4573 -1.2294
 4086TIP3   OH233748   6.122   1.441  12.014 -0.0008  0.5640 -0.0578
 4086TIP3    H133749   6.157   1.495  11.942 -1.0083  0.5546 -0.5733
 4086TIP3    H233750   6.106   1.356  11.974  1.6093 -0.1678  0.7656
 4087TIP3   OH233751   4.079   5.624   0.283  0.8630 -0.1274 -0.1066
 4087TIP3    H133752   4.100   5.718   0.284 -0.0503  0.0884 -0.4588
 4087TIP3    H233753   4.020   5.612   0.357  0.6924 -0.3513 -0.2784
 4088TIP3   OH233754   5.671   7.013  12.491  0.2740 -0.1313 -0.7584
 4088TIP3    H133755   5.702   7.103  12.504 -0.8039  0.2393 -0.6606
 4088TIP3    H233756   5.706   6.965  12.567  1.0542  0.1351 -0.9318
 4089TIP3   OH233757   0.204   0.996  14.063 -0.0492  0.4127 -0.6875
 4089TIP3    H133758   0.146   1.054  14.111  0.5094  0.9503 -0.6554
 4089TIP3    H233759   0.289   1.040  14.064  1.2865 -1.8579  2.1808
 4090TIP3   OH233760   3.248   7.240  15.112 -0.6007 -0.1192 -0.1488
 4090TIP3    H133761   3.301   7.214  15.037  1.4880 -0.2857  1.3113
 4090TIP3    H233762   3.180   7.172  15.118 -1.6374  0.5963 -2.5986
 4091TIP3   OH233763   0.058   3.037  11.302 -0.3848 -0.3156  0.2246
 4091TIP3    H133764   0.009   3.083  11.370  1.0442 -1.1968  1.9415
 4091TIP3    H233765   0.118   3.103  11.266  0.2493 -0.3018  1.2622
 4092TIP3   OH233766   6.284   3.512   1.799 -0.4503 -0.5881  0.1278
 4092TIP3    H133767   6.259   3.581   1.737 -1.5288 -0.8095  0.3077
 4092TIP3    H233768   6.369   3.541   1.834 -0.5830  0.3180 -0.2758
 4093TIP3   OH233769   3.721   2.009   1.564  0.0166 -0.5443 -0.2979
 4093TIP3    H133770   3.785   1.959   1.514 -0.8654  1.1021 -3.3116
 4093TIP3    H233771   3.649   2.025   1.503 -1.8390  0.3970  1.9694
 4094TIP3   OH233772   4.433   6.857  12.742  0.5493  0.0676  0.2591
 4094TIP3    H133773   4.360   6.813  12.699  1.5890 -0.4614 -1.0548
 4094TIP3    H233774   4.475   6.789  12.795  0.3318  0.2690  0.6945
 4095TIP3   OH233775   1.481   2.801   1.005  0.0805  0.6700  0.5018
 4095TIP3    H133776   1.546   2.821   1.073  0.6202 -0.5479  0.3572
 4095TIP3    H233777   1.532   2.770   0.931 -0.6242  0.3719  0.1343
 4096TIP3   OH233778   6.053   0.074   2.045 -0.0414 -0.0106  0.2320
 4096TIP3    H133779   6.091  -0.008   2.074  1.3917  0.8297  0.8052
 4096TIP3    H233780   6.054   0.130   2.122  0.8507  1.1911 -0.6170
 4097TIP3   OH233781   3.925   7.062   9.751  0.2964 -0.2671  0.4781
 4097TIP3    H133782   3.897   7.052   9.660  0.1399  3.1624  0.0354
 4097TIP3    H233783   3.844   7.079   9.799  0.4801 -1.2377  1.1830
 4098TIP3   OH233784   0.756   5.598  11.691  0.2732 -0.1283 -0.3061
 4098TIP3    H133785   0.781   5.691  11.684 -0.9118  0.3820  1.4928
 4098TIP3    H233786   0.700   5.582  11.616 -0.3800  0.9456 -0.0762
 4099TIP3   OH233787   4.620   1.833  11.640 -0.3113 -0.2461 -0.4000
 4099TIP3    H133788   4.547   1.875  11.595 -1.5228 -1.1549  0.6333
 4099TIP3    H233789   4.693   1.840  11.579 -0.7249  2.3473 -0.7000
 4100TIP3   OH233790   1.512   6.632  10.319  0.0033 -0.2948 -0.5224
 4100TIP3    H133791   1.551   6.554  10.359 -1.1922 -0.9369 -0.5482
 4100TIP3    H233792   1.575   6.658  10.251  0.4706 -1.1810 -0.4515
 4101TIP3   OH233793   6.400   4.051   9.794  0.3618  0.3898  0.1045
 4101TIP3    H133794   6.359   4.106   9.860  1.4268 -0.7047  1.7542
 4101TIP3    H233795   6.415   4.110   9.720 -1.6303  1.4534  0.4729
 4102TIP3   OH233796   3.457   5.711  11.094 -0.2527  0.0582 -0.2794
 4102TIP3    H133797   3.535   5.656  11.079 -0.3260 -0.1570  0.1112
 4102TIP3    H233798   3.383   5.652  11.080 -0.3281 -0.0437  0.4957
 4103TIP3   OH233799   3.450   0.354  12.170  0.7794 -0.0729 -0.6548
 4103TIP3    H133800   3.464   0.334  12.263 -0.1179 -1.4150 -0.7786
 4103TIP3    H233801   3.366   0.312  12.149  0.9128  0.3053 -2.0518
 4104TIP3   OH233802   5.538   4.130  11.334 -0.5291 -0.2081  0.0200
 4104TIP3    H133803   5.471   4.101  11.396 -0.0555  3.3188  2.4784
 4104TIP3    H233804   5.512   4.092  11.250 -4.1156 -1.0805  1.3800
 4105TIP3   OH233805   2.752   3.511  14.360  0.4350 -1.0132 -0.1362
 4105TIP3    H133806   2.823   3.448  14.344  0.8734 -0.7582  0.7501
 4105TIP3    H233807   2.750   3.520  14.455  0.6302  0.5883 -0.2636
 4106TIP3   OH233808   2.667   0.564  14.802 -0.4354 -0.1680 -0.7124
 4106TIP3    H133809   2.587   0.552  14.852  0.2701  0.5763  0.6359
 4106TIP3    H233810   2.662   0.654  14.770 -0.8520 -0.6134 -1.9917
 4107TIP3   OH233811   1.514   3.936   1.809 -0.0009 -0.1351  0.5583
 4107TIP3    H133812   1.490   3.914   1.899  2.9929 -0.0994  1.4641
 4107TIP3    H233813   1.481   4.025   1.796  0.5553  0.3178  2.0883
 4108TIP3   OH233814   2.281   3.136  10.826  0.1467 -0.3557  0.2857
 4108TIP3    H133815   2.300   3.042  10.835  3.9094  0.2428  0.4179
 4108TIP3    H233816   2.281   3.152  10.732  3.0343 -0.0762  0.2309
 4109TIP3   OH233817   4.847   6.133   0.166  0.3205  0.6890  0.4347
 4109TIP3    H133818   4.794   6.130   0.087  0.5685 -0.7956  0.2918
 4109TIP3    H233819   4.928   6.178   0.139  0.5986 -0.2233 -0.3006
 4110TIP3   OH233820   3.801   2.171  11.559  0.0753  0.0217  0.0138
 4110TIP3    H133821   3.830   2.231  11.491  2.4321 -1.2458 -0.1856
 4110TIP3    H233822   3.832   2.211  11.641  0.1753 -0.1138  0.0412
 4111TIP3   OH233823   2.040   1.994  13.247 -0.0863 -0.3359 -0.3046
 4111TIP3    H133824   1.990   2.022  13.171  0.6662  0.1378 -0.6407
 4111TIP3    H233825   2.131   2.017  13.225  0.1079  0.0534  0.8442
 4112TIP3   OH233826   5.372   6.099  10.070  0.1636 -0.2257  0.5096
 4112TIP3    H133827   5.347   6.044  10.145 -0.0757  0.1115  0.6784
 4112TIP3    H233828   5.389   6.036  10.000 -1.3486 -0.4623  0.3288
 4113TIP3   OH233829   2.760   7.161  13.134 -0.0124 -0.9780  0.3357
 4113TIP3    H133830   2.745   7.210  13.215 -0.9623 -0.2729 -0.2388
 4113TIP3    H233831   2.677   7.170  13.085  1.0736  0.0414 -1.4397
 4114TIP3   OH233832   4.355   5.793   4.191  0.2777  0.6803  0.1001
 4114TIP3    H133833   4.348   5.705   4.153  0.7355  1.5786 -2.1930
 4114TIP3    H233834   4.348   5.778   4.285  1.0176 -1.8862 -0.1679
 4115TIP3   OH233835   5.963   4.703  10.536 -0.7387 -0.0897  0.2869
 4115TIP3    H133836   5.897   4.656  10.587 -0.1587 -1.2601 -0.0316
 4115TIP3    H233837   5.998   4.768  10.598 -2.0843  0.4663  0.4927
 4116TIP3   OH233838   7.243   2.592  11.626  0.0462  0.5000  0.1197
 4116TIP3    H133839   7.257   2.658  11.694  0.0394  0.6037  0.0205
 4116TIP3    H233840   7.242   2.642  11.544  3.4262  0.0416 -0.3179
 4117TIP3   OH233841   3.238   2.929  11.923 -0.9861 -0.3240 -0.3399
 4117TIP3    H133842   3.258   3.001  11.863 -0.2619 -0.7757 -0.6591
 4117TIP3    H233843   3.146   2.940  11.944 -1.4340 -0.4861 -2.0152
 4118TIP3   OH233844   1.523   4.603   4.385 -0.2179  0.7687 -0.6161
 4118TIP3    H133845   1.466   4.559   4.322 -0.8372  2.5932 -1.4057
 4118TIP3    H233846   1.530   4.541   4.458 -0.5603 -0.8449 -1.8893
 4119TIP3   OH233847   3.729   1.281  11.198 -0.4868  0.1982  0.2582
 4119TIP3    H133848   3.747   1.348  11.132 -1.2455  1.1308  0.9853
 4119TIP3    H233849   3.770   1.314  11.278 -0.9014 -0.1804  0.6311
 4120TIP3   OH233850   5.599   1.098  13.536  0.7329 -0.1675  0.2275
 4120TIP3    H133851   5.522   1.068  13.488 -0.2484 -1.1135  2.2682
 4120TIP3    H233852   5.596   1.194  13.530  0.7779 -0.2482 -1.6997
 4121TIP3   OH233853   5.131   6.124  12.509 -0.2525  0.2022  0.7784
 4121TIP3    H133854   5.195   6.060  12.476 -0.9816  0.5744 -1.5414
 4121TIP3    H233855   5.176   6.208  12.503 -0.4406  0.2890  0.5571
 4122TIP3   OH233856   0.908   6.172  12.335 -0.3036  0.2070  0.1910
 4122TIP3    H133857   0.976   6.192  12.400  0.7279 -1.7989 -0.1826
 4122TIP3    H233858   0.832   6.222  12.364  0.5462  0.4735  2.1457
 4123TIP3   OH233859   5.490   6.588   4.048 -0.2056  0.1872  0.0132
 4123TIP3    H133860   5.496   6.585   4.143 -0.4871  0.8322  0.0577
 4123TIP3    H233861   5.572   6.549   4.017 -0.1709 -0.1389  0.5142
 4124TIP3   OH233862   2.858   4.596   0.741 -0.5578 -0.1053 -0.0422
 4124TIP3    H133863   2.931   4.534   0.742 -0.0876  0.4309  1.3456
 4124TIP3    H233864   2.798   4.561   0.674  0.6633 -0.8862 -0.7696
 4125TIP3   OH233865   4.566   0.521  11.372  0.2888  0.0562 -0.0660
 4125TIP3    H133866   4.522   0.601  11.402  4.7400  1.8798  2.5359
 4125TIP3    H233867   4.544   0.456  11.439 -3.6566 -1.3974 -2.3822
 4126TIP3   OH233868   0.551   4.407  10.970  0.0102 -0.1163 -0.2320
 4126TIP3    H133869   0.473   4.422  10.918  1.3075  2.6907 -1.6257
 4126TIP3    H233870   0.523   4.421  11.060 -1.4211 -0.8542 -0.5427
 4127TIP3   OH233871   2.586   4.290  13.187  0.2591 -0.1787 -0.0101
 4127TIP3    H133872   2.618   4.317  13.100  0.7400 -0.6078  0.0283
 4127TIP3    H233873   2.603   4.196  13.190 -1.1648 -0.4595 -0.0412
 4128TIP3   OH233874   6.458   1.767  12.492 -0.0979  0.2909  0.0398
 4128TIP3    H133875   6.445   1.678  12.523 -2.0839  0.8746  1.0001
 4128TIP3    H233876   6.425   1.767  12.402 -1.3290  0.3447  0.4786
 4129TIP3   OH233877   4.085   0.542  10.416  1.0237  0.1458 -0.0442
 4129TIP3    H133878   4.055   0.496  10.494  1.3309  0.6669  0.3889
 4129TIP3    H233879   4.154   0.486  10.380  1.3097  0.2027  0.4092
 4130TIP3   OH233880   1.587   2.549   0.266 -0.0041  0.0175 -0.0958
 4130TIP3    H133881   1.523   2.619   0.254  1.0105  1.3176  1.5982
 4130TIP3    H233882   1.544   2.487   0.324 -0.4777 -0.1766 -0.6478
 4131TIP3   OH233883   3.353   3.964   2.807  0.2600 -0.6508 -0.3411
 4131TIP3    H133884   3.432   4.015   2.828 -0.0477 -0.2322 -0.1836
 4131TIP3    H233885   3.331   3.920   2.889  1.2478 -2.0618 -0.7923
 4132TIP3   OH233886   2.721   1.183  12.143  0.3430  0.3234  0.2163
 4132TIP3    H133887   2.721   1.200  12.049 -0.3161 -1.9507 -0.2571
 4132TIP3    H233888   2.646   1.233  12.176 -1.6916 -1.6357 -1.1341
 4133TIP3   OH233889   5.122   6.844   0.073 -0.6720 -0.2275  0.5408
 4133TIP3    H133890   5.093   6.910   0.135 -0.0014  0.2384  0.3742
 4133TIP3    H233891   5.108   6.884  -0.013  1.9616  0.7333  0.4631
 4134TIP3   OH233892   1.316   1.892  11.725  0.4459 -0.6587  0.2170
 4134TIP3    H133893   1.252   1.950  11.685 -0.5276 -1.1984  0.9382
 4134TIP3    H233894   1.335   1.932  11.810 -0.0905 -1.2824  0.6390
 4135TIP3   OH233895   3.359   0.309  10.037 -0.4043  0.5029  0.0871
 4135TIP3    H133896   3.416   0.383  10.020 -1.2293  0.9630 -0.8353
 4135TIP3    H233897   3.334   0.278   9.950  0.8727 -1.6487  0.4002
 4136TIP3   OH233898   2.828   6.349  11.882  0.0799  0.1535 -0.1890
 4136TIP3    H133899   2.919   6.321  11.885  0.2951  0.8319 -0.0381
 4136TIP3    H233900   2.804   6.361  11.974  0.3048  1.3612 -0.2598
 4137TIP3   OH233901   4.465   4.763  10.874 -1.3379  0.1643  0.1625
 4137TIP3    H133902   4.543   4.779  10.928 -0.5458 -0.9222 -0.6326
 4137TIP3    H233903   4.457   4.668  10.872 -1.0733  0.1576 -2.0203
 4138TIP3   OH233904   5.881   6.224  12.780  0.1162  0.4137  0.3446
 4138TIP3    H133905   5.942   6.153  12.758 -0.9192 -0.3155 -0.2779
 4138TIP3    H233906   5.937   6.300  12.796  1.1531 -0.1038 -0.6834
 4139TIP3   OH233907   3.160   7.232  12.067 -0.5273  0.8490  0.2202
 4139TIP3    H133908   3.156   7.308  12.125  0.2957  1.3103 -0.3008
 4139TIP3    H233909   3.102   7.255  11.994 -0.9008  0.6290  0.4437
 4140TIP3   OH233910   4.278   6.172  12.351  0.1477  0.3150  0.0250
 4140TIP3    H133911   4.272   6.156  12.445  1.8580 -0.0156  0.1156
 4140TIP3    H233912   4.342   6.108  12.320 -1.5991 -0.7188 -1.6871
 4141TIP3   OH233913   4.530   5.156  12.699 -0.1614  0.9997  0.5513
 4141TIP3    H133914   4.510   5.213  12.773  1.1443  2.6904 -0.3460
 4141TIP3    H233915   4.625   5.162  12.690  0.2482 -2.4103  1.2350
 4142TIP3   OH233916   2.322   5.139  11.838 -0.0570 -0.0081  0.4899
 4142TIP3    H133917   2.383   5.066  11.831  1.2118  0.9402  1.1345
 4142TIP3    H233918   2.277   5.125  11.921 -0.8229 -0.7580 -0.0289
 4143TIP3   OH233919   1.429   4.335  12.525  0.0436 -0.3586  0.2559
 4143TIP3    H133920   1.437   4.328  12.430  1.7268 -1.4542  0.4212
 4143TIP3    H233921   1.438   4.245  12.557 -3.8640 -0.5348  1.3456
 4144TIP3   OH233922   1.198   6.441  10.369 -0.6320 -0.2083  0.0632
 4144TIP3    H133923   1.143   6.520  10.363 -0.6624 -0.3071 -1.2419
 4144TIP3    H233924   1.244   6.450  10.452 -1.2015  0.8245  0.2816
 4145TIP3   OH233925   4.944   2.388   2.206 -0.2884  0.6588  0.8323
 4145TIP3    H133926   5.006   2.460   2.201  0.5017 -0.0676 -0.3214
 4145TIP3    H233927   4.997   2.309   2.205 -1.1669 -0.1050 -3.2909
 4146TIP3   OH233928   3.917   5.564   0.513 -0.5223 -0.2261 -0.4862
 4146TIP3    H133929   3.827   5.536   0.497 -0.8766  0.3120  0.4408
 4146TIP3    H233930   3.948   5.508   0.584  0.1519 -0.9181 -1.3034
 4147TIP3   OH233931   2.457   5.366  13.339 -0.5661  0.0671  0.2598
 4147TIP3    H133932   2.491   5.279  13.322 -1.7190 -0.1613 -1.0767
 4147TIP3    H233933   2.414   5.391  13.257 -2.1457  0.9887  1.3160
 4148TIP3   OH233934   1.945   6.881   0.760 -0.5348  0.5944  0.4124
 4148TIP3    H133935   1.885   6.810   0.782  0.0359 -0.0055  0.0915
 4148TIP3    H233936   2.031   6.839   0.756 -0.1028  1.4086  0.7423
 4149TIP3   OH233937   0.102   6.322  14.863 -0.2439  0.1735  0.2609
 4149TIP3    H133938   0.123   6.284  14.949  0.1221  3.6207  1.8477
 4149TIP3    H233939   0.006   6.315  14.857 -0.3109  0.2231  1.1354
 4150TIP3   OH233940   1.295   2.339   2.008  0.6950 -0.2459  0.5617
 4150TIP3    H133941   1.238   2.416   2.003  1.0698 -0.0003 -0.1954
 4150TIP3    H233942   1.334   2.333   1.921  1.0566 -1.0033  0.7662
 4151TIP3   OH233943   5.721   3.550  11.064  0.0135  0.1031  0.1578
 4151TIP3    H133944   5.737   3.551  10.969  1.2015 -0.6710  0.3300
 4151TIP3    H233945   5.762   3.469  11.094 -1.2478 -0.1709  1.1948
 4152TIP3   OH233946   3.298   3.513  11.533 -0.0358 -0.0251 -0.0064
 4152TIP3    H133947   3.216   3.471  11.507 -0.1606  0.1191  0.1471
 4152TIP3    H233948   3.271   3.598  11.569  0.1606 -0.0678  0.2493
 4153TIP3   OH233949   1.053   3.674   9.468  0.3148  0.4159  0.6006
 4153TIP3    H133950   1.049   3.589   9.425  0.0688  0.4990  0.4588
 4153TIP3    H233951   1.117   3.662   9.538  0.2810  0.1137  0.5823
 4154TIP3   OH233952   2.137   0.940   0.879 -0.2067  0.2087  0.6820
 4154TIP3    H133953   2.214   0.978   0.837  0.9043 -0.9468  1.5836
 4154TIP3    H233954   2.130   0.852   0.841 -0.8134  0.1473  0.9266
 4155TIP3   OH233955   1.679   2.742   2.823 -0.2740  0.1026  0.0317
 4155TIP3    H133956   1.606   2.725   2.882 -0.5887  0.2391 -0.3114
 4155TIP3    H233957   1.656   2.695   2.743 -0.4567  0.9406 -0.4188
 4156TIP3   OH233958   5.974   2.492  14.053  0.1908 -0.0415 -0.3612
 4156TIP3    H133959   5.963   2.527  13.965 -2.1770 -2.2094 -1.0490
 4156TIP3    H233960   5.898   2.435  14.066  0.6054 -0.0402  2.9926
 4157TIP3   OH233961   5.903   4.726  11.418  0.6957 -0.2947  0.1028
 4157TIP3    H133962   5.978   4.666  11.423  1.5105  0.7400  0.5420
 4157TIP3    H233963   5.870   4.714  11.329  0.1331 -2.2071  0.5192
 4158TIP3   OH233964   6.501   3.701  11.411 -0.6255  0.3522  0.1500
 4158TIP3    H133965   6.577   3.755  11.434 -0.4282  0.2671 -0.2901
 4158TIP3    H233966   6.442   3.711  11.485  0.3644 -0.6216  1.1162
 4159TIP3   OH233967   3.423   1.335   0.933 -0.6785  0.1397 -0.5323
 4159TIP3    H133968   3.467   1.417   0.954  0.5363 -1.0762  2.2271
 4159TIP3    H233969   3.358   1.358   0.866 -1.1073  3.5017  0.8678
 4160TIP3   OH233970   0.406   2.595  10.312 -0.4391 -0.2094  0.8020
 4160TIP3    H133971   0.400   2.676  10.362  1.0003  0.0786  0.5384
 4160TIP3    H233972   0.319   2.585  10.273 -0.3778  1.7390  0.0433
 4161TIP3   OH233973   1.114   2.366  10.880  0.3790  0.2903  0.2321
 4161TIP3    H133974   1.176   2.297  10.905  1.3397  1.6334  1.8049
 4161TIP3    H233975   1.038   2.319  10.847  2.1907 -1.4386 -1.7767
 4162TIP3   OH233976   3.225   4.137  11.067 -0.4448 -0.1577 -0.0881
 4162TIP3    H133977   3.294   4.182  11.019 -2.8858  2.2058 -1.6562
 4162TIP3    H233978   3.165   4.105  10.999 -2.4965  0.6619  1.2381
 4163TIP3   OH233979   3.930   6.550  10.827 -0.4112  0.1665 -0.1188
 4163TIP3    H133980   3.857   6.544  10.766  1.4373 -0.2124 -2.4154
 4163TIP3    H233981   3.984   6.621  10.793  0.8189 -0.2112  0.9455
 4164TIP3   OH233982   7.037   3.488  13.507  0.1512 -0.7242 -0.2222
 4164TIP3    H133983   7.132   3.478  13.517  0.1199 -0.4907  0.4069
 4164TIP3    H233984   7.025   3.511  13.415  0.8859  1.0113  0.0605
 4165TIP3   OH233985   2.793   2.418  10.836  0.4761 -0.3273 -0.1985
 4165TIP3    H133986   2.717   2.468  10.864  0.6242 -0.8335  1.1930
 4165TIP3    H233987   2.759   2.330  10.816  0.3887 -0.0012 -1.5824
 4166TIP3   OH233988   0.962   4.415   4.097 -1.1228 -0.2804  0.0735
 4166TIP3    H133989   1.009   4.347   4.048  0.3270  0.4097  0.4233
 4166TIP3    H233990   1.020   4.436   4.170 -1.8763  0.8039  0.3876
 4167TIP3   OH233991   2.911   5.462   0.374 -0.9146  0.2393 -0.0065
 4167TIP3    H133992   2.830   5.438   0.330  0.3532  1.0517 -3.0203
 4167TIP3    H233993   2.914   5.558   0.367  0.1646  0.2431  0.3697
 4168TIP3   OH233994   5.383   5.945   9.836 -0.1313 -0.6590  0.0240
 4168TIP3    H133995   5.425   5.874   9.788 -2.3361 -1.8063 -0.3561
 4168TIP3    H233996   5.410   6.025   9.790  0.3087 -1.4810 -1.1983
 4169TIP3   OH233997   3.833   1.013   9.776 -0.2960  0.3000 -0.3876
 4169TIP3    H133998   3.741   1.011   9.801 -0.5623  0.4236 -1.2961
 4169TIP3    H233999   3.834   1.060   9.692  0.7147  1.1685  0.0822
 4170TIP3   OH234000   4.558   3.178  14.539  0.1547 -0.3481  0.2564
 4170TIP3    H134001   4.570   3.209  14.449  0.9621 -1.7671 -0.1605
 4170TIP3    H234002   4.603   3.243  14.593 -0.9725  0.9195 -0.2821
 4171TIP3   OH234003   2.755   5.486  11.904  0.3621 -0.0304 -0.0015
 4171TIP3    H134004   2.682   5.447  11.951  0.3247  0.7666  0.6167
 4171TIP3    H234005   2.771   5.570  11.948  1.5209 -0.1025 -0.2432
 4172TIP3   OH234006   0.238   2.103  11.588 -0.4670 -0.4578 -0.4959
 4172TIP3    H134007   0.243   2.011  11.563  0.4577 -0.6184  0.2382
 4172TIP3    H234008   0.200   2.147  11.511 -0.6129 -1.3952 -0.9723
 4173TIP3   OH234009   2.516   1.106  12.499 -0.4585  0.5534  0.4654
 4173TIP3    H134010   2.576   1.177  12.476 -0.2043 -0.0299 -0.7645
 4173TIP3    H234011   2.430   1.135  12.467 -0.6024  0.8497  1.1086
 4174TIP3   OH234012   4.474   4.315  10.488 -0.0500  0.6049  0.1450
 4174TIP3    H134013   4.547   4.360  10.530  0.5692  0.0379 -0.2919
 4174TIP3    H234014   4.397   4.346  10.534  0.5842  0.0877  1.6515
 4175TIP3   OH234015   2.744   5.061  11.191  0.2360 -0.0538 -0.0728
 4175TIP3    H134016   2.687   4.989  11.165 -1.0267  0.6571  0.6715
 4175TIP3    H234017   2.814   5.061  11.126 -1.2683 -0.1514 -1.7528
 4176TIP3   OH234018   0.835   6.951  13.090 -0.2378  0.2852 -0.2808
 4176TIP3    H134019   0.916   6.991  13.058  0.1824  0.1571  0.6051
 4176TIP3    H234020   0.766   7.012  13.063  0.2739  1.0133  0.0104
 4177TIP3   OH234021   7.045   6.629  10.484  0.0230  0.1997  0.9525
 4177TIP3    H134022   6.991   6.647  10.562  0.8173 -0.0068  1.5660
 4177TIP3    H234023   7.090   6.547  10.505 -0.6940 -0.5166 -0.2497
 4178TIP3   OH234024   2.709   4.366  12.532 -0.3606 -0.5340  0.1589
 4178TIP3    H134025   2.628   4.347  12.485 -1.0348 -0.8120  1.3919
 4178TIP3    H234026   2.722   4.291  12.591  0.9985 -0.6699 -0.2724
 4179TIP3   OH234027   0.728   2.455  11.294  0.2894 -0.2516  0.1475
 4179TIP3    H134028   0.738   2.547  11.269 -1.8902 -0.3910 -1.6283
 4179TIP3    H234029   0.664   2.457  11.364  1.4886 -0.3433  1.2773
 4180TIP3   OH234030   3.876   4.234   0.171  0.1633  0.0782 -0.0083
 4180TIP3    H134031   3.948   4.194   0.219 -0.1537  1.8098  2.0493
 4180TIP3    H234032   3.914   4.258   0.086  0.8982 -2.4931 -0.5079
 4181TIP3   OH234033   5.555   4.670   0.627 -0.4094  0.3687  0.0685
 4181TIP3    H134034   5.640   4.699   0.662 -1.3656  1.6507  1.4663
 4181TIP3    H234035   5.546   4.581   0.660  0.6693 -0.0153 -0.6316
 4182TIP3   OH234036   0.927   0.501   3.205 -0.3516  0.2570 -0.3228
 4182TIP3    H134037   0.840   0.507   3.245 -0.2816  0.3190 -0.1792
 4182TIP3    H234038   0.983   0.553   3.262 -0.5892  1.8650 -1.5069
 4183TIP3   OH234039   0.029   3.448  12.245  0.2158 -0.3597  0.9374
 4183TIP3    H134040  -0.006   3.438  12.157  0.8087  2.1371  0.3450
 4183TIP3    H234041  -0.018   3.383  12.297  0.3928 -2.4105 -1.3280
 4184TIP3   OH234042   7.034   3.262   9.698 -0.2595 -0.0769 -0.5769
 4184TIP3    H134043   6.960   3.206   9.720 -0.9464  0.9098 -0.3282
 4184TIP3    H234044   7.013   3.347   9.738  2.2013 -0.4464  1.8173
 4185TIP3   OH234045   5.259   5.454  14.545 -0.3442  0.7721 -0.1223
 4185TIP3    H134046   5.205   5.450  14.624 -0.6021 -1.7738 -0.3545
 4185TIP3    H234047   5.348   5.469  14.578 -0.2533 -1.4521  0.8125
 4186TIP3   OH234048   2.146   6.528  13.734 -1.4297 -0.2156 -0.3196
 4186TIP3    H134049   2.068   6.475  13.750 -0.4047 -1.0935  2.2190
 4186TIP3    H234050   2.118   6.618  13.752 -1.8621 -0.5278  0.6192
 4187TIP3   OH234051   0.383   4.219  10.505  0.0513  0.6545 -0.7549
 4187TIP3    H134052   0.322   4.248  10.573  0.0077 -0.9441 -0.0783
 4187TIP3    H234053   0.330   4.213  10.426 -1.3591 -2.9563  0.2931
 4188TIP3   OH234054   0.197   0.158   1.615 -0.1158  0.3233 -0.1096
 4188TIP3    H134055   0.277   0.112   1.591 -1.1527 -1.4074 -0.3677
 4188TIP3    H234056   0.142   0.092   1.656 -1.4548  1.4619  0.0215
 4189TIP3   OH234057   4.442   2.752  13.228  0.4667 -0.3736  0.4822
 4189TIP3    H134058   4.523   2.801  13.245  1.5580 -2.0685  0.4232
 4189TIP3    H234059   4.437   2.748  13.132  0.0028  0.1626  0.4736
 4190TIP3   OH234060   7.181   6.686  14.097  0.2154  0.5492 -0.5059
 4190TIP3    H134061   7.176   6.595  14.069  0.4524  0.1018  0.8054
 4190TIP3    H234062   7.258   6.689  14.154 -0.2374  1.3748  0.0835
 4191TIP3   OH234063   3.931   6.573   1.358  0.3802 -0.1375  0.2601
 4191TIP3    H134064   3.840   6.596   1.338  0.9202  2.6853  0.6369
 4191TIP3    H234065   3.958   6.514   1.288 -1.7515 -1.1903  0.2424
 4192TIP3   OH234066   6.902   3.162  11.267  0.0418  0.7828  0.2117
 4192TIP3    H134067   6.902   3.254  11.241 -1.9526  0.3679 -1.5718
 4192TIP3    H234068   6.862   3.116  11.193  1.6415 -1.6554  0.7286
 4193TIP3   OH234069   1.636   4.634   9.866 -0.2175  0.3403  0.1767
 4193TIP3    H134070   1.542   4.631   9.848 -0.1839  2.1076 -0.4231
 4193TIP3    H234071   1.649   4.716   9.913  0.9829 -0.0727  0.5900
 4194TIP3   OH234072   2.448   1.737   3.162  0.2149  0.4018  0.3006
 4194TIP3    H134073   2.425   1.644   3.161 -0.9947  0.6795 -1.1950
 4194TIP3    H234074   2.516   1.744   3.230  1.6270 -1.8476 -0.7635
 4195TIP3   OH234075   6.572   1.909  10.788 -0.7628 -0.0334  0.5253
 4195TIP3    H134076   6.586   1.950  10.702 -0.5658 -2.5714 -0.7538
 4195TIP3    H234077   6.484   1.872  10.783 -0.4008 -0.9955  1.0583
 4196TIP3   OH234078   1.825   3.639  12.097  0.2633  0.0857  0.0599
 4196TIP3    H134079   1.901   3.668  12.146  0.5508 -3.5393  2.1203
 4196TIP3    H234080   1.861   3.592  12.022  0.1314 -0.9695  0.6259
 4197TIP3   OH234081   1.942   6.071   3.340  0.6792  0.0694 -0.2763
 4197TIP3    H134082   1.945   6.052   3.434  1.5520 -1.3686 -0.5604
 4197TIP3    H234083   1.916   6.163   3.335 -0.9469 -0.2301  1.3178
 4198TIP3   OH234084   6.794   6.824  12.619 -0.5777  0.1150  0.0869
 4198TIP3    H134085   6.860   6.812  12.551 -0.9716 -0.8803 -0.1350
 4198TIP3    H234086   6.811   6.911  12.654  0.3391  0.1884 -0.5180
 4199TIP3   OH234087   3.689   4.429   3.999 -0.1503 -0.2885 -0.4372
 4199TIP3    H134088   3.740   4.362   4.045 -0.4867  0.4094  0.9797
 4199TIP3    H234089   3.618   4.380   3.956 -1.5650 -0.6848  2.1877
 4200TIP3   OH234090   3.266   2.929  12.640 -0.2215 -0.0728  1.0171
 4200TIP3    H134091   3.354   2.898  12.619 -0.4164  0.2748 -0.3934
 4200TIP3    H234092   3.275   3.023  12.649 -0.7324  0.1857 -0.8409
 4201TIP3   OH234093   5.474   2.369  15.301 -0.2968 -0.5918  0.1085
 4201TIP3    H134094   5.442   2.306  15.365  1.3754 -2.6509 -0.9584
 4201TIP3    H234095   5.404   2.433  15.293 -2.1194 -2.3470  1.2183
 4202TIP3   OH234096   4.749   5.161  14.497  0.3780  0.2976 -0.5606
 4202TIP3    H134097   4.811   5.129  14.563 -0.7411  1.2340  1.0168
 4202TIP3    H234098   4.731   5.084  14.442  2.4888 -0.1191 -0.7419
 4203TIP3   OH234099   5.628   1.696  11.769  0.1720 -0.3485 -1.2396
 4203TIP3    H134100   5.643   1.623  11.709 -1.4093  1.0934 -3.5693
 4203TIP3    H234101   5.557   1.666  11.826  0.3096 -1.0180 -1.4083
 4204TIP3   OH234102   0.922   1.588   9.177 -0.0061 -0.5324  0.6231
 4204TIP3    H134103   0.939   1.677   9.144  0.6931 -1.2823 -1.1927
 4204TIP3    H234104   0.830   1.573   9.156 -0.0170 -0.3834  0.5554
 4205TIP3   OH234105   0.008   2.766   2.304  0.4509  0.4104  0.0554
 4205TIP3    H134106   0.048   2.782   2.390 -1.0464  2.2190  0.4808
 4205TIP3    H234107   0.062   2.814   2.242 -1.1714  3.2611  0.6893
 4206TIP3   OH234108   1.305   4.280  12.041 -0.6750 -0.4576 -0.0722
 4206TIP3    H134109   1.327   4.238  11.958 -0.0255 -1.0682  0.4025
 4206TIP3    H234110   1.310   4.210  12.106 -0.9353  0.0658  0.5232
 4207TIP3   OH234111   5.144   2.903  13.533 -0.0206  0.9399 -0.3899
 4207TIP3    H134112   5.224   2.868  13.573 -1.4554 -0.7281  1.2248
 4207TIP3    H234113   5.137   2.992  13.567 -0.7438 -0.1406  2.6370
 4208TIP3   OH234114   0.310   5.293  14.650  0.4474  0.0025  0.0810
 4208TIP3    H134115   0.246   5.275  14.580 -0.0980 -0.5477  0.7063
 4208TIP3    H234116   0.394   5.296  14.605 -0.1376  2.3060 -1.0181
 4209TIP3   OH234117   1.727   5.093   4.858 -0.1532 -0.3911  0.2219
 4209TIP3    H134118   1.727   5.017   4.801  0.2713  0.2897 -0.7161
 4209TIP3    H234119   1.705   5.166   4.800  1.8939  0.5667  0.5343
 4210TIP3   OH234120   6.221   4.770  10.836 -0.3406 -0.2222 -0.6834
 4210TIP3    H134121   6.308   4.787  10.874  1.1184 -0.3207 -3.7117
 4210TIP3    H234122   6.206   4.677  10.852  0.5606 -0.4195 -0.9006
 4211TIP3   OH234123   1.117   5.958  10.338  0.1929 -0.0883  0.2413
 4211TIP3    H134124   1.100   6.049  10.312  0.3119 -0.3088 -0.6569
 4211TIP3    H234125   1.195   5.934  10.288 -0.4481 -1.0121 -0.3403
 4212TIP3   OH234126   4.162   5.906  11.085 -0.0302 -0.3160 -0.2980
 4212TIP3    H134127   4.112   5.829  11.111 -0.5583  0.1200 -0.0204
 4212TIP3    H234128   4.121   5.934  11.004 -1.3068  0.9986  0.7560
 4213TIP3   OH234129   2.301   1.520  14.805 -0.0332  0.4142 -0.6927
 4213TIP3    H134130   2.241   1.480  14.868  0.7792  1.0502  0.5277
 4213TIP3    H234131   2.305   1.612  14.830  0.6244  0.6006 -1.4257
 4214TIP3   OH234132   4.058   1.090   0.549 -0.1245 -0.0163 -0.8796
 4214TIP3    H134133   3.988   1.026   0.553 -1.9357  1.9239  0.1422
 4214TIP3    H234134   4.028   1.163   0.603  3.2392  0.4185  0.6493
 4215TIP3   OH234135   4.802   2.698   9.664  0.2913  0.1099 -0.0368
 4215TIP3    H134136   4.830   2.651   9.742 -1.8303  0.6837  1.1470
 4215TIP3    H234137   4.803   2.632   9.595  0.4631 -0.8594  0.8670
 4216TIP3   OH234138   6.371   2.965  10.654 -0.0429 -0.1833  0.7826
 4216TIP3    H134139   6.457   3.006  10.641 -0.1400  0.2193  1.3793
 4216TIP3    H234140   6.390   2.883  10.699  0.1129 -0.5902 -0.0060
 4217TIP3   OH234141   5.017   4.950   0.127  0.1652  0.3463  0.1033
 4217TIP3    H134142   4.942   4.948   0.068 -0.1382  0.6860  0.4688
 4217TIP3    H234143   5.090   4.981   0.073  0.1467 -0.3704 -0.3548
 4218TIP3   OH234144   6.029   1.378  15.282  0.7372 -0.2240  0.3650
 4218TIP3    H134145   5.963   1.311  15.262 -0.6578  0.8186  1.3572
 4218TIP3    H234146   5.993   1.459  15.247  0.6378  0.6881  2.4510
 4219TIP3   OH234147   5.355   1.436   0.887  0.0111 -0.4227  0.2003
 4219TIP3    H134148   5.329   1.421   0.797  0.4190  1.3342 -0.2507
 4219TIP3    H234149   5.426   1.373   0.903  0.3472 -0.3409 -0.9055
 4220TIP3   OH234150   3.104   5.201   0.876 -0.0870 -0.1180  0.1309
 4220TIP3    H134151   3.163   5.132   0.906 -0.4844 -0.5370 -0.0504
 4220TIP3    H234152   3.052   5.160   0.807  1.6743  1.1464 -2.0816
 4221TIP3   OH234153   2.480   6.277   2.930 -0.4065 -0.6344 -0.2127
 4221TIP3    H134154   2.574   6.268   2.948  0.1076 -0.0219 -2.3157
 4221TIP3    H234155   2.440   6.288   3.016  1.4416 -0.9234  0.7333
 4222TIP3   OH234156   0.308   6.400  12.021 -0.3086 -0.2335  0.8913
 4222TIP3    H134157   0.254   6.458  12.074  0.5620  0.7643  0.6997
 4222TIP3    H234158   0.396   6.437  12.025  0.1562 -1.2168  0.3028
 4223TIP3   OH234159   1.524   5.810  13.707  0.4386 -0.2370 -0.4122
 4223TIP3    H134160   1.555   5.720  13.711  1.5152  0.1540  0.5583
 4223TIP3    H234161   1.598   5.860  13.672  1.0750  0.7359  2.0728
 4224TIP3   OH234162   3.379   0.966  13.215  0.4589  0.0246  0.0656
 4224TIP3    H134163   3.392   1.033  13.282 -1.5211  1.8646 -1.2298
 4224TIP3    H234164   3.323   0.901  13.257 -0.1380  0.7693  0.4519
 4225TIP3   OH234165   4.583   2.248  11.677 -0.4925 -0.3441 -0.3421
 4225TIP3    H134166   4.618   2.217  11.760 -2.0685  0.6852  0.7671
 4225TIP3    H234167   4.596   2.175  11.616 -0.7177 -1.7329  1.2156
 4226TIP3   OH234168   4.756   1.463  14.261  0.2671 -0.0490  0.1015
 4226TIP3    H134169   4.684   1.521  14.286  1.1654  2.1863 -2.0550
 4226TIP3    H234170   4.782   1.420  14.343 -2.5986  0.0645  1.1814
 4227TIP3   OH234171   1.214   6.836   1.037  0.3146  0.0214  0.0969
 4227TIP3    H134172   1.197   6.742   1.031 -0.0823 -0.1544  2.8202
 4227TIP3    H234173   1.310   6.843   1.032  0.2934 -0.3698 -1.2901
 4228TIP3   OH234174   0.305   5.837  13.622 -0.1924 -0.2966  0.4540
 4228TIP3    H134175   0.300   5.752  13.578 -2.0690  0.8873 -1.8324
 4228TIP3    H234176   0.227   5.841  13.677  0.2794 -0.3152  1.1418
 4229TIP3   OH234177   0.730   0.364  10.398 -0.2358 -0.3851 -0.2989
 4229TIP3    H134178   0.748   0.271  10.412 -0.2731 -0.4827 -0.8822
 4229TIP3    H234179   0.728   0.401  10.487  0.9438 -0.7237 -0.1081
 4230TIP3   OH234180   4.722   1.046   0.023  0.7414 -0.0697 -0.2083
 4230TIP3    H134181   4.733   1.083  -0.064  1.5060  1.2180  0.4030
 4230TIP3    H234182   4.745   0.954   0.013  1.6958  0.2501 -1.2037
 4231TIP3   OH234183   1.960   4.134  10.149  0.2438 -0.8370 -0.0215
 4231TIP3    H134184   1.941   4.080  10.072 -0.9313  0.6024 -0.8021
 4231TIP3    H234185   2.043   4.177  10.128 -0.4151  0.0795 -0.8244
 4232TIP3   OH234186   5.730   5.573  14.483 -0.2791 -0.1125 -0.2351
 4232TIP3    H134187   5.770   5.514  14.419  0.2915 -0.4682  0.4311
 4232TIP3    H234188   5.650   5.604  14.441 -0.2393 -0.8360 -0.8625
 4233TIP3   OH234189   3.192   6.962  15.221 -0.2819  0.3720 -0.6419
 4233TIP3    H134190   3.274   6.955  15.172 -0.0854 -1.5788 -0.0985
 4233TIP3    H234191   3.212   6.925  15.307 -1.3878  1.1233 -0.0320
 4234TIP3   OH234192   7.243   4.158   9.903 -0.1013  0.0317 -0.0521
 4234TIP3    H134193   7.150   4.143   9.882  0.0265 -0.2885 -0.4131
 4234TIP3    H234194   7.275   4.072   9.930  0.0600  0.1690  0.1860
 4235TIP3   OH234195   1.764   3.202   0.884  0.4111  0.3950  0.4434
 4235TIP3    H134196   1.766   3.290   0.846  2.9561  0.8392  1.4170
 4235TIP3    H234197   1.753   3.218   0.978  4.3142  0.0066  1.1166
 4236TIP3   OH234198   6.489   0.345  10.444  0.0456 -0.1147 -0.2232
 4236TIP3    H134199   6.404   0.366  10.405 -0.4968 -1.5074  0.1570
 4236TIP3    H234200   6.486   0.250  10.459  1.5486 -0.1375  0.0898
 4237TIP3   OH234201   4.995   2.630   9.873  0.3259 -0.6863  0.1229
 4237TIP3    H134202   5.008   2.544   9.833 -0.7595 -1.1582  0.7414
 4237TIP3    H234203   5.012   2.616   9.967 -0.3340 -0.3490  0.2991
 4238TIP3   OH234204   6.509   1.073  10.195  0.1361 -0.3516  0.5452
 4238TIP3    H134205   6.605   1.072  10.191  0.1753 -0.2603  1.3556
 4238TIP3    H234206   6.481   1.031  10.113  0.8665 -0.6667  0.4512
 4239TIP3   OH234207   0.862   2.661  10.713  0.1015  0.7675 -0.1104
 4239TIP3    H134208   0.927   2.663  10.783  0.1213  1.0689 -0.1391
 4239TIP3    H234209   0.887   2.732  10.654  0.4352  0.1405 -0.7375
 4240TIP3   OH234210   1.496   1.285   9.579  0.0255  0.7004  0.4425
 4240TIP3    H134211   1.422   1.264   9.636 -1.3376  0.6522 -1.2585
 4240TIP3    H234212   1.456   1.321   9.499  1.6661 -1.3187 -1.4365
 4241TIP3   OH234213   5.963   0.186  12.784  0.5020 -0.7255 -0.3790
 4241TIP3    H134214   6.050   0.225  12.789  1.1300 -1.6468 -2.8356
 4241TIP3    H234215   5.903   0.257  12.806  1.8127  0.2669  0.0599
 4242TIP3   OH234216   6.982   6.111  10.577  0.2742 -0.0684 -0.7232
 4242TIP3    H134217   6.919   6.075  10.515 -1.2731 -0.9908  1.2653
 4242TIP3    H234218   6.948   6.199  10.598 -1.5030 -1.1944  1.6538
 4243TIP3   OH234219   2.427   3.754  11.239  0.1612 -0.0192  0.1467
 4243TIP3    H134220   2.439   3.669  11.281  2.8259  0.3221  0.2632
 4243TIP3    H234221   2.486   3.753  11.164  1.7548  2.3395  1.2250
 4244TIP3   OH234222   5.755   1.390  13.729  0.2044 -0.2388 -0.1916
 4244TIP3    H134223   5.822   1.423  13.788  0.5346 -1.8715  0.4125
 4244TIP3    H234224   5.781   1.299  13.712 -0.3731 -0.0926 -2.1466
 4245TIP3   OH234225   7.036   3.534  13.855 -0.7249  0.3282  0.2495
 4245TIP3    H134226   7.015   3.617  13.812 -0.1182  0.0924 -0.5058
 4245TIP3    H234227   6.994   3.467  13.800 -0.6042  0.0794  0.4593
 4246TIP3   OH234228   3.213   4.303  11.292  0.2221  0.2413 -0.3398
 4246TIP3    H134229   3.174   4.388  11.272 -3.0462 -1.1688 -0.5980
 4246TIP3    H234230   3.204   4.252  11.211  0.5266 -0.8865  0.3083
 4247TIP3   OH234231   1.093   0.264  12.427  0.3276 -0.2266  0.8249
 4247TIP3    H134232   1.014   0.267  12.372  0.9290 -0.7613 -0.1058
 4247TIP3    H234233   1.122   0.355  12.432 -1.1684  0.2100  2.4574
 4248TIP3   OH234234   2.564   5.996  14.407  0.0483  0.2211  0.0954
 4248TIP3    H134235   2.643   5.963  14.450  0.3468  0.7051 -0.0732
 4248TIP3    H234236   2.594   6.069  14.353 -0.6487  1.0225  0.7556
 4249TIP3   OH234237   2.248   7.099  14.444  0.1313  0.1971 -0.9904
 4249TIP3    H134238   2.303   7.155  14.499  0.2369 -0.4024 -0.4688
 4249TIP3    H234239   2.161   7.105  14.482 -0.4210  1.9441 -2.4228
 4250TIP3   OH234240   1.741   0.450   9.662  0.4009 -0.3288  0.0060
 4250TIP3    H134241   1.803   0.379   9.647 -0.5273 -0.6958 -2.6079
 4250TIP3    H234242   1.658   0.406   9.677  0.4492  0.1866  1.9875
 4251TIP3   OH234243   2.633   5.854  14.853  0.4815 -0.0542  0.6241
 4251TIP3    H134244   2.682   5.786  14.806 -1.1318 -0.9179  0.1257
 4251TIP3    H234245   2.657   5.935  14.808  1.6700 -0.3939  0.5892
 4252TIP3   OH234246   1.877   5.980  12.252 -0.4266  0.5254  0.2777
 4252TIP3    H134247   1.972   5.990  12.243 -0.3898  0.4180  0.5310
 4252TIP3    H234248   1.844   6.070  12.257 -0.2482  0.5548  1.0622
 4253TIP3   OH234249   4.876   1.651  13.814  0.6654  0.2192 -0.2390
 4253TIP3    H134250   4.936   1.625  13.744 -1.1727  0.2573 -1.8961
 4253TIP3    H234251   4.921   1.724  13.858  1.5930  0.6340 -1.8088
 4254TIP3   OH234252   3.172   6.403   0.193 -0.4146  0.0194  0.8482
 4254TIP3    H134253   3.119   6.480   0.176  0.2686  0.2429 -0.4024
 4254TIP3    H234254   3.224   6.426   0.270 -1.2902  0.2139  1.4015
 4255TIP3   OH234255   3.802   2.707  12.352  0.5001 -0.1302 -0.4187
 4255TIP3    H134256   3.888   2.715  12.312  1.7919 -0.9494  1.9787
 4255TIP3    H234257   3.749   2.773  12.308  2.4487  0.6739 -1.7023
 4256TIP3   OH234258   0.527   0.238  11.110  0.5187 -0.7857  0.2317
 4256TIP3    H134259   0.618   0.210  11.120  0.8546  0.0579 -0.3688
 4256TIP3    H234260   0.502   0.206  11.023  0.6956  0.2042 -0.1864
 4257TIP3   OH234261   1.357   5.100  11.017  0.9036 -0.0403 -0.2353
 4257TIP3    H134262   1.403   5.039  11.073  2.8342  1.1285 -0.4620
 4257TIP3    H234263   1.401   5.094  10.933  1.3722  1.8477 -0.1735
 4258TIP3   OH234264   1.061   6.191  13.704 -0.3634 -0.0928 -0.4289
 4258TIP3    H134265   0.991   6.226  13.759 -2.1030  0.6062 -2.8806
 4258TIP3    H234266   1.070   6.099  13.731 -1.0274  0.2594  1.0700
 4259TIP3   OH234267   0.033   3.710  12.370 -0.8849 -0.9420  0.3307
 4259TIP3    H134268   0.081   3.688  12.450  0.5272 -0.9235 -0.4844
 4259TIP3    H234269   0.019   3.626  12.326  0.0680 -0.7774 -0.3284
 4260TIP3   OH234270   6.965   2.234  11.191  0.5022  0.3981  0.1906
 4260TIP3    H134271   7.024   2.224  11.266 -1.4270  1.3960  1.9441
 4260TIP3    H234272   6.997   2.313  11.146  0.0128  1.4575  1.6461
 4261TIP3   OH234273   4.225   4.364  12.721 -0.5992  0.0622 -0.1178
 4261TIP3    H134274   4.317   4.390  12.711 -0.9215  0.6504 -2.0163
 4261TIP3    H234275   4.206   4.316  12.641 -1.3117 -2.2215  1.3171
 4262TIP3   OH234276   2.151   0.163  12.588 -0.0479  0.2318 -0.4673
 4262TIP3    H134277   2.153   0.257  12.601  0.2647  0.1524  0.0655
 4262TIP3    H234278   2.191   0.150  12.501  1.1887  0.4920  0.0474
 4263TIP3   OH234279   1.990   6.170   0.703 -0.2215  0.0755 -0.0202
 4263TIP3    H134280   2.020   6.135   0.787  2.0121 -0.1150 -0.8203
 4263TIP3    H234281   2.024   6.107   0.639  1.4727  2.1899 -1.3029
 4264TIP3   OH234282   4.501   7.010  13.772 -0.3469 -0.8389  0.5453
 4264TIP3    H134283   4.532   6.921  13.754  2.7296 -0.0472  1.2801
 4264TIP3    H234284   4.412   6.998  13.804 -0.1917 -3.6093  0.2620
 4265TIP3   OH234285   4.274   7.089  12.106 -0.5153  0.1035  0.1209
 4265TIP3    H134286   4.293   6.996  12.118 -2.1159 -0.3949 -0.9160
 4265TIP3    H234287   4.187   7.091  12.066 -2.1654  2.1254  3.3388
 4266TIP3   OH234288   2.139   4.160  15.187  0.8827  0.3261  0.3244
 4266TIP3    H134289   2.162   4.208  15.108  0.2189  0.1499  0.0196
 4266TIP3    H234290   2.048   4.186  15.206 -0.0288 -1.9108 -0.6945
 4267TIP3   OH234291   7.182   0.259  10.390 -0.0237  0.4903 -0.1483
 4267TIP3    H134292   7.270   0.275  10.355  0.9136  1.7522  2.5337
 4267TIP3    H234293   7.123   0.281  10.318  1.7318  3.6771 -0.7675
 4268TIP3   OH234294   0.814   3.438  11.143  0.3002  0.1637 -0.2752
 4268TIP3    H134295   0.842   3.377  11.211 -1.0108 -0.7643 -0.5339
 4268TIP3    H234296   0.836   3.525  11.178 -1.3514 -0.1970  1.8767
 4269TIP3   OH234297   3.678   6.557  11.527  0.5780  0.0100  0.1638
 4269TIP3    H134298   3.617   6.630  11.517 -1.7817 -1.8144  0.2753
 4269TIP3    H234299   3.638   6.485  11.478 -0.0162 -2.7214  4.1870
 4270TIP3   OH234300   0.182   1.194   0.140 -0.1538 -0.7934  0.0946
 4270TIP3    H134301   0.171   1.148   0.223 -1.1676  1.6164  1.4122
 4270TIP3    H234302   0.095   1.228   0.119  0.7944  1.8864  0.1448
 4271TIP3   OH234303   0.986   1.593  12.734 -0.2777  0.5009 -0.6949
 4271TIP3    H134304   0.971   1.648  12.657  1.5898  1.6767 -0.2758
 4271TIP3    H234305   0.959   1.648  12.808  0.3713  0.3617 -0.3512
 4272TIP3   OH234306   5.054   0.734  11.839  0.6195  0.0545 -0.2095
 4272TIP3    H134307   5.042   0.824  11.868  1.1621  0.3715 -0.9403
 4272TIP3    H234308   4.967   0.705  11.812  0.2751  0.0531  0.8498
 4273TIP3   OH234309   4.981   7.086  10.273  0.1663 -0.9599  0.0072
 4273TIP3    H134310   4.894   7.123  10.261  0.1490 -0.8953  0.3393
 4273TIP3    H234311   4.966   7.006  10.323  0.3958 -0.4511  0.8991
 4274TIP3   OH234312   3.123   1.271  11.805 -0.9611 -0.4432 -0.4171
 4274TIP3    H134313   3.082   1.252  11.890 -2.3519  2.1209 -0.4358
 4274TIP3    H234314   3.051   1.272  11.743  0.0043 -1.9490 -1.6558
 4275TIP3   OH234315   4.213   0.358   1.804 -0.0297  0.2126 -0.0145
 4275TIP3    H134316   4.231   0.312   1.722 -0.1347 -1.5327  0.8840
 4275TIP3    H234317   4.155   0.298   1.852 -0.2787  1.3629  1.1724
 4276TIP3   OH234318   5.025   4.861  14.470  0.5098  0.2278 -0.2534
 4276TIP3    H134319   4.985   4.864  14.383 -0.3557 -0.8357  0.0877
 4276TIP3    H234320   5.003   4.945  14.509  0.1542  0.3691 -0.7442
 4277TIP3   OH234321   5.577   1.018  10.138  0.2403  0.2460  0.1584
 4277TIP3    H134322   5.668   1.043  10.154  0.5930 -1.1894  0.5794
 4277TIP3    H234323   5.575   0.924  10.157 -1.1444  0.0868 -0.6618
 4278TIP3   OH234324   4.606   0.582   2.739  0.1410 -0.2194 -0.4402
 4278TIP3    H134325   4.607   0.532   2.820 -2.8153  0.1149 -0.1047
 4278TIP3    H234326   4.601   0.674   2.768 -2.3488 -0.1440 -0.8660
 4279TIP3   OH234327   5.582   2.666  13.926 -0.6268  0.3552  0.0300
 4279TIP3    H134328   5.618   2.753  13.910  1.0759 -0.1833  0.6211
 4279TIP3    H234329   5.578   2.659  14.021  1.3295 -0.9265  0.0882
 4280TIP3   OH234330   2.812   1.329   0.338 -0.2067  0.1929 -0.6500
 4280TIP3    H134331   2.786   1.307   0.428  0.1846 -0.0843 -0.6011
 4280TIP3    H234332   2.748   1.393   0.309 -1.1085 -0.6801 -0.6289
 4281TIP3   OH234333   2.388   3.056  14.289  0.7354  0.2625 -0.6122
 4281TIP3    H134334   2.418   3.086  14.203 -0.9613 -1.2390 -1.8012
 4281TIP3    H234335   2.463   3.071  14.347  2.1013  0.8856 -2.4374
 4282TIP3   OH234336   4.752   1.868  14.715  0.6590  0.4619  0.7231
 4282TIP3    H134337   4.798   1.809  14.774 -0.3943 -0.3914  0.7382
 4282TIP3    H234338   4.788   1.954  14.733  1.2279  0.0327  1.7176
 4283TIP3   OH234339   4.122   5.034   9.736 -0.1701 -0.0670 -0.2194
 4283TIP3    H134340   4.175   5.017   9.658  1.2307 -0.3501  0.7726
 4283TIP3    H234341   4.061   4.961   9.739 -0.0645 -0.1950 -0.8910
 4284TIP3   OH234342   4.050   5.242   4.553 -0.2271 -0.4779  0.2817
 4284TIP3    H134343   4.089   5.188   4.622 -1.0651 -1.9243 -0.3215
 4284TIP3    H234344   3.956   5.240   4.570 -0.2943  0.5502  0.0619
 4285TIP3   OH234345   1.277   4.319   1.544 -0.3943  0.3336 -0.0596
 4285TIP3    H134346   1.367   4.301   1.517 -0.8240 -1.1910 -0.6025
 4285TIP3    H234347   1.241   4.372   1.472 -0.2564  0.0020 -0.3734
 4286TIP3   OH234348   0.995   1.679  14.271 -0.9695  0.0262  0.1578
 4286TIP3    H134349   1.055   1.682  14.196 -0.9768  2.7840  0.1853
 4286TIP3    H234350   1.050   1.654  14.345 -0.1046  1.1482 -0.0754
 4287TIP3   OH234351   4.615   1.807   1.698 -0.0699 -0.0896 -0.0032
 4287TIP3    H134352   4.566   1.802   1.616  0.4995 -0.0523 -0.3438
 4287TIP3    H234353   4.547   1.819   1.765 -0.6879 -1.8234 -0.2728
 4288TIP3   OH234354   6.555   6.291   0.582 -0.2024  0.3102 -0.5671
 4288TIP3    H134355   6.534   6.251   0.498 -0.7532  0.4830 -0.5179
 4288TIP3    H234356   6.474   6.284   0.633  0.6852 -1.6022  0.6828
 4289TIP3   OH234357   4.782   2.989  14.859  0.3111 -0.1801  0.0323
 4289TIP3    H134358   4.688   2.994  14.879  0.0463  1.8996 -1.3966
 4289TIP3    H234359   4.824   2.989  14.945 -0.9764 -1.2658  0.7045
 4290TIP3   OH234360   3.495   6.821  10.164  0.1367 -0.3014 -0.8398
 4290TIP3    H134361   3.410   6.860  10.146  0.1967  0.0378 -0.3855
 4290TIP3    H234362   3.513   6.842  10.255  1.3533  0.8490 -1.3236
 4291TIP3   OH234363   5.461   0.827  14.805 -0.0158 -0.0460  0.3925
 4291TIP3    H134364   5.487   0.879  14.880 -1.8650  0.6176  0.6326
 4291TIP3    H234365   5.509   0.865  14.731  0.1548  0.7331  0.8948
 4292TIP3   OH234366   1.407   2.936   0.248 -0.1666  0.3105  0.2213
 4292TIP3    H134367   1.441   2.862   0.299 -0.5060 -0.1791 -0.2380
 4292TIP3    H234368   1.404   2.903   0.158  1.9872  1.6959 -0.4353
 4293TIP3   OH234369   2.217   4.621   3.332  0.1115 -0.2000  0.7065
 4293TIP3    H134370   2.173   4.537   3.323  1.1159 -0.7579  0.8133
 4293TIP3    H234371   2.227   4.652   3.242 -1.5042  0.4945  0.7393
 4294TIP3   OH234372   4.475   2.968  12.322  0.3261  0.2876  0.2134
 4294TIP3    H134373   4.385   2.953  12.351 -0.1184  1.1731 -0.6650
 4294TIP3    H234374   4.523   2.890  12.351 -1.1723 -1.2317 -1.1649
 4295TIP3   OH234375   3.263   3.753  10.001 -0.4131 -0.0271 -0.0311
 4295TIP3    H134376   3.337   3.805   9.971 -0.5781  0.7793  0.9113
 4295TIP3    H234377   3.260   3.679   9.941  0.8811  0.1585 -0.3566
 4296TIP3   OH234378   3.284   5.020   2.889 -0.1483  0.1646 -0.6756
 4296TIP3    H134379   3.192   5.020   2.862 -1.0919  0.9626  2.1225
 4296TIP3    H234380   3.280   5.003   2.984  2.5016  1.4152 -0.2646
 4297TIP3   OH234381   6.596   1.729   0.526 -0.3652  0.3162 -0.2163
 4297TIP3    H134382   6.502   1.713   0.518 -0.6022  1.2615  0.5481
 4297TIP3    H234383   6.636   1.642   0.514 -1.2610  0.0518 -1.4423
 4298TIP3   OH234384   4.525   0.149  10.330  0.3525  0.3716  0.0281
 4298TIP3    H134385   4.579   0.191  10.397  1.0610  2.9874 -2.0371
 4298TIP3    H234386   4.587   0.105  10.273 -0.1079 -0.3770  0.0944
 4299TIP3   OH234387   3.592   2.865   3.687  0.3023 -0.1593 -0.0547
 4299TIP3    H134388   3.676   2.819   3.688  0.6437  0.3438 -1.6831
 4299TIP3    H234389   3.544   2.825   3.614  0.1927  1.3384 -0.8297
 4300TIP3   OH234390   4.337   0.191   9.956  0.6794  0.1731  0.0387
 4300TIP3    H134391   4.324   0.097   9.959 -0.6359  0.3478  0.5846
 4300TIP3    H234392   4.352   0.217  10.047 -2.4186  0.8792  0.4543
 4301TIP3   OH234393   3.034   2.069   2.966  0.2323  0.0263  0.3404
 4301TIP3    H134394   2.963   2.005   2.963  0.2949 -0.0300 -0.0211
 4301TIP3    H234395   2.991   2.154   2.969  0.1332 -0.0549  1.9619
 4302TIP3   OH234396   1.526   3.456  10.945  0.2768  0.5475  0.0421
 4302TIP3    H134397   1.580   3.535  10.945  2.8704 -1.1267 -0.8288
 4302TIP3    H234398   1.586   3.385  10.925 -1.7699 -1.8468  1.7444
 4303TIP3   OH234399   6.691   3.252  10.799 -0.1945 -0.1662 -0.5059
 4303TIP3    H134400   6.678   3.249  10.894  1.0582 -0.8533 -0.3380
 4303TIP3    H234401   6.751   3.326  10.786 -0.9393  0.3886 -0.8474
 4304TIP3   OH234402   5.497   5.116  10.638 -0.1629  0.2422 -0.7044
 4304TIP3    H134403   5.450   5.113  10.722 -0.6554 -0.4932 -0.9928
 4304TIP3    H234404   5.513   5.209  10.623  1.5144  0.3094  1.0636
 4305TIP3   OH234405   4.111   5.442   1.205 -0.0348  0.0106  0.1395
 4305TIP3    H134406   4.179   5.424   1.140  0.0927  1.4285 -0.1362
 4305TIP3    H234407   4.029   5.424   1.159  0.1155 -1.6616  0.4606
 4306TIP3   OH234408   3.385   2.273  12.500  0.2689  0.0103  0.3462
 4306TIP3    H134409   3.401   2.348  12.443  1.5391 -0.0773  0.5667
 4306TIP3    H234410   3.310   2.228  12.459  0.4653  0.5502 -0.6402
 4307TIP3   OH234411   1.931   0.112  12.904  0.1852  0.5220 -0.4539
 4307TIP3    H134412   1.867   0.042  12.919  2.3534 -1.4803 -0.0076
 4307TIP3    H234413   1.959   0.138  12.991  1.5857 -0.2332 -0.6549
 4308TIP3   OH234414   4.937   2.230  11.094  0.4412  0.6472 -0.0654
 4308TIP3    H134415   4.876   2.263  11.160 -0.4630  0.8899 -0.9924
 4308TIP3    H234416   5.023   2.232  11.137 -0.3767 -1.1470  1.7955
 4309TIP3   OH234417   1.501   2.367  12.985 -0.1377 -0.1626 -0.4266
 4309TIP3    H134418   1.525   2.445  13.035 -0.2149  0.0474 -0.7097
 4309TIP3    H234419   1.580   2.344  12.937 -0.3974  0.3533 -1.1319
 4310TIP3   OH234420   5.366   1.502  13.522 -0.0176  0.4855 -0.2037
 4310TIP3    H134421   5.353   1.571  13.457 -1.5817  0.2095 -0.2166
 4310TIP3    H234422   5.424   1.541  13.588 -1.3521  2.0317  0.1142
 4311TIP3   OH234423   2.517   6.306   3.212 -0.0712  0.2995 -0.7420
 4311TIP3    H134424   2.583   6.283   3.277  0.0120  1.8638 -0.2189
 4311TIP3    H234425   2.501   6.399   3.227 -0.8577  0.4335 -2.2525
 4312TIP3   OH234426   0.131   4.671  15.027 -0.2058 -0.2150 -0.2462
 4312TIP3    H134427   0.209   4.618  15.046 -0.7620 -1.0637 -0.3116
 4312TIP3    H234428   0.078   4.616  14.970 -0.7301  0.4735 -0.4256
 4313TIP3   OH234429   0.352   4.597  14.109 -0.0246 -0.6220  0.1282
 4313TIP3    H134430   0.435   4.549  14.105  0.5074  0.2519  0.3185
 4313TIP3    H234431   0.326   4.592  14.201  1.7701  2.2176  0.9259
 4314TIP3   OH234432   4.732   1.644  14.528  0.1949  0.2027  0.8052
 4314TIP3    H134433   4.677   1.656  14.451  0.3660 -0.4259  0.5769
 4314TIP3    H234434   4.700   1.709  14.591 -0.5802  0.0765  0.5554
 4315TIP3   OH234435   3.678   6.788  10.886  0.0990  0.1549 -0.4855
 4315TIP3    H134436   3.632   6.872  10.882 -0.1527  0.1450  1.3931
 4315TIP3    H234437   3.766   6.810  10.916 -0.3685 -0.3374  1.3731
 4316TIP3   OH234438   3.151   1.464  10.491 -0.4203  0.1159  0.0632
 4316TIP3    H134439   3.191   1.392  10.442  0.2135  0.1205  0.5529
 4316TIP3    H234440   3.075   1.425  10.534 -0.5452 -0.0651 -0.3201
 4317TIP3   OH234441   4.010   3.919  11.530 -0.0806 -0.0463  0.2196
 4317TIP3    H134442   3.958   3.841  11.507  0.0177 -0.5667  1.6710
 4317TIP3    H234443   4.067   3.890  11.601  0.4498  1.1883  0.3277
 4318TIP3   OH234444   3.798   0.553  13.152 -1.2633  0.4200 -0.1166
 4318TIP3    H134445   3.863   0.600  13.099 -0.6093 -0.4680 -0.1132
 4318TIP3    H234446   3.714   0.591  13.124 -1.1394 -1.1814 -3.1127
 4319TIP3   OH234447   3.576   5.947  13.186 -0.2470 -0.0386  0.6291
 4319TIP3    H134448   3.665   5.930  13.216  0.2898 -2.4288 -1.8552
 4319TIP3    H234449   3.587   6.005  13.110 -0.5314 -1.6704 -0.7362
 4320TIP3   OH234450   5.151   3.567  12.710 -0.0993 -0.0597 -0.1700
 4320TIP3    H134451   5.246   3.568  12.709 -0.0919 -0.0941  0.3749
 4320TIP3    H234452   5.127   3.564  12.803 -0.6297  0.0259 -0.2964
 4321TIP3   OH234453   1.160   6.010   2.797 -0.1023 -0.3667  0.2479
 4321TIP3    H134454   1.170   5.955   2.720 -1.8015  0.8595 -0.9074
 4321TIP3    H234455   1.179   5.952   2.871  0.4689 -1.8503 -1.0223
 4322TIP3   OH234456   6.685   2.821  14.581 -0.0992  0.1122 -0.3580
 4322TIP3    H134457   6.685   2.743  14.526  2.9864 -0.6128  0.4817
 4322TIP3    H234458   6.699   2.788  14.670  0.3993  1.5651  0.1385
 4323TIP3   OH234459   6.326   5.747   9.560 -0.1729  0.5157  0.0027
 4323TIP3    H134460   6.332   5.751   9.464 -0.3499 -0.0859 -0.0366
 4323TIP3    H234461   6.317   5.839   9.587  3.6416  1.1436 -0.2714
 4324TIP3   OH234462   7.174   0.497   9.633  0.1188  0.3480 -0.0659
 4324TIP3    H134463   7.267   0.517   9.640 -0.2789  2.5895 -0.4808
 4324TIP3    H234464   7.132   0.581   9.612 -2.1562 -0.3189  1.4076
 4325TIP3   OH234465   3.729   3.743  10.950  0.0275  0.3824 -0.5915
 4325TIP3    H134466   3.689   3.707  10.871 -3.8450  1.6516  0.5434
 4325TIP3    H234467   3.785   3.673  10.983 -1.3285 -1.6711 -2.3894
 4326TIP3   OH234468   0.028   1.450   9.885  0.0534  0.1926 -0.4380
 4326TIP3    H134469  -0.061   1.485   9.894  0.1197  0.3737 -0.4907
 4326TIP3    H234470   0.084   1.527   9.881  0.3971  0.0714  1.3886
 4327TIP3   OH234471   2.841   3.170  11.952 -0.3916 -0.0420 -0.1655
 4327TIP3    H134472   2.811   3.183  11.862 -1.9675  0.4030  0.3839
 4327TIP3    H234473   2.902   3.242  11.967 -0.8413  0.4455 -0.5941
 4328TIP3   OH234474   6.493   6.792  11.750  0.1478 -0.7354 -0.2179
 4328TIP3    H134475   6.528   6.849  11.682 -1.3300 -1.1877 -1.4157
 4328TIP3    H234476   6.399   6.810  11.750 -0.0079 -1.4306  1.0656
 4329TIP3   OH234477   3.306   2.116  11.155 -0.2599  0.1193 -0.6284
 4329TIP3    H134478   3.350   2.109  11.240  0.1677  1.2102 -0.7514
 4329TIP3    H234479   3.222   2.071  11.168  0.1516 -0.4449  0.1206
 4330TIP3   OH234480   2.898   4.948   9.702  0.2018 -0.3310 -0.3302
 4330TIP3    H134481   2.973   4.889   9.690  0.8324  0.3731  0.0353
 4330TIP3    H234482   2.849   4.910   9.775  1.3650  0.3049  0.8367
 4331TIP3   OH234483   5.733   1.326  11.332 -0.0276  0.6063 -0.4580
 4331TIP3    H134484   5.657   1.320  11.389  0.3724  0.2729  0.0504
 4331TIP3    H234485   5.712   1.397  11.271 -0.8116  0.3944 -0.4369
 4332TIP3   OH234486   0.876   2.657   3.600  0.3385  0.0580 -0.1380
 4332TIP3    H134487   0.867   2.573   3.645  1.1813  0.1408  0.2099
 4332TIP3    H234488   0.828   2.719   3.654 -1.7209 -0.4759 -1.2757
 4333TIP3   OH234489   2.262   1.835  11.848 -0.0535  0.0866  0.0536
 4333TIP3    H134490   2.327   1.785  11.898  0.7739 -0.0040 -1.0811
 4333TIP3    H234491   2.244   1.781  11.771 -1.0475  0.3877  0.0652
 4334TIP3   OH234492   4.932   5.170  13.712 -0.4427 -0.0422  0.0425
 4334TIP3    H134493   4.934   5.083  13.670 -0.8847  0.2687 -0.6358
 4334TIP3    H234494   4.998   5.221  13.664 -0.3066  0.0561  0.3277
 4335TIP3   OH234495   1.801   0.694  13.141 -0.3508  0.0370 -0.2764
 4335TIP3    H134496   1.767   0.750  13.071 -1.6879  0.1211  0.4101
 4335TIP3    H234497   1.744   0.712  13.216 -0.8562 -2.2679 -0.0283
 4336TIP3   OH234498   5.792   2.796  11.192 -0.1333 -0.1241 -0.4816
 4336TIP3    H134499   5.829   2.728  11.136  1.0290 -0.6050  0.8205
 4336TIP3    H234500   5.841   2.875  11.168 -0.5127 -0.0408 -1.0067
 4337TIP3   OH234501   1.192   6.706  12.609 -0.2475  0.1616 -0.4739
 4337TIP3    H134502   1.134   6.720  12.684  1.6549  2.7833  0.6796
 4337TIP3    H234503   1.264   6.653  12.644 -0.5361 -0.7015 -1.1492
 4338TIP3   OH234504   6.024   5.007  10.277 -0.0745 -0.3883 -0.5788
 4338TIP3    H134505   6.024   5.094  10.235 -1.8995 -0.2825 -0.4515
 4338TIP3    H234506   6.027   4.946  10.204  0.7441 -0.2310 -0.6880
 4339TIP3   OH234507   0.015   5.412  11.795  0.4285  0.2080 -0.2684
 4339TIP3    H134508  -0.077   5.429  11.776  0.1126 -0.4719  0.6078
 4339TIP3    H234509   0.022   5.316  11.795  0.8939  0.2292  0.7506
 4340TIP3   OH234510   0.633   0.237   2.215  0.1548 -0.1151 -0.2154
 4340TIP3    H134511   0.571   0.310   2.227 -0.5548 -0.7667  0.1931
 4340TIP3    H234512   0.646   0.203   2.303  0.6392 -0.3550 -0.3795
 4341TIP3   OH234513   4.438   2.171  10.993  0.2154 -0.2015  0.2278
 4341TIP3    H134514   4.411   2.255  10.955  1.3022 -0.4131 -1.1005
 4341TIP3    H234515   4.378   2.157  11.066 -1.9780  0.2520 -1.4006
 4342TIP3   OH234516   1.165   0.611  11.459  0.1784  0.0222  0.3420
 4342TIP3    H134517   1.072   0.612  11.439 -0.0956 -0.6269  1.5289
 4342TIP3    H234518   1.170   0.589  11.552  1.4660  1.4448  0.6466
 4343TIP3   OH234519   5.589   5.082  11.052  0.4009  0.0063 -0.3113
 4343TIP3    H134520   5.563   5.044  11.136 -0.3071  0.3113 -0.3863
 4343TIP3    H234521   5.654   5.148  11.074  2.3082 -1.7779 -0.2344
 4344TIP3   OH234522   1.214   6.239  12.379  0.1233  0.0453 -0.0263
 4344TIP3    H134523   1.294   6.187  12.373 -0.2009 -0.3176 -1.5851
 4344TIP3    H234524   1.171   6.226  12.294 -1.2353  0.7994  0.5265
 4345TIP3   OH234525   7.079   1.462  10.078 -0.0298  0.2854  0.5359
 4345TIP3    H134526   6.995   1.418  10.089 -0.6202  0.0518 -3.3481
 4345TIP3    H234527   7.142   1.406  10.123 -1.7329 -0.3051  2.2998
 4346TIP3   OH234528   2.313   6.506  10.635 -0.6796 -0.5144 -0.1232
 4346TIP3    H134529   2.236   6.458  10.666 -0.6263 -0.8058 -0.4355
 4346TIP3    H234530   2.313   6.586  10.686 -0.5261 -1.0360  0.7124
 4347TIP3   OH234531   6.664   1.403  15.264 -0.1988 -0.0643  0.3199
 4347TIP3    H134532   6.756   1.387  15.288  0.2098  0.2456 -0.9230
 4347TIP3    H234533   6.657   1.498  15.260 -0.4837 -0.0941  0.0999
 4348TIP3   OH234534   4.270   3.287  14.982  0.1632  0.0183  0.5160
 4348TIP3    H134535   4.268   3.236  14.901  1.4935 -0.0090  0.4770
 4348TIP3    H234536   4.200   3.250  15.036 -1.3450  0.6166 -0.9344
 4349TIP3   OH234537   3.121   5.405  11.466  0.1658  0.0021  0.2295
 4349TIP3    H134538   3.032   5.379  11.490  0.0911  0.0834  0.0451
 4349TIP3    H234539   3.178   5.348  11.519  0.0046 -0.0856  0.3100
 4350TIP3   OH234540   2.024   2.709   0.794 -0.1667 -0.1010  0.2467
 4350TIP3    H134541   1.995   2.632   0.842  0.0654 -0.1802  0.2615
 4350TIP3    H234542   2.002   2.783   0.851  0.4234 -0.2189  0.6308
 4351TIP3   OH234543   4.713   2.215  12.243  0.8527 -0.8554  0.3066
 4351TIP3    H134544   4.804   2.211  12.272  0.2735 -3.1779  2.0923
 4351TIP3    H234545   4.664   2.245  12.319 -0.0343 -0.8812 -0.2382
 4352TIP3   OH234546   4.287   3.610  15.100 -0.1855 -0.4772  0.0616
 4352TIP3    H134547   4.195   3.609  15.126 -0.1982 -3.0546  0.1964
 4352TIP3    H234548   4.295   3.539  15.037  1.2429  1.3156 -1.9490
 4353TIP3   OH234549   6.655   3.765   2.172 -0.1897 -0.3959  0.0776
 4353TIP3    H134550   6.639   3.858   2.153 -1.1237 -0.7155 -0.8219
 4353TIP3    H234551   6.687   3.764   2.262 -0.8154  0.7436  0.3413
 4354TIP3   OH234552   2.772   0.544  11.543  0.1496 -0.7641 -0.3519
 4354TIP3    H134553   2.697   0.581  11.497  0.5287 -0.7770 -0.9929
 4354TIP3    H234554   2.767   0.581  11.631 -1.1328 -1.4788 -0.0943
 4355TIP3   OH234555   0.741   0.727  10.857 -0.2176 -0.0747 -0.4999
 4355TIP3    H134556   0.726   0.638  10.827  0.5553 -0.5233  0.4056
 4355TIP3    H234557   0.654   0.767  10.860 -0.4972 -0.5798 -1.5320
 4356TIP3   OH234558   5.054   5.693   9.879  0.2883  0.0075 -0.2304
 4356TIP3    H134559   5.005   5.647   9.810 -0.2162 -1.2421  0.9214
 4356TIP3    H234560   5.083   5.774   9.837  1.3843 -1.4252 -2.4127
 4357TIP3   OH234561   1.532   2.229  10.837 -0.7311  0.2870  0.2348
 4357TIP3    H134562   1.548   2.316  10.801 -0.9843 -0.2648 -1.2771
 4357TIP3    H234563   1.610   2.211  10.890 -0.6378  1.3832  0.4994
 4358TIP3   OH234564   1.232   3.375  11.780 -0.2899  0.0185 -0.7834
 4358TIP3    H134565   1.231   3.427  11.699  1.0847  0.3250 -0.6259
 4358TIP3    H234566   1.159   3.409  11.831 -1.3825 -0.3836 -1.9934
 4359TIP3   OH234567   3.125   3.821  12.934 -0.2860  0.3759 -0.3147
 4359TIP3    H134568   3.189   3.881  12.895  2.0493 -1.0308  1.0785
 4359TIP3    H234569   3.109   3.858  13.021 -2.0420  1.1283 -0.9206
 4360TIP3   OH234570   6.754   5.343  10.913 -0.3460 -0.4293  0.0142
 4360TIP3    H134571   6.849   5.341  10.901 -0.2548 -0.9274  0.7554
 4360TIP3    H234572   6.724   5.413  10.855  0.6432  0.7777  0.9024
 4361TIP3   OH234573   0.557   2.967  12.753  0.3101  0.6508 -0.0969
 4361TIP3    H134574   0.474   2.953  12.797 -0.4353 -0.6204 -1.7968
 4361TIP3    H234575   0.537   3.029  12.683  1.2305  1.7592  0.5648
 4362TIP3   OH234576   0.740   5.580  11.045  0.1292 -0.4253 -0.0991
 4362TIP3    H134577   0.672   5.513  11.042  0.3565 -0.6427 -0.4795
 4362TIP3    H234578   0.704   5.652  10.992  0.4438 -0.7773 -0.7993
 4363TIP3   OH234579   3.287   7.247  12.395 -0.1035  0.0651 -0.3035
 4363TIP3    H134580   3.296   7.166  12.344  0.4776 -0.7200  1.0136
 4363TIP3    H234581   3.280   7.316  12.328  1.3678 -0.8454 -1.4667
 4364TIP3   OH234582   5.702   1.514  13.484 -0.2261  0.2773  0.6259
 4364TIP3    H134583   5.645   1.582  13.521  1.7961  1.8037  1.1491
 4364TIP3    H234584   5.756   1.485  13.557 -0.0585 -0.8386  0.0728
 4365TIP3   OH234585   5.595   2.655   9.990  0.1063 -0.2857  0.0331
 4365TIP3    H134586   5.685   2.625   9.982  0.1826 -0.1049  0.1941
 4365TIP3    H234587   5.565   2.669   9.900 -0.2577 -1.7933 -0.1005
 4366TIP3   OH234588   7.078   3.822  13.815  0.0441  0.3975 -0.4870
 4366TIP3    H134589   7.147   3.815  13.881 -0.5651 -1.4801  0.0377
 4366TIP3    H234590   7.015   3.883  13.852 -1.1617 -1.9263  1.6193
 4367TIP3   OH234591   1.520   4.219  14.621  0.2048  0.0430 -0.2724
 4367TIP3    H134592   1.449   4.163  14.590  0.1965 -0.0348 -0.1116
 4367TIP3    H234593   1.600   4.174  14.595  0.2155 -0.5300  0.6993
 4368TIP3   OH234594   6.994   1.655  10.539  0.0269  0.3992 -0.5919
 4368TIP3    H134595   7.071   1.607  10.510 -1.2459 -1.9719 -0.3009
 4368TIP3    H234596   6.990   1.640  10.633 -1.0789  0.0341 -0.6839
 4369TIP3   OH234597   0.247   4.599  12.837  0.1972  0.3665  0.1937
 4369TIP3    H134598   0.216   4.616  12.926  0.2122  1.2880  0.0311
 4369TIP3    H234599   0.226   4.678  12.788  0.5012  0.0052 -0.5431
 4370TIP3   OH234600   5.602   6.510  14.765  0.3404 -0.0478 -0.2383
 4370TIP3    H134601   5.572   6.444  14.703 -0.4114  1.0601 -1.0778
 4370TIP3    H234602   5.618   6.588  14.712  0.1236  0.7903  0.8919
 4371TIP3   OH234603   0.726   5.159  14.513  0.1908  0.5199  0.4124
 4371TIP3    H134604   0.668   5.234  14.524 -0.5036  0.4005 -1.9409
 4371TIP3    H234605   0.721   5.137  14.420  2.1809 -0.9997  0.5740
 4372TIP3   OH234606   5.256   4.455  12.784  0.5937 -0.3800 -0.8499
 4372TIP3    H134607   5.264   4.496  12.698 -0.0883  0.9795 -0.3066
 4372TIP3    H234608   5.187   4.505  12.827  0.0871 -1.8057  0.0613
 4373TIP3   OH234609   1.679   4.798  11.496 -0.5612 -0.1711  0.2129
 4373TIP3    H134610   1.596   4.766  11.460 -1.5246  1.5694  0.8079
 4373TIP3    H234611   1.654   4.870  11.553  1.2751 -0.3988  1.3781
 4374TIP3   OH234612   2.565   2.652  13.720 -0.0326  0.2073  0.1774
 4374TIP3    H134613   2.496   2.587  13.734 -0.0966  0.2359  0.0090
 4374TIP3    H234614   2.637   2.624  13.775 -0.0698  0.0053  0.1233
 4375TIP3   OH234615   6.592   1.363   3.285  0.5967  0.2515  0.5953
 4375TIP3    H134616   6.609   1.449   3.323 -1.5368  0.3039  1.5712
 4375TIP3    H234617   6.559   1.311   3.358  1.6232 -1.3613 -0.0311
 4376TIP3   OH234618   0.338   5.558  12.225 -0.2833 -0.2242 -0.3671
 4376TIP3    H134619   0.266   5.523  12.173  0.4095 -0.4731 -1.1769
 4376TIP3    H234620   0.341   5.651  12.203 -1.3570  0.1387  0.8781
 4377TIP3   OH234621   4.635   4.712   9.635  0.1059  0.1282 -0.6268
 4377TIP3    H134622   4.702   4.653   9.669  0.0496  0.7949  0.7129
 4377TIP3    H234623   4.684   4.786   9.597  0.1602 -0.4627 -1.7522
 4378TIP3   OH234624   1.121   5.215  14.870  0.2068  0.8681  0.3610
 4378TIP3    H134625   1.090   5.150  14.806  0.8053  0.5166  0.4145
 4378TIP3    H234626   1.041   5.253  14.906 -0.1695 -0.0571  0.5451
 4379TIP3   OH234627   7.068   4.394   9.927  0.6371  0.4892 -0.0599
 4379TIP3    H134628   7.131   4.334   9.886  0.8849  0.3963  0.4510
 4379TIP3    H234629   7.046   4.456   9.858  0.9223  0.2350 -0.3848
 4380TIP3   OH234630   0.708   3.801  12.864  0.4681 -0.1541  0.1343
 4380TIP3    H134631   0.706   3.734  12.933 -1.3356 -0.5658 -0.2805
 4380TIP3    H234632   0.702   3.884  12.912  2.0812 -0.2621  0.6085
 4381TIP3   OH234633   0.857   7.088   9.165 -0.1615  0.2137 -0.2350
 4381TIP3    H134634   0.765   7.069   9.184 -0.2375 -0.5101 -1.2683
 4381TIP3    H234635   0.885   7.016   9.108  1.7578 -1.0299  2.0741
 4382TIP3   OH234636   3.553   6.844  11.475 -0.8442  0.1930  0.4219
 4382TIP3    H134637   3.581   6.931  11.449  0.9724 -0.0004  1.5638
 4382TIP3    H234638   3.509   6.808  11.397 -0.4621  1.6126 -0.4775
 4383TIP3   OH234639   5.623   3.328   4.238  0.4231  0.7880 -0.4630
 4383TIP3    H134640   5.694   3.268   4.213  2.1017  1.9851  1.1404
 4383TIP3    H234641   5.576   3.344   4.156  2.2644  0.2832 -1.7051
 4384TIP3   OH234642   0.046   5.115  15.005  0.3827 -0.2116 -0.1598
 4384TIP3    H134643   0.010   5.026  14.995 -2.3851  0.8916 -0.9730
 4384TIP3    H234644   0.035   5.155  14.919 -0.7104  1.6486  0.7880
 4385TIP3   OH234645   2.782   4.676   2.459  0.6356 -0.4331  0.2561
 4385TIP3    H134646   2.775   4.771   2.471  0.8342 -0.5194  1.1120
 4385TIP3    H234647   2.736   4.659   2.377  0.2211  0.3542  0.3123
 4386TIP3   OH234648   5.210   4.228  12.295  0.2411 -0.2825  0.2991
 4386TIP3    H134649   5.255   4.220  12.379 -1.0200 -3.4268  0.7747
 4386TIP3    H234650   5.245   4.157  12.242 -0.0588  0.7540 -1.3733
 4387TIP3   OH234651   0.322   6.899  10.472 -0.3359  0.4774 -0.3565
 4387TIP3    H134652   0.273   6.914  10.553 -0.4074  0.7805 -0.4559
 4387TIP3    H234653   0.295   6.971  10.414 -2.3666 -1.1981 -1.6334
 4388TIP3   OH234654   0.091   5.935  11.633  0.4155  0.6191  0.2769
 4388TIP3    H134655   0.143   5.951  11.712 -1.2450  1.1180  1.3347
 4388TIP3    H234656   0.155   5.922  11.564  2.0147 -2.1935  2.1164
 4389TIP3   OH234657   3.005   6.429  14.027 -0.3331  0.3507  0.3241
 4389TIP3    H134658   2.971   6.340  14.018 -1.9245  0.8912  0.7762
 4389TIP3    H234659   3.044   6.447  13.941  2.9452 -1.8627  1.1185
 4390TIP3   OH234660   5.817   4.171   9.930 -0.4135 -0.5780 -0.4993
 4390TIP3    H134661   5.742   4.178   9.988 -1.6022 -1.4134 -1.8758
 4390TIP3    H234662   5.875   4.108   9.973 -1.0525 -0.8283  0.0094
 4391TIP3   OH234663   3.151   4.129  10.318  0.3966 -0.2174 -0.3988
 4391TIP3    H134664   3.143   4.039  10.284 -2.0893 -0.9004  1.6905
 4391TIP3    H234665   3.129   4.184  10.243  0.7577 -1.3854 -1.4077
 4392TIP3   OH234666   6.234   7.147   9.527  0.1573  0.1849 -0.0756
 4392TIP3    H134667   6.243   7.240   9.506  2.2086  0.4441  1.6567
 4392TIP3    H234668   6.323   7.115   9.536 -0.3014 -2.7322 -3.3726
 4393TIP3   OH234669   0.529   4.059  13.196 -0.3998  0.4601  0.6522
 4393TIP3    H134670   0.600   4.032  13.255 -0.2487  0.0798  0.3052
 4393TIP3    H234671   0.449   4.039  13.244 -0.2754  1.6088  1.3606
 4394TIP3   OH234672   0.316   7.039  12.749  0.3255 -0.5628 -0.5407
 4394TIP3    H134673   0.383   7.089  12.796 -0.7519  0.4441 -0.0213
 4394TIP3    H234674   0.238   7.093  12.754 -0.8481 -2.1968 -0.1402
 4395TIP3   OH234675   2.887   3.186  11.631  0.5640 -1.0743 -1.0911
 4395TIP3    H134676   2.920   3.097  11.619  0.4544 -1.0906 -1.2634
 4395TIP3    H234677   2.812   3.193  11.572  2.0573 -0.0629 -2.9526
 4396TIP3   OH234678   4.989   6.717   5.011  0.0409  0.5234 -0.2205
 4396TIP3    H134679   5.044   6.770   5.068 -0.6474 -0.4841  1.4784
 4396TIP3    H234680   5.049   6.681   4.946  0.9773  1.2429  0.2292
 4397TIP3   OH234681   4.589   2.877  14.267 -0.1029 -0.6936  0.2179
 4397TIP3    H134682   4.646   2.948  14.239 -0.9543 -0.7732 -1.9373
 4397TIP3    H234683   4.647   2.811  14.304  1.1598 -0.5125 -1.3523
 4398TIP3   OH234684   4.844   3.971   3.366  0.0207 -0.2315  0.3972
 4398TIP3    H134685   4.883   4.043   3.414  0.5344 -0.3541  0.1776
 4398TIP3    H234686   4.919   3.927   3.324 -0.3425 -0.5383  0.0593
 4399TIP3   OH234687   3.231   6.040  14.598 -0.2118 -0.1131  0.0831
 4399TIP3    H134688   3.284   5.962  14.615 -0.0143 -0.1838 -0.7873
 4399TIP3    H234689   3.230   6.047  14.502  4.1853  3.8870 -0.0369
 4400TIP3   OH234690   2.493   0.724  11.597 -0.2450  0.3811  0.7433
 4400TIP3    H134691   2.406   0.685  11.589  0.0327  0.1444 -2.3826
 4400TIP3    H234692   2.523   0.736  11.507  2.6744  1.1777  1.6834
 4401TIP3   OH234693   4.914   3.388  10.833 -0.1517 -0.5123  0.2619
 4401TIP3    H134694   4.978   3.317  10.836  0.5128  0.0987  1.1268
 4401TIP3    H234695   4.850   3.364  10.900  0.2277 -0.1586  0.7540
 4402TIP3   OH234696   3.514   2.314  10.377  0.3065  0.1287  0.3104
 4402TIP3    H134697   3.545   2.403  10.395 -0.8665  0.6877 -0.3452
 4402TIP3    H234698   3.569   2.284  10.305 -0.5844  1.0907 -0.8103
 4403TIP3   OH234699   0.939   4.316  14.184  0.3558 -0.2932  0.1755
 4403TIP3    H134700   0.937   4.225  14.156 -0.0164 -0.2529  0.0641
 4403TIP3    H234701   1.012   4.355  14.136  0.7610 -0.6198  0.5136
 4404TIP3   OH234702   1.380   3.349  12.623  0.1666 -0.5542  0.0134
 4404TIP3    H134703   1.473   3.356  12.603  0.6223 -2.6102  1.0428
 4404TIP3    H234704   1.341   3.430  12.591  2.2036  0.0735 -1.0015
 4405TIP3   OH234705   5.619   2.652   1.011  0.3022 -0.0853  0.2846
 4405TIP3    H134706   5.584   2.566   0.986 -1.2758  0.2397  1.2557
 4405TIP3    H234707   5.639   2.695   0.927 -0.6104 -0.7134 -0.2732
 4406TIP3   OH234708   3.195   3.236  12.942  0.2969 -0.6864  0.1113
 4406TIP3    H134709   3.226   3.209  12.855 -0.9332 -0.9082 -0.2902
 4406TIP3    H234710   3.270   3.279  12.983  1.4554 -2.1467 -0.3711
 4407TIP3   OH234711   7.100   7.237   0.210 -0.2330  0.3756  0.1267
 4407TIP3    H134712   7.137   7.203   0.128  1.1350  0.3213  0.7319
 4407TIP3    H234713   7.021   7.284   0.183 -1.9145 -2.7077 -0.8270
 4408TIP3   OH234714   3.999   2.033  10.098  0.4539  0.3357  0.2174
 4408TIP3    H134715   3.926   2.033  10.161 -0.4335 -0.0945 -0.7754
 4408TIP3    H234716   4.008   1.941  10.072  0.0786  0.6335 -1.0705
 4409TIP3   OH234717   1.888   3.898  10.264  0.5056  0.6378  0.1336
 4409TIP3    H134718   1.793   3.895  10.274  0.5480  0.2841  0.4459
 4409TIP3    H234719   1.906   3.988  10.238  0.1797  1.0030  1.1184
 4410TIP3   OH234720   4.334   6.865  12.291 -0.0730  0.3193  0.3824
 4410TIP3    H134721   4.317   6.839  12.200 -0.5705  1.3298  0.1666
 4410TIP3    H234722   4.399   6.935  12.284  1.8918 -1.3661  0.9993
 4411TIP3   OH234723   3.646   2.980  11.637  0.1689 -0.3399  0.3653
 4411TIP3    H134724   3.654   2.896  11.683 -0.0464  0.6902  2.3878
 4411TIP3    H234725   3.708   2.973  11.564 -0.5591 -2.6143 -0.1424
 4412TIP3   OH234726   5.965   5.776   2.192 -0.2060 -0.2335  0.2054
 4412TIP3    H134727   5.965   5.704   2.256 -1.4046  1.5549  2.3397
 4412TIP3    H234728   5.875   5.777   2.158  0.0483 -0.2797 -0.4806
 4413TIP3   OH234729   5.777   3.769  10.245 -0.8317 -0.1571  0.4996
 4413TIP3    H134730   5.793   3.848  10.193 -1.3416  0.8686  1.8392
 4413TIP3    H234731   5.724   3.714  10.188 -1.1675  0.8346 -0.1764
 4414TIP3   OH234732   2.763   2.184  12.048 -0.0534 -0.2443  0.2278
 4414TIP3    H134733   2.732   2.102  12.009  2.0237 -1.5624  1.1693
 4414TIP3    H234734   2.833   2.213  11.990 -0.9300  1.0490 -0.2317
 4415TIP3   OH234735   0.596   3.627  11.873  0.0479  0.2518  0.1696
 4415TIP3    H134736   0.502   3.624  11.892 -0.0964  2.6606  0.0624
 4415TIP3    H234737   0.632   3.552  11.921 -1.9770 -1.1209 -0.3127
 4416TIP3   OH234738   0.962   1.534   9.950  0.0144  0.4595  0.2311
 4416TIP3    H134739   1.010   1.598  10.003 -0.1460 -0.9014  2.1320
 4416TIP3    H234740   1.001   1.450   9.974 -1.3965 -0.3913 -0.3855
 4417TIP3   OH234741   1.591   6.712  12.261  0.1581  0.0163  0.0289
 4417TIP3    H134742   1.526   6.714  12.331 -1.3166 -0.5676 -1.2453
 4417TIP3    H234743   1.568   6.635  12.210  0.6607  0.8551 -1.5378
 4418TIP3   OH234744   4.707   2.358  13.453  0.0704  0.5769  0.3010
 4418TIP3    H134745   4.760   2.400  13.386  1.1193  2.0343  1.9522
 4418TIP3    H234746   4.639   2.423  13.473 -1.8935 -0.9052 -1.1567
 4419TIP3   OH234747   2.572   0.862  13.031 -0.8341 -0.3410 -0.1830
 4419TIP3    H134748   2.573   0.857  13.127 -0.8075 -0.7790 -0.2048
 4419TIP3    H234749   2.663   0.879  13.007 -0.4663 -2.1696 -0.2223
 4420TIP3   OH234750   4.443   6.397  14.373 -0.0934 -0.5718  0.3197
 4420TIP3    H134751   4.388   6.351  14.309  0.5526  0.0373 -0.6946
 4420TIP3    H234752   4.381   6.449  14.425 -0.7266 -1.7819  0.8213
 4421TIP3   OH234753   5.949   6.278  13.939 -0.3012 -0.9143  0.8532
 4421TIP3    H134754   6.024   6.299  13.883  1.8100 -2.2060  3.0082
 4421TIP3    H234755   5.936   6.356  13.993 -0.6639 -0.6282  0.3664
 4422TIP3   OH234756   4.644   1.120  14.164  0.8134 -0.0375 -0.1702
 4422TIP3    H134757   4.695   1.168  14.099  1.2151  0.7855  0.7214
 4422TIP3    H234758   4.636   1.032  14.129 -1.0775  0.9677 -2.5146
 4423TIP3   OH234759   3.702   0.437   0.323 -0.4611 -0.0830  0.1988
 4423TIP3    H134760   3.640   0.396   0.263  0.8073 -1.1987 -0.4130
 4423TIP3    H234761   3.695   0.386   0.404 -1.0986  0.4710  0.4968
 4424TIP3   OH234762   0.101   3.058   1.293 -0.2350  0.0395  0.2187
 4424TIP3    H134763   0.154   3.127   1.333  0.6094 -1.0975  1.1541
 4424TIP3    H234764   0.098   3.080   1.200  1.1980  0.5886  0.2759
 4425TIP3   OH234765   5.725   5.158   1.324  0.0001 -0.0754 -0.1644
 4425TIP3    H134766   5.636   5.145   1.292 -0.6848 -0.8426  1.8996
 4425TIP3    H234767   5.779   5.102   1.269 -1.0565 -1.0674 -0.2235
 4426TIP3   OH234768   2.489   2.919  11.674  0.5619  0.0807 -0.0515
 4426TIP3    H134769   2.447   2.840  11.706 -1.3101  1.8362  2.1864
 4426TIP3    H234770   2.463   2.924  11.582  0.6086 -1.7844 -0.2010
 4427TIP3   OH234771   5.387   2.600  12.523 -0.1812  0.3881  0.3230
 4427TIP3    H134772   5.323   2.645  12.468  1.1047  0.7606 -0.9159
 4427TIP3    H234773   5.438   2.671  12.563 -0.1611  0.0878  0.8429
 4428TIP3   OH234774   4.707   3.229  10.540  0.5995 -0.0055  0.0106
 4428TIP3    H134775   4.738   3.175  10.467  0.3778  0.9894 -0.8349
 4428TIP3    H234776   4.764   3.306  10.539 -0.8860  1.1333 -0.6075
 4429TIP3   OH234777   5.145   2.070   9.937 -0.7065 -0.3429  0.3132
 4429TIP3    H134778   5.122   2.078   9.844 -0.6381 -0.1834  0.3107
 4429TIP3    H234779   5.232   2.030   9.937  0.9939  3.0596  0.1821
 4430TIP3   OH234780   6.674   6.249  11.700 -0.0940 -0.2885 -0.2819
 4430TIP3    H134781   6.719   6.242  11.615  0.7353 -0.2293  0.1446
 4430TIP3    H234782   6.635   6.163  11.713  1.7146 -1.0638  0.3256
 4431TIP3   OH234783   2.210   1.947   0.289 -0.1518  0.2916 -0.2850
 4431TIP3    H134784   2.125   1.921   0.324  0.5181 -0.3559  0.9036
 4431TIP3    H234785   2.192   1.968   0.197 -2.1830  3.1004  0.6026
 4432TIP3   OH234786   3.765   4.081   4.690 -0.3093 -0.1213  0.3608
 4432TIP3    H134787   3.835   4.135   4.653 -1.3022 -0.2609 -1.9154
 4432TIP3    H234788   3.794   3.991   4.675 -0.7539 -0.1808 -0.1512
 4433TIP3   OH234789   3.470   4.456  14.903 -0.5629  0.3840  0.2190
 4433TIP3    H134790   3.480   4.399  14.979 -0.7431  1.4920  1.1095
 4433TIP3    H234791   3.418   4.405  14.841  1.9720 -1.6529 -0.4017
 4434TIP3   OH234792   5.871   5.145  13.996 -0.0651 -0.8490  0.4755
 4434TIP3    H134793   5.924   5.091  14.055  1.6476  0.0463 -0.1696
 4434TIP3    H234794   5.927   5.158  13.919 -0.4697  1.6221  0.5048
 4435TIP3   OH234795   3.563   3.945  11.508  0.0199 -0.2960 -0.2622
 4435TIP3    H134796   3.508   3.938  11.586 -2.2601  1.5847 -1.5440
 4435TIP3    H234797   3.631   4.008  11.532 -3.2183  3.9015 -0.8613
 4436TIP3   OH234798   6.115   1.064   4.721 -0.0728 -0.4095 -0.5782
 4436TIP3    H134799   6.184   1.012   4.678  0.7518  1.1750 -1.2507
 4436TIP3    H234800   6.136   1.154   4.699 -1.6234  0.2128  0.3466
 4437TIP3   OH234801   0.084   5.490  13.026 -0.1235 -0.2306 -0.2665
 4437TIP3    H134802   0.084   5.527  13.115 -0.2654 -1.7636  0.4058
 4437TIP3    H234803   0.069   5.565  12.969 -0.7921  0.6804  1.0582
 4438TIP3   OH234804   7.208   2.058   0.391  0.0152  0.5758 -0.4832
 4438TIP3    H134805   7.203   2.152   0.375  1.1827  0.5837 -0.9643
 4438TIP3    H234806   7.298   2.044   0.422 -0.9633 -0.0070  2.3916
 4439TIP3   OH234807   1.109   6.840  13.475 -0.0517 -0.0256  0.1308
 4439TIP3    H134808   1.193   6.866  13.515  0.8051 -2.2196 -0.0960
 4439TIP3    H234809   1.123   6.750  13.446 -1.7929  0.3098 -1.9952
 4440TIP3   OH234810   5.505   2.706   4.789 -0.2693 -0.3638 -0.2378
 4440TIP3    H134811   5.429   2.654   4.815 -2.1492  1.9538 -0.6826
 4440TIP3    H234812   5.491   2.791   4.830  1.8869  0.2919 -0.7232
 4441TIP3   OH234813   3.788   0.779  11.388 -0.1915  0.0463  0.3101
 4441TIP3    H134814   3.699   0.795  11.417  0.2261 -0.5092  2.0322
 4441TIP3    H234815   3.795   0.683  11.383  0.6222  0.0375  1.3121
 4442TIP3   OH234816   1.510   1.906  11.525  0.1806 -0.5121 -0.6040
 4442TIP3    H134817   1.540   1.846  11.593  1.7198  0.7627 -0.0680
 4442TIP3    H234818   1.420   1.928  11.549 -0.3735 -2.4735 -0.7673
 4443TIP3   OH234819   1.030   3.554  13.543  0.4055 -0.2320  0.2315
 4443TIP3    H134820   1.005   3.469  13.579 -1.0385  0.1981  0.3199
 4443TIP3    H234821   1.088   3.533  13.469  0.4008 -1.2635  0.5067
 4444TIP3   OH234822   3.802   0.336   3.557 -0.5484 -0.5862  0.3165
 4444TIP3    H134823   3.755   0.278   3.497 -0.3335 -0.0058 -0.4106
 4444TIP3    H234824   3.852   0.276   3.613  0.6908 -1.0771 -1.2680
 4445TIP3   OH234825   4.485   5.940  10.808 -0.3040 -0.4254 -0.3450
 4445TIP3    H134826   4.397   5.967  10.782  0.1767 -0.1327 -1.7257
 4445TIP3    H234827   4.477   5.922  10.902 -2.3865 -2.6381 -0.8453
 4446TIP3   OH234828   4.982   5.250   1.744  0.4368  0.0512 -0.2513
 4446TIP3    H134829   5.067   5.258   1.700  0.2843 -0.1986 -0.5949
 4446TIP3    H234830   4.917   5.259   1.674  0.1562  0.9003  0.1058
 4447TIP3   OH234831   3.036   0.869   2.986  0.3592 -0.1351  0.2226
 4447TIP3    H134832   3.005   0.872   2.896 -1.0045  0.3131  0.6810
 4447TIP3    H234833   3.053   0.776   3.002 -0.4456 -0.3592 -0.1614
 4448TIP3   OH234834   2.598   6.169  13.200 -0.1612 -0.1690  0.0373
 4448TIP3    H134835   2.643   6.109  13.259  1.9272 -0.7849 -1.9961
 4448TIP3    H234836   2.668   6.226  13.166 -1.0001 -0.5720 -2.6026
 4449TIP3   OH234837   3.097   1.389  10.876  0.7245  0.0282 -0.4179
 4449TIP3    H134838   3.119   1.352  10.961  4.5498  0.2640 -1.0824
 4449TIP3    H234839   3.134   1.328  10.812 -0.4241  0.7525 -1.8455
 4450TIP3   OH234840   0.255   2.753  11.211  0.3171  0.2141 -0.6201
 4450TIP3    H134841   0.191   2.729  11.278 -0.5176 -0.2496 -1.5387
 4450TIP3    H234842   0.340   2.738  11.251 -0.1452  0.9969  0.6976
 4451TIP3   OH234843   2.767   6.697  11.968 -0.2797  0.4133 -0.4318
 4451TIP3    H134844   2.718   6.742  12.037 -0.3789 -1.5964  0.8874
 4451TIP3    H234845   2.702   6.682  11.899 -0.9648 -0.2167  0.3313
 4452TIP3   OH234846   6.182   0.488  12.288  0.7285 -0.3764  0.4750
 4452TIP3    H134847   6.259   0.540  12.311 -0.2196  1.4270 -0.2301
 4452TIP3    H234848   6.201   0.452  12.202  0.9821 -0.3701  0.5281
 4453TIP3   OH234849   1.183   3.726  12.029 -0.1430 -0.4702  0.0088
 4453TIP3    H134850   1.198   3.818  12.047  0.1070 -0.7414  1.2442
 4453TIP3    H234851   1.123   3.697  12.097  1.0145 -1.5842  0.5926
 4454TIP3   OH234852   3.404   4.114   1.465 -0.0079 -0.2323 -0.1998
 4454TIP3    H134853   3.351   4.144   1.392 -0.3974 -2.2445 -0.7910
 4454TIP3    H234854   3.360   4.149   1.543  0.2607  1.6973 -0.8568
 4455TIP3   OH234855   4.349   1.698  14.484  0.0536 -0.0287 -0.0202
 4455TIP3    H134856   4.260   1.732  14.473 -0.7683 -1.4700  1.6430
 4455TIP3    H234857   4.382   1.741  14.562  1.2367  1.1966 -1.1341
 4456TIP3   OH234858   0.241   1.276  10.924  0.4433  0.5856 -0.4241
 4456TIP3    H134859   0.323   1.258  10.970  1.2132 -1.2074 -2.3935
 4456TIP3    H234860   0.175   1.273  10.993  1.2618 -4.0680  0.4865
 4457TIP3   OH234861   4.469   1.882  14.719 -0.0520 -0.0508 -0.3316
 4457TIP3    H134862   4.444   1.971  14.695 -0.8060 -0.4013 -0.8791
 4457TIP3    H234863   4.562   1.877  14.698  0.0983  0.7343  0.0976
 4458TIP3   OH234864   5.045   1.403  14.713  0.1452 -0.4315  0.0935
 4458TIP3    H134865   5.113   1.471  14.713 -0.4722  0.1969 -0.3701
 4458TIP3    H234866   5.035   1.380  14.806  1.3335 -0.8990  0.1282
 4459TIP3   OH234867   0.709   1.993  13.129 -0.6422  0.0066 -0.6242
 4459TIP3    H134868   0.745   1.937  13.197  1.8052  2.2821  0.1477
 4459TIP3    H234869   0.753   1.964  13.049  2.4476  2.0800  0.1440
 4460TIP3   OH234870   3.535   0.994  14.074  0.7634  0.2153  0.0731
 4460TIP3    H134871   3.546   1.078  14.030  2.4529  0.5499  1.0437
 4460TIP3    H234872   3.488   0.940  14.011  0.8740  1.4514 -1.1160
 4461TIP3   OH234873   6.729   2.989  11.587  0.0480  0.0257  0.4660
 4461TIP3    H134874   6.786   2.916  11.609 -1.5909 -1.4664  0.0022
 4461TIP3    H234875   6.650   2.974  11.640 -0.0885  1.8259  0.8465
 4462TIP3   OH234876   6.536   3.904  10.715 -0.2353  0.3807  0.1702
 4462TIP3    H134877   6.541   3.863  10.628 -0.4968  1.5953 -0.4386
 4462TIP3    H234878   6.479   3.846  10.766 -0.6567  0.0279 -0.6838
 4463TIP3   OH234879   2.837   2.965  11.289  0.5564  0.4418 -0.0870
 4463TIP3    H134880   2.834   2.882  11.242  0.6102  1.4411 -1.9633
 4463TIP3    H234881   2.810   2.944  11.378 -0.0955 -1.4618 -0.6948
 4464TIP3   OH234882   1.887   0.361  10.798  0.0915  0.5111  0.4734
 4464TIP3    H134883   1.832   0.295  10.842  0.6632  0.5264  1.2274
 4464TIP3    H234884   1.829   0.401  10.734 -0.5300 -0.0914  0.6437
 4465TIP3   OH234885   4.767   3.793   3.709 -0.5976  0.4781 -0.2023
 4465TIP3    H134886   4.831   3.726   3.685 -2.0185 -1.4960  1.2628
 4465TIP3    H234887   4.759   3.786   3.804 -3.6815 -0.0469 -0.4168
 4466TIP3   OH234888   0.495   1.754   4.601 -0.3055  0.2404 -0.2076
 4466TIP3    H134889   0.437   1.710   4.662  0.4019 -0.3676  0.0457
 4466TIP3    H234890   0.583   1.741   4.637  0.1051  0.0760 -1.2222
 4467TIP3   OH234891   3.210   4.620   3.998 -0.0623  0.1892 -0.3018
 4467TIP3    H134892   3.136   4.667   4.037 -0.4649  0.0218 -0.8512
 4467TIP3    H234893   3.287   4.657   4.040 -0.3645  1.3663 -0.7390
 4468TIP3   OH234894   3.881   0.516   1.324  0.2296  0.1902  0.2743
 4468TIP3    H134895   3.930   0.494   1.245 -0.2534 -0.0424  0.0381
 4468TIP3    H234896   3.810   0.573   1.293 -0.5185 -0.6598  0.4025
 4469TIP3   OH234897   7.196   3.430  14.898 -0.1199 -0.1322 -0.6827
 4469TIP3    H134898   7.169   3.375  14.972 -2.7417  3.1578  1.1544
 4469TIP3    H234899   7.172   3.380  14.820  2.1362 -3.4739  0.5629
 4470TIP3   OH234900   0.030   2.988  10.394 -0.0918  0.2690  0.6827
 4470TIP3    H134901   0.048   2.914  10.336  0.9979  1.2812 -0.3519
 4470TIP3    H234902  -0.031   3.042  10.344  0.6097  0.9940  0.5905
 4471TIP3   OH234903   2.287   6.956  10.592 -0.0914 -0.3732 -0.2677
 4471TIP3    H134904   2.256   6.913  10.512  0.2707 -0.2112 -0.4966
 4471TIP3    H234905   2.247   7.043  10.590  0.1639 -0.2584 -0.4300
 4472TIP3   OH234906   0.008   2.360  10.626 -0.5437 -0.1413 -0.4991
 4472TIP3    H134907   0.035   2.352  10.718 -0.2073  1.5016 -0.4286
 4472TIP3    H234908  -0.081   2.324  10.624 -0.1430 -1.2565  0.2153
 4473TIP3   OH234909   0.214   0.084   6.117  0.6414  0.0996 -0.3874
 4473TIP3    H134910   0.283   0.021   6.094  0.1956 -0.5505  0.0114
 4473TIP3    H234911   0.258   0.151   6.169  1.1667  0.2356 -1.0042
 4474TIP3   OH234912   6.974   5.775  13.221 -0.8010  0.2393  0.5320
 4474TIP3    H134913   6.958   5.698  13.167 -1.1297  0.1941  0.6884
 4474TIP3    H234914   7.005   5.841  13.159 -1.1233  0.1729  0.2906
 4475TIP3   OH234915   2.011   5.418  15.147 -0.4549  0.0947 -0.3166
 4475TIP3    H134916   1.952   5.430  15.221  0.3823  1.5443  0.1468
 4475TIP3    H234917   2.070   5.493  15.150  1.4815 -1.3281 -0.7098
 4476TIP3   OH234918   2.319   1.358  12.987 -0.4024 -0.9244  0.1431
 4476TIP3    H134919   2.396   1.341  12.934 -0.8587 -1.0722 -0.4928
 4476TIP3    H234920   2.334   1.445  13.025 -0.3862 -0.4895 -0.8301
 4477TIP3   OH234921   6.179   1.687  12.846 -0.4053  0.1806  0.1720
 4477TIP3    H134922   6.206   1.761  12.790 -0.5534  0.7062  0.7881
 4477TIP3    H234923   6.230   1.613  12.813  0.4628  0.7704  0.1515
 4478TIP3   OH234924   6.277   3.985  10.499 -0.1668  0.6334 -0.9430
 4478TIP3    H134925   6.250   3.991  10.591  0.8853 -0.6628 -0.5057
 4478TIP3    H234926   6.311   4.071  10.478 -0.6809  1.0305 -0.2037
 4479TIP3   OH234927   2.940   5.353  11.217  0.3274  0.0135 -0.2389
 4479TIP3    H134928   2.849   5.383  11.212  0.0651 -0.8382 -0.7369
 4479TIP3    H234929   2.948   5.318  11.305  0.7158  1.7351  0.4521
 4480TIP3   OH234930   6.457   1.774  10.435 -0.9963  0.3844 -0.1208
 4480TIP3    H134931   6.501   1.690  10.427 -0.3830  0.8149 -1.8699
 4480TIP3    H234932   6.364   1.753  10.436 -0.8241 -0.3644  0.5327
 4481TIP3   OH234933   0.244   0.949   9.296  0.2429  0.6211 -0.6557
 4481TIP3    H134934   0.329   0.911   9.274 -0.2346  0.0143 -1.5271
 4481TIP3    H234935   0.199   0.955   9.212 -1.2979 -0.8947  0.0039
 4482TIP3   OH234936   4.085   5.043  12.566  0.5136  0.9958 -0.6229
 4482TIP3    H134937   4.157   5.025  12.505  0.3776  0.7998 -0.7306
 4482TIP3    H234938   4.124   5.093  12.637  1.4334 -1.5821  0.8427
 4483TIP3   OH234939   5.022   3.818  10.457 -0.0789  0.1391  0.4979
 4483TIP3    H134940   5.003   3.780  10.371 -0.8707  2.1488 -0.2738
 4483TIP3    H234941   4.938   3.850  10.489  0.0804 -1.1765  2.3827
 4484TIP3   OH234942   6.078   4.870  10.026 -0.5546 -0.1779  0.3534
 4484TIP3    H134943   6.066   4.776  10.033 -2.0711 -0.1595 -1.1570
 4484TIP3    H234944   6.057   4.890   9.935  0.7830  1.5027  0.3495
 4485TIP3   OH234945   2.560   4.622  11.871  0.3862 -0.3814 -0.7042
 4485TIP3    H134946   2.621   4.580  11.811  0.7510 -1.6682  0.5025
 4485TIP3    H234947   2.503   4.550  11.900  0.0918  0.2474  0.3071
 4486TIP3   OH234948   5.651   3.851  13.705  0.1801  0.0699 -0.0268
 4486TIP3    H134949   5.643   3.832  13.611  0.4084 -0.3247  0.0302
 4486TIP3    H234950   5.711   3.784  13.737 -0.3991 -0.1869  0.5281
 4487TIP3   OH234951   4.076   1.865   0.243 -0.3176 -0.1079 -0.3320
 4487TIP3    H134952   4.022   1.944   0.249  1.7063  1.2860  3.4250
 4487TIP3    H234953   4.064   1.823   0.328 -0.4891 -3.4004 -1.8547
 4488TIP3   OH234954   6.463   4.740  14.542  0.1472  0.7306 -0.3826
 4488TIP3    H134955   6.500   4.652  14.533 -1.4153 -0.1217  1.0620
 4488TIP3    H234956   6.539   4.798  14.542  1.3093 -0.7476  0.1812
 4489TIP3   OH234957   3.127   5.898  10.332  0.6074  0.2060 -0.5635
 4489TIP3    H134958   3.171   5.817  10.305 -0.7933 -0.4759 -0.9118
 4489TIP3    H234959   3.088   5.931  10.251 -0.0695  0.4299 -0.1441
 4490TIP3   OH234960   4.628   2.491  11.061  0.6443  0.0007 -0.0422
 4490TIP3    H134961   4.698   2.447  11.109 -0.6092 -0.8343  1.1010
 4490TIP3    H234962   4.669   2.570  11.026  2.0204 -0.1845  1.0594
 4491TIP3   OH234963   1.567   0.639  12.621 -0.1513  0.0435  0.0659
 4491TIP3    H134964   1.570   0.568  12.557  0.4071 -0.1357  0.2894
 4491TIP3    H234965   1.507   0.703  12.583  0.2849  0.0002 -0.6954
 4492TIP3   OH234966   5.766   0.150   0.894 -0.5078 -0.4914 -0.0135
 4492TIP3    H134967   5.687   0.140   0.946 -0.4128  0.8744  0.4371
 4492TIP3    H234968   5.740   0.209   0.823 -0.0411 -0.4576 -0.1574
 4493TIP3   OH234969   1.933   4.430  15.183  0.2303 -0.0324  0.1487
 4493TIP3    H134970   1.964   4.417  15.273 -1.1572  1.7513  0.9288
 4493TIP3    H234971   1.875   4.356  15.168  0.4996 -0.3681  0.6999
 4494TIP3   OH234972   0.652   1.703  11.469  0.3249  0.1145  0.0344
 4494TIP3    H134973   0.568   1.714  11.426  0.4551  0.7488 -0.0655
 4494TIP3    H234974   0.674   1.790  11.503  0.8061 -0.1036  0.3064
 4495TIP3   OH234975   5.972   2.083   9.652 -0.0623 -0.1882 -0.3461
 4495TIP3    H134976   6.056   2.099   9.608 -0.5625  1.7847 -0.6900
 4495TIP3    H234977   5.992   2.090   9.745  0.0093  1.4174 -0.4443
 4496TIP3   OH234978   7.233   4.456  12.713  0.4897 -0.2956 -0.0677
 4496TIP3    H134979   7.262   4.475  12.802  2.3249 -0.6434 -0.5611
 4496TIP3    H234980   7.268   4.369  12.694  2.1186  0.6837 -1.9106
 4497TIP3   OH234981   4.229   5.834  13.195  0.1920  0.1578  0.0182
 4497TIP3    H134982   4.160   5.808  13.134  0.9466 -0.2516 -0.6875
 4497TIP3    H234983   4.211   5.785  13.275 -0.6743  0.5211  0.0589
 4498TIP3   OH234984   0.553   1.018   9.942 -0.6511 -0.2283  0.4240
 4498TIP3    H134985   0.632   1.051   9.984 -0.2059  1.5175 -1.6016
 4498TIP3    H234986   0.509   0.966  10.010  1.4836 -0.0626  2.0345
 4499TIP3   OH234987   5.140   2.701   1.359 -0.2158 -0.2845 -0.7790
 4499TIP3    H134988   5.097   2.756   1.294  0.0005  1.9603  0.8574
 4499TIP3    H234989   5.070   2.648   1.397 -0.8137  0.3338 -1.0122
 4500TIP3   OH234990   0.371   0.954  12.282 -0.1367 -0.4388 -0.1838
 4500TIP3    H134991   0.409   0.893  12.345 -0.3673  0.6141  1.0212
 4500TIP3    H234992   0.428   1.030  12.284 -0.4817 -0.1522 -0.8102
 4501TIP3   OH234993   5.343   3.591   0.539 -0.2191 -0.0364 -0.1073
 4501TIP3    H134994   5.308   3.526   0.600  2.4270  0.1237  1.7637
 4501TIP3    H234995   5.388   3.538   0.472  0.1711 -0.1800  0.2625
 4502TIP3   OH234996   1.664   5.749  12.420 -0.3302  0.0665  0.4683
 4502TIP3    H134997   1.615   5.682  12.467 -0.2723  0.1650  0.6722
 4502TIP3    H234998   1.682   5.710  12.335 -1.0959  0.1795  0.2467
 4503TIP3   OH234999   0.694   2.267  11.560  0.1347 -0.6279 -0.6517
 4503TIP3    H135000   0.759   2.222  11.505  0.6396 -0.3238 -0.3091
 4503TIP3    H235001   0.742   2.342  11.596 -0.0118 -1.1833  0.7239
 4504TIP3   OH235002   4.333   2.959  10.186 -0.0292  0.3789 -0.1406
 4504TIP3    H135003   4.397   2.889  10.179  0.0422  0.3472  0.7416
 4504TIP3    H235004   4.319   2.970  10.280 -3.3356 -1.5037 -0.2536
 4505TIP3   OH235005   4.583   3.355  11.748  0.0964  0.1075  0.6569
 4505TIP3    H135006   4.628   3.347  11.832  0.9128 -1.0007  0.1387
 4505TIP3    H235007   4.490   3.352  11.771  0.3029 -1.1468  1.4578
 4506TIP3   OH235008   1.020   5.931   3.462 -0.3251  0.6600 -0.8619
 4506TIP3    H135009   0.940   5.899   3.420 -1.2981  1.8789  0.0134
 4506TIP3    H235010   1.062   5.851   3.496 -2.5128  0.1730  0.9487
 4507TIP3   OH235011   3.671   0.503   2.591 -0.3336 -0.2131 -0.1594
 4507TIP3    H135012   3.601   0.559   2.558 -1.2060 -1.3728 -0.3277
 4507TIP3    H235013   3.705   0.458   2.514  0.7458  0.4719 -0.1095
 4508TIP3   OH235014   5.777   3.270  12.783  0.0463 -0.2534  0.1774
 4508TIP3    H135015   5.869   3.251  12.802 -0.1827  0.2637  1.9622
 4508TIP3    H235016   5.766   3.244  12.692  1.9860 -0.2157 -0.1141
 4509TIP3   OH235017   2.979   6.141   0.042 -0.8949 -0.5052 -0.4143
 4509TIP3    H135018   2.940   6.226   0.063  0.5783  0.6031 -1.9199
 4509TIP3    H235019   3.020   6.154  -0.043  0.9926 -2.1610  0.1746
 4510TIP3   OH235020   4.372   1.621   2.918 -0.3006 -0.3444 -0.4171
 4510TIP3    H135021   4.436   1.641   2.986 -0.4187  0.9632 -0.6795
 4510TIP3    H235022   4.422   1.618   2.837 -0.3084 -1.0263 -0.4076
 4511TIP3   OH235023   0.389   1.489  14.583 -0.2139 -0.1886 -0.9178
 4511TIP3    H135024   0.331   1.467  14.510 -1.3649  1.1675 -0.4468
 4511TIP3    H235025   0.423   1.575  14.561 -0.1108 -0.0198 -0.1322
 4512TIP3   OH235026   6.189   6.269  10.957  0.0113 -0.4117  0.7782
 4512TIP3    H135027   6.115   6.320  10.923  0.6123 -0.3417 -0.5008
 4512TIP3    H235028   6.159   6.237  11.042 -0.7120  1.3224  1.2265
 4513TIP3   OH235029   3.932   0.944   4.108 -0.5029  0.1335 -0.2751
 4513TIP3    H135030   3.919   0.948   4.013 -0.6003 -0.4825 -0.2883
 4513TIP3    H235031   3.845   0.956   4.145 -0.9193 -2.2538 -0.3302
 4514TIP3   OH235032   2.046   6.552   4.376 -0.7615  0.8590 -0.3342
 4514TIP3    H135033   2.117   6.502   4.335  0.0644  0.8399  1.0600
 4514TIP3    H235034   1.969   6.534   4.321  0.2529  0.7151 -1.7539
 4515TIP3   OH235035   2.881   1.708  11.717 -0.1482 -0.4757 -0.4334
 4515TIP3    H135036   2.970   1.744  11.714 -0.5103  0.4815 -0.0899
 4515TIP3    H235037   2.888   1.623  11.676  0.7595 -0.0473 -1.1945
 4516TIP3   OH235038   3.496   1.295  10.178 -0.1621  0.4259  0.4116
 4516TIP3    H135039   3.413   1.342  10.167  0.2528  0.9195 -0.7922
 4516TIP3    H235040   3.534   1.293  10.091  0.1068 -1.6921  0.5390
 4517TIP3   OH235041   2.629   5.657  14.461 -0.1503  0.0156  0.1346
 4517TIP3    H135042   2.549   5.699  14.430  0.0302  0.6274  0.4829
 4517TIP3    H235043   2.699   5.698  14.410 -0.2067 -2.1001 -1.8211
 4518TIP3   OH235044   6.792   6.902  14.123  0.2087 -0.2346 -0.2036
 4518TIP3    H135045   6.757   6.870  14.040  0.3946 -1.8168  0.2983
 4518TIP3    H235046   6.730   6.970  14.150  1.4039  2.0942 -2.7595
 4519TIP3   OH235047   4.427   3.314   3.159 -0.1140  0.5312  0.8915
 4519TIP3    H135048   4.414   3.400   3.200 -0.4917  1.2931 -0.7582
 4519TIP3    H235049   4.399   3.252   3.226 -1.2525  1.7445  1.6080
 4520TIP3   OH235050   6.663   5.657   1.832 -0.0929  0.3791 -0.1721
 4520TIP3    H135051   6.567   5.653   1.831 -0.0989 -0.4914  1.2036
 4520TIP3    H235052   6.690   5.598   1.762 -0.5600 -0.1964  0.1246
 4521TIP3   OH235053   2.972   6.072   1.882 -0.7388  0.5941 -0.6953
 4521TIP3    H135054   3.054   6.110   1.851  1.1673 -2.2093  0.4719
 4521TIP3    H235055   2.944   6.015   1.810  0.6716 -1.6013  0.3762
 4522TIP3   OH235056   4.963   3.983  11.451 -0.0881  0.0903  0.2178
 4522TIP3    H135057   4.902   4.036  11.400 -0.0311 -0.3451 -0.3180
 4522TIP3    H235058   4.959   4.019  11.539 -0.9812  0.1938  0.1460
 4523TIP3   OH235059   3.854   5.203   4.019 -0.2263  0.5215 -0.7553
 4523TIP3    H135060   3.795   5.130   3.997  0.0245  0.5361 -1.4995
 4523TIP3    H235061   3.941   5.172   3.995  0.0087  0.7190 -0.1846
 4524TIP3   OH235062   5.676   5.062  14.347  0.2759 -0.1505  0.2676
 4524TIP3    H135063   5.629   5.058  14.430 -0.3662 -1.5339 -0.1363
 4524TIP3    H235064   5.682   5.155  14.327 -0.5973  0.1426  1.2824
 4525TIP3   OH235065   3.136   0.980  11.422  0.2286  0.0943  0.0547
 4525TIP3    H135066   3.070   0.910  11.419 -0.7241  0.9277  0.6633
 4525TIP3    H235067   3.099   1.049  11.367  0.2368  0.8656  0.9975
 4526TIP3   OH235068   6.505   1.049  11.527  0.0601 -0.8972 -0.1434
 4526TIP3    H135069   6.475   1.139  11.534  1.2219 -0.5266  0.1374
 4526TIP3    H235070   6.451   1.012  11.457  0.0735  0.2175 -0.7644
 4527TIP3   OH235071   5.525   0.539  13.266 -0.1385 -0.3157  0.1914
 4527TIP3    H135072   5.571   0.553  13.183  0.7441  0.1364  0.7358
 4527TIP3    H235073   5.557   0.609  13.323 -0.7141 -0.6360  0.9246
 4528TIP3   OH235074   3.070   6.463  12.036  0.9151 -0.0235 -0.2554
 4528TIP3    H135075   3.089   6.371  12.017 -2.5418 -0.8463 -0.3034
 4528TIP3    H235076   3.023   6.462  12.119 -2.1862  1.1947 -1.8145
 4529TIP3   OH235077   1.757   4.214  12.700  0.6055  0.4785 -0.1210
 4529TIP3    H135078   1.673   4.185  12.666 -1.1626  1.1152  3.2214
 4529TIP3    H235079   1.809   4.134  12.708 -0.3603 -0.2109 -0.5811
 4530TIP3   OH235080   7.086   7.167  10.292  0.2485 -0.3398 -0.1991
 4530TIP3    H135081   7.052   7.252  10.264 -2.2693 -1.1145  0.2757
 4530TIP3    H235082   7.132   7.133  10.215  0.2665  0.9452 -0.7732
 4531TIP3   OH235083   2.238   4.469   0.820 -0.6383 -0.6611 -0.5435
 4531TIP3    H135084   2.252   4.560   0.848 -0.7354 -1.2840  1.7403
 4531TIP3    H235085   2.326   4.438   0.798 -0.1221 -0.8143  1.4898
 4532TIP3   OH235086   4.239   1.307  13.991  0.1936 -0.2735  0.0579
 4532TIP3    H135087   4.238   1.308  13.896 -1.3648  0.9378  0.0366
 4532TIP3    H235088   4.329   1.328  14.015 -0.2396  3.8962 -1.2311
 4533TIP3   OH235089   4.105   4.251  13.712 -0.0409 -0.4200 -0.1343
 4533TIP3    H135090   4.075   4.224  13.799 -0.1126 -0.9633 -0.3228
 4533TIP3    H235091   4.170   4.185  13.688 -0.2052 -0.4147 -0.5977
 4534TIP3   OH235092   4.991   3.804  12.905 -0.1262  0.5397 -0.3121
 4534TIP3    H135093   5.019   3.895  12.909 -0.1168  0.5990 -1.3589
 4534TIP3    H235094   4.965   3.791  12.814 -0.7431 -0.3284 -0.0298
 4535TIP3   OH235095   0.130   2.642   3.749  0.3397 -0.2726 -0.5087
 4535TIP3    H135096   0.114   2.684   3.834  1.0906 -1.1691  0.0991
 4535TIP3    H235097   0.043   2.629   3.711 -0.0240 -0.1409  0.2631
 4536TIP3   OH235098   0.193   7.095   2.544 -0.4211  0.1712 -0.0850
 4536TIP3    H135099   0.232   7.182   2.547 -0.3522  0.1122  0.7620
 4536TIP3    H235100   0.256   7.043   2.494  1.3393 -0.2609  2.3894
 4537TIP3   OH235101   4.926   2.225  13.554  0.1391  0.4762  0.3907
 4537TIP3    H135102   4.924   2.219  13.649 -1.4898 -0.6526  0.3315
 4537TIP3    H235103   4.860   2.292  13.534 -0.2700 -0.0232  0.0390
 4538TIP3   OH235104   4.029   1.215   9.996 -0.3446  0.2788  0.3390
 4538TIP3    H135105   4.058   1.302  10.023  0.5273  0.2917 -0.5800
 4538TIP3    H235106   3.978   1.231   9.917  1.4451 -0.1885 -0.9553
 4539TIP3   OH235107   1.213   5.641  14.721  0.3602  0.6689  0.2290
 4539TIP3    H135108   1.262   5.699  14.779  0.3179  0.6376  0.2952
 4539TIP3    H235109   1.124   5.641  14.755  0.0049  1.7405 -0.6390
 4540TIP3   OH235110   4.710   4.476  10.325 -0.5158 -0.9781  0.0055
 4540TIP3    H135111   4.729   4.384  10.344  0.1687 -1.1228 -1.2730
 4540TIP3    H235112   4.794   4.512  10.296 -0.5345  0.3242  1.4468
 4541TIP3   OH235113   2.116   1.897  12.839 -0.0223  0.5556 -0.2385
 4541TIP3    H135114   2.165   1.855  12.910 -0.6838 -0.4307 -0.3492
 4541TIP3    H235115   2.108   1.988  12.866 -0.7113  0.0961  1.2363
 4542TIP3   OH235116   0.070   5.883  14.608 -0.0641  0.1279 -0.1371
 4542TIP3    H135117   0.129   5.821  14.564  0.2575 -0.6014  1.2496
 4542TIP3    H235118   0.075   5.962  14.554  1.0261 -0.4101 -0.8891
 4543TIP3   OH235119   7.197   1.538  15.266 -0.0380  0.0930  0.1443
 4543TIP3    H135120   7.143   1.512  15.192  0.4064  1.3206 -0.6462
 4543TIP3    H235121   7.155   1.617  15.300  0.4906  0.2861  0.3658
 4544TIP3   OH235122   6.833   6.872  13.122  0.0297 -0.1573  0.1192
 4544TIP3    H135123   6.824   6.802  13.057  0.6870  1.0666 -1.3307
 4544TIP3    H235124   6.744   6.883  13.157  0.1476 -2.6396  1.4313
 4545TIP3   OH235125   5.003   5.140  13.302  0.0127  0.0712 -0.4159
 4545TIP3    H135126   5.006   5.235  13.294  1.3244  0.3022  1.9322
 4545TIP3    H235127   5.061   5.109  13.233  2.1832  1.2250  0.7588
 4546TIP3   OH235128   4.968   3.472  13.290 -0.2325  0.3582 -0.1290
 4546TIP3    H135129   4.963   3.428  13.206  0.8424  0.6324 -0.3538
 4546TIP3    H235130   4.904   3.543  13.283  0.7993  1.2326 -1.2650
 4547TIP3   OH235131   3.509   2.112  10.940 -0.0942 -0.1938  0.0114
 4547TIP3    H135132   3.586   2.147  10.985  0.1859 -1.1628  0.3247
 4547TIP3    H235133   3.436   2.129  10.999 -0.2115  1.1612 -0.5033
 4548TIP3   OH235134   0.514   4.689   3.791  0.5191  0.5532 -0.0085
 4548TIP3    H135135   0.524   4.671   3.885 -0.8126 -0.4282 -0.0287
 4548TIP3    H235136   0.500   4.604   3.751  0.4166  1.0243 -1.0162
 4549TIP3   OH235137   4.862   1.789  10.895 -0.8510  0.1208 -0.0181
 4549TIP3    H135138   4.845   1.764  10.804 -0.4706  2.2874 -0.7496
 4549TIP3    H235139   4.906   1.874  10.888  1.9761 -1.0232  2.0801
 4550TIP3   OH235140   4.775   4.349  13.370  0.4976 -0.1793  0.1453
 4550TIP3    H135141   4.726   4.320  13.293 -0.3746  0.6124  0.3865
 4550TIP3    H235142   4.865   4.357  13.338 -0.0782  1.5653 -1.2329
 4551TIP3   OH235143   6.091   1.439  14.963  0.1582  0.0050  0.2488
 4551TIP3    H135144   6.157   1.440  15.032  0.0353  1.8094  0.3938
 4551TIP3    H235145   6.022   1.498  14.995 -0.5909 -0.2811 -0.7693
 4552TIP3   OH235146   2.402   3.540  11.001  0.8485 -0.4704 -0.3239
 4552TIP3    H135147   2.435   3.466  10.950 -1.7133  0.1040 -3.1169
 4552TIP3    H235148   2.415   3.514  11.092  3.8599 -2.4558 -1.1582
 4553TIP3   OH235149   2.855   0.741  15.004  0.4726 -1.2591 -0.3399
 4553TIP3    H135150   2.764   0.768  15.012  1.1069  0.8770  0.1493
 4553TIP3    H235151   2.880   0.766  14.915  0.7595 -1.2627 -0.2627
 4554TIP3   OH235152   2.267   2.340  12.171 -0.0187 -1.0795  0.2406
 4554TIP3    H135153   2.338   2.278  12.156  0.4962 -0.3300 -0.5379
 4554TIP3    H235154   2.203   2.319  12.102  0.3117 -0.5393 -0.2405
 4555TIP3   OH235155   2.475   6.128  15.355  0.1419  0.1349  0.5067
 4555TIP3    H135156   2.395   6.087  15.388 -0.2215  0.4752  0.0565
 4555TIP3    H235157   2.471   6.116  15.260  0.3218  0.6987  0.4252
 4556TIP3   OH235158   6.791   3.549  11.886  0.0478 -0.2051 -0.2547
 4556TIP3    H135159   6.860   3.613  11.906 -0.5578  1.3272 -2.5949
 4556TIP3    H235160   6.838   3.473  11.852  0.7861 -1.1345  2.5753
 4557TIP3   OH235161   1.763   4.154   0.169  0.1743 -0.4143 -0.9541
 4557TIP3    H135162   1.856   4.166   0.188  0.4852 -1.3472 -1.7878
 4557TIP3    H235163   1.760   4.145   0.073 -0.6804 -1.1509 -0.8687
 4558TIP3   OH235164   1.616   5.811  15.269 -0.1484  0.2204 -0.3706
 4558TIP3    H135165   1.557   5.736  15.268 -0.8190  0.6707  1.3889
 4558TIP3    H235166   1.606   5.852  15.183  0.3609 -1.7608 -1.4299
 4559TIP3   OH235167   1.338   4.368  11.167 -0.6657 -0.0452 -0.0359
 4559TIP3    H135168   1.420   4.389  11.124  0.2527  2.1158  2.4768
 4559TIP3    H235169   1.272   4.418  11.118  0.0889  1.1053  0.0933
 4560TIP3   OH235170   4.584   7.057  14.566  0.3936 -0.3401  0.5513
 4560TIP3    H135171   4.533   7.021  14.638  1.6458 -0.7986  1.2466
 4560TIP3    H235172   4.529   7.045  14.489 -0.3196 -1.3131  1.1849
 4561TIP3   OH235173   1.006   1.878  11.758  0.2843 -0.2652 -0.2614
 4561TIP3    H135174   1.005   1.968  11.789 -0.6342 -0.6537  0.8971
 4561TIP3    H235175   0.917   1.846  11.772  1.3205 -2.3502  2.4246
 4562TIP3   OH235176   4.927   0.941   1.405 -0.1803 -0.2268 -0.4406
 4562TIP3    H135177   4.845   0.905   1.438  0.5133 -1.2357  0.2419
 4562TIP3    H235178   4.968   0.982   1.481  0.6161 -1.0298 -0.4076
 4563TIP3   OH235179   4.641   2.615  14.470 -0.1156 -0.0058  0.5282
 4563TIP3    H135180   4.649   2.546  14.536  1.4038 -0.9224 -0.5568
 4563TIP3    H235181   4.550   2.644  14.477 -0.7655 -1.9999  1.1298
 4564TIP3   OH235182   5.962   7.255  12.982  0.2208 -0.9723 -0.2402
 4564TIP3    H135183   6.046   7.241  13.027 -0.0242 -2.0178 -0.0753
 4564TIP3    H235184   5.981   7.323  12.918  0.5899  0.5642  1.4183
 4565TIP3   OH235185   1.529   5.527  10.603  0.1808  0.0227 -0.0768
 4565TIP3    H135186   1.595   5.458  10.588 -0.2469 -0.3108 -0.4615
 4565TIP3    H235187   1.454   5.480  10.641  1.1321  0.7955  3.0250
 4566TIP3   OH235188   2.251   3.354   0.168 -0.1440  0.2075  0.7515
 4566TIP3    H135189   2.257   3.292   0.096  2.0206  1.8373 -0.5604
 4566TIP3    H235190   2.157   3.358   0.188 -0.4700 -2.5367  0.1286
 4567TIP3   OH235191   3.995   5.070  11.948  0.2676  0.1389 -0.4863
 4567TIP3    H135192   3.934   5.097  11.880  0.0386 -2.1119 -1.2530
 4567TIP3    H235193   3.945   5.077  12.030 -0.3933  0.1573 -0.8841
 4568TIP3   OH235194   3.162   5.703  13.268  0.4448  0.0226  0.2543
 4568TIP3    H135195   3.103   5.651  13.322 -0.7527 -0.5526 -1.5138
 4568TIP3    H235196   3.178   5.783  13.318 -1.6720  0.0973  0.8817
 4569TIP3   OH235197   5.198   3.733  10.843 -0.1371 -0.1027  0.3898
 4569TIP3    H135198   5.214   3.657  10.787 -0.5591  0.5307 -0.6247
 4569TIP3    H235199   5.282   3.779  10.847 -0.3763  0.4562 -0.6807
 4570TIP3   OH235200   1.271   2.305  14.602  0.2511  0.8486 -0.4651
 4570TIP3    H135201   1.366   2.293  14.612  0.2791  0.4922 -1.1200
 4570TIP3    H235202   1.258   2.312  14.508 -0.5147 -0.2989 -0.4591
 4571TIP3   OH235203   1.118   3.360  10.990 -0.0552  0.3288 -0.3960
 4571TIP3    H135204   1.165   3.292  11.038 -0.0909  0.8965  0.4714
 4571TIP3    H235205   1.035   3.319  10.965  0.6188 -0.4845 -1.4009
 4572TIP3   OH235206   3.109   2.845   4.434  0.1989  0.1263 -0.4758
 4572TIP3    H135207   3.193   2.801   4.419  0.1638 -0.2243  0.3149
 4572TIP3    H235208   3.043   2.782   4.407  0.1384 -0.4693  0.9516
 4573TIP3   OH235209   1.599   4.405  11.064  0.0714  0.0823 -0.8575
 4573TIP3    H135210   1.623   4.440  10.979  0.8183  1.0974 -0.2520
 4573TIP3    H235211   1.659   4.331  11.077  0.9878  0.8626 -0.5727
 4574TIP3   OH235212   3.248   2.970   3.677 -0.0804  0.5168  0.5592
 4574TIP3    H135213   3.248   2.919   3.758  3.6112  0.3968  0.6732
 4574TIP3    H235214   3.274   2.907   3.609 -1.7129  0.9397 -0.5288
 4575TIP3   OH235215   4.297   2.102  11.599  0.1317  0.6902  0.1362
 4575TIP3    H135216   4.206   2.085  11.621  0.3860  0.5162  1.0858
 4575TIP3    H235217   4.323   2.173  11.658  1.0695 -0.3366  0.9892
 4576TIP3   OH235218   3.109   6.556  15.213 -0.5377  0.3470 -0.0861
 4576TIP3    H135219   3.064   6.600  15.285 -1.1500 -1.5992  0.7737
 4576TIP3    H235220   3.202   6.576  15.227 -0.7990  1.4002  0.2322
 4577TIP3   OH235221   4.461   3.417   9.573  0.2847 -0.1037  0.4932
 4577TIP3    H135222   4.392   3.354   9.598  0.7931 -0.2007  1.7695
 4577TIP3    H235223   4.543   3.368   9.586  0.6108 -0.0604 -1.2209
 4578TIP3   OH235224   4.825   3.765   0.837 -0.6556  0.0242  0.4784
 4578TIP3    H135225   4.807   3.799   0.750 -0.8854  1.0170  0.8862
 4578TIP3    H235226   4.756   3.702   0.854 -0.9976  0.3222  0.1952
 4579TIP3   OH235227   7.181   0.053  11.645 -0.1494  1.0965 -0.6489
 4579TIP3    H135228   7.274   0.052  11.666  0.1833  1.5307 -2.0142
 4579TIP3    H235229   7.137   0.044  11.730  1.1289 -0.4221 -0.0973
 4580TIP3   OH235230   2.022   1.831  10.623 -0.0603  0.4132 -0.2184
 4580TIP3    H135231   1.926   1.828  10.625 -0.0714  0.3349 -0.9357
 4580TIP3    H235232   2.043   1.896  10.557  0.3774  1.5470  0.9969
 4581TIP3   OH235233   2.107   0.438   9.898 -0.1161  0.4912  0.4482
 4581TIP3    H135234   2.063   0.354   9.882  1.3072 -0.1042 -0.4883
 4581TIP3    H235235   2.088   0.490   9.820 -0.5373  0.8454  0.7842
 4582TIP3   OH235236   6.842   2.037  12.825  0.1020  0.0131  0.5004
 4582TIP3    H135237   6.875   1.948  12.832  0.7690 -0.1979 -3.3631
 4582TIP3    H235238   6.751   2.032  12.856  0.4438 -1.7164  1.3440
 4583TIP3   OH235239   2.880   2.495  10.370  0.5032  0.0779  0.3034
 4583TIP3    H135240   2.945   2.484  10.300  0.2748  2.7955 -0.4356
 4583TIP3    H235241   2.928   2.477  10.451  1.1369 -1.7128 -0.4205
 4584TIP3   OH235242   3.767   1.676  15.195  0.2618  0.0203 -0.2504
 4584TIP3    H135243   3.767   1.674  15.291 -2.9587 -1.6161 -0.1305
 4584TIP3    H235244   3.744   1.767  15.174 -2.0769 -0.2518  0.7487
 4585TIP3   OH235245   4.101   3.014  13.223 -0.3433 -0.2576 -0.2303
 4585TIP3    H135246   4.098   2.919  13.206  2.2188 -0.5302  0.4152
 4585TIP3    H235247   4.056   3.025  13.306 -1.6774 -0.7191 -0.8655
 4586TIP3   OH235248   2.043   2.924  15.229  0.4903 -0.3767  0.7332
 4586TIP3    H135249   2.033   2.860  15.300 -0.0059 -0.4896  0.5633
 4586TIP3    H235250   2.003   2.882  15.153 -1.4562  0.8092  1.0173
 4587TIP3   OH235251   4.973   0.973  14.762 -0.2890 -0.0418  0.3082
 4587TIP3    H135252   4.893   0.984  14.711  0.2187  0.6349 -0.3596
 4587TIP3    H235253   5.033   0.928  14.703 -0.3951 -1.1898  1.0439
 4588TIP3   OH235254   0.215   0.636  10.145 -0.4698 -0.1736 -0.1671
 4588TIP3    H135255   0.253   0.683  10.071 -0.2001 -0.0989  0.0193
 4588TIP3    H235256   0.125   0.671  10.151  0.1498  1.3703  0.8455
 4589TIP3   OH235257   1.061   6.482  11.562  0.1328  0.8149  0.2289
 4589TIP3    H135258   1.146   6.450  11.534  0.0070  0.9636 -0.3303
 4589TIP3    H235259   1.006   6.404  11.564  0.7204  0.3930  2.3634
 4590TIP3   OH235260   4.912   2.898  13.370 -0.3684 -1.1645  0.1606
 4590TIP3    H135261   4.926   2.990  13.394  0.0793 -0.8265 -1.2440
 4590TIP3    H235262   4.999   2.858  13.377  0.0664 -0.7527 -1.9000
 4591TIP3   OH235263   1.275   6.579  11.939 -0.2347  0.4762 -0.4614
 4591TIP3    H135264   1.282   6.618  12.026  0.8860 -0.6383 -0.0347
 4591TIP3    H235265   1.193   6.615  11.904 -1.0882  0.3855  1.3173
 4592TIP3   OH235266   4.778   3.737   2.632  0.5791  0.0337  0.6271
 4592TIP3    H135267   4.797   3.719   2.724  0.4195 -0.6498  0.5332
 4592TIP3    H235268   4.839   3.807   2.608  0.2533  0.6005  1.3927
 4593TIP3   OH235269   3.053   1.729  14.327 -0.2607  0.8207 -0.6358
 4593TIP3    H135270   3.112   1.737  14.252  3.4281 -2.1983  1.6109
 4593TIP3    H235271   2.992   1.659  14.303  0.5391  0.2549 -1.0349
 4594TIP3   OH235272   1.437   5.776   0.877  0.0852 -0.0872  0.0905
 4594TIP3    H135273   1.368   5.758   0.813  0.2065 -0.4448  0.0570
 4594TIP3    H235274   1.517   5.786   0.824  0.0309  0.4875  0.1157
 4595TIP3   OH235275   2.259   3.787  14.247 -0.5483  0.0899  0.0282
 4595TIP3    H135276   2.206   3.766  14.170 -0.6158 -0.5325  0.2419
 4595TIP3    H235277   2.259   3.707  14.299  1.2830 -0.2293 -0.3757
 4596TIP3   OH235278   1.511   2.822  11.630 -0.0515 -0.1302  0.2360
 4596TIP3    H135279   1.512   2.737  11.674 -1.6114 -0.1574  0.2806
 4596TIP3    H235280   1.535   2.803  11.539 -1.5767 -0.8329 -0.0497
 4597TIP3   OH235281   4.801   0.663  15.101 -0.4262  0.2636  0.1627
 4597TIP3    H135282   4.880   0.657  15.047 -1.1096  2.0032 -1.1032
 4597TIP3    H235283   4.796   0.578  15.145  1.9827  0.0126  0.0789
 4598TIP3   OH235284   7.025   7.207  10.744 -0.2341 -0.0975 -0.0107
 4598TIP3    H135285   7.019   7.217  10.839  1.8285 -1.9695  0.3991
 4598TIP3    H235286   6.975   7.127  10.725  0.5195 -0.5182 -0.2750
 4599TIP3   OH235287   6.845   4.425   5.023  0.0734 -0.2370 -0.2028
 4599TIP3    H135288   6.872   4.454   5.110 -1.3269  0.0174  0.1803
 4599TIP3    H235289   6.874   4.495   4.964  2.7257 -1.2683 -0.2733
 4600TIP3   OH235290   3.260   1.187  10.467  0.1398  0.2284  0.3518
 4600TIP3    H135291   3.221   1.114  10.418 -0.3803  0.8742 -0.2130
 4600TIP3    H235292   3.354   1.167  10.468  0.0028 -0.4516  0.2080
 4601TIP3   OH235293   7.246   0.143   3.969  0.0364 -0.8466  0.5222
 4601TIP3    H135294   7.301   0.097   4.033  1.3758  0.0203  0.0328
 4601TIP3    H235295   7.158   0.110   3.986  0.0660  0.3782  3.7856
 4602TIP3   OH235296   0.631   0.010   1.929  0.7302 -0.0643 -0.1710
 4602TIP3    H135297   0.570   0.065   1.978  0.7614 -0.0936 -0.0993
 4602TIP3    H235298   0.602  -0.079   1.947  0.0087 -0.0483 -1.1411
 4603TIP3   OH235299   4.393   3.586  13.564  0.0079  0.4689  0.0325
 4603TIP3    H135300   4.402   3.632  13.481  1.7103 -1.2863 -0.8136
 4603TIP3    H235301   4.477   3.599  13.608 -0.8238  1.2586  1.4719
 4604TIP3   OH235302   4.236   5.791  10.461 -0.6854  0.3192 -0.8303
 4604TIP3    H135303   4.327   5.793  10.489 -0.0705  2.6315 -2.7040
 4604TIP3    H235304   4.239   5.761  10.370 -1.9690 -0.8433 -0.5299
 4605TIP3   OH235305   6.815   4.435  13.130 -0.7502 -0.0407 -0.3267
 4605TIP3    H135306   6.908   4.456  13.137 -0.6380 -0.6214  0.0918
 4605TIP3    H235307   6.806   4.390  13.046 -0.3180 -1.4930  0.3553
 4606TIP3   OH235308   1.437   1.492   9.978  0.1603 -0.3774 -0.1056
 4606TIP3    H135309   1.478   1.537  10.052 -1.1393  0.1919  0.2859
 4606TIP3    H235310   1.374   1.555   9.943  1.3409 -0.2951 -2.2577
 4607TIP3   OH235311   6.088   5.806  14.834  0.4993 -0.4632 -0.1472
 4607TIP3    H135312   6.019   5.764  14.783 -0.7026  1.4276 -0.1905
 4607TIP3    H235313   6.093   5.895  14.799  0.6577  0.4622  2.0236
 4608TIP3   OH235314   1.019   0.332   9.530  0.1220  0.1245  0.6865
 4608TIP3    H135315   1.023   0.265   9.462  0.0024  0.5513  0.2565
 4608TIP3    H235316   1.083   0.303   9.595 -0.1958 -0.6075  0.6947
 4609TIP3   OH235317   1.249   3.365  11.472  0.0866  0.0971 -1.0454
 4609TIP3    H135318   1.339   3.369  11.504 -0.6625  2.2406  1.0602
 4609TIP3    H235319   1.250   3.415  11.390  1.1628 -1.6453 -2.1411
 4610TIP3   OH235320   2.738   0.660   0.898 -0.4818 -0.3505  0.0355
 4610TIP3    H135321   2.738   0.756   0.895 -0.1711 -0.3558 -2.0402
 4610TIP3    H235322   2.671   0.634   0.835 -1.7842 -1.5391  1.8357
 4611TIP3   OH235323   3.433   0.520  14.075 -0.2563  0.6563  0.1455
 4611TIP3    H135324   3.509   0.563  14.114 -0.4451 -0.0222  1.3023
 4611TIP3    H235325   3.373   0.592  14.054  1.1811  1.3538 -2.0214
 4612TIP3   OH235326   0.666   4.638   0.243  0.4006  0.3533  0.3366
 4612TIP3    H135327   0.708   4.683   0.170 -0.9750  0.0512 -0.6819
 4612TIP3    H235328   0.578   4.677   0.249  0.5424  0.5147  1.9761
 4613TIP3   OH235329   0.255   4.778  10.893 -0.3251 -0.4987 -0.5371
 4613TIP3    H135330   0.340   4.821  10.889 -0.0959 -1.0281 -3.2616
 4613TIP3    H235331   0.272   4.696  10.941  0.8462 -0.8657 -1.5389
 4614TIP3   OH235332   3.003   0.004   0.599 -0.0957 -0.0249  0.6037
 4614TIP3    H135333   2.953   0.064   0.543 -0.0955 -0.2312  0.3808
 4614TIP3    H235334   3.094   0.035   0.592 -0.0191 -0.3531  0.0913
 4615TIP3   OH235335   1.113   2.109   9.278 -0.2866 -0.0055 -0.5030
 4615TIP3    H135336   1.080   2.108   9.188 -0.9247  2.1511 -0.3495
 4615TIP3    H235337   1.196   2.155   9.273  0.1624 -0.7499 -0.1032
 4616TIP3   OH235338   3.006   3.556  14.583  0.6294  0.1029  0.1919
 4616TIP3    H135339   2.965   3.555  14.669 -0.2220 -1.2842 -0.1951
 4616TIP3    H235340   3.024   3.648  14.566 -1.4628  0.6728  0.8104
 4617TIP3   OH235341   1.690   3.599  11.591  0.3710  0.0283 -0.1829
 4617TIP3    H135342   1.782   3.611  11.613  0.6735 -0.1315 -1.3147
 4617TIP3    H235343   1.690   3.577  11.498 -0.8384  0.3843 -0.2837
 4618TIP3   OH235344   5.343   2.390  11.832 -0.2156 -0.6607 -0.2716
 4618TIP3    H135345   5.438   2.381  11.828 -0.1018  0.0726  0.5889
 4618TIP3    H235346   5.328   2.476  11.871 -1.2167 -1.3915  1.0494
 4619TIP3   OH235347   4.110   4.691  10.552  0.5217  0.2511  0.3188
 4619TIP3    H135348   4.040   4.654  10.606 -0.1276  0.3873 -0.4156
 4619TIP3    H235349   4.085   4.672  10.462  1.0820  0.9046  0.0081
 4620TIP3   OH235350   6.615   4.162  10.602  0.5381 -0.1368  0.1386
 4620TIP3    H135351   6.705   4.161  10.570  0.3800 -0.8342 -0.3087
 4620TIP3    H235352   6.597   4.071  10.626 -0.2567 -0.1215 -0.3688
 4621TIP3   OH235353   6.240   0.195   9.469  0.7615 -0.0150 -0.4080
 4621TIP3    H135354   6.269   0.284   9.454  1.5313 -0.1220  0.4122
 4621TIP3    H235355   6.174   0.180   9.401  0.4362  1.2502 -0.3941
 4622TIP3   OH235356   1.352   0.627  14.811 -0.0028 -0.7530 -0.5365
 4622TIP3    H135357   1.296   0.598  14.739 -0.1984 -1.4869 -0.0934
 4622TIP3    H235358   1.441   0.605  14.784  0.0591  0.1327 -1.1058
 4623TIP3   OH235359   5.504   7.108  11.038  0.2791 -0.4050  0.4900
 4623TIP3    H135360   5.594   7.079  11.020  1.6949  2.7606  1.6247
 4623TIP3    H235361   5.513   7.202  11.058 -3.0334 -0.3850  2.6422
 4624TIP3   OH235362   2.733   2.239  10.075 -0.5784  0.9088 -0.0247
 4624TIP3    H135363   2.756   2.191  10.155 -3.5754  0.5502  0.7448
 4624TIP3    H235364   2.740   2.174  10.005 -2.6740 -0.2282  0.7307
 4625TIP3   OH235365   0.909   6.150   1.319  0.1330 -0.0796  0.3795
 4625TIP3    H135366   0.949   6.237   1.319  1.9864 -0.8833  0.0477
 4625TIP3    H235367   0.816   6.167   1.311  0.5578  1.8278 -1.2774
 4626TIP3   OH235368   6.080   5.216  13.079  0.4351 -1.2268 -0.3964
 4626TIP3    H135369   6.028   5.209  13.159  0.2751 -0.3086 -0.4138
 4626TIP3    H235370   6.157   5.162  13.095 -0.5784 -2.7420 -0.4260
 4627TIP3   OH235371   3.614   2.595  11.061 -0.5458 -0.7652  0.6804
 4627TIP3    H135372   3.545   2.562  11.004 -0.9604 -0.7676  1.1741
 4627TIP3    H235373   3.690   2.607  11.003 -1.4904  1.0651 -0.2936
 4628TIP3   OH235374   3.639   6.552   3.395  0.8533  0.1874 -0.3234
 4628TIP3    H135375   3.654   6.499   3.473 -2.6334  0.3263  0.5830
 4628TIP3    H235376   3.617   6.489   3.327  0.0646  0.2532 -0.1389
 4629TIP3   OH235377   1.728   5.111   3.991  0.3580  0.0451  0.6203
 4629TIP3    H135378   1.772   5.066   3.918  1.8338 -0.5908  1.8427
 4629TIP3    H235379   1.694   5.040   4.045 -0.1105  0.4997  0.9242
 4630TIP3   OH235380   6.526   3.824   1.333 -0.3621  0.5657 -0.0417
 4630TIP3    H135381   6.524   3.867   1.418 -0.1006 -0.4942  0.5215
 4630TIP3    H235382   6.485   3.887   1.273 -2.2989  0.5819  1.2002
 4631TIP3   OH235383   0.678   3.728  12.299  0.0348 -0.7085  0.6995
 4631TIP3    H135384   0.676   3.640  12.336  1.4723 -0.8786  0.4427
 4631TIP3    H235385   0.739   3.722  12.225 -0.6994  0.2502 -0.0145
 4632TIP3   OH235386   1.509   1.870  10.846 -0.0659  0.2234 -0.4016
 4632TIP3    H135387   1.559   1.798  10.884  0.6427 -0.3399 -2.2474
 4632TIP3    H235388   1.574   1.939  10.830 -0.7513  1.3646  1.4395
 4633TIP3   OH235389   3.526   0.339  13.897 -0.1451 -0.7036  0.3386
 4633TIP3    H135390   3.498   0.396  13.968  0.2700  0.5558 -0.4736
 4633TIP3    H235391   3.449   0.329  13.842  0.4391  1.2515 -0.9107
 4634TIP3   OH235392   6.641   5.356   2.065  0.2242  0.4937  0.4375
 4634TIP3    H135393   6.545   5.355   2.069  0.1911  1.3429  0.0666
 4634TIP3    H235394   6.668   5.396   2.148  0.3129 -0.7977  1.0538
 4635TIP3   OH235395   7.232   6.769   9.698  0.0314 -0.5618  0.8665
 4635TIP3    H135396   7.175   6.702   9.735 -1.3604  0.8777  1.4326
 4635TIP3    H235397   7.228   6.755   9.604 -0.5552 -1.0322  0.9566
 4636TIP3   OH235398   1.596   0.771   0.077 -0.3884 -0.4222  0.1925
 4636TIP3    H135399   1.688   0.753   0.095  0.2166  1.2780 -0.8839
 4636TIP3    H235400   1.564   0.817   0.155 -0.5034 -1.5035  0.7962
 4637TIP3   OH235401   6.693   4.137  12.124  0.4163  0.1108  0.2389
 4637TIP3    H135402   6.763   4.075  12.145 -0.0959 -0.7779 -0.6373
 4637TIP3    H235403   6.705   4.208  12.188  2.1215 -0.0079  0.1150
 4638TIP3   OH235404   4.052   2.139  11.027 -0.0313  0.5648  0.6200
 4638TIP3    H135405   4.118   2.111  11.090 -0.4450  1.3741  1.4295
 4638TIP3    H235406   3.985   2.071  11.030  0.7346 -0.2443 -0.1817
 4639TIP3   OH235407   6.588   3.470   0.019  0.1141  0.1373  0.2781
 4639TIP3    H135408   6.643   3.392   0.022 -0.6054 -0.4166 -0.5278
 4639TIP3    H235409   6.574   3.485  -0.074 -0.9666  0.3696  0.4730
 4640TIP3   OH235410   4.433   6.528  10.195 -0.1322  0.0060 -0.3459
 4640TIP3    H135411   4.357   6.506  10.250  0.4919  0.9425  0.9511
 4640TIP3    H235412   4.452   6.447  10.148 -1.9374 -0.2527 -0.7305
 4641TIP3   OH235413   2.294   6.404   0.667 -0.6965  0.1692 -0.0489
 4641TIP3    H135414   2.202   6.431   0.667 -0.5974  0.5122  0.2382
 4641TIP3    H235415   2.340   6.477   0.625 -0.6110 -0.2136 -0.6394
 4642TIP3   OH235416   0.355   4.327   0.207 -0.5194  0.1168  0.3159
 4642TIP3    H135417   0.320   4.243   0.179 -0.3949 -0.5710  2.1145
 4642TIP3    H235418   0.400   4.362   0.129 -0.1383 -1.6982 -0.3156
 4643TIP3   OH235419   4.330   2.190  11.248  0.6661 -0.8512 -0.5171
 4643TIP3    H135420   4.331   2.095  11.263  0.9791 -0.7249  0.3304
 4643TIP3    H235421   4.399   2.224  11.305 -0.8390  0.1101  0.8152
 4644TIP3   OH235422   2.779   0.274  11.533  0.2606  0.1853 -0.2035
 4644TIP3    H135423   2.737   0.227  11.461 -0.7202 -0.7784  0.9491
 4644TIP3    H235424   2.754   0.365  11.520  1.4653  0.3139 -1.9833
 4645TIP3   OH235425   6.996   1.279   4.637 -0.1802 -0.3692 -0.2767
 4645TIP3    H135426   6.965   1.301   4.725 -1.6494 -0.8259 -0.6414
 4645TIP3    H235427   6.933   1.321   4.578  0.4939 -0.4811 -1.1005
 4646TIP3   OH235428   3.023   5.480   0.755 -0.0082 -0.1607 -0.5021
 4646TIP3    H135429   2.941   5.462   0.801  0.8723 -1.7581  0.5677
 4646TIP3    H235430   3.075   5.400   0.767  1.6023  0.7028 -1.3693
 4647TIP3   OH235431   2.155   3.751   4.169  0.1454  0.1066 -0.3654
 4647TIP3    H135432   2.222   3.711   4.114 -1.5040 -0.6159 -1.9819
 4647TIP3    H235433   2.149   3.694   4.246  1.5435  0.3599 -0.0458
 4648TIP3   OH235434   6.979   7.056  14.642 -0.0779 -0.3188 -0.1797
 4648TIP3    H135435   6.963   7.134  14.696 -0.7051  2.6249 -4.1549
 4648TIP3    H235436   6.894   7.013  14.638  0.1561 -1.0646  1.6430
 4649TIP3   OH235437   3.597   2.492   5.382  0.6558 -0.4239 -0.2904
 4649TIP3    H135438   3.581   2.478   5.475  0.3033 -0.8673 -0.4192
 4649TIP3    H235439   3.623   2.584   5.376 -1.8034  0.3503 -0.0620
 4650TIP3   OH235440   1.946   3.692   2.111 -0.1144  0.2796  0.1821
 4650TIP3    H135441   1.898   3.646   2.180 -0.9372 -0.6107 -0.9429
 4650TIP3    H235442   1.897   3.673   2.031  0.9166  1.1320 -0.6859
 4651TIP3   OH235443   1.033   2.517  14.534  0.2116  0.1668  0.1444
 4651TIP3    H135444   1.089   2.444  14.560 -0.5903  0.0161  1.5415
 4651TIP3    H235445   0.945   2.490  14.560 -0.6720  0.0733 -2.6700
 4652TIP3   OH235446   2.462   6.121  10.894 -0.7641 -0.0308  0.3268
 4652TIP3    H135447   2.416   6.117  10.810  1.0474  4.2528 -1.1543
 4652TIP3    H235448   2.425   6.198  10.938  0.5726 -0.2938  2.0025
 4653TIP3   OH235449   3.877   3.750  13.226  1.0460  0.4455  0.2788
 4653TIP3    H135450   3.802   3.799  13.258  0.2737 -1.0562  0.8362
 4653TIP3    H235451   3.844   3.700  13.152  0.9980 -1.5896  1.6060
 4654TIP3   OH235452   1.031   5.019  10.618  0.1857  0.2677  0.3908
 4654TIP3    H135453   0.942   5.020  10.584 -0.0425 -0.0391  0.9639
 4654TIP3    H235454   1.085   5.053  10.547 -0.1584 -1.1734 -0.6072
 4655TIP3   OH235455   6.110   0.315   4.470 -0.1707 -0.3471 -0.1066
 4655TIP3    H135456   6.151   0.350   4.549 -1.9338  2.1939 -0.1765
 4655TIP3    H235457   6.033   0.267   4.502 -0.8753  0.6679 -0.2011
 4656TIP3   OH235458   3.721   2.049  10.453  0.0683  0.5004  0.1363
 4656TIP3    H135459   3.808   2.066  10.489 -0.5118 -0.9891  2.4372
 4656TIP3    H235460   3.669   2.126  10.478  0.1436  0.3298  0.8252
 4657TIP3   OH235461   2.164   4.354  10.898 -0.4208 -0.0609 -0.2224
 4657TIP3    H135462   2.196   4.443  10.885  2.0874 -0.8598  0.0230
 4657TIP3    H235463   2.144   4.323  10.809  1.5601 -0.2039 -0.6742
 4658TIP3   OH235464   6.625   3.879  13.169  0.0742 -0.1583 -0.0248
 4658TIP3    H135465   6.708   3.847  13.206  0.3623 -0.7784 -1.1608
 4658TIP3    H235466   6.651   3.951  13.112 -0.3197  0.5035  0.6222
 4659TIP3   OH235467   3.538   4.412  12.854 -0.4065  0.1134 -0.1572
 4659TIP3    H135468   3.492   4.480  12.903  0.7709 -0.0076  1.2135
 4659TIP3    H235469   3.600   4.375  12.918  0.4951 -0.7489 -1.4828
 4660TIP3   OH235470   3.217   2.968   0.802 -0.1037 -0.2211 -0.6168
 4660TIP3    H135471   3.192   2.955   0.893 -2.1034  0.1981 -1.0653
 4660TIP3    H235472   3.142   3.011   0.762  0.7203 -0.4129 -2.4813
 4661TIP3   OH235473   0.929   0.995  13.772  0.5348  0.0232  0.1092
 4661TIP3    H135474   0.852   0.983  13.715  0.4224 -0.5995  0.3790
 4661TIP3    H235475   0.912   1.077  13.819  0.5495  0.4549 -0.6238
 4662TIP3   OH235476   2.419   3.194   0.401 -0.2490  0.2561  0.4953
 4662TIP3    H135477   2.433   3.155   0.487 -1.7637  1.2725  1.2628
 4662TIP3    H235478   2.480   3.268   0.398 -0.5891  0.5545  0.9327
 4663TIP3   OH235479   4.797   1.626  12.157  0.7804  0.1924  0.2505
 4663TIP3    H135480   4.711   1.607  12.195 -1.7196  1.6696 -3.9493
 4663TIP3    H235481   4.827   1.704  12.204 -0.8577  0.4593  0.9279
 4664TIP3   OH235482   5.688   1.189   3.550  0.3814  0.0143  0.4032
 4664TIP3    H135483   5.628   1.251   3.592  0.0667 -0.6278  0.9252
 4664TIP3    H235484   5.698   1.222   3.461  0.5999  1.0799  0.8064
 4665TIP3   OH235485   4.866   1.110  13.131  0.4726  0.3022 -0.2404
 4665TIP3    H135486   4.796   1.047  13.115  0.0504  0.8464 -0.5981
 4665TIP3    H235487   4.820   1.192  13.153  1.0139  0.2490  1.1921
 4666TIP3   OH235488   2.660   4.023  10.505  0.1671  0.0005  0.0719
 4666TIP3    H135489   2.655   4.043  10.599 -0.9060  0.5236 -0.0772
 4666TIP3    H235490   2.733   4.075  10.474 -0.4051  1.0083  0.3578
 4667TIP3   OH235491   6.790   1.135  11.910  0.4026  0.2376 -0.7703
 4667TIP3    H135492   6.848   1.059  11.903  0.4817  0.1841  0.2885
 4667TIP3    H235493   6.713   1.102  11.957 -0.4692  0.3261 -2.0874
 4668TIP3   OH235494   4.774   6.665  13.007 -0.6484 -0.1750  0.2797
 4668TIP3    H135495   4.763   6.608  13.083  2.0189 -0.8711  0.2293
 4668TIP3    H235496   4.859   6.707  13.020  0.1955 -0.7971 -2.6009
 4669TIP3   OH235497   5.759   0.318  12.489 -0.3634  0.1522  0.0892
 4669TIP3    H135498   5.709   0.341  12.410 -2.6850 -0.7399  1.2097
 4669TIP3    H235499   5.724   0.375  12.557 -0.1672 -0.7887  1.0072
 4670TIP3   OH235500   1.436   7.098   3.301  0.0361  0.9122 -0.0159
 4670TIP3    H135501   1.517   7.149   3.301 -0.4968  1.7607  0.5128
 4670TIP3    H235502   1.453   7.027   3.363 -0.0256  1.7514  0.9917
 4671TIP3   OH235503   5.015   2.642  14.149 -0.2003  0.1023  0.4659
 4671TIP3    H135504   4.952   2.690  14.203  0.0075  0.9699 -0.0433
 4671TIP3    H235505   4.960   2.591  14.089 -0.4345  1.2161 -0.2910
 4672TIP3   OH235506   6.245   0.352  12.527  0.0965 -0.5251 -0.0165
 4672TIP3    H135507   6.193   0.293  12.581  0.7302 -0.6694  0.4520
 4672TIP3    H235508   6.208   0.343  12.439 -0.2048 -1.1655  0.1665
 4673TIP3   OH235509   1.522   4.980  11.197 -0.3606 -0.2392  0.1451
 4673TIP3    H135510   1.564   4.894  11.208 -0.0682  0.1006  1.8269
 4673TIP3    H235511   1.595   5.040  11.183 -0.4794 -0.0746  0.2303
 4674TIP3   OH235512   1.582   6.162  12.158  0.3671  0.1237 -0.1898
 4674TIP3    H135513   1.655   6.185  12.216  0.9731 -0.9102 -0.5244
 4674TIP3    H235514   1.542   6.246  12.137  2.6471  0.9775 -1.5361
 4675TIP3   OH235515   7.051   2.177  10.646  0.1375  0.4112 -0.2226
 4675TIP3    H135516   6.958   2.183  10.667 -0.0807 -1.3437 -0.5693
 4675TIP3    H235517   7.087   2.118  10.713  0.7864  0.2423 -0.7056
 4676TIP3   OH235518   5.406   6.884  12.508  0.7591 -0.3371  0.1362
 4676TIP3    H135519   5.491   6.927  12.501  0.5016  0.0723 -0.5553
 4676TIP3    H235520   5.407   6.843  12.595  1.5950 -0.2069  0.1976
 4677TIP3   OH235521   5.971   6.510  13.627  0.6548 -0.0061  0.8007
 4677TIP3    H135522   5.970   6.475  13.538 -0.6633  0.9075  0.4306
 4677TIP3    H235523   5.993   6.602  13.616 -2.2140  0.8038  1.0946
 4678TIP3   OH235524   5.334   0.869  11.155 -0.2491  0.4596 -0.6576
 4678TIP3    H135525   5.330   0.965  11.148 -0.5992  0.4195 -1.0576
 4678TIP3    H235526   5.301   0.850  11.242 -1.1174  0.6539 -0.9322
 4679TIP3   OH235527   6.396   2.678  10.465  0.3066  0.3692 -0.8271
 4679TIP3    H135528   6.400   2.599  10.520  0.1693  0.7866 -0.2109
 4679TIP3    H235529   6.314   2.720  10.490  0.8748  1.2483 -0.3989
 4680TIP3   OH235530   5.941   1.358   0.247  0.3875 -0.7225  0.4281
 4680TIP3    H135531   5.883   1.328   0.178  0.5444 -0.3071  0.1133
 4680TIP3    H235532   5.883   1.396   0.313  0.2495 -0.9942  0.4652
 4681TIP3   OH235533   4.465   4.789  13.753 -0.4602 -0.5613 -0.0444
 4681TIP3    H135534   4.460   4.724  13.683 -0.0121 -0.1474 -0.4667
 4681TIP3    H235535   4.489   4.739  13.831  0.2078 -0.8535 -0.4362
 4682TIP3   OH235536   1.891   2.770  11.397  0.2077 -0.3183 -0.1914
 4682TIP3    H135537   1.853   2.685  11.417  0.4212 -0.0254  1.6820
 4682TIP3    H235538   1.819   2.832  11.408 -0.0058 -0.2537 -1.7794
 4683TIP3   OH235539   0.819   0.151  13.978 -0.2620  0.0986  0.1020
 4683TIP3    H135540   0.845   0.141  14.069  0.5061 -0.2393 -0.1416
 4683TIP3    H235541   0.885   0.209  13.940  1.0648 -1.9532 -0.8940
 4684TIP3   OH235542   1.638   7.250  13.362 -0.4173  0.4564 -0.1789
 4684TIP3    H135543   1.663   7.279  13.274  2.7620  2.3514  1.1701
 4684TIP3    H235544   1.693   7.302  13.421 -1.0985 -1.9851  2.8690
 4685TIP3   OH235545   2.913   5.679   0.076  0.7306 -1.3563  0.0555
 4685TIP3    H135546   2.862   5.664  -0.003 -0.7104 -0.2943  0.7512
 4685TIP3    H235547   2.856   5.729   0.133  1.7452 -2.0406  1.7684
 4686TIP3   OH235548   4.683   0.122  10.581  0.1449 -0.0584 -0.0686
 4686TIP3    H135549   4.770   0.092  10.607  0.2189  1.3299  1.4308
 4686TIP3    H235550   4.631   0.119  10.661 -1.0538 -0.3393 -0.8277
 4687TIP3   OH235551   2.775   7.035  11.371  0.3174 -0.0481 -0.7329
 4687TIP3    H135552   2.681   7.051  11.377  0.2500 -0.2224 -1.2383
 4687TIP3    H235553   2.788   6.952  11.417  0.6910  1.4279  2.0429
 4688TIP3   OH235554   6.774   7.222  11.864 -0.0268 -0.1285 -0.6403
 4688TIP3    H135555   6.810   7.133  11.868  0.8315  0.1605 -1.7033
 4688TIP3    H235556   6.684   7.210  11.834  0.4140 -0.5804 -1.8404
 4689TIP3   OH235557   6.700   5.951  11.196 -0.4859  0.2595  0.1895
 4689TIP3    H135558   6.791   5.923  11.210 -0.1743  0.2073 -1.6580
 4689TIP3    H235559   6.706   6.020  11.130 -1.8851 -0.5782 -0.8620
 4690TIP3   OH235560   5.877   4.380  12.444 -0.2318  0.5084  0.4509
 4690TIP3    H135561   5.920   4.319  12.384 -1.0022  0.0653  0.3349
 4690TIP3    H235562   5.806   4.418  12.393  0.2068  1.4763  0.5408
 4691TIP3   OH235563   4.108   4.916  10.804  0.1088  0.1134  0.3615
 4691TIP3    H135564   4.079   4.832  10.769  0.7648 -0.5857  1.4257
 4691TIP3    H235565   4.184   4.940  10.750  0.6786 -0.6008  0.8324
 4692TIP3   OH235566   5.528   6.295   0.048 -0.1703  0.3976  0.2119
 4692TIP3    H135567   5.476   6.233   0.099  0.3085  0.4925  0.8285
 4692TIP3    H235568   5.570   6.351   0.113 -1.7118  2.3125 -0.3558
 4693TIP3   OH235569   6.085   5.459   1.859 -0.6829 -0.3059 -0.3669
 4693TIP3    H135570   6.047   5.544   1.881  1.9515  0.4121  2.0289
 4693TIP3    H235571   6.013   5.397   1.871 -2.1617  1.3559 -0.2077
 4694TIP3   OH235572   4.860   1.824  12.814  0.1890 -0.5142 -0.3164
 4694TIP3    H135573   4.820   1.882  12.879  0.6502  0.1073 -0.5735
 4694TIP3    H235574   4.867   1.877  12.735  0.2709 -1.0448 -0.6706
 4695TIP3   OH235575   3.486   0.518  10.591 -0.2632 -0.1794 -0.4038
 4695TIP3    H135576   3.572   0.547  10.559 -0.1610 -1.7558 -1.6833
 4695TIP3    H235577   3.447   0.473  10.516 -0.9599 -2.0863  1.0164
 4696TIP3   OH235578   4.269   3.296  10.941  0.0787  0.1563  0.2216
 4696TIP3    H135579   4.214   3.311  11.018 -0.9014 -0.6488 -0.2995
 4696TIP3    H235580   4.208   3.303  10.867  0.1977 -2.8373 -0.2657
 4697TIP3   OH235581   0.358   2.083   1.680  0.0342 -0.4156 -0.3157
 4697TIP3    H135582   0.372   2.042   1.765  1.6940 -1.4259 -1.0328
 4697TIP3    H235583   0.356   2.010   1.618  1.7775  0.4338 -1.4659
 4698TIP3   OH235584   0.885   6.748  10.223 -0.3926 -0.3112  0.5150
 4698TIP3    H135585   0.850   6.658  10.227  0.6336 -0.8241 -1.1622
 4698TIP3    H235586   0.826   6.794  10.164  0.5643 -0.6282 -0.7187
 4699TIP3   OH235587   6.466   4.613   0.286  0.8911 -0.1574  0.0541
 4699TIP3    H135588   6.420   4.559   0.351  0.1129  0.1864 -0.2035
 4699TIP3    H235589   6.557   4.584   0.291  0.8558 -0.1265  1.3283
 4700TIP3   OH235590   7.104   1.360  12.713 -0.5618 -0.0012  0.3956
 4700TIP3    H135591   7.145   1.302  12.777  0.6401  0.3208 -0.0393
 4700TIP3    H235592   7.150   1.443  12.724 -0.1115 -0.0245 -1.0664
 4701TIP3   OH235593   4.039   5.840  11.961 -0.3261 -0.5113  0.0286
 4701TIP3    H135594   4.007   5.788  12.035  3.0959 -2.0365  0.6677
 4701TIP3    H235595   4.034   5.780  11.886  0.9284 -0.8271  0.1653
 4702TIP3   OH235596   6.452   6.564  11.396  0.3112 -0.2963 -0.1253
 4702TIP3    H135597   6.494   6.646  11.370  0.9343 -0.4786  0.3153
 4702TIP3    H235598   6.426   6.578  11.487 -1.3985  0.1424 -0.6303
 4703TIP3   OH235599   6.925   0.355   9.672  0.0963  0.1511  0.2216
 4703TIP3    H135600   6.897   0.386   9.585 -1.2542 -0.2392  0.4870
 4703TIP3    H235601   7.010   0.397   9.686 -0.1411  1.0567 -0.8461
 4704TIP3   OH235602   4.802   6.374  11.112 -0.0254  0.4302 -0.0691
 4704TIP3    H135603   4.846   6.457  11.128  0.3702  0.1663  0.2081
 4704TIP3    H235604   4.754   6.388  11.030  1.5563  0.3254 -1.0470
 4705TIP3   OH235605   5.651   3.144   1.448  0.0958 -0.1851  0.8025
 4705TIP3    H135606   5.569   3.096   1.462  0.0029  0.4389  2.5326
 4705TIP3    H235607   5.716   3.075   1.433 -0.8289 -0.6828 -1.4857
 4706TIP3   OH235608   0.201   0.321  10.692  0.2658 -0.4642 -0.4865
 4706TIP3    H135609   0.152   0.257  10.641  1.9834 -1.6466 -0.7677
 4706TIP3    H235610   0.149   0.401  10.689 -1.5447 -1.6213 -0.8128
 4707TIP3   OH235611   5.170   2.375   2.457  0.5057 -0.4138  0.4847
 4707TIP3    H135612   5.254   2.423   2.456  0.8156 -0.9443 -0.4754
 4707TIP3    H235613   5.194   2.286   2.432 -0.6383  0.0077 -2.6230
 4708TIP3   OH235614   6.301   5.980   4.669 -0.4080 -0.0357  0.0170
 4708TIP3    H135615   6.371   5.924   4.637  0.4490  0.0998  1.5527
 4708TIP3    H235616   6.233   5.920   4.699  0.1328 -0.2616  0.8332
 4709TIP3   OH235617   5.771   3.415  10.187  0.3304  0.0535 -0.4353
 4709TIP3    H135618   5.856   3.418  10.230  0.2107  2.5171 -0.2146
 4709TIP3    H235619   5.791   3.420  10.093  0.4459 -0.7791 -0.4635
 4710TIP3   OH235620   1.551   2.648  13.337  0.3547 -0.3756  0.3034
 4710TIP3    H135621   1.559   2.743  13.345 -1.3010 -0.1929  0.2673
 4710TIP3    H235622   1.568   2.631  13.244  1.0578 -0.1684  0.3918
 4711TIP3   OH235623   6.618   6.544   1.478 -0.5289 -0.0930  0.2438
 4711TIP3    H135624   6.622   6.468   1.536  0.8316  0.7234  1.2867
 4711TIP3    H235625   6.556   6.604   1.520  0.1681  0.3394  0.6743
 4712TIP3   OH235626   3.765   1.292  10.424  0.3757 -0.1258  0.2710
 4712TIP3    H135627   3.722   1.376  10.435  0.2706  0.0725 -1.3791
 4712TIP3    H235628   3.791   1.290  10.332  0.6017 -1.7906  0.3375
 4713TIP3   OH235629   4.172   3.966  12.075  0.3490 -0.2972  0.5372
 4713TIP3    H135630   4.193   4.019  11.999 -0.8547  0.0019  0.3928
 4713TIP3    H235631   4.102   3.908  12.046  1.7472 -2.1301  0.6363
 4714TIP3   OH235632   1.606   7.110   9.576 -0.3030  0.1962 -0.0118
 4714TIP3    H135633   1.676   7.169   9.549 -0.9429  1.1036  0.2743
 4714TIP3    H235634   1.538   7.167   9.611  0.4518 -0.8596  3.5724
 4715TIP3   OH235635   2.251   0.342  14.229  0.1035 -0.0448  0.1907
 4715TIP3    H135636   2.194   0.359  14.304 -0.5504 -1.2219 -0.0039
 4715TIP3    H235637   2.338   0.331  14.267  0.0170  0.6829  0.6201
 4716TIP3   OH235638   0.657   7.200  13.085  0.8499  0.3419  0.9065
 4716TIP3    H135639   0.699   7.279  13.118 -1.0054  2.4704 -1.3809
 4716TIP3    H235640   0.637   7.149  13.163 -2.3201  4.4422  3.1950
 4717TIP3   OH235641   0.983   5.492  10.572  0.5601  0.2082  0.4731
 4717TIP3    H135642   0.955   5.488  10.481  1.4042  0.2597  0.2098
 4717TIP3    H235643   1.060   5.548  10.572  0.3435  0.5199  1.2784
 4718TIP3   OH235644   5.593   6.417  10.985  0.4426  0.1275  0.1029
 4718TIP3    H135645   5.544   6.342  10.951  0.2972  0.3419 -0.1577
 4718TIP3    H235646   5.684   6.387  10.986  0.2164 -0.5936  1.4332
 4719TIP3   OH235647   3.466   2.103  14.081 -0.2811  0.1420 -0.1523
 4719TIP3    H135648   3.414   2.138  14.153 -0.9013  0.8230 -0.9180
 4719TIP3    H235649   3.548   2.152  14.084 -0.8854  1.2327 -0.8094
 4720TIP3   OH235650   2.333   4.234  13.463 -0.3538 -0.5796  0.3983
 4720TIP3    H135651   2.288   4.243  13.547  2.5582 -0.1224  2.0603
 4720TIP3    H235652   2.306   4.149  13.430 -0.8406 -1.2163  2.3117
 4721TIP3   OH235653   2.931   2.476   1.556  0.4470  0.1422  0.1221
 4721TIP3    H135654   2.883   2.533   1.497 -1.4271 -1.5034 -0.0562
 4721TIP3    H235655   2.974   2.535   1.618  0.4316  1.7872 -1.3849
 4722TIP3   OH235656   6.995   4.358   4.127 -0.0666  0.0661 -0.0387
 4722TIP3    H135657   6.958   4.308   4.055  0.3071  0.1286 -0.2777
 4722TIP3    H235658   7.090   4.346   4.119  0.0075  0.4954  0.1307
 4723TIP3   OH235659   3.335   3.055  13.684  0.3067  0.3641 -0.5247
 4723TIP3    H135660   3.289   2.972  13.699  2.0981 -0.7451 -0.8333
 4723TIP3    H235661   3.361   3.083  13.772  0.1031  0.3637 -0.4619
 4724TIP3   OH235662   2.450   4.720  13.915  0.1856  0.0297  0.1883
 4724TIP3    H135663   2.530   4.728  13.862 -0.4642 -1.1938 -1.0473
 4724TIP3    H235664   2.398   4.797  13.891 -0.2390 -0.6718 -1.2409
 4725TIP3   OH235665   3.096   1.649  11.376  1.2434 -0.3367  0.4707
 4725TIP3    H135666   3.029   1.588  11.344  1.0786 -0.4664  1.0486
 4725TIP3    H235667   3.151   1.666  11.299  2.0578 -2.2219  0.5776
 4726TIP3   OH235668   0.115   4.280  10.658 -0.0249 -0.1952  0.0979
 4726TIP3    H135669   0.121   4.208  10.721 -0.2075  0.1058  0.4642
 4726TIP3    H235670   0.028   4.270  10.619 -1.0617  1.2544  1.9153
 4727TIP3   OH235671   2.653   0.337  11.824 -0.3083 -0.6007 -0.7045
 4727TIP3    H135672   2.727   0.396  11.808  0.2501 -1.5224 -1.7428
 4727TIP3    H235673   2.609   0.330  11.739 -0.3282 -1.6874 -0.6274
 4728TIP3   OH235674   5.804   1.325   9.987  0.4230 -0.1754  0.3946
 4728TIP3    H135675   5.870   1.270  10.030  1.9834  1.3295  0.0387
 4728TIP3    H235676   5.785   1.279   9.905  1.9995 -0.0717 -0.0818
 4729TIP3   OH235677   7.173   5.352  10.480 -0.0490  0.5425 -0.1287
 4729TIP3    H135678   7.251   5.309  10.516 -0.0068 -0.2817 -1.1541
 4729TIP3    H235679   7.171   5.324  10.388 -1.8004  0.2036 -0.0084
 4730TIP3   OH235680   6.163   0.883   3.773 -0.3470  0.1252 -0.1872
 4730TIP3    H135681   6.148   0.873   3.679  0.9712 -1.3211 -0.2760
 4730TIP3    H235682   6.078   0.906   3.809 -0.8820  0.6510 -1.7209
 4731TIP3   OH235683   5.338   3.308   1.056  0.8330 -0.0638 -0.2084
 4731TIP3    H135684   5.364   3.386   1.007  0.3511  0.8454  0.9458
 4731TIP3    H235685   5.245   3.297   1.036  1.2463 -1.3559 -1.6772
 4732TIP3   OH235686   6.588   0.052  14.652 -0.5886  0.1999  0.1301
 4732TIP3    H135687   6.559  -0.034  14.623  0.0248 -0.3995  1.2296
 4732TIP3    H235688   6.610   0.040  14.745  0.6237  1.2457  0.0133
 4733TIP3   OH235689   3.967   0.125  13.399 -0.8738 -0.5820 -0.0619
 4733TIP3    H135690   3.964   0.209  13.446  3.1904  0.2166 -0.8544
 4733TIP3    H235691   3.924   0.143  13.316 -0.9277  0.4375  0.1710
 4734TIP3   OH235692   2.327   6.056  12.649 -0.4370 -0.0488  0.1266
 4734TIP3    H135693   2.393   6.102  12.597 -0.2850  0.9549  1.1699
 4734TIP3    H235694   2.251   6.050  12.591  0.7001 -1.6690 -1.2678
 4735TIP3   OH235695   0.848   2.655  13.716  0.3014 -0.4979  0.1295
 4735TIP3    H135696   0.810   2.573  13.685  0.8272 -1.5029  1.9738
 4735TIP3    H235697   0.774   2.705  13.749 -0.0434 -0.1312 -1.1497
 4736TIP3   OH235698   6.480   1.176   3.446  0.2404 -0.6699 -0.2501
 4736TIP3    H135699   6.449   1.096   3.405 -1.4051 -0.1978 -0.0120
 4736TIP3    H235700   6.494   1.153   3.538 -1.6159 -0.3740  0.1346
 4737TIP3   OH235701   2.006   4.218  11.082 -0.0886 -0.3709 -0.4961
 4737TIP3    H135702   1.948   4.151  11.046  0.3276 -0.8108 -0.3524
 4737TIP3    H235703   2.063   4.242  11.009  1.7316 -2.3177  0.2190
 4738TIP3   OH235704   2.349   3.546   0.399  0.6769 -0.0943 -0.2267
 4738TIP3    H135705   2.262   3.586   0.398  0.0441 -1.3952 -0.4255
 4738TIP3    H235706   2.344   3.478   0.331  2.4911  1.0721 -1.6323
 4739TIP3   OH235707   2.999   6.355  12.327  0.2986  0.3052  0.2682
 4739TIP3    H135708   2.991   6.294  12.401  0.2999  0.4375  0.3766
 4739TIP3    H235709   3.093   6.364  12.313  0.3099 -1.2580 -1.0112
 4740TIP3   OH235710   0.949   2.413   4.213  0.0491  0.2995  0.2119
 4740TIP3    H135711   0.922   2.390   4.124 -0.1468 -2.6936  0.9416
 4740TIP3    H235712   1.045   2.410   4.211  0.0319 -1.4915  0.4319
 4741TIP3   OH235713   4.526   4.403  11.754  0.3133 -0.0821  0.3322
 4741TIP3    H135714   4.542   4.461  11.828  0.8506 -0.9728  0.9293
 4741TIP3    H235715   4.557   4.453  11.678  0.7730  0.4165  0.8316
 4742TIP3   OH235716   3.440   6.838  13.731 -0.3334 -0.0820  0.2703
 4742TIP3    H135717   3.354   6.859  13.694 -0.2734 -1.0397 -0.4598
 4742TIP3    H235718   3.463   6.753  13.691  0.6718 -0.1334  0.9268
 4743TIP3   OH235719   3.612   6.583  12.717  0.6195 -0.0277  0.0858
 4743TIP3    H135720   3.621   6.492  12.688 -0.8822 -0.8185  1.8974
 4743TIP3    H235721   3.518   6.601  12.715  0.9775  2.3231 -2.3771
 4744TIP3   OH235722   0.389   1.564  12.568  0.0179  0.4169 -0.1014
 4744TIP3    H135723   0.384   1.515  12.485  1.1099  0.4201 -0.1926
 4744TIP3    H235724   0.477   1.602  12.567  0.4760 -0.5021  1.5695
 4745TIP3   OH235725   0.253   4.888   3.817  0.1095 -0.4448  0.0297
 4745TIP3    H135726   0.330   4.931   3.779  0.8659 -0.8680  1.0353
 4745TIP3    H235727   0.284   4.800   3.840 -0.3777 -0.2750  1.3996
 4746TIP3   OH235728   4.107   6.806  13.263 -0.0517 -0.1504 -0.1546
 4746TIP3    H135729   4.170   6.734  13.266 -0.5197 -0.5632 -0.1189
 4746TIP3    H235730   4.062   6.795  13.179 -0.8890 -0.5622  0.3409
 4747TIP3   OH235731   5.811   7.001  11.640 -1.0164 -0.1419  0.2564
 4747TIP3    H135732   5.760   6.930  11.600 -1.2281 -0.1394  0.5223
 4747TIP3    H235733   5.745   7.058  11.681 -0.7240 -0.7725  1.6373
 4748TIP3   OH235734   1.128   0.918   9.894  0.4741  0.1807  0.2974
 4748TIP3    H135735   1.063   0.851   9.913  0.2538  0.7418  1.5933
 4748TIP3    H235736   1.086   0.973   9.828  0.3844 -0.5403 -0.2603
 4749TIP3   OH235737   3.076   4.631   9.616 -0.1801 -0.2429 -0.5246
 4749TIP3    H135738   3.152   4.623   9.674 -0.8570 -1.1253  0.2633
 4749TIP3    H235739   3.042   4.542   9.609 -2.2906  0.4189  0.7095
 4750TIP3   OH235740   2.359   1.321  10.116 -0.1790 -0.0107 -0.1843
 4750TIP3    H135741   2.356   1.227  10.130 -1.2633  0.1346  0.7676
 4750TIP3    H235742   2.441   1.349  10.157  0.8107 -0.6797 -1.6369
 4751TIP3   OH235743   1.781   1.066  10.349  0.4141 -0.3410  0.3625
 4751TIP3    H135744   1.824   1.033  10.270 -0.9223  0.1703 -0.6126
 4751TIP3    H235745   1.689   1.076  10.324  0.1849  0.9987  1.6101
 4752TIP3   OH235746   1.539   7.012  10.199 -0.0718 -0.3286 -0.3805
 4752TIP3    H135747   1.521   7.092  10.151  0.5994  0.4735  0.6618
 4752TIP3    H235748   1.549   6.945  10.132 -0.8687  0.4073 -1.2509
 4753TIP3   OH235749   5.468   4.992   2.372  0.0557 -0.5681 -0.0503
 4753TIP3    H135750   5.441   4.910   2.414 -3.7512  0.3795 -0.2984
 4753TIP3    H235751   5.449   4.978   2.279  0.7879  0.1244 -0.3107
 4754TIP3   OH235752   6.461   5.228  13.697  0.4096  0.1709  0.0587
 4754TIP3    H135753   6.554   5.245  13.683  0.6885 -0.4935  1.0573
 4754TIP3    H235754   6.452   5.133  13.693 -0.1809  0.2120  0.2769
 4755TIP3   OH235755   5.000   2.261  12.578 -0.2329 -0.0457  0.8450
 4755TIP3    H135756   5.014   2.167  12.563  1.1016  0.2369  0.1137
 4755TIP3    H235757   5.085   2.293  12.607 -0.7846  0.8785  1.4708
 4756TIP3   OH235758   3.052   6.300  10.552 -0.2167  0.0193 -0.0447
 4756TIP3    H135759   3.005   6.292  10.469  1.1279  2.0768 -1.1094
 4756TIP3    H235760   3.013   6.377  10.594  0.1995 -0.0282  0.4353
 4757TIP3   OH235761   6.103   2.851  12.383  0.4445 -0.3782 -0.7723
 4757TIP3    H135762   6.018   2.867  12.425  1.2158 -0.2186  0.8304
 4757TIP3    H235763   6.117   2.927  12.327  1.2656  1.7332  2.0259
 4758TIP3   OH235764   5.395   3.824  12.995  0.6781 -0.6155  0.0614
 4758TIP3    H135765   5.369   3.908  12.959  0.8007 -0.8924 -0.6975
 4758TIP3    H235766   5.489   3.819  12.979  0.3819 -1.6731 -1.6023
 4759TIP3   OH235767   6.867   2.538   2.964  0.2162  0.0671 -0.0936
 4759TIP3    H135768   6.949   2.578   2.992 -0.3089  0.7720  0.4540
 4759TIP3    H235769   6.839   2.484   3.038  0.1683 -0.1499 -0.2678
 4760TIP3   OH235770   2.098   5.344  12.743  0.1002 -0.2333 -0.1753
 4760TIP3    H135771   2.094   5.306  12.831  0.4156 -1.8302 -0.8282
 4760TIP3    H235772   2.055   5.280  12.687 -0.7544  1.1063 -1.1011
 4761TIP3   OH235773   2.656   6.601  13.057 -0.0112 -0.6404 -0.3559
 4761TIP3    H135774   2.635   6.604  12.964 -0.0977 -1.4801 -0.3659
 4761TIP3    H235775   2.700   6.517  13.070 -0.4338 -0.7475  0.4510
 4762TIP3   OH235776   0.209   3.501   2.300  0.0344 -0.5691 -0.0210
 4762TIP3    H135777   0.212   3.561   2.375  0.3128 -0.4359 -0.1387
 4762TIP3    H235778   0.298   3.501   2.266  0.2551 -1.7151  0.4995
 4763TIP3   OH235779   2.082   4.867  11.231 -0.5027 -0.2280 -0.0932
 4763TIP3    H135780   1.991   4.867  11.261  0.1237 -1.3852  2.0425
 4763TIP3    H235781   2.131   4.906  11.304  0.5862  2.0463 -1.8943
 4764TIP3   OH235782   1.606   1.764   1.110 -0.1634 -0.2595 -0.1028
 4764TIP3    H135783   1.556   1.705   1.166  0.3536  0.9858  1.7864
 4764TIP3    H235784   1.651   1.822   1.171  1.5117  0.3378 -1.8008
 4765TIP3   OH235785   3.502   4.040  12.420 -0.2233  0.4826  0.3233
 4765TIP3    H135786   3.457   4.006  12.497 -0.9849 -0.6959 -0.6143
 4765TIP3    H235787   3.433   4.079  12.367  0.1033  0.1408 -0.3594
 4766TIP3   OH235788   2.803   3.405   1.913  0.4394 -0.1001  0.3860
 4766TIP3    H135789   2.787   3.315   1.883  0.3065  0.6162 -1.8520
 4766TIP3    H235790   2.873   3.437   1.856 -1.4748  2.1582 -0.8483
 4767TIP3   OH235791   1.673   2.023   1.894  0.0073 -0.7053 -0.3477
 4767TIP3    H135792   1.760   2.063   1.886  0.5987 -1.4978  1.4134
 4767TIP3    H235793   1.674   1.951   1.831  0.2915 -0.1678 -0.9685
 4768TIP3   OH235794   0.412   1.084   9.573  0.0138  0.8084 -0.2188
 4768TIP3    H135795   0.407   1.118   9.662 -0.3125  1.8475 -0.6129
 4768TIP3    H235796   0.367   1.000   9.576 -0.7703  1.2428  0.4134
 4769TIP3   OH235797   5.458   5.801  14.704  0.3236 -0.2565 -0.2188
 4769TIP3    H135798   5.459   5.745  14.626 -1.0406 -1.2668  0.4496
 4769TIP3    H235799   5.448   5.740  14.777 -1.7040  0.8447  0.5045
 4770TIP3   OH235800   0.260   0.370  14.301  0.2653 -0.3536  0.1872
 4770TIP3    H135801   0.167   0.344  14.301  0.1792 -0.0492 -0.0185
 4770TIP3    H235802   0.305   0.293  14.265  0.1717 -0.7660  0.9395
 4771TIP3   OH235803   4.380   3.603   9.387 -0.1181  0.1515  0.0277
 4771TIP3    H135804   4.428   3.525   9.416 -0.7082  0.1132  0.9320
 4771TIP3    H235805   4.446   3.657   9.344  0.5070 -0.4011  0.2819
 4772TIP3   OH235806   4.983   6.871   1.723  0.2909 -0.0407 -0.0154
 4772TIP3    H135807   4.962   6.963   1.710  0.2929 -0.1768 -1.0897
 4772TIP3    H235808   5.063   6.857   1.672 -0.5305 -0.9641 -1.1243
 4773TIP3   OH235809   6.404   0.494  12.749 -0.3893  0.0233 -0.0200
 4773TIP3    H135810   6.385   0.432  12.679 -0.5672  0.4379 -0.3448
 4773TIP3    H235811   6.480   0.457  12.794  0.6704  0.4796 -1.3521
 4774TIP3   OH235812   5.542   2.735  11.047 -0.2387  0.6410 -0.3993
 4774TIP3    H135813   5.569   2.779  10.967  1.9494 -1.4067 -0.8872
 4774TIP3    H235814   5.620   2.736  11.103 -1.2725  0.6947  1.1264
 4775TIP3   OH235815   3.748   1.531   9.989 -0.0356 -0.0325 -1.0247
 4775TIP3    H135816   3.676   1.520  10.052  3.0767 -3.2253  2.4873
 4775TIP3    H235817   3.713   1.496   9.907 -2.9462  0.0507  0.0599
 4776TIP3   OH235818   6.902   3.839  13.616  0.1080  0.1229  0.3178
 4776TIP3    H135819   6.809   3.857  13.622 -0.5544 -2.8740  0.4539
 4776TIP3    H235820   6.925   3.798  13.699  1.5134  0.5123  0.1620
 4777TIP3   OH235821   4.724   6.831  10.757 -0.5407 -0.4788 -0.4542
 4777TIP3    H135822   4.654   6.787  10.805 -1.2028 -0.4402 -1.3736
 4777TIP3    H235823   4.764   6.762  10.704 -0.0039 -0.4578 -0.0869
 4778TIP3   OH235824   4.936   3.020  12.684 -0.0639 -0.3689 -0.3525
 4778TIP3    H135825   4.892   3.013  12.768 -1.5694 -0.9734 -1.1583
 4778TIP3    H235826   4.873   2.987  12.620  0.6476  0.9992 -1.8549
 4779TIP3   OH235827   1.673   1.331  14.747  0.0492  0.5398  0.5706
 4779TIP3    H135828   1.747   1.301  14.695 -0.5676 -0.1123  0.0560
 4779TIP3    H235829   1.620   1.253  14.761 -0.7372  1.0743  0.6198
 4780TIP3   OH235830   1.255   6.220   3.404  0.5886  0.3199  0.3063
 4780TIP3    H135831   1.299   6.135   3.394  0.1695 -0.0029  1.1043
 4780TIP3    H235832   1.323   6.278   3.437  0.1625 -0.5049  2.8376
 4781TIP3   OH235833   2.833   0.924  12.203 -0.0995 -0.5373  0.1646
 4781TIP3    H135834   2.816   1.011  12.166  1.0732 -0.9198 -1.3926
 4781TIP3    H235835   2.836   0.938  12.298  0.8684  1.2851 -0.0933
 4782TIP3   OH235836   3.021   2.006   3.461  0.0724 -0.1770  0.0279
 4782TIP3    H135837   3.033   2.046   3.375  0.0191  0.7966  0.4639
 4782TIP3    H235838   3.062   1.920   3.453  1.9793  0.7191 -0.3318
 4783TIP3   OH235839   0.725   6.052   9.683  0.0630 -0.0927 -0.0568
 4783TIP3    H135840   0.796   6.101   9.724 -0.8978  1.8850 -0.6087
 4783TIP3    H235841   0.763   6.016   9.603  0.5636  0.6159 -0.1444
 4784TIP3   OH235842   5.946   3.052  11.476  0.1572  0.0145  0.3986
 4784TIP3    H135843   6.016   3.027  11.417 -1.6149 -1.4292 -1.2200
 4784TIP3    H235844   5.889   3.110  11.424  0.2595  1.4368  1.7722
 4785TIP3   OH235845   4.648   5.517  10.974  0.0975  0.5359 -0.5784
 4785TIP3    H135846   4.659   5.438  11.027  0.8627  1.0747  0.0712
 4785TIP3    H235847   4.601   5.486  10.896  1.9989 -0.9307 -1.2141
 4786TIP3   OH235848   4.350   2.538  12.424  0.2344 -0.0315 -0.4134
 4786TIP3    H135849   4.350   2.587  12.506  0.6587 -0.1052 -0.3646
 4786TIP3    H235850   4.407   2.462  12.442 -0.2925 -0.4581 -0.5329
 4787TIP3   OH235851   1.826   2.633  11.960 -0.1590 -0.3514  0.3960
 4787TIP3    H135852   1.862   2.586  11.885 -1.1625 -1.0005  0.3003
 4787TIP3    H235853   1.901   2.676  12.000  0.4956 -0.5640 -0.5781
 4788TIP3   OH235854   3.284   3.984  13.413  0.1408  0.4419  0.2687
 4788TIP3    H135855   3.380   3.986  13.414  0.2794 -2.1621  1.8094
 4788TIP3    H235856   3.258   4.053  13.474  1.1393 -0.0093  1.2427
 4789TIP3   OH235857   0.063   3.419  11.942 -0.9805 -0.3332 -0.4050
 4789TIP3    H135858   0.067   3.343  12.000 -2.9186  0.7028  1.2128
 4789TIP3    H235859   0.040   3.382  11.856 -1.8162 -1.5931  0.3195
 4790TIP3   OH235860   3.441   4.181  13.704  0.0240  0.1095  0.6034
 4790TIP3    H135861   3.365   4.123  13.704  0.5125 -0.5565 -0.4987
 4790TIP3    H235862   3.414   4.255  13.759 -0.9878 -0.6557  1.1714
 4791TIP3   OH235863   5.856   3.138  10.899  0.3611  1.1063  0.7100
 4791TIP3    H135864   5.777   3.150  10.951 -0.2857 -2.5260  0.7927
 4791TIP3    H235865   5.837   3.179  10.815 -2.1723 -0.7378  0.2911
 4792TIP3   OH235866   5.344   4.828  11.797  0.7145 -0.3069  0.9780
 4792TIP3    H135867   5.310   4.763  11.858 -0.1517 -0.7476  0.0610
 4792TIP3    H235868   5.267   4.866  11.756  1.1804 -2.5419 -2.4049
 4793TIP3   OH235869   0.235   3.054  10.574 -0.2641 -0.1962  0.4186
 4793TIP3    H135870   0.197   3.056  10.662 -2.0535 -0.2902 -0.3157
 4793TIP3    H235871   0.164   3.026  10.517 -0.1745  2.9569 -1.5299
 4794TIP3   OH235872   6.606   3.873  13.602 -0.1837 -0.2490  0.0216
 4794TIP3    H135873   6.533   3.928  13.631 -0.2002 -0.5322  0.5191
 4794TIP3    H235874   6.578   3.783  13.621  1.4472 -0.2477  2.9384
 4795TIP3   OH235875   5.259   6.404   4.903 -0.7612  0.0114  0.0869
 4795TIP3    H135876   5.266   6.498   4.892  0.3421 -0.2583 -1.9060
 4795TIP3    H235877   5.348   6.371   4.887 -1.1134 -1.3690  0.7889
 4796TIP3   OH235878   1.171   4.108  10.447 -0.2476 -0.5514 -0.0598
 4796TIP3    H135879   1.183   4.202  10.437 -1.2435 -0.3554  0.4365
 4796TIP3    H235880   1.080   4.092  10.419  0.1617 -1.4920 -0.9199
 4797TIP3   OH235881   3.349   4.133  15.256 -0.1765  0.0283  0.3319
 4797TIP3    H135882   3.368   4.039  15.254  0.0312  0.0766 -2.0919
 4797TIP3    H235883   3.289   4.143  15.330  0.4849 -1.8487  1.1931
 4798TIP3   OH235884   6.991   3.171  13.339  0.4296 -0.4256  0.0282
 4798TIP3    H135885   7.026   3.260  13.342 -1.3847  0.5474 -2.9351
 4798TIP3    H235886   7.054   3.123  13.284 -0.2968  0.0098 -1.2267
 4799TIP3   OH235887   4.277   6.054  12.023 -0.0559  0.1110  0.8611
 4799TIP3    H135888   4.187   6.040  12.051 -0.3441  0.7307  0.2365
 4799TIP3    H235889   4.283   6.010  11.938  0.3605 -0.3260  1.1117
 4800TIP3   OH235890   6.694   6.850  13.876  1.1596  0.3602  0.2285
 4800TIP3    H135891   6.626   6.782  13.883 -0.4754  1.9125  0.1464
 4800TIP3    H235892   6.671   6.899  13.797  3.8826 -0.5642 -1.2533
 4801TIP3   OH235893   5.850   0.585   9.971  0.0773  0.4141  0.1257
 4801TIP3    H135894   5.757   0.571   9.991  0.2768  0.7593  1.3694
 4801TIP3    H235895   5.875   0.660  10.025  0.6506  1.4900 -1.5571
 4802TIP3   OH235896   1.499   6.220  11.355  0.3527  0.1375 -0.2231
 4802TIP3    H135897   1.516   6.313  11.345 -0.5066  0.1429 -2.3368
 4802TIP3    H235898   1.438   6.213  11.428 -0.0729  1.3146 -0.4540
 4803TIP3   OH235899   1.003   5.388   0.277 -0.4864  0.1732  0.5751
 4803TIP3    H135900   0.924   5.342   0.305  0.2527 -1.7430 -0.2687
 4803TIP3    H235901   0.987   5.480   0.297 -2.5052 -0.3088  1.3365
 4804TIP3   OH235902   5.896   6.252  12.200 -0.1566 -0.3462  0.5048
 4804TIP3    H135903   5.831   6.313  12.234  1.1634  1.3025  0.1929
 4804TIP3    H235904   5.980   6.294  12.217  0.6741 -0.3466 -2.9407
 4805TIP3   OH235905   3.561   2.576  12.658  0.1626 -0.1954 -0.3445
 4805TIP3    H135906   3.487   2.529  12.697 -0.1327 -0.3430 -1.0703
 4805TIP3    H235907   3.636   2.519  12.674 -0.0237 -0.4397 -0.3360
 4806TIP3   OH235908   2.336   5.408  11.787 -0.1711 -0.4349  0.1743
 4806TIP3    H135909   2.374   5.321  11.799 -0.1406 -0.3713  0.5822
 4806TIP3    H235910   2.280   5.420  11.864  1.5406  0.7817  1.2973
 4807TIP3   OH235911   0.893   2.851  10.521  0.3667  0.3029  0.0927
 4807TIP3    H135912   0.852   2.820  10.440  0.9843 -0.5470  0.0920
 4807TIP3    H235913   0.839   2.925  10.548 -2.0643 -1.6399  0.8878
 4808TIP3   OH235914   0.555   1.921   0.204 -0.5236 -0.0929 -0.9350
 4808TIP3    H135915   0.536   1.828   0.193 -1.4481 -0.0577  0.1439
 4808TIP3    H235916   0.469   1.964   0.199 -0.3075  0.5191  0.1687
 4809TIP3   OH235917   4.256   0.931  15.155 -0.0096  0.3046 -0.2870
 4809TIP3    H135918   4.276   1.024  15.166 -2.5783  1.0740 -1.4452
 4809TIP3    H235919   4.212   0.906  15.237  0.1879  0.2449 -0.1979
 4810TIP3   OH235920   4.577   5.545  10.086  0.4607  0.0711 -0.2857
 4810TIP3    H135921   4.646   5.522  10.148  0.3446 -1.8507 -0.8041
 4810TIP3    H235922   4.505   5.577  10.140  1.4396  1.3423  0.3170
 4811TIP3   OH235923   0.319   1.668  13.345  0.4102 -0.0177 -0.2543
 4811TIP3    H135924   0.384   1.732  13.316  1.1426 -0.8975 -0.6339
 4811TIP3    H235925   0.345   1.586  13.302 -1.0219 -0.3718 -0.4851
 4812TIP3   OH235926   6.748   6.433   1.913  0.0214  0.3501  0.2313
 4812TIP3    H135927   6.843   6.427   1.909  0.0268  1.1354 -1.1244
 4812TIP3    H235928   6.731   6.517   1.957 -0.0660  0.0584  0.7744
 4813TIP3   OH235929   0.082   2.528  14.606  0.4442  0.1439 -0.0813
 4813TIP3    H135930   0.084   2.562  14.517 -4.0700  1.7627  0.1973
 4813TIP3    H235931   0.147   2.580  14.653  1.7554  0.3665 -2.0404
 4814TIP3   OH235932   5.022   1.131   1.086  0.0861  0.3829 -0.1565
 4814TIP3    H135933   5.056   1.177   1.162  1.6154  0.9408 -1.1326
 4814TIP3    H235934   5.082   1.154   1.015 -1.6618  0.4521 -1.7132
 4815TIP3   OH235935   0.028   2.774   1.544  0.0986 -0.1908  0.1129
 4815TIP3    H135936   0.038   2.700   1.605 -0.2313  0.0013  0.3978
 4815TIP3    H235937   0.059   2.850   1.594  0.8154 -0.1901 -0.3138
 4816TIP3   OH235938   1.012   3.063  13.768 -0.3846 -0.6877 -0.1757
 4816TIP3    H135939   0.993   3.124  13.839 -0.2830 -1.6088  0.6706
 4816TIP3    H235940   0.934   3.067  13.712  0.4351  1.7043 -1.2993
 4817TIP3   OH235941   4.377   4.341  14.081  0.1524  0.3058 -0.4853
 4817TIP3    H135942   4.300   4.389  14.112 -0.0220  0.3209 -0.9259
 4817TIP3    H235943   4.348   4.302  13.998  0.6260  0.3287 -0.6628
 4818TIP3   OH235944   6.604   4.721  12.803 -0.0626 -0.0573 -0.0732
 4818TIP3    H135945   6.654   4.780  12.746  1.2901 -1.2416 -0.1664
 4818TIP3    H235946   6.567   4.779  12.870 -0.4897  1.1618 -1.3037
 4819TIP3   OH235947   4.230   6.656  11.188 -0.4532 -0.3651  0.0711
 4819TIP3    H135948   4.244   6.567  11.156  0.0719 -0.0683 -0.5431
 4819TIP3    H235949   4.291   6.666  11.262  0.4791 -0.0762 -0.7135
 4820TIP3   OH235950   1.287   5.522  14.429  0.1247 -0.3511 -1.0535
 4820TIP3    H135951   1.295   5.428  14.441  1.5801 -0.3681 -1.8906
 4820TIP3    H235952   1.266   5.556  14.516  2.3904 -1.1993 -0.0837
 4821TIP3   OH235953   7.195   0.570  12.627  0.1235 -0.0187  0.3833
 4821TIP3    H135954   7.102   0.588  12.614  0.3010  1.1510  0.6354
 4821TIP3    H235955   7.223   0.637  12.689  1.1334 -0.3873  0.3303
 4822TIP3   OH235956   3.508   4.631   3.830  0.2547 -0.1459  0.0133
 4822TIP3    H135957   3.454   4.641   3.908  1.2760 -1.0735  0.8801
 4822TIP3    H235958   3.595   4.661   3.858  1.2206 -2.7054  0.0103
 4823TIP3   OH235959   4.986   6.495  12.390  0.4476 -0.3236 -0.4062
 4823TIP3    H135960   5.002   6.556  12.318  0.8567 -0.1354 -0.1609
 4823TIP3    H235961   5.047   6.422  12.374  1.0829  0.0681  0.1497
 4824TIP3   OH235962   6.177   5.082   0.980  0.2204  1.0533  0.6299
 4824TIP3    H135963   6.174   5.037   0.895  2.2608  0.9099  0.5897
 4824TIP3    H235964   6.217   5.166   0.961  1.4346  0.7043  1.5473
 4825TIP3   OH235965   3.186   2.600  10.755 -0.2613  0.3199  0.3533
 4825TIP3    H135966   3.276   2.570  10.768 -0.7754 -0.5465  2.3212
 4825TIP3    H235967   3.194   2.694  10.739  1.0173  0.1477 -0.2066
 4826TIP3   OH235968   6.640   3.005  11.341  0.1139 -0.2783 -0.4852
 4826TIP3    H135969   6.700   3.015  11.415  1.1969  0.4306 -1.4397
 4826TIP3    H235970   6.614   2.913  11.343  0.1768 -0.2806  0.7284
 4827TIP3   OH235971   4.932   5.114  11.646 -0.7943 -0.1418 -0.1788
 4827TIP3    H135972   4.837   5.125  11.648 -0.6926  0.8080  0.0591
 4827TIP3    H235973   4.961   5.169  11.573 -0.3985 -0.1751 -0.0508
 4828TIP3   OH235974   3.736   5.505  13.578  0.0909  0.3531 -0.5236
 4828TIP3    H135975   3.791   5.537  13.506  0.6049 -0.4164 -0.4859
 4828TIP3    H235976   3.793   5.508  13.655 -0.5002  1.3027 -0.1006
 4829TIP3   OH235977   4.601   5.721   9.884 -0.5503 -0.7445 -0.0980
 4829TIP3    H135978   4.631   5.658   9.950 -1.2109 -0.5976  0.3598
 4829TIP3    H235979   4.512   5.693   9.864 -0.7129 -0.1882 -0.1770
 4830TIP3   OH235980   2.399   1.102  13.241  0.2913 -0.6556  0.1664
 4830TIP3    H135981   2.329   1.106  13.175 -1.0698 -0.5690  1.5505
 4830TIP3    H235982   2.367   1.039  13.306  1.6223 -0.7940  0.7212
 4831TIP3   OH235983   0.774   3.569  13.434 -0.4889  0.5424 -0.3919
 4831TIP3    H135984   0.860   3.603  13.462  0.3791 -1.0829 -0.9929
 4831TIP3    H235985   0.733   3.541  13.516  0.3838 -0.4953 -0.2903
 4832TIP3   OH235986   4.778   1.209   2.483  0.1309  0.3281  0.1496
 4832TIP3    H135987   4.707   1.245   2.429 -0.9007  1.1040  1.9167
 4832TIP3    H235988   4.810   1.134   2.433 -1.8920 -0.0114 -0.7692
 4833TIP3   OH235989   3.075   3.330  11.931 -0.4965 -0.6985  0.2849
 4833TIP3    H135990   3.037   3.349  12.017  1.1924 -0.2237  0.9852
 4833TIP3    H235991   3.125   3.409  11.910  2.0964 -2.1292  0.6076
 4834TIP3   OH235992   4.591   0.010   2.386 -0.1356 -0.0790 -0.2966
 4834TIP3    H135993   4.622   0.100   2.389 -0.0210  0.0053 -2.3679
 4834TIP3    H235994   4.613  -0.026   2.472 -0.1458  1.8289  0.5564
 4835TIP3   OH235995   3.836   6.229  12.474  0.0218  0.4197 -0.4869
 4835TIP3    H135996   3.896   6.300  12.500  0.3776 -0.9927  3.1155
 4835TIP3    H235997   3.774   6.222  12.547 -0.1938 -2.7171 -0.8391
 4836TIP3   OH235998   3.610   3.548  12.583  0.4000 -0.2190 -0.5729
 4836TIP3    H135999   3.543   3.481  12.591  0.1844  0.0654  0.1090
 4836TIP3    H236000   3.607   3.595  12.667  0.4398  0.7339 -1.0906
 4837TIP3   OH236001   6.678   0.834  10.046 -0.6010  0.2633  0.0695
 4837TIP3    H136002   6.602   0.789  10.008 -0.1025 -0.4091 -0.1465
 4837TIP3    H236003   6.705   0.778  10.118 -1.0289  1.1133  0.9089
 4838TIP3   OH236004   3.116   1.906  14.113 -0.5800 -0.3337  0.0976
 4838TIP3    H136005   3.038   1.924  14.166 -1.3418  1.2046 -1.4532
 4838TIP3    H236006   3.147   1.993  14.087  0.5974 -1.0060 -0.8044
 4839TIP3   OH236007   6.133   3.094  10.705 -0.0853  0.0508 -0.2774
 4839TIP3    H136008   6.196   3.024  10.688 -1.3483 -1.3215  0.5122
 4839TIP3    H236009   6.140   3.110  10.799 -0.4593  0.3431 -0.2998
 4840TIP3   OH236010   3.172   5.390  12.058  0.2871  0.0744  0.1604
 4840TIP3    H136011   3.103   5.343  12.011  0.7290 -0.8689  0.4132
 4840TIP3    H236012   3.140   5.395  12.148 -0.2456  1.2571 -0.0761
 4841TIP3   OH236013   0.793   3.127   2.550 -0.2032 -0.0134 -0.1685
 4841TIP3    H136014   0.718   3.093   2.600  0.9223  1.4452  2.7919
 4841TIP3    H236015   0.770   3.219   2.534  0.0508 -0.1226 -1.2031
 4842TIP3   OH236016   1.015   3.163   3.004 -0.2893 -0.1000  0.2433
 4842TIP3    H136017   0.923   3.134   3.007 -0.2213 -0.5898 -1.4315
 4842TIP3    H236018   1.014   3.240   2.948  0.5252 -1.0731 -1.1694
 4843TIP3   OH236019   3.879   1.653   9.354  0.2766 -0.0140 -0.0230
 4843TIP3    H136020   3.867   1.743   9.325 -0.6994 -0.9804 -2.9390
 4843TIP3    H236021   3.808   1.638   9.416 -0.4334  0.8124 -0.6141
 4844TIP3   OH236022   4.174   6.278  12.682  0.1960 -0.3584  0.3282
 4844TIP3    H136023   4.223   6.260  12.762 -0.6574 -0.0185  0.9480
 4844TIP3    H236024   4.133   6.194  12.661  2.1464 -1.0445 -1.0181
 4845TIP3   OH236025   1.933   6.366  11.982 -0.0569  0.2629 -0.1809
 4845TIP3    H136026   1.904   6.286  12.025 -0.1680 -0.2834 -1.2365
 4845TIP3    H236027   2.011   6.393  12.030  0.8967 -1.3519 -0.7654
 4846TIP3   OH236028   3.866   1.680  10.340  0.6765  0.5112  0.1750
 4846TIP3    H136029   3.824   1.731  10.409  0.3842 -0.8666  1.0616
 4846TIP3    H236030   3.845   1.727  10.259 -0.7543  1.0315  0.8145
 4847TIP3   OH236031   1.753   6.391   3.090 -0.0768  0.1889  0.2320
 4847TIP3    H136032   1.758   6.369   2.997  0.8335 -0.2792  0.3798
 4847TIP3    H236033   1.676   6.345   3.122  1.0709 -1.8375  0.2511
 4848TIP3   OH236034   6.831   0.483  13.651 -0.2660  0.4459 -0.1219
 4848TIP3    H136035   6.752   0.445  13.613  0.1538 -0.8387  0.2284
 4848TIP3    H236036   6.816   0.482  13.745 -0.1580  0.9523 -0.0976
 4849TIP3   OH236037   3.262   5.644   9.554 -0.3164  0.0763 -0.1724
 4849TIP3    H136038   3.257   5.695   9.473  0.7197 -0.3878 -0.5510
 4849TIP3    H236039   3.351   5.608   9.554 -0.8194 -1.2393  0.3707
 4850TIP3   OH236040   1.061   0.168   9.305 -0.1291 -0.4217  0.3846
 4850TIP3    H136041   1.097   0.160   9.216 -2.1017  1.9908 -0.7766
 4850TIP3    H236042   1.006   0.091   9.316 -0.1384 -0.5782 -0.6396
 4851TIP3   OH236043   2.532   4.231  14.201 -0.0209  0.1478  0.2114
 4851TIP3    H136044   2.564   4.294  14.137  1.6164  0.1963  1.0361
 4851TIP3    H236045   2.559   4.266  14.286 -0.8466 -0.6668  0.8386
 4852TIP3   OH236046   0.595   1.217  15.215 -0.0179 -0.1267 -0.4295
 4852TIP3    H136047   0.579   1.125  15.239 -1.1881 -0.2405 -1.5536
 4852TIP3    H236048   0.524   1.265  15.258 -1.4409 -0.1932 -2.5783
 4853TIP3   OH236049   3.578   6.155  14.336  0.1159 -0.1075  0.0825
 4853TIP3    H136050   3.607   6.229  14.390  2.1496 -0.2276 -0.7593
 4853TIP3    H236051   3.521   6.195  14.270 -1.5486  0.1815  1.6201
 4854TIP3   OH236052   2.128   2.150  12.512  0.0364  0.2197  0.1571
 4854TIP3    H136053   2.220   2.174  12.497 -0.3131  1.0953 -0.6561
 4854TIP3    H236054   2.129   2.054  12.514  0.8639  0.1988 -0.5892
 4855TIP3   OH236055   1.416   2.613   1.321  0.4882  0.2428 -0.2293
 4855TIP3    H136056   1.371   2.598   1.238  0.1252  1.1263 -0.1998
 4855TIP3    H236057   1.421   2.708   1.329 -1.0205  0.2211  1.5881
 4856TIP3   OH236058   3.280   5.284  12.352  0.8378  0.0677 -0.0860
 4856TIP3    H136059   3.190   5.249  12.350  1.6562 -2.1450 -1.3594
 4856TIP3    H236060   3.316   5.253  12.434  0.2106  1.7190  0.8589
 4857TIP3   OH236061   5.412   1.990  12.351 -0.0416 -0.4235 -0.1097
 4857TIP3    H136062   5.441   2.002  12.261 -0.1804 -0.9703 -0.2262
 4857TIP3    H236063   5.317   2.004  12.348 -0.1681 -1.2434 -0.1994
 4858TIP3   OH236064   6.729   2.858   4.281  0.4195  0.2517 -0.4409
 4858TIP3    H136065   6.712   2.764   4.290 -0.2054  0.4863  1.2888
 4858TIP3    H236066   6.644   2.894   4.257  0.9348  0.2672 -2.3880
 4859TIP3   OH236067   0.129   1.842  13.217 -0.0348 -0.4548  0.0406
 4859TIP3    H136068   0.173   1.762  13.245  0.4026 -0.1854  0.1483
 4859TIP3    H236069   0.184   1.913  13.251 -0.5678 -0.1055  0.1970
 4860TIP3   OH236070   5.031   3.632  13.511  0.1887  0.0110 -0.3236
 4860TIP3    H136071   4.996   3.561  13.456 -1.0544  0.6276 -0.3470
 4860TIP3    H236072   5.035   3.708  13.453  1.1029  0.0926 -0.1764
 4861TIP3   OH236073   4.451   3.078   0.396  0.2795  0.0472 -0.7193
 4861TIP3    H136074   4.364   3.108   0.420 -0.4021 -2.8038  0.7390
 4861TIP3    H236075   4.508   3.110   0.466  0.4527  1.7403 -1.5733
 4862TIP3   OH236076   0.105   4.073   1.161  0.0308 -0.5135 -0.0381
 4862TIP3    H136077   0.090   3.979   1.170  0.8234 -0.6050  0.4005
 4862TIP3    H236078   0.162   4.096   1.234 -2.9207  1.0073  1.9448
 4863TIP3   OH236079   5.178   6.813  10.598  0.7682 -0.0645 -0.1363
 4863TIP3    H136080   5.134   6.798  10.682  1.7700 -1.8340  0.1098
 4863TIP3    H236081   5.113   6.788  10.533  0.9796 -1.6528  0.2089
 4864TIP3   OH236082   2.157   0.160  14.044 -0.1983 -0.0249  0.1947
 4864TIP3    H136083   2.165   0.229  14.109 -1.7244  0.8840 -0.5343
 4864TIP3    H236084   2.086   0.104  14.077  0.0386 -0.4176  0.0470
 4865TIP3   OH236085   1.184   5.854   0.023 -0.0396 -0.7199 -0.3822
 4865TIP3    H136086   1.093   5.872   0.047  0.2826  2.9957 -1.2652
 4865TIP3    H236087   1.202   5.767   0.059 -3.5503 -1.1044  0.8350
 4866TIP3   OH236088   4.608   1.134   1.668  0.3544  0.0637  0.2099
 4866TIP3    H136089   4.598   1.046   1.705 -0.3411 -1.6743 -3.6165
 4866TIP3    H236090   4.688   1.129   1.616  0.2683  1.6990 -0.1402
 4867TIP3   OH236091   1.384   0.778  11.055 -0.2835 -1.0858  0.2842
 4867TIP3    H136092   1.454   0.713  11.062 -0.8647 -1.7727 -0.0761
 4867TIP3    H236093   1.376   0.795  10.961  1.8058  1.7240  0.4867
 4868TIP3   OH236094   6.004   5.768   1.242  0.2600  0.0925  0.2331
 4868TIP3    H136095   5.991   5.848   1.192 -0.0263  0.3795  0.7561
 4868TIP3    H236096   5.915   5.735   1.259  0.3936 -0.7949 -0.6992
 4869TIP3   OH236097   2.130   7.158  10.530 -0.3093 -0.1163 -0.2563
 4869TIP3    H136098   2.047   7.128  10.492  0.6665 -1.2325 -1.6198
 4869TIP3    H236099   2.156   7.231  10.474 -0.8486  0.9055  0.7942
 4870TIP3   OH236100   0.828   0.253  13.432 -0.2099  0.3915 -0.4150
 4870TIP3    H136101   0.869   0.168  13.416  1.7213  1.0271  0.7661
 4870TIP3    H236102   0.868   0.283  13.513  0.6362  3.2727 -1.7832
 4871TIP3   OH236103   1.004   6.521  10.633 -0.0431  0.4507 -0.2627
 4871TIP3    H136104   1.096   6.498  10.619  0.2248  1.4691 -0.2437
 4871TIP3    H236105   1.003   6.616  10.632 -1.3164  0.4525 -1.6389
 4872TIP3   OH236106   4.304   1.352  13.440  0.2999  0.4113 -0.0807
 4872TIP3    H136107   4.269   1.284  13.382  0.8975 -0.9451  1.0754
 4872TIP3    H236108   4.353   1.411  13.382  0.5314 -0.6673 -1.0162
 4873TIP3   OH236109   4.438   7.056   4.547 -0.1994  0.2215  0.8640
 4873TIP3    H136110   4.392   6.980   4.583 -0.9148  1.2414  2.1894
 4873TIP3    H236111   4.466   7.106   4.624  0.2004  1.3365  0.0260
 4874TIP3   OH236112   2.744   0.614  12.480  0.2217 -0.0244  0.6975
 4874TIP3    H136113   2.836   0.590  12.470 -0.2924 -1.2302 -1.7709
 4874TIP3    H236114   2.700   0.532  12.502 -0.1332  0.8219  3.6009
 4875TIP3   OH236115   1.209   1.811  12.872 -0.4307 -0.3170 -0.1176
 4875TIP3    H136116   1.200   1.720  12.900 -0.4310 -0.0475  0.7886
 4875TIP3    H236117   1.302   1.831  12.885 -0.3155 -0.3451 -0.8392
 4876TIP3   OH236118   6.079   5.561   0.545 -0.0184  0.3293  0.4468
 4876TIP3    H136119   6.083   5.512   0.627 -1.2374 -1.4441 -0.5078
 4876TIP3    H236120   6.171   5.582   0.525  0.8411 -3.2664 -0.0515
 4877TIP3   OH236121   2.583   2.905  10.763  0.6678  0.0074 -0.2577
 4877TIP3    H136122   2.643   2.847  10.810  0.9964  0.4838 -0.0776
 4877TIP3    H236123   2.637   2.980  10.738  0.1108  0.5287  0.0700
 4878TIP3   OH236124   2.119   2.480  10.781 -0.9248 -0.5699  0.3513
 4878TIP3    H136125   2.151   2.416  10.718 -1.4899 -1.1460  0.6308
 4878TIP3    H236126   2.163   2.459  10.863 -1.0656 -0.5676  0.4298
 4879TIP3   OH236127   5.493   5.807  13.956 -0.2715 -0.2236 -0.0716
 4879TIP3    H136128   5.557   5.740  13.932  1.5813  0.6564  2.0986
 4879TIP3    H236129   5.426   5.759  14.005  1.1681 -0.5331  1.7020
 4880TIP3   OH236130   6.461   2.759  10.794  0.4295  0.6680  0.5878
 4880TIP3    H136131   6.481   2.764  10.887 -0.9933  1.1735  0.9004
 4880TIP3    H236132   6.409   2.679  10.785  2.1260 -0.4138 -0.1322
 4881TIP3   OH236133   6.270   0.525  14.010  0.2091  0.4687  0.0261
 4881TIP3    H136134   6.330   0.450  14.015 -0.4750 -0.4593 -3.4729
 4881TIP3    H236135   6.313   0.586  13.949 -1.5365  0.5689 -1.1683
 4882TIP3   OH236136   5.570   0.810  11.397 -0.1169 -0.0874  0.0805
 4882TIP3    H136137   5.565   0.859  11.314 -1.1079  1.1831  0.8526
 4882TIP3    H236138   5.660   0.822  11.427 -0.5899  2.1392  0.7381
 4883TIP3   OH236139   0.048   6.465  10.345 -0.4087  0.4110 -0.7392
 4883TIP3    H136140  -0.025   6.407  10.323  0.2966 -0.8886  0.2613
 4883TIP3    H236141   0.049   6.530  10.274 -1.4338 -0.5802 -1.6955
 4884TIP3   OH236142   3.245   6.499  13.815 -0.0087  0.2130 -0.2373
 4884TIP3    H136143   3.220   6.588  13.838  2.2553  0.8101  0.1473
 4884TIP3    H236144   3.324   6.509  13.761  0.5672 -1.5523  0.2031
 4885TIP3   OH236145   6.786   6.022   1.277  0.0256 -0.1622  0.7972
 4885TIP3    H136146   6.706   6.073   1.260 -0.6077 -1.3090  0.2109
 4885TIP3    H236147   6.755   5.942   1.319  0.7541 -1.0170 -0.2432
 4886TIP3   OH236148   4.531   3.679   9.635  0.4303  0.5344  0.5806
 4886TIP3    H136149   4.507   3.594   9.599  0.9578  0.6174  0.0210
 4886TIP3    H236150   4.616   3.665   9.676  0.4591  0.7663  0.6031
 4887TIP3   OH236151   6.503   1.954  13.848 -0.8384  0.5366  0.6506
 4887TIP3    H136152   6.508   2.022  13.914 -0.0194  0.7154  0.4159
 4887TIP3    H236153   6.457   1.995  13.775  0.2577  1.0738  0.2428
 4888TIP3   OH236154   3.643   3.102  14.322  0.2904 -0.4964 -0.1148
 4888TIP3    H136155   3.695   3.055  14.257  0.3867  0.1164 -0.4828
 4888TIP3    H236156   3.651   3.194  14.298  0.4546 -0.2399  0.8529
 4889TIP3   OH236157   6.483   1.750   1.494 -0.2082 -0.2270 -0.3564
 4889TIP3    H136158   6.434   1.819   1.449  0.8940  0.9888  0.2462
 4889TIP3    H236159   6.458   1.759   1.586  1.8439  1.1030  0.1367
 4890TIP3   OH236160   0.861   1.361  10.233  0.0746 -0.8726  0.0249
 4890TIP3    H136161   0.820   1.275  10.241  0.3793 -1.1376 -1.1064
 4890TIP3    H236162   0.950   1.342  10.202  0.1844 -0.1539 -0.1021
 4891TIP3   OH236163   4.174   0.966   9.190  0.0316  0.3613 -0.2625
 4891TIP3    H136164   4.115   0.936   9.121  0.0494  0.8862 -0.5137
 4891TIP3    H236165   4.121   0.962   9.270 -0.5915  1.4845 -0.5851
 4892TIP3   OH236166   4.569   2.311  10.656 -0.3419 -0.3115 -0.4944
 4892TIP3    H136167   4.664   2.309  10.668 -0.1766  0.8598 -1.3827
 4892TIP3    H236168   4.536   2.358  10.732 -0.3417 -1.6134  0.3481
 4893TIP3   OH236169   3.364   6.836   9.824 -0.1415  0.3694 -0.5369
 4893TIP3    H136170   3.454   6.841   9.857  0.2667 -0.3816 -1.4693
 4893TIP3    H236171   3.352   6.918   9.775  0.1725  0.3164 -0.7068
 4894TIP3   OH236172   2.822   5.567  11.482 -0.0620 -0.1665  0.3068
 4894TIP3    H136173   2.786   5.524  11.404 -0.6693 -1.2645  1.1730
 4894TIP3    H236174   2.748   5.574  11.542  0.6544 -0.4418  1.2487
 4895TIP3   OH236175   3.232   3.568  11.928 -0.2026  0.1102 -0.1357
 4895TIP3    H136176   3.257   3.656  11.958 -1.1327 -0.0604  1.2179
 4895TIP3    H236177   3.315   3.522  11.917  0.3526  1.3642 -1.6262
 4896TIP3   OH236178   5.591   5.988  13.297 -0.2481 -0.8166 -0.0155
 4896TIP3    H136179   5.593   5.949  13.210 -0.6220  0.9743 -0.8605
 4896TIP3    H236180   5.681   6.013  13.314 -0.5508  1.2663 -1.0964
 4897TIP3   OH236181   4.044   1.437  12.208 -0.0685 -0.1278  0.0869
 4897TIP3    H136182   3.966   1.477  12.248  0.0979 -0.1649  0.4573
 4897TIP3    H236183   4.098   1.413  12.283  0.3211 -0.0602 -0.1739
 4898TIP3   OH236184   6.722   5.378  14.649  1.1603 -0.0919  0.0026
 4898TIP3    H136185   6.766   5.453  14.609  1.7214 -0.9646 -1.0583
 4898TIP3    H236186   6.787   5.339  14.706  0.0551  1.7694  2.7816
 4899TIP3   OH236187   1.533   1.303   1.960 -0.1561 -0.2172  0.0984
 4899TIP3    H136188   1.620   1.269   1.942  0.1679  0.7020 -0.1446
 4899TIP3    H236189   1.529   1.385   1.910 -0.8612  0.1523  0.7386
 4900TIP3   OH236190   6.064   1.693  13.547  0.6033  0.3999 -0.1369
 4900TIP3    H136191   6.115   1.623  13.506 -0.3099  0.8987 -2.2352
 4900TIP3    H236192   6.006   1.724  13.478  0.4713  2.7511  0.9383
 4901TIP3   OH236193   4.154   4.748   1.600  0.2370  1.3322 -0.6158
 4901TIP3    H136194   4.224   4.705   1.552  0.4822  0.2800  0.6466
 4901TIP3    H236195   4.095   4.780   1.532  0.2894 -0.5773 -1.6212
 4902TIP3   OH236196   1.190   3.166   0.109 -0.0866 -0.1384 -0.0861
 4902TIP3    H136197   1.174   3.100   0.041  0.4519 -0.1274 -0.2298
 4902TIP3    H236198   1.212   3.115   0.187  0.9316 -0.1299 -0.3533
 4903TIP3   OH236199   6.004   4.524  10.315 -0.3218 -0.0138 -0.3159
 4903TIP3    H136200   6.062   4.453  10.344 -0.2899  0.2917  0.3898
 4903TIP3    H236201   6.009   4.589  10.385  0.3655  1.1191 -1.3831
 4904TIP3   OH236202   6.745   1.660   0.277  0.4918  0.0311  0.3709
 4904TIP3    H136203   6.721   1.733   0.220  1.0214  0.1070  0.2370
 4904TIP3    H236204   6.663   1.633   0.318  0.4075  1.1442  0.9506
 4905TIP3   OH236205   3.536   0.768  14.906 -0.3535  0.4862 -0.4115
 4905TIP3    H136206   3.441   0.759  14.902 -0.3639 -0.7342  1.5272
 4905TIP3    H236207   3.568   0.678  14.907  0.8066  0.8840 -0.4929
 4906TIP3   OH236208   0.778   0.936  12.850  0.3743 -0.5864  0.1788
 4906TIP3    H136209   0.700   0.894  12.886 -0.1631 -0.4743 -0.8151
 4906TIP3    H236210   0.812   0.989  12.922 -1.8044  1.1943  0.0018
 4907TIP3   OH236211   2.235   6.446  12.081  0.5765 -0.4208 -0.1802
 4907TIP3    H136212   2.292   6.400  12.019  1.5920 -0.8956  1.0543
 4907TIP3    H236213   2.281   6.529  12.098  1.8591 -1.4917  2.0887
 4908TIP3   OH236214   4.708   5.854  12.045 -0.5696  0.2877 -0.5882
 4908TIP3    H136215   4.644   5.844  11.975  0.4942 -0.7512 -1.4673
 4908TIP3    H236216   4.754   5.936  12.025 -0.9498  0.5168 -0.5233
 4909TIP3   OH236217   6.385   5.838  10.014 -0.5603 -0.6346  0.7321
 4909TIP3    H136218   6.453   5.796  10.067 -0.1382 -1.0716 -0.1295
 4909TIP3    H236219   6.329   5.765   9.985 -1.2413 -0.3090  1.2147
 4910TIP3   OH236220   7.242   1.175   0.645 -0.5645  0.1770 -0.4348
 4910TIP3    H136221   7.190   1.094   0.646  0.1785 -0.3565 -2.1834
 4910TIP3    H236222   7.328   1.148   0.677 -0.6196  0.5192  0.0087
 4911TIP3   OH236223   7.146   2.355  15.323 -0.3785 -0.1856  0.2004
 4911TIP3    H136224   7.194   2.416  15.379 -0.5992 -2.0633  2.5572
 4911TIP3    H236225   7.213   2.322  15.262  0.3440  0.3330  0.6924
 4912TIP3   OH236226   3.646   6.168   0.846  0.5593  0.4999  0.2751
 4912TIP3    H136227   3.598   6.239   0.803 -0.7497 -0.1258  0.6206
 4912TIP3    H236228   3.629   6.091   0.790  3.1332  0.6993 -0.8895
 4913TIP3   OH236229   2.068   2.161  11.033 -0.1637  0.1063 -0.5717
 4913TIP3    H136230   2.079   2.195  11.121  1.3318 -0.7629 -0.3996
 4913TIP3    H236231   2.032   2.073  11.045 -0.0449  0.0208 -0.8284
 4914TIP3   OH236232   0.460   1.928  13.312  0.4424  0.3699 -0.1253
 4914TIP3    H136233   0.521   1.969  13.373  0.6712 -0.0023 -0.1041
 4914TIP3    H236234   0.409   2.002  13.276  1.4040  0.7722 -0.7081
 4915TIP3   OH236235   1.077   4.413  10.020  0.3509  0.0545 -0.6383
 4915TIP3    H136236   1.169   4.421   9.996  0.9618 -0.5518  1.2781
 4915TIP3    H236237   1.055   4.497  10.060  0.6604 -0.4028  0.5675
 4916TIP3   OH236238   4.781   3.921  12.380  0.9843 -0.3651 -0.0333
 4916TIP3    H136239   4.836   3.849  12.410  1.1559  0.7478  2.5429
 4916TIP3    H236240   4.692   3.888  12.387  1.0174 -0.1174  1.8837
 4917TIP3   OH236241   6.438   0.428  12.028  0.3495 -0.3219 -0.0740
 4917TIP3    H136242   6.488   0.447  12.107 -1.2752  2.3375  0.4547
 4917TIP3    H236243   6.489   0.362  11.981  2.7487  0.0659  1.8482
 4918TIP3   OH236244   1.525   5.896  11.425 -0.5577  0.3722  0.2467
 4918TIP3    H136245   1.456   5.844  11.467 -0.2493 -0.6664 -0.4734
 4918TIP3    H236246   1.565   5.946  11.496  1.6447 -3.1765  1.7850
 4919TIP3   OH236247   4.081   1.550   2.243  0.6602 -0.1157 -0.3783
 4919TIP3    H136248   4.008   1.594   2.199  1.1421 -0.0782 -1.1627
 4919TIP3    H236249   4.043   1.514   2.323  0.8806  4.6758  2.2310
 4920TIP3   OH236250   5.863   2.414   0.093  0.0844 -0.0429  0.0591
 4920TIP3    H136251   5.944   2.443   0.135 -0.6098 -1.8816  3.0178
 4920TIP3    H236252   5.884   2.329   0.055 -0.2880 -0.2592  0.3230
 4921TIP3   OH236253   5.108   2.944  12.868 -0.5217  0.1139 -0.2125
 4921TIP3    H136254   5.194   2.940  12.825 -0.0090  0.4588  0.7556
 4921TIP3    H236255   5.053   2.992  12.806  0.0397  0.0787 -0.7542
 4922TIP3   OH236256   0.024   6.626  13.103  0.3049 -0.2023  0.0444
 4922TIP3    H136257  -0.038   6.557  13.077  1.1104  0.1365 -3.1748
 4922TIP3    H236258  -0.027   6.683  13.161 -1.3827 -1.6821  0.1115
 4923TIP3   OH236259   4.335   2.027  13.541  0.2383  0.0228 -0.4065
 4923TIP3    H136260   4.429   2.028  13.558  0.3245  0.9838 -0.9101
 4923TIP3    H236261   4.328   2.011  13.447 -0.0508  1.2086 -0.6038
 4924TIP3   OH236262   6.939   2.059  14.217  0.3011 -0.0972 -0.8280
 4924TIP3    H136263   7.020   2.109  14.204  1.3551 -1.6054 -0.3714
 4924TIP3    H236264   6.953   1.978  14.168 -0.6034 -0.7337 -0.0684
 4925TIP3   OH236265   4.548   0.456   2.475 -0.2320 -0.2865  0.1543
 4925TIP3    H136266   4.531   0.495   2.561  0.2635  0.5762 -0.1284
 4925TIP3    H236267   4.514   0.367   2.482 -0.3309 -0.1783  1.1989
 4926TIP3   OH236268   3.406   1.645  12.723 -0.5664 -0.5918  0.3393
 4926TIP3    H136269   3.469   1.573  12.733 -0.5105 -1.0201 -2.3846
 4926TIP3    H236270   3.418   1.698  12.801  3.1321 -0.7438  0.0528
 4927TIP3   OH236271   3.241   4.355   9.391  0.0651  0.1439 -0.1738
 4927TIP3    H136272   3.291   4.274   9.386 -2.1456 -1.3467  0.2190
 4927TIP3    H236273   3.300   4.417   9.434  1.2616 -1.7686  1.1028
 4928TIP3   OH236274   0.593   1.238  10.149 -0.3733  0.2189  0.6698
 4928TIP3    H136275   0.622   1.271  10.064  0.7789  1.0532  1.3583
 4928TIP3    H236276   0.606   1.311  10.209 -0.9298 -0.4398  1.6238
 4929TIP3   OH236277   6.991   4.344  12.659 -0.1849  0.6322 -0.2998
 4929TIP3    H136278   7.057   4.412  12.671  2.0533 -1.1807 -1.5785
 4929TIP3    H236279   7.025   4.267  12.704 -1.8464 -0.1555 -0.2741
 4930TIP3   OH236280   6.104   1.762  11.954 -0.3723 -0.1137  0.7843
 4930TIP3    H136281   6.048   1.687  11.974  0.7341 -1.9064 -2.3119
 4930TIP3    H236282   6.042   1.834  11.937 -1.6910 -1.5016 -0.5420
 4931TIP3   OH236283   1.319   1.047  15.271  0.0884 -0.3061 -0.1542
 4931TIP3    H136284   1.227   1.026  15.254 -0.5414  0.7037  1.7402
 4931TIP3    H236285   1.316   1.121  15.332  2.1685 -0.1556 -0.1655
 4932TIP3   OH236286   5.136   0.270  13.109 -0.4750  0.0434 -0.5063
 4932TIP3    H136287   5.097   0.327  13.175 -0.8383  1.2466 -1.7058
 4932TIP3    H236288   5.230   0.274  13.125 -0.5765  0.1547  0.0677
 4933TIP3   OH236289   0.296   1.797  10.368  0.1617 -0.4973 -0.6072
 4933TIP3    H136290   0.245   1.857  10.314 -0.6044 -0.3971  0.1912
 4933TIP3    H236291   0.383   1.836  10.373 -0.7452  1.4989  1.2518
 4934TIP3   OH236292   1.611   3.677  14.325  0.4061 -0.1775 -0.3858
 4934TIP3    H136293   1.700   3.654  14.299  0.9850  1.1482  0.3249
 4934TIP3    H236294   1.619   3.706  14.416 -0.3633  1.9721 -0.9387
 4935TIP3   OH236295   4.321   6.814  10.262 -0.3240 -0.7186  0.2277
 4935TIP3    H136296   4.417   6.819  10.263 -0.2543 -1.3287  2.7671
 4935TIP3    H236297   4.301   6.726  10.292 -1.6956 -0.4288  0.2164
 4936TIP3   OH236298   5.013   5.074  10.292  0.1817 -0.2428 -0.3359
 4936TIP3    H136299   5.104   5.046  10.290  0.6653  1.0264  1.4936
 4936TIP3    H236300   4.966   5.005  10.246  1.8473 -1.7970  0.1766
 4937TIP3   OH236301   5.492   3.947   0.427 -0.8682  0.1462  0.0382
 4937TIP3    H136302   5.514   4.019   0.369 -1.4090 -0.6895 -1.2347
 4937TIP3    H236303   5.513   3.868   0.378  1.9777 -0.6658  2.2435
 4938TIP3   OH236304   6.316   6.679  12.748  0.0268 -0.2224 -0.8780
 4938TIP3    H136305   6.367   6.739  12.694 -0.0628  0.9533  0.3031
 4938TIP3    H236306   6.382   6.632  12.799  0.0699 -0.8384 -1.4812
 4939TIP3   OH236307   5.466   5.465  14.125  1.1180 -0.9276  0.0004
 4939TIP3    H136308   5.407   5.398  14.091  0.4366 -0.4064  0.1489
 4939TIP3    H236309   5.409   5.527  14.171  1.5957  0.3799 -1.1054
 4940TIP3   OH236310   5.402   1.795  12.666  0.2181 -0.6026 -0.1008
 4940TIP3    H136311   5.427   1.880  12.627  0.1661 -0.2552  0.6093
 4940TIP3    H236312   5.366   1.818  12.751  0.1339 -1.3430  0.0643
 4941TIP3   OH236313   2.374   3.678  11.946 -0.5632  0.3036  0.2370
 4941TIP3    H136314   2.459   3.646  11.976 -1.0176  0.4909  1.8578
 4941TIP3    H236315   2.320   3.599  11.939 -1.0837  0.4352  2.1818
 4942TIP3   OH236316   1.705   0.793  13.828 -0.1721  0.1821  0.0306
 4942TIP3    H136317   1.776   0.804  13.764 -0.8233  0.3673 -0.6702
 4942TIP3    H236318   1.741   0.734  13.893  0.0946 -1.0042 -1.1510
 4943TIP3   OH236319   2.535   6.489  10.018 -0.6354  0.1197  0.3528
 4943TIP3    H136320   2.446   6.517  10.040 -0.1150  1.2709  1.0890
 4943TIP3    H236321   2.559   6.543   9.944 -0.3484  0.1871  0.4961
 4944TIP3   OH236322   4.152   3.750   2.259 -0.0094  0.1296  1.1260
 4944TIP3    H136323   4.230   3.799   2.235 -0.1227 -0.2319 -0.0034
 4944TIP3    H236324   4.186   3.668   2.296  0.1541 -0.3718 -0.0997
 4945TIP3   OH236325   0.395   6.601  11.513  0.8555  0.1913 -0.3652
 4945TIP3    H136326   0.327   6.537  11.493  0.6059  0.1035  0.6833
 4945TIP3    H236327   0.349   6.670  11.561  0.8081  1.9286 -2.7049
 4946TIP3   OH236328   7.235   5.217   3.221 -0.1228  0.1470  0.2577
 4946TIP3    H136329   7.225   5.307   3.188 -2.0170 -0.4193 -0.8701
 4946TIP3    H236330   7.277   5.228   3.307 -0.0623  2.0821  0.0364
 4947TIP3   OH236331   6.862   5.298  12.932  0.6555  0.8066  0.3915
 4947TIP3    H136332   6.801   5.246  12.984 -0.3898  0.1892 -1.3612
 4947TIP3    H236333   6.934   5.239  12.913 -0.7447 -0.3063 -1.9929
 4948TIP3   OH236334   0.371   5.706  11.023  0.0211  0.3881  0.4548
 4948TIP3    H136335   0.414   5.764  11.087  0.1772 -1.8529  2.5156
 4948TIP3    H236336   0.433   5.701  10.951  1.1948  0.7149  1.4025
 4949TIP3   OH236337   0.159   5.830  11.388  0.1382  0.0788  0.4060
 4949TIP3    H136338   0.091   5.764  11.373  0.1584  0.2630 -0.5891
 4949TIP3    H236339   0.229   5.782  11.431 -1.1818  0.2028  2.8794
 4950TIP3   OH236340   6.568   5.865  11.454 -0.0995  0.4554 -0.0383
 4950TIP3    H136341   6.601   5.889  11.368 -1.9684  0.0742 -0.9132
 4950TIP3    H236342   6.623   5.791  11.482 -0.7377 -0.7760 -1.8501
 4951TIP3   OH236343   0.599   4.435  11.362  0.1378 -0.0139 -0.3568
 4951TIP3    H136344   0.605   4.340  11.358  0.0780 -0.0002 -1.0355
 4951TIP3    H236345   0.549   4.453  11.441 -0.5158 -0.5888 -0.6275
 4952TIP3   OH236346   2.665   5.573  14.731 -0.3539 -0.1757 -0.1396
 4952TIP3    H136347   2.670   5.583  14.636 -1.2266  2.5026  0.0015
 4952TIP3    H236348   2.586   5.521  14.745  1.1122 -2.7234 -0.8931
 4953TIP3   OH236349   0.906   1.656  11.372  0.6234  0.8241 -0.3973
 4953TIP3    H136350   0.951   1.705  11.441 -0.1712  0.7890  0.1686
 4953TIP3    H236351   0.815   1.650  11.403  0.8612 -1.8476  0.0786
 4954TIP3   OH236352   3.298   5.832   9.321 -0.0389 -0.0012  0.0305
 4954TIP3    H136353   3.370   5.888   9.292  0.9941 -0.7532  1.0610
 4954TIP3    H236354   3.239   5.830   9.246  0.6020  1.2814 -0.5548
 4955TIP3   OH236355   5.985   2.999  11.159 -0.7062 -0.2095 -0.3297
 4955TIP3    H136356   6.070   3.031  11.189 -0.6565 -2.2267  1.9760
 4955TIP3    H236357   6.002   2.967  11.070  0.7578  0.1631 -0.2101
 4956TIP3   OH236358   1.406   6.701  14.761  0.0681 -0.4586  0.3254
 4956TIP3    H136359   1.378   6.736  14.676 -0.4763 -0.8555  0.3362
 4956TIP3    H236360   1.427   6.609  14.743 -1.2522 -0.8827  0.8598
 4957TIP3   OH236361   3.238   5.962  10.708 -0.1285 -0.0002 -0.2328
 4957TIP3    H136362   3.286   5.974  10.789  1.3881  0.4023 -1.1501
 4957TIP3    H236363   3.213   5.869  10.709 -1.0469  0.2357  1.1414
 4958TIP3   OH236364   2.642   1.643  11.573 -0.4889  0.4430  0.6272
 4958TIP3    H136365   2.699   1.691  11.633 -1.3665  0.6253  1.3353
 4958TIP3    H236366   2.572   1.705  11.553  0.4319  0.8643 -1.6297
 4959TIP3   OH236367   4.422   4.211   0.301  0.1929  0.2790 -0.2803
 4959TIP3    H136368   4.430   4.291   0.352 -1.2332  0.7647 -0.7805
 4959TIP3    H236369   4.513   4.181   0.289  0.6514  0.9773  1.1822
 4960TIP3   OH236370   0.427   1.685  11.907 -0.1955  0.2367 -0.1897
 4960TIP3    H136371   0.446   1.646  11.821  2.2860 -2.4020  1.3522
 4960TIP3    H236372   0.445   1.615  11.969  0.0878  2.6202  2.6352
 4961TIP3   OH236373   2.363   0.454   9.482  0.5643  0.3739 -0.0146
 4961TIP3    H136374   2.440   0.460   9.538  1.5197 -0.2647 -1.1940
 4961TIP3    H236375   2.289   0.466   9.541  1.5142 -0.4461  1.4100
 4962TIP3   OH236376   1.507   5.767   2.740  0.0640  0.2793  0.4264
 4962TIP3    H136377   1.459   5.836   2.694 -0.0843 -0.6285 -0.8574
 4962TIP3    H236378   1.599   5.785   2.721  0.6936  3.6133  5.1001
 4963TIP3   OH236379   0.568   5.102  15.257 -0.2575 -0.8888 -0.4946
 4963TIP3    H136380   0.510   5.161  15.208  0.0968  0.2189  0.3846
 4963TIP3    H236381   0.594   5.035  15.193 -1.3630 -0.5903 -1.2757
 4964TIP3   OH236382   5.706   4.542   3.259  0.2929 -0.3483  0.2180
 4964TIP3    H136383   5.641   4.544   3.330 -0.7222  0.7672 -0.6980
 4964TIP3    H236384   5.690   4.459   3.214 -0.4164 -0.1505  0.0861
 4965TIP3   OH236385   6.086   4.908  14.146  0.0406  0.0824  0.0273
 4965TIP3    H136386   5.998   4.872  14.155 -0.3637  1.0538 -0.0012
 4965TIP3    H236387   6.143   4.840  14.183 -0.7336 -0.4579  0.2499
 4966TIP3   OH236388   0.944   4.073  12.901 -0.2218  0.0718 -0.2083
 4966TIP3    H136389   0.901   4.049  12.819 -1.5200  0.9585  0.1830
 4966TIP3    H236390   0.985   4.157  12.883  1.2277 -0.6815 -0.5220
 4967TIP3   OH236391   2.798   2.766  12.972  0.1096  0.7825 -0.5880
 4967TIP3    H136392   2.874   2.720  13.007 -0.1202 -0.4664 -1.6900
 4967TIP3    H236393   2.818   2.780  12.880  0.0503  2.6818 -0.3568
 4968TIP3   OH236394   3.850   2.114  15.351  0.1619  0.1596  0.0015
 4968TIP3    H136395   3.792   2.051  15.308 -0.0039  0.3071  0.0093
 4968TIP3    H236396   3.881   2.068  15.429 -0.7243  0.4380  0.5281
 4969TIP3   OH236397   2.599   2.084   3.956 -0.3740 -0.2877 -0.4787
 4969TIP3    H136398   2.691   2.093   3.981 -0.7399 -0.7288  1.0994
 4969TIP3    H236399   2.576   1.995   3.981 -1.0608 -0.4113 -1.4920
 4970TIP3   OH236400   3.463   3.303   9.820 -0.2652  0.4876 -0.3920
 4970TIP3    H136401   3.505   3.315   9.905 -0.5783  1.7592 -0.4023
 4970TIP3    H236402   3.393   3.240   9.837  0.0833  0.2402  0.1473
 4971TIP3   OH236403   2.102   4.566  13.403  0.3593 -0.4813  0.2627
 4971TIP3    H136404   2.175   4.601  13.454 -0.6705 -0.3399  1.7031
 4971TIP3    H236405   2.110   4.610  13.318 -0.5090  2.9362  1.7711
 4972TIP3   OH236406   3.223   2.231   0.849 -0.3929 -0.6476 -0.1631
 4972TIP3    H136407   3.204   2.212   0.941 -0.2551  1.4760  0.3779
 4972TIP3    H236408   3.148   2.282   0.819  0.4618  0.3928 -0.5962
 4973TIP3   OH236409   3.057   2.591  11.018 -0.1681 -0.3158  0.4462
 4973TIP3    H136410   3.021   2.502  11.018  1.0747 -0.8377  0.7099
 4973TIP3    H236411   3.100   2.600  10.933  0.9013 -0.4809  0.9572
 4974TIP3   OH236412   3.317   0.756   4.787 -0.0659 -0.1634 -0.3193
 4974TIP3    H136413   3.329   0.834   4.732  0.3261 -0.8992 -1.3065
 4974TIP3    H236414   3.240   0.713   4.750 -1.1021  0.4328  1.0682
 4975TIP3   OH236415   0.031   6.012   1.667 -0.2846  0.4165 -0.1710
 4975TIP3    H136416   0.009   5.919   1.668 -2.3191  0.8636  1.1189
 4975TIP3    H236417   0.124   6.014   1.644 -0.1612 -1.9303 -0.0955
 4976TIP3   OH236418   4.901   4.804  11.268 -0.0367 -0.2274  0.3075
 4976TIP3    H136419   4.989   4.791  11.304 -0.1487  0.1524  0.7294
 4976TIP3    H236420   4.848   4.831  11.343 -0.6216 -0.9039  0.1425
 4977TIP3   OH236421   0.844   6.758  11.467 -0.7920  0.3389  0.1247
 4977TIP3    H136422   0.907   6.689  11.449 -1.4013 -0.2214  0.1276
 4977TIP3    H236423   0.846   6.813  11.388  0.5118  0.9739  0.5752
 4978TIP3   OH236424   6.614   2.430   2.950 -0.1880 -0.7416  0.5305
 4978TIP3    H136425   6.676   2.499   2.929  0.5174 -1.3108  0.7200
 4978TIP3    H236426   6.529   2.474   2.950  0.1278 -0.0906 -0.3942
 4979TIP3   OH236427   4.505   6.032  12.235  0.1018  0.8614  0.5263
 4979TIP3    H136428   4.519   5.945  12.271 -0.9651  0.1863 -0.5975
 4979TIP3    H236429   4.461   6.017  12.151 -1.2279  2.5238  0.8578
 4980TIP3   OH236430   3.710   7.253  13.466 -0.0655  0.5418 -0.0923
 4980TIP3    H136431   3.790   7.304  13.474  0.7496 -0.5083 -1.2566
 4980TIP3    H236432   3.660   7.296  13.397 -0.3476  0.9781  0.3779
 4981TIP3   OH236433   0.771   6.900  11.202 -0.3801 -0.0039 -0.7946
 4981TIP3    H136434   0.691   6.857  11.232 -1.6409  2.3078 -0.6061
 4981TIP3    H236435   0.741   6.964  11.137  1.1680  1.5948 -0.0197
 4982TIP3   OH236436   1.711   3.692  10.880 -0.3938  0.0915 -0.0330
 4982TIP3    H136437   1.714   3.739  10.963 -0.1541 -0.6912  0.4142
 4982TIP3    H236438   1.802   3.677  10.857 -0.4243  1.5132 -1.1567
 4983TIP3   OH236439   6.506   6.526  13.420  0.2781  0.4131 -0.3925
 4983TIP3    H136440   6.439   6.522  13.488 -0.3247 -1.5029 -1.0415
 4983TIP3    H236441   6.589   6.515  13.468 -0.1457 -1.0014  0.0659
 4984TIP3   OH236442   6.236   1.576  11.778 -0.1549 -0.3801 -0.0755
 4984TIP3    H136443   6.283   1.516  11.721 -1.0785 -1.7854  0.5819
 4984TIP3    H236444   6.294   1.588  11.853 -0.7225 -2.0456  0.6946
 4985TIP3   OH236445   2.708   0.452  12.727 -0.1531 -0.1448  0.7843
 4985TIP3    H136446   2.647   0.378  12.720  0.5894 -0.6500 -0.8728
 4985TIP3    H236447   2.790   0.418  12.692  0.6138  1.0584  1.3505
 4986TIP3   OH236448   4.974   1.668   9.527 -0.2453  0.1695  0.2201
 4986TIP3    H136449   4.962   1.709   9.442 -0.6945 -0.7150 -0.1554
 4986TIP3    H236450   5.002   1.579   9.507 -1.8973 -0.5497  0.9444
 4987TIP3   OH236451   2.528   6.495  12.090 -0.5688 -0.3380 -0.0333
 4987TIP3    H136452   2.535   6.583  12.054 -2.3729  0.1646  0.7025
 4987TIP3    H236453   2.618   6.466  12.101  0.0633  1.3407 -0.4756
 4988TIP3   OH236454   5.306   3.554  10.694  0.1141  0.4692 -0.5564
 4988TIP3    H136455   5.353   3.477  10.664  0.3108  1.1660 -2.0866
 4988TIP3    H236456   5.295   3.608  10.616  0.4255  2.2331  0.5708
 4989TIP3   OH236457   6.286   0.093  10.727 -0.2337 -0.0732 -0.1320
 4989TIP3    H136458   6.377   0.116  10.708  0.4024  3.2543  4.8099
 4989TIP3    H236459   6.235   0.168  10.696 -0.8160 -0.4567 -0.1184
 4990TIP3   OH236460   5.338   2.971  10.236 -0.4282 -0.0984 -0.0924
 4990TIP3    H136461   5.244   2.983  10.223 -0.9308 -2.1771  1.1515
 4990TIP3    H236462   5.375   3.060  10.233 -2.2549  0.6586 -1.6734
 4991TIP3   OH236463   1.770   2.452  14.505  0.1116  0.3299 -0.0342
 4991TIP3    H136464   1.761   2.528  14.447  1.9647  0.8763  0.3285
 4991TIP3    H236465   1.857   2.461  14.543 -0.2257 -1.1772  1.2013
 4992TIP3   OH236466   0.438   3.188  12.989  0.8582  0.4924  0.1459
 4992TIP3    H136467   0.359   3.156  12.946  1.3234 -3.0939  1.6035
 4992TIP3    H236468   0.407   3.255  13.050 -0.8405  0.2121 -0.3637
 4993TIP3   OH236469   4.570   7.201   9.800 -0.2907 -0.0853 -0.1093
 4993TIP3    H136470   4.504   7.224   9.865  0.1165 -0.2123  0.3599
 4993TIP3    H236471   4.528   7.136   9.744 -0.2025 -1.0004  0.8595
 4994TIP3   OH236472   0.146   5.462  12.055  0.1553  0.3703 -0.0761
 4994TIP3    H136473   0.115   5.440  11.967 -0.2748 -2.1864  0.6299
 4994TIP3    H236474   0.068   5.455  12.110  0.3949  2.0677  0.5314
 4995TIP3   OH236475   5.906   2.403  13.155  0.2467 -0.3651 -1.0144
 4995TIP3    H136476   5.927   2.496  13.147 -0.4777 -0.1193 -0.1836
 4995TIP3    H236477   5.891   2.389  13.248  0.7443 -1.4120 -1.0799
 4996TIP3   OH236478   5.697   7.005  10.266  0.0156  0.0783  0.3528
 4996TIP3    H136479   5.750   6.928  10.248 -0.5000  0.2179 -2.1076
 4996TIP3    H236480   5.608   6.979  10.246 -0.1981  1.2271 -0.2957
 4997TIP3   OH236481   6.535   3.696  12.992  0.2715  0.1941  0.0055
 4997TIP3    H136482   6.558   3.758  13.062 -0.7992  2.3288 -1.4422
 4997TIP3    H236483   6.448   3.663  13.017  1.5444 -2.2487  1.6902
 4998TIP3   OH236484   2.662   6.421  14.510  0.0029 -0.2255 -0.1607
 4998TIP3    H136485   2.576   6.423  14.468  1.6229 -0.7183 -3.9193
 4998TIP3    H236486   2.723   6.404  14.438  3.8158  4.7778  1.3308
 4999TIP3   OH236487   2.274   6.039   4.763  0.0973  0.5984  0.2103
 4999TIP3    H136488   2.214   6.111   4.780 -0.3958  0.5002 -1.0604
 4999TIP3    H236489   2.338   6.044   4.835 -0.8425  1.3021  1.0207
 5000TIP3   OH236490   4.828   1.416   9.937  0.0112 -0.1143 -0.2780
 5000TIP3    H136491   4.754   1.426   9.997 -0.3651  0.9903 -0.8841
 5000TIP3    H236492   4.839   1.503   9.898  1.4816 -0.3154 -0.3829
 5001TIP3   OH236493   0.145   2.631   9.585 -1.3615  0.5829 -0.3031
 5001TIP3    H136494   0.154   2.694   9.513  0.8068 -1.8375 -2.3452
 5001TIP3    H236495   0.113   2.551   9.544  0.7101 -1.1326  1.1656
 5002TIP3   OH236496   3.580   4.422  10.732 -0.3666  0.0855  0.3493
 5002TIP3    H136497   3.666   4.396  10.699 -0.2009  1.2507 -0.2063
 5002TIP3    H236498   3.586   4.518  10.738 -2.3826  0.4554 -1.9961
 5003TIP3   OH236499   4.887   0.587  13.755 -0.7687 -0.4283  0.6867
 5003TIP3    H136500   4.862   0.624  13.670  3.8872  1.2495 -0.2976
 5003TIP3    H236501   4.901   0.494  13.737  2.8529  0.3117 -1.4597
 5004TIP3   OH236502   3.226   4.678  12.171 -0.7576  0.1212 -0.1621
 5004TIP3    H136503   3.306   4.636  12.138 -0.3901  0.2775  0.4954
 5004TIP3    H236504   3.162   4.607  12.175 -0.2763 -0.3026  0.4921
 5005TIP3   OH236505   4.716   1.888  12.267 -0.2456  0.2871  0.0890
 5005TIP3    H136506   4.686   1.868  12.356 -1.6310  1.8378  0.0084
 5005TIP3    H236507   4.723   1.983  12.265  0.6337  0.2199 -1.2274
 5006TIP3   OH236508   0.720   5.424   9.882  0.3673  0.0985  0.2366
 5006TIP3    H136509   0.684   5.360   9.821  1.4567 -0.7018  0.3983
 5006TIP3    H236510   0.761   5.490   9.826 -1.4822  1.1415  0.0455
 5007TIP3   OH236511   1.073   5.684  15.079  0.7145  0.3119 -0.2801
 5007TIP3    H136512   1.051   5.662  14.989  0.1950 -1.4387  0.2312
 5007TIP3    H236513   1.072   5.780  15.082 -2.2252  0.4131 -1.4107
 5008TIP3   OH236514   0.527   2.128   4.710 -0.4421  0.2046  0.1512
 5008TIP3    H136515   0.479   2.210   4.701 -1.3961 -0.1646  1.5416
 5008TIP3    H236516   0.517   2.104   4.802  2.3675  0.0512  0.5186
 5009TIP3   OH236517   2.088   3.128   4.143  0.0675  0.1944 -0.1234
 5009TIP3    H136518   2.096   3.047   4.094  1.0800 -0.7018  1.4309
 5009TIP3    H236519   2.120   3.196   4.083 -1.1420 -0.4735 -1.5699
 5010TIP3   OH236520   3.051   5.863  14.856 -0.0867  0.3458 -0.5275
 5010TIP3    H136521   3.024   5.791  14.913  1.2920  0.1571 -0.0954
 5010TIP3    H236522   3.100   5.923  14.913  3.1466 -0.8590 -1.8431
 5011TIP3   OH236523   6.464   5.219  10.218  0.1701 -0.0813  0.3916
 5011TIP3    H136524   6.476   5.180  10.132  0.6210 -1.6354  1.1201
 5011TIP3    H236525   6.520   5.297  10.218  0.3568 -0.2076 -0.6193
 5012TIP3   OH236526   3.594   3.758   0.164  0.6547 -0.5506 -0.1066
 5012TIP3    H136527   3.505   3.738   0.134  0.6005 -2.0897  0.9964
 5012TIP3    H236528   3.597   3.729   0.255  1.6299  1.5623  0.6051
 5013TIP3   OH236529   4.685   5.312  11.509  0.2563 -0.1093  0.4422
 5013TIP3    H136530   4.606   5.260  11.490 -0.5194  1.4601 -0.8428
 5013TIP3    H236531   4.656   5.403  11.504  2.0070  0.5002  0.6698
 5014TIP3   OH236532   2.967   0.020  11.530  0.0688 -0.9769 -0.4030
 5014TIP3    H136533   2.947  -0.070  11.556  0.3662 -1.1688 -0.8222
 5014TIP3    H236534   2.883   0.056  11.504 -0.4918 -0.3197  2.1413
 5015TIP3   OH236535   6.269   2.387  11.048 -0.5238  0.0241  0.0354
 5015TIP3    H136536   6.273   2.480  11.071 -0.2666 -0.0615  0.3221
 5015TIP3    H236537   6.354   2.352  11.071 -0.4639 -0.1917 -0.4865
 5016TIP3   OH236538   3.951   4.458   4.482 -0.3403 -0.0076 -0.4270
 5016TIP3    H136539   3.995   4.379   4.513 -0.3747 -0.2373 -0.9476
 5016TIP3    H236540   4.020   4.523   4.474 -0.1456 -0.2628 -0.8915
 5017TIP3   OH236541   0.055   0.642  15.351  0.0051  0.3751 -0.6734
 5017TIP3    H136542   0.118   0.632  15.280 -1.7093 -0.6533 -2.1465
 5017TIP3    H236543   0.028   0.553  15.372  1.1690  0.5587  2.0312
 5018TIP3   OH236544   5.329   4.210  10.496  0.1962 -0.4866 -0.4723
 5018TIP3    H136545   5.382   4.283  10.528  0.6216 -1.1217  0.3046
 5018TIP3    H236546   5.328   4.147  10.568 -0.8375 -0.9005 -0.8248
 5019TIP3   OH236547   2.501   0.587  13.090  0.0023 -0.0434  0.3249
 5019TIP3    H136548   2.594   0.611  13.093 -0.1377  0.6796 -0.5934
 5019TIP3    H236549   2.473   0.611  13.002 -0.8837 -0.9507  0.3398
 5020TIP3   OH236550   1.783   1.172  12.336  0.4365 -0.0422 -0.6576
 5020TIP3    H136551   1.839   1.110  12.290  0.4390  0.2036 -0.9865
 5020TIP3    H236552   1.696   1.157  12.299  0.4068  0.0406 -0.6208
 5021TIP3   OH236553   1.712   2.953   1.567  0.0846  0.2140  0.1463
 5021TIP3    H136554   1.760   3.027   1.532 -0.6203  0.2296 -0.8292
 5021TIP3    H236555   1.740   2.947   1.659  0.6019  1.3012  0.0724
 5022TIP3   OH236556   1.328   6.185   2.491  0.2204 -0.0199  0.3554
 5022TIP3    H136557   1.366   6.119   2.549  2.2120  0.3532 -0.4397
 5022TIP3    H236558   1.352   6.269   2.530  0.2324  0.2329 -0.1807
 5023TIP3   OH236559   6.954   5.603  10.275  0.4041 -0.1883  0.3659
 5023TIP3    H136560   7.010   5.676  10.302  2.1376 -0.9314 -1.0186
 5023TIP3    H236561   6.949   5.611  10.180 -1.1700 -0.6558  0.3856
 5024TIP3   OH236562   6.444   4.160  13.362 -0.0094  0.0401  0.2901
 5024TIP3    H136563   6.505   4.185  13.292  1.4647 -1.4955  0.9426
 5024TIP3    H236564   6.392   4.239  13.378  0.0078  0.6007 -2.1161
 5025TIP3   OH236565   5.377   2.727   3.857 -0.1858  0.1112  0.6294
 5025TIP3    H136566   5.343   2.702   3.771 -2.4262  0.2798  1.4197
 5025TIP3    H236567   5.424   2.649   3.887  0.2045 -0.1237 -0.5131
 5026TIP3   OH236568   2.572   6.803  13.235  0.1784  0.3946  0.9162
 5026TIP3    H136569   2.625   6.815  13.314 -1.6851 -2.8852  2.9096
 5026TIP3    H236570   2.622   6.743  13.180 -1.5187 -3.5984  3.2882
 5027TIP3   OH236571   3.653   5.231  13.581 -0.4071  0.2635  0.0486
 5027TIP3    H136572   3.708   5.308  13.571 -0.6511  0.3652 -0.6067
 5027TIP3    H236573   3.603   5.246  13.661 -0.1163  0.5690  0.1733
 5028TIP3   OH236574   4.884   2.792   3.355 -0.2479 -0.0019  0.3287
 5028TIP3    H136575   4.881   2.738   3.276  1.7471  0.4058 -0.0718
 5028TIP3    H236576   4.851   2.877   3.327 -0.5514 -0.1594  0.2050
 5029TIP3   OH236577   0.904   0.980   1.384 -0.0701  0.1719  0.2997
 5029TIP3    H136578   0.914   1.036   1.461  2.8854 -0.0878  0.2381
 5029TIP3    H236579   0.965   1.016   1.320  1.5412 -2.6727  0.0562
 5030TIP3   OH236580   3.322   1.966   0.477 -0.3247 -0.7522 -0.0020
 5030TIP3    H136581   3.257   2.033   0.456 -0.5285 -0.3856  1.6771
 5030TIP3    H236582   3.382   1.968   0.403 -1.5489 -0.2650 -1.0326
 5031TIP3   OH236583   1.188   0.341   9.869  0.1345 -0.0161  0.1174
 5031TIP3    H136584   1.235   0.316   9.790  0.1667  0.3257  0.0287
 5031TIP3    H236585   1.207   0.270   9.931  1.6112  0.6111  0.4274
 5032TIP3   OH236586   2.174   3.060   0.258  0.6801  0.2966  0.6481
 5032TIP3    H136587   2.235   3.128   0.285  0.4144  0.3550  1.1101
 5032TIP3    H236588   2.229   2.983   0.244  0.9822  0.6002  0.1056
 5033TIP3   OH236589   5.770   0.214  12.170 -0.2768 -0.4467  0.2462
 5033TIP3    H136590   5.718   0.288  12.202  0.0190 -0.0985 -0.0604
 5033TIP3    H236591   5.786   0.235  12.078 -0.4383 -1.0389  0.0794
 5034TIP3   OH236592   0.885   0.211  14.575  0.5321 -0.2918  0.1906
 5034TIP3    H136593   0.949   0.265  14.622 -0.5496 -0.4558  1.9675
 5034TIP3    H236594   0.827   0.274  14.533 -0.5597  0.0236  2.0283
 5035TIP3   OH236595   0.420   4.405  11.595 -0.3994  0.3101 -0.0786
 5035TIP3    H136596   0.391   4.482  11.644  1.5226  1.3431 -0.4729
 5035TIP3    H236597   0.346   4.385  11.537 -1.4229  1.0610  0.9107
 5036TIP3   OH236598   3.063   3.365  13.397  0.0541  0.2036  0.4003
 5036TIP3    H136599   3.112   3.353  13.479 -0.2549 -3.0943  0.2337
 5036TIP3    H236600   3.130   3.390  13.333  0.8660 -0.3876  0.9993
 5037TIP3   OH236601   0.005   6.509   3.855 -0.3498  0.2674 -0.5554
 5037TIP3    H136602  -0.010   6.424   3.898 -0.1599  0.9078  0.8468
 5037TIP3    H236603  -0.025   6.573   3.919  3.2740  1.4273  0.1991
 5038TIP3   OH236604   4.568   3.458  10.609 -0.3238  0.1399  0.0149
 5038TIP3    H136605   4.577   3.370  10.572 -2.8115  0.0083 -0.4528
 5038TIP3    H236606   4.564   3.444  10.703 -0.1417 -0.1802 -0.0233
 5039TIP3   OH236607   6.511   4.592   1.252 -1.0215 -0.0655  0.1182
 5039TIP3    H136608   6.528   4.587   1.346 -0.0750 -1.0687 -0.0820
 5039TIP3    H236609   6.417   4.574   1.244 -1.5069  1.7785  0.9718
 5040TIP3   OH236610   3.007   5.190  12.235  0.2317 -0.4269  0.6489
 5040TIP3    H136611   3.012   5.204  12.329  1.2759  0.0080  0.5320
 5040TIP3    H236612   2.947   5.115  12.226 -1.5206  0.8047  1.5284
 5041TIP3   OH236613   2.188   3.504  13.889  0.8580 -0.6553  0.1633
 5041TIP3    H136614   2.149   3.424  13.854 -0.5494 -0.6169  1.5193
 5041TIP3    H236615   2.278   3.504  13.856  0.4184 -1.9974 -1.1077
 5042TIP3   OH236616   3.855   6.493  13.274  0.3785  0.8052  0.2338
 5042TIP3    H136617   3.808   6.419  13.237  1.8128 -0.6741  1.2092
 5042TIP3    H236618   3.922   6.514  13.209  0.2357  0.9618  0.1386
 5043TIP3   OH236619   0.811   5.527   0.884  0.0177 -0.3583 -0.2390
 5043TIP3    H136620   0.875   5.553   0.950 -0.7145  0.8264  0.0203
 5043TIP3    H236621   0.773   5.445   0.918  1.0352 -0.8189 -0.1724
 5044TIP3   OH236622   1.116   1.408   9.232 -0.1786  1.0593  1.1262
 5044TIP3    H136623   1.148   1.381   9.146 -0.4625  0.1018  1.3076
 5044TIP3    H236624   1.041   1.465   9.213  0.4899  1.8413  0.7330
 5045TIP3   OH236625   0.150   7.191  14.426 -0.2066 -0.3286 -0.2800
 5045TIP3    H136626   0.210   7.146  14.485 -1.0639 -0.5348  0.4515
 5045TIP3    H236627   0.067   7.144  14.436 -1.3747  1.8815  1.1255
 5046TIP3   OH236628   4.174   6.886  14.271 -0.2334  0.3583  0.0743
 5046TIP3    H136629   4.220   6.860  14.191  1.4208  2.3094  0.3201
 5046TIP3    H236630   4.089   6.917  14.241 -0.4125 -0.8229 -0.6930
 5047TIP3   OH236631   4.958   1.139  12.811 -0.2203 -0.7229 -0.0276
 5047TIP3    H136632   4.933   1.127  12.902 -2.9715 -0.4351 -0.6440
 5047TIP3    H236633   4.940   1.054  12.770  0.4168 -0.6766 -0.4068
 5048TIP3   OH236634   3.678   1.336  12.139  0.0770 -0.8324  0.5138
 5048TIP3    H136635   3.593   1.292  12.137  0.6747 -2.0669 -1.9637
 5048TIP3    H236636   3.740   1.269  12.111  1.3665  0.9376 -1.1529
 5049TIP3   OH236637   1.266   3.471  14.367 -0.2296 -0.4635  0.2346
 5049TIP3    H136638   1.200   3.436  14.307  2.4719  1.4914 -4.3536
 5049TIP3    H236639   1.326   3.399  14.382 -0.2106 -0.6127 -0.5496
 5050TIP3   OH236640   6.073   4.844   4.270  0.0942  0.2348  0.7279
 5050TIP3    H136641   6.096   4.872   4.359  0.2996 -1.2392  1.1561
 5050TIP3    H236642   6.015   4.913   4.238  0.5573  1.1370  1.7415
 5051TIP3   OH236643   2.245   5.594   0.456 -0.1344  0.3870 -0.8980
 5051TIP3    H136644   2.288   5.579   0.540 -2.7706  0.1161  0.5223
 5051TIP3    H236645   2.288   5.533   0.396  2.3104  1.0997  0.0101
 5052TIP3   OH236646   0.209   3.639   9.854  0.5273 -0.2806 -0.2390
 5052TIP3    H136647   0.125   3.596   9.871 -0.3467  2.1064  2.2471
 5052TIP3    H236648   0.198   3.681   9.769  0.2990 -2.3341 -1.2579
 5053TIP3   OH236649   0.896   3.688  15.087 -0.0501  0.0885  0.4401
 5053TIP3    H136650   0.876   3.613  15.031  1.3380 -0.6457  0.8607
 5053TIP3    H236651   0.918   3.758  15.026  0.9240 -0.5478  0.0151
 5054TIP3   OH236652   6.574   0.424  12.258  0.3115  0.0086 -0.0139
 5054TIP3    H136653   6.610   0.338  12.233  1.5425  0.5352 -0.1290
 5054TIP3    H236654   6.614   0.442  12.344 -2.3408 -0.8920  1.5279
 5055TIP3   OH236655   0.504   2.663  11.293 -0.2178  0.2824  0.1204
 5055TIP3    H136656   0.569   2.646  11.362 -0.2178 -2.4169 -0.4454
 5055TIP3    H236657   0.556   2.676  11.214 -0.3090 -0.8326 -0.1353
 5056TIP3   OH236658   5.650   4.222  15.139  0.1009  0.0021  0.1805
 5056TIP3    H136659   5.698   4.247  15.218 -0.6297 -1.4651  1.1378
 5056TIP3    H236660   5.702   4.152  15.100  1.0489  1.4564 -1.3244
 5057TIP3   OH236661   6.261   3.674  14.633  0.5212 -0.3088 -0.2329
 5057TIP3    H136662   6.187   3.662  14.693  0.4227  1.3431  0.0209
 5057TIP3    H236663   6.250   3.763  14.599  1.8180 -0.4171 -1.0002
 5058TIP3   OH236664   7.038   3.565  11.638 -0.2518  0.5946  0.4782
 5058TIP3    H136665   7.126   3.528  11.651 -0.3070  0.9309  2.0355
 5058TIP3    H236666   7.006   3.524  11.558 -0.1723 -2.5335  1.8981
 5059TIP3   OH236667   1.955   0.568  14.827 -0.4055  0.1449 -0.2766
 5059TIP3    H136668   1.916   0.484  14.850  1.5770 -0.9772 -0.8748
 5059TIP3    H236669   1.997   0.598  14.908  0.0427 -0.1118 -0.4102
 5060TIP3   OH236670   0.352   5.966   9.944 -0.2763 -0.0210  0.4050
 5060TIP3    H136671   0.443   5.967   9.973  0.3377  1.2136 -1.3749
 5060TIP3    H236672   0.350   5.900   9.875 -0.9064 -0.4952  0.8625
 5061TIP3   OH236673   0.947   4.659  12.353 -0.0517 -0.2749 -0.0950
 5061TIP3    H136674   0.960   4.745  12.393 -2.2148  1.5458 -2.9119
 5061TIP3    H236675   0.879   4.617  12.407 -1.2698  1.1648 -0.4420
 5062TIP3   OH236676   1.680   1.651  10.591  0.8447  0.3529  0.0882
 5062TIP3    H136677   1.736   1.609  10.656 -1.6540 -2.0973  0.8711
 5062TIP3    H236678   1.654   1.734  10.631 -0.6561 -1.1143  2.3881
 5063TIP3   OH236679   2.118   7.226   0.164 -0.3340 -0.0350 -0.4014
 5063TIP3    H136680   2.195   7.173   0.185 -0.4552  0.3685  1.1886
 5063TIP3    H236681   2.045   7.180   0.205 -0.4307  1.3527  1.0903
 5064TIP3   OH236682   2.735   5.311   3.471 -0.2645  0.2964 -0.2457
 5064TIP3    H136683   2.648   5.339   3.497 -1.2717 -2.1209 -0.7216
 5064TIP3    H236684   2.776   5.280   3.552 -0.4526 -0.0369 -0.2780
 5065TIP3   OH236685   6.284   3.779  12.177  0.1032 -0.0087 -0.0482
 5065TIP3    H136686   6.243   3.855  12.136 -0.3982  0.3941  1.1684
 5065TIP3    H236687   6.371   3.810  12.203 -0.2626  0.2823  0.8381
 5066TIP3   OH236688   5.447   7.065  12.875 -0.4188 -0.4361 -0.4585
 5066TIP3    H136689   5.534   7.049  12.912  0.3105  0.9142 -1.5140
 5066TIP3    H236690   5.416   7.144  12.919 -0.9944 -0.7373 -0.3114
 5067TIP3   OH236691   5.003   4.911  13.640 -0.4095 -0.2699 -0.2189
 5067TIP3    H136692   5.097   4.926  13.652 -0.3447 -1.0870  0.4250
 5067TIP3    H236693   4.993   4.816  13.652 -1.3292 -0.1676 -0.1565
 5068TIP3   OH236694   4.539   5.667  13.115  0.3296 -0.1670 -0.1682
 5068TIP3    H136695   4.615   5.698  13.066 -0.4967 -0.1165 -1.4571
 5068TIP3    H236696   4.480   5.632  13.049  0.2432 -2.4732  1.0233
 5069TIP3   OH236697   6.358   3.302   2.784 -0.4480 -0.0586 -0.2505
 5069TIP3    H136698   6.396   3.376   2.834 -0.1478  0.0079 -0.5749
 5069TIP3    H236699   6.430   3.239   2.777 -0.1364  0.4175 -1.5753
 5070TIP3   OH236700   3.574   1.569  14.527 -0.0686  0.0278 -0.0930
 5070TIP3    H136701   3.609   1.507  14.463 -0.2251  0.6764 -0.8349
 5070TIP3    H236702   3.633   1.565  14.601 -0.8603 -2.0452  0.4753
 5071TIP3   OH236703   1.802   5.994  13.047 -0.2051 -0.4298  0.7279
 5071TIP3    H136704   1.823   5.996  12.953 -1.5984 -0.6134  0.3862
 5071TIP3    H236705   1.877   6.035  13.089 -0.9883  2.9577 -0.7841
 5072TIP3   OH236706   0.359   1.547   3.260  0.1269  0.4642  0.3495
 5072TIP3    H136707   0.394   1.604   3.192  0.1842 -0.5327 -0.4839
 5072TIP3    H236708   0.275   1.518   3.226  0.1802 -0.0929  0.6813
 5073TIP3   OH236709   4.802   5.897  10.583  0.1908  0.2343  0.1457
 5073TIP3    H136710   4.820   5.926  10.672  0.7095  0.2469  0.0392
 5073TIP3    H236711   4.824   5.973  10.528  0.0696  0.1574 -0.0096
 5074TIP3   OH236712   4.245   5.990  10.714  0.2232 -0.1162  0.3308
 5074TIP3    H136713   4.238   5.992  10.618 -0.4756 -0.7004  0.3684
 5074TIP3    H236714   4.155   5.999  10.745  0.1737 -2.1505  0.9006
 5075TIP3   OH236715   5.751   4.531   9.735 -0.2928 -0.3178 -0.0409
 5075TIP3    H136716   5.689   4.492   9.674  1.0162 -0.3890 -1.3841
 5075TIP3    H236717   5.775   4.614   9.695  0.9443 -0.5813  0.1112
 5076TIP3   OH236718   2.692   5.189   9.972 -1.0690  0.8090  0.1162
 5076TIP3    H136719   2.675   5.268  10.023  0.3822  2.7714 -2.2462
 5076TIP3    H236720   2.630   5.193   9.899 -2.3419 -1.3680  0.9523
 5077TIP3   OH236721   2.392   3.219  12.247 -0.5216  0.0423 -0.1247
 5077TIP3    H136722   2.469   3.272  12.225  0.8746 -1.2809  1.2904
 5077TIP3    H236723   2.317   3.274  12.224  0.8476  1.8002 -0.5912
 5078TIP3   OH236724   6.553   1.473  10.679  0.4020  0.0866 -0.1828
 5078TIP3    H136725   6.513   1.453  10.595 -0.2918 -0.7721  0.3322
 5078TIP3    H236726   6.588   1.561  10.669  0.9266 -0.2622 -1.5823
 5079TIP3   OH236727   3.128   5.592  10.262 -0.0189  0.1328 -0.0543
 5079TIP3    H136728   3.110   5.502  10.235  1.4519 -0.3732  0.5444
 5079TIP3    H236729   3.168   5.633  10.185  1.4063 -0.4242  0.3574
 5080TIP3   OH236730   6.165   3.900  15.054 -0.8381 -1.1890 -0.0932
 5080TIP3    H136731   6.088   3.929  15.005 -1.3353  0.3174  1.5130
 5080TIP3    H236732   6.145   3.920  15.145 -0.2300 -4.5136  0.9047
 5081TIP3   OH236733   5.512   1.196  13.875  0.0592 -0.0830 -0.3550
 5081TIP3    H136734   5.442   1.245  13.832  0.1154  0.3031 -0.0135
 5081TIP3    H236735   5.565   1.263  13.918  1.2173 -0.2881 -1.4226
 5082TIP3   OH236736   3.535   2.676   0.531 -0.6011 -0.0757  0.4363
 5082TIP3    H136737   3.596   2.618   0.486  0.0970  0.7818  0.2547
 5082TIP3    H236738   3.502   2.623   0.604  1.4461 -0.1038  1.4031
 5083TIP3   OH236739   6.709   0.815   1.042  0.2530  0.3594  0.3253
 5083TIP3    H136740   6.714   0.747   1.109  0.6675  0.5955  0.5375
 5083TIP3    H236741   6.647   0.781   0.978  0.3837 -0.1770  0.4783
 5084TIP3   OH236742   3.217   0.579  12.668 -0.2674 -0.2176 -0.2686
 5084TIP3    H136743   3.150   0.616  12.610  0.6232 -1.1504 -1.9822
 5084TIP3    H236744   3.249   0.502  12.621  0.6661 -0.8995  1.3975
 5085TIP3   OH236745   5.216   7.229   2.621  0.0535  0.0276  0.0923
 5085TIP3    H136746   5.221   7.144   2.665 -1.3616 -0.8121 -1.2398
 5085TIP3    H236747   5.149   7.277   2.671 -0.5322 -0.3875 -0.2773
 5086TIP3   OH236748   5.250   3.796   2.844 -0.1394 -0.2477  0.1493
 5086TIP3    H136749   5.191   3.820   2.916 -1.1960  0.5195 -0.9177
 5086TIP3    H236750   5.191   3.766   2.775  0.8132 -0.4865 -0.5657
 5087TIP3   OH236751   7.143   5.891  12.404 -0.0403  0.1095  0.4303
 5087TIP3    H136752   7.071   5.902  12.466  0.0927  1.0051  0.4406
 5087TIP3    H236753   7.222   5.896  12.458  0.1326  2.2313  0.0700
 5088TIP3   OH236754   2.001   3.859  13.489  0.2289 -0.2998 -0.2298
 5088TIP3    H136755   1.987   3.773  13.449  1.5825 -0.0962 -1.1855
 5088TIP3    H236756   1.915   3.883  13.525  0.1405 -2.6947  1.3894
 5089TIP3   OH236757   3.537   1.213   2.838 -0.2313  1.1138  0.6752
 5089TIP3    H136758   3.531   1.123   2.868  1.4217  0.8393  0.2967
 5089TIP3    H236759   3.518   1.208   2.744  0.2476  1.0937  0.5778
 5090TIP3   OH236760   1.986   0.891  11.248  0.2140  0.0804 -0.3098
 5090TIP3    H136761   1.929   0.960  11.283  0.7181  0.1060  0.4877
 5090TIP3    H236762   1.945   0.866  11.165  0.3667  1.8099 -0.9593
 5091TIP3   OH236763   4.805   3.869  11.100  0.1666  0.0650  0.3245
 5091TIP3    H136764   4.799   3.784  11.055  1.2383 -0.7016  1.5769
 5091TIP3    H236765   4.735   3.867  11.165 -0.8170  0.8132 -0.6763
 5092TIP3   OH236766   3.276   2.764  10.512  0.7921 -0.1200  0.1257
 5092TIP3    H136767   3.251   2.837  10.569 -0.7828  0.2068 -0.9160
 5092TIP3    H236768   3.266   2.798  10.424 -0.1841 -1.6362 -0.3881
 5093TIP3   OH236769   1.465   3.307  13.027 -0.2423 -0.4745  0.1868
 5093TIP3    H136770   1.418   3.261  12.957 -1.0299 -0.2746  0.5760
 5093TIP3    H236771   1.430   3.395  13.026  0.4571 -0.1849  0.1942
 5094TIP3   OH236772   2.342   2.875   0.372 -0.0673 -0.6616  0.1188
 5094TIP3    H136773   2.289   2.795   0.368 -0.8112 -0.2508  1.2884
 5094TIP3    H236774   2.294   2.933   0.430  1.4145 -0.0696  0.8109
 5095TIP3   OH236775   3.473   0.099  11.186  0.0694  0.7096  0.2312
 5095TIP3    H136776   3.437   0.029  11.130 -0.1168  1.2612 -0.3461
 5095TIP3    H236777   3.409   0.108  11.256  0.3394 -0.0371  0.5821
 5096TIP3   OH236778   3.427   4.024  10.348  0.0475  0.5033  0.2653
 5096TIP3    H136779   3.367   3.960  10.311 -0.2144 -0.4866  2.2589
 5096TIP3    H236780   3.409   4.022  10.442  1.9118  1.5382  0.6930
 5097TIP3   OH236781   6.156   4.905   3.319  0.5141  0.0962  0.3017
 5097TIP3    H136782   6.068   4.870   3.310  0.3341  0.4960  0.5322
 5097TIP3    H236783   6.165   4.926   3.412 -0.1588  2.7301 -0.1535
 5098TIP3   OH236784   1.959   4.490  10.368  0.4181 -0.4961 -0.3672
 5098TIP3    H136785   1.912   4.408  10.377 -0.0865 -0.2074 -0.3092
 5098TIP3    H236786   2.049   4.470  10.393 -0.1258 -0.5814  1.7300
 5099TIP3   OH236787   0.338   1.566  11.560 -0.0908 -0.4153 -0.0629
 5099TIP3    H136788   0.257   1.538  11.603  0.4782  0.0842  1.4254
 5099TIP3    H236789   0.407   1.518  11.607  0.6250  0.8140  0.1789
 5100TIP3   OH236790   5.370   5.338  10.088  0.6743 -1.2730  0.6456
 5100TIP3    H136791   5.319   5.267  10.127 -2.2239  0.2188 -0.1601
 5100TIP3    H236792   5.423   5.372  10.160  0.0589 -2.4697  1.6970
 5101TIP3   OH236793   7.250   4.132  14.658  0.2141 -0.1995  0.3847
 5101TIP3    H136794   7.234   4.061  14.720  1.7909 -0.7959  0.1699
 5101TIP3    H236795   7.321   4.183  14.698  0.0280  0.4670 -0.1066
 5102TIP3   OH236796   7.078   0.800  12.944  0.2148 -0.5005  0.7101
 5102TIP3    H136797   7.079   0.893  12.921  3.0164 -0.0578  2.1706
 5102TIP3    H236798   7.033   0.758  12.871 -0.4673  1.9039 -0.3514
 5103TIP3   OH236799   1.575   3.893  11.017  0.3738  0.6248 -0.2112
 5103TIP3    H136800   1.503   3.834  10.994 -0.0166  1.3299 -0.8472
 5103TIP3    H236801   1.535   3.957  11.077  0.4898  0.9558 -0.4835
 5104TIP3   OH236802   0.057   0.728  12.827  0.3353  0.0002  0.2742
 5104TIP3    H136803   0.105   0.792  12.775  1.6852 -1.7693 -0.7625
 5104TIP3    H236804  -0.013   0.779  12.869  1.2070  2.0804 -0.6576
 5105TIP3   OH236805   0.396   4.750  13.206  0.1286 -0.4909 -0.5119
 5105TIP3    H136806   0.443   4.739  13.124  2.7091  0.6108  0.7233
 5105TIP3    H236807   0.313   4.792  13.181  0.3338 -1.2454 -2.6316
 5106TIP3   OH236808   3.259   1.537   0.207  0.3430 -0.2562  0.0196
 5106TIP3    H136809   3.331   1.568   0.262 -0.2849 -0.0425  0.7381
 5106TIP3    H236810   3.182   1.541   0.264 -0.3729  0.2225 -0.9495
 5107TIP3   OH236811   3.152   5.072   0.501 -0.5044  0.2108  0.3567
 5107TIP3    H136812   3.200   5.020   0.565 -2.4680 -0.7171  1.1846
 5107TIP3    H236813   3.063   5.077   0.537 -1.1008  1.6522 -1.1866
 5108TIP3   OH236814   0.073   3.844   2.050 -0.8415  0.4394  0.4505
 5108TIP3    H136815   0.068   3.924   1.997 -0.4642 -0.0157 -0.3035
 5108TIP3    H236816   0.055   3.773   1.988 -1.1145 -0.0667  1.0948
 5109TIP3   OH236817   4.356   6.308   1.442  0.1927  0.3261  0.0871
 5109TIP3    H136818   4.376   6.283   1.352  0.3975  0.3750  0.1189
 5109TIP3    H236819   4.264   6.283   1.454  0.2767 -0.0361 -0.0111
 5110TIP3   OH236820   3.443   4.488   0.298  0.1535 -0.2727  0.4199
 5110TIP3    H136821   3.460   4.528   0.383  0.0815  0.7254 -0.0178
 5110TIP3    H236822   3.521   4.509   0.246  0.4250 -1.3190  0.3881
 5111TIP3   OH236823   5.466   0.808   1.215  0.0461 -0.6695  0.3760
 5111TIP3    H136824   5.477   0.736   1.277 -0.7524 -1.0497  0.0938
 5111TIP3    H236825   5.410   0.871   1.262 -0.5169 -0.9341  0.0767
 5112TIP3   OH236826   4.901   0.854  12.392  0.2215 -0.2120 -0.0671
 5112TIP3    H136827   4.959   0.815  12.326  1.1624  1.9361 -0.5729
 5112TIP3    H236828   4.890   0.945  12.364 -0.0571  0.5415  2.2991
 5113TIP3   OH236829   6.089   3.785   1.456 -0.5895  0.9023  0.4967
 5113TIP3    H136830   6.088   3.690   1.443  1.4302  0.9601 -0.4816
 5113TIP3    H236831   6.041   3.820   1.381 -0.5700  0.6951  0.3863
 5114TIP3   OH236832   4.733   4.361  12.635  0.6572  0.4151  0.3740
 5114TIP3    H136833   4.749   4.280  12.587  1.3957  0.4556  0.5453
 5114TIP3    H236834   4.638   4.364  12.646  0.7102 -1.0088  1.3754
 5115TIP3   OH236835   0.869   4.499  11.329  0.1581 -0.5721  0.2088
 5115TIP3    H136836   0.847   4.560  11.258  0.4868 -0.7168 -0.0227
 5115TIP3    H236837   0.785   4.480  11.371  0.0107 -0.1908  0.0964
 5116TIP3   OH236838   3.236   3.023  14.960  0.1385  0.1296 -0.7718
 5116TIP3    H136839   3.310   3.026  14.900  0.3341 -0.2815 -0.5519
 5116TIP3    H236840   3.273   2.991  15.042 -0.4687 -1.0355 -0.9348
 5117TIP3   OH236841   5.090   4.513  11.696  0.3174  0.0832 -0.2667
 5117TIP3    H136842   5.099   4.573  11.621 -3.1484 -0.4260 -1.2943
 5117TIP3    H236843   5.036   4.561  11.758 -0.9268 -1.2401 -0.2842
 5118TIP3   OH236844   0.188   6.724   0.939  0.0175  0.4674  0.4764
 5118TIP3    H136845   0.102   6.763   0.925 -0.3419 -0.4875 -0.1048
 5118TIP3    H236846   0.242   6.760   0.869 -0.3266 -0.1001 -0.0929
 5119TIP3   OH236847   3.567   3.499   0.819  0.3646  0.3057  0.2704
 5119TIP3    H136848   3.590   3.408   0.834 -0.4400 -0.4048 -2.3148
 5119TIP3    H236849   3.582   3.542   0.904  2.3362 -1.8533  1.1230
 5120TIP3   OH236850   1.045   0.548   9.815 -0.3896 -0.3152  0.0575
 5120TIP3    H136851   1.001   0.593   9.888 -0.2486  0.0953 -0.1063
 5120TIP3    H236852   1.091   0.475   9.856 -0.5369 -0.2481  0.3455
 5121TIP3   OH236853   1.541   2.314  13.926  0.2714 -0.3168  0.8728
 5121TIP3    H136854   1.445   2.316  13.924  0.2997  1.3334 -0.4666
 5121TIP3    H236855   1.565   2.376  13.995  0.4004 -1.0599  1.5170
 5122TIP3   OH236856   6.209   3.386  12.356  0.2763  0.2600  0.5167
 5122TIP3    H136857   6.294   3.360  12.391 -0.4415  0.0711  2.1802
 5122TIP3    H236858   6.216   3.480  12.345  1.3539  0.0320 -1.2970
 5123TIP3   OH236859   6.445   1.798   0.098  0.1913 -0.5020  0.4276
 5123TIP3    H136860   6.358   1.834   0.081 -0.4412 -1.6961  1.0310
 5123TIP3    H236861   6.488   1.865   0.152 -0.0950  0.3815 -0.4034
 5124TIP3   OH236862   0.803   2.425  10.970 -0.2550  0.7560  0.0059
 5124TIP3    H136863   0.848   2.509  10.969  0.8172  0.2030  0.6581
 5124TIP3    H236864   0.825   2.386  10.886  1.4031  0.0406  0.7297
 5125TIP3   OH236865   6.067   6.856   5.460 -0.0692  0.0800 -0.1953
 5125TIP3    H136866   6.120   6.921   5.506 -0.0281 -0.3366  0.3631
 5125TIP3    H236867   6.130   6.798   5.418  0.0132 -1.2391  1.5992
 5126TIP3   OH236868   3.041   2.702  11.463  0.1852  0.8521 -0.3881
 5126TIP3    H136869   2.968   2.764  11.455 -1.2498 -0.5608  1.1413
 5126TIP3    H236870   3.021   2.633  11.400  0.5279  0.7156 -0.3522
 5127TIP3   OH236871   5.608   2.273  12.092 -0.0871  0.5413 -0.1155
 5127TIP3    H136872   5.536   2.328  12.125  0.7746  0.5356  1.9154
 5127TIP3    H236873   5.610   2.291  11.998 -2.2164  1.1529 -0.1075
 5128TIP3   OH236874   5.858   5.471  11.170 -0.0314 -0.3459  0.6306
 5128TIP3    H136875   5.783   5.514  11.131 -0.4789 -0.6036  1.1898
 5128TIP3    H236876   5.924   5.470  11.101 -0.3799  0.2874  0.2829
 5129TIP3   OH236877   5.674   4.472  12.293 -0.2208  0.3702 -0.0582
 5129TIP3    H136878   5.606   4.518  12.342 -1.2945 -1.3367  0.1454
 5129TIP3    H236879   5.627   4.429  12.221  0.2369 -2.3862  1.1534
 5130TIP3   OH236880   5.660   4.993  11.537 -0.2664 -0.4530 -0.4172
 5130TIP3    H136881   5.713   5.058  11.582 -1.8210  0.6960 -0.1806
 5130TIP3    H236882   5.599   4.961  11.604  0.0747 -1.7335 -0.6875
 5131TIP3   OH236883   6.803   3.461  11.233 -0.4429 -0.5182  0.2126
 5131TIP3    H136884   6.773   3.551  11.243  0.9879 -0.0684  0.8264
 5131TIP3    H236885   6.816   3.450  11.139  1.2419  0.6026  0.2726
 5132TIP3   OH236886   0.312   4.106  11.558 -0.2701 -0.0213  0.1885
 5132TIP3    H136887   0.395   4.068  11.586  0.1408  1.2440  0.7551
 5132TIP3    H236888   0.331   4.199  11.544 -1.6210  0.3258  0.4527
 5133TIP3   OH236889   2.509   2.399  11.978 -0.8632  0.7288 -0.0603
 5133TIP3    H136890   2.494   2.306  11.993 -0.5594  0.4323 -1.4814
 5133TIP3    H236891   2.526   2.435  12.066 -0.3334 -0.6645  0.4299
 5134TIP3   OH236892   1.166   1.531  13.581 -0.1216  0.1430 -0.1340
 5134TIP3    H136893   1.230   1.471  13.543 -1.1642 -0.5883 -0.8134
 5134TIP3    H236894   1.083   1.484  13.574 -0.6044  0.6487  1.6250
 5135TIP3   OH236895   4.627   5.250  11.081 -0.3947 -0.0957  0.1248
 5135TIP3    H136896   4.670   5.186  11.023  0.1660  1.4583 -1.2650
 5135TIP3    H236897   4.538   5.216  11.092 -1.0830  0.3382 -3.0930
 5136TIP3   OH236898   6.616   3.391  14.105  0.0108  0.4491 -0.6325
 5136TIP3    H136899   6.614   3.459  14.173 -2.0831 -0.3321  0.1576
 5136TIP3    H236900   6.526   3.388  14.072 -0.0798 -2.2309 -0.3202
 5137TIP3   OH236901   0.395   5.690  11.417  0.2812  0.5187  0.2164
 5137TIP3    H136902   0.418   5.704  11.325  0.1077 -0.3241  0.0286
 5137TIP3    H236903   0.397   5.777  11.457 -2.3212  1.3309 -1.2015
 5138TIP3   OH236904   6.098   4.519  12.543  0.1679 -0.3002 -0.4583
 5138TIP3    H136905   6.017   4.479  12.511 -0.8042  1.9045 -0.9546
 5138TIP3    H236906   6.140   4.450  12.593 -2.0174 -1.5472 -0.1947
 5139TIP3   OH236907   5.000   2.402  12.889 -0.3886 -0.0425 -0.2189
 5139TIP3    H136908   5.046   2.404  12.973 -0.5943  0.2769 -0.1112
 5139TIP3    H236909   5.041   2.472  12.837  0.6118 -1.0567 -0.8621
 5140TIP3   OH236910   0.972   4.161  10.039  0.3886 -0.8143  0.4125
 5140TIP3    H136911   0.990   4.255  10.036 -0.8830 -0.5623 -0.0906
 5140TIP3    H236912   0.972   4.134   9.948  1.8214 -1.5567  0.6007
 5141TIP3   OH236913   0.735   3.897   1.134  0.5211  0.3572  0.5233
 5141TIP3    H136914   0.689   3.865   1.056 -0.1481  1.0555  0.6223
 5141TIP3    H236915   0.739   3.992   1.122 -0.2189  0.5570  1.6681
 5142TIP3   OH236916   6.717   5.394  10.640  0.1562 -0.4757  0.6060
 5142TIP3    H136917   6.769   5.466  10.605 -1.1496  0.8891  1.3461
 5142TIP3    H236918   6.769   5.316  10.622  0.9790  0.4779 -1.4912
 5143TIP3   OH236919   2.464   5.010  14.453 -0.2476  0.5189  0.4761
 5143TIP3    H136920   2.517   4.933  14.473 -1.0919  0.1914  1.5589
 5143TIP3    H236921   2.378   4.975  14.433 -0.5068  1.1454  0.4716
 5144TIP3   OH236922   5.926   1.683  10.978 -0.0675  0.0939  0.3545
 5144TIP3    H136923   5.992   1.664  10.911  0.9058  0.1404  1.2729
 5144TIP3    H236924   5.954   1.632  11.054 -1.0436  0.1978  0.7866
 5145TIP3   OH236925   0.955   5.645  13.759  0.1352  0.7266 -0.3510
 5145TIP3    H136926   0.913   5.607  13.836 -0.7686  0.7429 -0.8218
 5145TIP3    H236927   1.047   5.655  13.785  0.0185 -0.0236  0.4351
 5146TIP3   OH236928   1.635   1.910   3.048 -0.0657 -0.0458 -0.0720
 5146TIP3    H136929   1.647   2.004   3.063  0.4297 -0.3058  1.2499
 5146TIP3    H236930   1.578   1.905   2.971 -0.4443  1.3375  0.1040
 5147TIP3   OH236931   4.355   6.363   1.089 -0.3484  0.4834  0.1475
 5147TIP3    H136932   4.339   6.453   1.118  1.5947  0.5728  1.0969
 5147TIP3    H236933   4.397   6.372   1.004 -0.0050  0.4861  0.3163
 5148TIP3   OH236934   3.787   0.711   9.365 -0.0218  0.0934  0.7833
 5148TIP3    H136935   3.846   0.644   9.397 -0.2949 -0.6488 -0.2099
 5148TIP3    H236936   3.702   0.689   9.403 -0.5237 -1.2530 -0.9600
 5149TIP3   OH236937   3.084   3.879  14.030 -0.5688  0.2922  0.4370
 5149TIP3    H136938   3.108   3.802  14.081  3.0805  0.6161 -0.4901
 5149TIP3    H236939   3.060   3.844  13.944 -1.3237  0.0662  0.7358
 5150TIP3   OH236940   0.606   0.182  11.989  0.1260 -0.4601  0.1225
 5150TIP3    H136941   0.533   0.121  11.976  1.0448 -1.4496 -0.4971
 5150TIP3    H236942   0.655   0.177  11.907  1.0258  0.0182  0.6312
 5151TIP3   OH236943   1.112   3.812  15.273 -0.0786  0.3676 -0.5395
 5151TIP3    H136944   1.073   3.748  15.213 -0.0747 -1.1327  0.9989
 5151TIP3    H236945   1.207   3.800  15.262 -0.0717 -0.5260  0.3560
 5152TIP3   OH236946   5.526   4.920   9.604  0.7000  0.7205  0.8796
 5152TIP3    H136947   5.438   4.917   9.568  1.5513  2.1907 -1.5693
 5152TIP3    H236948   5.571   4.844   9.566  1.1805  1.4042  0.0653
 5153TIP3   OH236949   1.442   6.552   0.101  0.0488  0.0098  0.4237
 5153TIP3    H136950   1.483   6.629   0.060  0.3054 -0.3337  0.0309
 5153TIP3    H236951   1.351   6.580   0.117  0.4577  0.8394  1.4668
 5154TIP3   OH236952   1.900   4.531   2.492 -0.0235  0.2508 -0.2217
 5154TIP3    H136953   1.812   4.547   2.526  0.0404 -1.2451  0.7259
 5154TIP3    H236954   1.892   4.548   2.398 -2.1470 -2.7411 -0.7297
 5155TIP3   OH236955   1.848   4.306  14.465  0.3228  0.3889  0.6810
 5155TIP3    H136956   1.828   4.222  14.507  1.6776 -0.2190  0.1663
 5155TIP3    H236957   1.796   4.305  14.384  0.7576 -0.2256  0.3958
 5156TIP3   OH236958   7.195   3.273   9.980  0.5222 -0.1097  0.2172
 5156TIP3    H136959   7.209   3.185  10.013 -0.8799 -0.4762 -0.0788
 5156TIP3    H236960   7.211   3.266   9.886 -0.5434 -0.2989  0.0373
 5157TIP3   OH236961   5.926   4.768  12.675  0.5855 -0.2035 -0.1237
 5157TIP3    H136962   5.942   4.823  12.598  1.1562 -0.8645 -0.4926
 5157TIP3    H236963   6.003   4.713  12.681  0.1470 -0.7707  0.4114
 5158TIP3   OH236964   5.696   5.304  15.010 -0.6712  0.2758  0.2571
 5158TIP3    H136965   5.670   5.368  14.944 -0.3774 -0.8367 -0.9727
 5158TIP3    H236966   5.684   5.350  15.093 -1.4362  1.5779 -0.5314
 5159TIP3   OH236967   3.423   4.510  12.464  0.1902  0.7973  0.0637
 5159TIP3    H136968   3.342   4.484  12.419  1.4134 -1.3373 -1.0935
 5159TIP3    H236969   3.471   4.561  12.399 -0.1139  1.8980  0.6828
 5160TIP3   OH236970   0.589   4.946   1.435 -0.1567 -0.1672 -0.0595
 5160TIP3    H136971   0.575   4.864   1.387 -0.1810 -0.8495  1.0727
 5160TIP3    H236972   0.657   4.924   1.499  0.6537  1.0205 -0.4704
 5161TIP3   OH236973   7.208   6.630  11.413  0.2697  0.0571 -0.0772
 5161TIP3    H136974   7.284   6.577  11.436  0.9674  0.0583 -2.1891
 5161TIP3    H236975   7.133   6.576  11.439  0.9096  0.4385  2.8504
 5162TIP3   OH236976   4.388   3.951   3.278  0.2094 -0.3986 -0.1403
 5162TIP3    H136977   4.433   3.909   3.352  0.7701  1.6959  0.8020
 5162TIP3    H236978   4.459   3.986   3.224 -0.2111  0.7394  0.0080
 5163TIP3   OH236979   5.081   3.382  10.101 -0.2632 -0.3873 -0.5402
 5163TIP3    H136980   5.019   3.317  10.135 -0.7700  0.0202 -0.6827
 5163TIP3    H236981   5.042   3.411  10.018  0.3065 -0.4041 -0.8176
 5164TIP3   OH236982   1.921   7.161  15.189 -0.9596  0.9299  0.2176
 5164TIP3    H136983   1.890   7.230  15.130 -0.1269  0.4993 -0.7429
 5164TIP3    H236984   2.015   7.175  15.196 -1.0538  1.0660  1.6019
 5165TIP3   OH236985   6.870   0.253  10.845 -0.6091 -0.4476  0.1798
 5165TIP3    H136986   6.888   0.245  10.751 -1.1985 -0.5946  0.0772
 5165TIP3    H236987   6.828   0.171  10.869 -2.6751  0.5186  0.0451
 5166TIP3   OH236988   6.655   4.149  14.022  0.1969  0.2574 -0.1689
 5166TIP3    H136989   6.603   4.221  13.985 -1.4647 -0.3620  0.8659
 5166TIP3    H236990   6.691   4.185  14.103  0.5500  0.3520 -0.3640
 5167TIP3   OH236991   2.187   3.904  10.061  0.0083  0.5038 -0.4094
 5167TIP3    H136992   2.138   3.844  10.117 -1.1522  0.5621 -1.3198
 5167TIP3    H236993   2.214   3.849   9.987  0.1212  0.7896 -0.5806
 5168TIP3   OH236994   5.204   5.325   3.656  0.1758 -0.1491  0.5180
 5168TIP3    H136995   5.157   5.373   3.587 -1.3772 -1.6590  0.4537
 5168TIP3    H236996   5.135   5.283   3.707  1.3725 -0.3021  2.0907
 5169TIP3   OH236997   3.959   0.956  10.620  0.5554  0.0935  0.0282
 5169TIP3    H136998   4.021   1.014  10.664 -0.5258  1.0139  0.3772
 5169TIP3    H236999   4.006   0.872  10.613  2.4002  1.1427 -1.0764
 5170TIP3   OH237000   2.951   6.086  12.012  0.0542 -0.5459  0.2329
 5170TIP3    H137001   3.031   6.131  12.040 -0.6944  0.4671  0.8192
 5170TIP3    H237002   2.958   5.998  12.050  1.3305 -0.7980 -0.5413
 5171TIP3   OH237003   3.560   5.815   1.879  0.2758 -0.5873  0.2987
 5171TIP3    H137004   3.592   5.801   1.790  0.2523 -1.6512  0.4432
 5171TIP3    H237005   3.559   5.910   1.890  1.4895 -0.4747 -0.3921
 5172TIP3   OH237006   5.730   1.837   2.919  0.0246 -0.2905  0.3153
 5172TIP3    H137007   5.693   1.849   3.007 -1.0077 -2.6040  0.2633
 5172TIP3    H237008   5.686   1.759   2.885  0.8549  0.1934 -2.0372
 5173TIP3   OH237009   2.111   3.216  14.159 -0.3259 -0.6805  0.3529
 5173TIP3    H137010   2.201   3.188  14.140 -0.9223 -1.6061 -1.2389
 5173TIP3    H237011   2.112   3.235  14.253  1.6381 -0.2478  0.2858
 5174TIP3   OH237012   6.752   2.260  13.500  0.1220 -0.9243 -0.6037
 5174TIP3    H137013   6.687   2.306  13.448 -0.4492 -1.3096 -0.2342
 5174TIP3    H237014   6.809   2.330  13.535  0.0000 -0.6039 -1.0442
 5175TIP3   OH237015   0.177   4.431   0.425  0.2625 -0.6826  0.6563
 5175TIP3    H137016   0.257   4.416   0.374  0.0574 -0.4548  0.2605
 5175TIP3    H237017   0.208   4.450   0.513  0.7193  0.6974  0.2254
 5176TIP3   OH237018   5.261   6.668  12.387  0.2848  0.1436 -0.3993
 5176TIP3    H137019   5.301   6.743  12.432  2.7243 -2.1794  1.6147
 5176TIP3    H237020   5.203   6.629  12.453  2.1477 -1.9595  0.1532
 5177TIP3   OH237021   2.994   5.083  10.990  0.0960 -0.1023  0.4918
 5177TIP3    H137022   3.057   5.052  11.055  1.0998 -0.0546 -0.4377
 5177TIP3    H237023   3.008   5.028  10.914 -1.0590 -0.1410  0.2815
 5178TIP3   OH237024   1.867   4.759  14.447 -0.5986 -0.5902 -0.2026
 5178TIP3    H137025   1.936   4.822  14.426 -0.7548 -0.3439  0.0190
 5178TIP3    H237026   1.914   4.686  14.489 -0.4014 -0.6893 -0.5918
 5179TIP3   OH237027   3.035   6.771  10.888  0.7738  0.1404  0.3731
 5179TIP3    H137028   3.013   6.835  10.820 -0.5228 -0.5173  0.1481
 5179TIP3    H237029   3.064   6.694  10.838  0.7978  0.0078  0.5930
 5180TIP3   OH237030   3.867   0.156  12.939  0.8205 -0.5697  0.7296
 5180TIP3    H137031   3.941   0.095  12.945  1.9999  0.8185  0.8284
 5180TIP3    H237032   3.891   0.215  12.867 -0.2228 -0.1153  0.7391
 5181TIP3   OH237033   1.828   5.976   2.537  0.2720 -0.2053  0.2073
 5181TIP3    H137034   1.757   6.040   2.527 -1.2601 -2.0466 -1.6019
 5181TIP3    H237035   1.844   5.944   2.449  2.6091 -0.7084  0.7528
 5182TIP3   OH237036   0.209   2.360  11.981 -0.1560 -0.3220 -0.2573
 5182TIP3    H137037   0.246   2.357  12.069  1.4650 -1.7828 -0.9242
 5182TIP3    H237038   0.212   2.270  11.950 -3.1454 -0.2981 -0.9053
 5183TIP3   OH237039   5.609   2.338  11.834 -0.6791 -0.5441 -0.1051
 5183TIP3    H137040   5.631   2.409  11.773 -0.7288  0.1418  0.6579
 5183TIP3    H237041   5.615   2.258  11.781 -0.0031 -0.0320 -0.8233
 5184TIP3   OH237042   1.403   2.102  12.990  0.0512 -0.2263  0.6045
 5184TIP3    H137043   1.435   2.192  12.983  0.5472 -0.4681 -0.3987
 5184TIP3    H237044   1.479   2.051  13.018  0.1818 -0.5625 -0.3113
 5185TIP3   OH237045   1.453   6.133  13.937  0.4144  0.3911  0.2107
 5185TIP3    H137046   1.435   6.213  13.986 -0.9701  0.1983  0.0491
 5185TIP3    H237047   1.370   6.085  13.938  1.0923 -0.8297 -0.0880
 5186TIP3   OH237048   0.239   1.212   1.388 -0.2787 -0.2533 -0.1678
 5186TIP3    H137049   0.258   1.275   1.318 -1.1314  0.9254  0.6216
 5186TIP3    H237050   0.143   1.213   1.395 -0.1773  0.3091  1.5789
 5187TIP3   OH237051   2.032   6.538  12.831 -0.1970  0.2542 -0.4370
 5187TIP3    H137052   2.119   6.574  12.849 -0.7649  1.5336 -0.1709
 5187TIP3    H237053   1.971   6.596  12.877 -1.1955 -0.6862 -0.5280
 5188TIP3   OH237054   1.935   4.766  11.856 -0.3361  0.0577  0.3644
 5188TIP3    H137055   1.964   4.845  11.810  1.1510 -0.9629 -0.5387
 5188TIP3    H237056   1.911   4.705  11.787 -0.0025 -0.8162  0.9962
 5189TIP3   OH237057   5.196   2.086  13.153 -0.0452  0.0524  0.0819
 5189TIP3    H137058   5.279   2.066  13.109  0.3182 -0.3362  0.9213
 5189TIP3    H237059   5.130   2.074  13.085  0.5747  0.3237 -0.5912
 5190TIP3   OH237060   3.586   1.289   9.891  0.2536  0.3421 -0.4491
 5190TIP3    H137061   3.580   1.199   9.860 -1.5079  1.2708 -3.2046
 5190TIP3    H237062   3.632   1.335   9.821 -0.4913  1.9104  0.0466
 5191TIP3   OH237063   2.888   2.972  10.911 -0.3408  0.0009 -0.1157
 5191TIP3    H137064   2.870   2.878  10.900 -1.9144  0.1920  0.6269
 5191TIP3    H237065   2.968   2.974  10.964 -0.1341 -0.9223 -0.3673
 5192TIP3   OH237066   3.737   2.902   9.692 -0.0664  0.0195 -0.5044
 5192TIP3    H137067   3.750   2.984   9.740 -0.8415 -0.4034  0.4530
 5192TIP3    H237068   3.650   2.873   9.717  0.4212 -1.3991 -0.3706
 5193TIP3   OH237069   2.912   3.792  10.073  0.0541 -0.2418  0.2001
 5193TIP3    H137070   2.968   3.715  10.069  1.4998  0.8013 -0.7313
 5193TIP3    H237071   2.956   3.857  10.018 -0.8671  1.4071  1.3099
 5194TIP3   OH237072   1.066   5.758  13.058 -0.0835 -0.1170 -0.1869
 5194TIP3    H137073   1.091   5.848  13.036 -1.2600  0.7829  1.8028
 5194TIP3    H237074   1.117   5.737  13.136 -1.5478 -0.2257  0.7913
 5195TIP3   OH237075   6.282   4.745  12.477  0.3812 -0.4357  0.6438
 5195TIP3    H137076   6.265   4.709  12.390  3.8324 -2.6687  0.7185
 5195TIP3    H237077   6.221   4.698  12.534 -0.0182 -0.9562 -0.1838
 5196TIP3   OH237078   0.702   0.737  14.692 -0.0741 -0.1147  0.0323
 5196TIP3    H137079   0.764   0.751  14.621 -1.3955 -1.8073 -1.5533
 5196TIP3    H237080   0.626   0.696  14.650 -1.2211 -0.4732  2.3054
 5197TIP3   OH237081   2.605   2.858   0.451 -0.8175  0.2591 -0.3345
 5197TIP3    H137082   2.518   2.847   0.414 -1.5546  1.9902  0.7608
 5197TIP3    H237083   2.646   2.925   0.397 -0.6080  0.2935 -0.1378
 5198TIP3   OH237084   5.657   3.367  11.270 -0.3020 -0.4815  0.3046
 5198TIP3    H137085   5.746   3.334  11.260  0.0614  0.5813 -0.0507
 5198TIP3    H237086   5.617   3.355  11.184 -0.1737 -0.0184  0.1790
 5199TIP3   OH237087   1.355   5.402   5.030  0.3198  0.0654  0.5816
 5199TIP3    H137088   1.397   5.437   4.952 -0.7367 -1.6781 -0.8404
 5199TIP3    H237089   1.264   5.431   5.023  0.1610 -0.2997  1.0582
 5200TIP3   OH237090   0.520   0.975   0.435 -0.3336 -0.2925  0.0298
 5200TIP3    H137091   0.536   0.991   0.342 -2.8078  0.7889 -0.2632
 5200TIP3    H237092   0.489   1.058   0.470 -0.2518 -0.8965  1.6579
 5201TIP3   OH237093   0.472   0.010  12.884 -0.1569  0.5685 -0.2675
 5201TIP3    H137094   0.532   0.054  12.824 -0.2933  1.4866  0.2535
 5201TIP3    H237095   0.523  -0.003  12.964 -0.1920 -0.0289 -0.3353
 5202TIP3   OH237096   4.558   6.732  13.348  0.4459  0.2581 -0.3923
 5202TIP3    H137097   4.638   6.757  13.394  0.8413  0.6503 -1.2736
 5202TIP3    H237098   4.575   6.753  13.256 -0.8364  0.7563 -0.5355
 5203TIP3   OH237099   6.671   2.908   3.291 -0.3331  0.7568  0.0979
 5203TIP3    H137100   6.730   2.850   3.242  1.7822  1.6974  1.3589
 5203TIP3    H237101   6.601   2.929   3.229  0.6173 -0.4898 -1.4814
 5204TIP3   OH237102   3.068   2.394  12.256 -0.0366 -0.3868 -0.1905
 5204TIP3    H137103   3.045   2.433  12.172  0.2410 -3.1145 -1.6222
 5204TIP3    H237104   3.164   2.388  12.254 -0.1073 -1.7990 -0.3702
 5205TIP3   OH237105   6.434   2.772  12.898 -0.2960 -0.0570  0.4812
 5205TIP3    H137106   6.512   2.721  12.922 -1.0694 -1.7888 -0.4540
 5205TIP3    H237107   6.365   2.707  12.891 -1.6497  1.3347  0.4701
 5206TIP3   OH237108   2.165   6.899  12.693 -0.2140 -0.4847 -0.5321
 5206TIP3    H137109   2.173   6.986  12.733 -2.1137 -0.9185  0.9558
 5206TIP3    H237110   2.179   6.838  12.765 -0.7978 -1.3602 -1.1409
 5207TIP3   OH237111   2.034   3.649  11.389  0.3213  0.2087 -0.3312
 5207TIP3    H137112   2.125   3.637  11.415 -0.1482 -0.5825  1.0628
 5207TIP3    H237113   1.995   3.698  11.461  0.3822  3.7011 -2.4654
 5208TIP3   OH237114   2.714   1.138  12.827  0.2151 -0.1330  0.4073
 5208TIP3    H137115   2.718   1.046  12.800  2.0946 -0.2593  0.9828
 5208TIP3    H237116   2.785   1.147  12.891 -0.4197  1.5512  0.9212
 5209TIP3   OH237117   5.673   3.635  10.770  0.1818  0.4280 -0.3220
 5209TIP3    H137118   5.684   3.564  10.706  0.0029  0.4385 -0.3668
 5209TIP3    H237119   5.591   3.678  10.744 -0.4402 -0.1988  0.5029
 5210TIP3   OH237120   2.553   5.210  10.676 -0.2723 -0.0487 -0.2383
 5210TIP3    H137121   2.614   5.136  10.672 -0.3652 -0.1414  0.0119
 5210TIP3    H237122   2.500   5.193  10.754  1.6862  1.8375  1.6159
 5211TIP3   OH237123   3.274   4.337   5.102 -0.4880 -0.4894  0.6931
 5211TIP3    H137124   3.361   4.372   5.083 -0.2697 -0.8065  1.0865
 5211TIP3    H237125   3.275   4.320   5.196 -1.2239  0.1707  0.8369
 5212TIP3   OH237126   1.130   3.924   9.626 -0.4249 -0.5510  0.4927
 5212TIP3    H137127   1.124   3.833   9.655  0.1213 -0.5429  0.6519
 5212TIP3    H237128   1.203   3.924   9.564 -0.3503 -0.2012  0.5805
 5213TIP3   OH237129   6.427   4.785  11.197  0.0762 -0.0760  1.1404
 5213TIP3    H137130   6.467   4.861  11.155 -1.2731  1.0125  1.7298
 5213TIP3    H237131   6.412   4.723  11.126 -1.1222  1.2673  0.1501
 5214TIP3   OH237132   1.091   6.042  11.639 -0.2772  0.1094 -0.1891
 5214TIP3    H137133   1.050   6.026  11.724 -0.3388  1.6816  0.1183
 5214TIP3    H237134   1.045   6.119  11.604 -0.9118 -1.0877 -2.1184
 5215TIP3   OH237135   3.043   3.996  11.724 -0.3635 -0.4682 -0.0131
 5215TIP3    H137136   3.004   4.067  11.775  0.2983  0.0580 -0.2290
 5215TIP3    H237137   3.033   3.919  11.780  2.8380  0.5481  2.2834
 5216TIP3   OH237138   0.321   0.860   0.584  0.4365 -0.5780 -0.0864
 5216TIP3    H137139   0.392   0.879   0.523 -0.4893  1.6327 -0.5801
 5216TIP3    H237140   0.250   0.826   0.529 -0.2246  0.9463 -0.2086
 5217TIP3   OH237141   1.220   4.743   9.799  0.2682  0.1817 -0.1338
 5217TIP3    H137142   1.208   4.648   9.802  0.1430  0.2007  0.0097
 5217TIP3    H237143   1.292   4.757   9.738  1.5574 -0.1153  1.2553
 5218TIP3   OH237144   0.661   0.842  12.246 -0.6286 -0.2260  0.0646
 5218TIP3    H137145   0.641   0.803  12.331 -0.7504 -0.2328  0.0341
 5218TIP3    H237146   0.683   0.767  12.190  1.2970 -0.0809  0.5663
 5219TIP3   OH237147   6.950   2.779  14.343 -0.3080  0.9598  0.3610
 5219TIP3    H137148   7.005   2.845  14.385 -1.1169  2.2923 -0.5719
 5219TIP3    H237149   6.941   2.810  14.253 -2.6835  0.9140  0.5038
 5220TIP3   OH237150   6.163   6.921  12.340 -0.2010 -0.4146 -0.4959
 5220TIP3    H137151   6.212   6.876  12.272  1.0857 -0.8124  0.6369
 5220TIP3    H237152   6.207   7.006  12.349  0.6802 -0.9675  0.8730
 5221TIP3   OH237153   0.205   5.171   2.172 -0.0831 -0.3524  0.0791
 5221TIP3    H137154   0.228   5.264   2.177  0.6109 -0.3987 -1.6277
 5221TIP3    H237155   0.261   5.129   2.237 -0.4408  0.4202  0.9078
 5222TIP3   OH237156   6.557   5.228   1.654 -0.4236  0.3683  0.6846
 5222TIP3    H137157   6.590   5.191   1.735  2.0193  0.8923  0.0172
 5222TIP3    H237158   6.557   5.155   1.592 -0.6758  0.3264  0.7355
 5223TIP3   OH237159   6.679   7.001   1.970  0.3941  0.1220  0.0515
 5223TIP3    H137160   6.645   7.044   2.048 -1.8119 -2.2208  0.5119
 5223TIP3    H237161   6.755   6.951   2.001 -0.7969 -1.2445  0.9141
 5224TIP3   OH237162   0.804   6.503  10.321  0.0695  0.0619  0.2398
 5224TIP3    H137163   0.760   6.419  10.310 -1.5547  0.7846  0.8383
 5224TIP3    H237164   0.878   6.484  10.379  0.2539 -1.1026 -0.3606
 5225TIP3   OH237165   0.921   6.194   9.858 -0.1467  0.2452 -0.0272
 5225TIP3    H137166   0.892   6.190   9.949 -1.4900 -0.8459 -0.4612
 5225TIP3    H237167   1.015   6.213   9.863  0.0746 -1.0811  1.6343
 5226TIP3   OH237168   1.603   5.366   2.904  0.0762 -0.4802  1.3808
 5226TIP3    H137169   1.532   5.397   2.847  1.4375  0.2440  0.0340
 5226TIP3    H237170   1.646   5.297   2.854  2.1358  1.0807  0.9144
 5227TIP3   OH237171   5.618   6.941  13.424 -0.1774 -0.0367  0.4730
 5227TIP3    H137172   5.696   6.963  13.374  0.4731  0.6180  1.7167
 5227TIP3    H237173   5.554   7.007  13.400  0.4233  0.8103  1.1347
 5228TIP3   OH237174   2.618   4.337  14.426  0.3101  0.6554  0.2230
 5228TIP3    H137175   2.548   4.292  14.472 -0.3223 -0.1452 -1.4389
 5228TIP3    H237176   2.691   4.338  14.488 -0.8477  0.6106  1.6129
 5229TIP3   OH237177   7.236   0.203  10.020  0.0360 -0.2218 -0.3383
 5229TIP3    H137178   7.327   0.181  10.041 -0.1814 -1.7216 -0.8420
 5229TIP3    H237179   7.217   0.150   9.942 -1.7275 -1.0879  0.6298
 5230TIP3   OH237180   2.679   7.081  12.727  0.2009 -1.0082 -0.1756
 5230TIP3    H137181   2.697   7.128  12.646  0.6014  0.5696  0.7958
 5230TIP3    H237182   2.625   7.007  12.700 -1.9171  0.9153 -1.5429
 5231TIP3   OH237183   2.584   0.589  11.010 -0.1764  0.8138  0.2507
 5231TIP3    H137184   2.493   0.567  11.029 -0.1986  1.0443  0.4077
 5231TIP3    H237185   2.613   0.640  11.085  0.6637 -0.8614  1.1428
 5232TIP3   OH237186   1.234   3.324  12.148  0.5156 -0.7552  0.9474
 5232TIP3    H137187   1.300   3.388  12.121  0.0027  0.3284  2.1458
 5232TIP3    H237188   1.197   3.361  12.228 -2.6237 -0.5283 -0.4757
 5233TIP3   OH237189   4.280   5.329  15.327 -0.4603  0.2899 -0.9609
 5233TIP3    H137190   4.354   5.269  15.317  0.6426  1.4832 -0.2651
 5233TIP3    H237191   4.205   5.281  15.291  0.5598 -1.1143 -1.2969
 5234TIP3   OH237192   4.630   6.622  15.181 -0.3226  0.2516  0.1429
 5234TIP3    H137193   4.659   6.570  15.256 -0.7379 -0.5143 -0.2187
 5234TIP3    H237194   4.545   6.657  15.209  0.3023  1.4051  0.6860
 5235TIP3   OH237195   4.843   7.045  10.568 -0.6578 -0.6654  0.7155
 5235TIP3    H137196   4.877   6.962  10.535 -0.6620  0.0837 -1.3273
 5235TIP3    H237197   4.760   7.057  10.521 -0.3247  0.7868  0.4453
 5236TIP3   OH237198   0.985   4.991  13.229  0.8607 -0.0165 -0.7679
 5236TIP3    H137199   1.002   5.026  13.317  0.5031  1.3204 -1.2122
 5236TIP3    H237200   1.069   4.957  13.200  0.6656 -1.9943  0.7015
 5237TIP3   OH237201   4.838   6.994   9.317  0.2802 -0.6218  0.1149
 5237TIP3    H137202   4.776   6.920   9.311  0.4389 -0.7819  0.4122
 5237TIP3    H237203   4.924   6.952   9.325  0.4440 -0.3983 -0.4188
 5238TIP3   OH237204   0.828   6.876  11.705 -0.6062 -0.6855  0.0819
 5238TIP3    H137205   0.845   6.814  11.635  0.6400 -1.0680  0.7049
 5238TIP3    H237206   0.736   6.900  11.693 -0.1016  0.2590 -2.4549
 5239TIP3   OH237207   5.803   5.361  11.877 -0.0738 -0.4441 -0.3872
 5239TIP3    H137208   5.745   5.426  11.917  1.2036  0.1594  0.5643
 5239TIP3    H237209   5.888   5.406  11.871  0.3636 -1.3715 -1.5375
 5240TIP3   OH237210   2.121   5.045  12.041 -0.3862 -0.5607  0.5083
 5240TIP3    H137211   2.028   5.048  12.022 -0.2827  0.9844  0.0973
 5240TIP3    H237212   2.133   5.104  12.116  0.3169 -0.3540  0.2493
 5241TIP3   OH237213   7.212   0.010   9.806  0.0494 -0.1409 -0.5001
 5241TIP3    H137214   7.233  -0.079   9.777 -0.7477 -0.9172  1.1777
 5241TIP3    H237215   7.143   0.039   9.747 -1.1733 -1.4834  0.1912
 5242TIP3   OH237216   7.221   3.914  14.834  0.1108  0.9489 -0.3330
 5242TIP3    H137217   7.286   3.879  14.773 -1.0077 -0.0075 -1.0001
 5242TIP3    H237218   7.174   3.837  14.866 -0.3229  1.5795  0.5966
 5243TIP3   OH237219   2.661   4.624  12.393 -0.2098  0.5180 -0.5011
 5243TIP3    H137220   2.728   4.579  12.444  0.6114  0.2085 -1.7950
 5243TIP3    H237221   2.590   4.640  12.455  0.8060  0.3077  0.7549
 5244TIP3   OH237222   3.166   3.483  12.261 -0.8139  0.0097  0.4808
 5244TIP3    H137223   3.157   3.560  12.206  0.6723  0.2318  0.5144
 5244TIP3    H237224   3.110   3.417  12.219 -2.0569  1.0487  0.4167
 5245TIP3   OH237225   4.307   3.944  12.485 -0.2102 -0.2306 -0.0876
 5245TIP3    H137226   4.277   3.860  12.519 -1.3011 -0.2772 -1.0781
 5245TIP3    H237227   4.325   3.928  12.392  0.1128  0.4916 -0.1564
 5246TIP3   OH237228   4.351   4.679  12.739  0.1518 -0.4131  0.3995
 5246TIP3    H137229   4.272   4.655  12.691 -0.2140 -0.6601  1.1050
 5246TIP3    H237230   4.364   4.771  12.718 -0.7809 -0.1526  0.8918
 5247TIP3   OH237231   1.435   4.208   1.784 -0.1452  0.6588 -0.0737
 5247TIP3    H137232   1.478   4.275   1.837 -0.5764  0.0585  1.0845
 5247TIP3    H237233   1.472   4.218   1.697  1.3723  1.0177  0.5769
 5248TIP3   OH237234   2.662   3.536  13.257 -0.1095  0.1211  0.2694
 5248TIP3    H137235   2.748   3.528  13.297 -0.1219 -0.5187  0.1795
 5248TIP3    H237236   2.643   3.448  13.223  0.0441  0.6980 -1.4231
 5249TIP3   OH237237   4.219   1.981   3.045  0.1916 -0.5063  0.3652
 5249TIP3    H137238   4.206   2.054   2.986 -0.8915 -0.5335  0.5556
 5249TIP3    H237239   4.155   1.915   3.017  0.9296 -1.2516  0.3995
 5250TIP3   OH237240   1.872   3.086  12.677 -0.6016 -0.3529  0.1192
 5250TIP3    H137241   1.835   3.016  12.623  0.3022 -0.6672 -0.0987
 5250TIP3    H237242   1.921   3.041  12.745  0.4587  0.0664 -0.3523
 5251TIP3   OH237243   5.790   4.400   2.488 -0.2769  1.2033  0.5220
 5251TIP3    H137244   5.873   4.390   2.441 -1.4755  0.7049 -1.6222
 5251TIP3    H237245   5.787   4.324   2.547  0.2253  0.4991 -0.3196
 5252TIP3   OH237246   5.828   6.866  12.664 -0.1214  0.0258  0.1394
 5252TIP3    H137247   5.899   6.886  12.725 -1.0843 -1.1285  1.7345
 5252TIP3    H237248   5.800   6.778  12.689 -2.4061  0.6269 -0.0977
 5253TIP3   OH237249   3.917   6.666  10.196  0.2269  0.3225  0.8121
 5253TIP3    H137250   3.961   6.639  10.277 -0.2020 -1.5955  0.4550
 5253TIP3    H237251   3.946   6.603  10.131 -1.2349  0.4332  0.0149
 5254TIP3   OH237252   1.624   3.731  10.634  0.2092 -0.1171  0.1558
 5254TIP3    H137253   1.669   3.655  10.598 -0.6014 -0.0603 -1.0502
 5254TIP3    H237254   1.651   3.734  10.725  1.7447 -0.7390 -0.2380
 5255TIP3   OH237255   2.605   3.578  14.898 -0.0189  0.0860 -0.1261
 5255TIP3    H137256   2.533   3.549  14.954 -0.5346 -0.8919 -1.2301
 5255TIP3    H237257   2.633   3.498  14.852  1.6399  0.4896  0.1214
 5256TIP3   OH237258   4.088   3.703  11.227  0.6216 -0.0707  0.1286
 5256TIP3    H137259   3.999   3.723  11.257  0.7046  0.6651 -0.0929
 5256TIP3    H237260   4.097   3.751  11.145  1.5680  0.6904  0.6525
 5257TIP3   OH237261   1.007   5.841  11.868  0.1412 -0.1521  0.2685
 5257TIP3    H137262   1.097   5.873  11.880 -0.4595  1.8202 -0.0980
 5257TIP3    H237263   0.968   5.847  11.955 -0.5528  2.2064 -0.1207
 5258TIP3   OH237264   3.115   4.017  12.121 -0.0371  0.3144  0.3559
 5258TIP3    H137265   3.163   4.093  12.087 -0.9437  0.5991 -0.3247
 5258TIP3    H237266   3.144   4.009  12.212  2.5600 -0.5610 -0.4714
 5259TIP3   OH237267   2.625   1.753   9.850  0.2645 -0.0240  0.1147
 5259TIP3    H137268   2.708   1.708   9.834 -0.4219 -0.4042 -3.1046
 5259TIP3    H237269   2.639   1.842   9.819 -0.0635  0.4061  1.1486
 5260TIP3   OH237270   0.709   3.118  12.944 -0.7819  0.4651 -0.6760
 5260TIP3    H137271   0.636   3.177  12.961 -1.0576  0.5689 -2.1517
 5260TIP3    H237272   0.681   3.065  12.870  0.2709 -0.1405 -0.6606
 5261TIP3   OH237273   5.537   3.847  10.643 -0.0396  0.6665 -0.4223
 5261TIP3    H137274   5.600   3.866  10.574  0.6104  2.0122  0.5082
 5261TIP3    H237275   5.457   3.892  10.616  0.7919  2.8671  0.6098
 5262TIP3   OH237276   0.220   7.146  10.397  0.2924  0.0703  1.0211
 5262TIP3    H137277   0.243   7.225  10.348 -0.8572 -0.5232 -0.5910
 5262TIP3    H237278   0.131   7.163  10.430 -0.4414 -0.9329 -0.3300
 5263TIP3   OH237279   0.463   1.749  14.470  0.4756 -0.3656  0.5591
 5263TIP3    H137280   0.510   1.770  14.551 -1.0317  1.1062  1.1003
 5263TIP3    H237281   0.532   1.731  14.407  1.7466  0.3234  1.6941
 5264TIP3   OH237282   3.727   1.071  12.530 -0.1854 -0.0676 -0.0721
 5264TIP3    H137283   3.799   1.105  12.477 -1.1749  0.5711 -1.0741
 5264TIP3    H237284   3.700   0.991  12.485 -1.0013  0.4537 -0.5525
 5265TIP3   OH237285   2.175   0.331  13.394  0.1111  0.0144 -0.2182
 5265TIP3    H137286   2.257   0.309  13.437 -0.1432 -1.2980 -0.3651
 5265TIP3    H237287   2.107   0.307  13.457 -0.2069 -0.1911 -0.6356
 5266TIP3   OH237288   3.970   1.519   4.592 -0.0062  0.3232 -0.3324
 5266TIP3    H137289   3.876   1.515   4.576 -0.0977  1.3150 -0.1204
 5266TIP3    H237290   4.007   1.556   4.512 -0.3698  4.4437  1.1721
 5267TIP3   OH237291   3.060   3.462   9.274  0.4067 -0.6726  0.4011
 5267TIP3    H137292   2.976   3.509   9.272  0.9327  0.4840  2.6063
 5267TIP3    H237293   3.118   3.518   9.326  1.9272 -2.4649  0.7521
 5268TIP3   OH237294   6.510   0.433  10.032  0.5107 -0.0954  0.4553
 5268TIP3    H137295   6.529   0.420   9.939  0.2828  0.4443  0.3346
 5268TIP3    H237296   6.455   0.358  10.056  2.2652 -1.3876  0.6647
 5269TIP3   OH237297   0.916   3.704  13.762 -0.0910 -0.5880  1.1408
 5269TIP3    H137298   0.856   3.775  13.739  1.6033  0.5408 -0.0870
 5269TIP3    H237299   0.934   3.661  13.678 -0.4418 -1.9799  1.7474
 5270TIP3   OH237300   6.252   1.316  10.502 -0.2915  0.0914  0.0956
 5270TIP3    H137301   6.300   1.388  10.461  1.1987 -1.1560 -0.4755
 5270TIP3    H237302   6.237   1.345  10.592 -0.7012  1.5350 -0.4057
 5271TIP3   OH237303   5.849   0.125  10.150  0.3129 -0.2190 -0.3006
 5271TIP3    H137304   5.853   0.041  10.105  2.4941 -0.2883 -0.0972
 5271TIP3    H237305   5.929   0.170  10.123  0.2298  0.9132  1.2316
 5272TIP3   OH237306   5.574   1.076  10.780 -0.0447 -0.1809 -0.5499
 5272TIP3    H137307   5.551   1.048  10.692  1.8738  0.2685 -1.2430
 5272TIP3    H237308   5.543   1.166  10.786 -0.9049 -0.4706 -0.4411
 5273TIP3   OH237309   5.163   0.254  10.760 -0.3120  0.2075  0.9353
 5273TIP3    H137310   5.193   0.210  10.839 -1.2581  0.5417  1.4981
 5273TIP3    H237311   5.113   0.329  10.792 -0.8821  0.2330  0.0266
 5274TIP3   OH237312   0.304   5.301  13.065 -0.0481 -0.1249  0.2048
 5274TIP3    H137313   0.350   5.381  13.089 -1.4974  0.0889  2.6426
 5274TIP3    H237314   0.234   5.330  13.006  0.5158  0.0977 -0.3718
 5275TIP3   OH237315   4.703   2.134  11.885 -0.3490 -0.8886 -0.5998
 5275TIP3    H137316   4.645   2.062  11.908 -0.8928 -0.0671  0.7338
 5275TIP3    H237317   4.682   2.203  11.948 -1.2553  1.2212 -3.0779
 5276TIP3   OH237318   2.948   0.331  13.351  0.6664 -0.2246  0.1061
 5276TIP3    H137319   2.869   0.279  13.343 -1.1675  2.2765  0.7815
 5276TIP3    H237320   2.993   0.319  13.267 -0.7522 -1.1520 -0.5553
 5277TIP3   OH237321   3.298   4.871  10.642 -0.6229  0.2390 -0.0816
 5277TIP3    H137322   3.256   4.795  10.681 -0.5184 -0.6967 -1.7208
 5277TIP3    H237323   3.375   4.887  10.697  0.2852 -1.8914 -0.6214
 5278TIP3   OH237324   4.526   6.550   3.066  0.3541  0.6549 -0.3538
 5278TIP3    H137325   4.531   6.646   3.072  0.4894  0.5660  1.9419
 5278TIP3    H237326   4.616   6.522   3.048  0.8009  0.8982  1.3058
 5279TIP3   OH237327   6.276   2.261   0.965 -0.1116  0.4408  0.0086
 5279TIP3    H137328   6.358   2.214   0.979  0.8223  1.6656 -1.0700
 5279TIP3    H237329   6.299   2.353   0.976 -1.1149  0.8738 -1.2230
 5280TIP3   OH237330   2.457   6.181   1.309 -0.4623 -0.1791 -0.1668
 5280TIP3    H137331   2.503   6.159   1.390  1.1363  0.3615 -0.8815
 5280TIP3    H237332   2.520   6.235   1.260 -1.4318 -0.4055 -1.7159
 5281TIP3   OH237333   0.666   1.544  10.818 -0.0101  0.0273 -0.0765
 5281TIP3    H137334   0.663   1.560  10.724 -1.4930  1.9275  0.2564
 5281TIP3    H237335   0.575   1.533  10.845  0.2915  0.5721  1.2912
 5282TIP3   OH237336   6.417   2.385   0.188 -0.1947 -0.1730 -0.0304
 5282TIP3    H137337   6.351   2.322   0.214 -1.6613  1.1244 -0.4445
 5282TIP3    H237338   6.397   2.464   0.240  0.3349  0.5941 -0.9541
 5283TIP3   OH237339   0.114   2.844  14.223  0.3643  0.0597  0.4126
 5283TIP3    H137340   0.033   2.848  14.273  0.9268  2.1530  1.2584
 5283TIP3    H237341   0.113   2.922  14.168  1.4646 -0.2637 -0.1094
 5284TIP3   OH237342   6.568   4.281  10.850  0.0933 -0.4309  0.5452
 5284TIP3    H137343   6.487   4.235  10.825  0.9494 -2.3419  1.0589
 5284TIP3    H237344   6.629   4.263  10.778  0.8383 -1.2524  1.3498
 5285TIP3   OH237345   3.549   3.120   0.341  0.1124 -0.1317  0.4291
 5285TIP3    H137346   3.541   3.025   0.350  2.6063 -0.6116 -1.2122
 5285TIP3    H237347   3.497   3.142   0.264 -2.0952  0.2404  1.9291
 5286TIP3   OH237348   4.984   7.232   9.278  0.7269 -0.0718  0.4946
 5286TIP3    H137349   5.037   7.207   9.353  0.5784 -2.7157 -0.1676
 5286TIP3    H237350   4.923   7.159   9.267  2.5419 -1.2243 -3.8098
 5287TIP3   OH237351   3.378   6.295   0.716 -0.6168  0.0429  0.4653
 5287TIP3    H137352   3.358   6.385   0.741  0.4350  0.0781  1.2637
 5287TIP3    H237353   3.296   6.247   0.728 -0.6896  0.5009  1.9497
 5288TIP3   OH237354   4.671   5.713  14.028 -0.1786 -0.2644 -0.1496
 5288TIP3    H137355   4.738   5.659  14.071 -0.2238  0.1890  0.5087
 5288TIP3    H237356   4.700   5.803  14.044 -0.1556 -0.0877 -1.1539
 5289TIP3   OH237357   1.600   5.539  14.242 -0.2230 -0.4849  0.6863
 5289TIP3    H137358   1.573   5.476  14.308  1.1051 -0.7100  1.0434
 5289TIP3    H237359   1.696   5.538  14.245 -0.1554  0.4613 -0.3323
 5290TIP3   OH237360   0.604   0.721  11.316 -0.1363 -0.0698  0.2764
 5290TIP3    H137361   0.571   0.729  11.226  2.3267  0.6319 -0.6749
 5290TIP3    H237362   0.660   0.798  11.327 -0.7865  0.1307  2.6406
 5291TIP3   OH237363   2.003   1.589  12.101 -0.3542  0.0855 -0.1026
 5291TIP3    H137364   1.987   1.502  12.140  0.3647 -1.0389 -2.1644
 5291TIP3    H237365   2.091   1.611  12.129  0.5769 -1.2095 -1.8431
 5292TIP3   OH237366   2.317   0.934  13.462  0.6054 -0.4748 -0.2695
 5292TIP3    H137367   2.260   0.965  13.533  2.5681 -1.2067  1.7190
 5292TIP3    H237368   2.268   0.861  13.423 -0.3388 -0.3370  0.6013
 5293TIP3   OH237369   1.681   7.188  10.440  0.3874 -0.2896  0.0388
 5293TIP3    H137370   1.700   7.226  10.354 -1.6405  0.7497 -0.0222
 5293TIP3    H237371   1.651   7.263  10.493  2.2833 -0.7748  1.9093
 5294TIP3   OH237372   3.507   6.235  12.381  0.3175 -1.1618  0.0403
 5294TIP3    H137373   3.552   6.152  12.364  2.7898  0.0631  0.1524
 5294TIP3    H237374   3.507   6.244  12.476  1.2666 -0.4507 -0.0131
 5295TIP3   OH237375   4.463   2.807   0.483  0.3135 -0.0142 -0.1190
 5295TIP3    H137376   4.488   2.814   0.575 -1.6179  0.6124  0.4232
 5295TIP3    H237377   4.469   2.896   0.450 -0.5513  0.0490 -0.1290
 5296TIP3   OH237378   1.066   3.314  14.227  0.0959 -0.3664 -0.8102
 5296TIP3    H137379   1.078   3.219  14.235 -1.3136 -0.5764 -0.8508
 5296TIP3    H237380   1.029   3.326  14.140 -0.8813  0.0741 -0.3535
 5297TIP3   OH237381   2.146   5.218  14.413  0.0620 -0.1092 -0.3664
 5297TIP3    H137382   2.188   5.172  14.485 -1.3339 -2.1729 -0.7796
 5297TIP3    H237383   2.218   5.243  14.355  0.9671 -0.8819  0.3949
 5298TIP3   OH237384   7.110   4.205  10.540  0.7464 -0.7473  0.4268
 5298TIP3    H137385   7.067   4.252  10.469  0.9776 -2.1254 -0.6599
 5298TIP3    H237386   7.041   4.148  10.576  0.3620  0.6302  1.9883
 5299TIP3   OH237387   4.256   1.462   0.056 -0.3283 -0.2697 -0.2034
 5299TIP3    H137388   4.213   1.407   0.122 -0.8556  1.5190  1.0334
 5299TIP3    H237389   4.283   1.540   0.105  0.2978  0.6199 -1.9067
 5300TIP3   OH237390   4.676   1.384   9.248  0.2259  0.6727  0.0173
 5300TIP3    H137391   4.608   1.375   9.315 -1.0578  0.9524 -1.2091
 5300TIP3    H237392   4.749   1.331   9.281 -0.9036 -0.3729  0.9577
 5301TIP3   OH237393   5.557   3.999  12.749 -0.5152 -0.1518  0.6383
 5301TIP3    H137394   5.476   3.952  12.730 -1.0541  0.0524  2.2452
 5301TIP3    H237395   5.528   4.087  12.772 -0.0215 -0.4876  2.7305
 5302TIP3   OH237396   5.427   2.889   9.962 -0.0640 -0.4742 -0.3777
 5302TIP3    H137397   5.412   2.953  10.032 -2.5579 -1.6295  0.2857
 5302TIP3    H237398   5.458   2.941   9.888  0.2841  1.1410  0.8446
 5303TIP3   OH237399   3.694   6.648   2.692 -0.6279  0.0536 -0.1106
 5303TIP3    H137400   3.744   6.634   2.772 -0.7469 -0.2727 -0.0898
 5303TIP3    H237401   3.635   6.720   2.713 -0.5750  0.0480  0.0592
 5304TIP3   OH237402   4.234   4.082  10.651  0.5547 -0.4826 -0.6004
 5304TIP3    H137403   4.170   4.011  10.651  0.2775 -0.2504  0.5020
 5304TIP3    H237404   4.314   4.042  10.616  0.9284 -1.8557  1.6528
 5305TIP3   OH237405   4.415   2.596  14.013  0.4677 -0.3391 -0.0697
 5305TIP3    H137406   4.363   2.667  14.050  0.4001  0.8555 -2.3215
 5305TIP3    H237407   4.353   2.524  14.002 -0.4462  0.6149 -1.4650
 5306TIP3   OH237408   3.889   1.664  14.957  0.0631 -0.0229 -0.1282
 5306TIP3    H137409   3.972   1.616  14.965  0.8976  1.4855  0.9018
 5306TIP3    H237410   3.848   1.656  15.043 -0.9807 -0.9062 -0.6857
 5307TIP3   OH237411   5.761   1.093  10.997  0.3650  0.3828 -0.1918
 5307TIP3    H137412   5.820   1.162  10.967  0.8026  0.2575  0.3756
 5307TIP3    H237413   5.696   1.085  10.927  0.0933  1.6228 -0.1088
 5308TIP3   OH237414   3.455   7.245   9.921 -0.8828 -0.4811 -0.4778
 5308TIP3    H137415   3.420   7.316   9.867 -1.3172  0.1880  0.6659
 5308TIP3    H237416   3.379   7.190   9.940 -0.7938 -0.5385 -0.2875
 5309TIP3   OH237417   1.464   1.457  14.474 -0.4163  0.3155  0.0062
 5309TIP3    H137418   1.415   1.435  14.553  0.6597 -1.0832  0.3194
 5309TIP3    H237419   1.463   1.376  14.422  0.5995  0.6055 -0.4871
 5310TIP3   OH237420   6.738   0.892  10.961  0.1484 -0.3423  0.0509
 5310TIP3    H137421   6.825   0.855  10.948 -0.0617 -1.1797  0.9605
 5310TIP3    H237422   6.702   0.844  11.035 -2.3085 -2.2797 -2.1977
 5311TIP3   OH237423   2.618   1.976  11.940 -0.1768 -0.1745  0.0325
 5311TIP3    H137424   2.593   1.885  11.958  1.6973 -0.7147  0.1313
 5311TIP3    H237425   2.667   1.971  11.858  1.6757  0.4095  1.0582
 5312TIP3   OH237426   4.140   1.627   9.371 -0.7420 -0.1514  0.4245
 5312TIP3    H137427   4.157   1.536   9.344  1.5039  0.1633  0.5647
 5312TIP3    H237428   4.045   1.635   9.369 -1.0189 -2.5531  0.5385
 5313TIP3   OH237429   5.628   5.553  11.057  0.0487  0.4353 -0.3715
 5313TIP3    H137430   5.641   5.609  10.980  0.1237  0.7382 -0.1437
 5313TIP3    H237431   5.591   5.612  11.123 -1.6368 -0.1989 -0.7059
 5314TIP3   OH237432   6.292   1.367  10.773  0.4126  0.8072 -0.5248
 5314TIP3    H137433   6.299   1.290  10.829  0.2369  1.2010  0.0383
 5314TIP3    H237434   6.379   1.407  10.775  1.1145 -0.4540 -2.4106
 5315TIP3   OH237435   6.186   4.158  14.538 -0.0427 -0.3241 -0.0194
 5315TIP3    H137436   6.174   4.190  14.448  0.1639  0.3101  0.1712
 5315TIP3    H237437   6.097   4.146  14.571 -0.1746  1.2624  0.3106
 5316TIP3   OH237438   4.004   3.092  12.887  0.8602 -0.6020  0.1462
 5316TIP3    H137439   3.921   3.083  12.933  0.2736  0.6747 -0.6130
 5316TIP3    H237440   4.070   3.088  12.957  0.0309  0.5272  1.0475
 5317TIP3   OH237441   0.126   5.981  10.128  0.8160  0.4200 -0.5124
 5317TIP3    H137442   0.207   5.956  10.083  0.9612  0.3944 -0.2410
 5317TIP3    H237443   0.152   6.050  10.189  0.9760 -0.7613  0.8065
 5318TIP3   OH237444   0.335   7.226  10.692 -0.0048 -0.2340  0.7131
 5318TIP3    H137445   0.303   7.241  10.604 -0.4582  0.2327  0.9533
 5318TIP3    H237446   0.271   7.167  10.732  1.0492 -1.7827  0.2202
 5319TIP3   OH237447   5.149   7.249   9.920 -0.1636 -1.2050  0.5250
 5319TIP3    H137448   5.186   7.208   9.998  1.2241 -1.3364 -0.1763
 5319TIP3    H237449   5.180   7.194   9.848  0.4157  0.1609 -0.2991
 5320TIP3   OH237450   2.178   1.983   0.890  0.6152 -0.3741  0.6544
 5320TIP3    H137451   2.176   2.077   0.905 -1.4387 -0.0129 -1.3405
 5320TIP3    H237452   2.165   1.944   0.977 -1.2340  1.2573  1.1713
 5321TIP3   OH237453   5.263   3.499   9.815  0.2021  0.2060  0.0318
 5321TIP3    H137454   5.301   3.476   9.899  0.2862 -0.5124 -0.1937
 5321TIP3    H237455   5.338   3.510   9.757  0.0863 -1.7826 -0.5571
 5322TIP3   OH237456   4.434   5.850  11.095 -0.0448 -0.0212  0.2388
 5322TIP3    H137457   4.458   5.840  11.187 -1.9704 -1.3752  0.6497
 5322TIP3    H237458   4.339   5.860  11.096 -0.0620  0.3041 -1.5937
 5323TIP3   OH237459   3.502   0.721  12.500  0.9657  0.2439  0.2673
 5323TIP3    H137460   3.486   0.773  12.422 -0.2202 -0.5868 -0.0712
 5323TIP3    H237461   3.419   0.723  12.548  0.4137 -2.3302 -0.3877
 5324TIP3   OH237462   4.492   2.533   0.424 -0.3449 -0.0268 -0.2010
 5324TIP3    H137463   4.497   2.629   0.430  0.1539 -0.0659  0.1057
 5324TIP3    H237464   4.581   2.507   0.399 -0.5479 -0.3947 -0.5510
 5325TIP3   OH237465   0.978   4.712   1.980  0.4476 -0.3800  0.0726
 5325TIP3    H137466   1.052   4.686   2.034  1.1040  0.9470 -0.1346
 5325TIP3    H237467   0.986   4.659   1.900  0.4955 -1.0799  0.5413
 5326TIP3   OH237468   4.014   3.521   0.638 -0.6836 -0.8339  0.1685
 5326TIP3    H137469   4.106   3.537   0.618 -0.5152 -1.0344  0.7461
 5326TIP3    H237470   3.967   3.594   0.598 -0.2506 -0.6352  0.0241
 5327TIP3   OH237471   4.416   2.153  14.654 -0.5500 -0.9588  0.4698
 5327TIP3    H137472   4.382   2.195  14.574 -0.1778 -0.3956  0.6037
 5327TIP3    H237473   4.474   2.218  14.692  0.6590 -1.8964  0.2743
 5328TIP3   OH237474   6.205   6.769   9.295  0.4836  0.2299 -0.0261
 5328TIP3    H137475   6.115   6.799   9.308  1.0910  1.8611  0.6404
 5328TIP3    H237476   6.239   6.757   9.384  1.1720  0.3625 -0.2661
 5329TIP3   OH237477   5.334   1.349   4.606 -0.1296  0.2369 -0.2837
 5329TIP3    H137478   5.271   1.279   4.592  1.4392 -0.7571 -3.0432
 5329TIP3    H237479   5.292   1.427   4.570 -0.3259 -0.1217 -0.8408
 5330TIP3   OH237480   0.029   0.994   9.993  0.7206  0.1069 -0.1210
 5330TIP3    H137481   0.111   1.043  10.001  0.7879  0.0048 -0.1725
 5330TIP3    H237482   0.038   0.946   9.910  0.4922  0.3081 -0.2612
 5331TIP3   OH237483   5.138   6.969  14.435 -0.0859 -0.2845 -0.1860
 5331TIP3    H137484   5.184   6.957  14.352  1.1917  0.7099  0.3459
 5331TIP3    H237485   5.088   7.050  14.424  0.4300  0.0851  0.1518
 5332TIP3   OH237486   0.421   1.381   0.981 -0.0825 -0.3142  0.2886
 5332TIP3    H137487   0.452   1.404   1.068  0.0648  0.0877  0.1309
 5332TIP3    H237488   0.372   1.458   0.952  1.7948  0.4896 -0.9119
 5333TIP3   OH237489   3.677   0.950  10.654 -0.0759 -0.4098  0.0550
 5333TIP3    H137490   3.770   0.931  10.646  0.4411  1.5632  0.8865
 5333TIP3    H237491   3.672   1.021  10.718 -2.1328 -0.2265 -0.2349
 5334TIP3   OH237492   7.212   3.210  14.374 -0.4101 -0.7363 -0.7949
 5334TIP3    H137493   7.163   3.190  14.294  1.4115 -0.5110 -2.0145
 5334TIP3    H237494   7.202   3.305  14.384 -0.6808 -0.7718 -0.7272
 5335TIP3   OH237495   5.365   3.131  10.515 -0.3149 -0.3210 -0.0041
 5335TIP3    H137496   5.301   3.069  10.480  1.0896 -2.0819  0.4353
 5335TIP3    H237497   5.422   3.152  10.440 -0.8193  0.5415 -0.1681
 5336TIP3   OH237498   3.214   5.552  11.260 -0.3918  0.1855  0.4136
 5336TIP3    H137499   3.156   5.520  11.329  0.6375 -0.1178  1.1609
 5336TIP3    H237500   3.295   5.502  11.271  1.1400  2.6736  1.3695
 5337TIP3   OH237501   3.746   3.896  13.432 -0.3489 -0.0005  0.4284
 5337TIP3    H137502   3.803   3.962  13.393 -1.2000  0.2663 -0.3898
 5337TIP3    H237503   3.804   3.847  13.491  0.4807  0.9402  0.4294
 5338TIP3   OH237504   2.053   5.197   0.571 -0.4803 -0.1531  0.5390
 5338TIP3    H137505   2.091   5.135   0.508 -1.7003  0.3403 -0.7568
 5338TIP3    H237506   1.960   5.175   0.572 -0.5776  0.2599  1.7316
 5339TIP3   OH237507   1.749   2.644   2.405 -0.2381 -0.1021  0.3378
 5339TIP3    H137508   1.695   2.719   2.429 -1.0525 -0.5621 -0.0463
 5339TIP3    H237509   1.693   2.568   2.418  0.7964 -0.7111  1.3557
 5340TIP3   OH237510   2.812   2.960   1.476  0.5957  0.0670 -0.3703
 5340TIP3    H137511   2.883   2.929   1.419 -0.3418 -1.6842 -0.6646
 5340TIP3    H237512   2.749   3.000   1.415  0.4026 -0.2184 -0.3602
 5341TIP3   OH237513   0.747   7.174  13.653  0.1402 -0.0501  0.0032
 5341TIP3    H137514   0.806   7.108  13.616 -0.4816 -1.2147  1.0210
 5341TIP3    H237515   0.802   7.253  13.662  0.7646 -0.2467 -1.6917
 5342TIP3   OH237516   3.812   7.149   0.748 -0.3541 -0.1688  0.1427
 5342TIP3    H137517   3.805   7.223   0.688  0.2263 -0.9219 -0.8851
 5342TIP3    H237518   3.832   7.074   0.691  1.4267 -0.6866  1.3886
 5343TIP3   OH237519   3.634   5.940  11.681  0.1860  0.2323  0.4511
 5343TIP3    H137520   3.699   5.869  11.682  0.1176  0.1663  1.1179
 5343TIP3    H237521   3.552   5.898  11.709 -0.0564  0.3922 -0.0129
 5344TIP3   OH237522   4.754   0.616   0.233  0.3943  0.0044  0.3356
 5344TIP3    H137523   4.703   0.653   0.305  1.3519  0.1196  0.9672
 5344TIP3    H237524   4.723   0.526   0.225  0.6242 -0.1566  1.2133
 5345TIP3   OH237525   1.461   6.708  13.850 -0.6355 -0.1979 -0.5219
 5345TIP3    H137526   1.537   6.661  13.815  0.7630  2.2683 -1.0717
 5345TIP3    H237527   1.486   6.729  13.940 -0.8067  0.3187 -0.5931
 5346TIP3   OH237528   5.517   0.063  10.780  0.3130  0.2647  0.3903
 5346TIP3    H137529   5.609   0.069  10.806  1.3775  0.8852 -3.0343
 5346TIP3    H237530   5.486   0.154  10.778  0.7506  0.4224 -1.7552
 5347TIP3   OH237531   0.456   3.356   3.650  0.4409  0.5392 -0.2711
 5347TIP3    H137532   0.477   3.332   3.560  0.8527 -2.5795  0.5268
 5347TIP3    H237533   0.397   3.431   3.642 -2.2122 -1.6094 -3.2885
 5348TIP3   OH237534   3.261   0.636   9.828  0.3614  0.1167  0.5070
 5348TIP3    H137535   3.317   0.697   9.781  0.2708 -0.8908 -0.9713
 5348TIP3    H237536   3.322   0.573   9.866  0.3346 -0.0711  0.2423
 5349TIP3   OH237537   2.779   4.880  12.812  0.0963 -0.1436  0.4036
 5349TIP3    H137538   2.699   4.848  12.771  0.3941 -1.0833  0.5200
 5349TIP3    H237539   2.832   4.914  12.740 -0.1139 -0.1704  0.2375
 5350TIP3   OH237540   5.670   2.606  10.587  0.7390  0.1964  0.4462
 5350TIP3    H137541   5.753   2.615  10.541  0.1654 -0.1784 -0.7151
 5350TIP3    H237542   5.692   2.562  10.669  1.6930  0.1739  0.1838
 5351TIP3   OH237543   5.852   2.613  11.920 -0.4443 -1.1435 -0.1702
 5351TIP3    H137544   5.794   2.559  11.866 -1.9354  0.7520 -0.5977
 5351TIP3    H237545   5.794   2.650  11.987  0.6787 -0.6864  0.5757
 5352TIP3   OH237546   1.657   0.033  14.103 -0.6622 -0.1045  0.2486
 5352TIP3    H137547   1.696   0.091  14.037 -2.8388  1.1135 -0.0454
 5352TIP3    H237548   1.725   0.024  14.170 -1.1059  5.2104  1.8134
 5353TIP3   OH237549   0.342   0.191  10.471 -0.1532  0.7243 -0.1845
 5353TIP3    H137550   0.304   0.272  10.437  0.5713  0.8774 -0.6321
 5353TIP3    H237551   0.356   0.208  10.564 -0.6209  0.8695 -0.1364
 5354TIP3   OH237552   1.403   4.736   9.599 -0.2469  0.0948  0.4166
 5354TIP3    H137553   1.462   4.721   9.525  0.4451  0.0560  0.9657
 5354TIP3    H237554   1.370   4.648   9.621  1.3726 -0.2434  1.6346
 5355TIP3   OH237555   2.173   1.532  10.130 -0.2175  0.4410  0.1107
 5355TIP3    H137556   2.214   1.452  10.097 -1.3139  0.0392 -0.3302
 5355TIP3    H237557   2.152   1.582  10.051 -0.6291  0.6022  0.3204
 5356TIP3   OH237558   5.346   2.052   0.038 -0.4435  0.3788 -0.4399
 5356TIP3    H137559   5.413   2.031   0.104 -0.9467 -0.5049 -0.1896
 5356TIP3    H237560   5.381   2.014  -0.043 -0.3302  0.5186 -0.4579
 5357TIP3   OH237561   0.174   4.870   4.765  0.0777  0.1796  0.4591
 5357TIP3    H137562   0.137   4.957   4.778 -0.6205 -0.0507  0.0428
 5357TIP3    H237563   0.098   4.812   4.762  0.3279 -0.1025 -2.1302
 5358TIP3   OH237564   1.105   6.822  14.662  0.6112 -0.0765  0.4361
 5358TIP3    H137565   1.042   6.894  14.670  1.6820  0.9295  0.0231
 5358TIP3    H237566   1.080   6.761  14.732  0.5460  1.3644  1.7090
 5359TIP3   OH237567   3.504   4.994  13.835  0.1801 -0.1697 -0.3062
 5359TIP3    H137568   3.559   5.038  13.901 -1.1857 -1.1459  1.5679
 5359TIP3    H237569   3.423   5.044  13.834 -0.9997 -1.9620  1.0966
 5360TIP3   OH237570   6.883   2.305   0.416 -0.3064  0.1607  0.3806
 5360TIP3    H137571   6.836   2.284   0.336  0.7321 -0.2874 -0.1381
 5360TIP3    H237572   6.940   2.229   0.431  1.6502  1.4413 -0.1043
 5361TIP3   OH237573   3.858   4.551   9.521  0.5058  0.2213  0.8034
 5361TIP3    H137574   3.799   4.614   9.563 -1.8090 -1.2256 -0.1037
 5361TIP3    H237575   3.889   4.596   9.443  0.4479  0.9214  1.1703
 5362TIP3   OH237576   1.832   0.483  12.359  0.1794  0.0544  0.5023
 5362TIP3    H137577   1.875   0.540  12.423 -1.2390  1.2957  0.4042
 5362TIP3    H237578   1.770   0.540  12.314  0.1174 -1.1347 -0.9946
 5363TIP3   OH237579   5.439   5.171  11.612 -0.0418  0.1192 -0.0284
 5363TIP3    H137580   5.448   5.179  11.707 -0.8644 -0.2290  0.0944
 5363TIP3    H237581   5.524   5.140  11.582  0.4400  0.9045  0.5080
 5364TIP3   OH237582   1.706   3.966  14.074 -0.1921 -0.0596  0.0237
 5364TIP3    H137583   1.762   4.018  14.015  1.8414 -1.5071  0.5529
 5364TIP3    H237584   1.660   4.031  14.127 -1.1560  1.2670 -2.2498
 5365TIP3   OH237585   0.324   2.388  10.884 -0.6623  0.0636 -0.6618
 5365TIP3    H137586   0.340   2.475  10.922  0.8329  0.6407 -2.4559
 5365TIP3    H237587   0.410   2.346  10.884 -1.2951 -1.2900 -0.2206
 5366TIP3   OH237588   1.727   2.066  11.530  0.4381 -0.0072  0.1252
 5366TIP3    H137589   1.654   2.007  11.512  0.9332 -0.4903 -0.3572
 5366TIP3    H237590   1.692   2.130  11.592  0.0221 -1.0727  1.0089
 5367TIP3   OH237591   3.652   6.622  15.148  0.2221  0.6869  0.5476
 5367TIP3    H137592   3.619   6.712  15.148  1.1972  1.0745  1.7822
 5367TIP3    H237593   3.743   6.629  15.175  0.5195 -0.6203 -0.0194
 5368TIP3   OH237594   4.618   5.453  12.804  0.4146  0.0517 -0.2207
 5368TIP3    H137595   4.533   5.493  12.823 -0.3462 -0.8446 -1.5675
 5368TIP3    H237596   4.637   5.398  12.880 -0.1678  0.2994  0.1105
 5369TIP3   OH237597   1.949   4.936  12.786 -0.4766  0.0710 -0.5176
 5369TIP3    H137598   2.008   4.861  12.796 -0.3627  0.0196 -1.4869
 5369TIP3    H237599   2.001   5.002  12.740  0.3726  1.8732  2.6625
 5370TIP3   OH237600   6.838   0.757  13.573  0.2965 -0.3826  0.2876
 5370TIP3    H137601   6.854   0.745  13.666  0.7244 -1.0687  0.1365
 5370TIP3    H237602   6.857   0.671  13.534  2.1048  0.3981 -0.6832
 5371TIP3   OH237603   5.612   1.831  14.412 -0.0565  0.0814 -0.3027
 5371TIP3    H137604   5.645   1.742  14.427 -1.0035 -0.5381 -1.5870
 5371TIP3    H237605   5.592   1.833  14.318 -1.5049  1.1304 -0.0175
 5372TIP3   OH237606   3.007   6.400  13.713  0.3476  0.0043  0.2672
 5372TIP3    H137607   3.099   6.427  13.707  0.4462 -0.2990  0.3951
 5372TIP3    H237608   2.959   6.482  13.725  0.3492  0.4650 -2.1880
 5373TIP3   OH237609   7.175   3.419   9.490 -0.3369  0.5383  0.0210
 5373TIP3    H137610   7.204   3.489   9.549  0.2672 -0.5199  1.0246
 5373TIP3    H237611   7.122   3.362   9.546 -2.4115  1.1508 -1.2124
 5374TIP3   OH237612   6.155   6.911   9.956  0.1285  0.0883  0.8805
 5374TIP3    H137613   6.099   6.837   9.982 -0.8306  0.1195 -0.9302
 5374TIP3    H237614   6.201   6.879   9.878 -1.1496  1.6956 -0.6405
 5375TIP3   OH237615   7.209   2.000  12.604  0.0313  0.0119  0.0986
 5375TIP3    H137616   7.256   1.936  12.550  0.6154 -1.4137  2.2082
 5375TIP3    H237617   7.122   2.006  12.564  0.0576 -1.8836 -0.3218
 5376TIP3   OH237618   5.080   4.548  14.355 -0.0624 -0.2085 -0.4243
 5376TIP3    H137619   5.044   4.602  14.285 -2.0762 -1.6896 -0.6054
 5376TIP3    H237620   5.139   4.487  14.310 -0.7497 -0.6489 -0.7357
 5377TIP3   OH237621   5.933   2.626  11.041 -0.0654 -1.1260 -0.1455
 5377TIP3    H137622   5.951   2.532  11.029 -0.4675 -0.9282 -2.9024
 5377TIP3    H237623   6.019   2.666  11.048  0.1139 -1.6797  0.9608
 5378TIP3   OH237624   3.441   2.338   9.981  0.3842 -0.2736 -0.5199
 5378TIP3    H137625   3.473   2.377   9.900 -0.5272  1.3540 -0.1402
 5378TIP3    H237626   3.367   2.284   9.953 -1.3293  1.9802 -0.6242
 5379TIP3   OH237627   6.311   3.792  10.037  0.3910  0.0700  0.0963
 5379TIP3    H137628   6.253   3.802  10.113  2.1445 -1.0419  1.6650
 5379TIP3    H237629   6.266   3.840   9.967 -3.1267 -1.8378  0.7644
 5380TIP3   OH237630   2.793   0.138  11.139  0.2924 -0.2254  0.6097
 5380TIP3    H137631   2.752   0.132  11.225  0.3476 -2.4039  0.5315
 5380TIP3    H237632   2.881   0.171  11.157  0.8723 -2.1988  1.6299
 5381TIP3   OH237633   3.219   1.854  15.020  0.4619  0.2525 -0.2923
 5381TIP3    H137634   3.145   1.913  15.033 -0.9780 -1.1818 -1.6527
 5381TIP3    H237635   3.185   1.784  14.964  2.5699 -0.9982 -0.1045
 5382TIP3   OH237636   7.101   0.046  12.817  0.1878  0.2688  0.6051
 5382TIP3    H137637   7.195   0.045  12.833  0.0980  1.4359  1.3389
 5382TIP3    H237638   7.066  -0.023  12.874  0.6172 -0.3783  0.0999
 5383TIP3   OH237639   2.172   4.792  11.998 -0.4622 -0.7014 -0.2405
 5383TIP3    H137640   2.094   4.768  11.950 -1.7046  1.1978  0.6921
 5383TIP3    H237641   2.164   4.887  12.012  0.5106 -0.9186  2.4355
 5384TIP3   OH237642   7.041   1.710  12.491  0.1495  0.2106 -0.2470
 5384TIP3    H137643   7.020   1.796  12.528 -1.7978 -0.9386  1.5629
 5384TIP3    H237644   7.064   1.657  12.567  0.1179 -1.2047 -1.2006
 5385TIP3   OH237645   5.094   3.104   0.619  0.4900 -0.5688 -0.0629
 5385TIP3    H137646   5.092   3.094   0.524 -0.1485 -1.9598  0.0721
 5385TIP3    H237647   5.016   3.155   0.640  0.1838 -0.9709 -0.2208
 5386TIP3   OH237648   3.764   5.542  11.571  0.0775  0.3602  0.3627
 5386TIP3    H137649   3.680   5.576  11.539  0.3482  0.7880  0.0949
 5386TIP3    H237650   3.741   5.489  11.648 -0.4875  0.0799  0.0126
 5387TIP3   OH237651   5.377   4.465  10.973  0.5065  0.3096  0.3352
 5387TIP3    H137652   5.404   4.440  11.062  1.0892 -2.3253 -0.4849
 5387TIP3    H237653   5.410   4.394  10.918  3.5330  3.6061 -2.5994
 5388TIP3   OH237654   5.508   7.209  10.200 -0.1608  0.6198  0.0497
 5388TIP3    H137655   5.576   7.143  10.204  1.3880  2.0213 -1.3946
 5388TIP3    H237656   5.552   7.287  10.165 -2.1632  2.0512  0.5161
 5389TIP3   OH237657   2.475   1.438  10.325 -0.2149  0.0036 -0.6744
 5389TIP3    H137658   2.390   1.447  10.283  0.0796  1.2020 -1.0487
 5389TIP3    H237659   2.485   1.344  10.340 -1.3253 -0.2064 -1.1900
 5390TIP3   OH237660   1.345   4.029   1.422  0.0522  0.9512 -0.4932
 5390TIP3    H137661   1.258   4.068   1.419  0.5663  2.1855 -0.1471
 5390TIP3    H237662   1.337   3.955   1.482 -0.9476  0.5170 -1.1444
 5391TIP3   OH237663   1.884   5.611  13.086 -0.6375  0.3480  0.0776
 5391TIP3    H137664   1.955   5.562  13.046 -0.4012  0.3002  0.5579
 5391TIP3    H237665   1.923   5.652  13.163 -0.7734  1.4419 -0.4084
 5392TIP3   OH237666   1.914   1.330  12.140 -0.0797  0.1026  0.0928
 5392TIP3    H137667   1.916   1.332  12.236 -0.5373 -0.6326  0.1221
 5392TIP3    H237668   1.891   1.240  12.118 -0.1831  0.3168 -0.7058
 5393TIP3   OH237669   1.429   5.303   9.982  0.3357 -0.1041 -0.4646
 5393TIP3    H137670   1.414   5.391  10.017 -0.8308 -0.1678 -0.7652
 5393TIP3    H237671   1.520   5.305   9.951 -0.2045  1.5775 -2.1359
 5394TIP3   OH237672   1.152   3.520  13.302 -0.3741 -0.2970  0.3855
 5394TIP3    H137673   1.123   3.472  13.224 -0.5044 -1.2807  1.0277
 5394TIP3    H237674   1.174   3.607  13.269  1.6943 -1.3097 -1.1769
 5395TIP3   OH237675   0.529   7.131  11.424 -0.4745  0.8025 -0.0280
 5395TIP3    H137676   0.482   7.082  11.357 -0.5172  1.9671 -0.8800
 5395TIP3    H237677   0.499   7.095  11.507 -0.1067 -0.9610 -0.6230
 5396TIP3   OH237678   6.691   4.157  11.787 -0.1148  0.1431  0.3120
 5396TIP3    H137679   6.672   4.150  11.693  0.2571 -1.5075  0.3347
 5396TIP3    H237680   6.737   4.076  11.808 -1.5021 -0.1978  2.2406
 5397TIP3   OH237681   1.088   4.650  10.174  0.8542  0.5260  0.6122
 5397TIP3    H137682   1.060   4.687  10.258  1.1687  0.8452  0.5762
 5397TIP3    H237683   1.104   4.725  10.118 -1.8253  0.3195 -0.5844
 5398TIP3   OH237684   3.590   0.223  10.393  0.0857  0.0395  0.1246
 5398TIP3    H137685   3.649   0.298  10.379 -2.2038  1.7946 -0.7279
 5398TIP3    H237686   3.564   0.196  10.305 -2.0711  0.7649  0.4888
 5399TIP3   OH237687   5.732   6.055   3.093 -0.2516  0.1957  0.4417
 5399TIP3    H137688   5.809   6.041   3.038 -0.9026  1.0369 -0.7264
 5399TIP3    H237689   5.660   6.011   3.045 -0.7116  0.4129  0.9275
 5400TIP3   OH237690   3.871   0.021   2.103 -0.8816 -0.4572  0.5188
 5400TIP3    H137691   3.873   0.114   2.127  2.5792 -0.3376  0.3437
 5400TIP3    H237692   3.847   0.020   2.011  1.6751  0.6240 -0.2494
 5401TIP3   OH237693   4.301   3.984  15.339  0.4321  0.3561  0.0783
 5401TIP3    H137694   4.285   3.891  15.357  1.8936 -0.0979 -0.7695
 5401TIP3    H237695   4.351   3.984  15.257  0.9984  1.8543  0.3952
 5402TIP3   OH237696   7.252   3.702  11.929  0.5039 -0.2414  0.2539
 5402TIP3    H137697   7.256   3.607  11.924 -1.9845 -0.3646 -0.9067
 5402TIP3    H237698   7.343   3.731  11.921  1.2570 -2.4885  0.1510
 5403TIP3   OH237699   7.108   6.570   2.077 -0.4825 -0.1625 -0.1716
 5403TIP3    H137700   7.192   6.547   2.118  0.6120  0.6792 -1.8438
 5403TIP3    H237701   7.042   6.547   2.143  1.0612 -0.6883  1.2536
 5404TIP3   OH237702   5.535   5.377  10.613 -0.1810  0.2510 -1.2749
 5404TIP3    H137703   5.486   5.425  10.680 -0.5561 -1.0382 -0.5911
 5404TIP3    H237704   5.611   5.432  10.595 -1.6027  2.0953 -2.0295
 5405TIP3   OH237705   6.462   6.921   1.785  0.5990  0.3812 -0.3952
 5405TIP3    H137706   6.518   6.944   1.859  0.6559  1.6138 -0.7960
 5405TIP3    H237707   6.428   7.005   1.754 -0.4934 -0.2381 -0.9310
 5406TIP3   OH237708   0.537   2.009  11.939  0.1616 -0.6032  0.5074
 5406TIP3    H137709   0.489   1.930  11.912 -0.2540 -0.5715  1.1274
 5406TIP3    H237710   0.540   2.063  11.860  2.4150 -2.1637 -0.5666
 5407TIP3   OH237711   6.686   5.096  10.847  0.1168  0.2980  0.1183
 5407TIP3    H137712   6.718   5.184  10.867  1.0836 -0.2345  1.0491
 5407TIP3    H237713   6.595   5.109  10.819 -0.3161  1.4442  1.8600
 5408TIP3   OH237714   4.758   4.656  10.529  0.6601 -0.2147  0.0956
 5408TIP3    H137715   4.787   4.733  10.481  2.8563 -1.6495 -1.0936
 5408TIP3    H237716   4.727   4.595  10.462  1.4453 -1.3284  0.6982
 5409TIP3   OH237717   0.491   0.111  11.550 -0.0108  0.4916 -0.0234
 5409TIP3    H137718   0.578   0.099  11.588  1.7509  2.4384 -2.9953
 5409TIP3    H237719   0.496   0.068  11.464 -0.7502  3.3004 -1.6300
 5410TIP3   OH237720   1.039   6.659  11.810  0.1381 -0.4685  0.0638
 5410TIP3    H137721   1.014   6.617  11.727  0.8453  0.4159 -0.6163
 5410TIP3    H237722   0.974   6.729  11.822 -0.2503 -0.8955  0.5194
 5411TIP3   OH237723   3.730   5.456  11.154 -0.0115 -0.8172 -0.1068
 5411TIP3    H137724   3.718   5.509  11.076 -1.1190 -1.8517 -0.6826
 5411TIP3    H237725   3.802   5.397  11.134  0.6634 -0.1184  0.2178
 5412TIP3   OH237726   5.770   6.484   3.398  0.6469  0.1477 -0.6711
 5412TIP3    H137727   5.752   6.394   3.427  1.6829  0.5224  1.3323
 5412TIP3    H237728   5.684   6.523   3.387  0.1558 -0.2937  1.2159
 5413TIP3   OH237729   1.405   4.548   2.085 -0.6414 -0.1307  0.2835
 5413TIP3    H137730   1.389   4.473   2.142  0.0458 -0.6548 -0.1919
 5413TIP3    H237731   1.469   4.601   2.133  0.5191 -0.9614 -0.3206
 5414TIP3   OH237732   6.658   4.632   1.593 -0.7428  0.4645 -0.1289
 5414TIP3    H137733   6.712   4.677   1.528 -1.9306  0.1674 -1.3588
 5414TIP3    H237734   6.614   4.703   1.640  0.1017  0.6805  0.3621
 5415TIP3   OH237735   1.072   0.583  12.136  0.0648 -0.0896  0.3057
 5415TIP3    H137736   1.070   0.499  12.091  0.3882 -0.6400  1.2986
 5415TIP3    H237737   0.988   0.588  12.181 -0.4280  0.6433 -0.6602
 5416TIP3   OH237738   6.571   2.551  12.180  0.0591  0.0663 -0.3254
 5416TIP3    H137739   6.636   2.504  12.233 -0.3855  0.2720  0.4141
 5416TIP3    H237740   6.489   2.503  12.195 -0.3641  0.9679  0.2960
 5417TIP3   OH237741   0.274   3.932  10.630 -0.1468 -0.1072  0.0403
 5417TIP3    H137742   0.289   3.885  10.548 -1.0565 -0.7214  0.2114
 5417TIP3    H237743   0.321   4.014  10.619  1.3011 -0.9612 -0.3485
 5418TIP3   OH237744   3.626   6.942  12.631 -0.2521 -0.0920 -0.1434
 5418TIP3    H137745   3.542   6.974  12.662  0.2399  0.7467  0.3673
 5418TIP3    H237746   3.662   6.891  12.704 -1.0500 -1.9054 -0.9676
 5419TIP3   OH237747   4.212   0.856  11.784 -0.4918 -0.4389  0.8801
 5419TIP3    H137748   4.241   0.766  11.768  0.6812  0.1719 -0.6887
 5419TIP3    H237749   4.127   0.862  11.741  0.1730 -0.3662 -0.4796
 5420TIP3   OH237750   6.122   6.741  13.306 -0.1717 -0.2651 -0.1190
 5420TIP3    H137751   6.146   6.710  13.219 -1.3778  0.0022 -0.5677
 5420TIP3    H237752   6.056   6.678  13.336  0.5327 -0.5909  0.7784
 5421TIP3   OH237753   6.519   2.361  13.363  0.2200 -0.3065 -0.5396
 5421TIP3    H137754   6.529   2.427  13.294  2.6898 -0.6416 -0.5852
 5421TIP3    H237755   6.462   2.294  13.324  0.4173  0.1883 -1.7195
 5422TIP3   OH237756   6.770   4.413  14.672  0.0151 -0.6279  0.2970
 5422TIP3    H137757   6.762   4.319  14.688  0.1512 -0.4940  1.2254
 5422TIP3    H237758   6.842   4.421  14.609  1.6208 -1.0350  1.9825
 5423TIP3   OH237759   4.291   1.569   2.553 -0.2295 -0.5846  0.1105
 5423TIP3    H137760   4.276   1.483   2.591  0.4135  0.2782  2.4900
 5423TIP3    H237761   4.242   1.629   2.610  1.2625  0.8514 -0.0548
 5424TIP3   OH237762   4.515   1.006  11.284 -0.4549 -0.0080 -0.6739
 5424TIP3    H137763   4.530   0.938  11.217 -1.4319 -0.6236 -0.3047
 5424TIP3    H237764   4.602   1.029  11.315 -0.0747 -0.8516 -1.0624
 5425TIP3   OH237765   3.315   1.768   1.488  0.4715 -0.8689 -0.1182
 5425TIP3    H137766   3.308   1.695   1.427  0.5788 -1.8840  1.0576
 5425TIP3    H237767   3.381   1.741   1.552 -0.1631 -0.1556  0.8828
 5426TIP3   OH237768   2.721   3.822  11.610 -0.1372  0.0436  0.1774
 5426TIP3    H137769   2.727   3.849  11.518  0.1844 -1.2230 -0.1985
 5426TIP3    H237770   2.739   3.728  11.608  2.3675  0.3818  1.8061
 5427TIP3   OH237771   1.789   1.206   1.920 -0.2731  0.3330  0.4740
 5427TIP3    H137772   1.843   1.202   1.840 -1.6959 -1.3948 -0.4806
 5427TIP3    H237773   1.815   1.128   1.969 -2.2503 -0.8917 -0.3047
 5428TIP3   OH237774   4.352   5.641  10.919 -0.2232 -0.4369  0.1796
 5428TIP3    H137775   4.387   5.717  10.966  0.7791 -1.3127  0.8778
 5428TIP3    H237776   4.428   5.601  10.878 -0.9568 -0.1985 -1.5095
 5429TIP3   OH237777   3.407   5.118  12.542  0.1387  0.0192 -0.6585
 5429TIP3    H137778   3.395   5.050  12.476 -0.9026 -0.2151 -0.2523
 5429TIP3    H237779   3.489   5.095  12.586  0.4684 -0.2247 -1.3788
 5430TIP3   OH237780   0.352   5.092  11.919  0.2769  0.1944 -0.1755
 5430TIP3    H137781   0.444   5.079  11.943  0.2939  1.0392  0.2414
 5430TIP3    H237782   0.350   5.175  11.872 -0.2204 -0.0114 -0.5308
 5431TIP3   OH237783   1.652   1.667  14.469  0.0807 -0.2743 -0.6193
 5431TIP3    H137784   1.622   1.737  14.411 -0.9892  1.0363  1.3998
 5431TIP3    H237785   1.573   1.619  14.492  0.0377  0.7396  1.6088
 5432TIP3   OH237786   1.622   0.601  10.932  0.2761  0.1886 -0.5688
 5432TIP3    H137787   1.601   0.517  10.973  1.0312 -1.1807 -2.8133
 5432TIP3    H237788   1.599   0.589  10.840 -0.6724  2.8700 -0.7638
 5433TIP3   OH237789   3.139   3.703  13.460  0.0640  0.3941 -0.0147
 5433TIP3    H137790   3.140   3.792  13.423 -0.3811  0.8619  1.0441
 5433TIP3    H237791   3.230   3.688  13.488  0.3483  0.1287 -1.0657
 5434TIP3   OH237792   4.391   4.124   9.983  1.3164 -0.2178  0.6359
 5434TIP3    H137793   4.392   4.213  10.019  0.7623 -0.7383  2.0233
 5434TIP3    H237794   4.446   4.129   9.906  0.4779  1.5839  0.0836
 5435TIP3   OH237795   4.377   1.504  10.694 -0.1852 -0.4910  0.7570
 5435TIP3    H137796   4.427   1.521  10.614 -1.0903  1.8540  0.5949
 5435TIP3    H237797   4.285   1.507  10.666 -0.5083  0.1274  1.8059
 5436TIP3   OH237798   6.541   6.644  13.180 -0.3344  0.2232  0.0800
 5436TIP3    H137799   6.554   6.736  13.202  0.6862 -0.0988  0.9045
 5436TIP3    H237800   6.539   6.599  13.265  0.7330 -0.6911 -0.3596
 5437TIP3   OH237801   0.506   6.591  14.767  0.1217 -0.5745 -0.3510
 5437TIP3    H137802   0.580   6.641  14.802 -1.5002  0.4563  1.8234
 5437TIP3    H237803   0.487   6.633  14.682  0.6017  0.6383  0.1154
 5438TIP3   OH237804   5.148   5.924  11.151  0.3100 -0.5894  0.5441
 5438TIP3    H137805   5.192   6.005  11.174 -1.3171  0.6804 -0.5483
 5438TIP3    H237806   5.056   5.949  11.140  0.1907 -1.8801 -2.7429
 5439TIP3   OH237807   3.451   6.798   0.279  0.1043 -0.3289  0.0187
 5439TIP3    H137808   3.526   6.849   0.309 -0.6900  0.7014  0.3608
 5439TIP3    H237809   3.482   6.708   0.274  1.2841  0.0425  0.3724
 5440TIP3   OH237810   6.583   4.434   4.852 -0.4626 -0.1294 -0.1128
 5440TIP3    H137811   6.660   4.447   4.908 -1.9907  0.8070  1.9151
 5440TIP3    H237812   6.560   4.522   4.822 -0.5518 -0.4536 -1.0378
 5441TIP3   OH237813   1.744   4.502  14.269 -0.3540  0.1249  0.7738
 5441TIP3    H137814   1.814   4.546  14.220  0.8260 -0.6340  1.7219
 5441TIP3    H237815   1.713   4.568  14.331 -0.0866  0.2922  0.7334
 5442TIP3   OH237816   2.691   1.629   4.182 -0.0147  0.8180  0.5027
 5442TIP3    H137817   2.633   1.655   4.252 -1.3073  1.3579 -0.7199
 5442TIP3    H237818   2.775   1.612   4.225  0.0551  3.8823  1.8176
 5443TIP3   OH237819   3.780   5.454  12.328 -0.1657 -0.0130 -0.7960
 5443TIP3    H137820   3.770   5.463  12.423  2.6901  0.8690 -0.5099
 5443TIP3    H237821   3.691   5.435  12.297 -1.3759  0.7591  1.9012
 5444TIP3   OH237822   0.401   1.504   2.411 -0.8811  0.1973  0.3656
 5444TIP3    H137823   0.431   1.483   2.499  0.2775  0.6151  0.0837
 5444TIP3    H237824   0.307   1.522   2.421 -1.3176 -2.1224  1.1176
 5445TIP3   OH237825   1.216   3.611  13.750  0.0956 -0.1760  1.1626
 5445TIP3    H137826   1.213   3.573  13.663  0.0395  2.3185 -0.0002
 5445TIP3    H237827   1.128   3.596  13.786 -0.1657 -0.4298  0.4251
 5446TIP3   OH237828   1.292   5.229  14.654 -0.3003  0.3080  0.2659
 5446TIP3    H137829   1.260   5.144  14.626 -1.0514  0.3069  1.0798
 5446TIP3    H237830   1.248   5.245  14.738 -1.1985  2.0668 -0.4875
 5447TIP3   OH237831   2.486   1.005  11.608  0.4970  0.2024 -0.4765
 5447TIP3    H137832   2.414   1.055  11.646  0.4247 -0.2303 -0.0402
 5447TIP3    H237833   2.462   0.913  11.623  1.0354  0.0542 -0.5189
 5448TIP3   OH237834   3.062   3.196  10.429 -0.2092 -0.1248  0.0871
 5448TIP3    H137835   3.144   3.152  10.407  0.3533  1.3090 -0.8416
 5448TIP3    H237836   3.025   3.144  10.500  0.7250 -1.6949 -0.5291
 5449TIP3   OH237837   5.624   4.722  13.546  0.4007  0.6637  0.2300
 5449TIP3    H137838   5.548   4.760  13.502 -0.1962  2.6481  2.7603
 5449TIP3    H237839   5.699   4.750  13.494 -0.4711 -1.5069 -2.4414
 5450TIP3   OH237840   5.184   3.385   0.410  0.5451 -0.1268  0.5495
 5450TIP3    H137841   5.125   3.459   0.400 -1.4179 -1.8642 -1.6739
 5450TIP3    H237842   5.168   3.352   0.499 -1.1584  0.0202  0.3190
 5451TIP3   OH237843   6.056   0.202   9.253 -0.5160  0.4780  0.3322
 5451TIP3    H137844   5.968   0.183   9.221 -0.1760 -0.1237 -0.2713
 5451TIP3    H237845   6.050   0.291   9.289 -1.0264  1.0068 -0.9977
 5452TIP3   OH237846   1.584   2.101  12.563  0.1534 -0.3269 -0.0595
 5452TIP3    H137847   1.533   2.150  12.628  0.4419 -0.5969  0.3776
 5452TIP3    H237848   1.604   2.165  12.495  2.3948  0.7759  1.5202
 5453TIP3   OH237849   0.160   2.361   5.581  0.2042  0.0048  0.0948
 5453TIP3    H137850   0.230   2.337   5.642  1.0889  0.1569 -0.8345
 5453TIP3    H237851   0.193   2.334   5.495 -1.1698 -0.5331 -0.2842
 5454TIP3   OH237852   6.390   3.644  13.348 -0.3511  0.2152 -0.4353
 5454TIP3    H137853   6.347   3.622  13.266 -0.4764 -0.5679 -0.1686
 5454TIP3    H237854   6.389   3.740  13.351  0.1573  0.2680 -1.5993
 5455TIP3   OH237855   6.885   4.131  11.418  0.3643  0.0235 -0.0221
 5455TIP3    H137856   6.930   4.053  11.449  0.4344  0.1347  0.1579
 5455TIP3    H237857   6.846   4.105  11.334 -0.5435 -0.5301  0.5539
 5456TIP3   OH237858   6.552   1.995  12.866  0.1192  0.6326  0.5803
 5456TIP3    H137859   6.539   1.990  12.960  0.0022  0.7751  0.5725
 5456TIP3    H237860   6.488   1.934  12.829 -2.6394  3.3864  0.3825
 5457TIP3   OH237861   2.912   4.036  14.905  0.5751 -0.1800  0.5061
 5457TIP3    H137862   2.868   3.951  14.899 -1.7522  0.9410  0.5171
 5457TIP3    H237863   2.905   4.072  14.817 -0.2631  0.8040  0.9562
 5458TIP3   OH237864   4.778   3.312  13.852  0.1608  0.0958  0.2601
 5458TIP3    H137865   4.840   3.334  13.783 -0.3040 -2.8751 -1.2874
 5458TIP3    H237866   4.822   3.245  13.904 -1.2943 -1.3703 -0.2957
 5459TIP3   OH237867   5.885   3.594  10.447 -0.0266 -0.3694 -0.3976
 5459TIP3    H137868   5.904   3.683  10.419 -0.3890 -0.6339 -1.5378
 5459TIP3    H237869   5.958   3.542  10.412  0.1115 -0.5545  0.1450
 5460TIP3   OH237870   1.659   6.616  11.568 -0.4573 -0.0777 -0.2108
 5460TIP3    H137871   1.753   6.599  11.577 -0.5181 -1.0971 -1.3506
 5460TIP3    H237872   1.619   6.564  11.638 -0.1873  0.2760  0.2099
 5461TIP3   OH237873   6.003   5.720   1.909  0.4041  0.4616 -0.3355
 5461TIP3    H137874   6.066   5.779   1.866  3.1002 -2.4726 -0.8158
 5461TIP3    H237875   6.015   5.737   2.003  2.0096 -0.0188 -0.4176
 5462TIP3   OH237876   4.434   1.966   0.337  0.0834  0.1227  0.2069
 5462TIP3    H137877   4.517   1.948   0.381 -0.4896 -1.2600  0.7666
 5462TIP3    H237878   4.384   2.017   0.401  0.0153 -0.1538  0.3748
 5463TIP3   OH237879   6.693   4.942  14.222 -0.3596  0.7325  0.3269
 5463TIP3    H137880   6.761   4.926  14.157  0.0005  0.7003  0.7041
 5463TIP3    H237881   6.622   4.883  14.197 -0.1015  0.4969  0.1402
 5464TIP3   OH237882   2.714   0.793  13.894 -0.4498 -0.2231 -0.4359
 5464TIP3    H137883   2.695   0.885  13.914 -0.4077  0.3674 -2.8282
 5464TIP3    H237884   2.676   0.745  13.968 -2.8746  1.5443 -0.3900
 5465TIP3   OH237885   2.207   2.758   1.699 -0.2141 -0.8463  0.2048
 5465TIP3    H137886   2.217   2.741   1.792  0.5407 -1.9305 -0.0576
 5465TIP3    H237887   2.277   2.821   1.679 -2.6227  2.3428  1.0480
 5466TIP3   OH237888   5.943   6.685   4.041  0.0194 -0.7306  0.1525
 5466TIP3    H137889   5.924   6.731   4.123  1.2742 -0.0680  0.0833
 5466TIP3    H237890   6.003   6.743   3.994  1.2902 -2.2318 -0.1377
 5467TIP3   OH237891   3.228   2.189  10.753  0.4061  0.2395 -0.0144
 5467TIP3    H137892   3.235   2.261  10.691  1.6520 -0.1582 -0.3557
 5467TIP3    H237893   3.311   2.142  10.745 -0.4894 -1.4081 -0.0196
 5468TIP3   OH237894   0.894   3.333   0.100 -0.2515 -0.4200 -0.0475
 5468TIP3    H137895   0.965   3.270   0.106 -1.4342 -1.9360 -1.0966
 5468TIP3    H237896   0.937   3.417   0.089  1.3842 -1.3279 -1.0084
 5469TIP3   OH237897   6.049   6.132   0.875 -0.0305 -0.2408  0.0540
 5469TIP3    H137898   6.067   6.095   0.789  2.3844  2.2611 -0.6571
 5469TIP3    H237899   5.960   6.168   0.868 -0.0097 -0.4112 -1.2609
 5470TIP3   OH237900   5.886   5.065  10.851 -0.4201  0.2868  0.0038
 5470TIP3    H137901   5.917   5.022  10.931 -0.2636 -1.2671 -0.8492
 5470TIP3    H237902   5.961   5.063  10.792 -1.0083 -0.0732 -0.7472
 5471TIP3   OH237903   3.920   3.968   2.595  0.4726 -0.1245  0.2735
 5471TIP3    H137904   3.882   3.880   2.594  1.3353 -0.4963 -0.5073
 5471TIP3    H237905   4.012   3.955   2.614  0.9764  0.4363 -1.5292
 5472TIP3   OH237906   4.228   5.362   0.522 -0.1838 -0.1780  0.2238
 5472TIP3    H137907   4.215   5.383   0.429 -0.4058 -2.1711 -0.2565
 5472TIP3    H237908   4.186   5.277   0.533  1.7738 -1.0546  1.6041
 5473TIP3   OH237909   6.293   0.001  14.013  0.0926  0.1337 -0.0477
 5473TIP3    H137910   6.325  -0.089  14.010 -0.3725 -0.2206  2.7443
 5473TIP3    H237911   6.371   0.054  14.026  0.0670 -0.4565  3.6800
 5474TIP3   OH237912   4.826   1.290   0.146 -0.1954 -0.3252 -0.3511
 5474TIP3    H137913   4.899   1.283   0.208 -0.9646  1.2891  0.7870
 5474TIP3    H237914   4.793   1.200   0.138 -0.4835 -0.5178  2.1169
 5475TIP3   OH237915   6.028   1.451  12.938  0.0848  0.5524  0.4020
 5475TIP3    H137916   6.067   1.538  12.930 -0.1531  0.8231  1.9810
 5475TIP3    H237917   5.937   1.463  12.913  0.3399  0.4645 -0.6484
 5476TIP3   OH237918   6.895   5.053  13.303 -0.4492  0.6786  0.5472
 5476TIP3    H137919   6.968   4.991  13.300 -3.5243 -3.3315  0.6330
 5476TIP3    H237920   6.897   5.088  13.392  0.7071 -0.2393  0.9182
 5477TIP3   OH237921   3.004   4.010  14.254  0.4069  0.2576 -0.5271
 5477TIP3    H137922   3.014   3.964  14.171 -1.3817  0.6359 -0.9778
 5477TIP3    H237923   2.911   4.033  14.259  0.2987 -0.3672  1.8885
 5478TIP3   OH237924   1.101   6.689   1.517  0.5641 -0.6164  0.4452
 5478TIP3    H137925   1.020   6.641   1.538 -0.1630  0.5366  0.3371
 5478TIP3    H237926   1.077   6.746   1.444  0.9209  1.1359  1.6343
 5479TIP3   OH237927   6.616   4.883   0.214 -0.0804 -0.1825 -0.0387
 5479TIP3    H137928   6.649   4.793   0.219 -0.3315 -0.2287  1.0102
 5479TIP3    H237929   6.553   4.889   0.285 -0.7881  0.5408 -0.7162
 5480TIP3   OH237930   0.957   5.074  10.147 -0.0210  0.5749  0.2577
 5480TIP3    H137931   1.022   5.093  10.214  0.1492 -0.5791  0.4389
 5480TIP3    H237932   0.937   5.159  10.108  1.8513  0.9232 -0.0483
 5481TIP3   OH237933   4.945   3.835  15.009  0.0295 -0.5547 -0.5018
 5481TIP3    H137934   4.866   3.846  14.957  0.5575 -0.7671 -1.3655
 5481TIP3    H237935   5.013   3.880  14.960  0.5743 -0.8841 -0.0713
 5482TIP3   OH237936   2.686   2.815  13.343 -0.5756 -0.3238 -0.1074
 5482TIP3    H137937   2.754   2.865  13.388  0.3905 -2.0884  0.4857
 5482TIP3    H237938   2.711   2.724  13.356 -1.2256 -0.9502 -2.7834
 5483TIP3   OH237939   4.605   5.564  11.459 -0.1182  0.4299  0.0473
 5483TIP3    H137940   4.615   5.591  11.368 -0.2626 -0.6252 -0.2951
 5483TIP3    H237941   4.666   5.620  11.507 -0.0104  0.9748 -0.6989
 5484TIP3   OH237942   1.871   6.915  14.928 -0.6988  0.2609 -0.9441
 5484TIP3    H137943   1.904   6.852  14.992  0.9191  0.3464 -1.6390
 5484TIP3    H237944   1.788   6.946  14.964 -0.8519 -1.2557  0.0583
 5485TIP3   OH237945   2.159   6.514  11.705 -0.1027 -0.1500  1.1281
 5485TIP3    H137946   2.212   6.594  11.703  2.1021 -1.5135 -1.3038
 5485TIP3    H237947   2.193   6.466  11.781  1.9934 -0.7867 -0.1177
 5486TIP3   OH237948   3.841   0.325  11.217  0.2164  0.5245  0.1128
 5486TIP3    H137949   3.786   0.309  11.141  1.4857 -1.0231 -0.5319
 5486TIP3    H237950   3.915   0.376  11.183  0.4636  0.3960  0.4488
 5487TIP3   OH237951   2.273   5.654  10.912 -0.2754 -0.2646 -0.0535
 5487TIP3    H137952   2.277   5.735  10.861 -0.1681 -0.5310 -0.4711
 5487TIP3    H237953   2.277   5.584  10.847  1.2770 -0.6310  0.4064
 5488TIP3   OH237954   0.801   0.900  11.333 -0.0797  0.6459 -0.1310
 5488TIP3    H137955   0.829   0.987  11.304 -0.8730  0.5619 -1.1892
 5488TIP3    H237956   0.834   0.841  11.265  0.6703  0.0778  0.7065
 5489TIP3   OH237957   5.501   3.463  14.105  0.0007  0.0301 -0.0710
 5489TIP3    H137958   5.463   3.384  14.144 -0.2523 -0.5069 -1.3780
 5489TIP3    H237959   5.466   3.466  14.016 -1.0125  2.3172  0.3295
 5490TIP3   OH237960   6.839   4.205  12.382 -0.0691 -0.1999 -0.1501
 5490TIP3    H137961   6.824   4.169  12.470  0.0026  1.4237  0.5823
 5490TIP3    H237962   6.798   4.292  12.386 -0.2650 -0.1960 -1.8175
 5491TIP3   OH237963   4.774   1.965  13.829  0.0700  0.1802 -0.1922
 5491TIP3    H137964   4.751   1.874  13.811  2.5606 -0.1393 -2.2015
 5491TIP3    H237965   4.716   2.016  13.771  0.6010 -0.2973 -1.1600
 5492TIP3   OH237966   5.284   3.225  10.043 -0.2397 -0.1656  0.5595
 5492TIP3    H137967   5.214   3.287  10.064 -0.1824 -0.2721  1.0764
 5492TIP3    H237968   5.354   3.279  10.006  0.2554  0.2506  2.0362
 5493TIP3   OH237969   2.180   5.809  14.673 -0.6443  0.7359  0.2300
 5493TIP3    H137970   2.242   5.868  14.629 -1.4241  1.0522 -0.4978
 5493TIP3    H237971   2.094   5.835  14.638 -0.9892 -1.0675 -0.3877
 5494TIP3   OH237972   0.218   5.040  10.523 -0.1698 -0.6189 -0.2180
 5494TIP3    H137973   0.278   4.972  10.493  1.9266  1.4429 -1.0776
 5494TIP3    H237974   0.144   5.037  10.463  0.6868 -1.0761 -1.2804
 5495TIP3   OH237975   7.025   1.920  10.202 -0.0119 -0.2194 -0.3343
 5495TIP3    H137976   7.079   1.842  10.215  0.5719  0.0651 -1.0274
 5495TIP3    H237977   7.070   1.970  10.133 -0.3511  0.7589  0.1394
 5496TIP3   OH237978   5.269   6.495  10.493  0.5312  0.0348  0.3488
 5496TIP3    H137979   5.186   6.504  10.446 -0.7855  0.6098  2.6539
 5496TIP3    H237980   5.332   6.545  10.440 -0.7197  0.1436 -1.0965
 5497TIP3   OH237981   5.402   4.267  12.471 -0.6653 -0.5114  0.5012
 5497TIP3    H137982   5.393   4.258  12.566 -2.2828  2.3217  0.7405
 5497TIP3    H237983   5.451   4.349  12.459 -0.0588 -1.0668 -1.1376
 5498TIP3   OH237984   1.578   2.665  12.078 -0.2163  0.3111  0.8255
 5498TIP3    H137985   1.570   2.744  12.132  0.0637  1.3817 -0.6139
 5498TIP3    H237986   1.667   2.670  12.043  0.2727 -1.3793  1.7448
 5499TIP3   OH237987   6.767   3.094   3.469  0.2920 -0.0032  0.1970
 5499TIP3    H137988   6.694   3.112   3.529 -0.3981  1.1448 -0.9153
 5499TIP3    H237989   6.737   3.021   3.416  0.0567  0.2881 -0.0751
 5500TIP3   OH237990   4.556   2.919  11.997  0.4086 -0.3875 -0.4269
 5500TIP3    H137991   4.502   2.990  11.961 -1.9600 -2.1365 -0.6138
 5500TIP3    H237992   4.505   2.886  12.071  2.0010 -1.1852  0.3554
 5501TIP3   OH237993   0.125   4.926  14.172 -0.0219 -0.4909 -0.1009
 5501TIP3    H137994   0.087   4.872  14.104 -0.4863  1.2508 -1.2837
 5501TIP3    H237995   0.063   4.921  14.245 -1.4567  0.5268 -1.1852
 5502TIP3   OH237996   2.671   2.429   1.327  0.8325  0.1587 -0.2788
 5502TIP3    H137997   2.650   2.422   1.234 -0.5008  0.1914 -0.0001
 5502TIP3    H237998   2.714   2.514   1.336 -0.1873  0.7366 -0.6806
 5503TIP3   OH237999   0.848   4.795  12.809 -0.2793 -0.0811  0.3364
 5503TIP3    H138000   0.879   4.710  12.777  2.1407  0.8515 -0.0005
 5503TIP3    H238001   0.823   4.778  12.900 -1.3103 -1.4416 -0.1569
 5504TIP3   OH238002   0.450   4.488  15.356 -0.3220  0.4721  0.1459
 5504TIP3    H138003   0.509   4.549  15.311 -0.0677 -1.6192 -2.6775
 5504TIP3    H238004   0.367   4.534  15.361  0.7069  2.2976  1.2977
 5505TIP3   OH238005   2.011   5.372  11.271 -0.4189  0.2166  0.0862
 5505TIP3    H138006   2.064   5.354  11.194  0.1780 -1.2954  0.7911
 5505TIP3    H238007   1.927   5.402  11.237 -0.6983 -1.8404 -1.2430
 5506TIP3   OH238008   3.459   5.335  11.656  0.3545 -0.4165 -0.3120
 5506TIP3    H138009   3.459   5.311  11.564  0.8598  1.4251 -0.8353
 5506TIP3    H238010   3.377   5.301  11.690  0.4614 -1.6983 -1.2573
 5507TIP3   OH238011   2.688   1.974  13.401  0.5285 -0.2793 -0.5081
 5507TIP3    H138012   2.603   1.944  13.370  0.9844 -0.9850 -1.1068
 5507TIP3    H238013   2.670   2.017  13.484 -0.5862  0.7206 -1.2297
 5508TIP3   OH238014   0.126   2.136  12.957 -0.1296  0.5361  0.0202
 5508TIP3    H138015   0.035   2.127  12.930  0.3584 -2.0997 -0.9864
 5508TIP3    H238016   0.177   2.099  12.886  1.5803 -0.4370  1.6509
 5509TIP3   OH238017   7.162   6.818  11.223  0.3697 -0.1622  0.0387
 5509TIP3    H138018   7.254   6.838  11.204  0.7251 -1.8778 -0.1782
 5509TIP3    H238019   7.165   6.745  11.284 -0.8326 -1.2363 -1.1079
 5510TIP3   OH238020   3.012   6.584  11.761  0.2201  0.4930  0.0746
 5510TIP3    H138021   2.985   6.519  11.826  1.7423 -0.5862 -0.3394
 5510TIP3    H238022   3.015   6.666  11.810  0.3368 -0.1146  1.1286
 5511TIP3   OH238023   5.277   5.584  10.202 -0.6243  0.5231 -0.2865
 5511TIP3    H138024   5.357   5.591  10.254 -0.2751  1.0186 -0.8780
 5511TIP3    H238025   5.265   5.490  10.189 -0.2989  0.4340  0.0589
 5512TIP3   OH238026   5.056   3.163  12.493 -0.4791  0.1342 -0.0251
 5512TIP3    H138027   5.021   3.106  12.561  0.0811 -0.3169 -0.1095
 5512TIP3    H238028   5.061   3.108  12.415 -0.3078  0.4120 -0.2136
 5513TIP3   OH238029   0.703   3.701  11.640  0.4790  0.0988 -0.3383
 5513TIP3    H138030   0.708   3.609  11.616 -1.8654  0.1955 -1.5298
 5513TIP3    H238031   0.655   3.702  11.723  0.1250  0.2691 -0.5452
 5514TIP3   OH238032   6.437   5.998  12.839  0.0144  0.0844  0.2589
 5514TIP3    H138033   6.475   6.013  12.926  0.0727  0.0574  0.2379
 5514TIP3    H238034   6.509   6.013  12.778 -0.0800  0.3139  0.2019
 5515TIP3   OH238035   4.989   6.505  10.795  0.2818  0.5125  0.6167
 5515TIP3    H138036   4.941   6.523  10.714  0.5954  0.9144  0.5171
 5515TIP3    H238037   4.926   6.523  10.865 -0.2476 -0.6120  0.4535
 5516TIP3   OH238038   4.813   3.275  10.128  0.1332  0.2319  0.7843
 5516TIP3    H138039   4.768   3.197  10.161  0.8755  0.3579  2.1898
 5516TIP3    H238040   4.801   3.341  10.196  0.1217  1.1371 -0.0670
 5517TIP3   OH238041   1.502   1.633  11.263 -0.3995  0.2535  0.1595
 5517TIP3    H138042   1.583   1.652  11.215  0.5398 -0.5366  1.3771
 5517TIP3    H238043   1.444   1.593  11.198 -1.1969  3.8630 -1.6542
 5518TIP3   OH238044   5.123   3.035  14.410  0.0336  0.1568  0.2072
 5518TIP3    H138045   5.060   3.022  14.339 -0.0989 -0.7494  0.4672
 5518TIP3    H238046   5.181   2.959  14.404 -0.3323 -0.2378  1.4124
 5519TIP3   OH238047   0.493   7.230  13.555 -0.0744 -0.3328 -0.0448
 5519TIP3    H138048   0.572   7.203  13.602 -0.1465 -1.2386 -0.4102
 5519TIP3    H238049   0.440   7.150  13.550 -1.9261  0.6958  1.9056
 5520TIP3   OH238050   3.359   0.192  11.854 -0.0709 -0.2241 -0.0794
 5520TIP3    H138051   3.278   0.223  11.893 -0.5581 -1.7009  0.1505
 5520TIP3    H238052   3.352   0.215  11.762  0.1140  1.3403  0.2737
 5521TIP3   OH238053   5.215   4.293   9.682  0.6404  0.0004  0.1671
 5521TIP3    H138054   5.300   4.252   9.698  1.1750  0.2195 -1.7983
 5521TIP3    H238055   5.154   4.219   9.676  0.5738 -0.1368  1.9761
 5522TIP3   OH238056   4.242   4.121  13.294 -0.0341  0.1741 -0.4980
 5522TIP3    H138057   4.222   4.036  13.255 -1.8679  0.4941 -0.3351
 5522TIP3    H238058   4.221   4.185  13.226  0.3420  0.5510 -0.2652
 5523TIP3   OH238059   4.278   6.384  13.220  0.4666 -0.0195  0.3761
 5523TIP3    H138060   4.296   6.290  13.215 -2.2478 -0.6927  1.2269
 5523TIP3    H238061   4.306   6.409  13.308 -0.6518 -0.5506  0.9089
 5524TIP3   OH238062   1.083   5.581  11.117  0.1721 -1.3147  0.2041
 5524TIP3    H138063   1.053   5.508  11.062 -1.3180 -0.6507  0.0938
 5524TIP3    H238064   1.175   5.561  11.135  0.0388 -2.7551 -0.5693
 5525TIP3   OH238065   5.238   1.624  12.906  0.5892  0.3412 -0.0494
 5525TIP3    H138066   5.252   1.541  12.953  2.2831  0.9797  0.6554
 5525TIP3    H238067   5.164   1.665  12.951 -0.4052 -0.8487 -0.5323
 5526TIP3   OH238068   3.331   2.543   4.214 -0.1314 -0.0947 -0.1115
 5526TIP3    H138069   3.344   2.468   4.156 -0.6510  0.4921 -1.0189
 5526TIP3    H238070   3.378   2.520   4.294  0.5466 -0.9570 -0.7339
 5527TIP3   OH238071   1.755   4.865   9.885 -0.4260 -0.2353 -0.2598
 5527TIP3    H138072   1.747   4.926   9.811  0.4174 -1.9603 -1.8409
 5527TIP3    H238073   1.837   4.818   9.870  0.9691  0.8317  2.9955
 5528TIP3   OH238074   6.052   6.510   9.284 -0.3037 -0.0082 -0.9543
 5528TIP3    H138075   6.043   6.602   9.258 -0.5013 -0.5237 -2.8654
 5528TIP3    H238076   5.998   6.502   9.363  2.2309  2.1983  1.2173
 5529TIP3   OH238077   1.413   0.888  14.217  0.4209  0.4943 -0.4095
 5529TIP3    H138078   1.504   0.902  14.243  0.4758  1.7869 -1.1995
 5529TIP3    H238079   1.411   0.798  14.184  0.9178 -0.2719  1.5281
 5530TIP3   OH238080   2.808   1.634  11.973 -0.1891  0.1424 -0.2002
 5530TIP3    H138081   2.883   1.667  12.022 -0.0550 -0.4108 -0.0258
 5530TIP3    H238082   2.816   1.674  11.887  0.1607  0.2905 -0.0990
 5531TIP3   OH238083   1.168   0.180  13.139 -0.6315 -0.4293 -0.2928
 5531TIP3    H138084   1.244   0.203  13.192  0.5272 -1.1890 -1.5450
 5531TIP3    H238085   1.177   0.233  13.060 -0.8366 -1.2638 -0.8904
 5532TIP3   OH238086   5.585   4.456  14.607 -0.5246 -0.0072 -0.5470
 5532TIP3    H138087   5.621   4.422  14.525  2.5397  4.5821 -1.4914
 5532TIP3    H238088   5.540   4.537  14.583 -3.8924 -0.9358  1.8835
 5533TIP3   OH238089   3.626   5.278  12.077  0.1956  0.1326  0.0613
 5533TIP3    H138090   3.548   5.223  12.072 -0.3659  0.8107  0.9286
 5533TIP3    H238091   3.691   5.223  12.120 -0.4947  0.2503  1.3235
 5534TIP3   OH238092   5.904   3.160  13.460  0.0836 -0.4149 -0.0214
 5534TIP3    H138093   5.812   3.137  13.442 -0.1498 -1.4023  2.0729
 5534TIP3    H238094   5.950   3.076  13.460  0.6113 -0.1370  0.7972
 5535TIP3   OH238095   1.385   6.808  12.420 -0.0535 -0.0401  0.6247
 5535TIP3    H138096   1.441   6.856  12.481  1.0061 -0.8042  0.2677
 5535TIP3    H238097   1.318   6.769  12.476  0.8711 -0.6823  1.3102
 5536TIP3   OH238098   0.348   4.127   1.021 -0.5810 -0.3175  0.3810
 5536TIP3    H138099   0.274   4.086   1.066  0.2000 -0.3501  1.7003
 5536TIP3    H238100   0.334   4.221   1.034 -0.2949 -0.3313  0.8045
 5537TIP3   OH238101   1.721   4.828  12.051 -0.3994  0.3585  0.1243
 5537TIP3    H138102   1.771   4.882  11.990  0.4877 -0.9184 -0.3198
 5537TIP3    H238103   1.693   4.753  11.998  0.1697 -0.6420  1.2201
 5538TIP3   OH238104   6.499   0.503  11.507  0.2132  0.1938  0.6780
 5538TIP3    H138105   6.519   0.415  11.477 -0.0446  0.0489  0.9324
 5538TIP3    H238106   6.521   0.559  11.432  1.3640  0.0249  0.8775
 5539TIP3   OH238107   1.625   1.491  12.999  0.9250 -0.1130  0.0170
 5539TIP3    H138108   1.604   1.440  12.921  1.4886 -0.4272  0.0635
 5539TIP3    H238109   1.605   1.581  12.974 -0.3701 -0.3838  0.0390
 5540TIP3   OH238110   7.020   1.682   0.393 -0.0338  0.9092 -0.1172
 5540TIP3    H138111   6.928   1.678   0.365  0.7554  0.8464 -3.0227
 5540TIP3    H238112   7.043   1.591   0.412  0.1723  0.4503 -2.3109
 5541TIP3   OH238113   1.990   2.693   0.036  0.0359  0.5488 -0.1244
 5541TIP3    H138114   1.930   2.693   0.111  0.4595  0.4898  0.2218
 5541TIP3    H238115   1.988   2.603   0.005 -1.1451  0.8545 -1.0182
 5542TIP3   OH238116   5.514   5.323  11.260  0.2609  0.6186 -0.2189
 5542TIP3    H138117   5.571   5.370  11.321  1.7091  0.0889 -1.1326
 5542TIP3    H238118   5.519   5.372  11.178 -1.1909  0.9774 -0.1299
 5543TIP3   OH238119   4.410   1.042  11.537  0.5813  0.0817 -0.0464
 5543TIP3    H138120   4.438   1.029  11.447 -1.1392 -0.9774 -0.4767
 5543TIP3    H238121   4.324   1.085  11.530 -0.6251 -1.9992  0.9536
 5544TIP3   OH238122   3.075   2.071   5.487 -0.0673 -0.2259 -0.5753
 5544TIP3    H138123   2.998   2.023   5.456 -1.6620  2.0309 -0.3985
 5544TIP3    H238124   3.088   2.140   5.422 -0.2911  1.4343  1.0456
 5545TIP3   OH238125   5.549   5.031  12.220 -0.1308 -0.1294  0.1976
 5545TIP3    H138126   5.515   5.120  12.221  1.2535  0.4232 -0.0541
 5545TIP3    H238127   5.490   4.984  12.161 -0.5380  0.7577 -0.1168
 5546TIP3   OH238128   5.043   2.962   4.511  0.5196  0.2811  0.1089
 5546TIP3    H138129   5.032   2.942   4.604  1.9421  0.9017  0.4272
 5546TIP3    H238130   4.954   2.981   4.480 -0.5863 -3.4301  0.4551
 5547TIP3   OH238131   2.491   1.985   9.598 -0.1337  0.1356 -0.2686
 5547TIP3    H138132   2.575   2.030   9.600  0.4801 -0.9972 -0.2096
 5547TIP3    H238133   2.474   1.970   9.505 -0.0709 -0.0028 -0.2576
 5548TIP3   OH238134   2.662   6.708  13.923 -0.5833 -0.5919  0.3486
 5548TIP3    H138135   2.699   6.630  13.881 -0.5272 -0.6304  0.4690
 5548TIP3    H238136   2.724   6.729  13.993  0.1712  0.4049 -0.5840
 5549TIP3   OH238137   1.858   2.475  13.023  0.3786 -0.2483 -0.6489
 5549TIP3    H138138   1.954   2.475  13.020  0.3693  0.9255 -1.1345
 5549TIP3    H238139   1.832   2.415  12.953  0.7512 -0.2434 -0.7929
 5550TIP3   OH238140   0.892   7.033   9.951 -0.3767  0.4045 -0.4208
 5550TIP3    H138141   0.920   6.963   9.893  0.2485  1.6361 -1.6844
 5550TIP3    H238142   0.856   7.100   9.893  2.3694  2.7021  0.2842
 5551TIP3   OH238143   0.230   4.331  11.818 -0.4552  0.4498  0.0651
 5551TIP3    H138144   0.240   4.426  11.812  0.8330  0.4790  1.7128
 5551TIP3    H238145   0.220   4.315  11.912 -1.6210 -0.9874 -0.2727
 5552TIP3   OH238146   2.192   0.347  11.490  0.1822  0.2114 -0.2232
 5552TIP3    H138147   2.177   0.311  11.403 -0.3123  1.2659 -0.5917
 5552TIP3    H238148   2.141   0.290  11.548  0.2526 -0.3065 -0.6570
 5553TIP3   OH238149   5.930   0.333  11.822  0.1388  0.0616  0.0827
 5553TIP3    H138150   5.974   0.347  11.739 -2.1113 -0.2692 -1.2386
 5553TIP3    H238151   5.861   0.399  11.825  0.1620  0.0699  1.7017
 5554TIP3   OH238152   1.448   5.264  11.864 -0.1011  0.2627  0.0709
 5554TIP3    H138153   1.431   5.351  11.900 -0.7621 -0.0897  0.6447
 5554TIP3    H238154   1.447   5.276  11.769  1.7430  1.2227  0.1254
 5555TIP3   OH238155   3.279   2.329  10.968 -0.2474  0.0998 -0.3550
 5555TIP3    H138156   3.305   2.283  11.048  1.2106  0.4004 -0.6350
 5555TIP3    H238157   3.238   2.260  10.914 -0.4158 -0.2992  0.2689
 5556TIP3   OH238158   5.501   3.646  14.351 -0.1707 -0.9325 -0.8299
 5556TIP3    H138159   5.497   3.565  14.300  0.6630 -1.2119 -0.4711
 5556TIP3    H238160   5.410   3.666  14.371 -0.3853 -1.8946 -0.7607
 5557TIP3   OH238161   1.355   4.237  14.027 -0.3388  0.1033 -0.6458
 5557TIP3    H138162   1.329   4.145  14.021 -1.9049  0.5236 -0.6882
 5557TIP3    H238163   1.394   4.256  13.941  0.6372 -0.6837 -0.3971
 5558TIP3   OH238164   6.061   0.375  11.570 -0.1533  0.0277 -0.3722
 5558TIP3    H138165   6.116   0.452  11.563 -0.2478  0.1345  0.0582
 5558TIP3    H238166   6.094   0.315  11.503  0.2042  0.2636 -0.4031
 5559TIP3   OH238167   4.797   2.387  10.824 -0.2708 -0.1217 -0.2710
 5559TIP3    H138168   4.782   2.438  10.904  2.3510  0.3745 -0.0213
 5559TIP3    H238169   4.875   2.426  10.785 -0.3124 -1.6728 -2.0204
 5560TIP3   OH238170   5.689   2.714   4.423  0.1902  0.0584 -0.6805
 5560TIP3    H138171   5.693   2.642   4.486 -0.5389  0.1774 -0.4925
 5560TIP3    H238172   5.598   2.714   4.393  0.3053  0.5962 -1.0413
 5561TIP3   OH238173   5.118   3.518   3.396 -0.3730 -0.1754 -0.6603
 5561TIP3    H138174   5.191   3.578   3.407  0.2411 -1.0167  0.0289
 5561TIP3    H238175   5.134   3.475   3.312 -0.4108  0.0905 -0.8024
 5562TIP3   OH238176   6.969   5.205  10.041 -0.3707  0.3923 -0.6248
 5562TIP3    H138177   6.989   5.123   9.995  1.1803 -0.5526  1.5368
 5562TIP3    H238178   7.035   5.266  10.010 -0.2669  0.2090 -0.7692
 5563TIP3   OH238179   2.338   3.235  10.565 -0.1637  0.1685  0.1492
 5563TIP3    H138180   2.416   3.205  10.518 -0.6652 -0.0785 -0.5389
 5563TIP3    H238181   2.325   3.325  10.537  0.3185  0.4665  0.8620
 5564TIP3   OH238182   5.867   4.973  14.927  0.1249  0.2382 -0.0691
 5564TIP3    H138183   5.952   4.979  14.883 -0.6088 -0.9420 -1.7841
 5564TIP3    H238184   5.818   4.910  14.874 -1.8814  1.0148  0.7886
 5565TIP3   OH238185   3.198   6.805  11.516  0.2263  0.4834 -0.8028
 5565TIP3    H138186   3.284   6.804  11.474  0.0781 -1.0154 -1.1285
 5565TIP3    H238187   3.208   6.864  11.590  1.6326  0.0710 -0.6317
 5566TIP3   OH238188   5.193   1.656  14.769  0.7851 -0.4456  0.1425
 5566TIP3    H138189   5.207   1.718  14.840  0.6814 -0.8332  0.5041
 5566TIP3    H238190   5.239   1.695  14.694 -0.7748  0.9737 -0.1369
 5567TIP3   OH238191   2.490   3.524  13.854 -0.4169  0.5178 -0.4851
 5567TIP3    H138192   2.574   3.517  13.899  0.0983  1.3549 -1.2646
 5567TIP3    H238193   2.472   3.618  13.850 -1.1046  0.3812 -0.8437
 5568TIP3   OH238194   4.194   2.443  11.296 -0.1888  0.3086 -0.2619
 5568TIP3    H138195   4.224   2.356  11.272  0.1225  0.5821 -0.8819
 5568TIP3    H238196   4.140   2.471  11.222 -0.2957  0.6439 -0.0614
 5569TIP3   OH238197   6.139   0.462   4.241 -0.2209 -0.9486 -0.3426
 5569TIP3    H138198   6.129   0.407   4.319 -0.4729 -1.3479 -0.6509
 5569TIP3    H238199   6.055   0.508   4.233  0.0454 -0.3925  0.0056
 5570TIP3   OH238200   4.321   4.216  10.955  0.0864  0.6548  0.4291
 5570TIP3    H138201   4.305   4.150  11.022  1.2885 -0.2560 -0.1466
 5570TIP3    H238202   4.392   4.180  10.902 -1.1952  1.0821 -1.6977
 5571TIP3   OH238203   0.442   6.679  10.662  0.3813 -0.3195 -0.3294
 5571TIP3    H138204   0.357   6.636  10.672 -1.1154  2.6004  0.8360
 5571TIP3    H238205   0.437   6.721  10.576  0.4490  0.1718 -0.0995
 5572TIP3   OH238206   6.583   2.181  11.666 -0.0312 -0.0279  0.2150
 5572TIP3    H138207   6.625   2.263  11.642 -0.4467  0.3154  0.6484
 5572TIP3    H238208   6.572   2.134  11.583  0.1180  0.3907 -0.0445
 5573TIP3   OH238209   0.167   2.660  15.090  0.0736  0.7170 -0.0086
 5573TIP3    H138210   0.179   2.565  15.086  0.3690  0.5905  2.2448
 5573TIP3    H238211   0.120   2.682  15.010 -1.1827 -1.5170  0.0216
 5574TIP3   OH238212   3.163   6.717   4.482  0.5870 -0.2801 -0.5110
 5574TIP3    H138213   3.224   6.761   4.542  1.4576 -0.2244 -1.4117
 5574TIP3    H238214   3.084   6.703   4.535  0.7788  1.1250  0.2055
 5575TIP3   OH238215   4.006   1.491   1.468  0.5572 -0.0715 -0.0180
 5575TIP3    H138216   3.923   1.450   1.493  0.7554  0.5662  1.8134
 5575TIP3    H238217   4.064   1.417   1.449 -0.1227 -0.5395 -0.3363
 5576TIP3   OH238218   0.848   3.080  10.715 -0.4454  0.0637  0.2810
 5576TIP3    H138219   0.789   3.115  10.647 -0.6924  0.2250  0.5779
 5576TIP3    H238220   0.835   3.138  10.790 -0.9609 -0.7452  0.8292
 5577TIP3   OH238221   0.842   1.165   9.535 -0.9745 -0.5967 -0.0775
 5577TIP3    H138222   0.830   1.154   9.441 -1.3118  1.3202 -0.3072
 5577TIP3    H238223   0.922   1.118   9.556  1.3462  2.1216 -2.0847
 5578TIP3   OH238224   3.725   2.833  13.962 -0.6346  0.3956 -0.1203
 5578TIP3    H138225   3.807   2.812  14.007  0.0196 -1.0080 -1.8352
 5578TIP3    H238226   3.680   2.749  13.953 -0.5071  0.5087 -2.4266
 5579TIP3   OH238227   6.501   2.809  12.519  0.6313  0.8439 -0.1953
 5579TIP3    H138228   6.474   2.727  12.479  1.6313  0.0547  0.6788
 5579TIP3    H238229   6.434   2.872  12.493 -0.8479 -0.5254  0.1299
 5580TIP3   OH238230   5.374   2.007   3.592 -0.3239  0.6347 -0.2537
 5580TIP3    H138231   5.345   2.096   3.612  0.8843  0.7781  1.0452
 5580TIP3    H238232   5.396   1.970   3.678  1.8007  0.0264 -1.0101
 5581TIP3   OH238233   6.947   6.677  12.143  0.2480  0.3886  0.4138
 5581TIP3    H138234   6.896   6.602  12.112  0.0902  0.5589  0.2537
 5581TIP3    H238235   6.937   6.675  12.238  1.4944 -0.6829  0.5447
 5582TIP3   OH238236   0.855   4.640   1.555  0.4256  0.1115 -0.2744
 5582TIP3    H138237   0.908   4.608   1.628  1.7082 -0.5763 -1.4560
 5582TIP3    H238238   0.834   4.731   1.577 -0.9983 -0.6720  1.8982
 5583TIP3   OH238239   0.696   1.644   2.134  0.1089 -0.1147  0.0306
 5583TIP3    H138240   0.745   1.652   2.052  0.5187  2.4492  0.4313
 5583TIP3    H238241   0.757   1.601   2.194 -0.1433 -1.8837 -0.9101
 5584TIP3   OH238242   0.194   5.251  12.626 -0.0991 -0.7755  0.6183
 5584TIP3    H138243   0.145   5.291  12.698 -0.5355  2.0623 -1.1463
 5584TIP3    H238244   0.214   5.323  12.566 -1.0664 -3.1923 -2.8985
 5585TIP3   OH238245   4.959   0.300   0.125 -0.7331  0.1805  0.0209
 5585TIP3    H138246   4.938   0.271   0.214 -0.4983 -1.3411 -0.4019
 5585TIP3    H238247   5.037   0.355   0.136  1.0957 -2.3266  0.5029
 5586TIP3   OH238248   3.297   5.831   9.759 -0.0776 -0.1424 -0.6777
 5586TIP3    H138249   3.287   5.835   9.664 -0.7956  0.2607 -0.5918
 5586TIP3    H238250   3.377   5.779   9.773 -0.6637 -1.3118 -1.4783
 5587TIP3   OH238251   4.974   4.682   9.767 -0.7608  0.0310 -0.1841
 5587TIP3    H138252   4.985   4.748   9.835 -3.3192 -0.0269  0.3947
 5587TIP3    H238253   4.981   4.731   9.685  2.6167  0.0556 -0.0213
 5588TIP3   OH238254   5.403   2.467  12.135  0.4502  0.1120 -0.3016
 5588TIP3    H138255   5.374   2.527  12.066 -1.9118 -0.5716  0.0287
 5588TIP3    H238256   5.346   2.486  12.209  1.2173 -0.9681  0.6045
 5589TIP3   OH238257   0.445   4.849  10.588  0.4394  0.4998 -0.0734
 5589TIP3    H138258   0.501   4.912  10.635  0.1636  1.1745 -0.6328
 5589TIP3    H238259   0.501   4.773  10.575 -0.2519 -0.9357  3.8462
 5590TIP3   OH238260   0.564   6.784  11.330  0.1260  0.1202 -0.7123
 5590TIP3    H138261   0.583   6.724  11.257  1.0951 -1.2506  0.5941
 5590TIP3    H238262   0.534   6.727  11.400 -2.7590  1.6023 -0.5917
 5591TIP3   OH238263   0.608   4.645  10.568  0.6102 -0.6470 -0.3128
 5591TIP3    H138264   0.608   4.615  10.659 -1.8420 -1.2714 -0.4504
 5591TIP3    H238265   0.590   4.567  10.516  1.3769 -0.1890 -1.2962
 5592TIP3   OH238266   1.970   6.691  15.108 -0.2132 -0.5866  0.0900
 5592TIP3    H138267   1.997   6.611  15.154  1.0305 -0.5081 -0.4582
 5592TIP3    H238268   1.951   6.753  15.178  1.7716 -0.4263  0.5471
 5593TIP3   OH238269   4.167   3.939   9.918  0.1038 -0.0830  0.0826
 5593TIP3    H138270   4.224   3.864   9.902  0.6612  0.0827  1.2159
 5593TIP3    H238271   4.227   4.013   9.926 -0.3524  0.2779  0.2035
 5594TIP3   OH238272   2.161   5.486  12.320  0.8518  0.0947 -0.0741
 5594TIP3    H138273   2.237   5.544  12.325  1.2251 -0.4820  1.6779
 5594TIP3    H238274   2.117   5.496  12.404  0.1370 -1.1159 -0.2727
 5595TIP3   OH238275   0.411   6.411  12.618  0.5750  0.0581 -1.0236
 5595TIP3    H138276   0.328   6.375  12.588  0.4778  1.8046 -3.1351
 5595TIP3    H238277   0.394   6.441  12.708 -0.1480 -2.2779 -0.3195
 5596TIP3   OH238278   5.382   5.611  13.715 -0.1525  0.3270 -0.2705
 5596TIP3    H138279   5.432   5.530  13.703  0.0396  0.5265 -0.8472
 5596TIP3    H238280   5.407   5.665  13.641 -0.0480  1.0399  0.2758
 5597TIP3   OH238281   0.628   4.707  10.265 -0.3265  0.2368 -0.0995
 5597TIP3    H138282   0.701   4.723  10.325 -0.3532  0.7565 -0.2020
 5597TIP3    H238283   0.646   4.764  10.190 -0.7436  0.2357 -0.2025
 5598TIP3   OH238284   3.763   5.239   9.726  0.1079 -0.3058  0.5009
 5598TIP3    H138285   3.840   5.273   9.681 -1.4104  1.7258 -0.7341
 5598TIP3    H238286   3.761   5.288   9.809 -0.4075  0.4286  0.0645
 5599TIP3   OH238287   6.650   3.565  14.574  0.0281 -0.2018 -0.4472
 5599TIP3    H138288   6.707   3.494  14.544  0.2025 -0.3447  0.2044
 5599TIP3    H238289   6.563   3.528  14.576 -0.0986  0.0056 -1.4131
 5600TIP3   OH238290   3.581   1.621  13.594  0.3791 -0.1720 -0.9382
 5600TIP3    H138291   3.603   1.714  13.585 -0.5262 -0.0520 -2.2465
 5600TIP3    H238292   3.496   1.621  13.638  0.0318 -0.3342 -1.5980
 5601TIP3   OH238293   6.096   2.359  10.667 -0.0577  0.4941  0.0519
 5601TIP3    H138294   6.134   2.272  10.678 -0.5071  0.4163  1.1660
 5601TIP3    H238295   6.016   2.345  10.618  1.0117  0.5938 -1.8368
 5602TIP3   OH238296   4.878   4.250  10.720  0.5223 -0.0722 -0.2151
 5602TIP3    H138297   4.821   4.327  10.712 -1.5517 -1.4093  0.7461
 5602TIP3    H238298   4.843   4.203  10.796  1.5109 -2.1390 -0.9789
 5603TIP3   OH238299   7.100   4.087  14.252 -0.1381 -0.5272 -0.1751
 5603TIP3    H138300   7.160   4.146  14.297 -2.6066  1.2153  1.1011
 5603TIP3    H238301   7.146   4.004  14.249  2.3157  0.6939  0.6654
 5604TIP3   OH238302   2.441   1.161  12.767 -0.2275  0.0610  0.0302
 5604TIP3    H138303   2.463   1.119  12.684 -2.1762  0.3126 -0.6829
 5604TIP3    H238304   2.523   1.162  12.816  0.1578 -3.8087 -0.2169
 5605TIP3   OH238305   1.272   7.151  13.942 -0.2582  0.0088  0.1841
 5605TIP3    H138306   1.318   7.190  13.867 -0.1203 -0.1737  0.1719
 5605TIP3    H238307   1.255   7.225  14.000 -0.5223  0.1796 -0.1056
 5606TIP3   OH238308   0.553   1.896  13.803 -0.5136  0.4059 -0.0957
 5606TIP3    H138309   0.567   1.871  13.894  0.3956 -0.1834 -0.3886
 5606TIP3    H238310   0.538   1.991  13.806 -0.3493  0.4141  0.6422
 5607TIP3   OH238311   5.347   3.524   1.733 -0.6181 -0.6527 -0.6773
 5607TIP3    H138312   5.320   3.608   1.696  1.5163  0.8739  0.9751
 5607TIP3    H238313   5.311   3.523   1.822 -0.1020 -1.1710 -0.4608
 5608TIP3   OH238314   3.248   6.318  10.136 -0.3064 -0.1139 -0.2617
 5608TIP3    H138315   3.272   6.395  10.085  0.3793 -0.8999 -1.1658
 5608TIP3    H238316   3.313   6.252  10.112 -0.9471 -1.0208  0.4042
 5609TIP3   OH238317   2.427   1.797  12.796  0.0311  0.3194 -0.3938
 5609TIP3    H138318   2.513   1.776  12.761  0.5101 -0.8100  1.3603
 5609TIP3    H238319   2.442   1.815  12.888 -1.8970 -2.2452  0.5332
 5610TIP3   OH238320   6.810   4.132  14.259 -0.5409  0.1817 -0.2053
 5610TIP3    H138321   6.905   4.121  14.260 -0.7297 -1.7806 -0.4146
 5610TIP3    H238322   6.780   4.087  14.338 -1.3734 -0.0895 -0.6702
 5611TIP3   OH238323   6.028   6.998   0.109  0.0218 -0.2094  0.2237
 5611TIP3    H138324   5.951   6.945   0.085 -0.8197  1.0128  0.1293
 5611TIP3    H238325   6.086   6.936   0.154 -1.3645 -1.0042  1.0075
 5612TIP3   OH238326   0.796   1.640  13.897 -0.3934 -0.3033 -0.3500
 5612TIP3    H138327   0.866   1.587  13.935 -0.7054 -1.3557 -1.1901
 5612TIP3    H238328   0.836   1.682  13.821 -0.2998  0.2364 -0.0092
 5613TIP3   OH238329   0.344   1.097   5.052  0.1283  0.4575 -0.0888
 5613TIP3    H138330   0.263   1.124   5.008  0.4350  0.9199 -0.3816
 5613TIP3    H238331   0.367   1.013   5.013 -0.2020  0.3336 -0.0164
 5614TIP3   OH238332   3.419   5.070   0.690  0.3533  0.1422 -0.0235
 5614TIP3    H138333   3.456   5.004   0.748  2.5905 -1.3938 -2.9271
 5614TIP3    H238334   3.493   5.102   0.639 -1.3079  2.0887 -1.4053
 5615TIP3   OH238335   6.267   6.139  13.224  0.6615 -0.2849  0.4329
 5615TIP3    H138336   6.347   6.113  13.269 -0.2225 -0.5263  1.9418
 5615TIP3    H238337   6.200   6.078  13.256 -0.3920  0.6907  0.1826
 5616TIP3   OH238338   0.903   6.006   0.151  0.0888 -0.1566 -0.4271
 5616TIP3    H138339   0.917   6.057   0.071 -0.0034 -1.5120 -1.3471
 5616TIP3    H238340   0.860   6.067   0.211  1.1884  1.2306 -0.9878
 5617TIP3   OH238341   6.466   6.627   9.949 -0.0605 -0.5718  0.4216
 5617TIP3    H138342   6.426   6.581   9.875  1.5924 -1.6362  0.1389
 5617TIP3    H238343   6.506   6.705   9.911  2.3174 -2.0028 -0.1926
 5618TIP3   OH238344   7.239   7.165  11.914  0.2541 -0.3354 -0.4859
 5618TIP3    H138345   7.191   7.187  11.994  0.0338  1.0451 -0.9767
 5618TIP3    H238346   7.287   7.244  11.892 -0.7821 -0.1966 -2.4837
 5619TIP3   OH238347   3.280   5.571  11.882 -0.0520  1.1025 -0.0351
 5619TIP3    H138348   3.247   5.510  11.947  0.9360  1.7258  1.1047
 5619TIP3    H238349   3.264   5.658  11.920 -0.3928  1.5268 -1.0996
 5620TIP3   OH238350   3.888   1.087   2.946  0.0649  0.2850 -0.0796
 5620TIP3    H138351   3.798   1.069   2.973  0.4629  0.7835  1.7140
 5620TIP3    H238352   3.907   1.021   2.879 -1.7673  0.4721 -0.8351
 5621TIP3   OH238353   4.861   5.304  11.254 -0.3574  0.5200  0.4821
 5621TIP3    H138354   4.829   5.317  11.343 -0.2935 -0.9452  0.7447
 5621TIP3    H238355   4.784   5.314  11.199 -0.3899  1.4811  0.6823
 5622TIP3   OH238356   5.262   3.368  10.297  0.1499  0.0116 -0.3571
 5622TIP3    H138357   5.325   3.299  10.280 -1.0056 -1.3193  0.5216
 5622TIP3    H238358   5.215   3.379  10.214  0.6371  0.0617 -0.6258
 5623TIP3   OH238359   1.339   5.511  13.161  0.0126  0.0145  0.2336
 5623TIP3    H138360   1.377   5.549  13.082 -1.6182  1.9240  0.2747
 5623TIP3    H238361   1.408   5.516  13.227  0.6507  0.5459 -0.4713
 5624TIP3   OH238362   5.240   1.648   0.474 -0.7040  0.1579  0.2963
 5624TIP3    H138363   5.146   1.662   0.483 -0.6609  0.5265  0.1840
 5624TIP3    H238364   5.266   1.603   0.555 -1.1275 -0.7372 -0.0553
 5625TIP3   OH238365   6.102   1.138  11.088 -0.2123  0.0945  0.2529
 5625TIP3    H138366   6.019   1.180  11.068  0.3868  0.2633 -2.1891
 5625TIP3    H238367   6.112   1.070  11.021  1.1837 -0.5734  1.0737
 5626TIP3   OH238368   1.740   0.958  12.646 -0.2211 -0.0516 -0.0259
 5626TIP3    H138369   1.740   1.033  12.705  0.2323 -1.2376  1.5608
 5626TIP3    H238370   1.671   0.977  12.583 -1.5470  0.7836  1.5753
 5627TIP3   OH238371   0.938   5.469  10.320  0.6612  0.0522  0.3781
 5627TIP3    H138372   0.872   5.440  10.257  0.7189  0.1434  0.2745
 5627TIP3    H238373   1.014   5.489  10.267  0.7640 -0.0289  0.4951
 5628TIP3   OH238374   4.205   1.818   9.568 -0.1087  0.2311 -0.3276
 5628TIP3    H138375   4.230   1.753   9.502  0.3208 -2.5328  2.3403
 5628TIP3    H238376   4.115   1.794   9.591  0.9350 -1.2515  2.5720
 5629TIP3   OH238377   2.114   3.626  12.470  0.1863  0.6893 -0.1349
 5629TIP3    H138378   2.161   3.655  12.548 -1.1566  0.7765  0.6871
 5629TIP3    H238379   2.084   3.537  12.491  0.1733  0.5513 -0.7178
 5630TIP3   OH238380   2.750   1.842  10.505 -0.1876 -0.0619  0.5462
 5630TIP3    H138381   2.671   1.790  10.520 -0.9047  1.3020  1.8460
 5630TIP3    H238382   2.820   1.794  10.549 -0.7472 -0.1809  1.3258
 5631TIP3   OH238383   0.784   1.996  10.349 -0.2988 -0.1133 -0.6735
 5631TIP3    H138384   0.794   2.089  10.327  0.9673 -0.1701 -0.4198
 5631TIP3    H238385   0.872   1.960  10.339 -0.4396 -0.9329  0.8507
 5632TIP3   OH238386   5.688   1.796  12.611 -0.1126 -0.0794  0.3396
 5632TIP3    H138387   5.599   1.767  12.630  0.6574 -1.6988  1.7661
 5632TIP3    H238388   5.696   1.788  12.516 -1.1986 -0.8204  0.2944
 5633TIP3   OH238389   2.277   2.553  13.837 -0.2994  0.9042  0.3307
 5633TIP3    H138390   2.255   2.611  13.910  1.4852  0.2711  1.4496
 5633TIP3    H238391   2.219   2.478  13.848 -0.5653  1.1557  0.6650
 5634TIP3   OH238392   5.418   2.716  10.217 -0.4000  0.3163 -0.4263
 5634TIP3    H138393   5.480   2.697  10.146  1.5311 -0.8726  1.4493
 5634TIP3    H238394   5.394   2.808  10.205  0.0994  0.2325 -2.4062
 5635TIP3   OH238395   3.626   5.764  12.187  0.3144  0.4878 -0.1334
 5635TIP3    H138396   3.700   5.784  12.130  1.7327 -1.5802  0.8937
 5635TIP3    H238397   3.579   5.694  12.141 -0.3512  0.9669 -0.2055
 5636TIP3   OH238398   3.355   3.089  10.604  0.2994 -0.5421 -0.3802
 5636TIP3    H138399   3.318   3.174  10.626 -2.5877 -1.7035 -0.3075
 5636TIP3    H238400   3.314   3.029  10.666 -0.4923 -2.4768 -2.6470
 5637TIP3   OH238401   0.942   6.354  15.018  0.5853  0.2618  0.3734
 5637TIP3    H138402   1.001   6.383  15.087  0.9210 -1.5958  0.9042
 5637TIP3    H238403   0.999   6.323  14.948  0.2604  2.3608 -0.9400
 5638TIP3   OH238404   2.437   4.618  12.536  0.1563 -0.1823  0.2391
 5638TIP3    H138405   2.430   4.549  12.602 -1.8734 -0.6173 -0.3763
 5638TIP3    H238406   2.362   4.605  12.479  1.4106  0.6894 -1.7100
 5639TIP3   OH238407   6.359   0.950   9.920  0.2685  0.2621 -0.1462
 5639TIP3    H138408   6.391   0.985   9.837  0.7737 -0.6402 -0.3557
 5639TIP3    H238409   6.351   0.856   9.905 -1.2161  0.2804  0.3360
 5640TIP3   OH238410   0.973   2.713   0.516 -0.1354 -0.3810 -0.9253
 5640TIP3    H138411   0.959   2.673   0.430  2.6492  0.0322 -1.6707
 5640TIP3    H238412   1.035   2.654   0.560 -0.4788  0.1211  0.2581
 5641TIP3   OH238413   4.911   3.354  14.353  0.0889 -0.6514 -1.0345
 5641TIP3    H138414   4.927   3.304  14.433 -1.1099  0.8843  0.2344
 5641TIP3    H238415   4.997   3.386  14.327  0.2661  0.6405  0.9343
 5642TIP3   OH238416   6.884   3.212   9.970  0.2301  0.0097  0.5730
 5642TIP3    H138417   6.976   3.186   9.969  0.3519  0.4256  0.9493
 5642TIP3    H238418   6.848   3.169  10.048 -0.0093 -0.5283  0.1759
 5643TIP3   OH238419   2.142   5.635  11.737 -0.1378 -0.2872  0.1921
 5643TIP3    H138420   2.222   5.583  11.743 -0.9804 -1.9637 -1.9392
 5643TIP3    H238421   2.073   5.578  11.771 -0.4896  1.1992  2.1825
 5644TIP3   OH238422   6.293   4.665   4.277 -0.1640 -0.0390 -0.0836
 5644TIP3    H138423   6.211   4.713   4.263 -0.2988  0.2526  1.5160
 5644TIP3    H238424   6.316   4.632   4.190 -0.1013  2.8402 -1.2887
 5645TIP3   OH238425   5.463   3.869  14.134  0.1165 -0.3627 -0.3736
 5645TIP3    H138426   5.442   3.830  14.219  0.0441  0.0353 -0.2046
 5645TIP3    H238427   5.381   3.868  14.086 -0.6024  2.0785  0.6391
 5646TIP3   OH238428   3.806   2.612  11.520  0.1900  0.0096  0.1052
 5646TIP3    H138429   3.782   2.693  11.565  0.3620 -0.0546  0.3160
 5646TIP3    H238430   3.762   2.543  11.570  1.0014 -0.1310  0.6454
 5647TIP3   OH238431   5.210   7.073  12.451 -0.1408  0.5118 -0.2140
 5647TIP3    H138432   5.152   6.998  12.465 -0.0028  0.3621 -0.4313
 5647TIP3    H238433   5.298   7.037  12.459 -0.0493  0.4050 -1.4576
 5648TIP3   OH238434   4.798   6.824  13.444 -0.1544  0.0391  0.2272
 5648TIP3    H138435   4.845   6.904  13.421  0.3024 -0.2022  0.3035
 5648TIP3    H238436   4.780   6.833  13.538  2.5795 -1.2539  0.9886
 5649TIP3   OH238437   1.435   3.089  11.396  0.0319 -0.4734  0.0304
 5649TIP3    H138438   1.440   3.008  11.345  0.0944 -0.3774 -0.1188
 5649TIP3    H238439   1.505   3.080  11.461  1.7827  0.5362 -1.5809
 5650TIP3   OH238440   6.573   2.547   4.965 -0.0759 -0.6888  0.2763
 5650TIP3    H138441   6.531   2.616   5.017 -0.2645  0.1343 -0.9128
 5650TIP3    H238442   6.503   2.514   4.909  0.1942 -1.3513  0.3223
 5651TIP3   OH238443   0.610   4.723   1.255  0.5172  0.1037 -0.5596
 5651TIP3    H138444   0.575   4.635   1.272  1.5725 -0.1530  0.4553
 5651TIP3    H238445   0.687   4.708   1.200  0.2427  0.4657 -1.0428
 5652TIP3   OH238446   5.440   3.259  12.079  0.1378  0.0190 -0.4389
 5652TIP3    H138447   5.533   3.272  12.064  0.0932 -0.1240 -0.8500
 5652TIP3    H238448   5.429   3.163  12.078  0.0550  0.0222  0.0221
 5653TIP3   OH238449   4.305   2.628  11.056  0.0888  0.3202 -0.2579
 5653TIP3    H138450   4.210   2.616  11.064  0.5155 -3.2230  1.2014
 5653TIP3    H238451   4.334   2.644  11.146  0.8499  2.4510 -0.8250
 5654TIP3   OH238452   2.195   4.360  14.519 -0.6022 -0.3842  0.1184
 5654TIP3    H138453   2.146   4.279  14.507  0.8912 -1.3958  0.5266
 5654TIP3    H238454   2.286   4.337  14.499 -0.2895  1.4752 -0.8712
 5655TIP3   OH238455   2.280   5.293  14.091  0.5570 -0.0746  0.0705
 5655TIP3    H138456   2.247   5.278  14.003  2.3428 -3.0099 -0.2282
 5655TIP3    H238457   2.246   5.379  14.115 -1.2616  0.1514 -2.8468
 5656TIP3   OH238458   4.517   0.559  14.288 -0.3112  0.0203  0.2544
 5656TIP3    H138459   4.558   0.559  14.202  0.4008 -2.2162  0.5284
 5656TIP3    H238460   4.427   0.532  14.272  0.0008 -1.0744  0.2328
 5657TIP3   OH238461   6.139   6.516   1.044 -0.0348 -0.1189 -0.3397
 5657TIP3    H138462   6.203   6.503   1.114 -0.3794  1.1685  0.2488
 5657TIP3    H238463   6.074   6.447   1.058  0.0959 -0.1009  0.3984
 5658TIP3   OH238464   6.868   4.070   2.576 -0.1800  0.0766  0.5134
 5658TIP3    H138465   6.882   4.022   2.658  1.0770 -2.0602 -0.8425
 5658TIP3    H238466   6.945   4.128   2.570  0.7604 -1.1739 -0.0240
 5659TIP3   OH238467   5.371   1.815  11.219 -0.6450 -0.6292 -0.4739
 5659TIP3    H138468   5.278   1.817  11.199 -1.0660  1.9212  1.2046
 5659TIP3    H238469   5.402   1.904  11.198  1.0034 -0.9004  0.5870
 5660TIP3   OH238470   3.640   6.858  11.757 -0.5721  0.2642  0.1605
 5660TIP3    H138471   3.685   6.783  11.798  0.6881  1.3090  0.7764
 5660TIP3    H238472   3.595   6.820  11.682 -0.5755 -1.2375  0.8681
 5661TIP3   OH238473   2.901   0.335   3.282 -0.2419 -0.4491 -0.3374
 5661TIP3    H138474   2.978   0.302   3.235 -0.4265  0.9353 -1.7103
 5661TIP3    H238475   2.836   0.348   3.213 -0.5403  1.6300  0.2853
 5662TIP3   OH238476   5.069   0.017  11.081 -0.0872 -0.2397 -0.8617
 5662TIP3    H138477   5.147  -0.009  11.031  0.8418 -2.8279  1.6590
 5662TIP3    H238478   4.996  -0.022  11.033  0.7534 -2.4781 -0.4522
 5663TIP3   OH238479   2.019   2.030  10.459  0.0096  0.3895 -0.2593
 5663TIP3    H138480   1.947   2.093  10.457 -0.7613 -0.4204  0.7957
 5663TIP3    H238481   2.064   2.042  10.375  0.3353  2.8172  0.1778
 5664TIP3   OH238482   0.255   2.557   2.146  0.6460  0.0087 -0.2020
 5664TIP3    H138483   0.163   2.542   2.171  0.4831  0.0092 -0.7909
 5664TIP3    H238484   0.288   2.616   2.213 -0.6860  2.5957 -1.6461
 5665TIP3   OH238485   2.753   1.425   9.657 -0.2337 -0.4243 -0.5050
 5665TIP3    H138486   2.751   1.505   9.605  2.4792  0.5170  0.6333
 5665TIP3    H238487   2.793   1.360   9.599 -1.3319 -0.6620 -1.0250
 5666TIP3   OH238488   0.724   0.627   4.267 -0.3833 -0.3335 -0.3018
 5666TIP3    H138489   0.659   0.560   4.287  0.0576 -1.2338 -1.7476
 5666TIP3    H238490   0.744   0.667   4.352  0.0035 -2.6338  0.7737
 5667TIP3   OH238491   6.582   6.314   9.733 -0.2983 -0.0919 -0.5536
 5667TIP3    H138492   6.670   6.347   9.718 -0.1085 -0.1759  0.3324
 5667TIP3    H238493   6.526   6.392   9.728  0.0596  0.2658  0.7599
 5668TIP3   OH238494   4.223   1.762  11.804 -0.5359  0.0644  0.1432
 5668TIP3    H138495   4.315   1.775  11.784 -0.5745 -1.9035 -1.6333
 5668TIP3    H238496   4.221   1.696  11.872 -0.6422  0.4508  0.5226
 5669TIP3   OH238497   3.630   5.863  14.200  0.4968  0.0485  0.3372
 5669TIP3    H138498   3.600   5.864  14.109  1.1195  0.1913  0.1254
 5669TIP3    H238499   3.586   5.938  14.240 -0.9496 -0.8910  0.5591
 5670TIP3   OH238500   1.387   1.003  11.359 -0.2582  0.0150  0.0088
 5670TIP3    H138501   1.335   0.936  11.315 -0.3442  0.0159  0.1099
 5670TIP3    H238502   1.476   0.967  11.359 -0.2502  0.0304 -0.1960
 5671TIP3   OH238503   6.576   0.794  12.554  0.5245  0.1250  0.2830
 5671TIP3    H138504   6.587   0.860  12.485 -0.5680  2.3674  2.1088
 5671TIP3    H238505   6.560   0.845  12.633  0.3335 -2.3769  1.9649
 5672TIP3   OH238506   6.778   6.190  12.720  0.4487 -0.4845 -0.0274
 5672TIP3    H138507   6.719   6.172  12.647  0.1478  0.2670  0.0289
 5672TIP3    H238508   6.785   6.107  12.767 -0.2395 -0.6771 -0.2668
 5673TIP3   OH238509   0.395   1.316   0.015  0.1319 -0.1195  0.0212
 5673TIP3    H138510   0.334   1.278   0.079  0.0260  1.5206  0.9596
 5673TIP3    H238511   0.339   1.364  -0.046  0.2413 -1.5996 -1.3211
 5674TIP3   OH238512   5.284   1.138   1.909  0.0390  0.0904 -0.0683
 5674TIP3    H138513   5.314   1.215   1.957 -2.7172  0.4777  1.2025
 5674TIP3    H238514   5.203   1.167   1.866  0.6793 -1.2089 -2.2983
 5675TIP3   OH238515   4.868   1.081  10.916 -0.2491  0.1089 -0.0061
 5675TIP3    H138516   4.862   1.024  10.993  1.9063  0.6757  0.6575
 5675TIP3    H238517   4.779   1.082  10.880 -0.5014 -3.3844  0.1206
 5676TIP3   OH238518   7.040   4.406   9.612 -0.5559 -0.4865  0.1321
 5676TIP3    H138519   7.021   4.477   9.673 -0.1442  0.3773 -0.7228
 5676TIP3    H238520   7.067   4.450   9.531 -0.2751 -1.6150 -0.4104
 5677TIP3   OH238521   4.826   1.663  10.355  0.2115 -0.1300  0.3167
 5677TIP3    H138522   4.852   1.587  10.302  2.4069  1.7389 -1.4797
 5677TIP3    H238523   4.769   1.714  10.298 -1.4676 -0.4516  1.6120
 5678TIP3   OH238524   5.929   2.703  14.295 -0.0526  0.7070 -0.3016
 5678TIP3    H138525   6.008   2.658  14.264  0.9605  1.6946  0.7609
 5678TIP3    H238526   5.951   2.733  14.383 -2.7306 -1.8166  1.4171
 5679TIP3   OH238527   1.743   2.467   1.285  0.0020 -0.2429 -0.4143
 5679TIP3    H138528   1.702   2.524   1.350 -0.8559 -0.0354 -1.1144
 5679TIP3    H238529   1.831   2.503   1.274  0.2558 -0.4563  0.8277
 5680TIP3   OH238530   2.684   4.342  15.229  0.2436 -0.3585  0.1771
 5680TIP3    H138531   2.634   4.269  15.192 -0.3565 -0.2422  0.7283
 5680TIP3    H238532   2.769   4.338  15.186 -0.2304 -0.5797 -0.7719
 5681TIP3   OH238533   1.910   7.007  10.445 -0.2265  0.4003  0.4408
 5681TIP3    H138534   1.927   6.958  10.364 -0.7617  0.9877 -0.0297
 5681TIP3    H238535   1.829   7.055  10.428 -0.0649  0.9348  1.1366
 5682TIP3   OH238536   5.506   5.878  10.684 -0.0048  0.0334 -0.3312
 5682TIP3    H138537   5.442   5.807  10.687  1.2104 -1.1477 -1.0914
 5682TIP3    H238538   5.578   5.848  10.740 -0.0260  1.2694  0.4007
 5683TIP3   OH238539   0.679   4.237  13.705 -0.2692  0.0662 -0.5941
 5683TIP3    H138540   0.633   4.297  13.764 -1.2857  0.0693 -1.3712
 5683TIP3    H238541   0.647   4.258  13.618 -0.3079 -1.3007 -0.9363
 5684TIP3   OH238542   3.075   6.456   1.151 -0.1705  0.2782  0.0658
 5684TIP3    H138543   2.988   6.481   1.181 -0.5830  1.2797 -1.8620
 5684TIP3    H238544   3.103   6.526   1.093  1.0920 -0.9686 -0.9262
 5685TIP3   OH238545   4.759   7.015  12.140 -0.0051 -0.1268  0.3927
 5685TIP3    H138546   4.754   6.923  12.165  0.4302 -0.6660 -1.3178
 5685TIP3    H238547   4.720   7.018  12.052  0.1498  1.2802  0.3435
 5686TIP3   OH238548   4.615   2.074  13.629  0.5672 -0.4287 -0.3347
 5686TIP3    H138549   4.577   2.139  13.688 -1.5475 -2.0513  0.2156
 5686TIP3    H238550   4.594   2.106  13.541 -0.8517 -0.5750 -0.0609
 5687TIP3   OH238551   5.594   3.354  11.677 -0.6965  0.0524 -0.2484
 5687TIP3    H138552   5.576   3.280  11.736  2.0338  0.6783  1.5352
 5687TIP3    H238553   5.686   3.343  11.653 -0.5633  2.2465 -0.8718
 5688TIP3   OH238554   0.225   2.600  14.139 -0.5169 -0.1429 -0.0547
 5688TIP3    H138555   0.159   2.547  14.094  0.4056 -2.0130  0.6876
 5688TIP3    H238556   0.176   2.675  14.173 -1.0551  2.2624 -5.2448
 5689TIP3   OH238557   3.435   3.030  13.966  0.7094  0.0530 -0.4616
 5689TIP3    H138558   3.486   3.015  14.045  0.5086  1.9798  0.0721
 5689TIP3    H238559   3.417   2.942  13.932  1.2476 -0.7845  1.3260
 5690TIP3   OH238560   2.723   0.853  12.782 -0.3199 -0.7148  0.0605
 5690TIP3    H138561   2.669   0.809  12.717  0.9332 -1.9671 -0.1868
 5690TIP3    H238562   2.766   0.781  12.829  2.0024  0.2134 -0.5398
 5691TIP3   OH238563   6.667   6.562  12.107 -0.5360 -0.1716  0.5109
 5691TIP3    H138564   6.634   6.503  12.175 -1.2683 -0.5805 -0.1759
 5691TIP3    H238565   6.647   6.517  12.025 -0.1331  0.5445  0.0082
 5692TIP3   OH238566   0.444   3.724  11.291  0.2623  0.7993  0.2396
 5692TIP3    H138567   0.515   3.778  11.256  1.9315 -1.2172  0.3162
 5692TIP3    H238568   0.471   3.634  11.272 -2.4995 -0.0533 -0.0965
 5693TIP3   OH238569   6.757   0.335  10.472  0.0508  0.3686 -0.2250
 5693TIP3    H138570   6.668   0.345  10.437  0.2132  0.0279 -0.7472
 5693TIP3    H238571   6.814   0.353  10.398  0.4276  0.8443  0.1758
 5694TIP3   OH238572   6.621   2.609  11.622  0.2798 -0.4554 -0.9082
 5694TIP3    H138573   6.548   2.575  11.571 -1.4778  2.0790 -0.2710
 5694TIP3    H238574   6.598   2.588  11.713 -0.0903  0.9818 -0.6421
 5695TIP3   OH238575   1.623   3.024   0.000 -0.0223  0.1953  0.5858
 5695TIP3    H138576   1.596   3.060  -0.084  0.2391 -1.9812 -0.4897
 5695TIP3    H238577   1.581   2.938   0.004 -0.4136  0.4166  2.9104
 5696TIP3   OH238578   0.949   6.497  11.265 -0.1107 -0.2310 -0.1432
 5696TIP3    H138579   0.885   6.454  11.322  0.2591 -0.9900 -0.2812
 5696TIP3    H238580   1.029   6.447  11.278 -0.4749 -1.7099 -2.7734
 5697TIP3   OH238581   1.984   4.296  12.180  0.1036  0.2961  0.6908
 5697TIP3    H138582   1.987   4.272  12.087 -0.5897  0.7904  0.5318
 5697TIP3    H238583   2.076   4.301  12.206  0.2920 -1.5534  0.4962
 5698TIP3   OH238584   5.657   3.843  11.943 -0.4075  0.3765  0.1661
 5698TIP3    H138585   5.576   3.886  11.916 -0.7648 -0.4524 -0.1352
 5698TIP3    H238586   5.633   3.751  11.951  0.3081  0.2459  0.9040
 5699TIP3   OH238587   4.604   5.476  15.129 -0.3367 -0.5287  0.1586
 5699TIP3    H138588   4.601   5.550  15.190  1.3460 -0.8986  0.7435
 5699TIP3    H238589   4.604   5.516  15.042 -1.8063  0.0419  0.3958
 5700TIP3   OH238590   3.247   5.837   4.874 -0.4777 -0.0678  0.0347
 5700TIP3    H138591   3.189   5.768   4.908 -0.9931  0.6354  0.6344
 5700TIP3    H238592   3.232   5.836   4.780 -1.6356  0.2369  0.2029
 5701TIP3   OH238593   3.954   0.351  12.588  0.0589 -0.8255 -0.2038
 5701TIP3    H138594   4.044   0.381  12.575  0.1024 -1.1577 -0.7151
 5701TIP3    H238595   3.930   0.384  12.674 -0.4969  2.2379 -1.3748
 5702TIP3   OH238596   5.963   3.643  11.614  0.2524 -0.5244 -0.0469
 5702TIP3    H138597   5.940   3.727  11.654  1.8628 -0.4295  0.7507
 5702TIP3    H238598   5.909   3.638  11.535 -2.2845 -0.2293  1.5432
 5703TIP3   OH238599   2.425   2.314  14.156  0.1235 -0.5447 -0.6419
 5703TIP3    H138600   2.404   2.395  14.203  0.5726 -0.4465 -0.6120
 5703TIP3    H238601   2.477   2.263  14.218  1.7245  0.0736 -1.4248
 5704TIP3   OH238602   3.693   4.100   9.802  0.5024  0.0845  0.2143
 5704TIP3    H138603   3.684   4.085   9.896  1.6269 -1.7404  0.0779
 5704TIP3    H238604   3.757   4.034   9.773 -2.0269 -1.4635 -2.3548
 5705TIP3   OH238605   4.685   4.989   0.521  0.2100  0.4791  0.0126
 5705TIP3    H138606   4.751   4.969   0.454 -1.2117  0.7184 -1.5166
 5705TIP3    H238607   4.679   4.909   0.573  1.7695  0.4909  0.2473
 5706TIP3   OH238608   0.976   3.817  13.425  0.1513  0.5030 -0.2587
 5706TIP3    H138609   0.924   3.895  13.445 -0.4841  0.5847 -1.9798
 5706TIP3    H238610   0.913   3.757  13.385  0.7990 -0.5797  0.3294
 5707TIP3   OH238611   5.873   4.603   3.748  0.3712  0.0664 -0.2113
 5707TIP3    H138612   5.802   4.666   3.764 -0.2655 -0.8418  0.5978
 5707TIP3    H238613   5.897   4.570   3.834  0.3411 -1.1964 -0.6627
 5708TIP3   OH238614   1.994   2.344   9.679 -0.4032  0.4387  0.8503
 5708TIP3    H138615   2.003   2.307   9.767 -0.7178  0.2251  0.7946
 5708TIP3    H238616   2.002   2.438   9.691  1.3826  0.3056  0.8683
 5709TIP3   OH238617   0.871   3.904   9.560  0.1788  0.2100 -0.1165
 5709TIP3    H138618   0.916   3.980   9.523 -1.6236  1.4853  0.2152
 5709TIP3    H238619   0.924   3.829   9.532  1.4395  1.4931 -1.3053
 5710TIP3   OH238620   1.629   4.749  10.611 -0.0413 -0.6332  0.0920
 5710TIP3    H138621   1.634   4.835  10.653  0.5073 -0.1771 -0.8724
 5710TIP3    H238622   1.716   4.735  10.574  0.7972 -2.9158  2.6330
 5711TIP3   OH238623   2.794   5.543  13.209  0.3761 -0.2261  0.1326
 5711TIP3    H138624   2.723   5.605  13.223 -2.0142 -2.9924  1.4242
 5711TIP3    H238625   2.844   5.579  13.136 -2.3153  1.9459 -0.8063
 5712TIP3   OH238626   6.793   1.088  10.220  0.3825 -0.0873 -0.4968
 5712TIP3    H138627   6.880   1.087  10.179  1.4453  4.5224  1.0518
 5712TIP3    H238628   6.810   1.065  10.311 -0.3316 -0.7603 -0.5301
 5713TIP3   OH238629   4.643   1.661  15.044 -0.3634 -0.1427 -0.0197
 5713TIP3    H138630   4.666   1.753  15.037  0.0576 -0.2123  0.4685
 5713TIP3    H238631   4.720   1.614  15.012 -0.2100 -0.3491  0.6475
 5714TIP3   OH238632   3.528   2.754  10.797  0.3733  0.0223 -0.2688
 5714TIP3    H138633   3.604   2.782  10.747 -0.0326  0.2163 -0.7877
 5714TIP3    H238634   3.524   2.659  10.783  0.6697 -0.0278 -0.0234
 5715TIP3   OH238635   1.363   3.353  15.023 -0.2847  0.1015 -0.0423
 5715TIP3    H138636   1.336   3.340  14.932  0.6408 -2.3058 -0.0431
 5715TIP3    H238637   1.318   3.433  15.050 -1.9960 -0.0862 -2.0625
 5716TIP3   OH238638   5.238   3.686  13.704  0.1878  0.3831 -0.1464
 5716TIP3    H138639   5.310   3.658  13.647  0.6402  0.4861  0.3651
 5716TIP3    H238640   5.159   3.660  13.658  0.5743 -0.9821 -0.0806
 5717TIP3   OH238641   0.870   1.122  11.221 -0.4893  0.3795 -0.7908
 5717TIP3    H138642   0.832   1.208  11.241 -1.3811 -0.1437 -0.1426
 5717TIP3    H238643   0.855   1.111  11.127  0.4362  1.3066 -1.0565
 5718TIP3   OH238644   6.727   1.546  14.660  0.2186 -0.7038  0.0130
 5718TIP3    H138645   6.659   1.532  14.726  0.2750  0.7288  0.4139
 5718TIP3    H238646   6.803   1.497  14.691  0.4456  0.4560  1.3583
 5719TIP3   OH238647   2.517   0.717  10.403  0.0294  0.2530  0.4849
 5719TIP3    H138648   2.514   0.762  10.487  2.3802 -0.6977  1.1473
 5719TIP3    H238649   2.570   0.639  10.419 -0.2340 -0.4415 -1.6683
 5720TIP3   OH238650   3.697   4.378   1.471  0.1932 -0.0132  0.3529
 5720TIP3    H138651   3.704   4.288   1.440  0.1806 -0.2572  1.0322
 5720TIP3    H238652   3.638   4.420   1.409  1.3642 -0.0644 -0.8321
 5721TIP3   OH238653   0.413   4.735  14.879 -0.4923 -0.2021  0.0609
 5721TIP3    H138654   0.455   4.815  14.910 -2.2655  0.7925  0.0006
 5721TIP3    H238655   0.399   4.683  14.958 -0.7279  0.2386  0.3126
 5722TIP3   OH238656   3.941   2.949  14.840 -0.6128  0.2342 -0.3237
 5722TIP3    H138657   3.923   3.042  14.829 -2.8366 -0.4297 -3.4195
 5722TIP3    H238658   3.859   2.905  14.816  0.6677 -2.5680  0.0321
 5723TIP3   OH238659   2.883   6.234   9.898  0.5131 -0.2222  0.2004
 5723TIP3    H138660   2.888   6.329   9.885 -2.7856 -0.1340 -1.5994
 5723TIP3    H238661   2.883   6.198   9.810  0.9808 -1.8681  0.8444
 5724TIP3   OH238662   6.907   1.503  10.773 -0.8110 -0.7593 -0.4163
 5724TIP3    H138663   6.847   1.486  10.846 -1.3354 -1.3545 -0.9747
 5724TIP3    H238664   6.860   1.471  10.696 -0.2234 -0.2172 -1.0048
 5725TIP3   OH238665   6.157   0.232   3.081  0.2367 -0.4932 -0.2096
 5725TIP3    H138666   6.216   0.271   3.016  1.6099  1.2118  1.9330
 5725TIP3    H238667   6.074   0.279   3.068  0.9024  0.8462  0.1271
 5726TIP3   OH238668   1.872   5.901  11.836  0.1558 -0.1242 -0.3202
 5726TIP3    H138669   1.882   5.984  11.790  2.0661  0.1953  0.5946
 5726TIP3    H238670   1.794   5.913  11.891 -0.9342  0.2033 -1.8667
 5727TIP3   OH238671   3.639   5.714  14.971 -0.4305  0.1699 -0.1710
 5727TIP3    H138672   3.674   5.729  15.059  2.9903 -0.5334 -1.2852
 5727TIP3    H238673   3.584   5.636  14.981  1.0208 -0.7470  1.1375
 5728TIP3   OH238674   7.149   6.979   1.154  0.0285 -0.3544 -0.8374
 5728TIP3    H138675   7.226   6.982   1.212 -0.8268 -0.7306  0.3562
 5728TIP3    H238676   7.155   7.060   1.103  0.1072  0.6824  0.7372
 5729TIP3   OH238677   2.272   2.513   9.540  0.2798 -0.7299 -0.3227
 5729TIP3    H138678   2.200   2.468   9.496 -0.0693  0.4184 -0.9681
 5729TIP3    H238679   2.229   2.574   9.600  0.7196 -0.4351 -0.3045
 5730TIP3   OH238680   0.588   0.147  14.637 -0.4900  0.2830 -0.1751
 5730TIP3    H138681   0.651   0.219  14.636  0.1542 -0.2592  0.1762
 5730TIP3    H238682   0.507   0.185  14.603  0.0701  0.9542 -0.7883
 5731TIP3   OH238683   1.232   3.898  11.709 -0.4108 -0.1000  0.3572
 5731TIP3    H138684   1.262   3.893  11.800  0.7552 -0.5999 -0.0427
 5731TIP3    H238685   1.209   3.990  11.697  3.8199  1.1307 -0.1192
 5732TIP3   OH238686   1.697   0.382  13.322  0.4517  0.2583 -0.2035
 5732TIP3    H138687   1.685   0.395  13.228 -1.3212  0.8636  0.0697
 5732TIP3    H238688   1.646   0.452  13.362  0.3574 -0.5953  1.2220
 5733TIP3   OH238689   2.912   3.419  12.420  0.0720 -0.0447 -0.4931
 5733TIP3    H138690   2.936   3.510  12.442  3.4357 -0.4513 -1.8031
 5733TIP3    H238691   2.923   3.371  12.502  1.3600  0.2685 -0.4583
 5734TIP3   OH238692   3.583   6.981  14.143  0.6455  0.0059  0.3420
 5734TIP3    H138693   3.535   7.063  14.132 -0.4119 -0.8912 -3.1143
 5734TIP3    H238694   3.637   6.974  14.064  1.5564 -2.1035  1.0686
 5735TIP3   OH238695   5.933   0.660  12.185 -0.2707  0.4732 -0.1260
 5735TIP3    H138696   5.968   0.670  12.273 -0.9901 -1.3389  0.4180
 5735TIP3    H238697   6.010   0.650  12.129  0.2663  3.3090 -0.0203
 5736TIP3   OH238698   1.089   5.168   5.051  0.1335  0.6950  0.1643
 5736TIP3    H138699   1.138   5.116   4.987 -0.7960 -1.1897  0.8984
 5736TIP3    H238700   1.157   5.210   5.103  0.9715 -0.3643 -0.0121
 5737TIP3   OH238701   6.982   3.758  11.846 -0.6437  0.2019  0.5292
 5737TIP3    H138702   6.983   3.697  11.772  0.7200 -0.6856  1.2382
 5737TIP3    H238703   7.074   3.774  11.866 -0.9851  1.4411  1.2379
 5738TIP3   OH238704   3.680   6.385  10.441 -0.0691  0.3166 -0.4006
 5738TIP3    H138705   3.608   6.348  10.491  0.8795 -0.4619  0.4336
 5738TIP3    H238706   3.642   6.462  10.397 -0.5903  2.0795  2.8039
 5739TIP3   OH238707   6.343   5.903  13.653 -0.8140 -0.2677  0.2250
 5739TIP3    H138708   6.319   5.996  13.656  2.3428  0.6591  0.5985
 5739TIP3    H238709   6.353   5.878  13.745  1.4925  0.0110  0.0911
 5740TIP3   OH238710   1.202   7.221  11.888  0.1855 -0.0979 -0.0147
 5740TIP3    H138711   1.144   7.152  11.857  0.7996 -0.8128  0.3854
 5740TIP3    H238712   1.171   7.241  11.976 -2.0589  2.4886 -1.2490
 5741TIP3   OH238713   5.998   6.971  12.010  0.0205  0.5250  0.2901
 5741TIP3    H138714   5.920   6.924  12.040  0.7639 -1.3599 -0.6024
 5741TIP3    H238715   6.033   7.011  12.090 -1.6432  1.1531  0.7617
 5742TIP3   OH238716   1.819   0.901   9.632  0.3482  0.4783  0.4416
 5742TIP3    H138717   1.741   0.952   9.613 -0.3430 -0.5994  0.2692
 5742TIP3    H238718   1.871   0.904   9.552 -0.3464 -0.2253 -0.0391
 5743TIP3   OH238719   0.644   3.908  11.168  0.2049 -0.4168  0.0287
 5743TIP3    H138720   0.731   3.872  11.151  1.0477  1.4447  0.1482
 5743TIP3    H238721   0.631   3.973  11.099  0.4799  1.8679  1.9953
 5744TIP3   OH238722   5.733   6.506   3.975 -0.4732 -0.2285  0.1884
 5744TIP3    H138723   5.797   6.552   4.030 -0.4392  0.7521 -0.6427
 5744TIP3    H238724   5.774   6.503   3.888 -1.4870  0.3028 -0.3208
 5745TIP3   OH238725   2.080   7.217  11.142  0.0973 -0.3057 -0.4795
 5745TIP3    H138726   2.152   7.247  11.197  0.3158  0.2705 -1.0592
 5745TIP3    H238727   2.036   7.297  11.114 -0.0917 -0.5919 -1.0250
 5746TIP3   OH238728   5.597   4.870  14.165 -0.1900 -0.1640 -0.1604
 5746TIP3    H138729   5.609   4.939  14.231 -0.5879  1.7199 -1.9552
 5746TIP3    H238730   5.679   4.820  14.168 -0.5985 -0.8479  2.4582
 5747TIP3   OH238731   5.490   5.249   2.853  0.5342 -0.1051 -0.2971
 5747TIP3    H138732   5.403   5.286   2.839  0.5094  0.3087  0.8224
 5747TIP3    H238733   5.479   5.155   2.838 -0.2276 -0.1223  0.2974
 5748TIP3   OH238734   5.763   1.784  12.905 -0.4418 -0.1545  0.3787
 5748TIP3    H138735   5.783   1.747  12.818  2.2144 -0.6012  1.0949
 5748TIP3    H238736   5.677   1.748  12.927  0.4901 -3.1980 -0.4734
 5749TIP3   OH238737   3.407   2.397   2.613  0.1363 -0.5022  0.0899
 5749TIP3    H138738   3.454   2.323   2.576  3.5947  0.6889  1.6890
 5749TIP3    H238739   3.371   2.365   2.696  1.3324 -0.5079  0.6146
 5750TIP3   OH238740   5.653   2.379   1.735 -0.0549  0.6894  0.4336
 5750TIP3    H138741   5.619   2.457   1.779 -1.1509  0.8857 -0.7046
 5750TIP3    H238742   5.603   2.374   1.653 -0.1703 -1.3368  0.5862
 5751TIP3   OH238743   2.887   7.054  12.332 -0.2384 -0.1890 -0.3280
 5751TIP3    H138744   2.864   7.139  12.292 -0.8164 -0.0428  0.3005
 5751TIP3    H238745   2.802   7.011  12.346  0.0807 -1.1420 -1.2037
 5752TIP3   OH238746   3.253   3.393  14.595  0.0867  0.1249 -0.2586
 5752TIP3    H138747   3.178   3.451  14.581 -0.8695 -0.7992  0.8203
 5752TIP3    H238748   3.329   3.449  14.581 -0.8103  1.3768 -0.2953
 5753TIP3   OH238749   3.566   3.744   2.204 -0.4320 -0.4309  0.5929
 5753TIP3    H138750   3.495   3.702   2.155 -1.2749  0.1441  1.3002
 5753TIP3    H238751   3.553   3.716   2.295 -0.5804  0.7665  0.9571
 5754TIP3   OH238752   1.139   0.107  12.098  0.7939 -0.2036  0.2557
 5754TIP3    H138753   1.194   0.178  12.063  1.0066 -0.6658 -0.3829
 5754TIP3    H238754   1.117   0.135  12.186  4.1385 -1.0989  1.5339
 5755TIP3   OH238755   4.543   1.463  12.323  0.6912  0.4734 -0.6597
 5755TIP3    H138756   4.554   1.399  12.253 -2.1121 -2.2711  1.1455
 5755TIP3    H238757   4.605   1.436  12.390  0.6969  0.7162 -0.5670
 5756TIP3   OH238758   0.309   3.073   0.170 -0.6187 -0.3097  0.0351
 5756TIP3    H138759   0.366   2.998   0.152 -0.0816 -0.0072  0.4483
 5756TIP3    H238760   0.357   3.149   0.137 -0.7179 -0.0383  0.4994
 5757TIP3   OH238761   4.364   3.335  13.751 -0.3511 -0.4278 -0.4677
 5757TIP3    H138762   4.390   3.262  13.695 -1.1669 -1.5188  0.5508
 5757TIP3    H238763   4.363   3.410  13.691  0.7255 -1.1716 -1.4830
 5758TIP3   OH238764   0.292   5.562   2.973  0.2015  0.2043  0.3997
 5758TIP3    H138765   0.306   5.477   3.016 -1.0326 -0.3532 -0.2347
 5758TIP3    H238766   0.198   5.578   2.984  0.3467  1.2932  0.1434
 5759TIP3   OH238767   1.306   6.178  11.552 -0.0080  0.2342  0.1737
 5759TIP3    H138768   1.232   6.122  11.573  0.8411 -1.5176 -1.1884
 5759TIP3    H238769   1.362   6.174  11.629 -0.3809 -0.0789  0.4313
 5760TIP3   OH238770   4.396   2.436  12.828 -0.1977  0.2448  0.1755
 5760TIP3    H138771   4.379   2.500  12.758  1.6340 -1.6217 -2.1483
 5760TIP3    H238772   4.348   2.358  12.802  2.1767 -1.1864 -0.2462
 5761TIP3   OH238773   6.972   3.348   2.452 -0.1743  0.2479 -0.6212
 5761TIP3    H138774   6.926   3.272   2.416  0.4060  0.0037 -0.8626
 5761TIP3    H238775   6.990   3.403   2.376  0.4103  0.0778 -0.6127
 5762TIP3   OH238776   6.535   5.388  13.910 -0.7606  0.7510 -0.3706
 5762TIP3    H138777   6.474   5.454  13.878 -2.4534 -0.7172 -0.3193
 5762TIP3    H238778   6.499   5.305  13.879  1.5386 -0.1539 -0.8241
 5763TIP3   OH238779   1.645   1.830   9.838  0.8131  0.7522  0.0630
 5763TIP3    H138780   1.677   1.843   9.927 -0.1310  0.7227  0.4132
 5763TIP3    H238781   1.639   1.735   9.828 -0.2584  0.7739  0.4061
 5764TIP3   OH238782   2.607   2.270  14.904 -0.2442  0.6218  0.2382
 5764TIP3    H138783   2.549   2.194  14.900  2.2026 -1.3637 -0.3020
 5764TIP3    H238784   2.648   2.265  14.990 -0.8107  2.0077  0.6234
 5765TIP3   OH238785   5.107   4.952   4.166  0.4186  0.5384 -0.0889
 5765TIP3    H138786   5.093   4.949   4.260 -0.1560 -0.9422 -0.1926
 5765TIP3    H238787   5.026   4.918   4.128  0.1326  2.2947 -1.1953
 5766TIP3   OH238788   0.039   5.614  10.522 -0.6449 -0.7350  0.0079
 5766TIP3    H138789  -0.011   5.554  10.466  0.7949 -1.1368 -0.8925
 5766TIP3    H238790   0.110   5.560  10.557  0.7305  0.4251 -0.8807
 5767TIP3   OH238791   3.987   5.381  12.866 -0.0725  0.1252 -0.2182
 5767TIP3    H138792   3.939   5.458  12.834  0.3830 -0.1797 -1.6866
 5767TIP3    H238793   3.965   5.377  12.959 -1.8336  0.7654 -0.5689
 5768TIP3   OH238794   1.886   1.753  13.324 -0.5010 -0.2682  0.3091
 5768TIP3    H138795   1.928   1.835  13.298 -3.6599  0.9948 -1.3194
 5768TIP3    H238796   1.945   1.685  13.291  2.1661  1.2469  1.6411
 5769TIP3   OH238797   3.231   4.140  11.572 -0.3889 -0.3502  0.0631
 5769TIP3    H138798   3.193   4.090  11.644  0.2883 -0.5872  0.2621
 5769TIP3    H238799   3.174   4.121  11.497 -0.6131 -0.7623  0.3360
 5770TIP3   OH238800   0.821   5.648  12.356  0.2940  0.2565  0.7487
 5770TIP3    H138801   0.822   5.744  12.359 -1.1172  0.4057 -1.3895
 5770TIP3    H238802   0.735   5.623  12.390  0.5318 -0.2195  1.0051
 5771TIP3   OH238803   4.508   6.890  10.533  0.2083  0.2019 -0.2688
 5771TIP3    H138804   4.548   6.960  10.482  0.4793 -0.2066 -0.6281
 5771TIP3    H238805   4.553   6.894  10.618 -0.2032  0.8425 -0.0745
 5772TIP3   OH238806   6.962   5.103   0.692 -0.3334  0.2134  0.1130
 5772TIP3    H138807   6.887   5.162   0.684  0.3253  1.0755  0.1512
 5772TIP3    H238808   6.955   5.066   0.781  1.6826  3.7344  1.9674
 5773TIP3   OH238809   3.723   5.551  12.924  0.6649 -0.3977  0.4324
 5773TIP3    H138810   3.649   5.612  12.919  1.1004  0.1467  0.5167
 5773TIP3    H238811   3.799   5.604  12.901  1.0650 -0.8899  0.6109
 5774TIP3   OH238812   4.099   2.909  12.645  0.4476 -0.0100 -0.0169
 5774TIP3    H138813   4.072   2.824  12.681 -2.9134  0.4478 -1.0787
 5774TIP3    H238814   4.085   2.970  12.717  0.0736 -0.0022 -0.0904
 5775TIP3   OH238815   0.667   4.356  12.242 -0.0900  0.2885 -0.2319
 5775TIP3    H138816   0.741   4.385  12.296 -1.3220  3.0893  0.1113
 5775TIP3    H238817   0.617   4.298  12.300  0.7212  0.0281  0.2319
 5776TIP3   OH238818   1.007   1.711  10.675  0.1493 -0.0939  0.0263
 5776TIP3    H138819   1.081   1.767  10.697  0.3047  0.0413 -0.8182
 5776TIP3    H238820   1.034   1.665  10.596 -1.2466  1.1207 -1.2156
 5777TIP3   OH238821   2.475   0.782  10.667 -0.8119  0.1587  0.2291
 5777TIP3    H138822   2.461   0.842  10.740  0.8310 -0.9249  1.4983
 5777TIP3    H238823   2.530   0.713  10.702  0.8272  0.0419 -2.2668
 5778TIP3   OH238824   2.273   5.949   5.628  0.6524 -0.9118  0.5088
 5778TIP3    H138825   2.304   5.926   5.716  1.3427 -0.5767  0.3644
 5778TIP3    H238826   2.185   5.985   5.643  0.0390 -2.4972  0.8541
 5779TIP3   OH238827   5.134   2.469  13.621 -0.0288 -0.3698  0.5384
 5779TIP3    H138828   5.101   2.390  13.577 -1.5710  0.7453 -0.3993
 5779TIP3    H238829   5.190   2.435  13.691 -0.6658 -2.2973  0.1916
 5780TIP3   OH238830   0.180   5.877  10.447  0.2093  0.0255 -0.0196
 5780TIP3    H138831   0.126   5.952  10.473  1.1962  0.9257 -0.4512
 5780TIP3    H238832   0.140   5.802  10.491  0.1753  1.0582  1.8350
 5781TIP3   OH238833   5.783   2.797  11.479  0.0158  0.3281  0.1186
 5781TIP3    H138834   5.810   2.809  11.388  0.2190  1.6866  0.3457
 5781TIP3    H238835   5.727   2.719  11.477  0.8212 -0.2516 -0.9925
 5782TIP3   OH238836   1.047   3.475  13.963  0.1955  0.4878 -0.5380
 5782TIP3    H138837   1.034   3.533  14.038  0.5712 -0.3834  0.2195
 5782TIP3    H238838   1.140   3.484  13.940 -0.3934  2.6420 -2.5404
 5783TIP3   OH238839   1.185   3.712  12.437  0.1347 -0.2700  0.2605
 5783TIP3    H138840   1.157   3.746  12.522 -2.6066 -3.1215  0.6833
 5783TIP3    H238841   1.120   3.747  12.376  0.2288 -0.7538 -0.1149
 5784TIP3   OH238842   3.351   5.772   1.555  0.3068  0.4276 -0.7346
 5784TIP3    H138843   3.296   5.775   1.634 -0.0750  1.5530 -1.0323
 5784TIP3    H238844   3.306   5.710   1.498 -0.2447  0.7673 -0.6739
 5785TIP3   OH238845   4.985   0.211   0.370 -0.0374 -0.8543  0.3581
 5785TIP3    H138846   5.059   0.189   0.428 -1.2709  0.6297  2.6508
 5785TIP3    H238847   4.907   0.195   0.424 -1.2848  0.2722 -1.0379
 5786TIP3   OH238848   5.002   1.934  14.960  0.8034  0.3405  0.2351
 5786TIP3    H138849   5.003   2.027  14.984 -0.6182  0.3993  0.1872
 5786TIP3    H238850   5.093   1.913  14.940  1.2837  1.4870  1.1289
 5787TIP3   OH238851   1.736   2.056   5.276  0.2750  0.3106  0.0831
 5787TIP3    H138852   1.737   1.986   5.211  1.4110  0.2015  0.1872
 5787TIP3    H238853   1.648   2.092   5.272 -0.0116 -0.4452 -0.7051
 5788TIP3   OH238854   2.429   3.557   4.703 -0.4054 -0.0665  0.2887
 5788TIP3    H138855   2.476   3.486   4.661 -0.0373 -0.3809  1.1924
 5788TIP3    H238856   2.487   3.633   4.695 -0.7662  0.1169 -0.6117
 5789TIP3   OH238857   6.156   2.093  10.648  0.3097  0.0648 -0.9796
 5789TIP3    H138858   6.168   2.009  10.604 -0.1259  0.5473 -2.0834
 5789TIP3    H238859   6.141   2.071  10.740 -3.1470 -1.3800 -1.6966
 5790TIP3   OH238860   3.138   3.516  10.453 -0.3446  0.2803  0.1291
 5790TIP3    H138861   3.177   3.489  10.369  0.4246  1.3494  0.1321
 5790TIP3    H238862   3.066   3.453  10.466  0.0921 -0.4707 -0.8752
 5791TIP3   OH238863   0.185   6.995   9.446  0.0347 -0.0743 -0.1601
 5791TIP3    H138864   0.277   7.018   9.458  0.9191 -2.5539 -1.5248
 5791TIP3    H238865   0.184   6.899   9.445 -2.5640 -0.1187 -0.2632
 5792TIP3   OH238866   2.332   6.732  13.340  0.2035  0.3488 -0.5278
 5792TIP3    H138867   2.405   6.757  13.283 -0.5802  1.8322 -0.9294
 5792TIP3    H238868   2.296   6.815  13.371 -0.7201 -0.3843  0.4385
 5793TIP3   OH238869   1.586   5.815  10.260 -0.9618 -0.0149  0.2975
 5793TIP3    H138870   1.540   5.893  10.227 -2.5637 -1.3012 -0.7206
 5793TIP3    H238871   1.574   5.818  10.354 -3.4800 -0.3994  0.0627
 5794TIP3   OH238872   2.628   5.362   0.074  0.4431  0.4005  0.2781
 5794TIP3    H138873   2.648   5.425   0.144  2.2366 -2.6346  2.7676
 5794TIP3    H238874   2.589   5.288   0.120 -0.6379 -0.7735 -2.3593
 5795TIP3   OH238875   2.634   4.243  12.041  0.0759 -0.1454  0.3544
 5795TIP3    H138876   2.572   4.310  12.014 -1.1635 -0.7728  1.5230
 5795TIP3    H238877   2.636   4.182  11.967 -0.2545  0.1784  0.0686
 5796TIP3   OH238878   6.664   0.802  15.211 -0.8550 -0.3914 -0.8465
 5796TIP3    H138879   6.725   0.865  15.172 -0.1227 -0.0701  0.7487
 5796TIP3    H238880   6.689   0.718  15.173 -0.6771  0.0085 -1.6433
 5797TIP3   OH238881   6.704   5.589   1.042  0.9176 -0.7849  0.4191
 5797TIP3    H138882   6.627   5.636   1.075  1.0730  0.4513 -0.8923
 5797TIP3    H238883   6.748   5.557   1.121  0.6353  1.0253  1.3639
 5798TIP3   OH238884   1.217   6.105  13.334  0.3398  0.0356  0.3464
 5798TIP3    H138885   1.240   6.043  13.265  1.1411 -0.3767  0.9692
 5798TIP3    H238886   1.169   6.053  13.399  0.2578  0.2494  0.4606
 5799TIP3   OH238887   3.054   0.018  11.807 -0.1958 -0.4611 -0.3786
 5799TIP3    H138888   3.022  -0.003  11.720  1.6473  0.0399 -1.2136
 5799TIP3    H238889   3.149   0.023  11.798 -0.1099  2.1596  1.0646
 5800TIP3   OH238890   0.416   1.912  10.043  0.0922  0.4105 -0.0828
 5800TIP3    H138891   0.482   1.845  10.022 -1.1143 -0.0993 -2.7031
 5800TIP3    H238892   0.332   1.867  10.032 -0.7526  1.5080  1.4623
 5801TIP3   OH238893   2.991   1.294  10.307  0.5343 -0.3387 -0.3113
 5801TIP3    H138894   2.919   1.239  10.277  2.1830 -1.9145 -1.6052
 5801TIP3    H238895   2.998   1.276  10.401  1.7068 -3.2956 -0.8657
 5802TIP3   OH238896   1.994   2.723   2.613 -0.1016 -0.2160 -0.1008
 5802TIP3    H138897   1.925   2.706   2.548 -1.3249 -0.2159  1.1583
 5802TIP3    H238898   1.979   2.813   2.641 -0.7657 -0.7771  1.4849
 5803TIP3   OH238899   2.973   6.931   9.759  0.4206 -0.4811  0.2322
 5803TIP3    H138900   2.907   6.972   9.814 -0.0331 -1.5969  0.5404
 5803TIP3    H238901   3.056   6.963   9.794  0.0637  1.4371 -0.5672
 5804TIP3   OH238902   5.722   2.521  11.662  0.3911 -0.1134  0.4558
 5804TIP3    H138903   5.680   2.528  11.576 -0.3062 -1.7451  0.6161
 5804TIP3    H238904   5.815   2.531  11.644  0.2026  0.1383 -0.4195
 5805TIP3   OH238905   0.468   1.257   0.542 -0.3385  0.1888  0.0182
 5805TIP3    H138906   0.406   1.290   0.477 -1.0671  0.5439  0.8678
 5805TIP3    H238907   0.447   1.305   0.622  0.3606 -0.4302  0.5908
 5806TIP3   OH238908   3.199   4.625   0.873  0.3541 -0.2553 -0.3580
 5806TIP3    H138909   3.125   4.649   0.929 -0.1792 -0.9872 -0.7409
 5806TIP3    H238910   3.265   4.590   0.934  0.0626 -0.3759 -0.1081
 5807TIP3   OH238911   1.819   6.865  12.727 -0.0036 -0.7499  0.3210
 5807TIP3    H138912   1.814   6.952  12.687 -0.7931 -0.9290  0.0113
 5807TIP3    H238913   1.898   6.826  12.691  0.0899 -0.3412  0.0845
 5808TIP3   OH238914   3.013   4.354   2.414 -0.2219 -0.1195  0.0370
 5808TIP3    H138915   2.918   4.362   2.403 -0.2597  0.7320  0.8248
 5808TIP3    H238916   3.046   4.336   2.326 -1.2034 -1.5592 -0.0748
 5809TIP3   OH238917   0.692   3.175  10.494 -0.4578 -0.2661  0.3353
 5809TIP3    H138918   0.710   3.159  10.402 -1.4035 -0.4530  0.1739
 5809TIP3    H238919   0.684   3.270  10.501  0.0015 -0.2231  0.3052
 5810TIP3   OH238920   5.310   5.058   2.615 -0.0992  0.1241  0.3354
 5810TIP3    H138921   5.380   5.011   2.661 -0.4376  0.0304  0.7621
 5810TIP3    H238922   5.351   5.089   2.535  0.1699 -0.7911  0.1011
 5811TIP3   OH238923   4.673   6.777   3.885  0.5381  0.0888  0.4117
 5811TIP3    H138924   4.746   6.819   3.931  1.8673  0.3277 -1.7390
 5811TIP3    H238925   4.674   6.687   3.916  1.4338  0.2204  0.7906
 5812TIP3   OH238926   4.164   0.317  12.177 -0.4760 -0.1924  0.3314
 5812TIP3    H138927   4.077   0.356  12.183 -0.2077  0.3175  1.0696
 5812TIP3    H238928   4.216   0.382  12.130 -0.6449 -0.7890 -0.7129
 5813TIP3   OH238929   6.596   3.463  10.229  0.4977 -0.4413  0.0074
 5813TIP3    H138930   6.614   3.522  10.302  1.5231  0.9605 -1.2923
 5813TIP3    H238931   6.620   3.514  10.151 -0.4252 -1.9138 -1.3031
 5814TIP3   OH238932   6.316   5.845  10.314 -0.4390  0.4263 -0.1131
 5814TIP3    H138933   6.346   5.755  10.328  0.4806  0.4697 -1.6185
 5814TIP3    H238934   6.220   5.838  10.313 -0.3700 -0.6207 -0.7261
 5815TIP3   OH238935   2.446   4.355  11.388  0.3600 -0.4263  0.1556
 5815TIP3    H138936   2.488   4.440  11.386  0.3353 -0.3759 -2.6957
 5815TIP3    H238937   2.515   4.294  11.414  0.7742  0.2484  0.6628
 5816TIP3   OH238938   4.351   7.154  10.293  0.1045 -0.1159  0.1205
 5816TIP3    H138939   4.401   7.234  10.280 -0.2547 -0.1494 -1.7180
 5816TIP3    H238940   4.416   7.084  10.290  0.2584  0.0124  0.4101
 5817TIP3   OH238941   6.671   4.251   1.067  0.0620  0.2561 -0.1840
 5817TIP3    H138942   6.683   4.236   0.973 -0.1155  0.8318 -0.3060
 5817TIP3    H238943   6.578   4.274   1.076 -0.0195 -0.2198  0.1911
 5818TIP3   OH238944   4.491   1.902   9.261  0.3815  0.2056 -0.1629
 5818TIP3    H138945   4.537   1.829   9.303 -0.7718 -0.4822 -0.0572
 5818TIP3    H238946   4.442   1.861   9.189 -2.3471  0.3896  1.4510
 5819TIP3   OH238947   0.233   6.876  12.305  0.0229 -0.2667  0.2361
 5819TIP3    H138948   0.247   6.850  12.396  0.3668 -0.5053  0.1148
 5819TIP3    H238949   0.312   6.924  12.281 -0.3778  0.4254  0.2876
 5820TIP3   OH238950   0.279   5.806  13.272  0.1280  0.2436  0.0354
 5820TIP3    H138951   0.195   5.762  13.256  0.5641 -0.5989  0.0109
 5820TIP3    H238952   0.306   5.839  13.187  1.6026 -2.7224 -0.7909
 5821TIP3   OH238953   3.961   4.993   5.000 -0.3925 -0.0949 -0.7015
 5821TIP3    H138954   3.922   5.054   4.938  2.7361  0.4117 -2.4069
 5821TIP3    H238955   4.002   4.926   4.946 -0.9962 -1.9733  1.0215
 5822TIP3   OH238956   6.191   7.196  12.273  0.1355  0.3645 -0.3452
 5822TIP3    H138957   6.219   7.169  12.185 -0.7482  2.0110 -1.1859
 5822TIP3    H238958   6.183   7.292  12.266  0.9686  0.6354  1.8147
 5823TIP3   OH238959   6.491   7.162  10.910 -0.9875  0.1002  0.6448
 5823TIP3    H138960   6.453   7.096  10.967 -1.9424 -0.7868 -0.9398
 5823TIP3    H238961   6.422   7.227  10.898 -1.2128 -0.2887 -0.3267
 5824TIP3   OH238962   5.012   7.147  14.992 -0.3817 -0.1601 -0.1773
 5824TIP3    H138963   5.092   7.173  14.948 -0.7295 -1.3578 -1.5755
 5824TIP3    H238964   4.949   7.130  14.922 -1.5770 -0.1751  0.8500
 5825TIP3   OH238965   2.134   0.756  13.284  0.5646  0.1593 -0.3181
 5825TIP3    H138966   2.200   0.687  13.277  0.4599  0.0025  0.2037
 5825TIP3    H238967   2.098   0.764  13.196  1.0884  0.0552 -0.5476
 5826TIP3   OH238968   0.851   2.842  15.018 -0.1280 -0.1892 -0.2567
 5826TIP3    H138969   0.893   2.760  14.991  1.3202 -0.4251  2.3811
 5826TIP3    H238970   0.855   2.897  14.940  2.5236 -1.2529 -0.9782
 5827TIP3   OH238971   4.880   0.689  13.147  0.0988  0.0234 -0.2659
 5827TIP3    H138972   4.940   0.719  13.216 -0.1648  0.2680 -0.1423
 5827TIP3    H238973   4.812   0.641  13.194 -0.8446  1.3707 -0.1973
 5828TIP3   OH238974   5.037   6.427   9.614 -0.0528  0.2337 -0.0881
 5828TIP3    H138975   5.047   6.517   9.581 -0.3988 -0.7589 -3.2480
 5828TIP3    H238976   4.953   6.427   9.659 -0.0695  1.4865 -0.0880
 5829TIP3   OH238977   1.112   4.492  15.080  0.0038 -0.8161 -0.1240
 5829TIP3    H138978   1.199   4.461  15.105  0.0834 -1.0316 -0.6542
 5829TIP3    H238979   1.052   4.423  15.111  0.0527 -0.8408 -0.0840
 5830TIP3   OH238980   2.655   5.445   2.404  0.2627 -0.4015  0.4639
 5830TIP3    H138981   2.580   5.401   2.363  0.5491 -0.1424 -0.3691
 5830TIP3    H238982   2.623   5.474   2.489  0.2079 -2.6704  1.2739
 5831TIP3   OH238983   2.520   3.348  10.868  0.2150  0.0521 -0.4336
 5831TIP3    H138984   2.482   3.274  10.821  0.5107 -0.2903 -0.1438
 5831TIP3    H238985   2.591   3.310  10.919  0.7259  0.6260 -0.6981
 5832TIP3   OH238986   0.816   3.882   2.649 -0.3461 -0.3181  0.2103
 5832TIP3    H138987   0.766   3.951   2.606 -0.0678  0.0505  0.4690
 5832TIP3    H238988   0.755   3.809   2.658 -0.2766 -0.5936 -1.2662
 5833TIP3   OH238989   5.332   6.299   1.489  0.3673 -0.1168  0.7546
 5833TIP3    H138990   5.252   6.351   1.487  1.1878  1.2737 -2.3633
 5833TIP3    H238991   5.389   6.344   1.552  0.4051  1.8738 -0.5982
 5834TIP3   OH238992   7.243   3.749  10.530  0.2385  0.0331  0.2258
 5834TIP3    H138993   7.236   3.797  10.447  0.1594  0.1992  0.3290
 5834TIP3    H238994   7.228   3.815  10.597 -1.0212 -0.3511  0.3419
 5835TIP3   OH238995   3.583   3.832  12.716  0.2190 -0.0144 -0.6145
 5835TIP3    H138996   3.587   3.856  12.808  0.3826 -2.1179 -0.0354
 5835TIP3    H238997   3.666   3.864  12.679  0.4605  0.2260  0.1240
 5836TIP3   OH238998   4.036   7.242  14.290  0.1835 -0.4632  0.1523
 5836TIP3    H138999   4.014   7.158  14.249  2.3691 -1.3134  0.6035
 5836TIP3    H239000   4.064   7.298  14.217  3.7791 -1.8760  0.2777
 5837TIP3   OH239001   3.045   6.058   0.504  0.3731  0.4324 -0.1848
 5837TIP3    H139002   2.979   6.051   0.434  0.1897  1.2921 -0.1072
 5837TIP3    H239003   3.125   6.085   0.459  0.6085 -0.3344 -0.2390
 5838TIP3   OH239004   5.820   2.733  12.254 -0.4847  0.0598 -0.0817
 5838TIP3    H139005   5.768   2.706  12.178 -1.0227  0.1878  0.2389
 5838TIP3    H239006   5.778   2.692  12.329 -0.7169  0.9510  0.2947
 5839TIP3   OH239007   2.693   1.735  12.731 -0.1376 -0.0033 -0.1175
 5839TIP3    H139008   2.730   1.735  12.819  1.2630 -2.2871 -0.6129
 5839TIP3    H239009   2.763   1.769  12.675 -0.4383 -0.0395 -0.5223
 5840TIP3   OH239010   5.427   4.186  13.813  0.4132 -0.4557 -0.0853
 5840TIP3    H139011   5.517   4.180  13.846 -0.3355 -2.2590  1.9535
 5840TIP3    H239012   5.389   4.101  13.835 -2.3638  0.9359  0.9676
 5841TIP3   OH239013   6.799   4.795  12.999  0.0705 -0.1118  0.3276
 5841TIP3    H139014   6.817   4.739  12.924 -1.0571 -2.1977  1.5350
 5841TIP3    H239015   6.705   4.784  13.015  0.0401  1.2575  1.3184
 5842TIP3   OH239016   4.867   6.520   9.982  1.0696 -0.1462 -0.0855
 5842TIP3    H139017   4.865   6.426   9.963  1.0626 -0.5082  1.5686
 5842TIP3    H239018   4.779   6.551   9.958  0.2206 -1.0733  1.6320
 5843TIP3   OH239019   6.579   1.549   3.646 -0.6050 -0.6680  0.3149
 5843TIP3    H139020   6.554   1.600   3.724  1.1566  0.5262  0.1639
 5843TIP3    H239021   6.497   1.512   3.614 -1.5727 -0.0323  1.9397
 5844TIP3   OH239022   2.549   0.230  12.708 -0.4058 -0.1255 -0.4759
 5844TIP3    H139023   2.516   0.176  12.636 -0.1462 -0.4899 -0.3276
 5844TIP3    H239024   2.471   0.270  12.746 -0.9304 -2.4066  1.0339
 5845TIP3   OH239025   3.617   3.822   3.944  0.3000 -0.9190 -0.3300
 5845TIP3    H139026   3.589   3.754   3.883  1.4943 -1.1813 -0.6000
 5845TIP3    H239027   3.685   3.781   3.996  0.2481 -0.2666  0.2697
 5846TIP3   OH239028   1.445   4.441  13.109  0.2645 -0.0475  0.2193
 5846TIP3    H139029   1.457   4.347  13.103  1.6744  0.2160 -2.1881
 5846TIP3    H239030   1.479   4.464  13.196  0.0926 -1.7047  0.7544
 5847TIP3   OH239031   3.915   4.994  14.464 -0.1899  0.0546  0.1384
 5847TIP3    H139032   3.876   4.907  14.470 -0.4933  0.1119 -0.8311
 5847TIP3    H239033   3.902   5.032  14.551 -1.3233 -0.3426  0.1577
 5848TIP3   OH239034   7.110   0.198  13.820 -0.0037  0.7952  0.5138
 5848TIP3    H139035   7.099   0.120  13.875  3.7100 -0.1518  0.2037
 5848TIP3    H239036   7.047   0.260  13.854 -2.2565 -1.8823  1.6352
 5849TIP3   OH239037   3.024   2.071  13.664 -0.2936  0.0833  0.1074
 5849TIP3    H139038   3.010   1.987  13.620 -2.5493  0.3149  0.2532
 5849TIP3    H239039   3.039   2.048  13.756 -1.8280 -0.1618  0.3220
 5850TIP3   OH239040   6.700   2.639  10.614 -0.6722  0.1178 -0.2049
 5850TIP3    H139041   6.736   2.700  10.550  1.8258 -0.9396  0.0679
 5850TIP3    H239042   6.622   2.683  10.649 -1.5211  1.1908 -3.1377
 5851TIP3   OH239043   1.806   2.737   0.321 -0.0370 -0.1808  0.1233
 5851TIP3    H139044   1.728   2.692   0.289 -0.1790  0.6316 -0.7212
 5851TIP3    H239045   1.835   2.685   0.396  1.5841 -3.5271 -2.5217
 5852TIP3   OH239046   7.074   1.229  12.039 -0.0327  0.1057 -0.1216
 5852TIP3    H139047   7.046   1.142  12.013  0.7495  0.0622 -0.8521
 5852TIP3    H239048   7.000   1.265  12.088  0.2091 -1.5625  1.5896
 5853TIP3   OH239049   5.239   3.425  12.072  0.6934 -0.3497  0.1223
 5853TIP3    H139050   5.160   3.376  12.096  1.4584 -0.5627  2.4036
 5853TIP3    H239051   5.310   3.362  12.081  1.3293  0.3030 -0.2403
 5854TIP3   OH239052   2.659   6.880  11.048  0.3817  0.4581 -0.1259
 5854TIP3    H139053   2.703   6.798  11.069  1.1257  0.8345 -0.1539
 5854TIP3    H239054   2.727   6.947  11.061  0.1524  0.9460 -1.3180
 5855TIP3   OH239055   5.079   3.023  10.269 -0.2651 -0.2649 -0.4445
 5855TIP3    H139056   5.025   3.045  10.344  0.1649  0.3690 -0.3141
 5855TIP3    H239057   5.022   2.971  10.213 -0.4657 -1.0841  0.4966
 5856TIP3   OH239058   0.001   0.056  11.379  0.0847  0.0407 -0.0189
 5856TIP3    H139059  -0.013   0.043  11.473 -1.7775 -0.5522 -0.3326
 5856TIP3    H239060  -0.070   0.006  11.338  0.6171  0.6469 -1.7318
 5857TIP3   OH239061   6.829   1.914  14.426 -0.5477  0.7193 -0.0312
 5857TIP3    H139062   6.890   1.858  14.475 -0.0966  1.6195  0.4722
 5857TIP3    H239063   6.884   1.956  14.360 -1.1375 -0.4174 -1.2832
 5858TIP3   OH239064   1.381   4.570   2.823  0.2907  0.1215  0.2075
 5858TIP3    H139065   1.407   4.606   2.908  1.5317 -0.9629  0.3190
 5858TIP3    H239066   1.325   4.496   2.845  0.8562 -0.3449  0.1029
 5859TIP3   OH239067   5.138   0.806   0.472 -0.3665  0.1688 -0.2442
 5859TIP3    H139068   5.095   0.761   0.399 -0.1700 -0.3026 -0.0750
 5859TIP3    H239069   5.130   0.745   0.545 -0.2835  0.5033  0.0486
 5860TIP3   OH239070   4.954   0.057  13.073  0.1099  0.1384  0.4432
 5860TIP3    H139071   5.007   0.112  13.130  0.3802 -0.2886  0.6151
 5860TIP3    H239072   4.904   0.118  13.019 -0.4655  0.5538  1.4220
 5861TIP3   OH239073   2.706   5.869  12.178  0.1430  0.1760  0.5280
 5861TIP3    H139074   2.710   5.785  12.224 -2.3473  1.3135  3.1887
 5861TIP3    H239075   2.781   5.918  12.211  0.3455 -0.2525  0.7115
 5862TIP3   OH239076   4.647   3.332  14.272  0.6775 -0.1120  0.1052
 5862TIP3    H139077   4.644   3.283  14.190  1.6660  0.9918 -0.6326
 5862TIP3    H239078   4.738   3.329  14.299  0.1783 -1.4463  1.8402
 5863TIP3   OH239079   5.110   2.823   2.959 -0.4179  0.6648 -0.3844
 5863TIP3    H139080   5.066   2.739   2.971  2.1045 -0.6137  0.7127
 5863TIP3    H239081   5.099   2.868   3.043 -1.0953  1.1213 -0.7076
 5864TIP3   OH239082   1.163   5.634  14.212  0.2749 -0.3734  0.2235
 5864TIP3    H139083   1.237   5.612  14.154  1.7845  4.4099 -0.1738
 5864TIP3    H239084   1.200   5.631  14.300  1.0712  1.8237  0.0387
 5865TIP3   OH239085   6.978   5.043  13.562 -0.0562 -0.0070 -0.4748
 5865TIP3    H139086   6.965   4.952  13.536  1.5088 -0.6270  0.6893
 5865TIP3    H239087   6.942   5.048  13.650  1.8493 -0.1559  0.3663
 5866TIP3   OH239088   3.417   6.710   0.561  0.2875 -0.6354  0.4831
 5866TIP3    H139089   3.511   6.712   0.548  0.1472 -1.5498 -0.9418
 5866TIP3    H239090   3.405   6.674   0.649  1.2612 -2.5651 -0.1146
 5867TIP3   OH239091   2.100   0.373   4.259 -0.0654  0.0872  0.1241
 5867TIP3    H139092   2.153   0.339   4.330  0.5873  0.2293 -0.2906
 5867TIP3    H239093   2.077   0.296   4.207  0.7424  0.1645 -0.3652
 5868TIP3   OH239094   5.765   0.157   9.270 -0.4141 -0.2861  0.3286
 5868TIP3    H139095   5.718   0.077   9.249 -2.8129  1.4381 -1.5006
 5868TIP3    H239096   5.697   0.223   9.280  1.5171  1.9685 -0.3673
 5869TIP3   OH239097   3.781   7.046  12.947 -0.0966  0.2233  0.2887
 5869TIP3    H139098   3.858   7.027  13.000  0.4501 -1.3592 -1.0203
 5869TIP3    H239099   3.716   6.981  12.974 -0.2054  0.1308 -0.1841
 5870TIP3   OH239100   2.635   0.906  10.238  0.1185  0.2596  0.2823
 5870TIP3    H139101   2.595   0.835  10.287 -0.5315  0.8067  0.5572
 5870TIP3    H239102   2.607   0.892  10.147  1.5743 -0.9298 -0.0266
 5871TIP3   OH239103   4.472   4.277  15.330 -0.0838 -0.0222  0.6376
 5871TIP3    H139104   4.408   4.230  15.277  0.2783 -0.0477  0.2212
 5871TIP3    H239105   4.425   4.297  15.411 -1.6299  2.5974 -0.7666
 5872TIP3   OH239106   5.077   3.948  11.174 -0.4311  0.0128 -0.0890
 5872TIP3    H139107   5.168   3.928  11.196 -0.6494 -1.8645 -0.7277
 5872TIP3    H239108   5.026   3.909  11.245 -0.7751  0.9299  0.1906
 5873TIP3   OH239109   2.176   0.058  11.869 -0.2631 -0.2762  0.1561
 5873TIP3    H139110   2.108   0.096  11.814 -0.4597 -0.1783  0.4643
 5873TIP3    H239111   2.128   0.007  11.934 -0.0097 -0.9730 -0.1888
 5874TIP3   OH239112   7.137   2.813  11.097  0.3005  0.5802 -0.2626
 5874TIP3    H139113   7.045   2.804  11.118  0.2132 -0.8168 -1.0673
 5874TIP3    H239114   7.155   2.906  11.102 -0.5759  0.6683  2.1749
 5875TIP3   OH239115   4.069   1.949  10.563 -0.1551 -0.4643 -0.1128
 5875TIP3    H139116   4.105   1.997  10.488  0.6648  0.0357  0.5776
 5875TIP3    H239117   4.016   2.013  10.609 -1.3933 -1.0137 -0.7387
 5876TIP3   OH239118   4.338   5.290  12.984 -0.7817  0.5008 -0.2809
 5876TIP3    H139119   4.407   5.284  13.050  0.7298  0.9162 -1.7454
 5876TIP3    H239120   4.301   5.377  12.996  0.5014  1.1644 -0.8774
 5877TIP3   OH239121   6.026   0.193  12.395  0.0193  0.3976  0.3226
 5877TIP3    H139122   5.953   0.139  12.425 -0.0660 -0.5782 -1.4766
 5877TIP3    H239123   6.013   0.200  12.300  2.9246 -0.9551 -0.2969
 5878TIP3   OH239124   1.908   2.801  15.043  0.0442 -0.1713  0.1236
 5878TIP3    H139125   1.853   2.870  15.004  0.7841 -0.1135 -0.8563
 5878TIP3    H239126   1.850   2.725  15.048 -1.5830  1.1022  3.5498
 5879TIP3   OH239127   3.677   5.359   2.548 -0.0166  0.3047 -0.2993
 5879TIP3    H139128   3.620   5.299   2.595  0.4736 -0.6260 -0.8679
 5879TIP3    H239129   3.630   5.443   2.549 -0.2204  0.2086  1.4456
 5880TIP3   OH239130   4.906   5.399  11.991  0.0533 -0.1389 -0.3831
 5880TIP3    H139131   4.886   5.480  12.037 -0.0621 -0.3450 -0.0704
 5880TIP3    H239132   4.887   5.330  12.054  1.1515 -0.3728 -0.2988
 5881TIP3   OH239133   0.733   2.750  12.732  0.1532 -0.0250  0.1750
 5881TIP3    H139134   0.694   2.838  12.723  0.3348 -0.1320 -2.4624
 5881TIP3    H239135   0.827   2.767  12.743  0.0435  0.1169  0.9550
 5882TIP3   OH239136   4.155   1.516   9.679 -0.1496  0.2713 -0.4710
 5882TIP3    H139137   4.108   1.587   9.723  1.1583  0.0274  1.4169
 5882TIP3    H239138   4.247   1.533   9.698  0.3038 -0.9657 -1.4839
 5883TIP3   OH239139   4.670   6.621   2.654 -0.3578  0.2302  0.2444
 5883TIP3    H139140   4.586   6.590   2.688 -0.2782  0.2519  0.4638
 5883TIP3    H239141   4.656   6.714   2.637  0.3192  0.8195  2.5873
 5884TIP3   OH239142   0.845   6.829   9.330 -0.2140 -0.4980 -0.6330
 5884TIP3    H139143   0.769   6.867   9.374  1.0252 -0.7167  1.8480
 5884TIP3    H239144   0.916   6.833   9.395  1.6482 -1.2489 -2.4806
 5885TIP3   OH239145   4.053   6.717  10.636 -0.7123 -0.3476  0.4958
 5885TIP3    H139146   4.120   6.726  10.568 -0.8714 -0.1583  0.3621
 5885TIP3    H239147   3.997   6.794  10.625 -1.5935 -1.0422 -0.1054
 5886TIP3   OH239148   4.366   3.083  13.282  0.2893  0.1729  0.0887
 5886TIP3    H139149   4.411   2.999  13.289  0.6021  0.3784  0.6070
 5886TIP3    H239150   4.273   3.061  13.279  0.2724 -0.1334  1.7453
 5887TIP3   OH239151   0.926   2.596   0.841  0.1522  0.2237 -0.4741
 5887TIP3    H139152   0.849   2.541   0.852  0.1201  0.5560  1.2203
 5887TIP3    H239153   0.918   2.663   0.909  1.4683  0.8228 -0.8699
 5888TIP3   OH239154   3.022   3.049  13.921 -0.5782  0.1338 -0.0817
 5888TIP3    H139155   2.941   3.068  13.967  0.0043  1.3375  0.4983
 5888TIP3    H239156   3.091   3.078  13.980  0.2410  0.0424 -0.9622
 5889TIP3   OH239157   3.377   7.184  11.876  0.0213  0.4390 -0.1472
 5889TIP3    H139158   3.329   7.195  11.958  2.9331  0.2001  1.7530
 5889TIP3    H239159   3.380   7.271  11.837 -1.0729  0.6342  0.1832
 5890TIP3   OH239160   4.280   2.046  12.518  0.7493  0.7127  0.2366
 5890TIP3    H139161   4.205   2.102  12.499  1.0805  1.8496  1.9956
 5890TIP3    H239162   4.303   2.006  12.434 -0.2958  2.2367 -0.8182
 5891TIP3   OH239163   4.256   6.974  13.963 -0.1203 -0.5733  0.2166
 5891TIP3    H139164   4.177   6.923  13.942 -0.5088 -0.1066  0.5178
 5891TIP3    H239165   4.223   7.063  13.979  0.5070 -0.3082  0.0466
 5892TIP3   OH239166   4.279   6.866   3.212 -0.8514  0.5152 -0.0127
 5892TIP3    H139167   4.345   6.808   3.174 -2.3724 -1.3898  0.1332
 5892TIP3    H239168   4.320   6.898   3.293 -0.0807 -0.6124  0.0677
 5893TIP3   OH239169   6.292   0.473  13.447  0.2613 -0.2524 -0.1387
 5893TIP3    H139170   6.200   0.476  13.471 -0.4458 -1.7854 -2.3134
 5893TIP3    H239171   6.339   0.499  13.526 -2.0465  1.8299  0.6507
 5894TIP3   OH239172   0.511   4.326  12.482  0.6052 -0.9299 -0.0161
 5894TIP3    H139173   0.498   4.250  12.538 -0.4719  0.0126  1.0648
 5894TIP3    H239174   0.435   4.382  12.499  0.2607 -0.5726 -2.3885
 5895TIP3   OH239175   6.562   3.238  10.387  0.5158 -0.2113  0.6041
 5895TIP3    H139176   6.608   3.312  10.347  2.5001 -1.4691  0.4564
 5895TIP3    H239177   6.547   3.177  10.315 -0.7642 -0.1517  0.8004
 5896TIP3   OH239178   1.702   1.426  11.981 -0.0989 -0.6197  0.4534
 5896TIP3    H139179   1.652   1.442  12.061  1.0328 -0.3544  1.1307
 5896TIP3    H239180   1.785   1.390  12.011 -0.2189 -1.9417 -0.7054
 5897TIP3   OH239181   7.008   4.960   0.053  0.0912  0.2816 -0.1101
 5897TIP3    H139182   6.952   5.036   0.070 -0.3019 -0.0755  0.2231
 5897TIP3    H239183   6.950   4.884   0.063  0.5367 -0.0760 -0.1777
 5898TIP3   OH239184   4.001   1.902   4.235  0.4337  0.1837  0.4760
 5898TIP3    H139185   3.908   1.900   4.214  0.6348 -0.6197 -0.4115
 5898TIP3    H239186   4.021   1.995   4.248 -0.0850  0.5748 -1.2770
 5899TIP3   OH239187   1.387   1.493  15.185 -0.1805 -0.5686 -0.1053
 5899TIP3    H139188   1.421   1.513  15.098 -0.6575 -2.2898 -0.7318
 5899TIP3    H239189   1.460   1.448  15.229 -0.8541 -2.2556 -0.6564
 5900TIP3   OH239190   2.897   3.490  10.267 -0.3815 -0.0581  0.0936
 5900TIP3    H139191   2.993   3.480  10.267 -0.4353 -1.0363 -1.5506
 5900TIP3    H239192   2.879   3.550  10.339  1.4371 -0.1493  0.6840
 5901TIP3   OH239193   6.436   2.133  10.024  0.0022 -0.0387 -0.0617
 5901TIP3    H139194   6.497   2.107  10.093 -1.7679 -1.8258  0.8932
 5901TIP3    H239195   6.360   2.077  10.035 -1.6745  1.7816 -1.5190
 5902TIP3   OH239196   0.956   5.287  13.777 -0.1228 -0.3202  0.2394
 5902TIP3    H139197   0.947   5.202  13.820 -0.5361 -0.1682  0.4513
 5902TIP3    H239198   0.886   5.340  13.813  0.3101  0.2034  0.3223
 5903TIP3   OH239199   4.185   2.471  14.705 -0.2409 -0.0542  0.2708
 5903TIP3    H139200   4.187   2.433  14.793 -0.2540  0.9785  0.7393
 5903TIP3    H239201   4.211   2.563  14.718 -2.4043  0.7316 -0.4620
 5904TIP3   OH239202   3.657   1.040  13.541 -0.0609 -0.0376  0.3903
 5904TIP3    H139203   3.703   1.075  13.465 -0.2240 -1.9673 -0.6815
 5904TIP3    H239204   3.573   1.086  13.541 -1.6820 -2.4820 -2.9952
 5905TIP3   OH239205   0.072   6.171  13.863 -0.0284 -0.5638 -0.0715
 5905TIP3    H139206   0.019   6.123  13.926 -1.9273 -0.0183 -1.1788
 5905TIP3    H239207   0.052   6.131  13.779  0.9448 -0.0127 -0.5817
 5906TIP3   OH239208   1.803   1.085   3.705 -0.2512  0.4081  0.2639
 5906TIP3    H139209   1.775   1.161   3.653 -0.2062 -0.4775 -1.1281
 5906TIP3    H239210   1.875   1.047   3.655  0.4073  0.0363  1.4713
 5907TIP3   OH239211   3.150   2.197   2.668 -0.0636  0.0422 -0.2646
 5907TIP3    H139212   3.114   2.280   2.636 -2.3001  0.1648  2.1935
 5907TIP3    H239213   3.088   2.168   2.735  1.4980 -2.8272  0.1205
 5908TIP3   OH239214   2.124   3.704  13.002  0.0068  0.2682 -0.3778
 5908TIP3    H139215   2.053   3.682  12.943  0.3042  2.8583 -1.8604
 5908TIP3    H239216   2.141   3.624  13.051 -1.4921 -1.4558 -2.5148
 5909TIP3   OH239217   2.584   7.096  14.010  0.4429 -0.4220  0.0232
 5909TIP3    H139218   2.653   7.051  14.060  1.2915 -0.0142 -0.7537
 5909TIP3    H239219   2.624   7.114  13.925  0.3686  2.3862  0.5078
 5910TIP3   OH239220   6.139   3.923  15.349 -0.2681 -0.1636  0.3420
 5910TIP3    H139221   6.089   3.842  15.337 -1.4035  0.3877  1.1289
 5910TIP3    H239222   6.186   3.911  15.431  1.1273 -0.7703 -0.5074
 5911TIP3   OH239223   3.217   6.839   4.729 -0.0163  0.7783 -0.7914
 5911TIP3    H139224   3.273   6.882   4.793  0.5735  0.9832 -1.4343
 5911TIP3    H239225   3.134   6.824   4.776  0.0602  1.8247 -0.2898
 5912TIP3   OH239226   1.221   1.421  11.746  0.4641  0.0809  0.3997
 5912TIP3    H139227   1.260   1.338  11.719 -1.1699 -0.5949 -0.0398
 5912TIP3    H239228   1.189   1.461  11.665  0.4674  0.7335  0.7076
 5913TIP3   OH239229   0.067   2.283  12.563 -0.2030 -0.1550 -0.8416
 5913TIP3    H139230   0.089   2.190  12.559 -0.7957 -0.3984  0.9738
 5913TIP3    H239231  -0.019   2.289  12.522 -1.4311 -0.8854  1.5029
 5914TIP3   OH239232   1.612   5.383   3.961  0.0386 -0.1704  0.3151
 5914TIP3    H139233   1.519   5.379   3.981  0.3975 -0.1556  2.0841
 5914TIP3    H239234   1.639   5.292   3.949 -0.1764 -0.1812 -0.0923
 5915TIP3   OH239235   2.337   1.494  11.846  0.3762  0.2710  0.2547
 5915TIP3    H139236   2.378   1.526  11.927 -0.7343 -1.2192  1.4822
 5915TIP3    H239237   2.397   1.426  11.814 -0.2655 -0.7694  1.1591
 5916TIP3   OH239238   5.275   5.069  14.265  0.0625  0.5431 -0.7498
 5916TIP3    H139239   5.285   5.148  14.212  2.0325  0.3836 -0.6844
 5916TIP3    H239240   5.337   5.006  14.227  0.7632  0.0697  1.0645
 5917TIP3   OH239241   2.416   3.953  10.361  0.4970 -0.2952  0.0170
 5917TIP3    H139242   2.442   3.875  10.312  2.9700  0.7542 -0.5039
 5917TIP3    H239243   2.496   3.980  10.407 -1.2143 -0.1330  3.2028
 5918TIP3   OH239244   5.274   4.363  10.280 -0.7516  0.0097 -0.4422
 5918TIP3    H139245   5.290   4.449  10.319  0.1971  0.4753 -1.7958
 5918TIP3    H239246   5.281   4.302  10.354  1.6615  0.7854  0.0810
 5919TIP3   OH239247   1.173   0.562   1.707 -0.1666 -0.2081 -0.1439
 5919TIP3    H139248   1.098   0.506   1.687 -0.5279 -0.7377  2.3272
 5919TIP3    H239249   1.135   0.640   1.748  0.5550  0.0497  0.0613
 5920TIP3   OH239250   2.390   3.374  14.741 -0.2004 -0.7605 -0.1653
 5920TIP3    H139251   2.414   3.338  14.656  1.4312  0.3178 -0.1964
 5920TIP3    H239252   2.461   3.348  14.799 -1.4628 -1.7817  0.9852
 5921TIP3   OH239253   4.526   6.097   0.687 -0.3770  0.5506  0.6114
 5921TIP3    H139254   4.561   6.126   0.771  1.6337 -0.3152  0.1277
 5921TIP3    H239255   4.603   6.070   0.637 -1.7801 -2.1966 -0.2552
 5922TIP3   OH239256   5.564   4.672  11.054  0.1139 -0.0942 -0.2549
 5922TIP3    H139257   5.592   4.744  10.998 -0.7623 -0.9842 -1.9352
 5922TIP3    H239258   5.549   4.599  10.993 -1.6675 -0.8767  1.0272
 5923TIP3   OH239259   2.066   1.012  14.262  0.0936 -0.0444  0.1528
 5923TIP3    H139260   2.059   1.000  14.167  0.5448 -0.9180  0.2220
 5923TIP3    H239261   1.987   1.061  14.286 -1.1758 -1.7438 -0.3543
 5924TIP3   OH239262   6.074   3.044  13.009  0.4952  0.0899  0.3513
 5924TIP3    H139263   5.987   3.078  13.031 -0.2861 -1.5314 -0.1155
 5924TIP3    H239264   6.112   3.018  13.093  0.7426  1.1987  0.6084
 5925TIP3   OH239265   4.861   5.993  10.846  0.2638 -0.1654 -0.3947
 5925TIP3    H139266   4.827   6.019  10.932 -1.2382  1.0298 -1.3091
 5925TIP3    H239267   4.865   6.074  10.796 -1.1546 -1.1342 -2.2185
 5926TIP3   OH239268   5.037   4.609  10.565 -0.9524 -0.2143 -0.1096
 5926TIP3    H139269   5.074   4.579  10.648 -1.6108  0.1273  0.3123
 5926TIP3    H239270   4.942   4.604  10.578 -1.0790 -1.5407 -1.3439
 5927TIP3   OH239271   4.951   4.316  12.271 -0.1729  0.0022  0.1035
 5927TIP3    H139272   4.897   4.246  12.306 -1.0250  0.7265  0.2668
 5927TIP3    H239273   5.041   4.282  12.277 -0.6265 -1.4261 -0.6677
 5928TIP3   OH239274   4.678   2.611  10.014  0.2736 -0.2640 -0.3945
 5928TIP3    H139275   4.738   2.592  10.086 -1.0791 -0.9394  0.5915
 5928TIP3    H239276   4.664   2.527   9.971  0.4325 -0.0114 -0.9587
 5929TIP3   OH239277   0.937   5.335  11.325  0.1174  0.3857  1.0151
 5929TIP3    H139278   0.876   5.407  11.340 -0.2617  0.7676 -1.7122
 5929TIP3    H239279   0.987   5.363  11.248 -0.3215 -2.3659 -0.4097
 5930TIP3   OH239280   4.679   4.288   0.572  0.4208 -0.5726 -0.2510
 5930TIP3    H139281   4.688   4.228   0.647  3.2952  1.0802  0.8900
 5930TIP3    H239282   4.769   4.307   0.546 -0.3281  2.8651 -0.8330
 5931TIP3   OH239283   2.418   1.634   0.381  0.0995 -0.3866  0.4595
 5931TIP3    H139284   2.368   1.631   0.300  0.2978 -1.0951  0.3574
 5931TIP3    H239285   2.434   1.727   0.396  0.2388 -0.2583 -0.4265
 5932TIP3   OH239286   1.861   2.771  13.008 -0.1458 -0.0143  0.5082
 5932TIP3    H139287   1.807   2.796  13.083 -0.3133  0.5059  0.2165
 5932TIP3    H239288   1.868   2.676  13.015 -0.8496 -0.0565  0.7153
 5933TIP3   OH239289   1.895   6.559  11.022  0.2367  0.0706  0.5308
 5933TIP3    H139290   1.800   6.552  11.017 -0.0525  3.2939 -2.4502
 5933TIP3    H239291   1.925   6.548  10.932  2.6602 -0.2342  1.2993
 5934TIP3   OH239292   3.562   1.428   0.339 -0.8290 -0.0287  0.0944
 5934TIP3    H139293   3.658   1.431   0.341 -0.8457  1.2776  1.5745
 5934TIP3    H239294   3.541   1.375   0.263  1.0713 -0.0583 -0.4683
 5935TIP3   OH239295   5.325   1.317  14.134 -0.2528 -0.6336  0.1070
 5935TIP3    H139296   5.366   1.371  14.067  1.6056 -1.7404  0.2813
 5935TIP3    H239297   5.232   1.339  14.129  0.2025  1.3233 -0.9323
 5936TIP3   OH239298   1.610   0.434  10.709  0.1409 -0.2539  0.2903
 5936TIP3    H139299   1.621   0.488  10.631 -0.6589  0.0876  0.4049
 5936TIP3    H239300   1.529   0.385  10.693 -1.0127  1.1075  1.6233
 5937TIP3   OH239301   6.062   2.333  14.839 -0.3444 -0.2797 -0.4207
 5937TIP3    H139302   6.063   2.259  14.899  0.1720 -0.2002 -0.3295
 5937TIP3    H239303   5.987   2.386  14.867  0.0068 -0.1462  0.2669
 5938TIP3   OH239304   6.220   3.043  10.439  0.7524 -0.5697 -0.5369
 5938TIP3    H139305   6.216   2.983  10.364 -1.4333  0.6467 -1.5177
 5938TIP3    H239306   6.285   3.005  10.497  2.7088 -1.5019 -3.1173
 5939TIP3   OH239307   6.855   0.213  11.258 -0.7399  0.2167 -0.4551
 5939TIP3    H139308   6.851   0.252  11.170  0.9424 -0.2387 -0.7733
 5939TIP3    H239309   6.900   0.279  11.311 -1.5335  0.3850  0.0217
 5940TIP3   OH239310   0.264   5.409  10.827 -0.1943  0.1533  0.3747
 5940TIP3    H139311   0.237   5.343  10.890 -0.2016  1.0110  1.3029
 5940TIP3    H239312   0.205   5.483  10.843 -0.9521 -0.0212 -1.4286
 5941TIP3   OH239313   2.012   4.866  10.308 -0.4217 -0.3977 -0.6405
 5941TIP3    H139314   2.052   4.786  10.272 -1.2877 -0.5592 -1.2717
 5941TIP3    H239315   2.086   4.918  10.338  0.1956 -1.1875 -0.7570
 5942TIP3   OH239316   6.982   0.254  12.172  0.6565  0.3472 -0.1795
 5942TIP3    H139317   6.909   0.233  12.230  0.5959 -0.5207 -0.5579
 5942TIP3    H239318   6.950   0.329  12.121  0.8830  1.4172  1.1973
 5943TIP3   OH239319   0.538   4.951  13.810  0.4518 -0.2789  0.4850
 5943TIP3    H139320   0.534   4.861  13.777  1.1890 -0.4881  0.9398
 5943TIP3    H239321   0.456   4.963  13.858 -0.4032 -0.1372 -0.9780
 5944TIP3   OH239322   1.990   4.627  12.559 -0.1013  0.0345  0.2717
 5944TIP3    H139323   2.027   4.615  12.646 -0.1911 -1.8329  0.1031
 5944TIP3    H239324   1.944   4.545  12.541 -1.0616  0.8146 -1.0835
 5945TIP3   OH239325   1.990   1.807  14.971  0.2252  0.6593  0.4337
 5945TIP3    H139326   1.936   1.830  14.896  0.8754  1.0324  0.0748
 5945TIP3    H239327   1.929   1.769  15.034 -0.1648 -0.6377 -0.6812
 5946TIP3   OH239328   1.711   5.329  11.878  0.1257 -0.1034  0.5665
 5946TIP3    H139329   1.687   5.398  11.941 -1.6672  0.4006 -0.6191
 5946TIP3    H239330   1.628   5.291  11.850  0.9959 -1.5672 -0.1428
 5947TIP3   OH239331   0.898   0.602  12.771  0.2918  0.0652 -0.8155
 5947TIP3    H139332   0.868   0.685  12.808 -0.6040  0.5681 -2.5942
 5947TIP3    H239333   0.969   0.626  12.712  2.4476 -0.8422  1.2522
 5948TIP3   OH239334   1.424   3.972  12.028 -0.5024  0.1803 -0.2213
 5948TIP3    H139335   1.463   3.894  12.066 -0.6024 -0.0047 -0.4972
 5948TIP3    H239336   1.496   4.035  12.023  0.5030 -1.0276 -3.2380
 5949TIP3   OH239337   0.778   3.043  13.598 -0.2059  0.3722 -0.0590
 5949TIP3    H139338   0.751   2.955  13.623 -0.6882  0.6591  0.4504
 5949TIP3    H239339   0.747   3.052  13.507 -0.3386  0.0920 -0.0433
 5950TIP3   OH239340   4.971   5.686   0.566 -0.2502  0.3989  0.1968
 5950TIP3    H139341   4.919   5.654   0.640 -0.1777 -1.3869 -0.4807
 5950TIP3    H239342   4.914   5.749   0.522 -0.3261  1.4237  1.6864
 5951TIP3   OH239343   3.805   5.288   3.499  0.0235 -0.1828  0.0050
 5951TIP3    H139344   3.823   5.358   3.562  0.2961  0.9011 -1.2288
 5951TIP3    H239345   3.739   5.234   3.541 -0.8476  1.3304  0.6434
 5952TIP3   OH239346   7.071   3.014  10.754  0.4366 -0.9103  0.6869
 5952TIP3    H139347   6.986   3.041  10.720  0.3480  0.5482  1.9728
 5952TIP3    H239348   7.089   2.930  10.710  0.1552  0.5657 -2.5658
 5953TIP3   OH239349   2.618   0.904  13.464  0.4288  0.1778 -0.1458
 5953TIP3    H139350   2.649   0.814  13.462  0.6345  0.1495  1.7456
 5953TIP3    H239351   2.522   0.896  13.459  0.4186 -0.1904  0.4996
 5954TIP3   OH239352   0.783   4.100  14.985  0.4795  0.0650 -0.1378
 5954TIP3    H139353   0.784   4.078  14.892  0.5725 -1.6582  0.2394
 5954TIP3    H239354   0.706   4.056  15.020  1.2089 -0.4700  0.8456
 5955TIP3   OH239355   0.160   4.065  10.848  0.3982 -0.0229  0.1394
 5955TIP3    H139356   0.205   4.014  10.781 -1.4215  1.3269 -2.2691
 5955TIP3    H239357   0.119   3.999  10.905  1.2790 -1.2197 -0.5669
 5956TIP3   OH239358   2.618   6.902   1.245  0.2022  0.1304  0.0806
 5956TIP3    H139359   2.607   6.893   1.150 -0.1966 -0.0422  0.1383
 5956TIP3    H239360   2.611   6.812   1.278 -0.2956  0.2595  0.3310
 5957TIP3   OH239361   0.244   1.975  12.455 -0.4027 -0.0862 -0.2787
 5957TIP3    H139362   0.240   1.886  12.420 -1.0163 -0.6815  1.1837
 5957TIP3    H239363   0.254   2.031  12.379 -0.5934 -1.3695 -1.2857
 5958TIP3   OH239364   6.264   2.249  14.465  0.2066 -0.1102 -0.0455
 5958TIP3    H139365   6.283   2.309  14.537 -0.7739 -0.3136  0.3975
 5958TIP3    H239366   6.306   2.167  14.490  0.5566  0.0529 -0.0957
 5959TIP3   OH239367   0.987   3.751  14.298  0.4811  0.1414 -0.2886
 5959TIP3    H139368   1.049   3.739  14.226  2.5816  4.3405  0.5189
 5959TIP3    H239369   0.933   3.825  14.271  0.0560  0.5934  1.6401
 5960TIP3   OH239370   0.681   6.494   9.936 -0.6398  0.6348 -0.1682
 5960TIP3    H139371   0.748   6.444   9.983  0.7001  1.5055 -1.0814
 5960TIP3    H239372   0.611   6.430   9.919  0.4933 -0.6309 -0.2695
 5961TIP3   OH239373   0.093   5.399  14.857  0.0512 -0.2886 -0.7437
 5961TIP3    H139374   0.027   5.453  14.814 -0.2088 -1.5896 -2.0299
 5961TIP3    H239375   0.156   5.378  14.788 -0.3776 -2.4477 -0.5283
 5962TIP3   OH239376   1.100   1.065  10.501  0.1608 -0.3320 -0.0223
 5962TIP3    H139377   1.032   1.003  10.527  0.2257 -0.9634 -1.2957
 5962TIP3    H239378   1.105   1.056  10.406 -0.3087  2.1465 -0.3347
 5963TIP3   OH239379   5.646   1.300   4.156  0.2016  0.9206  0.3054
 5963TIP3    H139380   5.731   1.259   4.139 -0.6512 -0.6822 -0.3940
 5963TIP3    H239381   5.613   1.324   4.069 -0.5468  0.4455  0.4457
 5964TIP3   OH239382   5.122   2.884   2.631 -0.5320  0.6042 -0.4568
 5964TIP3    H139383   5.033   2.911   2.653 -1.3554 -2.6133  0.6847
 5964TIP3    H239384   5.161   2.861   2.715  0.5925 -0.2473 -1.1867
 5965TIP3   OH239385   3.529   4.069  13.480  0.6681  0.7132 -0.2874
 5965TIP3    H139386   3.613   4.024  13.479  0.4253  0.1956  0.9629
 5965TIP3    H239387   3.526   4.113  13.565 -1.3391 -1.3060  0.8211
 5966TIP3   OH239388   5.025   2.477   1.561  0.0391  0.0133 -0.2754
 5966TIP3    H139389   4.941   2.519   1.541  0.6142  1.8518  0.8798
 5966TIP3    H239390   5.023   2.466   1.657  0.0541 -2.3928 -0.4994
 5967TIP3   OH239391   6.591   0.937  12.033  0.4577  0.1460  0.4356
 5967TIP3    H139392   6.569   0.895  11.950  1.9662 -0.3254  0.2360
 5967TIP3    H239393   6.540   0.890  12.099 -1.6196  1.2574 -0.3071
 5968TIP3   OH239394   6.415   2.153  10.552 -0.2698  0.2349  0.1768
 5968TIP3    H139395   6.320   2.157  10.567 -0.7782 -1.1608 -2.2308
 5968TIP3    H239396   6.443   2.244  10.553 -0.9253  0.5925  4.3855
 5969TIP3   OH239397   1.523   0.514  11.598 -0.1574  0.0406 -0.4147
 5969TIP3    H139398   1.529   0.421  11.578 -1.6433 -0.4914  1.4102
 5969TIP3    H239399   1.515   0.557  11.512 -1.8982 -1.7283 -1.2064
 5970TIP3   OH239400   1.307   1.569  12.563 -0.0384 -0.0209  0.2312
 5970TIP3    H139401   1.300   1.551  12.470  0.1083 -0.1027  0.2359
 5970TIP3    H239402   1.217   1.588  12.591 -0.2544 -1.1181  0.3009
 5971TIP3   OH239403   4.558   4.534  11.524  0.4477  0.0805  0.5812
 5971TIP3    H139404   4.652   4.531  11.506  0.3690 -0.7374  0.2319
 5971TIP3    H239405   4.541   4.625  11.548  1.0713  0.5793 -0.7554
 5972TIP3   OH239406   2.514   6.161  12.489  0.1352 -0.4648  0.4692
 5972TIP3    H139407   2.533   6.159  12.395 -1.5708 -0.8733  0.0968
 5972TIP3    H239408   2.595   6.194  12.529  0.0044  2.5237 -1.3746
 5973TIP3   OH239409   1.705   0.150   3.623 -0.1472 -0.3688 -0.1699
 5973TIP3    H139410   1.704   0.201   3.704 -0.8118 -0.7305  0.0630
 5973TIP3    H239411   1.657   0.070   3.645  0.0667 -0.6722 -0.7939
 5974TIP3   OH239412   0.915   4.654  12.092  0.3114  0.1515  0.0445
 5974TIP3    H139413   0.937   4.658  12.185  2.5894  2.4556 -0.4621
 5974TIP3    H239414   0.819   4.655  12.090  0.2036  0.0143  2.3549
 5975TIP3   OH239415   6.981   6.458  11.507 -0.1672  0.0332 -0.0579
 5975TIP3    H139416   7.053   6.395  11.499 -0.8661 -0.9780  1.1549
 5975TIP3    H239417   6.934   6.430  11.586  0.2269  2.8645  1.3082
 5976TIP3   OH239418   2.116   3.632   1.790 -0.1159 -0.1860  0.0875
 5976TIP3    H139419   2.035   3.589   1.761 -0.8824  2.0391 -1.2796
 5976TIP3    H239420   2.129   3.599   1.879 -0.9174 -2.7848 -0.6560
 5977TIP3   OH239421   2.303   0.244   2.448  0.3911  0.0815  0.2087
 5977TIP3    H139422   2.377   0.235   2.508 -0.7388 -0.9041  1.5195
 5977TIP3    H239423   2.312   0.170   2.388  1.7393  1.2828 -1.1668
 5978TIP3   OH239424   1.793   2.005   2.731  0.0468 -0.1100 -0.2855
 5978TIP3    H139425   1.882   1.974   2.750  0.0597 -0.7270 -1.2656
 5978TIP3    H239426   1.792   2.095   2.764  0.5976 -0.5305  0.9585
 5979TIP3   OH239427   0.624   5.488   0.407 -0.3823  0.4328  0.3830
 5979TIP3    H139428   0.571   5.463   0.483 -0.4253  1.2338  0.6227
 5979TIP3    H239429   0.690   5.419   0.400 -1.1263 -0.2991  0.4034
 5980TIP3   OH239430   1.977   1.914  11.035  0.3442  0.2156  0.3395
 5980TIP3    H139431   2.043   1.873  10.980 -0.8956  0.1941 -1.1985
 5980TIP3    H239432   1.995   1.882  11.123  1.6865 -0.6452 -0.2235
 5981TIP3   OH239433   0.179   2.050  14.983 -0.0367  0.0092  0.3914
 5981TIP3    H139434   0.265   2.023  14.952  0.5086 -0.4756  2.2300
 5981TIP3    H239435   0.144   2.105  14.912  1.2735 -0.7347 -0.8814
 5982TIP3   OH239436   6.982   4.348  10.339 -0.2616 -0.1086  0.0364
 5982TIP3    H139437   6.887   4.354  10.334 -0.5655 -1.4992  2.4080
 5982TIP3    H239438   7.012   4.437  10.359 -1.3638 -0.0853  1.8146
 5983TIP3   OH239439   0.982   6.911  14.083  0.2495 -0.0365  0.0037
 5983TIP3    H139440   0.928   6.840  14.048  0.3362 -1.2653  2.1936
 5983TIP3    H239441   1.061   6.909  14.030 -1.1585  0.8529 -2.3143
 5984TIP3   OH239442   0.325   5.385  13.801 -0.0273 -0.5206  0.7938
 5984TIP3    H139443   0.343   5.319  13.733 -1.0067 -3.3510  3.0539
 5984TIP3    H239444   0.399   5.444  13.797  0.1605 -0.7802 -2.4133
 5985TIP3   OH239445   7.033   2.448  12.065 -0.1437 -0.4252 -0.0196
 5985TIP3    H139446   7.054   2.378  12.004  0.4408  0.1814 -0.5239
 5985TIP3    H239447   7.110   2.455  12.122  0.7783  1.2628 -1.3672
 5986TIP3   OH239448   2.331   7.015   0.134 -0.5462  0.3062 -0.3024
 5986TIP3    H139449   2.391   7.074   0.088 -2.9531  1.6800 -1.8933
 5986TIP3    H239450   2.309   6.948   0.070 -0.6388 -0.2441  0.2999
 5987TIP3   OH239451   4.979   3.584  10.638 -0.5375 -0.0689 -0.1824
 5987TIP3    H139452   4.998   3.537  10.557 -0.6582 -1.1666  0.4088
 5987TIP3    H239453   4.986   3.518  10.706  0.3626  1.0166  0.8052
 5988TIP3   OH239454   5.401   3.364  11.441 -0.5813  0.8577  0.7458
 5988TIP3    H139455   5.467   3.406  11.387 -0.5416  0.1872  0.2541
 5988TIP3    H239456   5.447   3.340  11.522 -0.2099  0.3585  0.3882
 5989TIP3   OH239457   5.079   0.052  10.426 -0.1571 -0.6724  0.0709
 5989TIP3    H139458   5.043  -0.002  10.355 -1.8470  0.1252  0.2839
 5989TIP3    H239459   5.058   0.142  10.402  2.6254 -0.0178 -0.2685
 5990TIP3   OH239460   1.942   2.777  14.436 -0.4642  0.1442  0.6857
 5990TIP3    H139461   1.985   2.766  14.520 -0.2875 -1.5805  0.4108
 5990TIP3    H239462   2.006   2.823  14.381  0.7714 -1.6500  0.5291
 5991TIP3   OH239463   2.531   5.129  10.939  0.8400  0.3944  0.1999
 5991TIP3    H139464   2.605   5.069  10.941 -0.0685 -0.7347  1.0722
 5991TIP3    H239465   2.554   5.197  11.003  0.8670 -0.2891  0.9415
 5992TIP3   OH239466   0.846   6.907   9.716 -0.0653  0.1593  0.2597
 5992TIP3    H139467   0.914   6.918   9.649 -0.3079  1.9693  0.2676
 5992TIP3    H239468   0.789   6.839   9.680 -0.4138  1.3593 -1.6259
 5993TIP3   OH239469   5.318   5.777  11.376 -0.1587  0.0443 -0.5616
 5993TIP3    H139470   5.402   5.741  11.348  0.1244 -0.1014  0.4080
 5993TIP3    H239471   5.296   5.843  11.311  0.7723  0.1652 -0.7628
 5994TIP3   OH239472   2.152   5.515  12.999  0.4691  0.2632 -0.7773
 5994TIP3    H139473   2.133   5.423  13.016  0.8609  0.6825  2.4636
 5994TIP3    H239474   2.242   5.527  13.027 -0.1189  1.9625  0.5720
 5995TIP3   OH239475   6.618   1.880  10.193 -0.0011 -0.0957 -0.0268
 5995TIP3    H139476   6.578   1.868  10.279 -0.0415  1.5672  0.2165
 5995TIP3    H239477   6.693   1.820  10.194  0.0858  0.0023  1.2218
 5996TIP3   OH239478   5.068   0.244  15.176 -0.3893 -0.2631  0.4052
 5996TIP3    H139479   5.041   0.209  15.091  0.8304  0.1014 -0.1547
 5996TIP3    H239480   5.017   0.324  15.186 -0.9529 -0.5956  0.2949
 5997TIP3   OH239481   3.691   4.217   0.638  0.2646 -0.5293 -0.1639
 5997TIP3    H139482   3.607   4.205   0.594  0.7064 -0.3746 -1.0547
 5997TIP3    H239483   3.753   4.166   0.586  1.0076  0.5848 -0.4070
 5998TIP3   OH239484   2.904   1.468   1.888 -0.3260 -0.1623  0.3120
 5998TIP3    H139485   2.942   1.496   1.971 -0.4646 -1.4534  0.8330
 5998TIP3    H239486   2.960   1.507   1.821 -0.3572  1.0939  0.9909
 5999TIP3   OH239487   5.605   2.244   2.428  0.1695  0.0562 -0.2749
 5999TIP3    H139488   5.550   2.316   2.458 -2.2619 -0.9581 -1.9591
 5999TIP3    H239489   5.560   2.165   2.458  2.3059 -0.8287  0.7771
 6000TIP3   OH239490   4.874   3.423  14.695 -0.1588 -0.6681  0.4983
 6000TIP3    H139491   4.868   3.331  14.669 -0.6161 -1.5523  3.3557
 6000TIP3    H239492   4.931   3.422  14.772 -0.9982  1.2905  1.2126
 6001TIP3   OH239493   1.789   4.139   3.445  0.1653  0.3579 -0.1600
 6001TIP3    H139494   1.727   4.070   3.470 -0.0004 -0.1112 -1.6999
 6001TIP3    H239495   1.735   4.202   3.397  0.9500 -0.4419 -2.2055
 6002TIP3   OH239496   5.476   6.245  11.255 -0.1057  0.6697 -0.7275
 6002TIP3    H139497   5.550   6.220  11.311  0.7649  2.3640 -1.0600
 6002TIP3    H239498   5.416   6.290  11.315 -0.0610  0.7982 -0.7783
 6003TIP3   OH239499   2.687   2.383  14.423  0.0363 -0.5700  0.0580
 6003TIP3    H139500   2.615   2.366  14.483 -0.4630 -1.2748 -0.7272
 6003TIP3    H239501   2.754   2.318  14.446  0.1538 -0.3521  0.3397
 6004TIP3   OH239502   1.352   3.387  10.648 -0.0527 -0.6527 -0.1514
 6004TIP3    H139503   1.258   3.369  10.655 -0.2653 -0.4668 -1.9631
 6004TIP3    H239504   1.361   3.477  10.679 -0.2900 -1.0106  1.0111
 6005TIP3   OH239505   5.806   7.068  13.223 -0.6420  0.4042 -0.0415
 6005TIP3    H139506   5.900   7.083  13.237 -0.0264 -1.4287 -1.7293
 6005TIP3    H239507   5.771   7.155  13.205  0.7883  1.1101  0.4015
 6006TIP3   OH239508   6.166   6.398  14.464  0.3881 -0.3743  0.1531
 6006TIP3    H139509   6.241   6.375  14.518  0.0187  0.9562  1.2732
 6006TIP3    H239510   6.173   6.492  14.451  0.0459 -0.5456 -1.5197
 6007TIP3   OH239511   5.945   0.250   3.370  0.4743  0.1756  0.1343
 6007TIP3    H139512   5.959   0.257   3.275  0.5545  1.0572  0.1997
 6007TIP3    H239513   5.902   0.332   3.393 -0.2367 -0.3656  0.7480
 6008TIP3   OH239514   6.646   6.399   4.460  0.1345 -0.1595  0.2244
 6008TIP3    H139515   6.709   6.464   4.493 -0.3272 -0.3518  1.5221
 6008TIP3    H239516   6.701   6.335   4.414  0.5846  1.2147 -1.2987
 6009TIP3   OH239517   3.644   4.696  14.107 -0.0063 -0.1477  0.0321
 6009TIP3    H139518   3.691   4.657  14.181  1.8768 -1.9461 -1.9664
 6009TIP3    H239519   3.712   4.742  14.057 -0.7972 -0.7844 -1.6993
 6010TIP3   OH239520   3.769   2.512  13.544 -0.6148  0.0145  0.2117
 6010TIP3    H139521   3.702   2.580  13.546  0.1499  0.8782 -1.4130
 6010TIP3    H239522   3.719   2.430  13.535 -1.5694  0.2115  2.8184
 6011TIP3   OH239523   3.312   2.228  11.762  0.5652 -0.0617 -0.4685
 6011TIP3    H139524   3.221   2.257  11.767  0.4661 -0.5354  1.2052
 6011TIP3    H239525   3.356   2.273  11.834  2.1948  1.7254 -2.4054
 6012TIP3   OH239526   3.804   2.485   9.522  0.2449  0.8984 -0.5095
 6012TIP3    H139527   3.728   2.479   9.464 -0.3884  2.7620  0.0706
 6012TIP3    H239528   3.789   2.418   9.588 -0.0693  0.1634 -1.3091
 6013TIP3   OH239529   3.935   4.695  10.767 -0.1591  0.3085 -0.0237
 6013TIP3    H139530   3.879   4.625  10.734 -0.8630  0.7559  0.2163
 6013TIP3    H239531   3.894   4.723  10.848 -0.1652  1.3390 -0.3676
 6014TIP3   OH239532   0.121   6.203  11.564 -0.3072  0.2890  0.5024
 6014TIP3    H139533   0.101   6.128  11.619  0.3414  0.1054  0.4970
 6014TIP3    H239534   0.209   6.230  11.592 -0.2613  0.6243  0.0380
 6015TIP3   OH239535   1.635   5.053  11.600 -0.1723  0.1857 -0.8656
 6015TIP3    H139536   1.570   5.018  11.661 -0.6219  0.3962 -1.2247
 6015TIP3    H239537   1.599   5.137  11.573  0.2919  0.3396 -1.0024
 6016TIP3   OH239538   5.840   1.974  11.528  0.7781 -0.2196 -0.3292
 6016TIP3    H139539   5.852   1.883  11.501 -3.5050 -1.3829  0.9959
 6016TIP3    H239540   5.785   2.012  11.461 -0.3658  0.3091  0.8695
 6017TIP3   OH239541   2.499   1.983  11.270  0.8297 -0.2950 -0.1951
 6017TIP3    H139542   2.547   2.065  11.281  0.7460 -0.0221 -1.6137
 6017TIP3    H239543   2.415   1.999  11.313  1.5121 -0.3224  1.1816
 6018TIP3   OH239544   6.109   5.158  13.802 -0.2468  0.5448 -0.3032
 6018TIP3    H139545   6.119   5.251  13.780 -0.5482  0.6140 -0.1569
 6018TIP3    H239546   6.188   5.137  13.851 -1.2431  1.3820  1.8418
 6019TIP3   OH239547   0.099   6.921  12.055 -0.1965  0.1188  0.3278
 6019TIP3    H139548   0.150   6.900  12.134  1.0519 -1.7776 -0.8957
 6019TIP3    H239549   0.065   7.009  12.071  1.9536  0.7303  1.9777
 6020TIP3   OH239550   7.001   1.519  14.345  0.2161 -0.2234 -0.0558
 6020TIP3    H139551   6.918   1.533  14.299  0.9622  2.3598 -0.7908
 6020TIP3    H239552   6.985   1.551  14.433 -0.1906 -1.9119  0.5215
 6021TIP3   OH239553   1.708   3.490   1.475 -0.4422  0.4248 -0.1770
 6021TIP3    H139554   1.733   3.408   1.518  0.6393  0.0969 -1.3541
 6021TIP3    H239555   1.613   3.488   1.474 -0.4373 -0.9750 -0.4156
 6022TIP3   OH239556   0.631   4.340   3.145 -0.2811 -0.3272 -0.0829
 6022TIP3    H139557   0.554   4.377   3.101  0.2233  0.4190 -0.3707
 6022TIP3    H239558   0.679   4.295   3.075  0.3293  0.5364 -0.2326
 6023TIP3   OH239559   5.062   2.752  12.024 -0.2285 -0.2517  0.0022
 6023TIP3    H139560   5.010   2.767  11.945 -0.2937  0.3373  0.1533
 6023TIP3    H239561   5.045   2.829  12.078  0.9988  0.0704 -0.0508
 6024TIP3   OH239562   3.670   4.846  13.351 -0.2607 -0.0461 -0.1856
 6024TIP3    H139563   3.723   4.825  13.428 -0.7770  0.3044  0.2793
 6024TIP3    H239564   3.621   4.924  13.377 -0.1394  0.3212 -1.0210
 6025TIP3   OH239565   3.042   3.843  15.354 -0.2921 -0.2665 -0.2351
 6025TIP3    H139566   3.130   3.816  15.328  0.1820 -2.1488  2.8137
 6025TIP3    H239567   3.055   3.921  15.408 -0.5584 -0.1542 -0.3310
 6026TIP3   OH239568   5.840   3.931  12.153 -0.5300 -0.4349  0.0854
 6026TIP3    H139569   5.763   3.899  12.106 -1.5912 -0.2538  1.6337
 6026TIP3    H239570   5.870   3.856  12.204 -0.7676 -0.0013  0.8683
 6027TIP3   OH239571   3.517   2.671   1.468 -0.4544  0.0247  0.0260
 6027TIP3    H139572   3.601   2.631   1.489 -0.0592  0.2172 -1.0955
 6027TIP3    H239573   3.504   2.737   1.536  1.4894  1.6673 -1.0874
 6028TIP3   OH239574   1.058   7.213  10.918  0.3154 -0.2530 -0.1915
 6028TIP3    H139575   1.095   7.193  11.004  1.0584 -0.1402 -0.4764
 6028TIP3    H239576   1.125   7.183  10.856 -0.2730 -0.4630 -0.7363
 6029TIP3   OH239577   4.718   4.006  14.273 -0.5836 -0.4062  0.4800
 6029TIP3    H139578   4.666   4.083  14.249  0.4574  0.3510  0.5440
 6029TIP3    H239579   4.683   3.979  14.358 -1.4875 -0.5064  0.0903
 6030TIP3   OH239580   1.540   5.950  12.592 -0.5434  0.0791 -0.0768
 6030TIP3    H139581   1.615   5.905  12.554 -0.4111 -0.9381  1.2977
 6030TIP3    H239582   1.577   6.028  12.633 -0.3096 -0.1532  0.1551
 6031TIP3   OH239583   2.297   5.448  10.741 -0.0909  0.3593  0.0531
 6031TIP3    H139584   2.257   5.361  10.735 -1.3757  0.9468 -0.2829
 6031TIP3    H239585   2.344   5.459  10.659 -0.0229  0.0312  0.0479
 6032TIP3   OH239586   6.211   5.755  15.165 -0.3663  0.4193 -0.4979
 6032TIP3    H139587   6.158   5.691  15.212 -0.9030  0.8262 -0.5323
 6032TIP3    H239588   6.213   5.831  15.223  1.5919 -0.1523  0.2625
 6033TIP3   OH239589   2.542   5.401  12.399  0.3985  0.1204 -0.5371
 6033TIP3    H139590   2.510   5.330  12.342 -1.2916  0.1740  0.2633
 6033TIP3    H239591   2.474   5.409  12.467  2.3577  0.0084  1.5520
 6034TIP3   OH239592   0.386   1.206  11.929 -0.4481  0.3783 -0.1125
 6034TIP3    H139593   0.307   1.225  11.980  0.1621  2.3687  0.1524
 6034TIP3    H239594   0.424   1.129  11.972 -1.0898  0.7169  1.1067
 6035TIP3   OH239595   3.632   0.025  12.949 -0.7127 -0.2879 -0.0970
 6035TIP3    H139596   3.686  -0.052  12.930  0.0575  0.6349 -1.9951
 6035TIP3    H239597   3.695   0.096  12.960 -1.4655  0.4771 -0.5977
 6036TIP3   OH239598   2.679   6.947  11.711 -0.0541 -0.6137  0.3031
 6036TIP3    H139599   2.769   6.979  11.706 -0.3506  0.0562 -2.3359
 6036TIP3    H239600   2.687   6.852  11.715  0.7647 -0.5201  1.0013
 6037TIP3   OH239601   4.285   3.113  14.741 -0.9370 -0.5747 -0.5341
 6037TIP3    H139602   4.319   3.153  14.660  0.5276 -1.1846 -0.2529
 6037TIP3    H239603   4.222   3.048  14.710  1.3871 -2.6039 -1.4553
 6038TIP3   OH239604   2.128   2.368  14.261 -0.2729  0.0894  0.5333
 6038TIP3    H139605   2.114   2.440  14.199 -1.8387 -0.2562  0.4531
 6038TIP3    H239606   2.116   2.289  14.208  0.6717 -0.2424  0.7957
 6039TIP3   OH239607   7.182   7.018  14.465 -0.6784  0.2215 -0.1192
 6039TIP3    H139608   7.137   6.954  14.410 -0.1508 -0.7758  0.5684
 6039TIP3    H239609   7.112   7.057  14.518 -0.7191 -2.0059  1.6391
 6040TIP3   OH239610   1.299   0.595  10.554  0.3965 -0.2399 -0.3803
 6040TIP3    H139611   1.222   0.615  10.500  0.8661  1.1298 -0.5851
 6040TIP3    H239612   1.263   0.580  10.642 -0.1241  0.2797 -0.4994
 6041TIP3   OH239613   5.864   2.912  10.656 -0.1597  0.7341  0.0998
 6041TIP3    H139614   5.800   2.901  10.586  0.0172  1.7338 -0.2414
 6041TIP3    H239615   5.913   2.991  10.632  1.6128 -0.3067  0.0396
 6042TIP3   OH239616   1.737   2.663  10.043  0.6446  0.0009  0.6176
 6042TIP3    H139617   1.724   2.569  10.054  0.4948 -0.1042 -0.3385
 6042TIP3    H239618   1.796   2.670   9.967  1.6918  0.6443  1.4540
 6043TIP3   OH239619   5.359   3.902  13.821 -0.3359 -0.8607  0.0358
 6043TIP3    H139620   5.447   3.894  13.784 -0.6615  0.6616 -1.1642
 6043TIP3    H239621   5.310   3.829  13.783  0.8037 -2.9018  2.1808
 6044TIP3   OH239622   1.631   6.606  10.769  0.1803 -0.4790 -0.0188
 6044TIP3    H139623   1.606   6.698  10.763  0.2496 -0.5274 -1.3019
 6044TIP3    H239624   1.600   6.578  10.855 -2.5696 -0.0330 -0.7672
 6045TIP3   OH239625   1.359   6.469  10.129 -0.2396  0.6511 -0.3798
 6045TIP3    H139626   1.450   6.499  10.135 -0.7829  2.4892 -0.6362
 6045TIP3    H239627   1.333   6.455  10.220  0.3809 -0.2065 -0.3229
 6046TIP3   OH239628   3.817   1.299   1.867 -0.1222  0.2096 -0.4610
 6046TIP3    H139629   3.727   1.330   1.874 -0.0386  0.4880 -0.5708
 6046TIP3    H239630   3.868   1.379   1.854 -0.1985 -0.1201 -3.5255
 6047TIP3   OH239631   3.259   6.373  13.368  0.4221 -0.0838  0.4313
 6047TIP3    H139632   3.249   6.279  13.383  0.7832  0.1425  2.3751
 6047TIP3    H239633   3.342   6.395  13.410 -0.3552  1.3267  1.2993
 6048TIP3   OH239634   2.641   0.110  11.357 -0.3350  0.2560 -0.4707
 6048TIP3    H139635   2.567   0.170  11.345 -0.0083  0.7565  0.0246
 6048TIP3    H239636   2.599   0.025  11.371 -0.7911  0.2141 -1.9054
 6049TIP3   OH239637   1.633   5.881   3.243 -0.3142  0.3552 -0.0914
 6049TIP3    H139638   1.665   5.816   3.305 -0.2371  0.0989 -0.4012
 6049TIP3    H239639   1.625   5.834   3.160  0.2741  0.8756 -0.4502
 6050TIP3   OH239640   0.720   5.900   1.935 -0.2776  0.2788  0.4027
 6050TIP3    H139641   0.757   5.954   2.005  1.1335 -0.5682  0.3381
 6050TIP3    H239642   0.748   5.811   1.955 -0.0067 -0.0094 -1.1259
 6051TIP3   OH239643   0.111   0.144  13.904 -0.2237 -0.1834 -0.2133
 6051TIP3    H139644   0.016   0.138  13.908 -0.1596 -0.7071  2.2431
 6051TIP3    H239645   0.134   0.213  13.966  0.9689  1.1849 -2.0480
 6052TIP3   OH239646   1.877   6.359   4.058 -0.1730  0.5187  0.3936
 6052TIP3    H139647   1.809   6.370   3.991 -0.7822  0.6897  1.0241
 6052TIP3    H239648   1.858   6.273   4.097  1.1183 -0.2849 -0.6819
 6053TIP3   OH239649   5.459   3.361   5.207 -0.2577 -0.8029 -0.2163
 6053TIP3    H139650   5.517   3.295   5.169 -0.0436 -1.3091  0.9346
 6053TIP3    H239651   5.512   3.401   5.277 -1.3093 -1.3062  0.8921
 6054TIP3   OH239652   1.719   7.136   0.015 -0.3968 -0.1088  0.1877
 6054TIP3    H139653   1.804   7.152  -0.025  0.2146 -1.6015  0.8123
 6054TIP3    H239654   1.672   7.084  -0.050 -0.9487  0.8985 -0.2509
 6055TIP3   OH239655   1.487   5.084  10.792  0.1777 -0.2614  0.0755
 6055TIP3    H139656   1.435   5.017  10.747 -0.7268 -0.3049  1.1355
 6055TIP3    H239657   1.550   5.035  10.844 -0.8861 -0.3374  1.3290
 6056TIP3   OH239658   2.827   4.917  13.079  0.4340  0.2270  0.2578
 6056TIP3    H139659   2.903   4.862  13.100 -0.0610 -0.9304 -0.8424
 6056TIP3    H239660   2.800   4.888  12.992 -1.6465  0.1915  0.8763
 6057TIP3   OH239661   5.412   6.090  15.067 -0.3604  0.5525  0.0441
 6057TIP3    H139662   5.405   6.169  15.014  1.2981  0.6740 -0.0357
 6057TIP3    H239663   5.505   6.069  15.067 -0.6309 -0.7800  0.9846
 6058TIP3   OH239664   4.435   6.994  14.774 -0.0144  0.1735 -0.1237
 6058TIP3    H139665   4.458   6.906  14.802  0.9337 -0.0422 -1.5270
 6058TIP3    H239666   4.466   7.050  14.846 -1.9611 -0.6710  1.4994
 6059TIP3   OH239667   0.864   3.082  14.753  1.6439  0.2742  0.0376
 6059TIP3    H139668   0.872   3.122  14.667 -0.4472  2.2268  0.6741
 6059TIP3    H239669   0.945   3.107  14.798  0.6413  3.5329  0.2379
 6060TIP3   OH239670   1.865   7.206   9.593 -0.2824 -0.6285  0.9051
 6060TIP3    H139671   1.888   7.161   9.512  0.9133 -0.3567  1.0698
 6060TIP3    H239672   1.891   7.297   9.577  0.5477 -0.6917  1.7967
 6061TIP3   OH239673   1.095   2.359  12.535  0.0340  0.1317 -0.4693
 6061TIP3    H139674   1.037   2.411  12.480 -1.0967 -0.0941  0.4630
 6061TIP3    H239675   1.183   2.384  12.507 -0.4607  2.2117 -0.3755
 6062TIP3   OH239676   0.874   6.545   0.116  0.4094 -0.1420  0.4076
 6062TIP3    H139677   0.840   6.504   0.037  1.6723  1.6656 -1.1434
 6062TIP3    H239678   0.870   6.475   0.182 -1.7425 -1.3677 -0.8947
 6063TIP3   OH239679   1.698   2.351  12.016 -0.2006 -0.3202  0.1377
 6063TIP3    H139680   1.788   2.375  11.994 -0.4925 -0.1744 -0.9572
 6063TIP3    H239681   1.656   2.433  12.041 -0.5358 -0.0485 -1.2329
 6064TIP3   OH239682   0.123   1.600  10.277 -0.5553  0.4906  0.6800
 6064TIP3    H139683   0.158   1.524  10.232 -0.0371  0.4612  1.1229
 6064TIP3    H239684   0.200   1.648  10.308 -0.8689  1.3249  0.2047
 6065TIP3   OH239685   4.932   0.411   9.833  0.8005  0.4412  0.1177
 6065TIP3    H139686   4.965   0.501   9.833  0.0286  0.7686 -1.6217
 6065TIP3    H239687   4.837   0.421   9.824  0.8927 -0.4943 -3.2176
 6066TIP3   OH239688   3.782   2.096   9.910  0.4197  0.9172 -0.2109
 6066TIP3    H139689   3.859   2.072   9.961  0.8419  0.6820 -0.9465
 6066TIP3    H239690   3.751   2.014   9.872  0.5099  1.1830 -0.8757
 6067TIP3   OH239691   0.006   0.801  13.622  0.1240  0.3562  0.5362
 6067TIP3    H139692  -0.088   0.797  13.603  0.4465 -2.0263 -1.0682
 6067TIP3    H239693   0.044   0.838  13.542  0.6231  0.7447  0.9483
 6068TIP3   OH239694   4.093   0.166   3.300  0.0030 -0.5549 -0.2880
 6068TIP3    H139695   4.074   0.112   3.377  2.2315 -0.2539  0.5368
 6068TIP3    H239696   4.146   0.238   3.333  0.1116  0.1887 -1.9520
 6069TIP3   OH239697   1.308   1.527   4.947  0.0552  0.2093  0.0457
 6069TIP3    H139698   1.374   1.597   4.945 -0.6059  0.8472  0.2513
 6069TIP3    H239699   1.225   1.571   4.929 -0.3201 -0.5960 -0.2724
 6070TIP3   OH239700   3.667   7.068  13.216 -0.1787  0.0191  0.0319
 6070TIP3    H139701   3.673   7.126  13.140  1.7197  0.5778  0.5704
 6070TIP3    H239702   3.644   7.125  13.289  1.5664  0.1260  0.5396
 6071TIP3   OH239703   2.232   5.187  10.777 -0.2812  0.2327 -0.1618
 6071TIP3    H139704   2.240   5.132  10.855 -0.0616  0.7860  0.2175
 6071TIP3    H239705   2.209   5.127  10.707  3.3881 -0.9334 -0.5322
 6072TIP3   OH239706   7.051   5.035   3.149 -0.2171  0.0227  0.0220
 6072TIP3    H139707   6.997   5.069   3.220  0.7641 -0.4241  1.0244
 6072TIP3    H239708   7.118   5.102   3.134 -1.8234  1.2480 -2.2207
 6073TIP3   OH239709   4.265   2.247  10.689  0.0943  0.9699 -0.5249
 6073TIP3    H139710   4.244   2.173  10.747 -0.5366 -0.7990 -2.8260
 6073TIP3    H239711   4.330   2.298  10.737  2.0956 -2.1806  0.4557
 6074TIP3   OH239712   6.704   0.579  14.467  0.2857 -0.4846 -0.2620
 6074TIP3    H139713   6.693   0.635  14.389 -0.6271 -1.6620 -1.0194
 6074TIP3    H239714   6.619   0.537  14.477  1.1035 -2.1619 -0.0566
 6075TIP3   OH239715   3.455   4.452  12.133  0.0340  0.0813  0.2760
 6075TIP3    H139716   3.539   4.411  12.156 -0.9330 -2.6865 -0.7933
 6075TIP3    H239717   3.478   4.518  12.068  1.8044  2.3711  2.9805
 6076TIP3   OH239718   5.816   1.094  11.835 -0.0459  0.4335 -0.0460
 6076TIP3    H139719   5.741   1.113  11.893  0.1403 -0.5241  0.5263
 6076TIP3    H239720   5.778   1.093  11.747 -0.9085 -0.9599  0.3099
 6077TIP3   OH239721   0.066   6.468  11.211  0.0354 -0.6139  0.0203
 6077TIP3    H139722  -0.007   6.468  11.149 -0.8932  1.2965  1.0372
 6077TIP3    H239723   0.118   6.543  11.186 -0.1665 -0.0213  1.3125
 6078TIP3   OH239724   5.984   1.416  11.328 -0.2517 -0.5592  0.3006
 6078TIP3    H139725   5.989   1.437  11.421  0.9948  0.7216 -0.0198
 6078TIP3    H239726   5.890   1.419  11.307 -0.3858  1.7921  0.9689
 6079TIP3   OH239727   7.084   4.372  13.178  0.2375  0.5391 -0.2336
 6079TIP3    H139728   7.157   4.355  13.237 -1.0315 -0.1816  1.1840
 6079TIP3    H239729   7.038   4.289  13.171 -3.3265  1.9469  2.9875
 6080TIP3   OH239730   4.078   0.015   0.760 -0.4127 -0.1286 -0.3754
 6080TIP3    H139731   4.114  -0.072   0.742 -0.5189 -0.0961 -0.7315
 6080TIP3    H239732   3.984   0.001   0.766 -0.4251 -0.0430 -0.3805
 6081TIP3   OH239733   0.361   4.875  10.327 -0.3336  0.6282  0.1603
 6081TIP3    H139734   0.376   4.812  10.398  0.9334  0.7447  0.0181
 6081TIP3    H239735   0.437   4.865  10.270 -0.5240  1.7126 -0.3008
 6082TIP3   OH239736   2.978   5.376  10.937  0.2185  0.0831  0.4456
 6082TIP3    H139737   2.976   5.381  10.841  0.0661  0.3235  0.4608
 6082TIP3    H239738   2.967   5.283  10.956 -0.1621  0.0822  0.2404
 6083TIP3   OH239739   1.615   0.122  10.621 -0.8826 -0.2243 -0.2391
 6083TIP3    H139740   1.648   0.152  10.706  2.2380  0.6643 -1.6384
 6083TIP3    H239741   1.522   0.145  10.622 -0.6204  1.0853  2.3536
 6084TIP3   OH239742   3.723   5.080  10.802  0.1832 -0.1309 -0.4119
 6084TIP3    H139743   3.781   5.069  10.727 -1.0788 -0.3572 -1.3847
 6084TIP3    H239744   3.685   5.167  10.792  1.5252  0.6741  1.0922
 6085TIP3   OH239745   3.672   1.640   2.093 -0.4647  0.0174 -0.1234
 6085TIP3    H139746   3.642   1.578   2.027 -0.0808 -0.7930  0.4588
 6085TIP3    H239747   3.746   1.597   2.136  0.3886  1.2472 -0.3115
 6086TIP3   OH239748   2.205   6.632  11.017 -1.0631 -0.3452  0.5158
 6086TIP3    H139749   2.264   6.655  10.946 -2.3452 -1.2457 -0.9144
 6086TIP3    H239750   2.176   6.543  10.996  0.1793 -1.5464  3.3633
 6087TIP3   OH239751   5.680   4.837  14.748  0.2422  0.5292 -0.5433
 6087TIP3    H139752   5.669   4.790  14.831  2.2790 -0.8144 -0.9556
 6087TIP3    H239753   5.624   4.790  14.686  0.8898 -0.3011 -0.5313
 6088TIP3   OH239754   3.040   5.818  14.598 -0.7995  0.0475  0.2871
 6088TIP3    H139755   3.098   5.744  14.581 -0.3548  0.7586 -1.6664
 6088TIP3    H239756   3.061   5.847  14.687  2.5136  0.7928 -0.6010
 6089TIP3   OH239757   0.477   2.719  15.040  0.3192  0.3458  0.2813
 6089TIP3    H139758   0.517   2.645  15.087  0.6193  1.0119  1.1255
 6089TIP3    H239759   0.430   2.679  14.968 -0.6021 -0.7927  1.4536
 6090TIP3   OH239760   5.351   4.212  10.053 -0.5037  0.4135 -0.3968
 6090TIP3    H139761   5.315   4.271  10.119  0.6840 -0.0443  0.6999
 6090TIP3    H239762   5.412   4.267  10.003 -1.1963  0.6915 -0.9498
 6091TIP3   OH239763   7.094   4.776  13.856  0.1879  0.1206  0.1481
 6091TIP3    H139764   7.156   4.739  13.919 -0.0891  0.9669  0.9300
 6091TIP3    H239765   7.009   4.771  13.899  0.2727  2.6883  0.7978
 6092TIP3   OH239766   6.772   1.275  10.662 -0.2928 -0.2386 -0.1555
 6092TIP3    H139767   6.691   1.234  10.692  0.1584 -0.1136  1.2985
 6092TIP3    H239768   6.835   1.203  10.658  0.1649  0.0651  1.1665
 6093TIP3   OH239769   6.320   6.778  12.173  0.4375  0.7253 -0.2071
 6093TIP3    H139770   6.311   6.743  12.084 -2.0287  0.0148  0.2433
 6093TIP3    H239771   6.414   6.794  12.183  1.3540 -2.7555 -1.6027
 6094TIP3   OH239772   5.093   6.048  10.573  0.2444  0.0686  0.3917
 6094TIP3    H139773   5.043   6.124  10.603  0.9599  0.1586  1.4369
 6094TIP3    H239774   5.102   5.994  10.651  0.7665 -0.5123 -0.0640
 6095TIP3   OH239775   0.775   2.831   1.348 -0.0592  0.6821 -0.0536
 6095TIP3    H139776   0.791   2.908   1.401  1.0850  0.7634 -0.4764
 6095TIP3    H239777   0.687   2.844   1.311 -0.2188  1.3607  0.5546
 6096TIP3   OH239778   0.764   0.094  10.542  0.9398 -0.6262  0.0653
 6096TIP3    H139779   0.732   0.099  10.631 -1.2600  0.9334 -0.7387
 6096TIP3    H239780   0.702   0.038  10.496  1.6653 -0.8739 -0.6534
 6097TIP3   OH239781   0.582   4.169  11.352 -0.2998 -0.3087 -0.2948
 6097TIP3    H139782   0.652   4.153  11.416 -0.6013  2.5504  0.8888
 6097TIP3    H239783   0.597   4.103  11.284  2.0267 -1.3840  1.1028
 6098TIP3   OH239784   2.813   6.370  13.058 -0.3438 -0.4368  0.1969
 6098TIP3    H139785   2.842   6.281  13.039 -0.8894 -0.8068  1.0736
 6098TIP3    H239786   2.894   6.417  13.081  0.0047 -0.5769 -0.6798
 6099TIP3   OH239787   0.206   6.809  13.000  0.2214  0.1195 -0.3839
 6099TIP3    H139788   0.182   6.798  12.908 -0.7179 -0.7167 -0.0520
 6099TIP3    H239789   0.161   6.737  13.046  2.9524 -1.2647  0.3513
 6100TIP3   OH239790   0.840   3.566  14.842 -0.6830  0.1215  0.3924
 6100TIP3    H139791   0.789   3.531  14.768  0.7018  0.6963 -0.8821
 6100TIP3    H239792   0.920   3.514  14.843  0.0946  1.2778  0.3393
 6101TIP3   OH239793   2.744   5.318  12.565  0.2389 -0.2295  0.0492
 6101TIP3    H139794   2.683   5.258  12.609  0.2732  0.1921  0.6811
 6101TIP3    H239795   2.697   5.345  12.486  0.0733 -0.7979 -0.0524
 6102TIP3   OH239796   2.545   6.647   9.440 -0.0036  0.5149  0.2030
 6102TIP3    H139797   2.568   6.564   9.481  0.8970  1.6504  2.1174
 6102TIP3    H239798   2.623   6.670   9.388 -0.3958  0.0120 -0.6271
 6103TIP3   OH239799   1.897   3.719   5.272 -0.7424 -0.3013  0.3644
 6103TIP3    H139800   1.908   3.814   5.270  0.9879 -0.4905 -0.6495
 6103TIP3    H239801   1.804   3.706   5.294 -0.5856  1.5744  2.5230
 6104TIP3   OH239802   0.876   3.591  10.264  0.1874  0.5582  0.0315
 6104TIP3    H139803   0.801   3.578  10.206  1.7236  0.1819 -1.9540
 6104TIP3    H239804   0.927   3.511  10.255  1.3086  1.1907  0.6098
 6105TIP3   OH239805   6.483   4.322   0.739  0.0186  0.5388 -0.2833
 6105TIP3    H139806   6.431   4.250   0.703 -0.0390  1.2019 -1.6173
 6105TIP3    H239807   6.463   4.323   0.832 -0.4351 -0.7897 -0.3505
 6106TIP3   OH239808   0.639   4.074  12.943  0.1463  0.1049 -0.2452
 6106TIP3    H139809   0.734   4.086  12.937  0.4086 -1.2841  0.5709
 6106TIP3    H239810   0.621   4.077  13.037 -0.3840 -1.0745 -0.2897
 6107TIP3   OH239811   2.912   5.224  11.472  0.5618 -0.5482  0.1612
 6107TIP3    H139812   2.858   5.262  11.541 -0.1958  2.5368 -1.9629
 6107TIP3    H239813   2.881   5.133  11.466 -0.1932 -0.5772  2.9547
 6108TIP3   OH239814   6.677   4.566  12.015 -0.2008 -0.0748 -0.5071
 6108TIP3    H139815   6.595   4.551  11.969  0.2562 -1.4380 -0.9336
 6108TIP3    H239816   6.674   4.658  12.042 -2.5795 -0.5024  0.9498
 6109TIP3   OH239817   2.747   0.640  15.354 -0.3973 -0.0758 -0.3078
 6109TIP3    H139818   2.756   0.587  15.274  0.3967  0.1052 -0.3541
 6109TIP3    H239819   2.805   0.715  15.339  1.2474 -0.9697  1.1894
 6110TIP3   OH239820   0.332   3.871   4.381  0.5398  0.6824  0.3266
 6110TIP3    H139821   0.273   3.836   4.448  1.3313 -0.0649  0.6602
 6110TIP3    H239822   0.408   3.812   4.383  0.9872  1.2017 -0.5825
 6111TIP3   OH239823   3.055   6.750  12.413  0.5040  0.3576 -0.3831
 6111TIP3    H139824   3.110   6.741  12.335  1.7706 -1.5147  0.6539
 6111TIP3    H239825   2.976   6.701  12.393 -0.2881  1.9372 -1.3650
 6112TIP3   OH239826   3.842   3.688  12.933  0.6514  0.1429 -0.2533
 6112TIP3    H139827   3.832   3.783  12.946 -0.0589 -0.2107  2.2755
 6112TIP3    H239828   3.768   3.664  12.877 -0.4546  0.8000  0.8716
 6113TIP3   OH239829   3.907   4.580   0.015  0.0311  0.2166  0.0999
 6113TIP3    H139830   3.843   4.564  -0.054  1.3920  0.6685 -1.3355
 6113TIP3    H239831   3.978   4.518  -0.003 -0.4887 -1.2017  2.4278
 6114TIP3   OH239832   1.700   3.441   0.765 -0.4542  0.0791 -0.1224
 6114TIP3    H139833   1.606   3.449   0.754 -1.1976 -2.0742  3.0251
 6114TIP3    H239834   1.723   3.511   0.826 -0.1353  0.2336 -0.4193
 6115TIP3   OH239835   2.565   3.302  13.130 -0.3404 -0.1802 -0.4508
 6115TIP3    H139836   2.615   3.236  13.178  0.9826  1.6478  0.8385
 6115TIP3    H239837   2.492   3.324  13.189 -0.8743 -0.5794 -0.9498
 6116TIP3   OH239838   4.854   1.036  13.960  0.1156  0.5169 -0.2753
 6116TIP3    H139839   4.933   1.048  14.013 -0.7362  0.4881  1.0448
 6116TIP3    H239840   4.821   0.951  13.986  0.4318 -0.1539 -1.9285
 6117TIP3   OH239841   0.910   0.737  11.095 -0.3586 -0.1832 -0.1697
 6117TIP3    H139842   0.996   0.695  11.097  0.0161  0.5799  0.0548
 6117TIP3    H239843   0.875   0.717  11.008 -0.2028 -0.9728 -0.0627
 6118TIP3   OH239844   5.593   3.210  11.012  0.3747  0.1024 -0.2194
 6118TIP3    H139845   5.562   3.186  10.924  1.3506  0.0212 -0.5526
 6118TIP3    H239846   5.514   3.210  11.066 -0.0432 -1.3175 -0.7764
 6119TIP3   OH239847   4.133   2.108  10.337  0.2583 -0.1137  0.7073
 6119TIP3    H139848   4.121   2.046  10.265 -0.3140  1.2066 -0.3855
 6119TIP3    H239849   4.159   2.190  10.294  2.1205  0.1276  2.1911
 6120TIP3   OH239850   4.890   2.112  10.809 -0.6583 -0.3555  0.2802
 6120TIP3    H139851   4.842   2.188  10.775  0.8045  0.3114 -0.3793
 6120TIP3    H239852   4.948   2.147  10.876  1.2498 -0.5411 -1.1747
 6121TIP3   OH239853   4.274   2.215  12.751  0.0684  0.0877 -0.3353
 6121TIP3    H139854   4.248   2.171  12.670  0.9562  1.0754 -1.1864
 6121TIP3    H239855   4.233   2.163  12.820  0.7436 -1.8273 -1.3001
 6122TIP3   OH239856   6.458   0.466  14.491  0.4296 -0.3251 -0.4938
 6122TIP3    H139857   6.407   0.428  14.562  0.2908  0.1930 -0.3085
 6122TIP3    H239858   6.392   0.502  14.431  0.5271  2.5114  0.9219
 6123TIP3   OH239859   0.642   0.686  12.480 -0.3522  0.2678 -0.4128
 6123TIP3    H139860   0.715   0.714  12.536 -0.8659 -0.7005  0.7973
 6123TIP3    H239861   0.563   0.705  12.532 -0.8993  0.1749 -1.1846
 6124TIP3   OH239862   5.704   6.797   3.073 -0.0000 -0.3930  0.3070
 6124TIP3    H139863   5.762   6.772   3.001  0.5393  0.8712  0.2771
 6124TIP3    H239864   5.628   6.837   3.031  2.1474  4.3376  0.3617
 6125TIP3   OH239865   3.469   3.808  14.591  0.9353 -0.5387 -0.4213
 6125TIP3    H139866   3.555   3.818  14.550  1.5847 -1.3577  0.6907
 6125TIP3    H239867   3.489   3.793  14.683 -0.4923  1.8401  0.3549
 6126TIP3   OH239868   5.850   2.495  10.362  0.4286  0.6025  0.3556
 6126TIP3    H139869   5.824   2.422  10.418  0.7742  1.1022  1.1905
 6126TIP3    H239870   5.799   2.483  10.282  1.1755 -1.0810  0.0772
 6127TIP3   OH239871   5.393   5.709  12.395 -0.2817  0.1927  0.4820
 6127TIP3    H139872   5.313   5.669  12.430  0.2433 -0.4394  0.9624
 6127TIP3    H239873   5.368   5.801  12.380 -1.3449 -0.1749 -0.1610
 6128TIP3   OH239874   3.085   1.547  12.673  0.8062  0.0827 -0.4132
 6128TIP3    H139875   3.011   1.532  12.732 -1.1046  1.6256 -2.2862
 6128TIP3    H239876   3.142   1.607  12.721  0.8853 -1.0457  1.0155
 6129TIP3   OH239877   3.702   4.024  10.593  0.1742  0.1197  0.1770
 6129TIP3    H139878   3.612   4.018  10.625  0.1697  1.2973  0.4029
 6129TIP3    H239879   3.754   4.042  10.671  0.3058  1.8447 -0.2835
 6130TIP3   OH239880   6.078   6.662   0.494  0.0091 -0.0669 -0.4400
 6130TIP3    H139881   6.046   6.654   0.583 -2.2690  0.4118 -1.1549
 6130TIP3    H239882   6.045   6.584   0.449 -1.5936  1.2317 -1.5939
 6131TIP3   OH239883   5.426   2.981  13.317 -0.2527  0.1727 -0.2118
 6131TIP3    H139884   5.359   3.027  13.367  1.9645  1.9138  1.4060
 6131TIP3    H239885   5.399   2.889  13.319 -2.1566  0.7034  1.0227
 6132TIP3   OH239886   4.720   2.697  13.561 -0.2552 -0.3029  0.6480
 6132TIP3    H139887   4.668   2.663  13.634 -0.5371 -0.4341  0.3877
 6132TIP3    H239888   4.809   2.671  13.581 -0.2325  0.2365  1.2836
 6133TIP3   OH239889   4.004   3.628   3.591  0.3815  0.0068  0.0107
 6133TIP3    H139890   4.031   3.683   3.664 -0.1586 -0.4117  0.5406
 6133TIP3    H239891   4.068   3.556   3.590 -0.3359 -0.6618  0.8822
 6134TIP3   OH239892   5.894   1.130  14.899 -0.1761  0.4157  0.1614
 6134TIP3    H139893   5.988   1.134  14.883  0.0458  0.5469  1.3916
 6134TIP3    H239894   5.858   1.199  14.843  0.3296 -0.2450 -1.0218
 6135TIP3   OH239895   1.189   2.535   9.945 -0.3181  0.0955  0.2216
 6135TIP3    H139896   1.280   2.507   9.933 -0.9657 -2.2959  0.3724
 6135TIP3    H239897   1.140   2.487   9.879 -1.4929  1.4204  0.0861
 6136TIP3   OH239898   2.135   2.805  11.285  0.2466  0.2459 -0.4329
 6136TIP3    H139899   2.155   2.748  11.211  0.7766 -1.5429  1.0122
 6136TIP3    H239900   2.044   2.785  11.307  0.2035  0.5027 -0.3736
 6137TIP3   OH239901   6.264   7.107  12.025 -0.6182 -0.0424  0.0051
 6137TIP3    H139902   6.352   7.071  12.010 -0.5062  0.9738 -2.1006
 6137TIP3    H239903   6.210   7.065  11.959 -1.3229  0.6825  0.1095
 6138TIP3   OH239904   4.458   1.421   9.093  0.2375 -0.7377 -0.1466
 6138TIP3    H139905   4.546   1.417   9.130  0.2136 -0.7787 -0.0938
 6138TIP3    H239906   4.427   1.330   9.095 -0.3036 -0.5441  1.0332
 6139TIP3   OH239907   5.351   1.379  11.148  0.7787  0.0020  0.1043
 6139TIP3    H139908   5.382   1.439  11.216  0.7569  0.8527 -0.6164
 6139TIP3    H239909   5.312   1.307  11.197 -1.2332  1.6117  1.0264
 6140TIP3   OH239910   6.068   2.741  14.561 -0.4054  0.0482  0.0368
 6140TIP3    H139911   6.025   2.799  14.623 -0.2007  0.3116 -0.0624
 6140TIP3    H239912   6.154   2.723  14.600 -1.2487 -1.9085  1.0903
 6141TIP3   OH239913   0.616   4.420   3.882  0.2874 -0.3728 -0.2748
 6141TIP3    H139914   0.565   4.465   3.949  1.1330 -0.1123  0.2141
 6141TIP3    H239915   0.551   4.384   3.822 -0.4719 -0.2911  0.4791
 6142TIP3   OH239916   3.698   5.333   2.270 -0.3323 -0.1754  0.2812
 6142TIP3    H139917   3.675   5.399   2.204 -0.4883  0.4680  0.9607
 6142TIP3    H239918   3.671   5.372   2.353 -0.0283 -0.9213  0.7405
 6143TIP3   OH239919   1.957   6.815   0.238 -0.0934 -0.2776  0.6836
 6143TIP3    H139920   1.903   6.893   0.230  1.3019  0.5397 -1.6102
 6143TIP3    H239921   2.041   6.847   0.271  0.2884 -0.8928  0.3373
 6144TIP3   OH239922   3.482   7.249  14.064 -0.5159  0.0417 -0.1097
 6144TIP3    H139923   3.555   7.304  14.093  1.3350 -1.8431 -0.9117
 6144TIP3    H239924   3.411   7.268  14.125  0.0973  3.0592 -0.2120
 6145TIP3   OH239925   0.555   0.946   3.811  0.2805  0.2534  0.2635
 6145TIP3    H139926   0.609   0.989   3.878  0.6347  1.0164 -0.4904
 6145TIP3    H239927   0.526   1.018   3.754  1.0164 -0.5114 -1.1235
 6146TIP3   OH239928   5.798   2.422  14.966 -0.0515  0.5235  0.4240
 6146TIP3    H139929   5.808   2.484  15.038  0.9646 -1.2040  1.8287
 6146TIP3    H239930   5.708   2.390  14.973 -0.5455  1.6694 -0.2396
 6147TIP3   OH239931   3.814   6.922  13.656 -0.6809  0.8672 -0.5891
 6147TIP3    H139932   3.907   6.915  13.677 -0.7457 -0.9379 -0.8007
 6147TIP3    H239933   3.812   6.948  13.564 -0.4106  1.8233 -0.3384
 6148TIP3   OH239934   1.292   1.145   9.720 -0.2480 -0.5351 -0.7039
 6148TIP3    H139935   1.346   1.067   9.714 -0.8001 -0.8593 -1.4638
 6148TIP3    H239936   1.213   1.125   9.671 -1.1823 -0.1499  0.5760
 6149TIP3   OH239937   3.589   1.465  12.815 -0.1972  0.2332  0.0993
 6149TIP3    H139938   3.684   1.454  12.808 -0.2193 -0.3139  0.6324
 6149TIP3    H239939   3.552   1.382  12.786 -0.4781  0.1274  0.7349
 6150TIP3   OH239940   0.241   5.206  11.005 -0.8074 -0.1653 -0.5047
 6150TIP3    H139941   0.198   5.139  11.060  0.1165 -2.9955 -2.9608
 6150TIP3    H239942   0.334   5.184  11.008 -0.1994  2.1810 -0.0336
 6151TIP3   OH239943   1.794   0.843  12.195  0.2271 -0.2510  0.2455
 6151TIP3    H139944   1.698   0.851  12.201  0.3012  2.3224 -0.9257
 6151TIP3    H239945   1.819   0.801  12.278 -1.9323 -1.6260  0.2906
 6152TIP3   OH239946   3.664   3.972  15.352  0.0378 -0.2558  0.0178
 6152TIP3    H139947   3.647   3.883  15.381  0.7839 -0.0503  1.1641
 6152TIP3    H239948   3.683   4.020  15.432 -0.5432  0.9876 -0.5658
 6153TIP3   OH239949   7.223   4.462   3.674  0.1411  0.2393  0.9582
 6153TIP3    H139950   7.219   4.422   3.588 -0.6400 -1.3736  1.7116
 6153TIP3    H239951   7.151   4.525   3.674  0.3681  0.5073  0.3220
 6154TIP3   OH239952   3.138   2.683   3.320 -0.2501  0.5436  0.3558
 6154TIP3    H139953   3.046   2.695   3.297  0.1530  1.7986 -0.7294
 6154TIP3    H239954   3.185   2.745   3.264  1.1928  0.4513  1.4078
 6155TIP3   OH239955   5.570   4.548  13.188  0.0791  0.5940 -0.2188
 6155TIP3    H139956   5.666   4.554  13.186  0.2545 -1.3828 -1.8782
 6155TIP3    H239957   5.550   4.517  13.277  0.8922  1.7462  0.3908
 6156TIP3   OH239958   1.232   6.112  11.020 -0.2746 -0.1158  0.2811
 6156TIP3    H139959   1.261   6.064  10.942 -0.6978 -0.9293  0.6139
 6156TIP3    H239960   1.278   6.070  11.092  0.3915  0.8733  0.4358
 6157TIP3   OH239961   1.971   0.360  12.071 -0.2490 -0.3270 -0.1303
 6157TIP3    H139962   1.925   0.282  12.104 -0.4322 -0.0680  0.2385
 6157TIP3    H239963   1.908   0.431  12.082  0.0060 -0.0815 -0.2369
 6158TIP3   OH239964   4.827   5.868   0.088  0.3352 -0.5307 -0.4538
 6158TIP3    H139965   4.825   5.945   0.146 -1.6048 -1.3187  0.6572
 6158TIP3    H239966   4.887   5.892   0.018 -0.8960  2.4042 -0.6679
 6159TIP3   OH239967   5.111   3.925  14.037 -0.4185 -0.3641 -0.1873
 6159TIP3    H139968   5.147   3.846  13.997 -0.5027  0.5075 -2.1087
 6159TIP3    H239969   5.042   3.893  14.095 -0.6250 -1.7069 -1.1101
 6160TIP3   OH239970   3.408   7.150  13.430  0.0452  0.2958  0.1688
 6160TIP3    H139971   3.418   7.186  13.519  0.1179 -1.1439  0.7719
 6160TIP3    H239972   3.442   7.220  13.373 -0.4410  1.4415  1.2228
 6161TIP3   OH239973   0.751   3.084  10.221 -0.0038  0.1097  0.0700
 6161TIP3    H139974   0.668   3.116  10.185 -2.5775 -3.2091  2.3735
 6161TIP3    H239975   0.783   3.021  10.156 -0.7621 -0.5524  0.3228
 6162TIP3   OH239976   0.332   5.069  10.033  0.5248 -0.1020  0.0206
 6162TIP3    H139977   0.369   5.016   9.963 -2.5002 -1.8941 -0.4197
 6162TIP3    H239978   0.239   5.075  10.011 -0.0720  1.4617  2.5874
 6163TIP3   OH239979   1.839   4.901  11.324  0.0893  0.3133 -0.6166
 6163TIP3    H139980   1.790   4.869  11.399  0.4897  0.7070 -0.1775
 6163TIP3    H239981   1.819   4.995  11.320  0.1580  0.3186 -0.9341
 6164TIP3   OH239982   4.118   6.323  14.033  0.0811 -0.0910  0.4523
 6164TIP3    H139983   4.073   6.294  13.953 -1.2230  0.3485  1.0059
 6164TIP3    H239984   4.131   6.417  14.021  0.1063 -0.0679  0.6538
 6165TIP3   OH239985   1.704   5.050  14.653 -0.1900  0.0029  0.3813
 6165TIP3    H139986   1.733   5.126  14.703 -0.2117  0.9448 -0.9957
 6165TIP3    H239987   1.786   5.008  14.626 -0.1783 -0.3199  0.8903
 6166TIP3   OH239988   2.572   1.655  12.376 -0.1613 -0.2449  0.0058
 6166TIP3    H139989   2.640   1.626  12.315 -0.0692  0.4576 -0.2329
 6166TIP3    H239990   2.618   1.672  12.458  0.6441  3.5143 -1.0244
 6167TIP3   OH239991   5.626   2.190   3.428  0.0647 -0.1238  0.2137
 6167TIP3    H139992   5.668   2.260   3.379 -4.0229  0.0985 -3.6238
 6167TIP3    H239993   5.580   2.234   3.499  2.9806 -0.0026  2.2327
 6168TIP3   OH239994   2.279   1.132  11.742  0.0925 -0.8987  0.1800
 6168TIP3    H139995   2.223   1.185  11.799 -0.5265 -1.8644  0.5074
 6168TIP3    H239996   2.224   1.114  11.665  0.6372 -0.2695 -0.3607
 6169TIP3   OH239997   6.197   3.972  12.562 -0.7133  0.0165 -0.3506
 6169TIP3    H139998   6.138   3.896  12.565 -0.9284  0.1968  1.0266
 6169TIP3    H239999   6.200   4.002  12.653  0.5028  0.7946 -0.6303
 6170TIP3   OH240000   3.540   3.269  12.681 -0.1246  0.4993  0.2758
 6170TIP3    H140001   3.631   3.293  12.699  0.7061 -1.8815 -0.3928
 6170TIP3    H240002   3.541   3.238  12.591 -1.8686  1.4343 -0.1142
 6171TIP3   OH240003   1.280   5.705   9.489  0.2103 -0.1511 -0.5578
 6171TIP3    H140004   1.331   5.774   9.532 -3.0198  2.6323 -0.7991
 6171TIP3    H240005   1.211   5.684   9.552 -1.0569 -0.3833 -1.9757
 6172TIP3   OH240006   3.674   4.273  13.043 -0.6861  0.3686  0.2277
 6172TIP3    H140007   3.696   4.322  13.122  1.0696  0.2038 -0.1267
 6172TIP3    H240008   3.609   4.209  13.073 -2.2712  2.2046  0.8911
 6173TIP3   OH240009   5.267   4.908   9.501  0.3393 -0.4179 -0.2943
 6173TIP3    H140010   5.273   4.962   9.422  1.1998 -0.9274 -0.5873
 6173TIP3    H240011   5.178   4.872   9.498  0.2997 -0.2891 -0.9421
 6174TIP3   OH240012   2.183   4.756   3.585 -0.0629  0.5833 -0.5212
 6174TIP3    H140013   2.190   4.705   3.504 -0.1318  1.2093 -0.9322
 6174TIP3    H240014   2.098   4.799   3.578  0.1160  0.9742 -0.3170
 6175TIP3   OH240015   1.833   4.349  10.829 -0.2433  0.3725 -0.3834
 6175TIP3    H140016   1.819   4.255  10.832 -0.8917  0.4822  0.3506
 6175TIP3    H240017   1.927   4.359  10.818 -0.2109 -0.3580 -0.8460
 6176TIP3   OH240018   1.746   2.439  13.320  0.0053 -0.1560  0.1204
 6176TIP3    H140019   1.778   2.443  13.230 -1.5374  0.9565 -0.4235
 6176TIP3    H240020   1.735   2.531  13.345  1.2372 -0.4062  1.7815
 6177TIP3   OH240021   1.656   2.418  14.862 -0.3188 -0.5750 -0.0408
 6177TIP3    H140022   1.693   2.446  14.946 -0.1832 -1.3092  0.1557
 6177TIP3    H240023   1.712   2.458  14.796  1.1612 -2.0386  0.2530
 6178TIP3   OH240024   5.011   3.625  10.242  0.3335 -0.4559  0.0082
 6178TIP3    H140025   5.033   3.536  10.214 -0.6095 -0.4840 -0.7016
 6178TIP3    H240026   5.018   3.677  10.162  0.0291 -0.0586  0.2406
 6179TIP3   OH240027   5.900   5.397  10.749 -0.3429  0.0368  0.2764
 6179TIP3    H140028   5.836   5.328  10.768  0.7185 -1.3983 -1.1035
 6179TIP3    H240029   5.928   5.428  10.835 -0.8759 -1.2365  0.9306
 6180TIP3   OH240030   1.985   2.572  11.143  0.2778  0.3872  0.0046
 6180TIP3    H140031   1.972   2.557  11.237  0.3411 -0.8665 -0.1715
 6180TIP3    H240032   1.897   2.594  11.111 -0.0691 -0.7752  0.0972
 6181TIP3   OH240033   4.108   1.460   4.212 -0.3168  0.7173 -1.2092
 6181TIP3    H140034   4.070   1.372   4.210  2.8236 -0.7741 -0.5543
 6181TIP3    H240035   4.082   1.496   4.297  0.5134 -0.6358 -0.3597
 6182TIP3   OH240036   2.006   2.148  13.465 -0.0187  0.0859  0.2786
 6182TIP3    H140037   2.026   2.089  13.392  2.0672 -0.1233  0.9408
 6182TIP3    H240038   2.004   2.235  13.426  1.0293 -0.0304 -0.0553
 6183TIP3   OH240039   3.903   0.581   0.171  0.5181  0.5384 -0.2640
 6183TIP3    H140040   3.948   0.634   0.237 -0.2636  0.3142  0.4696
 6183TIP3    H240041   3.847   0.521   0.222 -0.5252  0.7357 -1.1305
 6184TIP3   OH240042   7.135   1.132   3.786  0.5489 -0.1823  0.0282
 6184TIP3    H140043   7.082   1.202   3.746 -0.9517 -1.6974 -0.7618
 6184TIP3    H240044   7.094   1.116   3.870 -1.1702 -2.2104 -1.0904
 6185TIP3   OH240045   1.775   5.166   0.553 -0.6195 -0.5184 -0.0137
 6185TIP3    H140046   1.760   5.194   0.643 -0.9023  1.0255 -0.5242
 6185TIP3    H240047   1.688   5.152   0.517 -0.6105  0.8721 -0.6404
 6186TIP3   OH240048   5.936   1.020   2.128  0.1525  0.1036  0.0762
 6186TIP3    H140049   5.911   1.028   2.036 -2.7752 -2.2336  0.5396
 6186TIP3    H240050   5.985   0.938   2.132  0.3019  0.2162  0.6116
 6187TIP3   OH240051   1.037   1.955   2.616 -0.2923 -0.5029  0.3767
 6187TIP3    H140052   0.959   1.912   2.652 -0.1229 -1.5416 -0.4369
 6187TIP3    H240053   1.017   1.967   2.523 -0.5806  1.7963  0.6720
 6188TIP3   OH240054   6.500   4.296  15.073 -0.4395 -0.0697 -0.0377
 6188TIP3    H140055   6.404   4.285  15.073 -0.5768  1.0391 -0.2037
 6188TIP3    H240056   6.534   4.208  15.059 -1.4364 -0.5072  0.1843
 6189TIP3   OH240057   0.543   3.654   9.963 -0.3787 -0.2815 -0.5293
 6189TIP3    H140058   0.553   3.720  10.031 -0.4727 -0.3997 -0.4005
 6189TIP3    H240059   0.630   3.615   9.953 -0.9824 -2.4929  1.7952
 6190TIP3   OH240060   3.439   4.018   4.024 -0.3336 -0.3016  0.2633
 6190TIP3    H140061   3.509   3.953   4.016 -0.9520 -0.8977 -0.3081
 6190TIP3    H240062   3.361   3.975   3.990 -1.5279 -0.4562  2.8909
 6191TIP3   OH240063   4.095   4.798  11.643  0.1235  0.1771  0.5732
 6191TIP3    H140064   4.107   4.715  11.691 -1.6221 -0.2756  0.2992
 6191TIP3    H240065   4.127   4.779  11.555 -0.6799 -0.3717  0.3866
 6192TIP3   OH240066   1.419   5.074  13.012  0.4648  0.4090  0.1085
 6192TIP3    H140067   1.403   5.141  12.945  0.1509  2.0238  1.7170
 6192TIP3    H240068   1.459   5.002  12.964  0.0455  1.4016 -1.8556
 6193TIP3   OH240069   3.601   6.315  11.352  0.0940 -0.0053  0.5963
 6193TIP3    H140070   3.587   6.249  11.420 -0.1078  0.4166  0.9683
 6193TIP3    H240071   3.692   6.341  11.361 -0.3752  1.3142  1.8661
 6194TIP3   OH240072   2.870   6.135  12.972 -0.8127 -0.2326 -0.2555
 6194TIP3    H140073   2.900   6.090  12.893  2.8056 -0.5668  1.0800
 6194TIP3    H240074   2.889   6.074  13.043 -0.6961  1.3382  1.1443
 6195TIP3   OH240075   7.087   2.979   0.618 -0.0114 -0.0610  0.2124
 6195TIP3    H140076   7.179   2.953   0.612  0.0782  0.2852  0.0637
 6195TIP3    H240077   7.080   3.025   0.701 -0.2337 -0.8013  0.6130
 6196TIP3   OH240078   3.587   6.539  11.023 -0.3007 -0.4066 -0.6356
 6196TIP3    H140079   3.613   6.623  10.984  3.1482 -0.8139  0.4004
 6196TIP3    H240080   3.599   6.475  10.952 -1.9364 -0.1892 -1.1331
 6197TIP3   OH240081   2.117   3.971  11.906 -0.0248 -0.3185  0.0682
 6197TIP3    H140082   2.201   4.007  11.935  0.6301 -0.1196 -1.9722
 6197TIP3    H240083   2.076   4.042  11.857 -1.4694 -0.3838  1.1170
 6198TIP3   OH240084   1.793   1.625   2.746 -0.2338  0.4343 -0.3251
 6198TIP3    H140085   1.869   1.597   2.695  0.4075  1.6898 -0.0771
 6198TIP3    H240086   1.724   1.636   2.681 -0.2381 -0.7434 -0.5490
 6199TIP3   OH240087   5.648   2.074   0.210  0.1853 -0.5337 -0.2057
 6199TIP3    H140088   5.702   2.115   0.142  0.0840  0.1042  0.0857
 6199TIP3    H240089   5.680   2.113   0.292  0.3851 -1.3787  0.1271
 6200TIP3   OH240090   1.413   6.377   1.111 -0.2620  0.5509 -0.0677
 6200TIP3    H140091   1.424   6.467   1.082  1.9219  0.4077  0.1784
 6200TIP3    H240092   1.354   6.338   1.047 -1.5520  2.2134  0.0312
 6201TIP3   OH240093   1.242   3.572   0.426  0.4139  0.2909  0.5172
 6201TIP3    H140094   1.268   3.648   0.479  1.2998  0.7923 -0.5892
 6201TIP3    H240095   1.302   3.574   0.352 -1.2574  0.0417 -0.8952
 6202TIP3   OH240096   1.914   0.866  13.665  0.2272 -0.3476  0.0444
 6202TIP3    H140097   1.915   0.852  13.571  0.8431  0.0930 -0.0204
 6202TIP3    H240098   2.006   0.882  13.688  0.0281 -0.0388  0.6525
 6203TIP3   OH240099   2.702   4.385  12.932  0.2567  0.0580  0.1789
 6203TIP3    H140100   2.722   4.450  12.865  0.9282  1.0180  1.2754
 6203TIP3    H240101   2.785   4.369  12.976 -0.3127  0.0626  1.3028
 6204TIP3   OH240102   2.891   3.313   3.488  0.3083  0.5935  0.1510
 6204TIP3    H140103   2.856   3.322   3.400  0.5317  1.5194  0.1507
 6204TIP3    H240104   2.863   3.226   3.516  0.4824  0.1767 -0.9391
 6205TIP3   OH240105   1.979   2.470  11.419 -0.2339 -0.0548  0.1449
 6205TIP3    H140106   2.017   2.500  11.502 -0.8846  0.2412  0.3427
 6205TIP3    H240107   2.045   2.411  11.382  0.3586  0.3587  0.5350
 6206TIP3   OH240108   0.432   6.223  10.808  0.0987  0.0979  0.0892
 6206TIP3    H140109   0.342   6.203  10.835  0.2822  1.4598  1.9188
 6206TIP3    H240110   0.481   6.143  10.824 -0.5779 -0.2953  0.2057
 6207TIP3   OH240111   2.148   2.732   1.444  0.8149 -0.3892  0.1420
 6207TIP3    H140112   2.240   2.726   1.417  0.6350 -1.4134 -0.3157
 6207TIP3    H240113   2.150   2.724   1.539  1.1627 -1.1483  0.0818
 6208TIP3   OH240114   3.226   0.147  12.632  0.3580  0.0076  0.6115
 6208TIP3    H140115   3.273   0.121  12.711  0.1788 -2.5420 -0.0354
 6208TIP3    H240116   3.274   0.105  12.561 -0.4936  0.8108 -0.4623
 6209TIP3   OH240117   6.924   0.077   2.661 -0.5321  0.5659  0.2882
 6209TIP3    H140118   6.950   0.147   2.721  1.2143  0.3240 -0.1459
 6209TIP3    H240119   7.006   0.040   2.629 -1.4212 -0.9314 -0.3868
 6210TIP3   OH240120   6.379   3.539   0.423 -0.3196 -0.1378  0.1386
 6210TIP3    H140121   6.340   3.463   0.381 -0.3315  0.7708 -1.5657
 6210TIP3    H240122   6.470   3.540   0.395  0.9056 -1.7876  3.4628
 6211TIP3   OH240123   3.262   3.792  12.055  0.5888 -0.3157  0.1775
 6211TIP3    H140124   3.219   3.867  12.097  0.7198  0.2551 -0.6747
 6211TIP3    H240125   3.339   3.775  12.109 -0.5221 -1.1720  1.5627
 6212TIP3   OH240126   1.553   3.157  15.122 -0.3508 -0.5505 -0.2351
 6212TIP3    H140127   1.507   3.109  15.052 -1.6986  0.7431 -0.2877
 6212TIP3    H240128   1.527   3.248  15.109  1.2743  0.0620  0.5390
 6213TIP3   OH240129   5.669   6.104   9.743 -0.0160  0.1467  0.2697
 6213TIP3    H140130   5.578   6.116   9.717 -0.0213 -0.5180 -0.0417
 6213TIP3    H240131   5.669   6.023   9.793  0.3151  0.4396  0.7547
 6214TIP3   OH240132   0.089   1.236  15.188 -0.4190  0.0311 -0.0902
 6214TIP3    H140133   0.057   1.196  15.107 -0.5391  1.6829 -0.9099
 6214TIP3    H240134   0.058   1.178  15.257  1.1380 -2.4022 -1.2650
 6215TIP3   OH240135   2.652   5.898  13.932 -0.3692 -1.0138 -0.2228
 6215TIP3    H140136   2.625   5.836  14.000  1.5813  1.2189  2.8520
 6215TIP3    H240137   2.599   5.976  13.948  0.0360 -0.4592 -1.4255
 6216TIP3   OH240138   5.538   2.443  10.856 -0.1343  0.6898  0.6302
 6216TIP3    H140139   5.481   2.516  10.830  0.5629  0.7214 -0.9301
 6216TIP3    H240140   5.536   2.444  10.951 -0.5325  2.4516  0.6395
 6217TIP3   OH240141   6.606   1.116   1.526  0.1815  0.4201  0.0215
 6217TIP3    H140142   6.695   1.114   1.561 -0.3517  1.7754  1.5747
 6217TIP3    H240143   6.579   1.208   1.533 -1.4796 -0.0210 -0.0593
 6218TIP3   OH240144   3.273   0.839  12.980  0.1723 -0.2015  0.0848
 6218TIP3    H140145   3.351   0.855  12.926  1.7769  0.1028  2.3335
 6218TIP3    H240146   3.284   0.896  13.056 -2.7102  0.4527  0.1179
 6219TIP3   OH240147   5.553   2.334  13.180 -0.1370  0.6905 -0.6237
 6219TIP3    H140148   5.630   2.381  13.147  0.4875  0.4884  0.4898
 6219TIP3    H240149   5.584   2.245  13.194 -0.0605  0.9963  1.4544
 6220TIP3   OH240150   3.364   6.363  10.725 -0.1062 -0.1087  0.7615
 6220TIP3    H140151   3.359   6.455  10.751  0.5376 -0.2123  1.2887
 6220TIP3    H240152   3.279   6.327  10.747 -1.2742  0.8915 -1.6694
 6221TIP3   OH240153   0.237   1.887  11.962 -0.4305  0.1575 -0.2014
 6221TIP3    H140154   0.155   1.839  11.969  0.9655 -2.2127  1.1883
 6221TIP3    H240155   0.296   1.829  11.913  0.7020  1.4277 -0.4326
 6222TIP3   OH240156   4.339   1.578   0.361  0.1392  0.1440  0.0228
 6222TIP3    H140157   4.380   1.631   0.429  1.4930  0.7311 -1.1755
 6222TIP3    H240158   4.253   1.555   0.396  0.1568  1.7700  1.2511
 6223TIP3   OH240159   4.792   1.340  14.028  0.1322  0.4862 -0.9087
 6223TIP3    H140160   4.875   1.370  13.993  0.8608  1.2320  1.2596
 6223TIP3    H240161   4.782   1.389  14.110 -0.8447 -1.9694  0.5416
 6224TIP3   OH240162   3.500   1.831  11.013  0.5535 -0.7472 -0.5979
 6224TIP3    H140163   3.479   1.922  10.991 -0.5475 -0.9501 -0.4197
 6224TIP3    H240164   3.547   1.798  10.937  0.5522 -0.1738 -0.8548
 6225TIP3   OH240165   5.134   2.233   0.900 -0.2742 -0.3049 -0.6600
 6225TIP3    H140166   5.104   2.267   0.984  0.3132 -1.1209 -0.1047
 6225TIP3    H240167   5.157   2.310   0.849 -1.8519  0.2705 -0.5583
 6226TIP3   OH240168   3.545   3.584  12.907 -0.7060 -0.1674 -0.3001
 6226TIP3    H140169   3.517   3.521  12.975  0.2776  0.1656  0.4340
 6226TIP3    H240170   3.476   3.651  12.908 -1.1820 -0.6483 -0.2895
 6227TIP3   OH240171   2.572   6.738  10.848 -0.3285 -0.1226 -0.0586
 6227TIP3    H140172   2.552   6.811  10.789  1.2291  0.7143  0.3987
 6227TIP3    H240173   2.609   6.779  10.926 -3.1613 -1.1142  1.9850
 6228TIP3   OH240174   5.868   5.896  10.664 -0.5174 -0.4808 -0.0121
 6228TIP3    H140175   5.860   5.923  10.573  0.0599 -1.5716 -0.4063
 6228TIP3    H240176   5.870   5.978  10.714  0.1212  0.1674 -1.0694
 6229TIP3   OH240177   0.128   2.909   0.490 -0.3981 -0.2017 -0.5224
 6229TIP3    H140178   0.144   2.932   0.399  0.7290 -2.7147 -1.0382
 6229TIP3    H240179   0.076   2.829   0.486  2.7364 -2.5466  0.8322
 6230TIP3   OH240180   4.250   1.712  10.040  0.2086  0.0035  0.3127
 6230TIP3    H140181   4.277   1.624  10.016  0.5961  0.1513  0.2013
 6230TIP3    H240182   4.181   1.700  10.105 -0.1173 -0.3886 -0.0963
 6231TIP3   OH240183   3.089   1.997  10.610  0.3421  0.2624 -0.1076
 6231TIP3    H140184   3.032   2.071  10.627  0.5046  0.0920  1.3047
 6231TIP3    H240185   3.162   2.008  10.671 -0.2608 -1.7100  1.0368
 6232TIP3   OH240186   0.987   2.909   0.011  0.4878 -0.2679  0.6819
 6232TIP3    H140187   0.991   2.817  -0.017 -0.7677  0.0894 -0.7380
 6232TIP3    H240188   1.033   2.909   0.095 -0.1066 -2.3446  1.0837
 6233TIP3   OH240189   1.573   1.926  14.688  0.0007 -0.2100 -0.2141
 6233TIP3    H140190   1.560   1.892  14.600 -1.0460  0.5482 -0.3748
 6233TIP3    H240191   1.502   1.988  14.700  0.1853 -0.2336  1.1394
 6234TIP3   OH240192   2.877   3.747  10.360 -0.2635 -0.3787  0.2547
 6234TIP3    H140193   2.888   3.795  10.278  2.5064 -2.0768 -0.5015
 6234TIP3    H240194   2.895   3.811  10.429 -0.3171  0.5137 -0.5509
 6235TIP3   OH240195   0.845   0.947  14.208  0.4657  0.1965 -0.5445
 6235TIP3    H140196   0.795   0.933  14.288  1.5523  1.2886  0.3533
 6235TIP3    H240197   0.887   0.862  14.191 -0.4169 -0.2734 -0.4304
 6236TIP3   OH240198   6.659   0.309   0.211 -0.0440  0.0612  0.4639
 6236TIP3    H140199   6.607   0.298   0.131 -0.2643 -0.2526  0.6493
 6236TIP3    H240200   6.748   0.290   0.184  0.2266  1.9801 -0.2017
 6237TIP3   OH240201   4.304   1.402  12.646 -0.0958 -0.6397  0.0004
 6237TIP3    H140202   4.382   1.345  12.643  0.3382 -0.0524 -0.0013
 6237TIP3    H240203   4.274   1.406  12.555  1.5165  1.3530 -0.5177
 6238TIP3   OH240204   1.639   1.563   9.779 -0.6984  0.0728  0.0565
 6238TIP3    H140205   1.570   1.504   9.809  0.2255 -0.6879  0.7346
 6238TIP3    H240206   1.684   1.514   9.710  0.4074 -0.2439  0.9851
 6239TIP3   OH240207   1.894   6.320   2.266 -0.0626  0.3215 -0.1497
 6239TIP3    H140208   1.837   6.394   2.245 -1.1590 -0.4278  0.0825
 6239TIP3    H240209   1.910   6.278   2.181  0.5978  0.8353 -0.2876
 6240TIP3   OH240210   0.386   4.202  14.011 -0.1932  0.3615  0.0291
 6240TIP3    H140211   0.395   4.128  13.951 -1.7748 -0.4431  0.7256
 6240TIP3    H240212   0.466   4.201  14.064  0.3656 -0.0516 -0.8011
 6241TIP3   OH240213   5.329   5.865  10.229  0.3950  0.5073  0.0130
 6241TIP3    H140214   5.377   5.806  10.287  0.3128  1.4427  1.0811
 6241TIP3    H240215   5.278   5.808  10.173  0.1364 -0.4460  1.1727
 6242TIP3   OH240216   0.862   4.138  13.180  0.6384 -0.3367 -0.1320
 6242TIP3    H140217   0.935   4.092  13.137 -0.5042 -3.2985  0.8519
 6242TIP3    H240218   0.899   4.171  13.262  1.4771  0.5413 -0.8393
 6243TIP3   OH240219   2.281   5.782   0.053 -0.5652  0.2097 -0.1285
 6243TIP3    H140220   2.347   5.715   0.037 -2.0906 -0.9777 -1.8611
 6243TIP3    H240221   2.284   5.837  -0.025 -1.2927  0.4043 -0.0245
 6244TIP3   OH240222   1.459   5.612  12.926  0.2525  0.7189  0.1636
 6244TIP3    H140223   1.394   5.674  12.892  0.3241 -0.0734 -1.5065
 6244TIP3    H240224   1.542   5.659  12.921 -0.0132  1.3399  1.2547
 6245TIP3   OH240225   5.337   1.596  11.364 -0.4376 -0.2974  0.4355
 6245TIP3    H140226   5.338   1.672  11.306  0.3502 -0.6865 -0.0731
 6245TIP3    H240227   5.283   1.624  11.439 -1.1573  0.3376 -0.2962
 6246TIP3   OH240228   2.866   5.433  14.266  0.0987 -0.1463 -0.6322
 6246TIP3    H140229   2.945   5.411  14.314 -0.8142 -1.5037  0.3479
 6246TIP3    H240230   2.849   5.525  14.289 -0.0684 -0.6165  1.3690
 6247TIP3   OH240231   2.404   1.832  10.042  0.0632  0.2233  0.1495
 6247TIP3    H140232   2.497   1.813  10.028  0.2862 -1.5247  3.1105
 6247TIP3    H240233   2.358   1.772   9.983  0.8125  0.0432 -0.2623
 6248TIP3   OH240234   6.017   4.635  11.743 -0.0886  0.2403 -0.1360
 6248TIP3    H140235   5.939   4.653  11.689  0.1960  0.6172 -0.4246
 6248TIP3    H240236   6.083   4.607  11.680 -0.7023 -2.6049  0.3398
 6249TIP3   OH240237   4.821   1.995  13.406  0.6056 -0.0168  0.3953
 6249TIP3    H140238   4.818   1.997  13.310  1.4613  0.5399  0.3763
 6249TIP3    H240239   4.821   2.087  13.432  1.8169 -0.1410  0.8797
 6250TIP3   OH240240   1.540   4.063  12.653  0.2999 -0.1184  0.0684
 6250TIP3    H140241   1.543   4.016  12.570 -1.8877  0.7410 -0.5528
 6250TIP3    H240242   1.575   4.001  12.718 -0.6879 -1.8649 -1.0179
 6251TIP3   OH240243   0.740   6.910   5.031  0.0118  0.4341  0.3433
 6251TIP3    H140244   0.748   6.835   4.971 -1.5483 -0.2163  0.8660
 6251TIP3    H240245   0.656   6.949   5.008  0.6787  1.8687  0.2821
 6252TIP3   OH240246   0.901   6.920  13.625  0.1420  0.0073 -0.1305
 6252TIP3    H140247   0.977   6.923  13.567 -0.9661  0.4952 -1.6197
 6252TIP3    H240248   0.938   6.924  13.713  1.8274  0.6177 -0.8236
 6253TIP3   OH240249   5.783   7.075  11.154  0.0412  0.1431 -0.0470
 6253TIP3    H140250   5.857   7.125  11.120  0.1313  0.7621  1.0179
 6253TIP3    H240251   5.799   6.985  11.124 -0.3426  0.7700 -2.3364
 6254TIP3   OH240252   3.367   3.883  11.234  0.1290  0.0620 -0.1868
 6254TIP3    H140253   3.346   3.790  11.247  0.9816 -0.0832  0.2225
 6254TIP3    H240254   3.384   3.890  11.140  0.7684 -0.3554 -0.1115
 6255TIP3   OH240255   2.615   2.493   5.511  0.6713  0.0123 -0.0549
 6255TIP3    H140256   2.523   2.500   5.538  0.2460 -1.5114 -0.9278
 6255TIP3    H240257   2.655   2.575   5.538 -1.1484  1.0618 -0.3685
 6256TIP3   OH240258   3.845   7.183   3.099  0.6337 -0.1364 -0.5537
 6256TIP3    H140259   3.787   7.140   3.036  1.7653 -1.7321 -0.5653
 6256TIP3    H240260   3.904   7.114   3.129  0.2179  0.5577  2.2063
 6257TIP3   OH240261   3.187   4.499   0.185  0.9097  0.1270  0.4603
 6257TIP3    H140262   3.264   4.474   0.236  1.0325 -0.6053 -0.0687
 6257TIP3    H240263   3.135   4.552   0.245  0.2175 -2.1266  1.9471
 6258TIP3   OH240264   1.421   0.914  12.771  0.7386 -0.2485 -0.5054
 6258TIP3    H140265   1.395   0.931  12.680  0.1222  2.5836  0.0799
 6258TIP3    H240266   1.445   1.001  12.805 -0.1827 -1.0144  2.3684
 6259TIP3   OH240267   1.683   4.224   9.928  0.1290  0.0446  0.1395
 6259TIP3    H140268   1.714   4.144   9.886  1.3821 -0.2603  1.5403
 6259TIP3    H240269   1.589   4.228   9.908 -0.2231 -2.4274  1.0394
 6260TIP3   OH240270   3.887   1.795  12.637 -0.4771  0.0360 -0.1712
 6260TIP3    H140271   3.855   1.880  12.607 -0.8299  0.0050  0.1074
 6260TIP3    H240272   3.823   1.732  12.604 -0.8998  0.0076  0.6590
 6261TIP3   OH240273   5.364   2.148  13.748  0.0637 -0.3496 -0.2911
 6261TIP3    H140274   5.355   2.239  13.775 -4.1458  0.5431 -3.6291
 6261TIP3    H240275   5.411   2.152  13.665  2.8339 -1.7546  1.0827
 6262TIP3   OH240276   0.604   4.694  15.260  0.7216 -0.6056  0.5090
 6262TIP3    H140277   0.673   4.682  15.194  0.1586 -0.0630 -0.1967
 6262TIP3    H240278   0.638   4.761  15.319  0.6021  0.0554 -0.1475
 6263TIP3   OH240279   7.226   1.770  11.654 -0.7832 -0.4329 -0.4000
 6263TIP3    H140280   7.303   1.795  11.604 -1.3405  1.3850 -0.4412
 6263TIP3    H240281   7.260   1.745  11.740 -0.0597 -0.7737 -0.7826
 6264TIP3   OH240282   3.703   1.602  11.055 -0.4459 -0.3540 -0.2397
 6264TIP3    H140283   3.640   1.624  11.123 -0.0558  0.8687 -0.2361
 6264TIP3    H240284   3.663   1.634  10.974 -0.2094 -0.3300 -0.3497
 6265TIP3   OH240285   3.505   6.127  12.020 -0.0121  0.2126  0.1659
 6265TIP3    H140286   3.474   6.121  12.111 -1.8345  1.6582 -0.2856
 6265TIP3    H240287   3.577   6.065  12.015 -0.9407 -1.1372  2.1588
 6266TIP3   OH240288   0.326   3.833   0.017  0.2078  0.1284 -0.1549
 6266TIP3    H140289   0.249   3.794  -0.025 -0.9462 -0.4747  2.3117
 6266TIP3    H240290   0.401   3.798  -0.032 -1.0076 -1.0303 -1.2707
 6267TIP3   OH240291   6.978   4.951   3.476  0.4875 -0.7932  0.1506
 6267TIP3    H140292   7.049   4.926   3.536  0.8086 -0.1234  0.0626
 6267TIP3    H240293   6.903   4.900   3.504  1.1289 -1.8763 -0.0457
 6268TIP3   OH240294   6.130   2.574   3.661 -0.3066  0.3385 -0.0214
 6268TIP3    H140295   6.160   2.529   3.740  2.1271  0.5992 -0.7121
 6268TIP3    H240296   6.036   2.557   3.657 -0.0845 -1.6011  1.6874
 6269TIP3   OH240297   6.863   1.660  14.972 -0.0649 -0.6273  0.3784
 6269TIP3    H140298   6.777   1.691  14.944  0.3356  0.2921  0.1098
 6269TIP3    H240299   6.913   1.740  14.986  1.0688 -1.1720 -0.4796
 6270TIP3   OH240300   2.068   5.354  11.546  0.0580  0.5458  0.2144
 6270TIP3    H140301   2.058   5.383  11.455 -1.5965  1.8101  0.7581
 6270TIP3    H240302   2.086   5.435  11.595 -0.3359  0.0537  1.1961
 6271TIP3   OH240303   2.475   2.995   1.501  0.9674 -0.4509  0.1265
 6271TIP3    H140304   2.439   3.025   1.418  1.9409 -1.0125 -0.5160
 6271TIP3    H240305   2.504   3.075   1.545  0.2223 -0.1278  0.0602
 6272TIP3   OH240306   3.435   2.073  11.405  0.5147 -0.7341 -0.0015
 6272TIP3    H140307   3.469   2.140  11.465  1.1575 -1.1770  0.1301
 6272TIP3    H240308   3.379   2.018  11.459  0.8585 -0.9581  0.1220
 6273TIP3   OH240309   4.609   1.666  13.804  0.6124  0.6669  0.1867
 6273TIP3    H140310   4.581   1.583  13.764  0.5818  0.7492  0.0369
 6273TIP3    H240311   4.704   1.658  13.810  0.4441 -0.7150  3.0931
 6274TIP3   OH240312   6.575   4.518  13.279 -0.3569 -0.2077  0.2352
 6274TIP3    H140313   6.601   4.610  13.285  0.9519 -0.6294  1.5543
 6274TIP3    H240314   6.650   4.469  13.311 -0.7417 -1.8079 -1.1582
 6275TIP3   OH240315   5.243   3.215  14.868  0.1332 -0.3172 -0.1681
 6275TIP3    H140316   5.238   3.120  14.858 -0.7178 -0.1712 -1.4040
 6275TIP3    H240317   5.153   3.242  14.885  0.5325  0.1853  1.2918
 6276TIP3   OH240318   5.502   1.171   0.482  0.3408 -0.2833 -0.1013
 6276TIP3    H140319   5.567   1.121   0.530  1.0332  0.0865 -0.6295
 6276TIP3    H240320   5.501   1.257   0.524  1.5614  0.3184 -1.2377
 6277TIP3   OH240321   2.712   2.702  15.229 -0.0106  0.3249  0.4052
 6277TIP3    H140322   2.695   2.658  15.313 -1.9666 -0.5641 -0.3836
 6277TIP3    H240323   2.645   2.771  15.226  0.2815  0.5771 -0.2611
 6278TIP3   OH240324   1.440   3.316   0.971 -0.1551  0.1335 -0.8849
 6278TIP3    H140325   1.509   3.255   0.943  0.8710  1.0499 -0.4108
 6278TIP3    H240326   1.421   3.367   0.892  1.4188  1.4636 -0.4593
 6279TIP3   OH240327   5.951   5.997   9.995  0.3209 -0.1947 -0.3675
 6279TIP3    H140328   5.973   5.977   9.904 -2.1704  0.3157 -1.1555
 6279TIP3    H240329   6.000   6.076  10.014  2.7546 -1.5903 -0.3970
 6280TIP3   OH240330   5.416   6.398   3.131 -0.2399  0.2179  0.4062
 6280TIP3    H140331   5.384   6.476   3.175 -0.9806 -0.4954  1.1761
 6280TIP3    H240332   5.500   6.424   3.093 -1.5094  2.0284 -1.3421
 6281TIP3   OH240333   5.333   2.075  11.151  0.1914  0.2299 -0.3041
 6281TIP3    H140334   5.347   2.141  11.219  3.1944 -0.4544 -0.1030
 6281TIP3    H240335   5.287   2.121  11.081 -2.9502  0.9846  2.0345
 6282TIP3   OH240336   2.282   6.493  13.480  0.2026 -0.2936  0.2674
 6282TIP3    H140337   2.320   6.575  13.449  1.1939 -0.8893 -0.1471
 6282TIP3    H240338   2.239   6.515  13.562  0.6831  0.5840  0.2904
 6283TIP3   OH240339   0.289   2.743  12.627  0.0743 -0.0496 -0.0626
 6283TIP3    H140340   0.235   2.682  12.677  0.6600 -0.1085  0.5225
 6283TIP3    H240341   0.289   2.823  12.679  0.4459 -0.0120 -0.1135
 6284TIP3   OH240342   0.456   6.949  13.884  0.7311  0.0876  0.1759
 6284TIP3    H140343   0.375   6.908  13.915  1.5636 -0.7460  1.3751
 6284TIP3    H240344   0.430   7.002  13.809 -1.3981  2.0552  2.1497
 6285TIP3   OH240345   6.137   2.508  10.010  0.1908 -0.0528  0.5287
 6285TIP3    H140346   6.202   2.497   9.941  0.7607 -1.2799  1.2312
 6285TIP3    H240347   6.182   2.561  10.076  0.3311 -0.5218  0.8140
 6286TIP3   OH240348   3.930   3.821  13.625 -0.2649 -0.1633 -0.3056
 6286TIP3    H140349   3.912   3.728  13.638  0.2796 -0.3112 -0.5768
 6286TIP3    H240350   3.980   3.847  13.702  1.4858 -0.6323 -1.2340
 6287TIP3   OH240351   4.764   6.820  11.450  0.2665 -0.1876  0.3663
 6287TIP3    H140352   4.813   6.901  11.466 -0.8361  0.3370  1.3320
 6287TIP3    H240353   4.674   6.850  11.436  0.0247 -1.1901 -0.2575
 6288TIP3   OH240354   4.704   4.278   1.264  0.0575 -0.0179 -1.0318
 6288TIP3    H140355   4.659   4.360   1.243  0.3483  1.8086  4.0281
 6288TIP3    H240356   4.634   4.214   1.278 -0.7101  1.1440  0.8154
 6289TIP3   OH240357   4.746   6.884  11.106 -0.8851 -0.2879 -0.3817
 6289TIP3    H140358   4.837   6.859  11.091 -0.7772  1.3441 -3.2703
 6289TIP3    H240359   4.697   6.803  11.098  0.1455 -0.8720 -0.9937
 6290TIP3   OH240360   2.956   4.408  13.437  0.3666  0.9686  0.1254
 6290TIP3    H140361   2.961   4.456  13.354 -1.0010  1.8854  0.5236
 6290TIP3    H240362   2.981   4.473  13.503  3.2903 -0.2593  0.3452
 6291TIP3   OH240363   6.823   2.584  11.053  0.6810 -0.5365  0.3463
 6291TIP3    H140364   6.777   2.644  11.111 -0.6371 -0.9561 -0.2160
 6291TIP3    H240365   6.835   2.505  11.105  0.3979 -0.5659  0.3680
 6292TIP3   OH240366   4.764   1.628  12.567 -0.0046 -0.0367 -0.8377
 6292TIP3    H140367   4.742   1.611  12.659 -0.6617  1.7647 -0.6243
 6292TIP3    H240368   4.830   1.562  12.546 -1.4197 -1.9113  0.2469
 6293TIP3   OH240369   2.778   3.908   2.142  0.0070  0.2508 -0.2075
 6293TIP3    H140370   2.840   3.976   2.118  0.2860  0.1918  0.3521
 6293TIP3    H240371   2.830   3.828   2.147 -0.1462  0.1666  0.0682
 6294TIP3   OH240372   5.687   4.032  14.233  0.4802 -0.1171  0.6070
 6294TIP3    H140373   5.607   4.021  14.182  0.9111  1.7130 -0.5590
 6294TIP3    H240374   5.676   4.116  14.278  1.2253 -0.4434  1.4223
 6295TIP3   OH240375   0.869   7.246   0.981 -0.9491 -0.3480  0.2334
 6295TIP3    H140376   0.919   7.166   0.999  1.0166  0.4384 -1.3126
 6295TIP3    H240377   0.935   7.309   0.951 -2.5361  1.6547  0.7612
 6296TIP3   OH240378   1.134   1.320  10.582  0.1073  0.5067  0.2884
 6296TIP3    H140379   1.092   1.237  10.559  1.8028  0.2591 -2.3645
 6296TIP3    H240380   1.169   1.306  10.670 -1.5517 -0.7760  0.7786
 6297TIP3   OH240381   4.561   4.343  10.044 -0.1944 -0.2591 -0.1531
 6297TIP3    H140382   4.610   4.386   9.973 -1.8278  0.3553 -0.9498
 6297TIP3    H240383   4.585   4.392  10.123  0.6510 -0.1332 -0.4699
 6298TIP3   OH240384   0.454   4.842   4.757  0.0136 -0.1051 -0.7623
 6298TIP3    H140385   0.394   4.870   4.826 -0.0875 -1.3808 -0.3080
 6298TIP3    H240386   0.400   4.791   4.697  0.6178 -1.2763 -0.3449
 6299TIP3   OH240387   2.959   1.422   5.097  0.5413 -0.3644  0.4262
 6299TIP3    H140388   3.029   1.386   5.043  1.7652  1.4937  0.6934
 6299TIP3    H240389   2.966   1.375   5.180  2.6857  0.9839  1.0839
 6300TIP3   OH240390   3.112   6.867  14.242  0.5847  0.0577 -0.4909
 6300TIP3    H140391   3.174   6.817  14.188  1.7436  1.8992 -0.9351
 6300TIP3    H240392   3.117   6.956  14.209 -2.9589  0.1966 -1.1173
 6301TIP3   OH240393   7.168   5.189  10.247 -0.3139 -0.7456  0.2505
 6301TIP3    H140394   7.230   5.117  10.236  0.9378  0.3635 -0.2632
 6301TIP3    H240395   7.092   5.164  10.193 -0.2415 -2.0083  0.6904
 6302TIP3   OH240396   0.363   3.442  13.907 -0.1752 -0.2361  0.1906
 6302TIP3    H140397   0.398   3.526  13.878 -0.4098 -1.1282 -3.0749
 6302TIP3    H240398   0.270   3.460  13.924 -0.3578  0.1160 -1.0397
 6303TIP3   OH240399   5.333   6.749   0.364  0.2038 -0.2815 -0.5787
 6303TIP3    H140400   5.363   6.830   0.322 -0.9539 -0.2515 -1.3837
 6303TIP3    H240401   5.414   6.704   0.388  0.8989  0.3042 -1.7212
 6304TIP3   OH240402   2.283   5.585   2.880 -0.2170 -0.0607  0.1522
 6304TIP3    H140403   2.313   5.668   2.917  0.8246 -0.3601  0.0101
 6304TIP3    H240404   2.354   5.524   2.898 -1.4484 -1.2235  1.2479
 6305TIP3   OH240405   4.611   5.366   2.254 -0.2946  0.2341  0.3972
 6305TIP3    H140406   4.669   5.409   2.317  0.9944  2.2668 -2.0141
 6305TIP3    H240407   4.580   5.436   2.197 -2.4271 -1.3328 -0.5156
 6306TIP3   OH240408   3.217   4.857   4.384 -0.6131 -0.2750  0.3365
 6306TIP3    H140409   3.266   4.920   4.330  1.0556 -1.2334  0.6431
 6306TIP3    H240410   3.261   4.773   4.368 -0.8482 -0.8072  2.2207
 6307TIP3   OH240411   2.112   4.680   2.294 -0.1447  0.2135 -0.4268
 6307TIP3    H140412   2.119   4.758   2.239 -0.7274  1.3722  1.0555
 6307TIP3    H240413   2.018   4.666   2.305 -0.2638  2.6177  3.6001
 6308TIP3   OH240414   2.605   0.622  13.389  0.0877  0.0255 -0.0431
 6308TIP3    H140415   2.643   0.563  13.324  1.5624 -0.8625  1.5478
 6308TIP3    H240416   2.513   0.631  13.362  0.4287 -1.0284 -1.7074
 6309TIP3   OH240417   6.510   0.180  11.533 -0.7915  0.4864  0.0711
 6309TIP3    H140418   6.417   0.195  11.515 -1.0882  0.8469  1.6850
 6309TIP3    H240419   6.510   0.138  11.619  0.5426  0.2438 -0.0301
 6310TIP3   OH240420   6.208   3.040  13.690 -0.3930  0.3211  0.4617
 6310TIP3    H140421   6.155   3.008  13.617  0.6742  0.3867 -0.3584
 6310TIP3    H240422   6.163   3.007  13.768 -0.4273 -1.5118 -0.2797
 6311TIP3   OH240423   0.351   0.217   5.598  0.2759 -0.0766 -0.1024
 6311TIP3    H140424   0.329   0.166   5.675  0.7447 -1.2285 -0.7006
 6311TIP3    H240425   0.303   0.174   5.526 -2.1230  2.4036 -0.1540
 6312TIP3   OH240426   0.998   3.763  14.572 -0.5331  0.1125  0.2277
 6312TIP3    H140427   1.077   3.723  14.608  0.7201  2.9483  0.9112
 6312TIP3    H240428   1.003   3.746  14.478  0.6176 -0.2422  0.3363
 6313TIP3   OH240429   6.947   5.012  12.855 -0.2151 -0.5721  0.2144
 6313TIP3    H140430   7.041   5.018  12.870  0.2149 -2.9759 -1.0891
 6313TIP3    H240431   6.913   4.968  12.933  0.7983 -5.4307 -1.7355
 6314TIP3   OH240432   7.201   3.843  15.165  0.4245 -0.0297  0.4119
 6314TIP3    H140433   7.171   3.781  15.098  0.3565  2.1694 -1.7518
 6314TIP3    H240434   7.260   3.792  15.220  2.0735 -1.5692 -2.5166
 6315TIP3   OH240435   5.199   0.105   0.027  0.0307 -0.3487  0.1009
 6315TIP3    H140436   5.119   0.073   0.069 -0.1564 -1.3428 -0.9846
 6315TIP3    H240437   5.168   0.157  -0.047  0.3407  1.9873  1.4830
 6316TIP3   OH240438   6.571   4.838  10.641 -0.2794  0.1205 -0.2354
 6316TIP3    H140439   6.593   4.906  10.578 -0.7428 -1.9218 -2.7385
 6316TIP3    H240440   6.654   4.793  10.658 -0.6644 -1.4108 -2.0738
 6317TIP3   OH240441   3.140   0.568  11.963 -0.4645 -0.4498 -0.2983
 6317TIP3    H140442   3.055   0.607  11.982 -0.4205 -0.2382 -0.5327
 6317TIP3    H240443   3.194   0.590  12.039  0.8744  3.7223 -2.1382
 6318TIP3   OH240444   0.644   6.917  10.378  0.1126 -0.8540 -0.4885
 6318TIP3    H140445   0.597   6.945  10.457 -0.4443  1.9346 -1.6704
 6318TIP3    H240446   0.634   6.822  10.377 -1.5217 -0.8033  1.7621
 6319TIP3   OH240447   2.493   3.820   0.623 -0.3734 -0.5680  0.7111
 6319TIP3    H140448   2.584   3.795   0.638  0.7411  2.2964 -0.6080
 6319TIP3    H240449   2.471   3.878   0.695 -0.3563  0.5796 -0.1891
 6320TIP3   OH240450   6.229   0.328  11.124  0.0187  0.4439 -0.5872
 6320TIP3    H140451   6.167   0.299  11.057  1.5936  0.3148 -2.0528
 6320TIP3    H240452   6.315   0.312  11.085  0.9760  1.0573  1.1956
 6321TIP3   OH240453   4.604   5.533  12.215  0.5427 -0.3140  0.3278
 6321TIP3    H140454   4.600   5.531  12.311  2.1082  3.3096  0.6137
 6321TIP3    H240455   4.697   5.539  12.195  0.2029 -0.2815 -1.3864
 6322TIP3   OH240456   2.471   3.133   2.067  0.3523 -0.4077 -0.3223
 6322TIP3    H140457   2.477   3.205   2.005  1.0863 -0.2604 -0.0894
 6322TIP3    H240458   2.397   3.156   2.124  2.1171  1.4789  1.3766
 6323TIP3   OH240459   5.052   5.804  12.674 -0.0390 -0.7135 -0.0262
 6323TIP3    H140460   4.962   5.776  12.688 -0.6403  0.5349 -1.1011
 6323TIP3    H240461   5.047   5.858  12.595  1.6385 -0.5420 -0.0382
 6324TIP3   OH240462   6.561   5.550   2.496  0.3342  0.0288  0.0470
 6324TIP3    H140463   6.595   5.602   2.569  0.6070  0.4945 -0.4072
 6324TIP3    H240464   6.623   5.565   2.425 -0.2217  0.0123 -0.4507
 6325TIP3   OH240465   6.154   1.908   0.646 -0.1345  0.7327  0.2742
 6325TIP3    H140466   6.072   1.888   0.690  0.2092  0.8122  0.9509
 6325TIP3    H240467   6.154   2.003   0.637  0.0117  0.7570  0.5265
 6326TIP3   OH240468   1.766   0.827  11.018  0.2081  0.6184  0.0232
 6326TIP3    H140469   1.720   0.744  11.002 -0.2125  0.4678  1.8290
 6326TIP3    H240470   1.707   0.893  10.982  0.0344  0.2252 -0.4384
 6327TIP3   OH240471   3.115   1.431   9.901  0.1560  0.3005  0.2672
 6327TIP3    H140472   3.149   1.387   9.824  0.7864 -0.1101  0.7677
 6327TIP3    H240473   3.021   1.410   9.902  0.0875  0.5332 -0.5172
 6328TIP3   OH240474   0.654   0.998   1.537 -0.0193  0.5446  0.2231
 6328TIP3    H140475   0.704   0.930   1.492 -1.4498  0.2836 -1.0586
 6328TIP3    H240476   0.578   0.952   1.572  0.9616  0.7739  2.8534
 6329TIP3   OH240477   4.659   2.112   0.878  0.3216  0.4827 -0.1528
 6329TIP3    H140478   4.740   2.163   0.868  0.6226 -0.0441 -0.4238
 6329TIP3    H240479   4.670   2.065   0.961  1.2410 -1.2417 -1.1853
 6330TIP3   OH240480   6.784   4.028  12.980  0.7638  0.1757 -0.1577
 6330TIP3    H140481   6.860   3.973  13.002  1.1655  0.0121 -1.7916
 6330TIP3    H240482   6.796   4.107  13.031  0.0377 -1.2952  2.4625
 6331TIP3   OH240483   1.336   3.158  12.793  0.6512  0.3556 -0.2601
 6331TIP3    H140484   1.241   3.167  12.790  0.6712  0.9139  0.4713
 6331TIP3    H240485   1.368   3.223  12.731  0.6041  1.6921  1.0376
 6332TIP3   OH240486   5.102   3.872  13.388  0.0832  0.9609 -0.3554
 6332TIP3    H140487   5.131   3.930  13.458  2.4446  1.3874 -1.5723
 6332TIP3    H240488   5.110   3.924  13.309 -0.0376 -0.2877 -1.2240
 6333TIP3   OH240489   0.544   4.192   1.574 -0.0482  0.0792 -0.5595
 6333TIP3    H140490   0.588   4.241   1.504  0.1480 -1.6623 -1.6987
 6333TIP3    H240491   0.548   4.251   1.650  2.0717  0.9589 -1.2861
 6334TIP3   OH240492   3.911   5.256  11.118  0.2886  0.6825  0.4342
 6334TIP3    H140493   3.962   5.232  11.041  4.4818 -0.7615  3.2951
 6334TIP3    H240494   3.851   5.182  11.131  2.3022 -0.9910  0.6213
 6335TIP3   OH240495   1.850   2.436   2.207 -0.0953 -0.4744  0.6094
 6335TIP3    H140496   1.808   2.352   2.188 -0.5390 -0.2050  0.3757
 6335TIP3    H240497   1.787   2.502   2.177  0.7680 -0.0635 -0.3588
 6336TIP3   OH240498   6.899   2.549  10.793 -0.1226  0.3554 -0.2985
 6336TIP3    H140499   6.832   2.597  10.744  0.9532  0.9946 -1.1852
 6336TIP3    H240500   6.893   2.584  10.882 -1.1229  0.2214 -0.2961
 6337TIP3   OH240501   5.728   2.052  15.159  0.0370 -0.5909  0.5267
 6337TIP3    H140502   5.777   1.977  15.125  0.5938 -0.6414  1.3958
 6337TIP3    H240503   5.780   2.082  15.234  0.9979  1.9779 -1.0360
 6338TIP3   OH240504   4.983   6.484  10.307  0.0623 -0.1449  0.2315
 6338TIP3    H140505   4.978   6.575  10.337  0.1030  1.1640 -3.2252
 6338TIP3    H240506   4.894   6.462  10.282  0.2836 -0.5237 -0.2488
 6339TIP3   OH240507   2.263   3.573  14.422 -0.3902 -0.0710 -0.1352
 6339TIP3    H140508   2.178   3.528  14.419 -0.6759  0.5053 -0.9839
 6339TIP3    H240509   2.327   3.502  14.414 -0.7421 -0.6080  1.3896
 6340TIP3   OH240510   4.681   0.066  10.861  0.1725 -0.0672  0.1230
 6340TIP3    H140511   4.649  -0.022  10.840  0.4250 -0.3653  0.9597
 6340TIP3    H240512   4.774   0.054  10.879 -0.0591  0.1359  1.5630
 6341TIP3   OH240513   5.039   3.304   3.566  0.2636  0.4713  0.0111
 6341TIP3    H140514   5.070   3.354   3.490 -1.9839  0.3292 -1.0642
 6341TIP3    H240515   5.119   3.284   3.615  1.5659  2.4373 -1.1499
 6342TIP3   OH240516   4.927   7.192  12.564  0.5326 -0.3479 -0.0154
 6342TIP3    H140517   4.931   7.121  12.500  1.1313 -0.5795  0.2762
 6342TIP3    H240518   5.017   7.203  12.594  0.2872 -0.1370  0.6739
 6343TIP3   OH240519   6.083   2.544  13.390 -0.2006  0.0896 -0.3843
 6343TIP3    H140520   5.991   2.569  13.380  0.2429  1.0133 -2.8484
 6343TIP3    H240521   6.124   2.620  13.430 -0.0386  0.8394 -1.9030
 6344TIP3   OH240522   5.650   5.513   0.562 -0.0327 -0.3507 -0.1596
 6344TIP3    H140523   5.646   5.431   0.611  0.5250 -1.6767 -2.2316
 6344TIP3    H240524   5.621   5.490   0.474 -1.8921  2.1367 -0.2941
 6345TIP3   OH240525   0.767   1.557   3.850  0.2798  0.8130  0.3846
 6345TIP3    H140526   0.803   1.614   3.918  0.4257  0.8355  0.2884
 6345TIP3    H240527   0.692   1.514   3.892  1.3340 -0.4065  1.0765
 6346TIP3   OH240528   4.978   2.118  12.912  0.0637 -0.1227 -0.1418
 6346TIP3    H140529   4.976   2.199  12.861 -0.4901 -0.2100 -0.2633
 6346TIP3    H240530   5.027   2.057  12.857  1.0282  0.2988  0.2164
 6347TIP3   OH240531   2.922   5.946  13.165 -0.5604 -0.1377 -0.0004
 6347TIP3    H140532   2.995   6.005  13.184 -0.6707  0.3672 -1.0619
 6347TIP3    H240533   2.963   5.872  13.120 -0.6406 -0.1035 -0.1270
 6348TIP3   OH240534   4.103   4.428   0.863  0.2043 -0.2554  0.1439
 6348TIP3    H140535   4.022   4.411   0.815 -0.0925 -1.6881  1.1138
 6348TIP3    H240536   4.105   4.523   0.874 -1.8364 -0.2642  0.9436
 6349TIP3   OH240537   0.356   1.229  13.075  0.5468  0.2316 -0.2983
 6349TIP3    H140538   0.395   1.161  13.129  0.6510  0.1059 -0.5306
 6349TIP3    H240539   0.322   1.293  13.138  1.1645  0.3658 -0.0988
 6350TIP3   OH240540   3.584   6.084  11.100 -0.2179 -0.0540  0.4228
 6350TIP3    H140541   3.569   6.097  11.193 -0.0068 -2.2233  0.8246
 6350TIP3    H240542   3.678   6.099  11.089 -0.1730 -0.1689  0.6391
 6351TIP3   OH240543   4.095   4.419   1.220 -0.3977  0.0512 -0.2086
 6351TIP3    H140544   4.184   4.453   1.207 -0.6388  0.6290 -0.3480
 6351TIP3    H240545   4.092   4.396   1.313  0.0211 -0.3386 -0.2842
 6352TIP3   OH240546   0.648   7.161  11.043 -0.1814  0.1433 -0.6878
 6352TIP3    H140547   0.698   7.154  10.961  0.5920  0.0130 -0.2080
 6352TIP3    H240548   0.597   7.079  11.047  0.6034 -0.3405 -0.5017
 6353TIP3   OH240549   1.033   5.000  14.711 -0.1768  0.1043 -0.1190
 6353TIP3    H140550   0.949   5.015  14.754 -0.4054 -2.1385  0.3110
 6353TIP3    H240551   1.012   4.955  14.630  0.5560  0.5220 -0.5590
 6354TIP3   OH240552   3.878   2.938   1.090 -0.2194 -0.1114  0.1694
 6354TIP3    H140553   3.943   2.992   1.135  0.5544 -0.8548 -0.0229
 6354TIP3    H240554   3.851   2.873   1.155 -1.4032  0.6947  0.5092
 6355TIP3   OH240555   2.497   2.754  13.060 -0.4519  0.0808  0.3470
 6355TIP3    H140556   2.472   2.820  12.996  1.3250 -0.0175 -0.5317
 6355TIP3    H240557   2.584   2.782  13.090 -0.8557 -0.3804  2.0278
 6356TIP3   OH240558   4.736   5.108  13.228  0.3905 -0.0376  0.4190
 6356TIP3    H140559   4.670   5.140  13.290 -0.0709 -0.6514  0.2526
 6356TIP3    H240560   4.819   5.134  13.267  0.1056 -0.3451  1.2670
 6357TIP3   OH240561   4.213   5.386   0.231 -0.0128 -0.1359  0.0492
 6357TIP3    H140562   4.229   5.385   0.137  0.3389 -0.1708  0.1084
 6357TIP3    H240563   4.159   5.463   0.246  0.6736  0.3721 -0.0613
 6358TIP3   OH240564   5.416   6.172  13.457  0.5061  0.0796  0.0376
 6358TIP3    H140565   5.454   6.246  13.409 -1.4295  0.8627 -0.4019
 6358TIP3    H240566   5.484   6.105  13.458  1.2466  0.7347 -2.2381
 6359TIP3   OH240567   1.943   6.960  11.878  0.4269 -0.7459 -0.2463
 6359TIP3    H140568   1.879   7.030  11.890  0.4445 -0.8142  0.2574
 6359TIP3    H240569   1.890   6.881  11.863  0.4137 -0.4800 -1.6772
 6360TIP3   OH240570   0.543   1.156  12.358 -0.2096  0.7626 -0.8136
 6360TIP3    H140571   0.582   1.229  12.405 -0.0138  0.4329 -0.4532
 6360TIP3    H240572   0.604   1.083  12.372 -0.4671  0.4958 -1.0576
 6361TIP3   OH240573   0.252   5.707   9.764 -0.1537  0.1127 -0.2178
 6361TIP3    H140574   0.221   5.628   9.719  0.9518 -0.8420  0.6392
 6361TIP3    H240575   0.264   5.771   9.694  1.7399 -1.3963 -1.3626
 6362TIP3   OH240576   4.098   3.330  10.694 -0.3449  0.4523 -0.3012
 6362TIP3    H140577   4.147   3.274  10.633 -0.2384 -0.8886  0.9446
 6362TIP3    H240578   4.021   3.358  10.644  0.6929  0.9815 -1.6576
 6363TIP3   OH240579   6.724   5.697  12.336  0.2287 -0.1666 -0.5168
 6363TIP3    H140580   6.808   5.652  12.330  0.6144  0.6952 -2.0386
 6363TIP3    H240581   6.671   5.659  12.265 -0.6174 -0.5732  0.3099
 6364TIP3   OH240582   4.248   2.697  10.712 -0.1902 -0.5256 -0.4586
 6364TIP3    H140583   4.196   2.744  10.777  0.9274 -0.6625  0.5683
 6364TIP3    H240584   4.193   2.697  10.633 -0.7037  1.4706 -0.1545
 6365TIP3   OH240585   2.366   4.249  14.887  0.6420 -0.3312 -0.7831
 6365TIP3    H140586   2.272   4.260  14.874  0.5955 -1.1340 -1.1928
 6365TIP3    H240587   2.377   4.155  14.902  1.4669 -0.3796 -1.6141
 6366TIP3   OH240588   4.555   5.209  10.609 -0.0921 -0.6437 -0.4567
 6366TIP3    H140589   4.631   5.238  10.659  0.1085 -3.7410  1.2955
 6366TIP3    H240590   4.571   5.240  10.520  2.6761 -0.2651  0.0936
 6367TIP3   OH240591   6.280   2.050  12.291  0.8977  0.6687 -0.2478
 6367TIP3    H140592   6.228   2.111  12.239 -1.8159 -2.3747 -1.5359
 6367TIP3    H240593   6.258   2.070  12.382  0.0310  1.5546 -0.6434
 6368TIP3   OH240594   0.640   1.194  12.909 -0.3157  0.6669  0.1920
 6368TIP3    H140595   0.693   1.155  12.839 -1.2077  0.2103 -0.2468
 6368TIP3    H240596   0.615   1.119  12.964  0.0294  0.9668  0.7739
 6369TIP3   OH240597   7.118   2.466  13.630 -0.2763 -0.2039  0.3764
 6369TIP3    H140598   7.024   2.455  13.643 -0.3381  0.2592  0.3351
 6369TIP3    H240599   7.129   2.558  13.609  0.0353 -0.5406 -1.0372
 6370TIP3   OH240600   0.366   3.155  12.227  0.0002 -0.4673 -0.7216
 6370TIP3    H140601   0.297   3.103  12.266  2.3983 -1.6294  2.4560
 6370TIP3    H240602   0.409   3.097  12.164 -0.6149 -0.4322 -1.1807
 6371TIP3   OH240603   4.620   4.161  13.761  0.1147  0.3970 -0.2152
 6371TIP3    H140604   4.620   4.091  13.827  0.2170 -1.3424 -1.9779
 6371TIP3    H240605   4.630   4.242  13.812  0.6764 -0.8968  1.8539
 6372TIP3   OH240606   3.522   3.036  12.852  0.9241  0.2329  0.1776
 6372TIP3    H140607   3.497   2.987  12.774  0.3962  0.7698  0.0013
 6372TIP3    H240608   3.510   3.128  12.828 -1.8568  0.4020  1.6934
 6373TIP3   OH240609   6.761   5.942  12.878 -0.1072 -0.0283  0.2208
 6373TIP3    H140610   6.681   5.916  12.924  0.0823  0.0377  0.5863
 6373TIP3    H240611   6.793   5.862  12.837 -0.4188 -0.0326 -0.0177
 6374TIP3   OH240612   1.757   2.129  11.030  0.0747  0.2281  0.1514
 6374TIP3    H140613   1.759   2.134  11.126 -0.3904  1.8424  0.0923
 6374TIP3    H240614   1.777   2.037  11.011 -0.6447 -0.3158  1.8201
 6375TIP3   OH240615   4.670   6.770  12.195 -0.6043 -0.3893 -0.2923
 6375TIP3    H140616   4.610   6.716  12.144  0.9212 -2.7695  0.2599
 6375TIP3    H240617   4.632   6.772  12.283 -1.5970  1.0280 -0.7300
 6376TIP3   OH240618   2.305   6.695  14.152  0.4839  0.2356 -0.1452
 6376TIP3    H140619   2.292   6.679  14.058 -0.8252 -0.0129  0.0520
 6376TIP3    H240620   2.219   6.680  14.191  1.0491  0.1370  1.1323
 6377TIP3   OH240621   0.467   3.179  13.314 -0.1590  0.0529 -0.5383
 6377TIP3    H140622   0.496   3.269  13.296 -0.1341  1.0690  3.5539
 6377TIP3    H240623   0.548   3.128  13.317  0.1825  0.6094  0.1826
 6378TIP3   OH240624   1.213   1.771  13.713 -0.2031  0.4127  0.0742
 6378TIP3    H140625   1.308   1.764  13.706 -0.3401 -1.5912 -0.2504
 6378TIP3    H240626   1.179   1.709  13.649 -1.7307  0.2351  1.0077
 6379TIP3   OH240627   6.723   5.126  13.089 -0.2370 -0.4813 -0.2112
 6379TIP3    H140628   6.654   5.062  13.073  0.7763 -1.3418 -1.3240
 6379TIP3    H240629   6.778   5.086  13.157 -0.1013 -0.4091 -0.2765
 6380TIP3   OH240630   5.019   0.815   1.866 -0.9734  0.3888 -0.0815
 6380TIP3    H140631   5.040   0.732   1.823 -2.2795 -0.4344  0.7620
 6380TIP3    H240632   5.077   0.818   1.941 -0.7014  0.3871 -0.2920
 6381TIP3   OH240633   1.189   5.931   9.826  0.1418 -0.0446  0.3771
 6381TIP3    H140634   1.274   5.895   9.853 -0.3390 -0.2186  1.7734
 6381TIP3    H240635   1.160   5.873   9.756  1.9748  1.1110 -1.4354
 6382TIP3   OH240636   3.186   0.869   5.032 -0.0363 -0.3667  0.3195
 6382TIP3    H140637   3.243   0.809   4.984 -0.9765 -0.4915 -0.6873
 6382TIP3    H240638   3.243   0.941   5.058  0.5961 -0.4999 -0.6339
 6383TIP3   OH240639   4.357   0.023   9.569  0.0826  0.5963 -0.2978
 6383TIP3    H140640   4.417  -0.051   9.578 -0.9082 -0.1920 -0.0549
 6383TIP3    H240641   4.271  -0.013   9.590 -0.1937  2.2416  1.8057
 6384TIP3   OH240642   6.907   6.372  11.805 -0.7333  0.2927  0.1774
 6384TIP3    H140643   6.978   6.312  11.784 -0.2403  0.0254  2.3933
 6384TIP3    H240644   6.827   6.327  11.777 -0.1643 -0.1399 -0.7761
 6385TIP3   OH240645   4.557   3.698   3.179 -0.2830 -0.0091  0.7154
 6385TIP3    H140646   4.589   3.788   3.168 -1.0373 -0.0068 -2.8660
 6385TIP3    H240647   4.625   3.654   3.231  0.8873  2.2044  1.1986
 6386TIP3   OH240648   4.678   6.783   9.349 -0.3828  0.8412  0.2022
 6386TIP3    H140649   4.586   6.810   9.353 -0.4798  0.7941 -1.1520
 6386TIP3    H240650   4.678   6.695   9.386 -0.8595  0.9093  0.3774
 6387TIP3   OH240651   4.800   1.724  10.627 -0.5197  0.2856 -0.6677
 6387TIP3    H140652   4.786   1.697  10.537 -1.2237  3.0268 -1.4935
 6387TIP3    H240653   4.712   1.732  10.664 -0.3376  1.0316 -0.3785
 6388TIP3   OH240654   6.260   1.841  11.684 -0.3373 -0.2711 -0.2226
 6388TIP3    H140655   6.229   1.755  11.712 -1.5291  0.3544  0.4408
 6388TIP3    H240656   6.289   1.883  11.765 -0.6122  0.2886 -0.4160
 6389TIP3   OH240657   4.136   4.790   2.246 -0.5177  0.6868 -0.2727
 6389TIP3    H140658   4.049   4.763   2.214 -0.9657  2.4354 -0.6255
 6389TIP3    H240659   4.127   4.790   2.341 -0.8750  0.7394 -0.3021
 6390TIP3   OH240660   0.628   2.057  11.228 -0.1049 -0.4738 -0.1121
 6390TIP3    H140661   0.653   2.106  11.150  0.3309  0.0154  0.3276
 6390TIP3    H240662   0.683   1.979  11.228 -0.2048 -0.5433 -0.3660
 6391TIP3   OH240663   5.436   3.407  12.548 -0.2359 -0.2258  0.0140
 6391TIP3    H140664   5.466   3.361  12.626 -1.3149  0.2704  0.7502
 6391TIP3    H240665   5.413   3.337  12.486 -0.7244 -0.6664  0.6786
 6392TIP3   OH240666   6.904   6.442  14.213  0.1048 -0.1786  0.7975
 6392TIP3    H140667   6.856   6.524  14.220  1.0672  0.3162  2.0983
 6392TIP3    H240668   6.842   6.375  14.244 -0.7220  0.0015 -0.3892
 6393TIP3   OH240669   4.800   3.015   9.446  0.2886  0.0877 -0.3538
 6393TIP3    H140670   4.853   3.090   9.418 -0.4381  0.3901 -0.9569
 6393TIP3    H240671   4.741   2.999   9.372  0.1622 -0.8243 -0.0614
 6394TIP3   OH240672   0.390   0.960  10.884  0.6569  0.2391  0.4380
 6394TIP3    H140673   0.298   0.980  10.867  0.3030 -0.9473  0.8837
 6394TIP3    H240674   0.421   0.917  10.804  1.1112  1.4731 -0.0831
 6395TIP3   OH240675   4.523   2.140   1.644 -0.1781 -0.0049  0.4260
 6395TIP3    H140676   4.499   2.151   1.736  0.7261 -0.8691  0.7836
 6395TIP3    H240677   4.617   2.154   1.642 -0.1249 -0.4243 -0.2976
 6396TIP3   OH240678   3.424   2.636   1.872  0.1352  0.8837 -0.2460
 6396TIP3    H140679   3.376   2.697   1.928 -0.7840  0.0395 -0.0900
 6396TIP3    H240680   3.360   2.569   1.849  1.1811 -0.1633 -0.2098
 6397TIP3   OH240681   4.729   6.457   0.040  0.1352 -0.5793  0.2060
 6397TIP3    H140682   4.775   6.405   0.106  0.0206  0.8081  1.4325
 6397TIP3    H240683   4.677   6.519   0.091  0.7439  1.1454 -1.1655
 6398TIP3   OH240684   4.273   5.959  12.955 -0.1250 -0.2768 -0.0055
 6398TIP3    H140685   4.308   6.030  13.010 -1.0624  1.3558 -1.4525
 6398TIP3    H240686   4.351   5.916  12.921  0.4961  1.1860 -0.5061
 6399TIP3   OH240687   2.560   5.608   3.979 -0.0387 -0.2371  0.2598
 6399TIP3    H140688   2.546   5.678   3.915 -2.6943 -0.2709  0.7005
 6399TIP3    H240689   2.578   5.653   4.061  1.2443 -0.1731 -0.0261
 6400TIP3   OH240690   5.612   0.336   9.392  0.2597  0.0528 -0.3605
 6400TIP3    H140691   5.701   0.359   9.419  0.0196 -0.4265  0.9026
 6400TIP3    H240692   5.585   0.267   9.453 -0.9792  0.1832 -0.7261
 6401TIP3   OH240693   2.034   0.188   0.017  0.0931 -0.2133 -0.2687
 6401TIP3    H140694   2.064   0.265   0.065  2.9871 -1.5514  0.2947
 6401TIP3    H240695   2.062   0.114   0.070 -0.6591 -1.6844 -1.8265
 6402TIP3   OH240696   1.866   5.200  15.012 -0.3969 -0.6123 -0.7495
 6402TIP3    H140697   1.909   5.135  15.067 -1.5716 -1.5423 -0.8944
 6402TIP3    H240698   1.891   5.284  15.050 -0.4754 -1.2032  0.6611
 6403TIP3   OH240699   5.104   1.057  14.999  0.5368 -0.3585  0.5589
 6403TIP3    H140700   5.086   1.005  14.920  2.7653  0.2443 -0.4419
 6403TIP3    H240701   5.021   1.059  15.046 -0.4178 -2.2199 -0.8947
 6404TIP3   OH240702   6.243   2.070   9.421 -0.1286  0.3241  0.5919
 6404TIP3    H140703   6.247   2.142   9.357 -0.4930 -0.6105 -0.5236
 6404TIP3    H240704   6.308   2.094   9.487 -0.6819  1.9894  0.5924
 6405TIP3   OH240705   3.360   2.467   0.259 -0.5745  0.0558  0.2736
 6405TIP3    H140706   3.301   2.409   0.211 -0.7662 -1.5688  2.3327
 6405TIP3    H240707   3.435   2.477   0.201 -0.3404 -2.6365 -0.0467
 6406TIP3   OH240708   6.015   6.377   9.824  0.0835 -0.0126 -0.7913
 6406TIP3    H140709   6.042   6.459   9.782  3.1474 -0.4602  0.0948
 6406TIP3    H240710   6.047   6.308   9.765  0.6857 -0.5824  0.1778
 6407TIP3   OH240711   3.813   1.280  10.162 -0.6807 -0.1706 -0.1904
 6407TIP3    H140712   3.727   1.267  10.124 -1.1358 -0.9900  1.0358
 6407TIP3    H240713   3.872   1.232  10.104 -1.5310 -2.5249  0.7513
 6408TIP3   OH240714   5.093   6.890   9.374 -0.5599  0.2189  0.9493
 6408TIP3    H140715   5.107   6.800   9.404 -3.5060 -0.2856  1.0384
 6408TIP3    H240716   5.170   6.937   9.405  1.1724 -2.2615  0.7416
 6409TIP3   OH240717   4.388   3.904   0.886 -0.1525  0.1712 -0.3837
 6409TIP3    H140718   4.453   3.954   0.934 -0.3215  0.6628 -0.6567
 6409TIP3    H240719   4.317   3.967   0.869  0.2805  0.2537 -2.0286
 6410TIP3   OH240720   5.017   6.386  15.112 -0.3525  0.1739  0.3853
 6410TIP3    H140721   4.929   6.366  15.080 -0.2782  1.2163 -0.5306
 6410TIP3    H240722   5.005   6.461  15.170 -0.3242 -0.9788  1.9360
 6411TIP3   OH240723   5.086   2.404   1.813 -0.7627  0.1296 -0.2833
 6411TIP3    H140724   5.098   2.316   1.848 -0.9468  0.0967 -0.3041
 6411TIP3    H240725   5.173   2.444   1.819 -0.8377  0.1944  0.3958
 6412TIP3   OH240726   5.140   0.564  10.964  0.5201 -0.0156 -0.1477
 6412TIP3    H140727   5.193   0.549  11.042 -2.0144  0.3873  1.7527
 6412TIP3    H240728   5.088   0.484  10.955 -1.3311  1.0710  0.3954
 6413TIP3   OH240729   2.179   0.458  12.581  0.4632  0.0556 -0.0540
 6413TIP3    H140730   2.237   0.421  12.515 -1.1168 -1.5333 -0.6110
 6413TIP3    H240731   2.170   0.550  12.556  1.6427  0.0076 -0.7314
 6414TIP3   OH240732   3.781   2.026   3.519 -0.2482  0.2760  0.0026
 6414TIP3    H140733   3.737   2.060   3.596 -1.1539 -0.3152 -0.2331
 6414TIP3    H240734   3.715   1.970   3.476  0.5218 -0.1174 -0.7089
 6415TIP3   OH240735   2.956   5.926  12.775  0.6760  1.1515 -0.5567
 6415TIP3    H140736   2.897   5.898  12.705  0.9603 -4.0316  0.8240
 6415TIP3    H240737   3.043   5.901  12.744  1.2130  1.8904  0.3157
 6416TIP3   OH240738   0.095   6.699   1.603  0.5764 -0.5646  0.6058
 6416TIP3    H140739   0.086   6.632   1.671 -0.5644  0.9284  1.9742
 6416TIP3    H240740   0.026   6.762   1.621  2.2010  1.5079 -0.0640
 6417TIP3   OH240741   6.853   5.341  15.172 -0.2815 -1.0894  0.1501
 6417TIP3    H140742   6.918   5.321  15.239 -0.5933 -0.2784  0.7188
 6417TIP3    H240743   6.769   5.337  15.219 -0.6303 -1.8529 -0.5074
 6418TIP3   OH240744   3.126   0.299  11.950  0.1220  0.0515 -0.1845
 6418TIP3    H140745   3.113   0.388  11.980  2.3290  1.2108 -2.2371
 6418TIP3    H240746   3.061   0.286  11.881  0.8236  0.7441 -1.0079
 6419TIP3   OH240747   4.753   4.603  12.802  0.1262  0.2211 -0.5078
 6419TIP3    H140748   4.804   4.672  12.759 -0.2724 -0.8500 -2.8620
 6419TIP3    H240749   4.765   4.526  12.746 -2.7898 -0.4947 -0.3116
 6420TIP3   OH240750   0.418   2.976  11.497 -0.1819 -0.3249 -0.1488
 6420TIP3    H140751   0.361   2.917  11.547 -0.7025 -0.3747 -0.7978
 6420TIP3    H240752   0.361   3.014  11.430  0.1500  0.9047  0.2309
 6421TIP3   OH240753   1.792   0.990  10.613 -0.0341  0.4819  0.6047
 6421TIP3    H140754   1.762   0.991  10.522 -1.9926  0.0526  1.2002
 6421TIP3    H240755   1.864   0.928  10.614 -1.6741 -1.5488 -0.1936
 6422TIP3   OH240756   0.738   2.064   0.638 -0.0347  0.3447 -0.2464
 6422TIP3    H140757   0.734   2.058   0.734  2.6566  0.0047 -0.0559
 6422TIP3    H240758   0.756   2.156   0.621 -1.9492  0.6918 -0.5662
 6423TIP3   OH240759   4.753   1.494   0.721 -0.3102 -0.3495  0.2425
 6423TIP3    H140760   4.830   1.543   0.750 -0.1710 -0.5215  0.1708
 6423TIP3    H240761   4.696   1.492   0.798 -0.8991  1.0344 -0.1360
 6424TIP3   OH240762   2.459   1.886  14.067  0.2670 -0.4812 -0.1521
 6424TIP3    H140763   2.552   1.901  14.047  0.0086 -0.0162 -1.0481
 6424TIP3    H240764   2.420   1.862  13.983 -0.8887  1.6885 -0.2881
 6425TIP3   OH240765   3.723   0.345   3.176  0.2877  0.7964  0.1393
 6425TIP3    H140766   3.768   0.412   3.228  0.4493  0.7666  0.0371
 6425TIP3    H240767   3.793   0.292   3.139  0.2027 -1.4197  2.7547
 6426TIP3   OH240768   2.601   5.353  15.142 -0.3237 -0.1441  0.5887
 6426TIP3    H140769   2.619   5.369  15.235 -0.7412 -0.5822  0.7494
 6426TIP3    H240770   2.510   5.379  15.131  0.0284  0.8929  0.0619
 6427TIP3   OH240771   2.064   1.870  14.250  0.3373  0.4238  0.2538
 6427TIP3    H140772   2.039   1.962  14.239  1.2150  0.5544 -0.7592
 6427TIP3    H240773   2.086   1.840  14.162 -0.8842 -1.0596  0.4082
 6428TIP3   OH240774   7.207   4.657  10.940 -0.8294 -0.6444  0.1606
 6428TIP3    H140775   7.283   4.710  10.919 -0.6367  0.4118  3.0008
 6428TIP3    H240776   7.145   4.674  10.869  0.6061  0.4853 -0.8844
 6429TIP3   OH240777   4.985   6.245   0.711 -0.1465 -0.2617  0.1903
 6429TIP3    H140778   4.966   6.338   0.694  0.1828  0.2419  2.2145
 6429TIP3    H240779   4.902   6.201   0.695 -0.7709  0.6524  0.7627
 6430TIP3   OH240780   6.190   3.540  10.898 -0.0586 -0.0578  0.8915
 6430TIP3    H140781   6.260   3.600  10.873  0.2947 -0.6451  0.4418
 6430TIP3    H240782   6.159   3.572  10.982 -2.1137  2.7191 -0.7495
 6431TIP3   OH240783   1.082   2.854   1.377 -0.2589  0.4122  0.1052
 6431TIP3    H140784   1.094   2.761   1.395 -1.8350  0.1940  0.1428
 6431TIP3    H240785   1.038   2.857   1.292  1.4462  1.2115 -0.7942
 6432TIP3   OH240786   2.952   0.829  10.802  0.3265 -0.2834  0.0710
 6432TIP3    H140787   2.883   0.887  10.769  0.5470 -0.2338 -0.3180
 6432TIP3    H240788   2.982   0.782  10.724  0.2365 -0.8271  0.3673
 6433TIP3   OH240789   5.494   1.170   2.947  0.2723  0.1936  1.1240
 6433TIP3    H140790   5.562   1.136   2.889 -1.6449 -3.4386  0.6515
 6433TIP3    H240791   5.466   1.252   2.907  1.3136 -0.5135 -1.2271
 6434TIP3   OH240792   2.184   0.752  12.525  0.0326  0.1131  0.1689
 6434TIP3    H140793   2.278   0.769  12.534  0.0963  0.1410 -0.4724
 6434TIP3    H240794   2.171   0.742  12.431 -0.4250 -0.9752  0.3375
 6435TIP3   OH240795   0.879   5.464   5.260 -0.5152 -0.1289  0.0784
 6435TIP3    H140796   0.859   5.497   5.347  2.9127 -1.0809  1.3957
 6435TIP3    H240797   0.876   5.369   5.270  2.9932 -0.3434  0.1650
 6436TIP3   OH240798   0.836   2.823   3.094  0.2545 -0.4653  0.1602
 6436TIP3    H140799   0.868   2.739   3.063  1.1389 -0.0258 -0.1630
 6436TIP3    H240800   0.857   2.823   3.188 -0.3153 -0.8489  0.2936
 6437TIP3   OH240801   6.746   4.748  14.467  0.3399  0.5556 -0.0497
 6437TIP3    H140802   6.744   4.823  14.408 -1.0039  1.8769  1.5436
 6437TIP3    H240803   6.795   4.681  14.420  1.0358  2.2020 -1.8093
 6438TIP3   OH240804   2.980   6.885  14.486 -0.2998  0.1219  0.1645
 6438TIP3    H140805   3.021   6.853  14.406 -2.0205 -1.9154 -0.0046
 6438TIP3    H240806   2.888   6.898  14.462 -0.9380 -0.8770  1.8381
 6439TIP3   OH240807   4.897   2.250  11.648  0.3903  0.5788  0.2891
 6439TIP3    H140808   4.808   2.218  11.660  0.4482  0.4967  0.5073
 6439TIP3    H240809   4.947   2.210  11.720  0.8635 -0.3762 -0.5462
 6440TIP3   OH240810   6.278   4.444   1.252  0.0306  0.0536  0.1592
 6440TIP3    H140811   6.187   4.472   1.261  0.2922  1.4634 -1.1375
 6440TIP3    H240812   6.313   4.446   1.340 -1.4735 -1.6589  0.8697
 6441TIP3   OH240813   1.804   0.043  10.187  0.0063  0.0498  0.3438
 6441TIP3    H140814   1.872   0.010  10.128  0.6233 -0.4746  1.3081
 6441TIP3    H240815   1.821   0.137  10.193 -0.6977  0.2949 -1.0836
 6442TIP3   OH240816   5.047   6.447  13.728  0.2127  0.2405  0.4242
 6442TIP3    H140817   5.129   6.405  13.701  0.1204  0.6893 -0.5842
 6442TIP3    H240818   5.016   6.392  13.800  0.6563 -0.7897 -0.1364
 6443TIP3   OH240819   1.227   1.121   0.589  0.5575  0.4288  0.0036
 6443TIP3    H140820   1.188   1.110   0.502  1.4495  0.4233 -0.4074
 6443TIP3    H240821   1.280   1.042   0.602  1.6146  1.0945 -0.1017
 6444TIP3   OH240822   2.276   3.375  12.788 -0.0268  0.3800  0.2521
 6444TIP3    H140823   2.315   3.301  12.833 -0.0740  0.4173  0.3547
 6444TIP3    H240824   2.182   3.363  12.801 -0.1562 -0.5494 -1.2846
 6445TIP3   OH240825   4.358   6.673  12.991  0.1257  0.3794  0.2098
 6445TIP3    H140826   4.420   6.613  12.949 -1.0367 -0.1647 -0.8209
 6445TIP3    H240827   4.275   6.625  12.991 -0.8264  1.9164 -0.5660
 6446TIP3   OH240828   6.609   6.343  12.520 -0.0949 -0.0270  0.3300
 6446TIP3    H140829   6.680   6.369  12.578 -0.5024  2.3933 -0.1596
 6446TIP3    H240830   6.540   6.408  12.533 -1.4023 -1.1153 -0.7113
 6447TIP3   OH240831   1.360   1.276  11.994 -0.5927  0.7551 -0.1963
 6447TIP3    H140832   1.333   1.351  11.942 -1.3965 -0.5616 -1.7761
 6447TIP3    H240833   1.279   1.230  12.016 -0.2492  1.0970  2.0222
 6448TIP3   OH240834   6.522   4.426   0.468 -0.3655 -0.1728 -0.5921
 6448TIP3    H140835   6.492   4.415   0.558 -0.6984 -2.2027 -0.8992
 6448TIP3    H240836   6.616   4.407   0.471  0.5788  3.7122 -0.0691
 6449TIP3   OH240837   7.001   3.392  14.113  0.5434  0.0288  0.0192
 6449TIP3    H140838   6.932   3.327  14.126 -0.7201  1.3953  0.4307
 6449TIP3    H240839   6.986   3.424  14.024  2.4460 -1.6343 -0.9803
 6450TIP3   OH240840   6.507   0.465   0.950  0.7615 -0.0014  0.6040
 6450TIP3    H140841   6.549   0.425   0.873 -1.5776  0.1791 -0.8625
 6450TIP3    H240842   6.532   0.408   1.023  1.9581 -0.9651 -0.5022
 6451TIP3   OH240843   5.141   5.997   1.129 -0.0561 -0.1267  0.6524
 6451TIP3    H140844   5.139   5.903   1.142  3.0909 -0.2401  1.0435
 6451TIP3    H240845   5.151   6.008   1.034  3.9175 -0.5025  0.8757
 6452TIP3   OH240846   6.336   5.853  14.417 -0.0705  0.0416 -0.1776
 6452TIP3    H140847   6.280   5.778  14.396 -0.2169  0.2116 -0.4038
 6452TIP3    H240848   6.276   5.917  14.456 -0.1792  0.5194 -1.1143
 6453TIP3   OH240849   5.882   1.173   9.737  0.0464  0.1493 -0.1813
 6453TIP3    H140850   5.963   1.223   9.728 -0.2300  0.3561 -2.0575
 6453TIP3    H240851   5.891   1.127   9.820  0.9024  2.2455  0.9685
 6454TIP3   OH240852   5.945   5.897   9.718 -0.3670  0.1154 -0.0917
 6454TIP3    H140853   5.934   5.897   9.623 -1.1573  1.1042 -0.0115
 6454TIP3    H240854   5.856   5.883   9.753 -0.0826 -0.2676  0.5095
 6455TIP3   OH240855   3.541   0.592  12.091 -0.4343  0.0798 -0.4546
 6455TIP3    H140856   3.502   0.507  12.112 -2.8874  1.3100  0.3768
 6455TIP3    H240857   3.467   0.648  12.068  1.0946  1.9974 -1.0484
 6456TIP3   OH240858   4.589   1.304  11.697 -0.1605 -0.2397 -0.6502
 6456TIP3    H140859   4.603   1.376  11.759 -1.2924 -0.3707 -0.2337
 6456TIP3    H240860   4.675   1.291  11.657  0.2238  0.8906 -0.2410
 6457TIP3   OH240861   0.253   6.042  14.846 -0.1855  0.2449  0.0362
 6457TIP3    H140862   0.258   5.966  14.904 -0.9279  0.1880  0.0334
 6457TIP3    H240863   0.239   6.116  14.905 -0.3979  0.2596 -0.0354
 6458TIP3   OH240864   3.721   4.310  13.332  0.2829  0.2958  0.1133
 6458TIP3    H140865   3.737   4.285  13.423  1.3054  3.3190  0.8812
 6458TIP3    H240866   3.808   4.316  13.293 -0.1260 -0.4697 -0.9497
 6459TIP3   OH240867   6.950   5.347  13.476 -0.2249  0.0411  0.0094
 6459TIP3    H140868   6.856   5.335  13.487 -0.4889  1.8229  0.0859
 6459TIP3    H240869   6.988   5.264  13.502 -1.7276 -0.4168  0.8873
 6460TIP3   OH240870   5.932   0.307   9.724  0.2420 -0.7769  0.1709
 6460TIP3    H140871   5.925   0.354   9.641  3.7348 -1.1818 -0.5106
 6460TIP3    H240872   5.933   0.214   9.699  1.8455 -0.8864  0.5712
 6461TIP3   OH240873   2.387   3.472   9.820 -0.1407 -0.1593  0.3380
 6461TIP3    H140874   2.410   3.521   9.741  0.8003 -0.8971  0.1376
 6461TIP3    H240875   2.428   3.521   9.892 -0.5195  0.1987  0.3131
 6462TIP3   OH240876   6.290   6.296  10.347 -0.0036  0.5573  0.4419
 6462TIP3    H140877   6.208   6.290  10.299 -0.4852  1.2510  1.1496
 6462TIP3    H240878   6.285   6.225  10.412  0.1764  0.2960  0.1744
 6463TIP3   OH240879   1.948   7.122  13.239  0.0896 -0.0719 -0.2843
 6463TIP3    H140880   1.946   7.217  13.222  0.5449 -0.4649 -2.9245
 6463TIP3    H240881   1.867   7.105  13.287 -0.2360  1.5775 -0.1573
 6464TIP3   OH240882   1.375   5.992  10.658  0.1558  0.0258  0.0428
 6464TIP3    H140883   1.358   5.955  10.744 -1.3830  0.5142 -0.0169
 6464TIP3    H240884   1.402   5.917  10.605 -1.5511 -0.8028  0.2717
 6465TIP3   OH240885   4.528   3.687   0.511  0.3031 -0.1229  0.0631
 6465TIP3    H140886   4.442   3.703   0.549  0.2397 -0.1836 -0.0547
 6465TIP3    H240887   4.522   3.600   0.472  0.9871 -0.9359  1.6892
 6466TIP3   OH240888   1.391   5.346  10.783  0.0509 -0.4695 -0.1003
 6466TIP3    H140889   1.444   5.270  10.757 -0.6069 -0.4157 -1.7476
 6466TIP3    H240890   1.301   5.319  10.764 -0.3715  0.0184  1.1694
 6467TIP3   OH240891   4.719   4.536   9.855 -0.0981 -0.0248 -0.4848
 6467TIP3    H140892   4.674   4.617   9.879  0.3804  0.0367  0.2375
 6467TIP3    H240893   4.808   4.564   9.834 -0.0134 -0.3250 -0.5290
 6468TIP3   OH240894   4.026   0.534  13.359 -0.6006 -0.2330 -0.3489
 6468TIP3    H140895   3.941   0.491  13.370 -1.4805  0.8011 -2.4561
 6468TIP3    H240896   4.005   0.626  13.344  0.7728 -0.1160 -1.9493
 6469TIP3   OH240897   1.794   7.084  11.573  0.1843  0.2288 -0.7912
 6469TIP3    H140898   1.861   7.139  11.614  0.8723 -0.1844 -1.3252
 6469TIP3    H240899   1.815   7.088  11.480  0.5076 -1.2422 -0.8087
 6470TIP3   OH240900   0.854   2.395  15.337  0.0611  0.0331  0.7332
 6470TIP3    H140901   0.847   2.343  15.417  1.6122 -0.2564  0.7271
 6470TIP3    H240902   0.911   2.343  15.280 -1.3424  0.0478 -0.7454
 6471TIP3   OH240903   5.680   4.767  11.952 -0.7301 -0.7269 -0.4131
 6471TIP3    H140904   5.671   4.693  11.892  3.2259  0.2128 -2.5230
 6471TIP3    H240905   5.679   4.844  11.896  2.7222  0.2299  0.5885
 6472TIP3   OH240906   2.385   2.285   0.765 -0.2335 -0.4849 -0.1332
 6472TIP3    H140907   2.395   2.356   0.700 -1.6484 -0.1200  0.0203
 6472TIP3    H240908   2.465   2.290   0.817 -0.8188  1.8986  0.7062
 6473TIP3   OH240909   3.480   1.406  13.459  0.2011 -0.2241 -0.3058
 6473TIP3    H140910   3.572   1.391  13.439  0.6251  0.5933  0.9890
 6473TIP3    H240911   3.473   1.500  13.477 -1.1162 -0.0392 -1.4895
 6474TIP3   OH240912   3.150   6.608   5.781 -0.2161  0.0255  0.2878
 6474TIP3    H140913   3.103   6.670   5.837  0.3692  0.8457 -0.1103
 6474TIP3    H240914   3.110   6.523   5.801 -2.6148  0.7977 -0.7865
 6475TIP3   OH240915   4.488   3.841  13.090 -0.0656  0.5166  0.4270
 6475TIP3    H140916   4.452   3.928  13.069 -0.0048  0.3745 -0.3057
 6475TIP3    H240917   4.513   3.805  13.005 -1.3492 -0.7825  0.5707
 6476TIP3   OH240918   4.796   1.143   9.381  0.3306  0.6330 -0.4352
 6476TIP3    H140919   4.891   1.127   9.386  0.1665 -1.1645 -2.0964
 6476TIP3    H240920   4.766   1.089   9.308 -1.7535  2.3506 -0.9499
 6477TIP3   OH240921   4.743   2.545   1.943 -0.4230 -0.5646 -0.8323
 6477TIP3    H140922   4.823   2.570   1.988 -1.0122 -0.0017 -0.0741
 6477TIP3    H240923   4.719   2.461   1.982 -1.7904  0.6550  1.1141
 6478TIP3   OH240924   5.292   6.627   3.219 -0.1594 -0.0618 -0.2951
 6478TIP3    H140925   5.224   6.666   3.274  2.0812  1.8720  1.2694
 6478TIP3    H240926   5.333   6.701   3.175  0.0354 -1.3245 -2.3538
 6479TIP3   OH240927   6.686   5.650   1.507 -0.3985 -0.3606  0.0888
 6479TIP3    H140928   6.632   5.725   1.481 -0.2089 -0.7735 -1.6295
 6479TIP3    H240929   6.628   5.596   1.561 -0.8008  0.5944  0.6330
 6480TIP3   OH240930   0.102   7.224  10.927  0.2440 -0.0401  0.1486
 6480TIP3    H140931   0.115   7.295  10.864 -1.2607 -1.8075 -2.3217
 6480TIP3    H240932   0.057   7.265  11.001 -0.8691  1.5333 -1.3364
 6481TIP3   OH240933   5.819   5.264   3.161  0.5064 -0.2271 -0.4570
 6481TIP3    H140934   5.811   5.200   3.090  2.3062  1.2285 -2.0569
 6481TIP3    H240935   5.775   5.342   3.128 -2.2386 -0.6809  1.7237
 6482TIP3   OH240936   1.923   6.259   5.599 -0.7183  0.6328 -0.9570
 6482TIP3    H140937   1.989   6.328   5.588  1.9123 -1.7782 -1.6057
 6482TIP3    H240938   1.930   6.234   5.691  1.2008 -1.2354 -1.5115
 6483TIP3   OH240939   5.715   2.607  12.469  0.3486 -0.4663 -0.1428
 6483TIP3    H140940   5.657   2.533  12.489 -0.0896 -0.2728 -0.6737
 6483TIP3    H240941   5.794   2.589  12.520 -0.2767 -0.5869  0.8154
 6484TIP3   OH240942   5.942   4.239   1.200  1.0831  0.2970  0.4012
 6484TIP3    H140943   5.967   4.330   1.180 -2.2729  0.9141 -1.8772
 6484TIP3    H240944   5.899   4.244   1.285  0.7913  0.9047  0.2255
 6485TIP3   OH240945   6.657   2.773   2.948 -0.3999  0.2392  0.1695
 6485TIP3    H140946   6.720   2.746   3.015 -0.6524 -1.7337 -0.3364
 6485TIP3    H240947   6.573   2.770   2.993 -0.5221 -0.6756 -0.1064
 6486TIP3   OH240948   0.108   0.977  10.838  0.1126  0.9841 -0.1812
 6486TIP3    H140949   0.059   0.925  10.902  0.6661  0.0707 -0.4810
 6486TIP3    H240950   0.044   1.038  10.802 -0.3821  1.0058  0.7051
 6487TIP3   OH240951   6.205   6.145  11.437  0.1613 -0.1633 -0.3025
 6487TIP3    H140952   6.283   6.103  11.400  0.1994 -0.2320 -0.1453
 6487TIP3    H240953   6.141   6.075  11.445  0.0643 -0.0948 -0.4846
 6488TIP3   OH240954   4.068   1.173   3.770 -0.3691 -0.2051  0.2585
 6488TIP3    H140955   4.144   1.218   3.733  1.3972 -1.4381  2.1542
 6488TIP3    H240956   4.011   1.158   3.696  1.9409 -0.5826 -1.5728
 6489TIP3   OH240957   6.718   0.996  14.640  0.2063  0.3925  0.2296
 6489TIP3    H140958   6.733   1.081  14.682 -0.9598  0.8897 -0.3065
 6489TIP3    H240959   6.729   0.932  14.710  0.5476  1.0261  0.7679
 6490TIP3   OH240960   0.279   4.202   0.662  0.1514 -0.1006  0.0352
 6490TIP3    H140961   0.358   4.236   0.704 -1.5321 -0.6652  4.1525
 6490TIP3    H240962   0.311   4.152   0.588  3.4461  1.4909  0.1882
 6491TIP3   OH240963   0.013   0.302  12.580  0.8777  0.0344 -0.2638
 6491TIP3    H140964  -0.034   0.380  12.608 -0.1434 -0.5653 -0.2122
 6491TIP3    H240965   0.096   0.304  12.628  0.4844  0.6275  0.4006
 6492TIP3   OH240966   4.150   2.746  13.355  0.0445 -0.2103  0.3025
 6492TIP3    H140967   4.097   2.667  13.368  2.8378 -1.9145  2.5192
 6492TIP3    H240968   4.215   2.722  13.290  0.9862  0.2161  1.0615
 6493TIP3   OH240969   4.723   4.935  14.331  0.2108  0.0690 -0.3273
 6493TIP3    H140970   4.717   4.863  14.394  1.0495  0.2041 -0.0787
 6493TIP3    H240971   4.713   4.893  14.246  1.1276 -0.4205 -0.2086
 6494TIP3   OH240972   3.211   1.334  14.169 -0.1398  0.0788 -0.3429
 6494TIP3    H140973   3.226   1.327  14.264 -2.3723 -1.7422 -0.0379
 6494TIP3    H240974   3.281   1.392  14.138  1.1572  0.0676  2.2737
 6495TIP3   OH240975   3.143   0.493  13.444  0.2414 -0.2137  0.2034
 6495TIP3    H140976   3.132   0.508  13.538 -2.6455  1.0373 -0.2220
 6495TIP3    H240977   3.062   0.450  13.417  0.8216 -0.1419 -1.7937
 6496TIP3   OH240978   2.818   4.538  13.171  0.0497 -0.2577 -0.7889
 6496TIP3    H140979   2.758   4.537  13.097 -1.0350  1.2140  0.0116
 6496TIP3    H240980   2.869   4.458  13.162 -2.3663 -1.8278 -1.2317
 6497TIP3   OH240981   0.463   2.541   4.457  0.5565  0.1890 -0.5613
 6497TIP3    H140982   0.396   2.605   4.483 -1.0177 -1.1543 -1.1183
 6497TIP3    H240983   0.467   2.480   4.531  1.1975  0.2602 -0.5328
 6498TIP3   OH240984   5.051   1.390   2.702  0.2596  0.1045 -0.3161
 6498TIP3    H140985   5.050   1.310   2.754  1.3935  0.6005  0.5094
 6498TIP3    H240986   5.058   1.360   2.611 -1.9338 -0.7814 -0.2678
 6499TIP3   OH240987   4.827   7.232  15.202  0.0510  0.0189  0.4739
 6499TIP3    H140988   4.877   7.215  15.122  0.8789  1.1637  0.7134
 6499TIP3    H240989   4.743   7.266  15.171  0.2701  0.2147  0.0853
 6500TIP3   OH240990   3.745   1.904  10.212 -0.0684  0.1266  0.6847
 6500TIP3    H140991   3.667   1.898  10.157 -0.2283 -0.6127  0.9702
 6500TIP3    H240992   3.721   1.966  10.281  0.4101  1.6679 -0.4919
 6501TIP3   OH240993   1.963   6.332   1.539  0.5295  0.4190 -0.0108
 6501TIP3    H140994   2.020   6.287   1.476  2.9763  2.3898  0.6197
 6501TIP3    H240995   1.929   6.407   1.491 -1.2904 -0.5274 -0.2545
 6502TIP3   OH240996   1.499   1.762  12.987 -0.1927 -0.0766 -0.0361
 6502TIP3    H140997   1.437   1.695  13.017  2.0828 -2.6695 -0.7659
 6502TIP3    H240998   1.494   1.831  13.053 -1.3218 -1.7813  1.7462
 6503TIP3   OH240999   6.159   5.197  13.386  0.5823 -0.0169  0.4951
 6503TIP3    H141000   6.218   5.168  13.315 -1.1858  1.7528 -1.8595
 6503TIP3    H241001   6.202   5.274  13.423  0.8695 -0.1336  0.4075
 6504TIP3   OH241002   1.095   1.451   1.998  0.1456 -0.5316 -0.1384
 6504TIP3    H141003   1.112   1.484   2.087 -0.3435 -0.7175  0.0308
 6504TIP3    H241004   1.175   1.405   1.974  0.8215  0.7187 -0.3566
 6505TIP3   OH241005   1.900   2.456  12.291 -0.2210 -0.1344  0.3780
 6505TIP3    H141006   1.927   2.454  12.199 -0.6704  2.4317  0.1013
 6505TIP3    H241007   1.963   2.514  12.333 -0.3621 -0.8174  1.5826
 6506TIP3   OH241008   4.106   3.683  12.842 -0.1316  0.0705 -0.1749
 6506TIP3    H141009   4.030   3.690  12.901  0.3696  1.3679  0.3509
 6506TIP3    H241010   4.110   3.767  12.798 -0.6952 -0.9975 -2.3865
 6507TIP3   OH241011   4.153   0.513   0.628 -0.3022  0.2764 -0.1271
 6507TIP3    H141012   4.079   0.559   0.667  0.1143  3.6109 -2.7724
 6507TIP3    H241013   4.126   0.494   0.538  0.7290 -1.9426 -0.0270
 6508TIP3   OH241014   4.158   3.783   1.429 -0.1580 -0.0633  0.3266
 6508TIP3    H141015   4.165   3.861   1.483 -0.6226  0.6119 -0.5642
 6508TIP3    H241016   4.064   3.761   1.430  0.1810 -1.6930  2.0313
 6509TIP3   OH241017   2.108   2.122   2.098 -0.0939  0.0382 -0.3159
 6509TIP3    H141018   2.170   2.121   2.024  1.4560  1.6564  0.8944
 6509TIP3    H241019   2.090   2.029   2.114  0.8596 -0.4188 -1.6361
 6510TIP3   OH241020   5.191   4.853   1.537  0.3721 -0.4811  0.4593
 6510TIP3    H141021   5.220   4.762   1.537 -0.0365 -0.6186  1.1632
 6510TIP3    H241022   5.121   4.856   1.471  0.4360 -0.6582  0.3850
 6511TIP3   OH241023   3.996   6.496   4.403 -0.0778 -0.2812 -0.5911
 6511TIP3    H141024   4.070   6.438   4.418  0.6567  0.0414 -2.6384
 6511TIP3    H241025   3.935   6.444   4.351 -0.7770 -0.1557  0.0788
 6512TIP3   OH241026   5.071   0.267  12.841 -0.5773  0.2375  0.1128
 6512TIP3    H141027   4.989   0.219  12.828 -0.6270  0.5555 -0.8420
 6512TIP3    H241028   5.081   0.273  12.936 -0.9552 -0.9931  0.2447
 6513TIP3   OH241029   6.534   3.526  11.760  0.3865 -0.3666 -0.0607
 6513TIP3    H141030   6.627   3.547  11.752  0.0794  1.1861  0.2384
 6513TIP3    H241031   6.500   3.590  11.822 -0.8303 -1.1251  0.0826
 6514TIP3   OH241032   2.872   3.910  12.045  0.1502  0.3545 -0.5155
 6514TIP3    H141033   2.928   3.970  12.094 -0.7142  2.7228 -2.2276
 6514TIP3    H241034   2.927   3.880  11.972  0.1039  0.3688 -0.5571
 6515TIP3   OH241035   1.463   4.906   3.536 -0.0807  0.0918 -0.3689
 6515TIP3    H141036   1.478   4.834   3.476 -1.4794 -1.8407  1.4549
 6515TIP3    H241037   1.382   4.947   3.505 -0.2358 -0.2436 -0.4128
 6516TIP3   OH241038   0.667   0.746  11.601  0.6698  0.3168  0.1699
 6516TIP3    H141039   0.601   0.772  11.665 -0.3175 -1.7130  0.0596
 6516TIP3    H241040   0.618   0.735  11.520  1.2579 -0.5327 -0.0836
 6517TIP3   OH241041   2.057   1.038   9.756 -0.1201 -0.5017  0.4690
 6517TIP3    H141042   1.972   1.004   9.727  0.7314 -1.4115 -1.0917
 6517TIP3    H241043   2.121   0.990   9.703  1.5877 -2.2042  3.7893
 6518TIP3   OH241044   2.851   6.651  14.080 -0.6194  0.0274  0.4370
 6518TIP3    H141045   2.910   6.576  14.085 -0.4869 -0.0424 -1.5886
 6518TIP3    H241046   2.909   6.727  14.079 -0.6106  0.0124 -0.4163
 6519TIP3   OH241047   3.420   0.559   3.100 -0.0030 -0.4160 -0.5396
 6519TIP3    H141048   3.458   0.482   3.058  1.9550  0.6623 -0.8679
 6519TIP3    H241049   3.371   0.602   3.030  0.5877 -0.3141 -0.8994
 6520TIP3   OH241050   3.548   2.866   0.096  0.3295 -0.4395  0.0191
 6520TIP3    H141051   3.620   2.817   0.136  1.6077  1.2100 -0.1797
 6520TIP3    H241052   3.480   2.869   0.164  0.3464 -2.1426  0.1530
 6521TIP3   OH241053   1.626   3.624   3.255 -0.1787  0.2424 -0.2455
 6521TIP3    H141054   1.672   3.707   3.263 -2.9047  1.8732 -0.0724
 6521TIP3    H241055   1.631   3.585   3.342 -1.1933  1.6221  0.4757
 6522TIP3   OH241056   5.599   0.037  12.319  0.0197 -0.0098 -0.2124
 6522TIP3    H141057   5.643  -0.045  12.343  1.0405  1.1297  2.1813
 6522TIP3    H241058   5.653   0.073  12.249 -1.0969 -1.8590 -2.1254
 6523TIP3   OH241059   5.085   3.702  11.627 -0.4664 -0.8172 -0.0504
 6523TIP3    H141060   5.157   3.731  11.682 -0.0762 -1.1629 -0.3799
 6523TIP3    H241061   5.115   3.621  11.587 -0.8520 -0.7232 -0.5542
 6524TIP3   OH241062   4.321   6.778   0.879  0.1803 -0.0789 -0.1583
 6524TIP3    H141063   4.403   6.759   0.925 -0.0015  0.1970  0.2887
 6524TIP3    H241064   4.325   6.723   0.801 -0.0738 -1.5619  0.8191
 6525TIP3   OH241065   7.233   6.042  14.813 -0.2080 -0.0571 -0.1545
 6525TIP3    H141066   7.322   6.062  14.840 -0.9729  0.0554  2.6455
 6525TIP3    H241067   7.242   5.967  14.754  1.8338  1.3211 -1.7433
 6526TIP3   OH241068   4.049   0.866  14.221 -0.5802 -0.2450 -0.2875
 6526TIP3    H141069   4.014   0.785  14.259  0.9149 -0.8516 -0.1629
 6526TIP3    H241070   4.000   0.877  14.140  0.6336 -2.4730 -1.4188
 6527TIP3   OH241071   3.096   6.826   5.463 -0.1464  0.2233 -0.4430
 6527TIP3    H141072   3.108   6.920   5.456  0.6876  0.1557 -0.0232
 6527TIP3    H241073   3.002   6.814   5.475 -0.2990  0.9730 -0.8638
 6528TIP3   OH241074   0.020   2.069   0.740 -0.2004 -0.4702 -0.4138
 6528TIP3    H141075   0.025   1.990   0.686 -0.2506 -1.5995  1.1568
 6528TIP3    H241076  -0.074   2.080   0.756 -0.1746 -0.2342 -0.4256
 6529TIP3   OH241077   6.446   6.621  11.094 -0.3824 -0.1575 -0.2550
 6529TIP3    H141078   6.499   6.655  11.166 -0.1452 -0.7012 -0.1635
 6529TIP3    H241079   6.441   6.527  11.111 -1.6962 -0.0727 -0.0493
 6530TIP3   OH241080   2.307   2.034  13.181 -0.2891 -0.1362 -0.6225
 6530TIP3    H141081   2.391   1.989  13.168 -0.1318 -0.0960  0.2196
 6530TIP3    H241082   2.330   2.118  13.219 -0.6669  0.1896 -1.1054
 6531TIP3   OH241083   5.004   5.596  10.120  0.2719  0.2042 -0.4446
 6531TIP3    H141084   5.033   5.633  10.038  1.5885  4.0089  1.5242
 6531TIP3    H241085   5.084   5.581  10.171 -0.5479 -1.2890  0.5223
 6532TIP3   OH241086   0.783   1.798  14.897 -0.2042  0.1378 -0.1017
 6532TIP3    H141087   0.736   1.756  14.969 -0.5844  1.4739  0.4601
 6532TIP3    H241088   0.864   1.829  14.937  0.5098 -0.8656 -0.7314
 6533TIP3   OH241089   1.233   0.361   4.525  0.1431  0.6149  0.3957
 6533TIP3    H141090   1.147   0.370   4.567  0.5281  3.5812  0.7758
 6533TIP3    H241091   1.225   0.411   4.444  1.1381 -0.2366 -0.2515
 6534TIP3   OH241092   4.345   1.708   3.868 -0.1378 -0.0480  0.4659
 6534TIP3    H141093   4.259   1.679   3.899  0.5768  0.7049  3.4103
 6534TIP3    H241094   4.371   1.777   3.928  2.4907 -0.1479 -0.4242
 6535TIP3   OH241095   4.738   5.830  13.047  0.5412  0.3699  1.1014
 6535TIP3    H141096   4.769   5.831  13.138  2.6102  0.0154  0.4297
 6535TIP3    H241097   4.808   5.869  12.996 -0.3955  0.1511 -0.4325
 6536TIP3   OH241098   4.117   5.206  13.868  0.6111 -0.1092 -0.0445
 6536TIP3    H141099   4.139   5.243  13.953 -0.0359  0.4780 -0.1227
 6536TIP3    H241100   4.168   5.125  13.863  0.1370 -0.5025  1.1891
 6537TIP3   OH241101   2.235   4.140  12.865  0.1135  0.1598  0.9517
 6537TIP3    H141102   2.251   4.232  12.844 -1.3050  0.6253  1.7434
 6537TIP3    H241103   2.238   4.096  12.780 -0.7791  1.2175  0.3412
 6538TIP3   OH241104   6.602   5.265   9.763 -0.3693 -0.5816  0.6837
 6538TIP3    H141105   6.623   5.323   9.689 -2.0010  0.2508  0.8392
 6538TIP3    H241106   6.650   5.185   9.744  2.2755  0.8885  0.6437
 6539TIP3   OH241107   0.241   3.373  10.710 -0.3473 -0.2743  0.4406
 6539TIP3    H141108   0.304   3.302  10.699  0.8235  0.7307  0.4396
 6539TIP3    H241109   0.295   3.452  10.720 -1.6122  0.8099 -0.8794
 6540TIP3   OH241110   4.562   6.444   3.410  0.0415  0.1976  0.1214
 6540TIP3    H141111   4.480   6.458   3.363  1.0382  0.6563 -1.6205
 6540TIP3    H241112   4.542   6.378   3.476 -2.3694  2.2393  1.6081
 6541TIP3   OH241113   2.869   4.934   4.000  0.2739 -0.6351 -0.5969
 6541TIP3    H141114   2.872   5.028   4.019  3.3183 -0.6336 -0.4947
 6541TIP3    H241115   2.870   4.929   3.905  0.4443 -0.5567 -0.5999
 6542TIP3   OH241116   2.890   1.259   9.485 -0.6395  0.6273  0.8293
 6542TIP3    H141117   2.895   1.163   9.491  1.2069  0.6104 -0.0884
 6542TIP3    H241118   2.964   1.283   9.429 -1.3855  2.5671  0.5946
 6543TIP3   OH241119   4.099   7.139  13.342  0.3662  0.2513 -0.3396
 6543TIP3    H141120   4.050   7.059  13.360  1.5637 -0.7756 -1.3834
 6543TIP3    H241121   4.046   7.209  13.380 -3.9950 -0.2145 -4.5119
 6544TIP3   OH241122   7.194   0.898   1.199  0.6771  0.0116  0.1874
 6544TIP3    H141123   7.129   0.953   1.154  0.0521 -1.0479 -0.2543
 6544TIP3    H241124   7.276   0.945   1.188  0.3727  0.2733 -1.2513
 6545TIP3   OH241125   4.103   4.130  13.970  0.4076 -0.4212  0.1776
 6545TIP3    H141126   4.097   4.170  14.057 -0.0455 -2.6374  1.2219
 6545TIP3    H241127   4.157   4.053  13.982 -1.1223 -1.7696 -1.1023
 6546TIP3   OH241128   6.314   5.772  13.397  0.1907  0.4063 -0.1045
 6546TIP3    H141129   6.401   5.738  13.375 -0.5515 -1.6941 -0.0394
 6546TIP3    H241130   6.319   5.795  13.489  0.3471 -0.9338  0.2384
 6547TIP3   OH241131   6.806   1.477   1.417  0.3622 -0.1939 -0.1647
 6547TIP3    H141132   6.868   1.543   1.446  1.2530 -1.5385  1.0752
 6547TIP3    H241133   6.722   1.504   1.455  0.3771  1.0138 -0.9318
 6548TIP3   OH241134   1.499   3.499   4.395 -0.3928 -0.3814 -1.0620
 6548TIP3    H141135   1.461   3.513   4.482 -1.7424  2.5754 -2.0247
 6548TIP3    H241136   1.571   3.437   4.411  0.1937  0.9516  2.3479
 6549TIP3   OH241137   6.181   2.975  11.378 -0.1361 -0.2898  0.4515
 6549TIP3    H141138   6.256   3.012  11.332 -0.8753 -0.5055 -0.9548
 6549TIP3    H241139   6.196   2.881  11.378  0.2829 -0.2436  1.4538
 6550TIP3   OH241140   4.300   4.363  13.155  0.4234  0.1700 -0.0121
 6550TIP3    H141141   4.239   4.434  13.171  0.7738  0.4221  0.2436
 6550TIP3    H241142   4.380   4.389  13.202  1.3464  0.7091 -1.7793
 6551TIP3   OH241143   4.843   1.934   9.778 -0.5283 -0.4274 -0.5308
 6551TIP3    H141144   4.884   1.863   9.828  0.1017  0.1366 -0.2396
 6551TIP3    H241145   4.912   1.964   9.719 -1.1833 -0.9247 -1.5981
 6552TIP3   OH241146   4.830   5.161  12.713 -0.3599 -0.1850  0.2533
 6552TIP3    H141147   4.848   5.251  12.739 -0.0380  0.2105 -1.2263
 6552TIP3    H241148   4.875   5.151  12.629 -3.2877 -0.5606 -1.4113
 6553TIP3   OH241149   4.728   0.253  14.765 -0.4982 -0.1047  0.0697
 6553TIP3    H141150   4.729   0.347  14.750 -1.8329 -0.2943 -1.4455
 6553TIP3    H241151   4.637   0.233  14.786 -0.9695 -1.4389 -2.7573
 6554TIP3   OH241152   3.384   7.221   2.706 -0.1853  0.3947 -0.2545
 6554TIP3    H141153   3.357   7.313   2.699 -1.1920  0.1580  0.3739
 6554TIP3    H241154   3.451   7.211   2.638  1.6924  2.2133  1.1931
 6555TIP3   OH241155   3.654   0.472   1.122  0.0501 -0.2441  0.1860
 6555TIP3    H141156   3.602   0.475   1.202 -1.7853 -0.2504 -0.9350
 6555TIP3    H241157   3.625   0.392   1.077  1.6260 -0.6743 -0.1329
 6556TIP3   OH241158   5.370   5.289   0.894  0.1007  0.7791 -0.2559
 6556TIP3    H141159   5.329   5.375   0.888  0.9040  1.2563  0.7755
 6556TIP3    H241160   5.460   5.303   0.866  0.4237  0.4270  0.5748
 6557TIP3   OH241161   6.206   0.743   4.859  0.1773 -0.0730 -0.5321
 6557TIP3    H141162   6.118   0.773   4.881  0.2572 -1.1538  1.5832
 6557TIP3    H241163   6.250   0.820   4.824 -0.6807  1.3698  1.3596
 6558TIP3   OH241164   0.627   0.401   5.282 -0.1799  0.1649 -0.3132
 6558TIP3    H141165   0.654   0.401   5.374 -2.1583  0.8305  0.3260
 6558TIP3    H241166   0.598   0.491   5.265  0.5669  0.1729 -1.7525
 6559TIP3   OH241167   6.011   0.361  14.057 -0.6676  0.4696  0.0383
 6559TIP3    H141168   6.081   0.404  14.008  0.5933  0.0622  1.4181
 6559TIP3    H241169   5.987   0.423  14.125 -0.1941 -0.1964  0.8316
 6560TIP3   OH241170   2.742   4.909   1.217  0.2365  0.3861 -0.0028
 6560TIP3    H141171   2.788   4.989   1.243 -1.2811  1.1527  0.4085
 6560TIP3    H241172   2.719   4.867   1.300 -1.8591  1.2379 -0.1006
 6561TIP3   OH241173   3.060   0.631   1.487 -0.0466 -0.4108  0.9698
 6561TIP3    H141174   3.059   0.704   1.425 -1.1603  0.9328  2.4816
 6561TIP3    H241175   3.151   0.622   1.512  0.7934 -2.2590 -2.1916
 6562TIP3   OH241176   3.208   5.589   5.048  0.1505 -0.1245 -0.4510
 6562TIP3    H141177   3.258   5.653   5.097  1.0136 -1.2855  0.2380
 6562TIP3    H241178   3.201   5.513   5.106 -1.4705 -0.4070 -0.9563
 6563TIP3   OH241179   6.300   1.531   0.124  0.2524  0.5870 -0.3927
 6563TIP3    H141180   6.218   1.542   0.075  0.2018 -1.5558 -0.8870
 6563TIP3    H241181   6.347   1.614   0.111 -1.9644  2.0344  0.2153
 6564TIP3   OH241182   4.892   6.473  14.528 -0.4266  0.2448 -0.5672
 6564TIP3    H141183   4.899   6.397  14.586  1.6616 -0.1880 -1.3175
 6564TIP3    H241184   4.872   6.435  14.442 -0.7896  0.6645 -0.6711
 6565TIP3   OH241185   0.353   4.196   2.000 -0.5940 -0.0329 -0.4218
 6565TIP3    H141186   0.385   4.136   1.933 -1.3740 -0.4071 -0.4684
 6565TIP3    H241187   0.334   4.141   2.075  0.1258  0.3668  0.0655
 6566TIP3   OH241188   4.086   6.678   4.095  0.0728  0.4802  0.6947
 6566TIP3    H141189   4.033   6.679   4.175 -0.9738 -2.3278  0.1589
 6566TIP3    H241190   4.087   6.586   4.068  1.8103  1.0823 -1.6153
 6567TIP3   OH241191   0.115   6.062   3.226  0.0308 -0.9671  0.2073
 6567TIP3    H141192   0.137   5.976   3.261 -0.1438 -1.6585 -1.3206
 6567TIP3    H241193   0.162   6.067   3.143 -1.6423 -0.4634 -0.7516
 6568TIP3   OH241194   6.301   4.324  12.648 -0.1510 -0.3988  0.3185
 6568TIP3    H141195   6.393   4.299  12.648 -0.1836 -0.5451 -0.4604
 6568TIP3    H241196   6.273   4.311  12.739  0.8860  0.7746  0.8442
 6569TIP3   OH241197   3.876   2.638   9.797  0.8454 -0.2611  0.2237
 6569TIP3    H141198   3.782   2.627   9.811  0.5317  1.1182 -0.6382
 6569TIP3    H241199   3.888   2.625   9.703  0.7588  3.8846 -0.5399
 6570TIP3   OH241200   5.216   5.643   0.645 -0.0455  0.1527 -0.0109
 6570TIP3    H141201   5.209   5.562   0.695 -0.1810  0.6558  0.8043
 6570TIP3    H241202   5.126   5.668   0.626 -0.0219  0.3466  0.1299
 6571TIP3   OH241203   3.118   2.899  12.405  0.4094  0.6071 -0.0319
 6571TIP3    H141204   3.169   2.895  12.485 -1.5322 -1.4582  1.2265
 6571TIP3    H241205   3.056   2.971  12.419  1.1860  1.3948 -0.4777
 6572TIP3   OH241206   3.661   4.456   1.854  0.3844  0.0281  0.1891
 6572TIP3    H141207   3.618   4.414   1.779 -0.9801 -0.1874  1.0532
 6572TIP3    H241208   3.695   4.383   1.906  0.0036  0.0939  0.5354
 6573TIP3   OH241209   4.493   3.327   3.945  0.1963 -0.3690  0.5400
 6573TIP3    H141210   4.581   3.331   3.907 -0.0836  2.0454 -0.0202
 6573TIP3    H241211   4.498   3.383   4.023 -0.4759 -1.4328  1.3708
 6574TIP3   OH241212   2.243   5.136   1.189 -0.2917  0.5091 -0.0387
 6574TIP3    H141213   2.224   5.213   1.136  1.0421  0.9031  0.0062
 6574TIP3    H241214   2.335   5.148   1.215 -0.5270 -0.3329  1.2455
 6575TIP3   OH241215   6.388   1.488  12.936 -0.3313  0.3445 -0.2169
 6575TIP3    H141216   6.417   1.557  12.995  1.8294  0.4305 -1.2834
 6575TIP3    H241217   6.464   1.430  12.927 -2.1894 -2.5858  1.0876
 6576TIP3   OH241218   2.082   6.923   1.974 -0.4360 -0.2509  0.2672
 6576TIP3    H141219   2.100   6.830   1.959 -0.3428 -0.3815  1.1739
 6576TIP3    H241220   2.010   6.943   1.915 -1.1881 -1.1678  0.8509
 6577TIP3   OH241221   3.904   2.456  12.064 -0.0019 -0.6078  0.0722
 6577TIP3    H141222   3.937   2.449  11.975  2.1834 -0.1937  0.7970
 6577TIP3    H241223   3.917   2.369  12.102  1.5238 -0.1043  0.7541
 6578TIP3   OH241224   0.028   6.009   9.573  0.3258 -0.0734 -0.4413
 6578TIP3    H141225  -0.061   6.035   9.597 -0.4332 -1.4933 -1.5218
 6578TIP3    H241226   0.017   5.927   9.525  2.1902 -0.0627 -0.9887
 6579TIP3   OH241227   5.425   3.849  10.255  0.5930  0.1925  0.3277
 6579TIP3    H141228   5.418   3.812  10.167  1.7879  0.6324  0.0221
 6579TIP3    H241229   5.358   3.804  10.306  0.1678 -0.3724 -0.7068
 6580TIP3   OH241230   6.223   0.844  13.755 -0.2641 -0.0663 -0.2652
 6580TIP3    H141231   6.258   0.933  13.746 -2.1513  0.5351 -3.2832
 6580TIP3    H241232   6.139   0.855  13.799  0.1574 -0.5995  0.7095
 6581TIP3   OH241233   4.905   7.136   5.339 -0.0797  0.3563  0.2990
 6581TIP3    H141234   4.868   7.085   5.267 -0.1724  0.2955  0.3901
 6581TIP3    H241235   4.999   7.120   5.333 -0.0785  0.4198  0.1379
 6582TIP3   OH241236   2.006   6.034   1.315  0.4730 -0.2606 -0.3258
 6582TIP3    H141237   1.926   6.025   1.366 -0.3627 -1.1637 -1.7086
 6582TIP3    H241238   2.011   5.953   1.264  3.5266 -1.3064  1.3840
 6583TIP3   OH241239   4.521   7.152   0.741 -0.6126 -0.6547 -0.5401
 6583TIP3    H141240   4.591   7.194   0.791 -0.6493 -1.7040  0.4385
 6583TIP3    H241241   4.479   7.093   0.804 -0.4528 -2.2824 -1.8691
 6584TIP3   OH241242   3.461   3.690  13.489 -0.6772 -0.0118  0.0165
 6584TIP3    H141243   3.480   3.779  13.517 -1.3567  0.2119 -0.2004
 6584TIP3    H241244   3.452   3.641  13.571 -1.5978  0.4108  0.1849
 6585TIP3   OH241245   6.217   7.242   0.464 -0.2316 -0.2015 -0.5516
 6585TIP3    H141246   6.137   7.190   0.467  0.3629 -1.1114 -0.1269
 6585TIP3    H241247   6.288   7.178   0.464  0.5157  0.5973 -0.5256
 6586TIP3   OH241248   4.881   6.136  13.327  0.0511 -0.2669  0.1305
 6586TIP3    H141249   4.835   6.184  13.395  0.9904 -1.9241  2.0449
 6586TIP3    H241250   4.973   6.140  13.353  0.4303 -0.9385 -1.0421
 6587TIP3   OH241251   3.264   5.763  10.089 -0.4494 -0.0068  0.4613
 6587TIP3    H141252   3.318   5.738  10.013 -0.6724  0.2537  0.2165
 6587TIP3    H241253   3.241   5.854  10.073 -0.7247 -0.0333  0.7069
 6588TIP3   OH241254   5.332   2.431  13.805  1.0871  0.8380 -0.1925
 6588TIP3    H141255   5.423   2.460  13.800  1.7335 -0.7502  1.4365
 6588TIP3    H241256   5.294   2.484  13.874  1.4731 -0.1189  0.7840
 6589TIP3   OH241257   2.561   3.160  14.525  0.3091 -0.0783 -0.0470
 6589TIP3    H141258   2.655   3.139  14.519 -0.0738 -1.7199 -1.0894
 6589TIP3    H241259   2.527   3.099  14.591 -0.4085 -1.2189 -1.3982
 6590TIP3   OH241260   0.269   0.490   1.656 -0.1392 -0.2517  0.0512
 6590TIP3    H141261   0.182   0.454   1.673  0.0001  0.1802  1.8092
 6590TIP3    H241262   0.329   0.435   1.705  0.6237 -0.5888 -1.2037
 6591TIP3   OH241263   6.693   6.783   2.930 -0.6087  0.3317  0.0442
 6591TIP3    H141264   6.736   6.748   3.008 -0.1586 -1.2284 -0.8692
 6591TIP3    H241265   6.702   6.714   2.864  1.4499  2.6190 -2.2885
 6592TIP3   OH241266   3.329   1.304   1.376  0.2063  0.4075 -0.0180
 6592TIP3    H141267   3.278   1.225   1.395 -1.0002  1.1787  0.0369
 6592TIP3    H241268   3.401   1.273   1.321 -1.2398 -0.4902 -1.5058
 6593TIP3   OH241269   0.230   2.141   3.786 -0.2278 -0.1862 -0.2367
 6593TIP3    H141270   0.155   2.117   3.732  0.1244 -1.4012 -0.1987
 6593TIP3    H241271   0.297   2.076   3.765  0.5780  0.4740  0.2416
 6594TIP3   OH241272   0.338   2.564  11.524  0.5539 -0.6989 -0.1683
 6594TIP3    H141273   0.376   2.551  11.611  0.6709  0.3990 -0.0467
 6594TIP3    H241274   0.412   2.592  11.470  0.0270  1.1143 -0.0099
 6595TIP3   OH241275   0.842   5.822  11.505  0.4621 -0.1683  0.5265
 6595TIP3    H141276   0.930   5.820  11.469 -0.8232  1.6133 -3.2175
 6595TIP3    H241277   0.799   5.745  11.467  0.2745 -0.8936  2.1330
 6596TIP3   OH241278   2.487   2.232   3.034  0.1031  0.2668  0.0881
 6596TIP3    H141279   2.560   2.200   3.088  0.5218  0.2674 -0.4708
 6596TIP3    H241280   2.433   2.155   3.019  0.9487 -0.1506 -0.9996
 6597TIP3   OH241281   0.312   5.009  12.656  0.1987  0.2730 -0.1912
 6597TIP3    H141282   0.246   5.078  12.655 -1.1440 -0.8208  2.6109
 6597TIP3    H241283   0.276   4.942  12.713  2.7949 -1.3994 -0.3447
 6598TIP3   OH241284   5.716   5.923   4.364 -0.3467 -0.1003 -0.1392
 6598TIP3    H141285   5.704   5.899   4.272 -0.6403  1.4157 -0.5207
 6598TIP3    H241286   5.801   5.886   4.387 -0.7703 -1.4818 -0.6651
 6599TIP3   OH241287   0.896   0.202  10.940  0.1269  0.0929 -0.0536
 6599TIP3    H141288   0.958   0.150  10.990  1.3182 -0.1824 -1.7036
 6599TIP3    H241289   0.895   0.161  10.853 -3.2714 -0.6054  0.1868
 6600TIP3   OH241290   6.802   2.423   2.136 -0.3378 -0.7191  0.4472
 6600TIP3    H141291   6.857   2.453   2.065 -1.0446  1.0315  0.5998
 6600TIP3    H241292   6.856   2.431   2.215 -0.8201  1.2387  0.6327
 6601TIP3   OH241293   1.528   4.982  14.474  0.2219 -0.4292 -0.3660
 6601TIP3    H141294   1.582   5.013  14.547  0.1704 -0.1396 -0.4521
 6601TIP3    H241295   1.574   5.010  14.395  2.0131 -3.4676 -0.5918
 6602TIP3   OH241296   1.807   3.043  14.066 -0.3845  0.2469 -0.0689
 6602TIP3    H141297   1.777   3.109  14.004 -2.1472 -0.8063 -0.3844
 6602TIP3    H241298   1.888   3.009  14.028  0.3014  1.8661 -0.1263
 6603TIP3   OH241299   6.932   0.206   0.142 -0.8173  0.3390  0.1035
 6603TIP3    H141300   6.992   0.280   0.131  1.6953 -1.7230 -1.2314
 6603TIP3    H241301   6.904   0.185   0.053  0.0220 -1.3899  0.2023
 6604TIP3   OH241302   0.161   6.989  11.712  0.2014  0.1980 -0.3965
 6604TIP3    H141303   0.123   7.031  11.789  0.7001 -1.9219  1.1038
 6604TIP3    H241304   0.203   7.061  11.664  0.6693  1.4915  1.7872
 6605TIP3   OH241305   3.564   4.380  11.566  0.6095 -0.7927 -0.2788
 6605TIP3    H141306   3.617   4.456  11.541 -1.1710  0.2750 -0.9539
 6605TIP3    H241307   3.598   4.355  11.652  1.6201  0.4072 -0.2951
 6606TIP3   OH241308   7.010   6.626  11.094 -0.4874 -0.0293 -0.0056
 6606TIP3    H141309   7.058   6.698  11.134 -0.9597  0.9267 -1.1012
 6606TIP3    H241310   6.955   6.592  11.165  1.9895 -1.3996  1.3813
 6607TIP3   OH241311   3.049   2.788   1.682  0.2683  0.2047 -0.5008
 6607TIP3    H141312   3.035   2.815   1.591  0.7035  1.5795 -0.1846
 6607TIP3    H241313   3.111   2.853   1.716  0.6463 -0.7070  0.5800
 6608TIP3   OH241314   4.416   2.258   4.578 -0.3810 -0.3392  0.0707
 6608TIP3    H141315   4.390   2.184   4.522 -1.6173  0.1896 -0.0840
 6608TIP3    H241316   4.352   2.327   4.558 -0.2869  0.1850  1.4545
 6609TIP3   OH241317   6.879   7.101   1.116 -0.4700 -0.5057 -0.0992
 6609TIP3    H141318   6.814   7.074   1.051 -1.0645  0.4205  0.1088
 6609TIP3    H241319   6.961   7.060   1.085 -0.8208 -0.3971 -1.2133
 6610TIP3   OH241320   3.330   1.395  13.713  0.1006  0.5212  0.0776
 6610TIP3    H141321   3.239   1.372  13.694 -0.1427  1.1744  0.4266
 6610TIP3    H241322   3.367   1.419  13.628  0.0532 -0.1040 -0.1219
 6611TIP3   OH241323   0.496   5.454  12.750  0.2949  0.8161 -0.0590
 6611TIP3    H141324   0.551   5.431  12.676  3.6525  1.6187  1.9409
 6611TIP3    H241325   0.514   5.385  12.815  1.4947  2.6904  1.7483
 6612TIP3   OH241326   1.389   6.561   9.569  0.4174  0.7256 -0.1488
 6612TIP3    H141327   1.321   6.619   9.535  0.0790  1.5494  1.8012
 6612TIP3    H241328   1.470   6.593   9.529 -0.2683 -0.4340 -2.7089
 6613TIP3   OH241329   3.244   0.862  12.369 -0.0595 -0.3819  0.4100
 6613TIP3    H141330   3.263   0.955  12.385  1.5414 -0.7549  0.8826
 6613TIP3    H241331   3.163   0.846  12.416 -0.5148  0.8393  0.0863
 6614TIP3   OH241332   1.429   4.306  13.449 -0.3044 -0.0029 -0.5741
 6614TIP3    H141333   1.509   4.309  13.397 -0.2399 -2.1309 -0.6717
 6614TIP3    H241334   1.361   4.341  13.391  0.0618 -0.8057 -1.5002
 6615TIP3   OH241335   4.076   5.914  13.662 -0.1205 -0.1943  0.0200
 6615TIP3    H141336   4.064   5.925  13.567 -0.9095  0.7867  0.2144
 6615TIP3    H241337   4.141   5.844  13.670 -1.4304 -1.6251 -1.2107
 6616TIP3   OH241338   6.642   3.578   2.602  0.1837  0.2161  0.1699
 6616TIP3    H141339   6.615   3.669   2.619 -0.7484  0.8652 -3.7760
 6616TIP3    H241340   6.733   3.585   2.575 -0.7897  0.6889 -3.5513
 6617TIP3   OH241341   2.714   5.850   0.131 -0.3176  0.3980 -0.5155
 6617TIP3    H141342   2.624   5.829   0.155 -1.3605  4.5250 -0.0062
 6617TIP3    H241343   2.706   5.897   0.048  1.5141  0.0522 -0.9383
 6618TIP3   OH241344   5.104   5.363   4.340  0.3980 -0.0669  0.1517
 6618TIP3    H141345   5.057   5.280   4.331 -0.2889  0.3395 -0.0846
 6618TIP3    H241346   5.122   5.390   4.250  1.8427 -0.6231  0.2388
 6619TIP3   OH241347   0.688   6.324  11.860 -0.2903  0.2276 -0.4741
 6619TIP3    H141348   0.693   6.353  11.769  0.3908  1.3908 -0.0825
 6619TIP3    H241349   0.758   6.260  11.870  1.0325  1.6587 -0.2440
 6620TIP3   OH241350   4.617   3.988   3.145 -0.3808  0.1970 -0.7268
 6620TIP3    H141351   4.660   4.053   3.201 -2.3678  1.3247 -0.4318
 6620TIP3    H241352   4.601   4.034   3.063  0.0922 -0.6124 -1.2808
 6621TIP3   OH241353   5.851   2.106  14.903 -0.7606 -0.0264  0.0324
 6621TIP3    H141354   5.893   2.149  14.978 -1.0556 -0.1317  0.2586
 6621TIP3    H241355   5.812   2.178  14.854  1.4052  0.3373 -1.3133
 6622TIP3   OH241356   5.130   1.450   0.265  0.2127  0.0244 -0.3606
 6622TIP3    H141357   5.223   1.459   0.285  0.2506  1.0370 -0.9629
 6622TIP3    H241358   5.101   1.538   0.241 -0.9737 -0.2170  0.0971
 6623TIP3   OH241359   5.874   0.365   3.110  0.1332 -0.0122  0.0136
 6623TIP3    H141360   5.784   0.396   3.111  0.2849  0.4195  0.5394
 6623TIP3    H241361   5.924   0.437   3.072  0.4847  0.4137  1.2380
 6624TIP3   OH241362   4.816   5.205  12.146 -0.5280 -0.0457 -0.8489
 6624TIP3    H141363   4.829   5.111  12.132 -1.9986 -0.2911 -0.7379
 6624TIP3    H241364   4.818   5.216  12.241 -1.2012 -0.1182 -0.8193
 6625TIP3   OH241365   2.264   2.203  10.864 -0.0426 -0.8093 -0.0083
 6625TIP3    H141366   2.229   2.209  10.775 -0.9351 -2.1786  0.2234
 6625TIP3    H241367   2.188   2.199  10.921  0.4709 -1.8869  0.6557
 6626TIP3   OH241368   3.998   0.547   4.319 -0.0159 -0.3459  0.0261
 6626TIP3    H141369   4.009   0.615   4.385 -0.0777  0.6264 -0.9307
 6626TIP3    H241370   3.994   0.595   4.236  1.7657 -1.6277 -0.8642
 6627TIP3   OH241371   0.335   7.182   1.853 -0.3418 -0.1189  0.6544
 6627TIP3    H141372   0.328   7.093   1.888  1.0268 -0.0003  1.3075
 6627TIP3    H241373   0.246   7.216   1.855 -0.9523 -1.6046  0.0287
 6628TIP3   OH241374   1.103   1.775  11.542 -0.0141 -0.2453  0.0827
 6628TIP3    H141375   1.176   1.717  11.563 -1.1143 -1.7785 -0.1707
 6628TIP3    H241376   1.084   1.821  11.624 -0.3234 -1.6463  0.8280
 6629TIP3   OH241377   5.550   4.681  10.720 -0.1352 -0.2235 -0.5626
 6629TIP3    H141378   5.468   4.705  10.678 -0.0357 -1.1848 -1.3243
 6629TIP3    H241379   5.591   4.765  10.741 -1.1259  0.2647 -0.5211
 6630TIP3   OH241380   1.028   0.931  14.786 -0.0205  0.3065 -0.0089
 6630TIP3    H141381   1.051   0.860  14.725  0.3004 -0.2574  0.7538
 6630TIP3    H241382   1.100   0.993  14.778 -0.2722  0.5204 -0.6377
 6631TIP3   OH241383   3.243   1.836  10.858  0.4460 -0.7852  0.1268
 6631TIP3    H141384   3.176   1.815  10.923 -1.1440  0.2274 -1.0976
 6631TIP3    H241385   3.243   1.762  10.798 -0.0700 -0.4920 -0.2408
 6632TIP3   OH241386   4.312   6.714  14.631  0.3495  0.5748  0.3306
 6632TIP3    H141387   4.267   6.638  14.595  4.0669 -2.2043  0.9611
 6632TIP3    H241388   4.287   6.786  14.574 -2.4672 -1.3161 -1.0266
 6633TIP3   OH241389   1.448   2.962  13.312 -0.1737  0.0285  0.0541
 6633TIP3    H141390   1.363   2.937  13.346 -0.4894 -1.1871 -1.4900
 6633TIP3    H241391   1.468   3.046  13.354 -1.1683 -0.6520  1.9900
 6634TIP3   OH241392   4.266   5.634  13.392  0.6213  0.3976  0.2414
 6634TIP3    H141393   4.307   5.711  13.432  0.5992 -0.2858  1.6304
 6634TIP3    H241394   4.277   5.565  13.457  0.7037 -0.8084 -1.0139
 6635TIP3   OH241395   3.627   1.923  11.237 -0.4413  0.0375 -0.6382
 6635TIP3    H141396   3.575   1.862  11.185 -2.1651 -0.6174  1.7045
 6635TIP3    H241397   3.564   1.964  11.297  1.5468 -0.1613  1.7572
 6636TIP3   OH241398   2.324   4.757  15.087 -0.3035  0.6060  0.8924
 6636TIP3    H141399   2.266   4.769  15.011  0.8981  1.2045  0.0254
 6636TIP3    H241400   2.361   4.670  15.076 -0.9427  0.2611  1.3953
 6637TIP3   OH241401   4.079   3.466   0.130 -0.0472 -0.4626  0.1511
 6637TIP3    H141402   4.076   3.372   0.113 -0.8552 -0.5676  0.8136
 6637TIP3    H241403   4.009   3.482   0.193  1.2862  0.2828  1.5125
 6638TIP3   OH241404   0.963   1.820  13.782  0.0768  0.4338 -0.2521
 6638TIP3    H141405   1.045   1.779  13.754  0.2625  0.2254  0.5628
 6638TIP3    H241406   0.990   1.889  13.843 -0.2961  1.1270 -0.8611
 6639TIP3   OH241407   2.090   2.136  12.023 -0.2499  0.0382 -0.2859
 6639TIP3    H141408   2.091   2.052  12.068  1.4188  1.4267  2.5296
 6639TIP3    H241409   2.163   2.133  11.962 -0.6870 -0.7924 -0.7837
 6640TIP3   OH241410   1.523   3.049  11.016  0.5042  0.1429 -0.4733
 6640TIP3    H141411   1.559   2.994  11.085 -0.8874 -1.4013 -0.9286
 6640TIP3    H241412   1.580   3.126  11.015 -0.6210  1.3058  3.8472
 6641TIP3   OH241413   6.311   4.531  12.985  0.4960 -0.4686 -0.3662
 6641TIP3    H141414   6.404   4.519  12.962  0.6909 -1.9514  1.0031
 6641TIP3    H241415   6.265   4.467  12.931  0.1727  0.7334 -1.5401
 6642TIP3   OH241416   7.005   0.087  11.886 -0.3837  0.0488  0.1880
 6642TIP3    H141417   6.912   0.067  11.899 -0.4448  1.0700  1.5190
 6642TIP3    H241418   7.051   0.032  11.950  0.0758 -1.4642 -1.3734
 6643TIP3   OH241419   6.668   3.134  13.646 -0.3904 -0.3636  0.1509
 6643TIP3    H141420   6.595   3.194  13.630 -1.9721 -2.2469 -0.0092
 6643TIP3    H241421   6.715   3.131  13.562 -1.0611 -0.3392 -0.2359
 6644TIP3   OH241422   3.105   4.329   0.958  0.1776  0.4086 -0.9443
 6644TIP3    H141423   3.034   4.382   0.994 -1.6001 -1.5484 -1.3281
 6644TIP3    H241424   3.074   4.304   0.871  0.3514 -2.1101 -0.3763
 6645TIP3   OH241425   2.406   7.112  10.283  0.0102 -0.2833  0.0407
 6645TIP3    H141426   2.438   7.137  10.196 -0.8123  1.2315  0.1375
 6645TIP3    H241427   2.434   7.021  10.294  1.9677  0.1655 -0.9206
 6646TIP3   OH241428   0.093   6.044   0.519 -0.0779  0.6173 -0.0187
 6646TIP3    H141429   0.040   5.965   0.504 -3.3974  1.7948  3.7432
 6646TIP3    H241430   0.069   6.103   0.448 -2.0762  0.1923  0.2399
 6647TIP3   OH241431   6.257   0.354  10.271  0.3079  0.2061 -0.5004
 6647TIP3    H141432   6.169   0.327  10.298  0.4796  1.0509  0.9466
 6647TIP3    H241433   6.273   0.303  10.191  0.2318 -3.3202  1.5105
 6648TIP3   OH241434   4.221   5.459  11.123 -0.4334 -0.5526  0.1700
 6648TIP3    H141435   4.294   5.504  11.080 -0.4226  0.3936  1.1510
 6648TIP3    H241436   4.252   5.369  11.135 -0.3294 -0.7850 -1.5175
 6649TIP3   OH241437   3.829   1.942  11.070  0.0924 -0.0791 -0.3864
 6649TIP3    H141438   3.880   1.863  11.091  0.7968  0.0484 -1.4890
 6649TIP3    H241439   3.774   1.957  11.146  0.8910 -0.8998  0.3751
 6650TIP3   OH241440   4.526   1.651  11.454 -0.3164 -0.7723 -0.3685
 6650TIP3    H141441   4.441   1.694  11.468  0.2430  0.1971  0.1597
 6650TIP3    H241442   4.517   1.606  11.370 -1.6769 -1.4958  0.1418
 6651TIP3   OH241443   1.687   1.112  13.021 -0.6666 -0.4335  0.3726
 6651TIP3    H141444   1.704   1.025  12.984  0.5431  0.1168 -0.4629
 6651TIP3    H241445   1.609   1.142  12.975 -0.9485 -0.9832  0.4854
 6652TIP3   OH241446   6.964   4.628   4.189  0.0506  0.4394 -0.1705
 6652TIP3    H141447   6.952   4.553   4.131  2.0084  0.0386 -0.1462
 6652TIP3    H241448   7.013   4.593   4.264 -1.2842  1.2196  1.1131
 6653TIP3   OH241449   4.082   4.931   1.037  0.1525  0.0058 -0.0492
 6653TIP3    H141450   4.028   5.002   1.071  0.3590  0.1787 -0.0786
 6653TIP3    H241451   4.158   4.975   0.997 -0.6700 -0.1016 -1.8352
 6654TIP3   OH241452   5.185   6.292  10.712 -0.0599 -0.4555  0.2895
 6654TIP3    H141453   5.115   6.347  10.746  0.4387 -0.5514  1.5273
 6654TIP3    H241454   5.241   6.352  10.662 -0.2371 -0.1031  0.5095
 6655TIP3   OH241455   7.228   3.785   1.099  0.1993 -0.0979 -0.0067
 6655TIP3    H141456   7.240   3.717   1.033  0.3716  0.5119 -0.6301
 6655TIP3    H241457   7.311   3.787   1.147 -1.0630 -2.8895  2.5886
 6656TIP3   OH241458   6.502   0.000  13.713  0.7148  0.3125  0.2850
 6656TIP3    H141459   6.488   0.092  13.687 -0.3189  0.4164  1.1390
 6656TIP3    H241460   6.416  -0.030  13.741  1.3314 -0.4893  1.3750
 6657TIP3   OH241461   5.422   3.438  14.795 -0.1900  0.0756  0.4345
 6657TIP3    H141462   5.383   3.354  14.819 -0.3041  0.0482  0.1591
 6657TIP3    H241463   5.352   3.502  14.809 -0.1879  0.0889  0.3854
 6658TIP3   OH241464   3.735   0.246  11.629  0.0781  0.5604  0.8765
 6658TIP3    H141465   3.785   0.165  11.628 -1.2931 -0.3121 -0.7439
 6658TIP3    H241466   3.719   0.264  11.722  2.5161  0.3800  1.4028
 6659TIP3   OH241467   0.632   6.800  12.393  0.4147  0.5705 -0.3542
 6659TIP3    H141468   0.717   6.840  12.373  2.0866 -2.7170 -0.4509
 6659TIP3    H241469   0.644   6.758  12.478 -1.4921  0.9199  0.1393
 6660TIP3   OH241470   1.952   1.912  11.512 -0.4508 -0.7743 -0.0964
 6660TIP3    H141471   1.880   1.975  11.520 -0.3090 -0.5965 -0.2186
 6660TIP3    H241472   1.977   1.894  11.603  0.7960  0.8403 -0.0715
 6661TIP3   OH241473   5.568   5.548   0.946  0.0510 -0.2340 -0.6601
 6661TIP3    H141474   5.628   5.476   0.929  0.6456  0.5826 -2.2682
 6661TIP3    H241475   5.597   5.618   0.887 -0.3868  1.3891  0.9384
 6662TIP3   OH241476   5.890   1.380  12.221 -0.2878 -0.5921  0.2290
 6662TIP3    H141477   5.959   1.413  12.164  0.6498 -0.9276  1.1513
 6662TIP3    H241478   5.905   1.286  12.225 -0.5587 -0.6158  0.7497
 6663TIP3   OH241479   5.151   4.024   0.640  0.3187  0.3716  0.0738
 6663TIP3    H141480   5.233   4.067   0.616  0.7524  0.2420  1.2569
 6663TIP3    H241481   5.124   3.978   0.560  0.3999  1.9410 -0.8850
 6664TIP3   OH241482   4.914   1.553  12.851 -0.4566 -0.1712 -0.0190
 6664TIP3    H141483   4.843   1.556  12.916 -0.0636  0.3347  0.4000
 6664TIP3    H241484   4.926   1.644  12.825  0.7786 -0.0957  0.7378
 6665TIP3   OH241485   0.222   1.986  14.122 -0.3472  0.4486  0.8823
 6665TIP3    H141486   0.231   1.896  14.152  0.8118  0.1753 -0.2146
 6665TIP3    H241487   0.277   2.037  14.182  0.1631  0.2162  0.6185
 6666TIP3   OH241488   3.656   6.493  13.891 -0.2595  0.0753  0.6132
 6666TIP3    H141489   3.681   6.538  13.811  1.7680 -0.6702  0.7593
 6666TIP3    H241490   3.642   6.563  13.955  2.0230  0.6093  0.6267
 6667TIP3   OH241491   5.079   5.526   1.809  0.2324  0.5170  0.0824
 6667TIP3    H141492   4.997   5.555   1.768 -1.0355 -0.2404  1.9223
 6667TIP3    H241493   5.110   5.455   1.753 -0.6772  0.4493 -0.3554
 6668TIP3   OH241494   3.533   0.960  11.518 -0.0283 -0.3447  0.1640
 6668TIP3    H141495   3.452   0.920  11.548  0.3365 -1.7943 -0.6980
 6668TIP3    H241496   3.517   0.982  11.427 -0.3501  1.9162  0.7137
 6669TIP3   OH241497   6.704   0.712   0.399  0.4576  0.2843 -0.5354
 6669TIP3    H141498   6.672   0.709   0.308 -0.2449  0.7029 -0.3075
 6669TIP3    H241499   6.678   0.627   0.436 -0.6019  0.6909 -0.2961
 6670TIP3   OH241500   5.049   2.829  15.193 -0.1431  0.2196 -0.1878
 6670TIP3    H141501   4.974   2.813  15.251  0.1919  0.8724  0.4359
 6670TIP3    H241502   5.013   2.882  15.122  0.0471  1.9861  0.9717
 6671TIP3   OH241503   0.667   5.087  13.609  0.0254 -0.3836 -0.5829
 6671TIP3    H141504   0.635   5.047  13.690  2.3116  0.5267  0.8805
 6671TIP3    H241505   0.683   5.013  13.550  1.8958 -1.5052  1.2011
 6672TIP3   OH241506   4.809   5.540   4.762 -0.2264 -0.3467  0.4270
 6672TIP3    H141507   4.877   5.605   4.780 -0.2075  0.3403 -1.8091
 6672TIP3    H241508   4.857   5.459   4.748 -0.1264 -0.5278  1.7427
 6673TIP3   OH241509   6.591   5.497   0.749 -0.2609 -0.5696  0.4436
 6673TIP3    H141510   6.614   5.538   0.832 -1.6746  1.7760 -0.2294
 6673TIP3    H241511   6.615   5.562   0.683 -1.1571 -1.4655 -0.8082
 6674TIP3   OH241512   0.903   6.146  11.886  0.1168  0.2841 -0.1443
 6674TIP3    H141513   0.992   6.141  11.921 -0.4590  1.4380  1.6090
 6674TIP3    H241514   0.854   6.082  11.937 -0.1478 -0.1086 -0.8812
 6675TIP3   OH241515   1.634   2.404  12.506  0.5731 -0.1838 -0.0843
 6675TIP3    H141516   1.680   2.464  12.448 -1.4216  1.1590 -0.3817
 6675TIP3    H241517   1.639   2.444  12.592  0.4805 -0.3359 -0.0062
 6676TIP3   OH241518   0.911   6.023   4.527 -0.3279  0.2191  0.1055
 6676TIP3    H141519   0.911   5.929   4.545  0.1384  0.0824 -0.5852
 6676TIP3    H241520   1.003   6.046   4.516 -0.5459  0.2823 -2.0958
 6677TIP3   OH241521   3.910   5.786  11.288  0.2666  0.2131 -0.3013
 6677TIP3    H141522   3.853   5.727  11.240  0.2788 -1.6011  1.7600
 6677TIP3    H241523   3.994   5.740  11.295 -0.1107 -0.2420  2.4793
 6678TIP3   OH241524   6.719   7.097  10.643  0.1412 -0.4083  0.6044
 6678TIP3    H141525   6.717   7.188  10.671  0.8629 -0.4239  0.7312
 6678TIP3    H241526   6.744   7.100  10.551 -1.8331 -0.3797  0.0308
 6679TIP3   OH241527   2.044   1.380   0.600  0.1216 -0.5272 -0.3398
 6679TIP3    H141528   2.087   1.400   0.683 -0.0721 -1.3673 -0.0255
 6679TIP3    H241529   1.979   1.449   0.589  0.3690 -0.2325  0.0514
 6680TIP3   OH241530   1.520   4.040  14.266 -0.2191  0.5963  0.6942
 6680TIP3    H141531   1.450   4.096  14.301 -1.6478 -0.0768 -0.9314
 6680TIP3    H241532   1.478   3.992  14.194  1.5633 -0.9023  0.5916
 6681TIP3   OH241533   2.644   1.545   1.340  0.5346 -0.1495 -0.1451
 6681TIP3    H141534   2.560   1.504   1.323  2.1658 -2.7306 -2.9185
 6681TIP3    H241535   2.643   1.626   1.288  0.0541 -0.5573 -0.7822
 6682TIP3   OH241536   4.507   2.429   5.773  0.1030 -0.8369  0.0447
 6682TIP3    H141537   4.539   2.453   5.686  1.6992  0.0558  0.8289
 6682TIP3    H241538   4.420   2.393   5.758 -0.8493  1.8948 -1.6414
 6683TIP3   OH241539   4.878   1.334  11.856  0.0626 -0.3191 -0.2149
 6683TIP3    H141540   4.864   1.317  11.763 -0.2138 -1.2235 -0.0174
 6683TIP3    H241541   4.962   1.380  11.859 -0.7826  1.3774 -1.0464
 6684TIP3   OH241542   0.323   0.313  14.007  0.0498 -0.2245  0.7059
 6684TIP3    H141543   0.283   0.322  13.920  0.9149 -0.5685  0.2659
 6684TIP3    H241544   0.252   0.336  14.067 -0.1433  1.5211 -0.1154
 6685TIP3   OH241545   1.530   5.918  11.034 -0.1984  0.1369 -0.3466
 6685TIP3    H141546   1.479   5.973  11.094  0.1010  0.1455 -0.1007
 6685TIP3    H241547   1.470   5.847  11.011  0.4130 -1.1187  1.7301
 6686TIP3   OH241548   6.631   2.803   2.386  0.2977 -0.4577  0.1576
 6686TIP3    H141549   6.641   2.783   2.479 -1.0856 -1.3206  0.1419
 6686TIP3    H241550   6.602   2.721   2.347  1.7929 -0.3666 -1.2210
 6687TIP3   OH241551   2.454   3.977  12.921  0.4526  0.3023 -0.7596
 6687TIP3    H141552   2.368   4.008  12.947 -0.0033 -1.1194 -0.5107
 6687TIP3    H241553   2.476   3.909  12.984  1.4999  0.2325 -1.1733
 6688TIP3   OH241554   0.977   3.850  14.874  0.4080  0.0863  0.1042
 6688TIP3    H141555   1.040   3.915  14.844  0.9560  1.1183  3.1124
 6688TIP3    H241556   1.007   3.767  14.836  1.2980  1.1445 -1.5984
 6689TIP3   OH241557   1.116   6.430  10.003 -0.2195 -0.2195  0.1064
 6689TIP3    H141558   1.154   6.351   9.965  0.9334  0.3840 -0.0510
 6689TIP3    H241559   1.182   6.462  10.064 -0.8124  0.4363  0.4216
 6690TIP3   OH241560   5.102   1.017   1.620 -0.0470  0.0394  0.4644
 6690TIP3    H141561   5.157   1.064   1.557  0.1833 -2.9454 -1.7758
 6690TIP3    H241562   5.162   0.956   1.663 -0.9472 -0.7525  0.6247
 6691TIP3   OH241563   4.487   2.498  13.455  0.1243  0.0404  0.1709
 6691TIP3    H141564   4.481   2.583  13.500 -2.2815 -0.8527  1.7520
 6691TIP3    H241565   4.403   2.490  13.410 -1.3916 -2.9876  3.1122
 6692TIP3   OH241566   1.389   5.626   9.759 -0.0445  0.5234 -0.3054
 6692TIP3    H141567   1.427   5.676   9.686 -1.0850  2.4731  0.4185
 6692TIP3    H241568   1.456   5.631   9.827 -0.5752  1.9595  0.1529
 6693TIP3   OH241569   5.663   5.241  13.147 -0.8940  0.4196  0.3021
 6693TIP3    H141570   5.725   5.225  13.218 -1.7995  1.9600  1.5097
 6693TIP3    H241571   5.577   5.244  13.191 -1.2070  4.5237 -0.2522
 6694TIP3   OH241572   0.455   4.639  11.233 -0.5824 -0.1890  0.0380
 6694TIP3    H141573   0.512   4.563  11.245  0.5492  0.3475 -1.6022
 6694TIP3    H241574   0.516   4.712  11.219 -1.6652  0.6881 -0.2102
 6695TIP3   OH241575   3.762   3.381  15.295 -0.0606 -0.2016  0.0402
 6695TIP3    H141576   3.751   3.307  15.236 -2.9660 -1.8723  2.4240
 6695TIP3    H241577   3.676   3.422  15.299  0.3980  0.6855  2.0456
 6696TIP3   OH241578   7.155   5.672  12.912  0.0483 -0.0779 -0.3115
 6696TIP3    H141579   7.178   5.765  12.915 -1.8562  0.4399 -0.8382
 6696TIP3    H241580   7.070   5.667  12.954  0.2190 -1.6478 -0.0844
 6697TIP3   OH241581   1.863   5.940  12.536 -0.3234 -0.2395  0.4894
 6697TIP3    H141582   1.957   5.940  12.555 -0.1811  0.0461 -0.1915
 6697TIP3    H241583   1.858   5.952  12.441 -1.0532 -0.0634  0.5481
 6698TIP3   OH241584   5.850   1.471  12.672 -0.7227 -0.8812 -0.2315
 6698TIP3    H141585   5.801   1.483  12.591 -2.5148 -1.7715  0.6649
 6698TIP3    H241586   5.906   1.549  12.678 -0.4339 -0.8657 -2.3537
 6699TIP3   OH241587   0.017   5.260  15.228 -0.1000 -0.2536  0.4214
 6699TIP3    H141588   0.017   5.184  15.170 -0.4261  0.6393 -0.8105
 6699TIP3    H241589   0.060   5.329  15.177 -0.5226  0.6079  1.1884
 6700TIP3   OH241590   6.939   1.542  13.554 -0.3922  0.2821 -0.0428
 6700TIP3    H141591   6.995   1.593  13.495  0.7355  1.2865  1.7954
 6700TIP3    H241592   6.961   1.451  13.536  0.4918  0.5998 -0.6234
 6701TIP3   OH241593   6.179   3.974  12.836  0.2163  0.0337 -0.8577
 6701TIP3    H141594   6.093   3.994  12.872  1.1079  0.8881  0.8991
 6701TIP3    H241595   6.203   3.891  12.877 -0.1473 -0.7138 -2.1004
 6702TIP3   OH241596   0.394   3.971   1.677  0.1003  0.1060  0.0538
 6702TIP3    H141597   0.426   3.901   1.734  0.2202  1.8543  2.2701
 6702TIP3    H241598   0.472   4.020   1.651 -0.1828  0.7570  0.4054
 6703TIP3   OH241599   4.109   2.627   6.013  0.4811  0.5381 -0.1836
 6703TIP3    H141600   4.044   2.677   5.962 -0.6718  2.0159  2.5093
 6703TIP3    H241601   4.193   2.659   5.982 -0.1449  1.0700 -1.4193
 6704TIP3   OH241602   2.923   3.672   2.469  0.0306 -0.0295 -0.2926
 6704TIP3    H141603   2.948   3.755   2.509 -0.4149 -0.5466  1.1117
 6704TIP3    H241604   2.828   3.668   2.478  0.0118 -0.5452 -0.6375
 6705TIP3   OH241605   0.282   3.392   4.702 -0.4979 -0.1950 -0.9333
 6705TIP3    H141606   0.295   3.325   4.769  0.7714  0.1685 -0.7844
 6705TIP3    H241607   0.188   3.406   4.699 -0.7414 -1.6506 -0.6460
 6706TIP3   OH241608   4.447   3.769   2.251  0.2536 -0.6833  0.1184
 6706TIP3    H141609   4.524   3.823   2.270 -0.3293  0.3023 -0.2743
 6706TIP3    H241610   4.447   3.759   2.156 -0.2986 -0.3740  0.0803
 6707TIP3   OH241611   7.207   5.217   0.774  0.2134 -0.0737 -0.1367
 6707TIP3    H141612   7.211   5.165   0.854 -0.9741 -1.6361 -1.0218
 6707TIP3    H241613   7.124   5.191   0.733  1.2416 -0.0963 -2.3552
 6708TIP3   OH241614   1.133   2.959   0.540 -0.3311  0.5552 -0.1389
 6708TIP3    H141615   1.157   2.949   0.632 -0.7054 -0.1903 -0.1136
 6708TIP3    H241616   1.077   2.884   0.522  0.1602  0.4153 -1.1163
 6709TIP3   OH241617   2.747   2.991   4.735  0.5670  0.4163 -0.2709
 6709TIP3    H141618   2.716   2.924   4.674 -0.0303 -0.3228  0.8111
 6709TIP3    H241619   2.825   2.952   4.776 -1.1166 -0.6912  2.1045
 6710TIP3   OH241620   5.485   7.066   9.844  0.3345  0.5689 -0.0652
 6710TIP3    H141621   5.520   6.977   9.845 -0.8353  0.0929  1.6583
 6710TIP3    H241622   5.400   7.058   9.800  0.4180  0.9226 -0.2958
 6711TIP3   OH241623   4.859   5.644   1.311 -0.5682 -0.3157 -0.1686
 6711TIP3    H141624   4.779   5.696   1.316 -0.8111 -0.4754 -1.6701
 6711TIP3    H241625   4.835   5.559   1.349 -0.3982  0.3742  1.5635
 6712TIP3   OH241626   6.136   0.824  13.477 -0.1798 -0.5859 -0.7086
 6712TIP3    H141627   6.179   0.848  13.559  0.7493  0.1166 -1.3786
 6712TIP3    H241628   6.161   0.733  13.463  1.8897  0.0692 -1.5390
 6713TIP3   OH241629   6.675   3.564   3.332  0.0194  0.3283  0.1923
 6713TIP3    H141630   6.604   3.626   3.317  0.0867  0.3412 -0.0721
 6713TIP3    H241631   6.689   3.566   3.427  0.5489  1.3014  0.1048
 6714TIP3   OH241632   0.162   1.553  13.842 -0.0734 -0.3913 -0.1968
 6714TIP3    H141633   0.179   1.462  13.821  1.8814 -1.0791  3.5051
 6714TIP3    H241634   0.104   1.550  13.919 -0.2602  1.4910 -0.2126
 6715TIP3   OH241635   2.550   0.313  13.154  0.3141 -0.1505  0.2642
 6715TIP3    H141636   2.555   0.394  13.103  1.0317 -0.2450  0.1833
 6715TIP3    H241637   2.459   0.284  13.142  0.1725  0.4034 -0.0677
 6716TIP3   OH241638   6.124   3.031   4.935 -0.6169  0.4499  0.2369
 6716TIP3    H141639   6.101   3.057   4.846  0.3657 -0.0618 -0.1806
 6716TIP3    H241640   6.115   2.936   4.936  0.2407  0.3608  0.4108
 6717TIP3   OH241641   6.118   3.993  12.091  0.2456 -0.4004 -0.1787
 6717TIP3    H141642   6.035   3.981  12.137  0.7730 -0.7459  0.7311
 6717TIP3    H241643   6.098   4.050  12.017 -0.6569  0.1014  0.4435
 6718TIP3   OH241644   5.540   6.523  12.655  0.2006 -0.3067 -0.3383
 6718TIP3    H141645   5.520   6.441  12.610  1.8460 -0.3314 -1.1219
 6718TIP3    H241646   5.563   6.584  12.585  1.8374 -0.0564  0.3738
 6719TIP3   OH241647   1.135   5.506   3.792  0.1973  0.6088  0.3205
 6719TIP3    H141648   1.184   5.573   3.841  1.4514 -1.3043  1.8423
 6719TIP3    H241649   1.058   5.489   3.847  0.0019  0.6484  0.0570
 6720TIP3   OH241650   5.234   4.866  12.291 -0.6574  0.3426 -0.1812
 6720TIP3    H141651   5.304   4.824  12.241  0.0723  0.0715  1.0381
 6720TIP3    H241652   5.261   4.958  12.298  1.3513 -0.3816  3.1436
 6721TIP3   OH241653   1.411   5.743   1.742 -0.6077  0.2635  0.0641
 6721TIP3    H141654   1.505   5.763   1.742 -0.1118 -1.6979 -1.2919
 6721TIP3    H241655   1.368   5.827   1.727  0.9346  1.1651  0.4715
 6722TIP3   OH241656   3.571   1.727   5.024  0.1634  0.4992 -0.6866
 6722TIP3    H141657   3.644   1.767   5.072  0.2830 -1.0250  0.5032
 6722TIP3    H241658   3.501   1.720   5.088 -1.0895  1.9558 -1.8251
 6723TIP3   OH241659   2.568   6.767  12.487 -0.2059  0.4648  0.2177
 6723TIP3    H141660   2.510   6.717  12.431  0.4008 -0.0413  0.0345
 6723TIP3    H241661   2.511   6.802  12.556 -0.7823  0.2821 -0.1663
 6724TIP3   OH241662   1.490   4.150  13.057  0.9256 -0.2558  0.0488
 6724TIP3    H141663   1.454   4.098  12.986 -0.9268  0.9860  0.0129
 6724TIP3    H241664   1.583   4.160  13.036  0.6446 -0.8734 -1.5805
 6725TIP3   OH241665   0.607   3.828   9.463 -0.3670 -0.1810  0.2532
 6725TIP3    H141666   0.560   3.891   9.518  0.1889 -1.8111  2.7525
 6725TIP3    H241667   0.699   3.842   9.484 -0.1830 -1.2166  0.1723
 6726TIP3   OH241668   5.162   6.630  12.717  0.7549 -0.7569  0.5696
 6726TIP3    H141669   5.245   6.676  12.723  0.2564  0.2948 -0.2138
 6726TIP3    H241670   5.176   6.548  12.764  2.5250 -1.0189 -0.3508
 6727TIP3   OH241671   1.949   7.127  14.603 -0.4282  0.5902 -0.0588
 6727TIP3    H141672   1.926   7.036  14.616 -0.1105  0.4229 -0.6419
 6727TIP3    H241673   1.882   7.162  14.545 -0.3295  0.6274 -0.1507
 6728TIP3   OH241674   3.217   1.607  10.728 -0.4106  0.2852  0.1299
 6728TIP3    H141675   3.184   1.537  10.784  0.0282  1.8338  2.4762
 6728TIP3    H241676   3.219   1.569  10.640 -0.7721 -2.4080  1.1936
 6729TIP3   OH241677   1.088   4.665  10.460  0.6999  0.2534 -0.2478
 6729TIP3    H141678   1.153   4.658  10.530 -3.3986 -1.0346  3.9562
 6729TIP3    H241679   1.084   4.577  10.423  1.7901  0.5564 -1.1722
 6730TIP3   OH241680   2.533   3.357   9.594 -0.0825  0.4388 -0.0758
 6730TIP3    H141681   2.516   3.451   9.597  0.6082  0.5739 -0.3077
 6730TIP3    H241682   2.468   3.319   9.653  0.2512  1.1474  0.7546
 6731TIP3   OH241683   0.771   3.231  11.842 -0.2924 -0.6245 -1.0010
 6731TIP3    H141684   0.849   3.267  11.799 -0.2908 -1.7125 -1.9695
 6731TIP3    H241685   0.786   3.136  11.842 -0.2090 -0.6695  1.6421
 6732TIP3   OH241686   2.450   6.250  15.032  0.3783  0.7255  0.4630
 6732TIP3    H141687   2.399   6.215  14.959  1.7791 -0.1754 -0.1079
 6732TIP3    H241688   2.423   6.342  15.037  1.0361  1.1174 -1.9082
 6733TIP3   OH241689   5.275   4.544  13.649  0.1607  0.0895  0.0493
 6733TIP3    H141690   5.329   4.531  13.727 -1.6696 -1.6026  1.1319
 6733TIP3    H241691   5.327   4.506  13.578  0.7284 -0.8183  0.9167
 6734TIP3   OH241692   7.166   5.876  10.591 -0.0274  0.1969 -0.4684
 6734TIP3    H141693   7.096   5.894  10.653  1.9523  1.2858  1.6177
 6734TIP3    H241694   7.185   5.783  10.603 -1.8761 -0.4146 -1.9655
 6735TIP3   OH241695   1.345   1.999   0.723 -0.0956 -0.2342  0.6239
 6735TIP3    H141696   1.322   1.911   0.691  0.2862  0.4795 -1.8333
 6735TIP3    H241697   1.405   1.983   0.796 -1.8196 -2.0025  1.7421
 6736TIP3   OH241698   3.162   3.997   9.637  0.3082 -0.6179  0.1696
 6736TIP3    H141699   3.197   3.946   9.565 -0.2932  0.5422 -0.9849
 6736TIP3    H241700   3.226   4.067   9.652 -0.2399 -0.0127 -0.2229
 6737TIP3   OH241701   3.767   4.189   4.123 -0.0397  0.1026  0.4070
 6737TIP3    H141702   3.778   4.138   4.043 -0.3807  1.0521 -0.2648
 6737TIP3    H241703   3.679   4.168   4.154  0.5953 -1.3304  1.3234
 6738TIP3   OH241704   5.032   0.368   3.638 -0.2222  0.1926  0.3966
 6738TIP3    H141705   4.993   0.324   3.714 -1.5869  0.2267 -0.2396
 6738TIP3    H241706   4.974   0.442   3.621 -0.1663 -0.0376 -0.9009
 6739TIP3   OH241707   3.311   4.409  11.796  0.9616  0.2612 -0.3540
 6739TIP3    H141708   3.253   4.477  11.763  0.7788  1.1308  1.6233
 6739TIP3    H241709   3.340   4.362  11.718 -1.9990  0.1014 -1.4816
 6740TIP3   OH241710   0.720   4.410  14.312  0.5918  0.0954  0.0353
 6740TIP3    H141711   0.661   4.401  14.237  0.2380 -1.1409  0.4433
 6740TIP3    H241712   0.805   4.382  14.279  0.8972  1.5049 -0.4460
 6741TIP3   OH241713   5.531   6.373  11.659 -0.0513 -0.7918  0.2442
 6741TIP3    H141714   5.588   6.322  11.717  1.3237  0.9760  0.5157
 6741TIP3    H241715   5.505   6.449  11.710 -1.4868 -0.8149 -0.3963
 6742TIP3   OH241716   6.125   3.486   2.373  0.2077 -0.1673 -0.3378
 6742TIP3    H141717   6.128   3.404   2.325  0.2896  0.0094 -0.6411
 6742TIP3    H241718   6.215   3.520   2.369  0.1503 -0.0097 -0.3116
 6743TIP3   OH241719   6.198   0.050  10.260 -0.0479 -0.3120 -0.1372
 6743TIP3    H141720   6.155  -0.034  10.243  1.4632 -1.2009  0.2139
 6743TIP3    H241721   6.290   0.034  10.242  0.0989  1.7232 -1.5490
 6744TIP3   OH241722   6.432   4.469   2.142 -0.1368 -0.6084  0.0631
 6744TIP3    H141723   6.400   4.536   2.202 -0.7958 -0.0278 -0.9152
 6744TIP3    H241724   6.453   4.517   2.062  1.6157 -1.2292  0.1196
 6745TIP3   OH241725   1.721   2.881  13.226 -0.3304  0.1687  0.9177
 6745TIP3    H141726   1.634   2.921  13.229  0.3150  1.5773  1.9457
 6745TIP3    H241727   1.766   2.917  13.303  0.3537 -2.4774  1.8436
 6746TIP3   OH241728   1.308   6.057   1.843 -0.1542  0.4450  0.1121
 6746TIP3    H141729   1.307   6.152   1.853  0.5569  0.3442  1.2845
 6746TIP3    H241730   1.216   6.035   1.825 -0.1853  1.4224 -1.0439
 6747TIP3   OH241731   3.475   6.875   2.140  0.5147 -0.1574  0.3091
 6747TIP3    H141732   3.468   6.858   2.046  0.7818 -0.2497  0.3074
 6747TIP3    H241733   3.389   6.852   2.174  0.7884 -1.2638  0.2718
 6748TIP3   OH241734   4.048   2.526   9.998 -0.4142 -0.5088 -0.4288
 6748TIP3    H141735   3.970   2.541   9.944 -0.6988 -0.2240  0.0554
 6748TIP3    H241736   4.068   2.611  10.035  0.7855 -0.3384 -1.4038
 6749TIP3   OH241737   5.836   5.660  11.670 -0.2022  0.0089 -0.7447
 6749TIP3    H141738   5.899   5.630  11.604  1.0329  1.1704 -0.1468
 6749TIP3    H241739   5.886   5.659  11.752 -1.4825 -0.6529  0.0602
 6750TIP3   OH241740   7.019   3.391   0.055  0.7739 -0.3117  0.2029
 6750TIP3    H141741   7.005   3.312   0.107 -2.2452  0.1674  0.2696
 6750TIP3    H241742   6.984   3.370  -0.031  1.4909  0.4189 -0.2809
 6751TIP3   OH241743   4.976   1.056   9.655  0.1407 -0.2676  0.3100
 6751TIP3    H141744   5.009   1.060   9.566  0.1899 -4.0466  0.0029
 6751TIP3    H241745   5.030   0.989   9.698  1.3252  2.6319  3.8367
 6752TIP3   OH241746   3.771   6.723  14.415 -0.0452  0.5102 -0.0197
 6752TIP3    H141747   3.722   6.729  14.497  1.5673 -0.8270  1.1151
 6752TIP3    H241748   3.781   6.814  14.386 -4.2434  0.8334 -1.0695
 6753TIP3   OH241749   0.657   2.913  12.303 -0.4080  0.3302 -0.0187
 6753TIP3    H141750   0.732   2.920  12.363 -0.1300 -2.2874  0.0248
 6753TIP3    H241751   0.595   2.856  12.348  0.1110 -2.3256 -2.4118
 6754TIP3   OH241752   2.403   5.720  14.300  0.5158  0.3740  0.2762
 6754TIP3    H141753   2.460   5.749  14.229 -0.1582  0.6660 -0.1604
 6754TIP3    H241754   2.327   5.682  14.256 -0.3476  1.4139  0.8147
 6755TIP3   OH241755   2.729   2.108   2.410  0.6966  0.1157 -0.0477
 6755TIP3    H141756   2.803   2.100   2.351 -0.2629 -0.1821 -1.2533
 6755TIP3    H241757   2.707   2.201   2.410  0.5625  0.0849 -0.3382
 6756TIP3   OH241758   3.728   6.756   1.952  0.0184 -0.3117  0.3375
 6756TIP3    H141759   3.799   6.698   1.982  1.7406  0.7430 -1.4278
 6756TIP3    H241760   3.766   6.844   1.955 -2.1519  0.6545  1.8508
 6757TIP3   OH241761   4.432   5.200   0.292  0.1042 -0.0496  0.2527
 6757TIP3    H141762   4.352   5.253   0.293 -0.3294 -0.6967  1.0061
 6757TIP3    H241763   4.403   5.113   0.266  0.8135  0.0533 -0.9721
 6758TIP3   OH241764   6.478   1.019   9.444 -0.1110 -0.2652  0.2243
 6758TIP3    H141765   6.398   1.052   9.485  0.2998 -0.2687  1.0502
 6758TIP3    H241766   6.529   1.098   9.426  0.0442 -0.3139  0.4416
 6759TIP3   OH241767   2.607   1.769   2.626  0.2634  0.0594 -0.6894
 6759TIP3    H141768   2.603   1.814   2.542 -2.3127 -0.3589 -0.8740
 6759TIP3    H241769   2.576   1.833   2.690  1.2479  0.0536 -0.1801
 6760TIP3   OH241770   6.080   5.362  11.523  0.1408 -0.3514  0.0900
 6760TIP3    H141771   6.121   5.342  11.608  1.1654  1.0605 -0.0374
 6760TIP3    H241772   6.147   5.410  11.475  0.0024 -2.1445 -2.0244
 6761TIP3   OH241773   2.183   4.891  13.693 -0.2166  0.2116 -0.1617
 6761TIP3    H141774   2.149   4.816  13.741 -0.6127  0.6758  0.3021
 6761TIP3    H241775   2.206   4.857  13.606  1.1251 -0.7741  0.5510
 6762TIP3   OH241776   6.031   5.962  15.307 -0.3292  0.1839  0.4738
 6762TIP3    H141777   5.984   6.043  15.326  0.6839  1.0204 -0.4707
 6762TIP3    H241778   5.981   5.894  15.352 -0.6630  1.4499  2.1050
 6763TIP3   OH241779   1.613   0.828  13.316  0.0265  0.0427  0.2457
 6763TIP3    H141780   1.688   0.883  13.338 -0.2362  0.9746 -1.1078
 6763TIP3    H241781   1.540   0.890  13.306 -0.8160 -0.7937  1.0130
 6764TIP3   OH241782   3.558   0.562   1.392 -0.3615  0.1962 -0.1943
 6764TIP3    H141783   3.492   0.514   1.442  0.2978 -0.0267  0.4617
 6764TIP3    H241784   3.630   0.577   1.453  1.1110 -1.3635 -1.4568
 6765TIP3   OH241785   2.194   5.020  14.196  0.3016  0.2390 -0.3260
 6765TIP3    H141786   2.281   5.005  14.158  0.4669 -0.6527  0.3629
 6765TIP3    H241787   2.173   5.110  14.173  0.5584 -0.1376 -2.1826
 6766TIP3   OH241788   0.202   2.907  12.348  0.1152  0.1126 -0.1428
 6766TIP3    H141789   0.203   2.869  12.436 -0.5867  0.8482  0.2014
 6766TIP3    H241790   0.202   2.832  12.289 -1.9393 -0.4905  0.5177
 6767TIP3   OH241791   4.900   4.895  13.393 -0.2532 -0.1310  0.2910
 6767TIP3    H141792   4.931   4.913  13.482  0.3490 -1.9702  0.4914
 6767TIP3    H241793   4.924   4.974  13.344 -1.2930  1.2471  1.8903
 6768TIP3   OH241794   0.191   4.577   0.064 -0.2200 -1.0932  0.4840
 6768TIP3    H141795   0.130   4.647   0.041  1.0982 -0.3410 -0.8537
 6768TIP3    H241796   0.140   4.519   0.121 -1.5300  0.6017  1.1128
 6769TIP3   OH241797   2.514   4.253   5.169  0.3098 -0.1746 -0.0292
 6769TIP3    H141798   2.548   4.342   5.169 -0.2245  0.0354  0.3502
 6769TIP3    H241799   2.521   4.225   5.261 -0.5270 -0.1312  0.0483
 6770TIP3   OH241800   5.972   6.126   1.805 -0.0715  0.6471  0.0906
 6770TIP3    H141801   5.930   6.099   1.723 -1.1988  0.6516  0.6485
 6770TIP3    H241802   5.903   6.169   1.855 -0.0553 -1.3363  2.0109
 6771TIP3   OH241803   2.179   5.442  12.020  0.2658 -0.3563 -0.9473
 6771TIP3    H141804   2.194   5.379  12.091  1.0484 -0.0039 -0.8023
 6771TIP3    H241805   2.224   5.521  12.048  0.5831 -0.2152 -1.8379
 6772TIP3   OH241806   4.803   1.110   9.852  0.4035  0.1194 -0.5409
 6772TIP3    H141807   4.852   1.087   9.773 -0.0314 -0.1951 -0.7249
 6772TIP3    H241808   4.785   1.204   9.843 -0.3997 -0.0836 -1.2534
 6773TIP3   OH241809   1.012   6.253  10.974  0.2244 -0.0052 -0.3440
 6773TIP3    H141810   0.954   6.212  11.039 -0.9242 -1.1941 -2.0420
 6773TIP3    H241811   1.099   6.219  10.994 -0.2226 -0.8783  0.1664
 6774TIP3   OH241812   1.622   6.900   2.891 -0.6121  1.2988  0.0892
 6774TIP3    H141813   1.560   6.836   2.855  0.0640  0.9893 -0.5401
 6774TIP3    H241814   1.595   6.983   2.853 -1.5227  1.4099  0.9445
 6775TIP3   OH241815   5.159   4.355  14.976  0.5016  0.1856 -0.6630
 6775TIP3    H141816   5.213   4.427  15.007 -1.3420  0.2102  3.1384
 6775TIP3    H241817   5.204   4.276  15.006 -0.5915  0.1436  1.0207
 6776TIP3   OH241818   4.070   5.252  13.601 -0.1199  0.4319  0.3745
 6776TIP3    H141819   3.989   5.211  13.571  0.2401  0.6692 -1.0060
 6776TIP3    H241820   4.048   5.290  13.686 -1.3400  0.1437  0.2065
 6777TIP3   OH241821   4.443   3.821  13.818 -0.0850  0.2712  0.0374
 6777TIP3    H141822   4.521   3.876  13.815  0.1559 -0.0642  0.0106
 6777TIP3    H241823   4.477   3.733  13.834 -0.4686  0.1430  0.1675
 6778TIP3   OH241824   4.368   2.584  11.431  0.9143  0.1061  0.1830
 6778TIP3    H141825   4.298   2.530  11.393  1.2057 -0.6802  0.7427
 6778TIP3    H241826   4.355   2.670  11.391 -1.1009  0.3130  1.1219
 6779TIP3   OH241827   2.569   5.320   3.949 -0.3997 -0.1407 -0.3423
 6779TIP3    H141828   2.528   5.400   3.979  1.3941  0.7942 -0.2563
 6779TIP3    H241829   2.551   5.317   3.855  2.0728  2.0512 -0.9977
 6780TIP3   OH241830   1.551   2.483  10.774  0.2787  0.3358 -0.0939
 6780TIP3    H141831   1.532   2.536  10.696  0.7264 -1.5570 -1.5854
 6780TIP3    H241832   1.472   2.491  10.828 -0.7079  0.4665 -1.4903
 6781TIP3   OH241833   3.325   2.273   4.092 -0.3187  0.0290 -0.3888
 6781TIP3    H141834   3.311   2.179   4.080  0.3804 -0.2538  0.8731
 6781TIP3    H241835   3.366   2.302   4.011 -0.0256 -0.8677 -0.5720
 6782TIP3   OH241836   6.308   0.905  14.795 -0.0108  0.1640  0.3165
 6782TIP3    H141837   6.391   0.866  14.821  0.9132  0.3983 -2.0122
 6782TIP3    H241838   6.262   0.835  14.748  0.3219  0.9218 -1.2043
 6783TIP3   OH241839   0.817   3.366   1.841 -0.3096 -0.6469  0.0044
 6783TIP3    H141840   0.817   3.358   1.936 -0.9581 -0.5194  0.0212
 6783TIP3    H241841   0.909   3.379   1.818 -0.4071  2.2720  0.8755
 6784TIP3   OH241842   6.192   7.006  10.203 -0.5684  0.0808 -0.7319
 6784TIP3    H141843   6.170   6.929  10.255  1.8482 -1.1213 -1.3514
 6784TIP3    H241844   6.177   6.980  10.112  1.1732 -0.0705 -1.0200
 6785TIP3   OH241845   6.766   3.929   0.995 -0.1925 -1.3762 -0.8529
 6785TIP3    H141846   6.796   3.845   1.030  0.0221 -0.4243  1.3428
 6785TIP3    H241847   6.686   3.906   0.947 -2.6350 -2.4205  3.2131
 6786TIP3   OH241848   7.220   2.283   2.951 -0.4063  0.1927 -0.1795
 6786TIP3    H141849   7.260   2.366   2.928 -1.8223  0.5606 -1.4290
 6786TIP3    H241850   7.158   2.305   3.021 -0.0581 -0.0103  0.2042
 6787TIP3   OH241851   4.465   4.763  12.453  0.1976  0.4026  0.5060
 6787TIP3    H141852   4.419   4.845  12.469  0.5083  0.3736  1.6589
 6787TIP3    H241853   4.401   4.695  12.471 -0.1110  0.3840 -0.6198
 6788TIP3   OH241854   1.191   4.799  11.982 -0.1154 -0.4780 -0.2513
 6788TIP3    H141855   1.108   4.808  11.935 -0.1718  1.2849  0.1122
 6788TIP3    H241856   1.225   4.714  11.955 -0.1629  0.4059 -3.4957
 6789TIP3   OH241857   6.412   4.733   0.683 -0.0899 -0.4370  0.6909
 6789TIP3    H141858   6.342   4.686   0.638  0.6433 -1.0830  0.1967
 6789TIP3    H241859   6.396   4.716   0.776 -1.4619  0.6840  0.6976
 6790TIP3   OH241860   6.345   0.807   1.903 -0.2858 -0.0545  0.6959
 6790TIP3    H141861   6.283   0.861   1.854  1.1258  0.3931 -0.6385
 6790TIP3    H241862   6.312   0.717   1.893  0.4129 -0.1022 -1.8499
 6791TIP3   OH241863   1.013   5.367   9.711 -0.8104 -0.1878 -0.3321
 6791TIP3    H141864   1.025   5.277   9.683  3.0113  0.3566 -1.0491
 6791TIP3    H241865   0.950   5.404   9.648 -1.8309 -2.0857 -0.4882
 6792TIP3   OH241866   2.068   4.912  11.627 -0.0561 -0.0589 -0.0293
 6792TIP3    H141867   2.036   5.000  11.647 -1.9188 -0.4872 -0.9075
 6792TIP3    H241868   2.163   4.922  11.619 -0.2584  1.9217 -0.4244
 6793TIP3   OH241869   5.854   3.487  12.072 -0.1025  0.6453 -0.0142
 6793TIP3    H141870   5.811   3.404  12.051  0.1502  0.7876 -1.1919
 6793TIP3    H241871   5.928   3.491  12.011  0.0551  1.6070  0.2295
 6794TIP3   OH241872   5.918   4.546  14.635  0.1930 -0.7133  0.3586
 6794TIP3    H141873   5.840   4.495  14.657  0.1477 -1.5864 -1.5746
 6794TIP3    H241874   5.965   4.556  14.717 -0.8412 -2.1159  1.1531
 6795TIP3   OH241875   6.615   1.523  14.012 -0.2266  0.2020  0.0425
 6795TIP3    H141876   6.681   1.472  14.059  0.8780  1.2876 -0.2827
 6795TIP3    H241877   6.637   1.513  13.920  0.6763  2.0834  0.0128
 6796TIP3   OH241878   5.940   3.863   1.232  0.1573 -0.4452 -0.5060
 6796TIP3    H141879   5.891   3.929   1.182  1.1144  1.1881  0.6013
 6796TIP3    H241880   6.019   3.849   1.181  1.6030  1.9569  0.8573
 6797TIP3   OH241881   4.866   0.701  10.984  0.5662  0.2847 -0.3623
 6797TIP3    H141882   4.904   0.707  10.896 -0.3688 -0.0215 -0.8036
 6797TIP3    H241883   4.860   0.607  11.001  0.2633  0.3336 -0.1928
 6798TIP3   OH241884   5.798   6.984  10.546  0.1200  0.1635 -0.2390
 6798TIP3    H141885   5.734   7.025  10.606 -0.8713 -0.0365 -1.1303
 6798TIP3    H241886   5.754   6.983  10.461  2.0657  1.8118 -1.3499
 6799TIP3   OH241887   4.347   4.098   1.634  0.6136 -0.0644 -0.1553
 6799TIP3    H141888   4.264   4.063   1.602  0.9590 -1.9793  0.8764
 6799TIP3    H241889   4.407   4.023   1.630  1.8190  0.8266  0.7303
 6800TIP3   OH241890   4.972   4.622  11.964 -0.0212  0.0799 -0.3200
 6800TIP3    H141891   4.985   4.627  12.059  1.5810 -1.2070 -0.4181
 6800TIP3    H241892   4.918   4.698  11.943  1.1716  1.4859  1.3703
 6801TIP3   OH241893   0.127   0.418   2.089 -0.6968  0.1013 -0.2171
 6801TIP3    H141894   0.061   0.362   2.129  1.1873 -1.5363  0.8188
 6801TIP3    H241895   0.202   0.360   2.075  0.5684  1.8838 -1.2117
 6802TIP3   OH241896   2.267   6.354  10.966  0.2354  0.2003  0.0955
 6802TIP3    H141897   2.229   6.346  11.053  1.8515  0.5665  0.8726
 6802TIP3    H241898   2.204   6.310  10.908 -0.6585 -0.4286  1.4925
 6803TIP3   OH241899   5.889   3.047   1.769  0.4390 -0.1849  0.2078
 6803TIP3    H141900   5.892   3.131   1.724 -0.4576  0.4316  1.2620
 6803TIP3    H241901   5.797   3.023   1.771  0.5888 -0.7618  0.6985
 6804TIP3   OH241902   0.931   3.601   0.001 -0.5612  0.3655  0.3955
 6804TIP3    H141903   0.929   3.599  -0.095 -2.1462 -0.9994  0.4158
 6804TIP3    H241904   1.008   3.653   0.022 -0.1842  0.7086 -1.6175
 6805TIP3   OH241905   5.669   7.158  15.180  0.8276  0.5535  0.2010
 6805TIP3    H141906   5.631   7.163  15.092  0.9801  0.1467  0.1093
 6805TIP3    H241907   5.763   7.160  15.165  0.9068 -1.3187  0.2083
 6806TIP3   OH241908   5.429   3.479  10.990  0.2601 -0.3274 -0.9490
 6806TIP3    H141909   5.387   3.393  11.003 -0.2583  0.1116  0.4966
 6806TIP3    H241910   5.417   3.497  10.897 -1.8271 -0.7297 -0.8176
 6807TIP3   OH241911   4.866   1.880   0.756 -0.4630 -0.3353  0.2666
 6807TIP3    H141912   4.792   1.843   0.803  0.0658 -0.4381  1.0438
 6807TIP3    H241913   4.914   1.805   0.722 -0.0938 -0.3203  0.7437
 6808TIP3   OH241914   4.032   5.274  14.660  0.2353  0.1482 -0.4581
 6808TIP3    H141915   3.962   5.225  14.701  1.8069 -0.4068  1.7313
 6808TIP3    H241916   4.085   5.209  14.615 -0.1878  0.4612 -1.4335
 6809TIP3   OH241917   1.686   2.688   1.458 -0.1287 -0.1546  0.2817
 6809TIP3    H141918   1.691   2.621   1.527  1.1983  0.3772  0.7474
 6809TIP3    H241919   1.687   2.771   1.506  1.2615  0.2275 -0.3708
 6810TIP3   OH241920   1.163   5.715   0.460  0.2652  0.1601  0.6997
 6810TIP3    H141921   1.226   5.735   0.391  0.7911 -0.2604  1.0413
 6810TIP3    H241922   1.091   5.671   0.416  0.6585 -0.2237  0.4338
 6811TIP3   OH241923   0.718   4.882  11.324  0.4573  0.6164  0.1115
 6811TIP3    H141924   0.810   4.903  11.343  0.8215 -0.0195 -0.9010
 6811TIP3    H241925   0.720   4.840  11.238 -0.7727  0.4705  0.1403
 6812TIP3   OH241926   3.440   2.046   1.648 -0.0965 -0.2623  0.0222
 6812TIP3    H141927   3.416   2.068   1.738  1.8923  2.4650  0.0385
 6812TIP3    H241928   3.528   2.007   1.656 -0.0354 -0.2908 -0.7161
 6813TIP3   OH241929   5.295   0.344  12.268  0.5340  0.2202  0.0205
 6813TIP3    H141930   5.249   0.414  12.314  0.5844 -0.3082  0.8979
 6813TIP3    H241931   5.248   0.335  12.185 -0.8464 -0.1709  0.8050
 6814TIP3   OH241932   0.012   5.062  14.710  0.2077 -0.0421  0.1778
 6814TIP3    H141933  -0.015   4.979  14.749 -0.9086  1.7493  3.6485
 6814TIP3    H241934   0.108   5.062  14.715  0.1906 -0.9529  0.5244
 6815TIP3   OH241935   6.595   6.786   9.751  0.4165  0.4127  0.1576
 6815TIP3    H141936   6.669   6.725   9.752 -0.7784 -1.1071 -0.4955
 6815TIP3    H241937   6.529   6.743   9.697 -2.0518  0.3698  2.9262
 6816TIP3   OH241938   4.423   6.683   5.050 -0.1918  0.4015 -0.7284
 6816TIP3    H141939   4.511   6.662   5.021  0.2730  4.0297 -2.5037
 6816TIP3    H241940   4.430   6.770   5.090 -2.6797 -0.0380  0.9366
 6817TIP3   OH241941   5.460   4.693  14.913  0.3026 -0.7057  0.2534
 6817TIP3    H141942   5.387   4.681  14.852  0.5013  0.0165 -0.1417
 6817TIP3    H241943   5.508   4.610  14.909  0.0841 -0.8115 -0.2639
 6818TIP3   OH241944   5.818   1.988  10.359 -0.2100 -0.2569  0.1946
 6818TIP3    H141945   5.760   1.939  10.302 -2.6682  1.3676  1.1398
 6818TIP3    H241946   5.794   1.960  10.448  0.5051  0.3927  0.6048
 6819TIP3   OH241947   2.216   0.570   2.888  0.1721 -0.4165 -0.3531
 6819TIP3    H141948   2.301   0.609   2.869 -0.1498 -0.2006 -1.4255
 6819TIP3    H241949   2.233   0.508   2.958  1.1188 -0.0100 -0.2140
 6820TIP3   OH241950   1.279   3.262   2.682 -0.2974  0.0900 -0.4932
 6820TIP3    H141951   1.206   3.292   2.628 -1.0966 -1.6836 -0.4750
 6820TIP3    H241952   1.323   3.342   2.710 -1.8965  1.1768 -0.9684
 6821TIP3   OH241953   6.742   2.787   3.593  0.8244 -0.3972  0.3994
 6821TIP3    H141954   6.662   2.787   3.540 -0.2787  0.7097  1.9732
 6821TIP3    H241955   6.783   2.702   3.575 -1.7647 -1.8822  1.0643
 6822TIP3   OH241956   2.098   1.529   9.391  0.4515 -0.6563  0.3373
 6822TIP3    H141957   2.074   1.477   9.314 -3.7738  1.1458  0.1198
 6822TIP3    H241958   2.138   1.608   9.356 -1.0167 -0.0593 -0.0723
 6823TIP3   OH241959   3.364   1.783  15.247  0.3894 -0.5062 -0.4058
 6823TIP3    H141960   3.332   1.808  15.333  1.8985 -0.8328  0.2842
 6823TIP3    H241961   3.300   1.820  15.186 -0.3034  0.3754  0.8035
 6824TIP3   OH241962   5.662   5.904  11.582 -0.0519  0.6475 -0.0047
 6824TIP3    H141963   5.717   5.897  11.660  1.9944  5.7436 -0.6247
 6824TIP3    H241964   5.597   5.835  11.592  2.2844 -1.3079  4.2952
 6825TIP3   OH241965   2.899   4.105   3.615  0.5398 -0.0286  0.5194
 6825TIP3    H141966   2.915   4.153   3.534 -1.8271  0.5833  0.3359
 6825TIP3    H241967   2.849   4.028   3.587  1.2949 -0.7849  1.2112
 6826TIP3   OH241968   6.627   1.659  15.292  0.2452  0.8015 -0.4178
 6826TIP3    H141969   6.687   1.718  15.248  0.9546  0.1655 -0.3266
 6826TIP3    H241970   6.561   1.716  15.333 -0.1313  1.4230 -1.8547
 6827TIP3   OH241971   2.809   6.808   5.458  0.2907  0.0742 -0.2934
 6827TIP3    H141972   2.792   6.771   5.371  1.9583 -1.1113 -0.1730
 6827TIP3    H241973   2.793   6.736   5.518 -0.9102  0.9061  0.4329
 6828TIP3   OH241974   2.445   0.568  12.826  0.9322 -0.2386  0.1023
 6828TIP3    H141975   2.512   0.543  12.763 -0.0612 -0.3529 -0.9513
 6828TIP3    H241976   2.389   0.491  12.834  1.2467 -0.3577  1.4343
 6829TIP3   OH241977   5.596   2.343  12.663 -0.3938  0.2583 -0.3258
 6829TIP3    H141978   5.599   2.426  12.712 -2.4163 -0.5305  1.2531
 6829TIP3    H241979   5.623   2.277  12.727 -0.5784 -0.5196 -1.0429
 6830TIP3   OH241980   6.136   4.335  13.245  0.1426 -0.1075 -0.0945
 6830TIP3    H141981   6.202   4.362  13.310  0.3778  0.5585 -0.5907
 6830TIP3    H241982   6.172   4.366  13.162 -0.0757 -1.0999 -0.5668
 6831TIP3   OH241983   0.042   2.706   1.984  0.0301 -0.0431  0.4604
 6831TIP3    H141984   0.125   2.747   2.007  0.5133 -0.4645 -0.5013
 6831TIP3    H241985  -0.006   2.773   1.936  0.0499  0.0086  0.5125
 6832TIP3   OH241986   6.361   2.450   2.440 -0.0036 -0.4558 -0.2769
 6832TIP3    H141987   6.321   2.482   2.521  0.0889  0.3773 -0.5517
 6832TIP3    H241988   6.384   2.358   2.459  1.5301  0.1767  1.2119
 6833TIP3   OH241989   4.816   0.793   1.664 -0.7318  1.1152 -0.0186
 6833TIP3    H141990   4.854   0.707   1.681 -0.4931  1.5430  1.8904
 6833TIP3    H241991   4.871   0.853   1.715 -1.3568  2.3034 -0.7020
 6834TIP3   OH241992   0.150   1.553   2.521 -0.5990 -0.2216 -0.3492
 6834TIP3    H141993   0.091   1.624   2.547 -0.0746 -0.5520  1.9596
 6834TIP3    H241994   0.111   1.475   2.561  0.9413 -0.5684  0.5428
 6835TIP3   OH241995   2.129   4.365   4.556 -0.2901  0.0128 -0.0656
 6835TIP3    H141996   2.062   4.320   4.608  0.7598 -1.5284  0.0062
 6835TIP3    H241997   2.126   4.322   4.471 -0.4207  0.9752 -0.5594
 6836TIP3   OH241998   6.311   6.791  14.684  0.0060  0.0948  0.1814
 6836TIP3    H141999   6.369   6.791  14.608  0.9182 -0.1849  0.8695
 6836TIP3    H242000   6.369   6.794  14.759 -0.5721 -4.5497  1.0846
 6837TIP3   OH242001   6.737   4.389  14.202  0.2301 -0.1177 -0.0646
 6837TIP3    H142002   6.784   4.328  14.258  1.4489 -0.2400 -1.1622
 6837TIP3    H242003   6.806   4.441  14.160 -0.5650 -0.5396 -2.0070
 6838TIP3   OH242004   2.267   1.162   4.884  0.0268  0.2807 -1.0328
 6838TIP3    H142005   2.267   1.220   4.960 -0.3397 -1.1495  0.1071
 6838TIP3    H242006   2.176   1.160   4.855  0.3924  1.9372 -2.4444
 6839TIP3   OH242007   1.320   6.254  13.626 -0.2458 -0.0541 -0.7249
 6839TIP3    H142008   1.316   6.347  13.604  0.0182 -0.1377 -1.1445
 6839TIP3    H242009   1.234   6.235  13.664 -0.1431  0.4609 -0.2091
 6840TIP3   OH242010   1.671   6.548  10.093  0.3318 -0.6033 -0.2304
 6840TIP3    H142011   1.748   6.591  10.056 -1.1938  2.6107 -0.0482
 6840TIP3    H242012   1.673   6.459  10.058  2.2016  0.4483 -3.0763
 6841TIP3   OH242013   4.945   2.416  14.368 -0.2546 -0.0466 -0.2830
 6841TIP3    H142014   4.967   2.447  14.280  0.6505 -0.7183 -0.3021
 6841TIP3    H242015   4.920   2.325  14.355 -0.9684  0.0896  0.0523
 6842TIP3   OH242016   1.601   5.684   2.336  0.2749  0.0896  0.7378
 6842TIP3    H142017   1.643   5.632   2.404  1.0288  0.6840  0.7499
 6842TIP3    H242018   1.653   5.765   2.333 -0.4387  0.5398  0.2425
 6843TIP3   OH242019   3.436   7.109   0.369  0.4490  0.2021  0.2643
 6843TIP3    H142020   3.406   7.098   0.278  1.8218 -1.7202 -0.0368
 6843TIP3    H242021   3.379   7.051   0.420 -1.0145  2.0703  0.8573
 6844TIP3   OH242022   1.030   3.705   0.878 -0.2570 -0.1311 -0.1648
 6844TIP3    H142023   1.014   3.798   0.893 -0.0698 -0.2027  0.5189
 6844TIP3    H242024   0.961   3.678   0.817  0.5200  0.7577 -1.4688
 6845TIP3   OH242025   4.110   2.773   5.442 -0.0117 -0.2038 -0.1689
 6845TIP3    H142026   4.026   2.745   5.406 -0.7999  1.4579  0.2773
 6845TIP3    H242027   4.115   2.733   5.528  0.7569 -2.1891 -1.0729
 6846TIP3   OH242028   3.223   2.637   0.436 -0.0094 -0.3912 -0.4283
 6846TIP3    H142029   3.294   2.612   0.379 -1.0330 -3.1311 -0.6638
 6846TIP3    H242030   3.261   2.636   0.524  0.9827  1.5003 -0.7854
 6847TIP3   OH242031   0.918   7.204   9.406 -0.3333 -0.3605 -0.3662
 6847TIP3    H142032   0.914   7.148   9.328 -1.3574  0.1160 -0.6627
 6847TIP3    H242033   0.837   7.187   9.453  1.5299 -2.9242  2.2485
 6848TIP3   OH242034   5.627   5.320   3.336 -0.2910  0.0168 -0.2075
 6848TIP3    H142035   5.707   5.313   3.284  0.0205 -1.1120  0.4010
 6848TIP3    H242036   5.564   5.263   3.291 -0.0709 -0.8303  0.5254
 6849TIP3   OH242037   1.613   0.437   2.462 -0.4214  0.2446  0.1690
 6849TIP3    H142038   1.584   0.361   2.410 -1.6775 -1.3946  3.0368
 6849TIP3    H242039   1.690   0.405   2.510 -1.3062  0.5391  1.8463
 6850TIP3   OH242040   0.562   1.196  10.749  0.2136 -0.3191  0.0565
 6850TIP3    H142041   0.535   1.108  10.724  0.8440 -0.1776 -1.2150
 6850TIP3    H242042   0.528   1.208  10.837 -0.1445 -1.7156  0.1219
 6851TIP3   OH242043   3.989   0.258   5.500  0.2378 -0.6239 -0.3510
 6851TIP3    H142044   4.051   0.186   5.487 -0.5173 -1.8054  1.9681
 6851TIP3    H242045   3.906   0.214   5.516 -0.4475  0.8234  0.1801
 6852TIP3   OH242046   1.819   1.917  14.799 -0.3497 -0.2739 -0.1828
 6852TIP3    H142047   1.731   1.912  14.762 -0.9440  1.8690  0.7609
 6852TIP3    H242048   1.820   2.000  14.847  3.3747  1.7124 -3.1902
 6853TIP3   OH242049   7.064   5.716  13.811 -0.4361 -0.4143 -0.2444
 6853TIP3    H142050   7.048   5.737  13.903 -4.1073  0.1913 -0.8470
 6853TIP3    H242051   7.044   5.623  13.804  2.8961 -1.2473  0.0303
 6854TIP3   OH242052   2.080   1.234  12.402 -0.2354 -0.2861 -0.2676
 6854TIP3    H142053   2.010   1.238  12.466  0.6505  0.6985  0.6925
 6854TIP3    H242054   2.086   1.142  12.378 -1.7483 -0.3982 -0.2727
 6855TIP3   OH242055   5.575   5.341  13.764  0.3324 -0.1422 -0.4737
 6855TIP3    H142056   5.495   5.337  13.713  0.4768  0.0510 -0.7182
 6855TIP3    H242057   5.599   5.249  13.779  1.6366 -0.2983 -2.9039
 6856TIP3   OH242058   0.096   3.673  10.824 -0.6528 -0.0115  0.0137
 6856TIP3    H142059   0.155   3.714  10.762  1.1999 -0.7252  1.2220
 6856TIP3    H242060   0.079   3.586  10.788  0.7340 -0.5706  0.6554
 6857TIP3   OH242061   3.785   1.854  11.441 -0.7572 -0.1900  0.2812
 6857TIP3    H142062   3.869   1.862  11.395 -0.7269  2.0655  0.6129
 6857TIP3    H242063   3.719   1.873  11.375 -0.8903 -0.0441  0.4531
 6858TIP3   OH242064   0.744   6.382  11.405  0.4033  0.2267  0.2339
 6858TIP3    H142065   0.710   6.383  11.316  0.0048 -0.4304  0.3697
 6858TIP3    H242066   0.666   6.389  11.460  0.7035  1.4574  0.5366
 6859TIP3   OH242067   0.847   2.971   4.004  0.1272  0.8441  0.1770
 6859TIP3    H142068   0.858   2.881   3.975  0.4535  1.2174 -0.9170
 6859TIP3    H242069   0.934   2.996   4.038  0.2786  1.0206 -0.3352
 6860TIP3   OH242070   2.841   4.585   3.392  0.2861 -0.6345  0.5845
 6860TIP3    H142071   2.748   4.591   3.413 -0.3601 -1.3860 -1.7769
 6860TIP3    H242072   2.853   4.496   3.359  1.7756 -0.4367  0.4870
 6861TIP3   OH242073   6.237   2.173   4.752  0.0190  0.5343  0.4162
 6861TIP3    H142074   6.176   2.215   4.691  0.2100  2.6466  1.5760
 6861TIP3    H242075   6.210   2.205   4.838  1.0799 -0.6706  1.2319
 6862TIP3   OH242076   4.043   0.616   1.730 -0.0846  0.5262  0.5897
 6862TIP3    H142077   3.986   0.596   1.804 -1.0349 -1.1480 -0.5174
 6862TIP3    H242078   4.127   0.577   1.753 -0.0148  1.1008  1.3157
 6863TIP3   OH242079   0.776   1.226  11.714 -0.3867  0.1324 -0.9371
 6863TIP3    H142080   0.829   1.301  11.741  0.1482 -0.6309  0.2636
 6863TIP3    H242081   0.830   1.181  11.650  0.3661 -0.5166  0.1114
 6864TIP3   OH242082   3.131   6.085  11.560 -0.0926  0.6799  1.1060
 6864TIP3    H142083   3.146   6.175  11.589 -0.5884  0.7188  1.2363
 6864TIP3    H242084   3.038   6.081  11.541  0.1731  0.5918 -0.2815
 6865TIP3   OH242085   3.056   1.640  13.995  0.2113  0.5896 -0.1023
 6865TIP3    H142086   3.121   1.704  14.024  1.7779 -0.4959 -1.0887
 6865TIP3    H242087   3.080   1.559  14.039 -0.8222  0.2914 -0.0594
 6866TIP3   OH242088   2.928   1.457   2.400  0.2568 -0.2613  0.0522
 6866TIP3    H142089   2.835   1.476   2.409  0.2144 -0.9010  1.0047
 6866TIP3    H242090   2.970   1.506   2.471  0.3617 -1.9774  1.2344
 6867TIP3   OH242091   6.894   7.051  13.330 -0.0919  0.4471  0.0807
 6867TIP3    H142092   6.880   7.004  13.248 -1.6189 -1.6762  1.4645
 6867TIP3    H242093   6.808   7.089  13.350  0.8897  3.2960 -0.5614
 6868TIP3   OH242094   2.557   5.387   1.034  0.0156  0.1439  0.9988
 6868TIP3    H142095   2.461   5.391   1.041 -0.1457  0.0891 -0.7178
 6868TIP3    H242096   2.588   5.449   1.100 -1.1304 -0.8235  2.5251
 6869TIP3   OH242097   4.685   1.438   5.353  0.1925  0.1189 -0.1595
 6869TIP3    H142098   4.751   1.445   5.423 -0.9473 -1.2284  1.1179
 6869TIP3    H242099   4.736   1.426   5.273  1.5286 -0.5391  0.7495
 6870TIP3   OH242100   6.389   4.636  11.414 -0.5941  0.6666 -0.1944
 6870TIP3    H142101   6.412   4.679  11.332 -0.7475 -0.0223 -0.6100
 6870TIP3    H242102   6.467   4.585  11.437 -0.4012  1.1871  0.3069
 6871TIP3   OH242103   1.923   4.948   0.451  0.3229  0.4004 -0.0205
 6871TIP3    H142104   1.843   5.001   0.461 -0.1830  0.1503 -2.1576
 6871TIP3    H242105   1.890   4.861   0.430  1.1670 -0.6204  2.6024
 6872TIP3   OH242106   6.690   0.570   1.496  0.0293  0.1782 -0.5002
 6872TIP3    H142107   6.668   0.487   1.538  0.2189 -0.2218 -1.1767
 6872TIP3    H242108   6.622   0.631   1.526 -0.4802 -0.3793 -0.5013
 6873TIP3   OH242109   1.557   3.663   4.186  0.2598  0.0110 -0.0888
 6873TIP3    H142110   1.517   3.601   4.247  0.8758 -0.0946  0.2130
 6873TIP3    H242111   1.601   3.727   4.242  1.6582 -0.6281 -0.4046
 6874TIP3   OH242112   1.314   2.840  12.077 -0.7013 -0.0606 -0.3723
 6874TIP3    H142113   1.314   2.878  11.989 -0.9859  1.5134  0.2806
 6874TIP3    H242114   1.269   2.905  12.131  1.9630  0.3727  1.4906
 6875TIP3   OH242115   2.220   3.170   2.177 -0.2029  0.1046  0.3451
 6875TIP3    H142116   2.131   3.197   2.154  0.3094  0.7343 -1.0632
 6875TIP3    H242117   2.209   3.106   2.247 -1.6045  2.4044  2.4007
 6876TIP3   OH242118   5.905   0.591   0.742 -0.4492 -0.0604  0.0128
 6876TIP3    H142119   5.985   0.587   0.795  0.3532 -0.6155 -1.1906
 6876TIP3    H242120   5.857   0.666   0.776  0.8150  0.5779  0.4416
 6877TIP3   OH242121   6.468   6.262   5.193  0.2745  1.2029  0.4460
 6877TIP3    H142122   6.382   6.220   5.191  0.6873  0.1839 -2.8936
 6877TIP3    H242123   6.451   6.350   5.227 -1.8233  0.5668  1.2066
 6878TIP3   OH242124   3.830   6.796   9.627 -0.3751  0.2361 -0.0348
 6878TIP3    H142125   3.859   6.705   9.624 -1.9651 -0.2849 -0.2914
 6878TIP3    H242126   3.740   6.794   9.596 -1.8856  1.2875  3.7192
 6879TIP3   OH242127   5.156   2.322  11.561 -0.1716 -0.2049  0.5086
 6879TIP3    H142128   5.189   2.254  11.620 -0.2384 -1.2573 -0.6089
 6879TIP3    H242129   5.067   2.340  11.593 -0.7755 -1.8588 -0.1317
 6880TIP3   OH242130   4.862   5.757   2.315  0.9061 -0.4954 -0.0291
 6880TIP3    H142131   4.837   5.736   2.225  0.5977  0.7955 -0.2525
 6880TIP3    H242132   4.874   5.852   2.316  0.1135 -0.3801  1.4816
 6881TIP3   OH242133   7.086   5.762   1.884 -0.2134  0.3752  1.1868
 6881TIP3    H142134   7.015   5.735   1.942 -1.2740  1.3707  0.3923
 6881TIP3    H242135   7.161   5.709   1.911 -1.1075 -0.3019  2.4061
 6882TIP3   OH242136   4.639   5.446   0.899 -0.3967  0.4879  0.5078
 6882TIP3    H142137   4.612   5.499   0.974 -1.5757  0.0247  0.4402
 6882TIP3    H242138   4.556   5.413   0.863  0.3340 -2.6897  1.4802
 6883TIP3   OH242139   2.781   5.880  14.573 -0.7041  0.2501 -0.4454
 6883TIP3    H142140   2.740   5.795  14.589  0.5727 -0.4358 -0.6442
 6883TIP3    H242141   2.874   5.865  14.591 -0.5030  1.6993 -0.1567
 6884TIP3   OH242142   2.069   7.012   1.524 -0.0421 -0.0327 -0.2458
 6884TIP3    H142143   2.036   7.056   1.603 -0.7030  2.8438 -1.9840
 6884TIP3    H242144   2.033   6.924   1.529 -1.3210  0.5274  1.9092
 6885TIP3   OH242145   5.396   6.089  11.878 -0.1165 -0.0748  0.9546
 6885TIP3    H142146   5.475   6.040  11.901 -0.0970  0.1602  1.4052
 6885TIP3    H242147   5.417   6.179  11.903 -0.0246  0.2211 -0.1732
 6886TIP3   OH242148   3.021   3.277   1.216  0.5667  0.2081 -0.0873
 6886TIP3    H142149   3.043   3.363   1.181  1.2671 -0.3391 -1.0493
 6886TIP3    H242150   2.947   3.247   1.162  0.0898  0.3412  0.4759
 6887TIP3   OH242151   2.483   0.976  10.884  0.3701  0.3719 -0.1622
 6887TIP3    H142152   2.503   1.039  10.953  1.5382 -2.0766  1.8869
 6887TIP3    H242153   2.391   0.991  10.864  0.2885  1.8892  1.1479
 6888TIP3   OH242154   6.523   2.965  11.761 -0.2553 -0.0412 -0.1270
 6888TIP3    H142155   6.561   2.995  11.843  0.7189  0.3636 -0.7104
 6888TIP3    H242156   6.483   2.881  11.782 -0.8490  0.4964  0.9681
 6889TIP3   OH242157   1.243   1.852  10.717  0.5199  0.3336 -0.4753
 6889TIP3    H142158   1.312   1.868  10.781  0.2272  0.2835 -0.1511
 6889TIP3    H242159   1.291   1.827  10.637  0.8171 -2.0925  0.3905
 6890TIP3   OH242160   0.404   0.355   1.830 -0.2214  0.2757 -0.4261
 6890TIP3    H142161   0.496   0.371   1.853 -0.7557  1.4422  1.1492
 6890TIP3    H242162   0.379   0.282   1.885 -0.2350 -0.0551 -0.8716
 6891TIP3   OH242163   4.075   4.362  15.270  0.1264  0.3761  0.5812
 6891TIP3    H142164   4.110   4.313  15.345 -0.7372 -1.3413 -0.0743
 6891TIP3    H242165   4.024   4.297  15.221  1.0190  1.3310 -1.7408
 6892TIP3   OH242166   3.411   1.812  12.213 -0.0892 -0.2569 -0.0867
 6892TIP3    H142167   3.324   1.853  12.222  0.5600  0.9157  1.1383
 6892TIP3    H242168   3.429   1.775  12.299  0.9885  0.2533 -0.0822
 6893TIP3   OH242169   5.737   1.036  14.511 -0.3078 -0.2059  0.4199
 6893TIP3    H142170   5.809   1.083  14.469 -0.8315  1.9837  1.8049
 6893TIP3    H242171   5.658   1.079  14.477 -0.8638 -0.9337  0.7781
 6894TIP3   OH242172   4.595   2.912   5.749  0.1616 -0.2691  0.1332
 6894TIP3    H142173   4.548   2.986   5.787 -2.4451 -1.5723 -0.3555
 6894TIP3    H242174   4.603   2.849   5.820  1.4159 -0.0007  0.2612
 6895TIP3   OH242175   4.890   5.606   0.832 -0.0136  0.2194 -0.3470
 6895TIP3    H142176   4.859   5.697   0.836 -0.6279 -0.0165  0.8578
 6895TIP3    H242177   4.810   5.555   0.818  0.0195 -0.2632  1.0152
 6896TIP3   OH242178   5.046   3.441  12.358  0.2047  0.0354  0.1151
 6896TIP3    H142179   4.954   3.461  12.343  0.5936  1.0978 -0.9444
 6896TIP3    H242180   5.069   3.377  12.291  0.7597  1.3648 -1.0135
 6897TIP3   OH242181   6.035   5.735  11.050  0.0717 -0.1534 -0.0518
 6897TIP3    H142182   5.980   5.813  11.058 -2.5945 -1.9760  0.6991
 6897TIP3    H242183   6.015   5.701  10.962 -1.6241 -1.8942  0.9428
 6898TIP3   OH242184   6.624   6.618  12.555  0.1107  0.4901 -0.0242
 6898TIP3    H142185   6.659   6.557  12.619  1.8773  0.3190 -1.0956
 6898TIP3    H242186   6.691   6.686  12.547 -0.8453  1.4190 -0.4624
 6899TIP3   OH242187   3.782   1.203  13.064  0.5199 -0.4439 -0.4015
 6899TIP3    H142188   3.800   1.109  13.053  2.5297 -0.1313 -0.0863
 6899TIP3    H242189   3.767   1.214  13.158 -0.3518 -0.5275 -0.5210
 6900TIP3   OH242190   5.726   3.801  14.391  0.0048  0.6380  0.0538
 6900TIP3    H142191   5.701   3.835  14.305 -0.0846  0.9204  0.1893
 6900TIP3    H242192   5.674   3.721  14.402  0.6680  0.1102 -0.5291
 6901TIP3   OH242193   0.181   5.931  11.060 -0.0458 -0.1063 -0.1783
 6901TIP3    H142194   0.217   5.863  11.117  1.1512  0.0440 -0.7254
 6901TIP3    H242195   0.172   6.007  11.116 -0.2526 -0.3783  0.1570
 6902TIP3   OH242196   3.279   3.120   1.157  0.0516 -0.2180  0.2689
 6902TIP3    H142197   3.345   3.185   1.133 -1.3981  0.7550 -1.2749
 6902TIP3    H242198   3.203   3.171   1.185 -0.0948 -1.3168  2.0270
 6903TIP3   OH242199   0.421   4.893  14.550  0.8089  0.0282 -0.3904
 6903TIP3    H142200   0.479   4.904  14.474  1.6812 -0.4709  0.1926
 6903TIP3    H242201   0.464   4.827  14.604 -0.7643 -1.0378 -0.3773
 6904TIP3   OH242202   1.619   0.589   1.737 -0.2787  0.1662 -0.0963
 6904TIP3    H142203   1.671   0.530   1.682  2.7004  3.0014 -0.6753
 6904TIP3    H242204   1.564   0.636   1.675 -0.8869 -0.3169  0.0683
 6905TIP3   OH242205   3.660   5.502   0.387  0.5022  0.2298  0.1251
 6905TIP3    H142206   3.695   5.419   0.422 -0.6971 -0.3712 -0.0544
 6905TIP3    H242207   3.566   5.497   0.403  0.4910  1.8793  0.7168
 6906TIP3   OH242208   6.210   0.608  11.509  0.1308  0.6503 -0.1984
 6906TIP3    H142209   6.193   0.652  11.426 -1.8340  0.9588  0.3254
 6906TIP3    H242210   6.306   0.603  11.514  0.3005  0.4661 -2.5386
 6907TIP3   OH242211   0.436   1.224  14.953 -0.1270  0.2401  0.6222
 6907TIP3    H142212   0.508   1.178  14.911  0.5412  1.2180  0.6628
 6907TIP3    H242213   0.401   1.162  15.016  0.8237 -0.1706  0.7601
 6908TIP3   OH242214   1.426   0.104  14.935  0.9652 -0.0033  0.0648
 6908TIP3    H142215   1.343   0.148  14.921  2.0915  2.2011 -0.0506
 6908TIP3    H242216   1.466   0.097  14.848  0.5108 -2.0194 -0.0458
 6909TIP3   OH242217   6.383   1.622  11.093 -0.1496 -0.0656 -0.1923
 6909TIP3    H142218   6.424   1.634  11.179 -0.2899  1.5308 -0.3238
 6909TIP3    H242219   6.429   1.547  11.055 -0.8710 -1.5738  1.7170
 6910TIP3   OH242220   1.339   4.631   0.306  0.7194  0.0551  0.2339
 6910TIP3    H142221   1.288   4.687   0.247 -0.8478  0.4983  1.9217
 6910TIP3    H242222   1.315   4.542   0.281  0.2344  0.2347  0.0442
 6911TIP3   OH242223   6.098   1.600  10.753 -0.4742  0.2826  0.4636
 6911TIP3    H142224   6.172   1.557  10.796 -0.2199 -0.4669 -0.6912
 6911TIP3    H242225   6.071   1.538  10.685 -0.6199  1.5965 -0.7112
 6912TIP3   OH242226   7.037   6.418   4.217 -0.5490 -0.3246  0.3975
 6912TIP3    H142227   7.118   6.453   4.255 -0.7765  1.7836 -0.9042
 6912TIP3    H242228   7.062   6.332   4.183  1.0153  0.0774  0.4420
 6913TIP3   OH242229   2.268   0.731   1.526 -0.4703 -0.0077  0.1887
 6913TIP3    H142230   2.361   0.720   1.504 -0.8282 -0.0183 -1.4496
 6913TIP3    H242231   2.252   0.667   1.594  0.4835 -0.7450 -0.2575
 6914TIP3   OH242232   3.365   2.509  14.050 -0.3433  0.5186 -0.0076
 6914TIP3    H142233   3.355   2.431  14.105 -0.1231  0.4888 -0.0110
 6914TIP3    H242234   3.309   2.491  13.974  0.3716 -0.0081 -0.4164
 6915TIP3   OH242235   3.192   4.760  10.986 -0.5414 -0.3542 -0.0203
 6915TIP3    H142236   3.132   4.799  10.923 -0.7237  1.4477  1.1761
 6915TIP3    H242237   3.163   4.794  11.071  1.1807 -0.6986  0.7556
 6916TIP3   OH242238   1.740   6.354  14.398  0.3419 -0.0313  0.3547
 6916TIP3    H142239   1.646   6.348  14.378  0.1005 -0.4500  1.5336
 6916TIP3    H242240   1.765   6.441  14.366 -0.5584  0.2751  0.4392
 6917TIP3   OH242241   6.261   2.111  12.569  0.1051  0.0333  0.3569
 6917TIP3    H142242   6.202   2.144  12.636 -0.7609  0.4935 -0.6007
 6917TIP3    H242243   6.339   2.166  12.575 -0.6283  1.1584 -0.0817
 6918TIP3   OH242244   1.925   7.040  11.302  0.4875  0.1734 -0.1359
 6918TIP3    H142245   1.889   6.989  11.229 -0.5965  2.0390 -1.0068
 6918TIP3    H242246   1.977   7.108  11.259  1.1373  0.3620  0.9309
 6919TIP3   OH242247   3.178   3.105   9.443 -0.2053  0.3045 -0.5056
 6919TIP3    H142248   3.111   3.038   9.436  0.2407 -0.2280  0.2272
 6919TIP3    H242249   3.244   3.068   9.502  0.3994  1.0904 -0.6648
 6920TIP3   OH242250   2.353   2.173  14.726 -0.0074 -0.4091  0.0449
 6920TIP3    H142251   2.366   2.118  14.803  0.5358 -0.3463  0.0049
 6920TIP3    H242252   2.289   2.126  14.673  1.4108 -1.6748 -0.6143
 6921TIP3   OH242253   2.221   4.267   1.470 -0.3567  0.5202  0.2983
 6921TIP3    H142254   2.160   4.213   1.419  3.3644 -1.4732 -2.6091
 6921TIP3    H242255   2.250   4.334   1.409  1.1444  0.7301  1.2008
 6922TIP3   OH242256   3.280   5.724  12.173  0.1847  0.0198 -0.4235
 6922TIP3    H142257   3.329   5.655  12.218 -0.0306  0.2041  0.0981
 6922TIP3    H242258   3.196   5.728  12.218 -0.9078 -1.2580 -2.1999
 6923TIP3   OH242259   3.885   4.875  12.995  0.5073 -0.2990 -0.1332
 6923TIP3    H142260   3.825   4.949  12.990  0.5667 -0.1384  1.0825
 6923TIP3    H242261   3.971   4.915  13.006  0.5122 -0.5340  0.7866
 6924TIP3   OH242262   0.563   6.755  12.879  0.0435 -0.2620  0.0557
 6924TIP3    H142263   0.486   6.803  12.908  0.1959 -0.3908  0.6728
 6924TIP3    H242264   0.632   6.780  12.941  0.8521  0.8707 -1.2301
 6925TIP3   OH242265   1.643   0.182  12.011  0.1061  0.4717  0.0983
 6925TIP3    H142266   1.702   0.130  12.067  0.3765 -0.2061 -0.7837
 6925TIP3    H242267   1.584   0.117  11.973 -1.0056  1.1061  0.7033
 6926TIP3   OH242268   4.359   1.827  10.522  0.3232 -0.1779  0.7590
 6926TIP3    H142269   4.438   1.786  10.558  0.9424  0.2704 -0.0442
 6926TIP3    H242270   4.347   1.905  10.576 -1.1410 -1.5788  2.6123
 6927TIP3   OH242271   0.170   6.916  15.048 -0.5012 -0.9601 -0.0087
 6927TIP3    H142272   0.116   6.868  14.986 -0.3734  0.8930 -1.6434
 6927TIP3    H242273   0.163   6.866  15.130 -4.0895 -1.2135 -0.3069
 6928TIP3   OH242274   3.733   5.658  10.957  0.6636 -0.2927 -0.0474
 6928TIP3    H142275   3.707   5.708  10.879  0.8712 -0.5531 -0.2863
 6928TIP3    H242276   3.825   5.679  10.969  0.4829  0.2193  0.4892
 6929TIP3   OH242277   4.519   0.313  11.581 -0.5336 -0.2825 -0.2209
 6929TIP3    H142278   4.566   0.251  11.525  0.1657 -0.4458  0.5253
 6929TIP3    H242279   4.469   0.258  11.641 -2.0671 -0.1095 -1.2995
 6930TIP3   OH242280   3.244   6.974  11.715 -0.3419  0.3174  0.2916
 6930TIP3    H142281   3.292   7.057  11.712  2.0618 -0.9674  0.3529
 6930TIP3    H242282   3.257   6.942  11.804  0.3331 -0.9576 -0.2409
 6931TIP3   OH242283   3.929   2.369  14.888  0.0653 -0.3186  0.1440
 6931TIP3    H142284   4.002   2.321  14.848 -0.0400 -0.4097  0.0588
 6931TIP3    H242285   3.927   2.453  14.842  0.0302 -0.3702  0.0507
 6932TIP3   OH242286   1.071   7.099  14.469 -0.2376  0.4861  0.1096
 6932TIP3    H142287   0.987   7.117  14.426 -0.8992 -0.5082  0.9612
 6932TIP3    H242288   1.053   7.107  14.562  0.5435 -0.0447  0.3170
 6933TIP3   OH242289   5.856   5.687   1.666 -0.0771  0.6727  0.1706
 6933TIP3    H142290   5.892   5.700   1.754  1.9131 -0.1891 -0.4399
 6933TIP3    H242291   5.821   5.598   1.667  1.3674  0.0575 -0.2888
 6934TIP3   OH242292   2.005   3.296  14.645  0.2169 -0.3674  0.3571
 6934TIP3    H142293   2.051   3.271  14.565 -0.7743 -2.2093  0.3210
 6934TIP3    H242294   2.062   3.267  14.716 -0.4449 -1.8784  0.3057
 6935TIP3   OH242295   3.352   0.796  13.934  0.0326 -0.3784  0.4859
 6935TIP3    H142296   3.265   0.835  13.928  0.0398 -0.4675 -0.2647
 6935TIP3    H242297   3.381   0.787  13.843  0.0994 -1.9690  0.6387
 6936TIP3   OH242298   4.891   6.561   1.135  0.3659 -0.5349 -0.1569
 6936TIP3    H142299   4.957   6.611   1.087  2.3761 -1.1958  1.7684
 6936TIP3    H242300   4.922   6.471   1.131 -0.8349 -0.9777  0.1796
 6937TIP3   OH242301   4.548   0.575  12.675  0.0697  0.2897 -0.2132
 6937TIP3    H142302   4.554   0.589  12.769  0.8913  0.2901 -0.2572
 6937TIP3    H242303   4.639   0.565  12.646 -0.1884  0.0084 -0.9623
 6938TIP3   OH242304   4.147   6.697  11.506  0.4519  0.9379  0.0601
 6938TIP3    H142305   4.081   6.637  11.541  1.4019  0.0454  0.3581
 6938TIP3    H242306   4.104   6.740  11.432 -0.1777 -0.2712 -0.2987
 6939TIP3   OH242307   1.087   2.506  10.278  0.2159  0.2372  0.2011
 6939TIP3    H142308   1.043   2.587  10.302 -0.9178 -0.3168  0.0594
 6939TIP3    H242309   1.061   2.443  10.345 -2.2705 -1.0835 -1.8059
 6940TIP3   OH242310   4.415   5.489   5.175  0.7974 -0.1799  0.0288
 6940TIP3    H142311   4.371   5.436   5.108  1.7292 -1.5194  0.4532
 6940TIP3    H242312   4.409   5.579   5.141  2.2684 -0.9186 -2.4572
 6941TIP3   OH242313   2.977   5.620   1.119  0.4828  0.4470  0.1865
 6941TIP3    H142314   3.051   5.588   1.068 -1.0904 -0.6458 -1.5802
 6941TIP3    H242315   2.939   5.689   1.065  0.7246  1.6239  1.4907
 6942TIP3   OH242316   7.070   3.533   5.010 -0.3305 -0.4684  0.4955
 6942TIP3    H142317   7.037   3.547   4.921  0.4607  0.6137  0.3485
 6942TIP3    H242318   7.160   3.566   5.007  0.5059 -2.5331  1.1039
 6943TIP3   OH242319   2.541   6.973  10.681 -0.6088 -0.0031  0.2416
 6943TIP3    H142320   2.587   6.998  10.600 -1.8281  0.8394 -0.2210
 6943TIP3    H242321   2.448   6.986  10.660 -0.9551 -0.0071  1.7111
 6944TIP3   OH242322   0.823   0.212   4.898  0.3942  0.3361  0.3543
 6944TIP3    H142323   0.842   0.118   4.896 -1.7141 -0.1509 -2.1095
 6944TIP3    H242324   0.880   0.249   4.830  0.1025  0.5813  0.2422
 6945TIP3   OH242325   2.755   1.563   2.779 -0.6135 -0.1209 -0.0887
 6945TIP3    H142326   2.844   1.568   2.814 -0.0943 -1.4490 -1.1214
 6945TIP3    H242327   2.747   1.641   2.724  0.9612 -1.2999 -2.1595
 6946TIP3   OH242328   4.802   7.116   3.023 -0.0124 -0.3480  0.1200
 6946TIP3    H142329   4.756   7.054   3.080  0.8034 -0.1965  0.9654
 6946TIP3    H242330   4.748   7.120   2.944 -0.1946 -1.9931  0.1141
 6947TIP3   OH242331   0.898   1.891  14.642  0.0772 -0.5445 -0.1096
 6947TIP3    H142332   0.855   1.822  14.692  2.7340  0.3217  3.8332
 6947TIP3    H242333   0.990   1.865  14.639  0.3092  0.2837 -3.3746
 6948TIP3   OH242334   5.481   4.585   2.155  0.1819  0.1604  0.0174
 6948TIP3    H142335   5.476   4.681   2.158  0.9589  0.1909  1.5255
 6948TIP3    H242336   5.569   4.565   2.186 -0.2547 -1.0754  0.5221
 6949TIP3   OH242337   6.309   5.283   2.177  0.2257  0.4409 -0.5439
 6949TIP3    H142338   6.292   5.337   2.254  0.4586  0.0949 -0.2515
 6949TIP3    H242339   6.297   5.193   2.207  2.1789  0.1934 -0.4333
 6950TIP3   OH242340   0.428   1.132   2.146  0.5494 -0.7393 -0.1392
 6950TIP3    H142341   0.459   1.087   2.225  1.7867 -0.8116 -0.6366
 6950TIP3    H242342   0.442   1.225   2.164  0.8150 -0.7547 -0.2583
 6951TIP3   OH242343   5.774   6.503  15.343  0.0416 -0.2281 -0.3687
 6951TIP3    H142344   5.707   6.516  15.410 -0.3261 -0.3528 -0.7006
 6951TIP3    H242345   5.728   6.520  15.260  0.3543 -0.5599 -0.6162
 6952TIP3   OH242346   5.377   3.929  14.496 -0.4006  0.4778 -0.2327
 6952TIP3    H142347   5.377   4.020  14.525 -0.1701 -0.4996  3.2997
 6952TIP3    H242348   5.470   3.905  14.493 -0.5118 -0.0742  0.4962
 6953TIP3   OH242349   1.120   0.115   0.906  0.8793  0.1265 -0.1936
 6953TIP3    H142350   1.172   0.049   0.952  1.8716  1.3781  0.5570
 6953TIP3    H242351   1.171   0.196   0.914  0.6710  0.6045 -2.7665
 6954TIP3   OH242352   5.957   6.507   1.635  0.4739 -0.0455 -0.8130
 6954TIP3    H142353   6.008   6.435   1.673 -0.4880  0.1550  0.9655
 6954TIP3    H242354   5.926   6.473   1.551  0.4271 -1.5568 -0.2156
 6955TIP3   OH242355   0.040   3.323  13.085  0.4226  0.1384 -0.4975
 6955TIP3    H142356  -0.044   3.307  13.130 -0.0649 -0.9160 -1.7318
 6955TIP3    H242357   0.079   3.395  13.134  0.2283 -1.3544  2.0403
 6956TIP3   OH242358   2.771   3.792   0.734  0.6623 -0.2872 -0.1380
 6956TIP3    H142359   2.864   3.770   0.733  1.2656  1.8693  1.2107
 6956TIP3    H242360   2.751   3.811   0.826 -0.3609  1.9253 -0.7275
 6957TIP3   OH242361   2.125   0.249  15.119 -0.7712  0.4967  0.3397
 6957TIP3    H142362   2.052   0.265  15.178 -0.4396 -0.0605  0.9074
 6957TIP3    H242363   2.199   0.226  15.176 -0.2988  0.4979 -0.2531
 6958TIP3   OH242364   5.236   3.664  11.152  0.3646 -0.2217 -0.0630
 6958TIP3    H142365   5.212   3.700  11.067 -1.6322  0.4538  0.7208
 6958TIP3    H242366   5.303   3.598  11.133 -1.4249 -1.5327 -2.3994
 6959TIP3   OH242367   1.702   5.755   5.105 -0.7776 -0.3848 -0.2414
 6959TIP3    H142368   1.735   5.726   5.190  0.2442  0.1714 -0.4378
 6959TIP3    H242369   1.772   5.734   5.043 -1.3201 -0.3665 -0.8836
 6960TIP3   OH242370   5.229   2.378   4.111  0.0987  0.1106  0.2788
 6960TIP3    H142371   5.285   2.318   4.160  1.6104  0.8070 -0.5213
 6960TIP3    H242372   5.140   2.354   4.137  0.7846 -0.1003  2.6862
 6961TIP3   OH242373   2.682   0.616   1.751 -0.7493 -0.3742 -0.1758
 6961TIP3    H142374   2.681   0.575   1.665  0.9033  0.6801 -0.7428
 6961TIP3    H242375   2.592   0.647   1.764 -1.2391 -1.3579 -1.0968
 6962TIP3   OH242376   6.625   0.616  10.225  0.4149  0.5377  0.1031
 6962TIP3    H142377   6.538   0.655  10.234 -0.1416 -1.1342  3.8001
 6962TIP3    H242378   6.611   0.543  10.164 -1.0888 -0.2889  1.3510
 6963TIP3   OH242379   3.439   5.615  13.187 -0.4563  0.2259  0.0025
 6963TIP3    H142380   3.405   5.538  13.143  0.5226 -0.3745  0.2705
 6963TIP3    H242381   3.363   5.652  13.233 -1.2350  0.2317 -1.2451
 6964TIP3   OH242382   6.977   3.340  10.493  0.3895  0.4523  0.0095
 6964TIP3    H142383   6.934   3.361  10.576 -2.0029 -3.2804 -0.0102
 6964TIP3    H242384   6.964   3.417  10.438 -2.7904  1.0869  1.4393
 6965TIP3   OH242385   4.754   0.968   2.063  0.2561  0.3858 -0.7060
 6965TIP3    H142386   4.699   0.969   2.142  0.8935  0.1527 -0.2499
 6965TIP3    H242387   4.694   0.943   1.993 -0.9885  3.2921 -0.8282
 6966TIP3   OH242388   6.332   2.407  12.446  0.0866 -0.2105  0.6464
 6966TIP3    H142389   6.342   2.479  12.385  0.9354 -0.6819  0.2098
 6966TIP3    H242390   6.249   2.366  12.422 -0.7690  1.0347  1.3707
 6967TIP3   OH242391   1.131   3.765   1.370  0.3084 -0.3845  0.0521
 6967TIP3    H142392   1.047   3.810   1.361 -0.0954 -0.7388  1.7225
 6967TIP3    H242393   1.170   3.769   1.282 -1.1597  0.3320 -0.6020
 6968TIP3   OH242394   0.995   2.136  12.661  0.5052  0.5939  0.3571
 6968TIP3    H142395   1.003   2.229  12.637  0.6069  0.6680  0.6705
 6968TIP3    H242396   1.084   2.110  12.685  0.3343  0.6372  1.0586
 6969TIP3   OH242397   3.234   1.393  10.147 -0.4232 -0.0010 -0.1400
 6969TIP3    H142398   3.153   1.357  10.182 -1.2068  0.3844 -1.4894
 6969TIP3    H242399   3.206   1.451  10.076  0.9913  0.7713 -0.0934
 6970TIP3   OH242400   3.956   6.571  13.507  0.1012 -0.5398  0.5229
 6970TIP3    H142401   4.024   6.611  13.452  0.9869 -1.7976  0.6760
 6970TIP3    H242402   3.896   6.529  13.445  0.7509 -1.4130  0.4750
 6971TIP3   OH242403   3.071   0.832   1.277 -0.1671  0.1945 -0.5319
 6971TIP3    H142404   3.139   0.767   1.261  0.9906  1.3615 -0.5181
 6971TIP3    H242405   3.119   0.914   1.291 -1.5946  1.1531 -1.0337
 6972TIP3   OH242406   0.987   0.182  11.803  0.3461 -0.3990  0.7232
 6972TIP3    H142407   1.065   0.126  11.810  0.7330 -0.2494 -1.5504
 6972TIP3    H242408   0.925   0.131  11.753  0.9578  1.3217 -2.0203
 6973TIP3   OH242409   6.958   1.734   5.575 -0.4473  0.4701 -0.2103
 6973TIP3    H142410   6.883   1.721   5.517 -0.2331  0.2442 -0.4382
 6973TIP3    H242411   7.028   1.682   5.536 -0.2374  0.4942  0.1295
 6974TIP3   OH242412   0.752   5.276  13.336  0.6295  0.6447 -0.2235
 6974TIP3    H142413   0.679   5.298  13.394 -0.1519  1.0299 -1.3306
 6974TIP3    H242414   0.807   5.218  13.389  0.1451  1.2936  1.0327
 6975TIP3   OH242415   5.767   5.639   3.256 -0.0308 -0.5806  0.4324
 6975TIP3    H142416   5.854   5.629   3.217 -0.9398 -2.2697 -1.3656
 6975TIP3    H242417   5.711   5.581   3.204 -2.5068  1.3858  0.7299
 6976TIP3   OH242418   1.674   1.574  13.929 -0.2291 -0.3678  0.6162
 6976TIP3    H142419   1.585   1.608  13.939 -1.0249 -1.9932 -0.4460
 6976TIP3    H242420   1.691   1.577  13.835  1.2526  0.8201  0.8855
 6977TIP3   OH242421   6.509   2.517  13.640  0.6204 -0.3839  0.2133
 6977TIP3    H142422   6.516   2.494  13.548 -0.0194 -1.7607  0.4924
 6977TIP3    H242423   6.507   2.434  13.687  1.3222  0.2885  1.5174
 6978TIP3   OH242424   3.089   5.519  12.304  0.4925 -0.5939  0.3683
 6978TIP3    H142425   3.046   5.529  12.389  0.9684  0.1711  0.5322
 6978TIP3    H242426   3.173   5.477  12.324 -0.1186 -2.0261  0.0571
 6979TIP3   OH242427   5.382   1.454  12.364  0.3637  0.2571  0.1194
 6979TIP3    H142428   5.391   1.446  12.459  1.3439  1.3450  0.1439
 6979TIP3    H242429   5.406   1.368  12.330 -0.1879 -0.2007  0.8623
 6980TIP3   OH242430   4.890   0.548   1.781 -0.2650  0.0939 -0.3935
 6980TIP3    H142431   4.910   0.457   1.806  1.9914  0.5100 -0.4401
 6980TIP3    H242432   4.850   0.585   1.859  1.3757 -0.2219  0.6575
 6981TIP3   OH242433   3.833   3.437  10.026 -0.1433 -0.2594  0.9848
 6981TIP3    H142434   3.751   3.389  10.032 -0.0867 -0.4204  0.5121
 6981TIP3    H242435   3.813   3.524  10.062 -0.0881 -0.8003  2.4010
 6982TIP3   OH242436   7.093   2.198  13.616  0.0661  0.4691 -0.2206
 6982TIP3    H142437   7.017   2.232  13.665  0.0954  1.3689 -0.7710
 6982TIP3    H242438   7.152   2.273  13.608 -0.6144  0.8249 -2.9700
 6983TIP3   OH242439   1.061   4.407  14.740 -0.3266  0.3052 -0.1622
 6983TIP3    H142440   1.040   4.394  14.648  0.5367 -1.7276 -0.1292
 6983TIP3    H242441   1.090   4.498  14.745 -1.7719  0.8931 -1.5910
 6984TIP3   OH242442   6.777   2.571   1.137 -0.6961  0.1932 -0.2329
 6984TIP3    H142443   6.773   2.518   1.217  0.5648  1.9272  1.0535
 6984TIP3    H242444   6.867   2.562   1.107 -1.2843 -0.8634 -1.8333
 6985TIP3   OH242445   5.231   3.247   0.176  0.1072 -0.3668  0.4454
 6985TIP3    H142446   5.206   3.291   0.258 -2.5980 -2.2001  0.7521
 6985TIP3    H242447   5.302   3.187   0.202 -1.1246 -1.3724  1.6739
 6986TIP3   OH242448   1.630   0.479   3.160 -0.3096 -0.2340  0.4697
 6986TIP3    H142449   1.700   0.427   3.122  0.7282  1.5151 -0.1346
 6986TIP3    H242450   1.642   0.472   3.254  2.9781  2.7597  0.4871
 6987TIP3   OH242451   6.236   1.002   4.261  0.4985  0.4996 -0.8524
 6987TIP3    H142452   6.325   1.035   4.277  1.0689 -1.0255 -0.7345
 6987TIP3    H242453   6.243   0.908   4.274 -0.9396  0.2365 -1.8045
 6988TIP3   OH242454   5.182   1.047   9.900  0.5658  0.4946  0.3483
 6988TIP3    H142455   5.224   1.125   9.936 -0.5583  0.7833  1.0790
 6988TIP3    H242456   5.091   1.072   9.889  0.6244  0.0178 -1.6030
 6989TIP3   OH242457   5.932   2.040   3.310 -0.3583  0.1975  0.5849
 6989TIP3    H142458   5.910   1.974   3.376  0.7705 -0.4763  0.3129
 6989TIP3    H242459   6.027   2.036   3.303 -0.3597  1.1910 -0.1397
 6990TIP3   OH242460   1.247   4.829   0.474 -0.4166 -0.4856 -0.2113
 6990TIP3    H142461   1.283   4.762   0.416 -0.9835 -1.6068  0.6820
 6990TIP3    H242462   1.301   4.907   0.458  0.0258 -1.0473 -1.5348
 6991TIP3   OH242463   2.778   3.537   3.579 -0.4039  0.0466 -0.1837
 6991TIP3    H142464   2.692   3.547   3.539 -0.4287 -0.7002 -0.3388
 6991TIP3    H242465   2.814   3.457   3.540 -0.0089 -0.1407  0.5307
 6992TIP3   OH242466   5.942   6.884  13.766 -0.5577 -0.1539 -0.3584
 6992TIP3    H142467   5.994   6.870  13.687 -0.5900  1.9760 -0.8100
 6992TIP3    H242468   5.852   6.895  13.733 -0.9894 -1.6660  0.2255
 6993TIP3   OH242469   4.624   3.336   1.112  0.1409  0.2376  0.2070
 6993TIP3    H142470   4.630   3.394   1.188 -0.7078  1.0965 -0.3757
 6993TIP3    H242471   4.532   3.314   1.105  0.0359  1.0247 -1.1997
 6994TIP3   OH242472   2.335   5.492  12.582  0.2936  0.0403 -0.1056
 6994TIP3    H142473   2.254   5.455  12.618 -0.3523  2.5784  1.2806
 6994TIP3    H242474   2.394   5.498  12.657  1.2751 -0.4388 -0.8165
 6995TIP3   OH242475   4.458   1.538  13.302  0.5462 -0.8050  0.0988
 6995TIP3    H142476   4.540   1.548  13.350  0.6283 -2.3971  0.3545
 6995TIP3    H242477   4.457   1.610  13.240  1.4609  0.0609  1.0510
 6996TIP3   OH242478   6.506   4.460   1.744  0.8052  0.7848  0.0833
 6996TIP3    H142479   6.469   4.543   1.773  1.0831  0.7695  0.5018
 6996TIP3    H242480   6.570   4.484   1.677  0.8758  0.9112  0.1948
 6997TIP3   OH242481   0.796   0.081   0.580  0.5750 -0.7586  0.4276
 6997TIP3    H142482   0.768   0.050   0.494  1.4979  0.3126 -0.2871
 6997TIP3    H242483   0.737   0.038   0.642 -1.0430 -0.4407 -0.8324
 6998TIP3   OH242484   0.326   1.938  14.749 -0.0987  0.6012  0.0147
 6998TIP3    H142485   0.263   1.868  14.764 -0.9274  1.0513 -1.1688
 6998TIP3    H242486   0.412   1.898  14.766 -0.6616 -0.1125  1.3094
 6999TIP3   OH242487   0.615   2.202  10.611  0.4285 -0.1218  0.0825
 6999TIP3    H142488   0.585   2.206  10.702 -0.2550  1.0707 -0.1660
 6999TIP3    H242489   0.695   2.256  10.610  0.1213  0.3330 -0.1311
 7000TIP3   OH242490   3.518   1.705   0.290 -0.0649 -0.1262  0.3108
 7000TIP3    H142491   3.529   1.618   0.328  2.1879  0.0400  0.2268
 7000TIP3    H242492   3.608   1.738   0.282 -0.8455  2.1070  0.1081
 7001TIP3   OH242493   1.120   6.575  15.198  0.0870  0.4410 -0.0187
 7001TIP3    H142494   1.189   6.590  15.133  0.3336 -0.2612  0.0825
 7001TIP3    H242495   1.166   6.552  15.278 -0.1684  2.3251  0.7158
 7002TIP3   OH242496   0.184   2.068  13.861 -0.0894 -0.0318 -0.2704
 7002TIP3    H142497   0.226   2.047  13.945 -2.8512 -0.6207  1.0889
 7002TIP3    H242498   0.154   1.984  13.827 -2.3910  0.5244  0.1742
 7003TIP3   OH242499   5.378   1.668  10.681 -0.2621  0.1119 -0.4841
 7003TIP3    H142500   5.325   1.593  10.656 -1.6667  0.6951  0.6013
 7003TIP3    H242501   5.381   1.664  10.777 -0.1446  1.2995 -0.4269
 7004TIP3   OH242502   1.656   1.810   1.728 -0.0073  0.3985 -0.8424
 7004TIP3    H142503   1.686   1.825   1.638  3.1869 -1.9581 -0.3546
 7004TIP3    H242504   1.697   1.727   1.753 -2.1063  0.1530  2.2951
 7005TIP3   OH242505   2.403   2.612  10.828 -0.2796  0.2700 -0.0260
 7005TIP3    H142506   2.347   2.537  10.848  1.5610 -0.6651  2.1342
 7005TIP3    H242507   2.471   2.609  10.896  3.1967  0.5034 -3.1726
 7006TIP3   OH242508   6.631   0.732  14.227 -0.3977 -0.6210  0.0680
 7006TIP3    H142509   6.647   0.809  14.281  1.9507  0.3550 -1.8427
 7006TIP3    H242510   6.556   0.757  14.173  0.6184  0.5671 -0.8509
 7007TIP3   OH242511   2.526   1.871   2.881  0.3837 -0.0099 -0.3383
 7007TIP3    H142512   2.516   1.790   2.930  3.1368  1.2638  2.6913
 7007TIP3    H242513   2.457   1.928   2.916 -0.2042 -0.3237 -0.9487
 7008TIP3   OH242514   4.171   6.692   1.308  0.3924 -0.9481 -0.5416
 7008TIP3    H142515   4.162   6.691   1.403  0.2926  1.5178 -0.4609
 7008TIP3    H242516   4.086   6.662   1.275 -0.6208  0.9713  0.1846
 7009TIP3   OH242517   5.263   3.055  11.545  0.2250 -0.2693 -0.2260
 7009TIP3    H142518   5.242   2.962  11.545 -1.2564  0.0284  0.8693
 7009TIP3    H242519   5.194   3.096  11.493  0.5655  0.2664 -0.2693
 7010TIP3   OH242520   4.820   4.604   0.398  0.2406  0.4285 -0.7449
 7010TIP3    H142521   4.732   4.639   0.412  0.0119 -0.0552 -0.9602
 7010TIP3    H242522   4.878   4.671   0.436 -0.2281  0.5937 -0.2950
 7011TIP3   OH242523   4.580   4.120  11.348  0.0464 -0.3980 -0.5255
 7011TIP3    H142524   4.589   4.109  11.443  0.6948  1.2259 -0.3701
 7011TIP3    H242525   4.523   4.195  11.338 -0.2683 -0.7506 -1.4389
 7012TIP3   OH242526   2.697   2.967   0.716  0.4278  0.6086  0.0262
 7012TIP3    H142527   2.645   3.040   0.684  0.3954  1.1488  1.2417
 7012TIP3    H242528   2.699   2.904   0.643 -0.0882  1.5270 -0.7966
 7013TIP3   OH242529   0.259   1.373  14.352  0.4483  0.8513 -0.2143
 7013TIP3    H142530   0.228   1.318  14.280 -0.5508  0.7526  0.2860
 7013TIP3    H242531   0.203   1.450  14.350  2.6073  2.5140 -1.6890
 7014TIP3   OH242532   6.960   4.807  14.721 -0.1898  0.2990 -0.2017
 7014TIP3    H142533   6.955   4.767  14.635 -0.2332 -2.5059  1.0047
 7014TIP3    H242534   7.053   4.820  14.737 -0.2416  3.1210 -1.5344
 7015TIP3   OH242535   5.644   7.247   9.763  0.2380 -0.2219 -0.3947
 7015TIP3    H142536   5.597   7.176   9.805  2.1283 -1.0292  0.4728
 7015TIP3    H242537   5.647   7.316   9.829  0.3712 -0.2178 -0.4056
 7016TIP3   OH242538   0.600   0.251  13.732 -0.3500 -0.5143  0.5068
 7016TIP3    H142539   0.525   0.200  13.763 -1.1246 -0.0270 -0.4681
 7016TIP3    H242540   0.577   0.273  13.641 -0.2096  1.8271  0.9771
 7017TIP3   OH242541   4.708   5.772  13.595 -0.0571  0.2334  0.3597
 7017TIP3    H142542   4.653   5.787  13.517 -1.0061 -1.6640  0.6118
 7017TIP3    H242543   4.665   5.823  13.664 -0.1072  0.6913 -0.0051
 7018TIP3   OH242544   0.329   6.755  11.724 -0.2659  0.9296  0.2840
 7018TIP3    H142545   0.257   6.815  11.701 -1.4806 -0.0430  1.3895
 7018TIP3    H242546   0.338   6.763  11.819 -0.4536 -0.6010  0.4554
 7019TIP3   OH242547   0.959   3.305  13.611 -0.2401 -0.5167 -0.0732
 7019TIP3    H142548   0.866   3.318  13.629 -0.6261 -1.1047 -1.5578
 7019TIP3    H242549   0.962   3.238  13.544  1.2350 -0.0840 -0.4821
 7020TIP3   OH242550   5.006   6.697  11.735  0.2424 -0.1949  0.1276
 7020TIP3    H142551   5.027   6.658  11.650 -1.4060 -1.2917  0.1831
 7020TIP3    H242552   5.055   6.780  11.735  1.8879 -1.1046 -1.0147
 7021TIP3   OH242553   3.300   5.670   3.820 -0.2005 -0.5878  0.3809
 7021TIP3    H142554   3.347   5.634   3.745  1.6869 -1.0216  1.6715
 7021TIP3    H242555   3.208   5.662   3.797  0.2782  0.9803 -2.6035
 7022TIP3   OH242556   1.505   5.827   0.308 -0.4728 -0.2144  0.3508
 7022TIP3    H142557   1.573   5.852   0.247  0.5528  1.8827  2.1789
 7022TIP3    H242558   1.503   5.731   0.306  0.6736 -0.2372 -1.6361
 7023TIP3   OH242559   2.463   0.312  11.293  0.0759 -0.3341  0.5060
 7023TIP3    H142560   2.405   0.374  11.249 -1.5827 -1.7356  0.6124
 7023TIP3    H242561   2.550   0.352  11.289 -0.4908  0.7909 -1.6847
 7024TIP3   OH242562   3.916   3.846   3.141  0.8687 -0.0715  0.0740
 7024TIP3    H142563   4.006   3.875   3.157  0.4861  0.2688  1.7789
 7024TIP3    H242564   3.881   3.909   3.078  1.3311  0.7634  0.6306
 7025TIP3   OH242565   3.408   2.370   1.073 -0.2885  0.8662 -0.1157
 7025TIP3    H142566   3.342   2.404   1.133 -0.2313 -2.0336  1.8201
 7025TIP3    H242567   3.484   2.425   1.086 -0.8879  1.4371  1.1000
 7026TIP3   OH242568   3.783   2.792  12.881 -0.0764  0.0920 -0.0078
 7026TIP3    H142569   3.794   2.867  12.822  0.1333 -1.1111 -1.5294
 7026TIP3    H242570   3.691   2.769  12.873 -0.0148 -0.1649  0.0306
 7027TIP3   OH242571   6.470   2.433  10.249  0.2362 -0.0509  0.7037
 7027TIP3    H142572   6.414   2.356  10.264  0.2363  0.0258  1.1084
 7027TIP3    H242573   6.419   2.507  10.283 -1.1127  0.6054 -2.4025
 7028TIP3   OH242574   0.210   2.412  11.320 -0.1879  0.3570 -0.0557
 7028TIP3    H142575   0.282   2.348  11.322 -0.7803 -0.3509 -0.9394
 7028TIP3    H242576   0.240   2.482  11.379  1.0110 -0.1462 -0.0228
 7029TIP3   OH242577   3.058   2.191   3.787 -0.0276 -0.1605 -0.3609
 7029TIP3    H142578   3.087   2.138   3.861  0.2854  0.0178 -0.3557
 7029TIP3    H242579   2.975   2.151   3.759 -1.2693  0.9902  1.4218
 7030TIP3   OH242580   4.971   0.219  12.364 -0.0579  0.1525  0.3213
 7030TIP3    H142581   5.044   0.163  12.337  0.6580  1.5043 -0.6518
 7030TIP3    H242582   5.010   0.280  12.426 -0.3974  0.7447 -0.0410
 7031TIP3   OH242583   5.387   3.941  11.831 -0.0107 -0.5496 -0.1971
 7031TIP3    H142584   5.307   3.989  11.808  0.5406  0.7260  0.4087
 7031TIP3    H242585   5.377   3.856  11.789 -1.6648 -0.4073 -0.1815
 7032TIP3   OH242586   4.893   6.849   4.711 -0.0315 -0.5710 -0.5345
 7032TIP3    H142587   4.912   6.768   4.758  1.3239 -0.3684 -0.6790
 7032TIP3    H242588   4.979   6.883   4.687 -0.3800  2.2930  1.8083
 7033TIP3   OH242589   7.203   5.087  10.930 -0.9854 -0.5325 -0.3407
 7033TIP3    H142590   7.291   5.118  10.952 -0.0823 -0.9199 -2.9704
 7033TIP3    H242591   7.218   5.004  10.884 -2.7342 -0.6218 -0.8378
 7034TIP3   OH242592   0.325   1.800   4.233  0.1021 -0.4917 -0.2775
 7034TIP3    H142593   0.290   1.854   4.304  1.3096 -0.4280  0.2999
 7034TIP3    H242594   0.259   1.805   4.164  0.0460  1.4992 -0.1354
 7035TIP3   OH242595   5.381   5.383  15.029 -0.3429 -0.5680 -0.2895
 7035TIP3    H142596   5.351   5.378  14.938 -0.7614  2.0449 -0.3756
 7035TIP3    H242597   5.300   5.395  15.080 -0.0406 -1.1402  0.3391
 7036TIP3   OH242598   5.616   2.885  10.829  0.2614  0.2547 -0.0555
 7036TIP3    H142599   5.694   2.898  10.776  0.2490 -1.5442 -0.5494
 7036TIP3    H242600   5.563   2.964  10.813  0.5709  0.0706 -2.1694
 7037TIP3   OH242601   1.763   1.647  15.136  0.1974  0.4823 -0.3051
 7037TIP3    H142602   1.766   1.623  15.229  0.1575 -0.8090 -0.6092
 7037TIP3    H242603   1.772   1.563  15.090  2.3241  1.2838 -1.4911
 7038TIP3   OH242604   4.047   5.831   1.136  0.1135  0.1447 -0.2642
 7038TIP3    H142605   4.110   5.858   1.204  1.0816  0.5537 -1.2938
 7038TIP3    H242606   3.962   5.837   1.179  0.7075  0.3027  0.9478
 7039TIP3   OH242607   0.066   3.596   5.432 -0.3920  0.4386  0.0999
 7039TIP3    H142608  -0.016   3.547   5.437  0.2213 -0.5103  2.0735
 7039TIP3    H242609   0.092   3.606   5.523  1.4227  1.1836 -0.4708
 7040TIP3   OH242610   1.143   0.394  11.677  0.3430 -0.0214 -0.0758
 7040TIP3    H142611   1.103   0.478  11.701 -0.7634 -0.4336 -0.4073
 7040TIP3    H242612   1.082   0.328  11.711  0.6866 -0.6727 -0.7033
 7041TIP3   OH242613   3.583   0.741  13.176 -0.4882 -0.0934 -0.2736
 7041TIP3    H142614   3.534   0.766  13.098  0.6050  0.0702 -0.9338
 7041TIP3    H242615   3.557   0.806  13.242  0.0881  1.0412 -1.1089
 7042TIP3   OH242616   5.116   2.827  11.612 -0.1496 -0.7139  0.6531
 7042TIP3    H142617   5.068   2.809  11.692 -4.7383  1.7919 -1.1461
 7042TIP3    H242618   5.066   2.782  11.543  0.3486  1.5121 -1.3238
 7043TIP3   OH242619   6.142   1.430  14.126  0.2789 -0.3515 -0.1193
 7043TIP3    H142620   6.164   1.337  14.130  0.7879 -0.2934 -1.0796
 7043TIP3    H242621   6.107   1.451  14.212  2.3329 -0.8874  0.8924
 7044TIP3   OH242622   1.054   0.752  13.866 -0.2143  0.7403  0.7250
 7044TIP3    H142623   1.003   0.813  13.813  0.3008  1.8500  1.4746
 7044TIP3    H242624   1.082   0.685  13.804 -2.2513  0.2885  0.2303
 7045TIP3   OH242625   5.654   3.177   2.998 -0.1413  0.0484  0.5094
 7045TIP3    H142626   5.583   3.150   2.938  1.4539  0.5939 -1.7445
 7045TIP3    H242627   5.707   3.238   2.947  0.2230  2.1775  3.2063
 7046TIP3   OH242628   5.707   3.014  13.351  0.5996  0.6027  0.2167
 7046TIP3    H142629   5.625   2.967  13.338 -0.6449  1.8639  2.7365
 7046TIP3    H242630   5.770   2.969  13.295 -1.8901 -0.0558 -2.2712
 7047TIP3   OH242631   1.112   1.546   2.242  0.1338 -0.5202 -0.0242
 7047TIP3    H142632   1.093   1.635   2.215  1.8244 -0.1786 -0.1727
 7047TIP3    H242633   1.054   1.530   2.316 -1.1323  0.2130 -0.8265
 7048TIP3   OH242634   3.340   5.283  10.969 -0.1872 -0.1107 -0.2117
 7048TIP3    H142635   3.365   5.222  10.899 -0.1011 -0.8988  0.4885
 7048TIP3    H242636   3.392   5.361  10.953 -0.5935 -0.0556 -1.3622
 7049TIP3   OH242637   4.536   6.942   0.986 -0.0153  0.1133 -0.1670
 7049TIP3    H142638   4.502   7.031   0.994 -1.0571 -0.3755  1.3700
 7049TIP3    H242639   4.506   6.898   1.066  3.4917 -0.6507  0.8767
 7050TIP3   OH242640   2.618   0.796  11.861  0.0126  0.5417  1.0045
 7050TIP3    H142641   2.595   0.787  11.768  1.8819 -1.5417  0.6488
 7050TIP3    H242642   2.662   0.880  11.868  1.7933 -0.1887 -0.5230
 7051TIP3   OH242643   6.113   2.217  11.687 -0.3734  0.2949  0.3785
 7051TIP3    H142644   6.036   2.202  11.742 -1.4278  1.6387 -0.6577
 7051TIP3    H242645   6.182   2.241  11.750 -0.5607 -1.6188  1.3808
 7052TIP3   OH242646   7.197   4.561  12.471  0.3562  0.7464  0.1344
 7052TIP3    H142647   7.146   4.495  12.422 -0.6768  1.6389 -0.0336
 7052TIP3    H242648   7.200   4.526  12.560  1.6631 -0.5579 -0.3767
 7053TIP3   OH242649   1.869   0.336   2.288 -0.4993 -0.7024  0.1022
 7053TIP3    H142650   1.792   0.382   2.255  0.8450  1.0979 -0.7076
 7053TIP3    H242651   1.835   0.253   2.321 -2.8451  0.2461  0.2729
 7054TIP3   OH242652   2.739   4.077   0.524 -0.0962 -0.6243 -0.0079
 7054TIP3    H142653   2.743   3.983   0.507 -0.4506 -0.5079 -0.7938
 7054TIP3    H242654   2.783   4.088   0.608 -2.6698 -1.8705  1.6610
 7055TIP3   OH242655   0.795   5.507  13.967  0.4028 -0.1732 -0.6656
 7055TIP3    H142656   0.778   5.585  13.914  2.1710  1.4598  0.9907
 7055TIP3    H242657   0.708   5.470  13.984 -0.3213  0.2224 -3.1754
 7056TIP3   OH242658   1.320   2.692  12.968 -0.3907  0.4572 -0.1590
 7056TIP3    H142659   1.291   2.678  12.878 -2.4540  0.0360  0.5151
 7056TIP3    H242660   1.374   2.771  12.964  0.4218 -0.1285 -1.8947
 7057TIP3   OH242661   6.588   1.164   5.879  0.2550  0.3350  0.3743
 7057TIP3    H142662   6.585   1.257   5.899  0.2290  0.0980  1.5435
 7057TIP3    H242663   6.499   1.142   5.851  0.0200  0.4837  0.9830
 7058TIP3   OH242664   6.075   0.750  10.694 -0.1578  0.0507 -0.2477
 7058TIP3    H142665   6.066   0.748  10.599  0.5708 -0.5024 -0.3089
 7058TIP3    H242666   6.002   0.698  10.726  0.0621 -0.4382 -0.5388
 7059TIP3   OH242667   1.043   1.230  12.502  0.6117 -0.2345  0.0875
 7059TIP3    H142668   1.048   1.201  12.411 -1.0973  1.2589 -0.5621
 7059TIP3    H242669   1.088   1.314  12.503  0.9289 -0.4070  0.7016
 7060TIP3   OH242670   7.054   0.464  12.957 -0.1548  0.3671 -0.3154
 7060TIP3    H142671   7.117   0.533  12.941  0.1150 -0.3526 -2.8217
 7060TIP3    H242672   7.032   0.431  12.869 -0.5034 -2.4836  0.7302
 7061TIP3   OH242673   6.907   7.110  14.315 -0.1239 -0.0081 -0.0910
 7061TIP3    H142674   6.855   7.130  14.236 -0.5989 -1.9000 -0.3077
 7061TIP3    H242675   6.966   7.039  14.288 -0.6429 -1.0455  1.3611
 7062TIP3   OH242676   1.944   3.611  13.355 -0.2757 -0.0109  0.3842
 7062TIP3    H142677   1.985   3.576  13.434 -1.8334  1.0688  1.7499
 7062TIP3    H242678   1.995   3.575  13.283  1.1024 -1.1704  1.8717
 7063TIP3   OH242679   1.423   3.299  11.197 -0.0612  0.8665 -0.0927
 7063TIP3    H142680   1.433   3.241  11.273 -0.4662 -0.6580 -1.1629
 7063TIP3    H242681   1.511   3.303  11.158  0.1498  1.6607  0.4373
 7064TIP3   OH242682   4.582   6.162  10.675  0.1632 -0.0812  0.0397
 7064TIP3    H142683   4.579   6.077  10.718  1.1270  0.5262  1.3605
 7064TIP3    H242684   4.496   6.200  10.691 -0.1187 -0.6105 -0.1824
 7065TIP3   OH242685   5.175   4.735  10.354 -0.1326 -0.3236  0.1711
 7065TIP3    H142686   5.270   4.720  10.360 -0.0034  0.8346  1.5972
 7065TIP3    H242687   5.144   4.729  10.444 -1.5872 -1.5146 -0.3665
 7066TIP3   OH242688   6.042   5.210  14.553 -0.2583 -0.1883 -0.0355
 7066TIP3    H142689   6.022   5.133  14.499 -0.6505  0.9176 -1.5252
 7066TIP3    H242690   6.103   5.261  14.500 -0.0316  0.5640  0.9289
 7067TIP3   OH242691   5.538   6.521   4.666 -0.1801 -0.0743  0.6284
 7067TIP3    H142692   5.469   6.512   4.600  1.3645  0.0881 -1.1146
 7067TIP3    H242693   5.588   6.439   4.658  0.7637  0.4863  0.6917
 7068TIP3   OH242694   1.527   0.387  12.501  0.2819 -0.4653  0.4488
 7068TIP3    H142695   1.588   0.339  12.557 -1.1856 -1.2789  1.4334
 7068TIP3    H242696   1.509   0.327  12.428 -0.8255 -1.0557  1.1868
 7069TIP3   OH242697   2.618   1.547  10.687  0.4703  1.0794 -0.1028
 7069TIP3    H142698   2.601   1.626  10.739 -0.6847  0.7039  0.1223
 7069TIP3    H242699   2.571   1.477  10.734  0.4293  0.4966 -0.9903
 7070TIP3   OH242700   6.858   2.665  14.783  0.4462  0.3625  0.2696
 7070TIP3    H142701   6.884   2.577  14.755  0.1691  0.5441 -0.5721
 7070TIP3    H242702   6.934   2.720  14.763  0.1453  0.5424 -0.3991
 7071TIP3   OH242703   6.597   6.518   1.138 -0.8148 -0.7476  0.2382
 7071TIP3    H142704   6.631   6.435   1.105  0.1593  0.1194 -1.0183
 7071TIP3    H242705   6.619   6.518   1.231  0.3566 -1.3197 -0.0246
 7072TIP3   OH242706   3.524   5.604   4.243 -0.0928 -0.2295  0.1718
 7072TIP3    H142707   3.448   5.632   4.294  0.2481  1.0260  0.0468
 7072TIP3    H242708   3.489   5.543   4.178 -0.7195 -0.9275  1.1361
 7073TIP3   OH242709   6.669   0.273  11.905  0.3840  0.3919  0.3852
 7073TIP3    H142710   6.632   0.186  11.914  1.4484  0.1032  2.5147
 7073TIP3    H242711   6.714   0.272  11.820  0.6031 -1.2256  0.4987
 7074TIP3   OH242712   6.433   7.158   5.413  0.7498 -0.1574  0.2822
 7074TIP3    H142713   6.438   7.194   5.324 -0.9967  0.4075  0.3737
 7074TIP3    H242714   6.515   7.111   5.424  1.0602 -0.1553 -1.5977
 7075TIP3   OH242715   7.115   6.209  11.720  0.2388 -0.1602  0.2800
 7075TIP3    H142716   7.207   6.228  11.738  0.0940 -0.5221  1.5079
 7075TIP3    H242717   7.117   6.154  11.641  1.1026 -0.5037  0.5299
 7076TIP3   OH242718   0.058   4.064  11.696  0.1258 -0.2510  0.1567
 7076TIP3    H142719   0.044   4.030  11.607  1.0078 -1.7663  0.5514
 7076TIP3    H242720   0.143   4.108  11.692  0.2683 -0.5129  0.2969
 7077TIP3   OH242721   3.862   3.679  11.686  0.0458 -0.2925  0.3098
 7077TIP3    H142722   3.904   3.593  11.676  0.2539 -0.1269 -0.2274
 7077TIP3    H242723   3.775   3.658  11.721 -1.2310 -1.0178 -2.9754
 7078TIP3   OH242724   0.261   5.299   3.640 -0.0638 -0.1933 -0.1292
 7078TIP3    H142725   0.313   5.380   3.642  0.7508 -0.6719 -1.0006
 7078TIP3    H242726   0.261   5.269   3.731  1.3220 -0.2512 -0.1208
 7079TIP3   OH242727   0.996   6.580  14.786  0.3739 -0.0293 -0.9973
 7079TIP3    H142728   0.953   6.494  14.790 -0.1707  0.2820  0.0698
 7079TIP3    H242729   1.073   6.571  14.842 -0.8253  0.7837  0.8724
 7080TIP3   OH242730   7.049   0.033  11.056  0.9905 -0.0799 -0.2263
 7080TIP3    H142731   7.085  -0.028  11.120 -0.3124 -1.1697 -0.4986
 7080TIP3    H242732   6.954   0.023  11.063  0.6423  2.7091  0.4838
 7081TIP3   OH242733   1.993   5.481   0.582 -0.1883 -0.2964 -0.5255
 7081TIP3    H142734   2.029   5.399   0.547  4.0117  0.7491  0.7137
 7081TIP3    H242735   2.043   5.550   0.537 -1.2661  1.4267  0.7966
 7082TIP3   OH242736   4.217   2.894   4.770  0.2775  0.4119 -0.0790
 7082TIP3    H142737   4.265   2.888   4.688 -0.7204 -0.7098 -0.6108
 7082TIP3    H242738   4.125   2.897   4.744 -0.1275 -1.0974  0.9942
 7083TIP3   OH242739   2.750   4.193  12.738 -0.0209  0.4272  0.0477
 7083TIP3    H142740   2.739   4.251  12.813  1.8762 -1.0442  1.5487
 7083TIP3    H242741   2.793   4.115  12.773  1.5223 -0.0670 -2.6455
 7084TIP3   OH242742   0.427   0.469   0.317  0.2836  0.2337 -0.3268
 7084TIP3    H142743   0.479   0.516   0.381  0.2927 -1.4147  0.9404
 7084TIP3    H242744   0.351   0.438   0.366  0.6165 -1.6316 -0.9111
 7085TIP3   OH242745   6.784   5.995   0.090 -0.5261 -0.2352  0.4940
 7085TIP3    H142746   6.840   6.014   0.015  1.2541 -1.3146  1.4860
 7085TIP3    H242747   6.703   6.042   0.072  0.2770  0.4736 -1.5358
 7086TIP3   OH242748   6.668   1.047   4.518 -1.0638  0.8051 -0.0146
 7086TIP3    H142749   6.640   0.997   4.441  0.4187 -0.3460  0.1341
 7086TIP3    H242750   6.758   1.073   4.498 -1.2749  2.0554  0.5946
 7087TIP3   OH242751   2.856   0.843   1.791 -0.1114 -0.6886  0.0429
 7087TIP3    H142752   2.866   0.877   1.880 -1.7066  1.8750 -0.6559
 7087TIP3    H242753   2.786   0.778   1.798 -1.4220  0.7034  0.4596
 7088TIP3   OH242754   2.664   4.493   1.322 -0.1514  0.3971 -0.2652
 7088TIP3    H142755   2.760   4.488   1.322 -0.1242  0.4196  1.2524
 7088TIP3    H242756   2.635   4.402   1.324 -0.1001  0.3858  1.2983
 7089TIP3   OH242757   1.606   4.689   0.788  0.0835 -0.2005 -0.7715
 7089TIP3    H142758   1.579   4.725   0.872  1.7402  0.4885 -0.4920
 7089TIP3    H242759   1.528   4.694   0.733 -0.8482 -0.0796  0.5232
 7090TIP3   OH242760   0.621   3.420   2.793 -0.6264 -1.1048  0.1767
 7090TIP3    H142761   0.586   3.339   2.756  0.3695 -0.7611 -1.6596
 7090TIP3    H242762   0.661   3.394   2.876 -1.3936 -2.2548  0.2046
 7091TIP3   OH242763   2.939   7.222   9.729  0.2330 -0.4560  0.2184
 7091TIP3    H142764   2.862   7.189   9.776 -1.6795  3.2202  0.0383
 7091TIP3    H242765   2.939   7.173   9.646 -0.7011 -1.9043  1.0361
 7092TIP3   OH242766   4.085   3.424  11.178 -0.1606 -0.0570 -0.2782
 7092TIP3    H142767   4.094   3.509  11.220 -1.8377  1.4896 -2.7691
 7092TIP3    H242768   3.994   3.422  11.147 -1.7495 -4.6605  3.3695
 7093TIP3   OH242769   6.440   7.079  10.300 -0.1539  0.0773  0.2483
 7093TIP3    H142770   6.470   6.988  10.303  0.8413  0.4126  1.3554
 7093TIP3    H242771   6.356   7.075  10.256  0.8178 -1.1016 -1.6139
 7094TIP3   OH242772   6.145   2.085   9.916 -0.1819 -0.0311  0.0403
 7094TIP3    H142773   6.129   2.162   9.860 -2.5257 -0.0702  0.5598
 7094TIP3    H242774   6.198   2.027   9.861 -0.0669  1.1078 -1.1141
 7095TIP3   OH242775   5.022   2.519  13.359  1.0146 -0.0133  0.2710
 7095TIP3    H142776   5.063   2.591  13.311  3.0212 -1.2531  0.0086
 7095TIP3    H242777   4.966   2.562  13.423  0.5840  1.7375 -1.1810
 7096TIP3   OH242778   0.918   0.831  10.684  0.4004  0.6452 -0.1976
 7096TIP3    H142779   0.897   0.805  10.594  0.1871  1.5220 -0.4088
 7096TIP3    H242780   0.852   0.787  10.737 -2.4043  3.6899 -0.8772
 7097TIP3   OH242781   1.322   2.158  11.839  0.1950  0.1044  0.1168
 7097TIP3    H142782   1.416   2.155  11.855  0.3565 -0.4818 -0.8008
 7097TIP3    H242783   1.282   2.131  11.921  0.8947 -1.0818  0.0899
 7098TIP3   OH242784   0.680   7.094  14.952 -0.0657 -0.0534 -0.1000
 7098TIP3    H142785   0.601   7.062  14.995 -0.8193  1.2600 -0.4419
 7098TIP3    H242786   0.752   7.050  14.998 -0.7550  1.8458  3.0942
 7099TIP3   OH242787   4.150   3.848  14.653  0.0873  0.6941  0.7841
 7099TIP3    H142788   4.207   3.774  14.673  0.4050  1.0784  1.3262
 7099TIP3    H242789   4.078   3.841  14.715  0.7949  1.5746  1.7584
 7100TIP3   OH242790   6.785   3.542  12.184  0.4006  0.4424  0.2137
 7100TIP3    H142791   6.704   3.565  12.229 -0.1982  1.4709 -1.3148
 7100TIP3    H242792   6.765   3.552  12.091  2.2103  0.5004 -0.2144
 7101TIP3   OH242793   5.976   4.638  13.647  0.3745 -0.0459 -0.2994
 7101TIP3    H142794   5.916   4.699  13.691  0.6274 -0.0875  0.1061
 7101TIP3    H242795   5.920   4.592  13.583  0.4853  1.7043 -1.7412
 7102TIP3   OH242796   0.564   0.671  13.326 -0.0109 -0.1139  0.2520
 7102TIP3    H142797   0.554   0.715  13.411 -1.7527  1.3914 -0.6765
 7102TIP3    H242798   0.569   0.578  13.349  0.3680  0.3033  2.0530
 7103TIP3   OH242799   5.240   0.403   0.517 -0.0538 -0.1046  0.4204
 7103TIP3    H142800   5.174   0.423   0.583 -0.8208  0.8638 -0.5902
 7103TIP3    H242801   5.240   0.308   0.511  0.3181 -0.2418  2.0691
 7104TIP3   OH242802   0.190   2.726   3.407 -0.3685 -0.4161  0.1593
 7104TIP3    H142803   0.146   2.783   3.470  2.7306  2.2619  0.2042
 7104TIP3    H242804   0.209   2.647   3.457 -2.5313 -0.5300  0.9168
 7105TIP3   OH242805   0.635   0.226  13.082 -0.6755  0.2354  0.3374
 7105TIP3    H142806   0.686   0.307  13.083  2.4100 -1.5840  0.8380
 7105TIP3    H242807   0.655   0.186  12.997 -1.7732 -0.2636  0.2987
 7106TIP3   OH242808   3.333   2.093   2.257 -0.1211  0.0765  0.2293
 7106TIP3    H142809   3.409   2.071   2.203  0.4861 -1.2679  1.5771
 7106TIP3    H242810   3.334   2.188   2.261  1.6584  0.0808  0.4347
 7107TIP3   OH242811   0.846   4.344   2.690  0.6335 -0.2706 -0.6491
 7107TIP3    H142812   0.844   4.429   2.733 -0.0443 -0.3242 -0.5606
 7107TIP3    H242813   0.929   4.305   2.718  1.0021  0.4007 -0.7815
 7108TIP3   OH242814   2.915   3.861   3.412 -0.0659 -0.5848  0.2569
 7108TIP3    H142815   2.998   3.814   3.405 -0.2547 -0.7435 -1.3052
 7108TIP3    H242816   2.851   3.794   3.436 -0.1765 -0.9775 -1.0757
 7109TIP3   OH242817   4.169   1.602  11.485 -0.2174  0.0028  0.3151
 7109TIP3    H142818   4.224   1.546  11.539  0.3237  1.8888  1.8248
 7109TIP3    H242819   4.206   1.690  11.496 -0.1369  0.5467 -3.0520
 7110TIP3   OH242820   0.963   5.574  14.781 -0.3063  0.0303 -0.3571
 7110TIP3    H142821   0.972   5.561  14.686 -0.4461 -0.1953 -0.3413
 7110TIP3    H242822   0.905   5.503  14.808  0.9539 -0.8485  0.1453
 7111TIP3   OH242823   3.674   0.261   2.760  0.2480  0.3204 -0.1445
 7111TIP3    H142824   3.663   0.207   2.682  1.4486 -0.0420 -0.0891
 7111TIP3    H242825   3.693   0.348   2.726 -1.3023  0.6525 -0.2339
 7112TIP3   OH242826   0.388   0.710  12.627  0.1493  0.0079  0.0404
 7112TIP3    H142827   0.315   0.660  12.589 -0.6982  0.7177  0.6765
 7112TIP3    H242828   0.417   0.656  12.701  1.0584 -0.8357 -0.9115
 7113TIP3   OH242829   5.475   4.038   4.596 -0.2835 -0.1051 -0.1275
 7113TIP3    H142830   5.478   3.987   4.515 -0.8382 -1.0556  0.4263
 7113TIP3    H242831   5.411   3.992   4.650 -2.2635  2.2760 -0.3125
 7114TIP3   OH242832   3.705   6.304  14.749 -0.0020 -0.8607 -0.2389
 7114TIP3    H142833   3.622   6.287  14.705 -0.6728  1.1983  0.1401
 7114TIP3    H242834   3.684   6.303  14.843  0.2254  0.3965 -0.1610
 7115TIP3   OH242835   4.665   7.248  11.550  0.0677  0.3632  0.0283
 7115TIP3    H142836   4.607   7.297  11.492  0.8693  3.5843  1.7293
 7115TIP3    H242837   4.628   7.259  11.637  1.1735 -0.7848  0.6914
 7116TIP3   OH242838   3.929   2.177  13.371 -0.4354  0.0730 -0.0880
 7116TIP3    H142839   3.945   2.216  13.457  1.4310  1.7055 -1.1250
 7116TIP3    H242840   4.008   2.195  13.320 -1.2857 -1.2917 -2.0210
 7117TIP3   OH242841   6.012   6.027   2.996  0.0694 -0.3337  0.5426
 7117TIP3    H142842   6.104   6.048   2.982 -0.2447  0.0804 -1.1410
 7117TIP3    H242843   5.993   5.957   2.933 -1.4534  1.6300 -1.3557
 7118TIP3   OH242844   3.155   1.146   1.961  0.1906 -0.0558 -0.3310
 7118TIP3    H142845   3.060   1.134   1.964 -0.1511  2.2904 -0.4628
 7118TIP3    H242846   3.171   1.192   1.878  1.1852  1.3462  0.5952
 7119TIP3   OH242847   6.407   4.498  10.373  0.1646  0.1055  0.3190
 7119TIP3    H142848   6.438   4.487  10.283  1.9727 -1.3373  1.0447
 7119TIP3    H242849   6.373   4.587  10.376  0.7824  0.4574 -1.5912
 7120TIP3   OH242850   0.043   3.503   3.690 -0.3173  0.7272 -0.1361
 7120TIP3    H142851   0.074   3.415   3.708  0.0536  0.4963 -1.7098
 7120TIP3    H242852   0.120   3.550   3.657 -0.8837  1.1248 -0.9393
 7121TIP3   OH242853   6.436   6.650  15.019  0.1675 -0.3642 -0.6318
 7121TIP3    H142854   6.424   6.668  15.112  1.1586  0.2121 -0.5956
 7121TIP3    H242855   6.423   6.735  14.977  0.1757 -0.5311 -0.9739
 7122TIP3   OH242856   0.240   5.111  14.418 -0.1664 -0.7210 -0.4883
 7122TIP3    H142857   0.273   5.078  14.335  0.2753  1.4005 -1.2199
 7122TIP3    H242858   0.297   5.071  14.484  1.3075 -0.2592 -1.4376
 7123TIP3   OH242859   6.525   0.638  13.084  0.0667  0.4120 -0.1036
 7123TIP3    H142860   6.603   0.683  13.051 -0.1891  2.6155  2.0195
 7123TIP3    H242861   6.460   0.649  13.015  0.3111  2.6257 -0.0644
 7124TIP3   OH242862   0.542   1.752  14.762  0.4056  0.3788  0.5567
 7124TIP3    H142863   0.630   1.769  14.794  1.4934 -2.9269 -0.3446
 7124TIP3    H242864   0.509   1.681  14.817 -0.6979 -0.1480 -0.7200
 7125TIP3   OH242865   0.167   0.487   0.394  0.3769 -0.2266  0.7704
 7125TIP3    H142866   0.113   0.409   0.381 -0.4095  0.3285  0.5720
 7125TIP3    H242867   0.121   0.536   0.462  1.0692 -0.1154  1.1601
 7126TIP3   OH242868   1.994   0.820  10.136  0.1008  0.3799  0.2202
 7126TIP3    H142869   2.067   0.826  10.197 -0.1707 -1.0972  0.7331
 7126TIP3    H242870   2.020   0.752  10.074 -0.6820  0.0951  0.1898
 7127TIP3   OH242871   4.102   0.118   3.880 -0.0446  0.7786 -0.1714
 7127TIP3    H142872   4.107   0.055   3.952 -2.2720  1.2360  0.4763
 7127TIP3    H242873   4.186   0.110   3.836  0.7945 -0.6668  1.5204
 7128TIP3   OH242874   3.453   4.264  10.936  0.3103  0.5178  0.4070
 7128TIP3    H142875   3.509   4.286  10.861  1.4680 -1.9404  0.4518
 7128TIP3    H242876   3.412   4.347  10.960  3.5528  2.4267  0.0368
 7129TIP3   OH242877   0.636   0.054  14.271 -0.2980 -0.4814  0.2499
 7129TIP3    H142878   0.620  -0.032  14.232  0.5797 -0.3005 -0.5377
 7129TIP3    H242879   0.649   0.036  14.364  1.1271 -1.3717 -0.0877
 7130TIP3   OH242880   0.744   7.032   2.366 -0.1566 -0.3730  0.2154
 7130TIP3    H142881   0.738   6.940   2.392 -0.0654 -0.6937 -0.8509
 7130TIP3    H242882   0.829   7.061   2.397 -0.0813 -0.7155  0.3324
 7131TIP3   OH242883   1.737   7.135  12.889 -0.0712 -0.0821  0.5608
 7131TIP3    H142884   1.781   7.050  12.893 -2.2489 -1.3663 -0.9346
 7131TIP3    H242885   1.711   7.144  12.798 -1.4000  1.3790  1.0427
 7132TIP3   OH242886   5.843   5.702   9.466 -0.3349 -0.3668  0.0145
 7132TIP3    H142887   5.799   5.691   9.551 -0.3365 -1.3337 -0.1018
 7132TIP3    H242888   5.841   5.615   9.427 -0.7857  0.1721 -1.2028
 7133TIP3   OH242889   2.859   7.161   3.681 -0.1173  0.8571 -0.1707
 7133TIP3    H142890   2.825   7.133   3.766 -0.7213  0.5535 -0.5067
 7133TIP3    H242891   2.900   7.246   3.698 -3.5864  2.7174 -0.2686
 7134TIP3   OH242892   1.694   7.140  12.623  0.3568  0.5464 -0.5186
 7134TIP3    H142893   1.647   7.222  12.605 -1.7598 -0.3958  0.4187
 7134TIP3    H242894   1.630   7.071  12.605  1.3911 -0.8135  0.7838
 7135TIP3   OH242895   2.321   3.647  12.671 -0.2739 -0.1535 -0.2076
 7135TIP3    H142896   2.393   3.699  12.705  0.4099 -1.1085 -0.1622
 7135TIP3    H242897   2.328   3.564  12.717 -1.0406 -0.4670 -0.6471
 7136TIP3   OH242898   1.441   0.652   4.560 -0.7313  0.5181 -0.6439
 7136TIP3    H142899   1.391   0.713   4.614 -0.1382  1.1468 -0.7893
 7136TIP3    H242900   1.505   0.614   4.620 -1.1318 -0.0079 -0.5423
 7137TIP3   OH242901   0.382   3.901   0.830  0.1303 -0.7359  0.5308
 7137TIP3    H142902   0.360   3.972   0.891  1.1149 -0.8955  1.0826
 7137TIP3    H242903   0.422   3.946   0.755 -2.3501 -0.3894 -0.7063
 7138TIP3   OH242904   5.245   3.827  11.415  0.4084 -0.4171  0.0417
 7138TIP3    H142905   5.166   3.811  11.467  0.8286 -1.3227  0.4133
 7138TIP3    H242906   5.246   3.756  11.351  0.9153 -0.3961  0.0304
 7139TIP3   OH242907   4.172   0.991  12.046  0.6409 -0.5594 -0.3285
 7139TIP3    H142908   4.203   0.936  11.974  3.8317  1.2886 -0.5447
 7139TIP3    H242909   4.135   1.068  12.003 -0.0783 -0.6930  0.0280
 7140TIP3   OH242910   2.191   2.402  12.786  0.0948 -0.6037  0.2576
 7140TIP3    H142911   2.283   2.407  12.761  0.1366 -0.6665  0.4028
 7140TIP3    H242912   2.149   2.469  12.732 -0.0383 -1.6509 -0.9917
 7141TIP3   OH242913   3.522   4.388   4.730  0.6542 -0.5248 -0.2158
 7141TIP3    H142914   3.457   4.356   4.793  0.1018  1.0694  0.0714
 7141TIP3    H242915   3.506   4.336   4.651  0.9140 -2.0964  0.7207
 7142TIP3   OH242916   5.549   6.677   1.319  0.1063 -0.3345  0.5935
 7142TIP3    H142917   5.477   6.701   1.376  0.2482 -0.0016  0.6316
 7142TIP3    H242918   5.612   6.632   1.376  0.8960  1.2382  0.9968
 7143TIP3   OH242919   5.482   4.621  14.141 -0.0818 -0.1103  0.7125
 7143TIP3    H142920   5.567   4.580  14.155 -0.1250 -0.8434 -1.0187
 7143TIP3    H242921   5.501   4.715  14.141  0.9078 -0.2848 -0.6577
 7144TIP3   OH242922   0.557   2.170   9.899 -0.0567  0.2032 -0.0486
 7144TIP3    H142923   0.619   2.194   9.830  0.2053 -0.4096 -0.0350
 7144TIP3    H242924   0.583   2.082   9.925 -0.3446  0.3104  0.6230
 7145TIP3   OH242925   5.165   3.512   1.961 -0.0583 -0.2523  0.4107
 7145TIP3    H142926   5.164   3.418   1.939 -1.5339 -0.1866  0.0575
 7145TIP3    H242927   5.148   3.514   2.056  2.7510 -0.4027  0.9977
 7146TIP3   OH242928   4.845   6.047   1.715  0.0116 -0.2565 -0.0935
 7146TIP3    H142929   4.886   5.974   1.668 -1.6013 -0.7274 -0.8446
 7146TIP3    H242930   4.852   6.023   1.807  1.1803 -0.4266 -0.2115
 7147TIP3   OH242931   0.450   4.020  13.822  0.4433  0.4515 -0.3588
 7147TIP3    H142932   0.543   4.035  13.804  0.7667 -0.3193  0.5868
 7147TIP3    H242933   0.446   3.928  13.848 -0.6488  0.3795 -0.7534
 7148TIP3   OH242934   2.637   0.830   0.187  0.5467  0.5216  0.4387
 7148TIP3    H142935   2.651   0.763   0.120  0.6091  0.0855  0.8799
 7148TIP3    H242936   2.683   0.906   0.155 -1.3426  1.0841 -1.1521
 7149TIP3   OH242937   1.272   6.151   2.225 -0.0021  0.4730  0.0658
 7149TIP3    H142938   1.181   6.122   2.220  0.2487 -0.2259 -0.7233
 7149TIP3    H242939   1.289   6.161   2.318 -1.0130  1.0250  0.2035
 7150TIP3   OH242940   4.069   0.081  10.931  0.1583 -0.2941  0.2801
 7150TIP3    H142941   4.148   0.085  10.877  0.8971 -0.6122  1.3019
 7150TIP3    H242942   4.071   0.161  10.982 -1.1306  0.5531 -0.9106
 7151TIP3   OH242943   1.123   2.453   3.221 -0.5158 -0.0794 -0.3416
 7151TIP3    H142944   1.163   2.531   3.261 -1.9701  1.2116 -1.2966
 7151TIP3    H242945   1.147   2.459   3.128 -3.1462  0.9891 -1.0511
 7152TIP3   OH242946   0.638   1.972   3.316 -0.4978  0.3361  0.3889
 7152TIP3    H142947   0.687   2.046   3.279  0.1284  0.0206  0.5715
 7152TIP3    H242948   0.566   2.013   3.364  0.9878  0.9581  2.2175
 7153TIP3   OH242949   4.909   0.123   1.610  0.6679  0.0155  0.1315
 7153TIP3    H142950   4.821   0.156   1.591 -0.1156 -2.3032 -0.6571
 7153TIP3    H242951   4.968   0.189   1.574 -0.7760 -0.0230 -2.6055
 7154TIP3   OH242952   2.487   0.404  11.599 -0.5169 -0.1679 -0.0429
 7154TIP3    H142953   2.452   0.368  11.517  1.2111 -0.8653 -0.5336
 7154TIP3    H242954   2.419   0.462  11.631 -1.2405  0.1491 -2.0091
 7155TIP3   OH242955   7.155   2.489  14.832  0.4347  0.1562  0.3008
 7155TIP3    H142956   7.220   2.507  14.764  0.8053  1.7872  1.0537
 7155TIP3    H242957   7.078   2.458  14.783  0.9636  0.5343 -0.8045
 7156TIP3   OH242958   4.403   5.018  15.316  0.0043 -0.5619 -0.4182
 7156TIP3    H142959   4.468   4.961  15.356  0.5600  1.1053  1.1726
 7156TIP3    H242960   4.452   5.071  15.254  0.2309  0.7650  0.8537
 7157TIP3   OH242961   4.995   4.313  10.206  0.6975 -0.2697 -0.0915
 7157TIP3    H142962   5.074   4.259  10.217  0.2534 -0.9811 -0.2818
 7157TIP3    H242963   4.931   4.273  10.264  0.4711  0.2961  0.0476
 7158TIP3   OH242964   6.533   3.926  12.203 -0.6243  0.0876 -0.8336
 7158TIP3    H142965   6.581   3.989  12.149 -1.5339  0.4898 -1.1997
 7158TIP3    H242966   6.554   3.950  12.293  3.3465 -2.4367 -0.8643
 7159TIP3   OH242967   3.807   0.558  10.053  0.8237  0.9537  0.3006
 7159TIP3    H142968   3.788   0.603   9.971  0.5472  1.2561  0.5261
 7159TIP3    H242969   3.901   0.566  10.064  0.6898  2.0938  0.6877
 7160TIP3   OH242970   2.438   3.653  12.396 -0.0347 -0.3611  0.3755
 7160TIP3    H142971   2.368   3.644  12.460 -0.9823 -1.6112 -0.7873
 7160TIP3    H242972   2.502   3.587  12.421 -0.8626 -1.5411 -0.4780
 7161TIP3   OH242973   3.570   3.389   0.114  0.4171 -0.5106  0.5942
 7161TIP3    H142974   3.481   3.369   0.143  1.1446 -1.8304  2.0611
 7161TIP3    H242975   3.597   3.464   0.168  1.1713 -1.9077  2.2293
 7162TIP3   OH242976   5.983   5.562   0.272 -0.1247  0.5053 -0.1405
 7162TIP3    H142977   5.992   5.577   0.366 -0.5782 -0.4334  0.0642
 7162TIP3    H242978   6.036   5.484   0.255 -0.7838  0.1299 -0.4888
 7163TIP3   OH242979   5.973   4.700   3.294  0.0841  0.1276  0.6035
 7163TIP3    H142980   6.035   4.628   3.288 -0.4618 -0.2250 -1.5718
 7163TIP3    H242981   5.887   4.659   3.280 -0.2143  1.1921 -0.9435
 7164TIP3   OH242982   1.619   4.340   0.320  0.1896 -0.3332 -0.3077
 7164TIP3    H142983   1.642   4.427   0.287  0.3701 -0.7801 -1.3932
 7164TIP3    H242984   1.662   4.279   0.260 -1.1240 -1.1752 -0.4420
 7165TIP3   OH242985   4.782   0.121   0.525 -0.1496 -0.4632  0.5521
 7165TIP3    H142986   4.713   0.169   0.478  2.0866  0.6262 -1.8882
 7165TIP3    H242987   4.752   0.030   0.524 -1.0768 -0.2046 -1.5081
 7166TIP3   OH242988   3.053   3.726  10.923  0.3156  0.3664  0.4030
 7166TIP3    H142989   2.991   3.709  10.852 -0.9477  2.7089  0.8508
 7166TIP3    H242990   3.130   3.674  10.900 -1.3593 -1.7806 -0.7500
 7167TIP3   OH242991   2.200   5.063  12.405  0.2788  0.0556  0.1798
 7167TIP3    H142992   2.116   5.019  12.417 -0.1246  0.9255  0.6390
 7167TIP3    H242993   2.253   5.001  12.355 -0.6438 -0.4922 -0.1387
 7168TIP3   OH242994   5.328   4.343  14.721 -0.0495  0.0740  0.0087
 7168TIP3    H142995   5.281   4.370  14.800  0.7512 -0.2077  0.5861
 7168TIP3    H242996   5.360   4.425  14.684  0.8299  0.1015  0.7863
 7169TIP3   OH242997   1.708   4.659  14.990  0.0202  0.1008 -0.0529
 7169TIP3    H142998   1.773   4.701  14.934 -0.0038  0.6500  0.3298
 7169TIP3    H242999   1.680   4.727  15.051 -1.7744  0.2185 -0.9439
 7170TIP3   OH243000   0.770   0.465  12.997  0.0939  0.7016  0.2156
 7170TIP3    H143001   0.849   0.443  13.046  0.1980  2.1686  0.7603
 7170TIP3    H243002   0.799   0.472  12.906  0.5663  1.0351  0.3863
 7171TIP3   OH243003   5.027   2.234  14.996  0.2157  0.1142 -0.0222
 7171TIP3    H143004   5.058   2.208  15.083  0.8199 -0.8485 -0.5008
 7171TIP3    H243005   5.009   2.327  15.004  0.2612  0.0452  1.1345
 7172TIP3   OH243006   1.303   2.182  10.952  0.2715 -0.4751  0.4651
 7172TIP3    H143007   1.350   2.181  11.036  0.2597 -0.2984  0.4742
 7172TIP3    H243008   1.372   2.197  10.887 -0.0530  2.2747  0.6716
 7173TIP3   OH243009   3.403   6.027   4.292 -0.2448 -0.4205 -0.3788
 7173TIP3    H143010   3.317   6.066   4.306 -1.0938 -1.7925 -1.4793
 7173TIP3    H243011   3.410   6.019   4.197  0.6006 -1.3797 -0.2530
 7174TIP3   OH243012   6.561   2.678  11.906 -0.1289 -0.3988 -0.5711
 7174TIP3    H143013   6.482   2.726  11.930  1.8995  2.7116  0.5907
 7174TIP3    H243014   6.583   2.627  11.985 -0.1575 -0.0568 -0.3413
 7175TIP3   OH243015   5.163   5.505   4.119 -0.2454  0.1122 -0.2266
 7175TIP3    H143016   5.190   5.508   4.027  1.1754  0.4691  0.1848
 7175TIP3    H243017   5.081   5.555   4.121 -0.9260 -0.8787 -1.4774
 7176TIP3   OH243018   7.224   3.720   0.820  0.4754 -0.0187  0.1032
 7176TIP3    H143019   7.262   3.781   0.757  0.9608 -0.7271 -0.3174
 7176TIP3    H243020   7.133   3.712   0.794  0.2911  0.8629  0.4418
 7177TIP3   OH243021   2.820   4.295  12.273 -0.6521 -0.6592 -0.1596
 7177TIP3    H143022   2.760   4.308  12.346 -0.8761  0.4979 -0.5293
 7177TIP3    H243023   2.771   4.239  12.212 -0.0024 -2.6863  1.0727
 7178TIP3   OH243024   2.586   3.993  11.289  0.1276  0.0356 -0.5899
 7178TIP3    H143025   2.507   3.939  11.294  0.7420 -0.7654  0.6922
 7178TIP3    H243026   2.658   3.932  11.299  0.8851  0.9161 -0.5706
 7179TIP3   OH243027   5.458   1.822  14.137 -0.3884  0.2517 -0.4685
 7179TIP3    H143028   5.366   1.814  14.160 -0.9876  2.8787 -1.6149
 7179TIP3    H243029   5.476   1.916  14.140  2.4351 -0.2039  0.2701
 7180TIP3   OH243030   6.344   2.437  11.749 -0.6351  0.4852  0.0382
 7180TIP3    H143031   6.291   2.514  11.767  0.5123  1.4719 -0.6151
 7180TIP3    H243032   6.390   2.419  11.831 -1.3750  0.0970  0.3753
 7181TIP3   OH243033   4.215   7.007   0.958  0.5094 -0.0915 -0.0880
 7181TIP3    H143034   4.237   6.918   0.931  0.3291 -0.1414 -0.0695
 7181TIP3    H243035   4.157   6.996   1.033  1.3665  0.0508  0.6081
 7182TIP3   OH243036   1.861   5.068  14.052  0.4871 -0.4280 -0.2240
 7182TIP3    H143037   1.829   5.129  13.985 -0.9733 -1.2483 -0.3334
 7182TIP3    H243038   1.956   5.075  14.048  0.4272 -0.1734 -2.1262
 7183TIP3   OH243039   6.181   2.909   2.701  0.0761 -0.3677 -0.0144
 7183TIP3    H143040   6.151   2.919   2.791  1.4527 -0.0386  0.4235
 7183TIP3    H243041   6.186   2.999   2.667  0.2635 -0.4397 -0.1789
 7184TIP3   OH243042   4.767   3.668   0.045 -0.3014 -0.5581  0.0379
 7184TIP3    H143043   4.825   3.660   0.120  0.9133  3.3339 -0.2247
 7184TIP3    H243044   4.826   3.668  -0.031 -0.1834  4.0415 -0.2015
 7185TIP3   OH243045   1.067   2.776  14.440  0.3018 -0.0845  0.0488
 7185TIP3    H143046   1.073   2.807  14.530 -3.8913  0.8464  0.1810
 7185TIP3    H243047   1.063   2.681  14.447 -0.2470 -0.0055  0.8664
 7186TIP3   OH243048   5.672   5.556  13.960 -0.3458  0.5640  0.6436
 7186TIP3    H143049   5.667   5.504  13.879  1.0110  1.4454 -0.0360
 7186TIP3    H243050   5.604   5.519  14.016  1.0683 -2.5041  0.5175
 7187TIP3   OH243051   5.292   5.030   0.960 -0.0487  0.2329  0.1461
 7187TIP3    H143052   5.352   5.037   1.035  0.1393 -0.5962  0.0754
 7187TIP3    H243053   5.293   5.118   0.921  0.7211  0.3681  0.4474
 7188TIP3   OH243054   3.130   6.662   9.772  0.3841 -0.4411 -0.2423
 7188TIP3    H143055   3.193   6.598   9.737  2.0827  0.3143  1.2812
 7188TIP3    H243056   3.180   6.742   9.782 -1.2075  0.5905 -0.2521
 7189TIP3   OH243057   4.865   5.358   1.189 -0.1864  0.1835  0.1032
 7189TIP3    H143058   4.784   5.316   1.159  1.3271 -2.8100 -0.1707
 7189TIP3    H243059   4.889   5.418   1.119 -1.2240 -0.2116 -0.6182
 7190TIP3   OH243060   5.945   4.801  15.150 -0.0586 -0.0077  0.2128
 7190TIP3    H143061   5.891   4.852  15.089  1.1777  1.5656  0.3953
 7190TIP3    H243062   5.936   4.845  15.234 -3.1286 -3.1210  1.7840
 7191TIP3   OH243063   1.210   5.023  12.335 -0.1566 -0.0312  0.0331
 7191TIP3    H143064   1.194   5.073  12.255  1.2167 -1.8301 -1.4954
 7191TIP3    H243065   1.137   4.961  12.340 -0.7566  0.7114  0.7580
 7192TIP3   OH243066   3.845   3.955  12.841 -0.5645 -0.2146  0.1050
 7192TIP3    H143067   3.864   4.033  12.788 -0.4992  0.3624  0.9526
 7192TIP3    H243068   3.881   3.976  12.928 -0.5409 -1.1988  0.3417
 7193TIP3   OH243069   3.915   2.834  13.478  0.5023 -0.1577 -0.1889
 7193TIP3    H143070   3.874   2.757  13.518  1.5536 -0.4383  0.3878
 7193TIP3    H243071   4.005   2.808  13.462  1.3581  1.4527  1.5337
 7194TIP3   OH243072   5.613   6.425  13.170  0.6769 -0.0627 -0.4506
 7194TIP3    H143073   5.560   6.368  13.115  1.7726 -0.1202 -1.4732
 7194TIP3    H243074   5.560   6.505  13.181  0.6775  0.1798 -2.0627
 7195TIP3   OH243075   4.665   6.308  13.803  0.0043  0.8663 -0.0892
 7195TIP3    H143076   4.657   6.330  13.896  0.6375 -1.8056  0.7003
 7195TIP3    H243077   4.576   6.314  13.769 -0.1485  2.4334  0.4974
 7196TIP3   OH243078   6.195   7.198   1.432  0.3954  0.0660 -0.2790
 7196TIP3    H143079   6.204   7.191   1.527 -1.3148  2.4831  0.1640
 7196TIP3    H243080   6.284   7.214   1.400  0.9349 -0.4320  0.9310
 7197TIP3   OH243081   4.671   6.490  10.884  0.5714 -1.0039 -0.4653
 7197TIP3    H143082   4.630   6.499  10.798  0.1060  0.5854 -0.1063
 7197TIP3    H243083   4.597   6.485  10.945  0.8259  1.2429  0.1308
 7198TIP3   OH243084   2.149   5.554   4.252  0.0374  0.3674  0.1590
 7198TIP3    H143085   2.218   5.539   4.316  0.0734 -2.3206 -0.4116
 7198TIP3    H243086   2.068   5.535   4.298 -0.0476 -0.0241 -0.1428
 7199TIP3   OH243087   2.498   7.019  14.265  0.2110 -0.0562  0.1208
 7199TIP3    H143088   2.433   7.067  14.316  2.0309  0.8521  1.6731
 7199TIP3    H243089   2.495   7.059  14.178  1.7160  3.0205  1.3725
 7200TIP3   OH243090   3.120   6.404   1.639  0.1488  0.2903 -0.0108
 7200TIP3    H143091   3.029   6.406   1.608  0.2103 -1.5817 -0.4467
 7200TIP3    H243092   3.169   6.454   1.574 -0.7062  2.5579  0.9683
 7201TIP3   OH243093   5.731   1.592  11.214  0.2316 -0.4252  0.5090
 7201TIP3    H143094   5.760   1.614  11.126 -0.0691 -0.2075  0.4607
 7201TIP3    H243095   5.669   1.661  11.236 -1.9094 -1.9905 -0.2283
 7202TIP3   OH243096   4.156   5.235  11.500 -0.1458 -0.0219 -0.2436
 7202TIP3    H143097   4.110   5.307  11.457  1.0903  0.1278 -1.3611
 7202TIP3    H243098   4.138   5.158  11.445  1.6224  0.2155 -1.2002
 7203TIP3   OH243099   4.333   0.507  10.042  0.1091 -0.8181  0.3548
 7203TIP3    H143100   4.400   0.466   9.988 -1.2253 -2.7782  0.0978
 7203TIP3    H243101   4.325   0.449  10.118  1.8053  1.7491  2.7098
 7204TIP3   OH243102   5.416   2.002  11.529 -0.0941 -0.5715  0.0104
 7204TIP3    H143103   5.414   2.072  11.464 -0.2688 -0.2100  0.4058
 7204TIP3    H243104   5.336   1.951  11.511 -0.6962  0.1422  0.6134
 7205TIP3   OH243105   4.885   3.324  12.976  0.3163  0.1734 -0.6708
 7205TIP3    H143106   4.865   3.244  13.023 -0.9805  1.4818  1.1311
 7205TIP3    H243107   4.848   3.311  12.888 -2.0547 -0.3409  0.3227
 7206TIP3   OH243108   4.717   7.168  13.667  0.3854  0.3266 -0.6254
 7206TIP3    H143109   4.682   7.193  13.582  1.2624 -1.8966 -1.7322
 7206TIP3    H243110   4.648   7.113  13.705  1.0956 -1.0301 -1.2080
 7207TIP3   OH243111   6.751   1.053  11.340  0.1349  0.9793 -0.5792
 7207TIP3    H143112   6.743   1.080  11.431  3.2935 -1.4308  0.5713
 7207TIP3    H243113   6.689   0.980  11.331  1.2004 -0.0682  0.2857
 7208TIP3   OH243114   1.988   1.431   1.745  0.5639 -0.1059 -0.0210
 7208TIP3    H143115   2.059   1.423   1.808  1.5869 -0.5467 -1.1966
 7208TIP3    H243116   1.966   1.341   1.722 -0.1486  0.0363  0.0631
 7209TIP3   OH243117   6.325   2.827  11.969 -0.4615 -0.1824 -0.5369
 7209TIP3    H143118   6.242   2.810  12.013 -0.6751 -1.1353 -1.2698
 7209TIP3    H243119   6.350   2.915  11.997 -2.7455  0.9858 -1.9052
 7210TIP3   OH243120   3.068   1.765   1.691 -0.0947 -0.1334 -0.3381
 7210TIP3    H143121   3.101   1.789   1.605  0.3099  1.0648  0.1342
 7210TIP3    H243122   3.096   1.674   1.703  0.0833 -0.2227 -1.3460
 7211TIP3   OH243123   3.347   6.980   3.094 -0.5898  0.0309  0.3511
 7211TIP3    H143124   3.401   6.997   3.017 -0.1664  0.5350  0.7530
 7211TIP3    H243125   3.409   6.965   3.165 -0.9743  0.3251  0.7554
 7212TIP3   OH243126   5.991   4.223   2.615  0.5203 -0.2923  0.1942
 7212TIP3    H143127   5.916   4.218   2.674  2.4547 -0.3554  2.8379
 7212TIP3    H243128   5.994   4.137   2.572 -0.5562 -0.4898  0.4792
 7213TIP3   OH243129   5.348   4.706   3.725  0.5683 -0.2899 -0.2158
 7213TIP3    H143130   5.425   4.697   3.669  1.7901  1.9613  0.9321
 7213TIP3    H243131   5.315   4.794   3.707  0.1934 -0.0184  1.5650
 7214TIP3   OH243132   4.765   3.043   4.399 -0.0435 -0.7719  0.1253
 7214TIP3    H143133   4.773   2.958   4.442 -0.2745 -0.6992  0.3135
 7214TIP3    H243134   4.746   3.104   4.470  0.8857 -0.4319  0.0930
 7215TIP3   OH243135   7.026   2.614  10.559 -0.5023 -0.7416 -0.9677
 7215TIP3    H143136   6.985   2.606  10.645  4.4539 -0.4332  1.7898
 7215TIP3    H243137   7.035   2.523  10.529  1.7912 -1.3412  1.2083
 7216TIP3   OH243138   4.736   6.658   5.069 -0.0548  0.2446  0.0395
 7216TIP3    H143139   4.826   6.679   5.044  0.0476 -1.7984 -1.6363
 7216TIP3    H243140   4.744   6.618   5.156  0.4831  1.1677  0.4305
 7217TIP3   OH243141   1.401   0.998   4.576  0.0610 -0.2122 -0.0026
 7217TIP3    H143142   1.479   0.965   4.531 -0.1173  0.8321 -1.1196
 7217TIP3    H243143   1.368   1.068   4.520 -1.4210 -0.3132  0.6892
 7218TIP3   OH243144   7.189   4.262  14.442 -0.2446 -0.0148 -0.4460
 7218TIP3    H143145   7.266   4.297  14.398  1.6294 -1.4427  1.4897
 7218TIP3    H243146   7.223   4.219  14.520 -3.0291 -0.7193  0.5100
 7219TIP3   OH243147   3.384   5.037  11.798  0.2682  0.6939 -0.0053
 7219TIP3    H143148   3.361   5.069  11.885  0.5687  2.3859 -0.5104
 7219TIP3    H243149   3.427   5.111  11.756 -1.7469  0.6569 -2.3667
 7220TIP3   OH243150   5.861   4.566  13.170  0.3606  0.6875  0.0802
 7220TIP3    H143151   5.943   4.610  13.190  0.8111 -0.2005  0.2598
 7220TIP3    H243152   5.852   4.572  13.075  1.2017 -0.1459 -0.0686
 7221TIP3   OH243153   7.203   6.713   9.434 -0.1474 -0.2270 -0.4423
 7221TIP3    H143154   7.224   6.646   9.370 -0.7374 -0.3047 -0.5579
 7221TIP3    H243155   7.221   6.796   9.390 -0.9932 -0.2657 -0.8745
 7222TIP3   OH243156   5.911   5.452  14.307  0.5686  0.2184 -0.3037
 7222TIP3    H143157   5.980   5.422  14.248 -0.4785  0.3985 -1.6697
 7222TIP3    H243158   5.837   5.395  14.289 -0.5906  1.8648 -1.0240
 7223TIP3   OH243159   3.114   2.133  13.086  0.3754  0.0503  0.2046
 7223TIP3    H143160   3.037   2.091  13.123 -1.0722  1.1130 -1.4238
 7223TIP3    H243161   3.094   2.226  13.087  2.1044  0.4551  0.6804
 7224TIP3   OH243162   4.523   1.075  10.134  0.2972 -0.5006  0.3362
 7224TIP3    H143163   4.568   0.997  10.101 -1.1934 -1.1681 -0.2186
 7224TIP3    H243164   4.452   1.090  10.072 -0.4373  0.3160  1.3384
 7225TIP3   OH243165   5.429   3.843  14.873 -0.1258  0.1097  0.3333
 7225TIP3    H143166   5.339   3.852  14.907 -0.0500 -1.0551  0.8727
 7225TIP3    H243167   5.423   3.771  14.809  0.6331 -0.7266  1.1819
 7226TIP3   OH243168   1.102   3.822   0.184 -0.1759  0.4175  0.5149
 7226TIP3    H143169   1.090   3.834   0.089  0.8700  0.9442  0.4292
 7226TIP3    H243170   1.191   3.855   0.200 -0.7924  1.4697  1.8890
 7227TIP3   OH243171   0.467   2.204  12.797 -0.2307 -0.3594  0.1737
 7227TIP3    H143172   0.463   2.134  12.863 -0.5792 -0.2780  0.2406
 7227TIP3    H243173   0.468   2.285  12.848 -0.0051 -0.3099  0.0901
 7228TIP3   OH243174   4.194   5.307   3.088 -0.2589  0.2535 -0.2254
 7228TIP3    H143175   4.228   5.369   3.024  0.2155  0.1903 -0.0390
 7228TIP3    H243176   4.269   5.286   3.144 -0.4732 -0.3008 -0.1368
 7229TIP3   OH243177   4.547   0.516  11.772 -0.2588 -0.4283  0.2148
 7229TIP3    H143178   4.575   0.448  11.833 -0.7644 -2.0446 -1.2441
 7229TIP3    H243179   4.558   0.476  11.685 -1.2633  1.1025 -0.6778
 7230TIP3   OH243180   6.199   4.636   9.829 -0.6872 -0.5155  0.6463
 7230TIP3    H143181   6.141   4.709   9.809  1.6440  1.8651  1.9735
 7230TIP3    H243182   6.244   4.618   9.746 -0.1300  0.7118  0.6602
 7231TIP3   OH243183   5.433   0.041  14.616  0.5609 -0.4609 -0.1462
 7231TIP3    H143184   5.352  -0.004  14.591  0.0725 -0.8798  2.0265
 7231TIP3    H243185   5.495  -0.030  14.632  0.3998 -0.3179  1.2518
 7232TIP3   OH243186   3.285   6.951   5.227  0.0909  0.4857  0.0912
 7232TIP3    H143187   3.230   6.956   5.305 -0.4176  1.9281 -0.3347
 7232TIP3    H243188   3.349   7.021   5.238  0.0961  0.6141 -0.7157
 7233TIP3   OH243189   3.654   3.097  10.618  0.0147  0.2976  0.2536
 7233TIP3    H143190   3.612   3.182  10.631  0.0135  0.1801  1.1215
 7233TIP3    H243191   3.589   3.033  10.647 -0.4414 -0.0891 -1.5306
 7234TIP3   OH243192   0.020   0.046  12.361 -0.2460 -0.2590 -0.2968
 7234TIP3    H143193  -0.046   0.080  12.421  2.0003  1.3566  1.4711
 7234TIP3    H243194   0.078  -0.007  12.417 -0.2564 -2.0101 -1.8642
 7235TIP3   OH243195   5.341   6.857  13.917  0.1773  0.1024 -0.3038
 7235TIP3    H143196   5.425   6.887  13.953  0.0413 -1.0459  1.0480
 7235TIP3    H243197   5.355   6.765  13.896 -0.6755 -0.0359 -0.3034
 7236TIP3   OH243198   5.577   6.000  10.354 -0.0687 -0.0752  0.3813
 7236TIP3    H143199   5.547   5.977  10.266  1.8273  1.3170 -0.6960
 7236TIP3    H243200   5.499   6.038  10.396 -1.0630 -0.9614 -0.5828
 7237TIP3   OH243201   5.551   0.335  12.682 -0.1527  0.7588 -0.1695
 7237TIP3    H143202   5.509   0.410  12.640 -1.8174  0.8494  1.5030
 7237TIP3    H243203   5.515   0.259  12.637 -0.3265  0.9058 -0.2784
 7238TIP3   OH243204   5.692   7.066  12.979 -0.0855 -0.2410 -0.1107
 7238TIP3    H143205   5.722   7.029  13.061  1.8960 -0.0498 -0.6859
 7238TIP3    H243206   5.768   7.061  12.921 -1.0511  0.7435 -1.5464
 7239TIP3   OH243207   5.901   0.525  14.264 -0.7684  0.0747 -0.5324
 7239TIP3    H143208   5.916   0.614  14.232  0.8940  0.2948  0.7569
 7239TIP3    H243209   5.833   0.534  14.331  2.1087  1.1334  2.5155
 7240TIP3   OH243210   5.287   5.073  13.790 -0.1825  0.4716  0.0195
 7240TIP3    H143211   5.297   5.020  13.711  1.2210  1.6919 -0.6684
 7240TIP3    H243212   5.309   5.014  13.862 -1.2267 -0.5829 -0.4969
 7241TIP3   OH243213   0.784   5.991   0.526 -0.1415  0.0740 -0.2573
 7241TIP3    H143214   0.879   5.977   0.522  0.0618  0.6936  1.5577
 7241TIP3    H243215   0.748   5.905   0.545 -0.1387 -0.4858 -2.4308
 7242TIP3   OH243216   2.331   1.868   5.326 -0.2465 -0.2462 -0.2620
 7242TIP3    H143217   2.284   1.839   5.248  0.5998 -3.3573  0.2735
 7242TIP3    H243218   2.424   1.853   5.306  0.1381  0.6889  0.6859
 7243TIP3   OH243219   6.179   6.323  10.662 -0.1664  0.0398 -0.0171
 7243TIP3    H143220   6.151   6.391  10.723  3.0506  2.2643 -0.7837
 7243TIP3    H243221   6.138   6.347  10.579 -1.5965 -0.9047  0.3667
 7244TIP3   OH243222   1.863   2.380  10.962  0.1808 -0.0249  0.2165
 7244TIP3    H143223   1.845   2.291  10.991 -1.2148 -0.2957 -1.3102
 7244TIP3    H243224   1.882   2.429  11.042  1.2330 -1.7253  1.0568
 7245TIP3   OH243225   2.350   4.783  13.495 -0.1593 -0.0779  0.1332
 7245TIP3    H143226   2.431   4.832  13.507  1.5988 -2.5098 -0.8383
 7245TIP3    H243227   2.365   4.701  13.542 -1.1087 -1.4770 -1.8607
 7246TIP3   OH243228   6.435   6.775  14.437  0.2346  0.2545  0.1777
 7246TIP3    H143229   6.441   6.687  14.399  1.7236  0.6624 -0.6072
 7246TIP3    H243230   6.412   6.831  14.362  1.8819  0.8818  0.1112
 7247TIP3   OH243231   0.089   5.791   3.389  0.0924 -0.0386  0.0395
 7247TIP3    H143232   0.073   5.731   3.462  1.0803 -1.3912 -0.8215
 7247TIP3    H243233   0.168   5.757   3.346 -0.1509  1.0454 -1.3436
 7248TIP3   OH243234   6.456   6.888  12.509  0.6049 -0.1206 -0.3181
 7248TIP3    H143235   6.485   6.978  12.498 -0.1663  0.3849  1.4872
 7248TIP3    H243236   6.533   6.842  12.543  0.8049  0.0134 -0.5917
 7249TIP3   OH243237   6.352   0.261   0.606 -0.2361  0.2490 -0.3358
 7249TIP3    H143238   6.439   0.237   0.639  0.0151  0.4202 -0.8726
 7249TIP3    H243239   6.303   0.284   0.685 -0.4547 -1.8450  0.2177
 7250TIP3   OH243240   5.414   0.425  10.648 -0.6597  0.2779 -0.2133
 7250TIP3    H143241   5.358   0.347  10.640 -1.3183  0.7531 -0.3159
 7250TIP3    H243242   5.355   0.493  10.680 -0.2735  0.9413 -0.8945
 7251TIP3   OH243243   3.256   2.586   0.723  0.2277 -0.3420  0.1432
 7251TIP3    H143244   3.309   2.511   0.749  0.7644 -0.5336 -1.3696
 7251TIP3    H243245   3.174   2.576   0.770  0.6162 -1.4166  0.6174
 7252TIP3   OH243246   1.050   4.841  11.518 -0.1879 -0.2621 -0.3965
 7252TIP3    H143247   1.122   4.778  11.515 -0.2848 -0.4446  0.6078
 7252TIP3    H243248   1.067   4.902  11.446  1.6734  0.4565  0.5940
 7253TIP3   OH243249   2.724   1.115   2.364  0.1153 -0.1916  0.2708
 7253TIP3    H143250   2.784   1.077   2.299  1.0962  2.1612 -0.2940
 7253TIP3    H243251   2.657   1.160   2.312 -0.1809  0.1150  0.9044
 7254TIP3   OH243252   0.424   3.281   3.023 -0.5595  0.0352 -0.2768
 7254TIP3    H143253   0.476   3.267   2.943 -2.2584  1.0422 -1.6205
 7254TIP3    H243254   0.353   3.217   3.016  0.6169 -1.5982  1.7362
 7255TIP3   OH243255   2.821   3.108  14.572 -0.0775 -0.1379  0.0692
 7255TIP3    H143256   2.887   3.094  14.640 -0.8445 -0.6627  0.7334
 7255TIP3    H243257   2.810   3.021  14.532 -2.6354 -0.8689  2.1172
 7256TIP3   OH243258   6.897   1.694   1.534  0.1892  0.5102 -0.0620
 7256TIP3    H143259   6.895   1.766   1.597 -1.4288  1.0524 -0.6923
 7256TIP3    H243260   6.855   1.729   1.455  0.1198 -0.8666 -0.6751
 7257TIP3   OH243261   0.240   5.471   5.040 -0.6541  0.3677 -0.2044
 7257TIP3    H143262   0.168   5.461   4.978 -1.3974 -0.6285  0.7765
 7257TIP3    H243263   0.202   5.515   5.116 -0.0465  0.4988  0.0371
 7258TIP3   OH243264   6.636   0.318  13.555 -0.0907 -0.1779 -0.2373
 7258TIP3    H143265   6.606   0.307  13.465 -0.3213  0.6531 -0.2678
 7258TIP3    H243266   6.556   0.309  13.607  0.2046 -1.8554  0.0055
 7259TIP3   OH243267   0.286   5.868  12.206  0.4391  0.5411  0.0743
 7259TIP3    H143268   0.219   5.866  12.138 -0.9537 -0.8131  1.3910
 7259TIP3    H243269   0.318   5.958  12.207 -1.6676  1.3431 -0.3434
 7260TIP3   OH243270   0.219   1.878   1.247  0.1499 -0.7435 -1.0522
 7260TIP3    H143271   0.166   1.946   1.205 -1.0190 -2.4986 -2.5435
 7260TIP3    H243272   0.214   1.803   1.188  2.5853 -1.6968 -0.1615
 7261TIP3   OH243273   6.123   6.383  14.168 -0.2519 -0.7293 -0.4095
 7261TIP3    H143274   6.176   6.403  14.245 -0.9491 -0.4472  0.0066
 7261TIP3    H243275   6.180   6.403  14.094  0.2510 -0.5232  0.0238
 7262TIP3   OH243276   3.627   5.136   0.513  0.5444 -0.0563  0.2125
 7262TIP3    H143277   3.681   5.059   0.532  1.8856  1.0828  1.2129
 7262TIP3    H243278   3.681   5.191   0.457  0.7706  1.4409  1.8113
 7263TIP3   OH243279   1.322   6.691   9.918  0.4514 -0.1002 -0.4278
 7263TIP3    H143280   1.377   6.698   9.840  1.5833  1.0974  0.4175
 7263TIP3    H243281   1.363   6.622   9.970  0.6736  0.2276 -0.1656
 7264TIP3   OH243282   5.597   2.285  10.603  0.3791  0.7701  0.3699
 7264TIP3    H143283   5.569   2.329  10.683  2.0895 -0.6292  1.8228
 7264TIP3    H243284   5.516   2.272  10.553 -0.9545  0.4150  2.5155
 7265TIP3   OH243285   5.062   1.610  13.287 -0.0100  0.8051 -0.6193
 7265TIP3    H143286   5.052   1.683  13.226  0.9082  0.8410 -0.7442
 7265TIP3    H243287   5.080   1.534  13.231  1.7958  1.0143 -0.3880
 7266TIP3   OH243288   2.530   5.113  12.629  0.2066 -0.7542  0.6456
 7266TIP3    H143289   2.442   5.132  12.597  0.5991  0.9295  0.4274
 7266TIP3    H243290   2.537   5.018  12.629 -1.7245 -0.9245  1.0097
 7267TIP3   OH243291   4.462   6.932  11.806 -0.3474  0.2084  0.1589
 7267TIP3    H143292   4.493   6.849  11.771 -0.0318  0.3226  0.1588
 7267TIP3    H243293   4.423   6.977  11.730 -1.1981 -0.2454  0.3137
 7268TIP3   OH243294   0.777   5.622  14.445 -0.3693 -0.2233 -0.4318
 7268TIP3    H143295   0.839   5.638  14.374  0.1275  1.6015  0.3591
 7268TIP3    H243296   0.811   5.544  14.489  1.4095  0.7528  0.0008
 7269TIP3   OH243297   1.401   5.478  13.673  0.0364  0.6013 -0.0019
 7269TIP3    H143298   1.429   5.419  13.603 -0.3441 -0.1377  0.4692
 7269TIP3    H243299   1.346   5.425  13.730  0.4334  1.1648  0.9297
 7270TIP3   OH243300   1.537   3.176   2.509 -0.3777  0.2752  0.1384
 7270TIP3    H143301   1.554   3.232   2.584  0.7964  0.0841  0.0284
 7270TIP3    H243302   1.471   3.114   2.540  0.1439  0.1552  1.0305
 7271TIP3   OH243303   1.482   6.451  12.227  0.3697 -0.1334  0.0849
 7271TIP3    H143304   1.454   6.423  12.140 -0.3049 -1.6814  0.7655
 7271TIP3    H243305   1.402   6.450  12.280  0.4821  2.2301  0.4207
 7272TIP3   OH243306   0.833   3.337   2.117 -0.0397  0.3576  0.3219
 7272TIP3    H143307   0.787   3.329   2.201  1.1920 -0.2715  0.9596
 7272TIP3    H243308   0.918   3.295   2.131  0.4134  0.7249 -1.0827
 7273TIP3   OH243309   1.118   2.535   2.780 -0.4375 -0.1272 -0.1666
 7273TIP3    H143310   1.090   2.454   2.738  0.4367  0.3624 -1.7579
 7273TIP3    H243311   1.187   2.507   2.841 -1.0336 -0.7171  0.2638
 7274TIP3   OH243312   6.786   6.672  10.634  0.5191 -0.3657  0.0461
 7274TIP3    H143313   6.714   6.695  10.692  0.7731  1.2762 -0.2309
 7274TIP3    H243314   6.753   6.599  10.582  0.2782 -1.8566  2.1891
 7275TIP3   OH243315   4.854   3.386  12.719 -0.1264  0.4523  0.3527
 7275TIP3    H143316   4.823   3.469  12.756  3.1920  1.3026  1.5692
 7275TIP3    H243317   4.775   3.334  12.708 -2.3937  3.7335 -0.4988
 7276TIP3   OH243318   3.620   6.549  13.072  0.6463  0.0268 -0.3678
 7276TIP3    H143319   3.687   6.562  13.139  0.3730 -0.8059  0.0882
 7276TIP3    H243320   3.559   6.622  13.084  0.4445 -0.2746  0.4882
 7277TIP3   OH243321   4.115   6.987   0.684 -0.3556 -0.2016  0.2334
 7277TIP3    H143322   4.160   6.997   0.768  1.1503 -2.8108 -0.1552
 7277TIP3    H243323   4.159   6.913   0.642 -1.4542  0.6315 -2.6232
 7278TIP3   OH243324   0.957   3.443  11.609  0.3247 -0.4477 -0.3000
 7278TIP3    H143325   1.017   3.433  11.536  1.5166 -1.8893  0.8021
 7278TIP3    H243326   0.977   3.529  11.646  0.3144 -0.0855 -1.1263
 7279TIP3   OH243327   1.249   2.208   3.324  0.9623 -0.0629 -0.3166
 7279TIP3    H143328   1.215   2.280   3.272  0.0223 -1.5454 -1.8982
 7279TIP3    H243329   1.188   2.136   3.306  0.3694 -0.5796  3.2028
 7280TIP3   OH243330   5.473   1.566   5.745  0.2697  0.5396 -0.3773
 7280TIP3    H143331   5.481   1.620   5.823  1.0654  0.3961 -0.3492
 7280TIP3    H243332   5.544   1.595   5.688 -0.0554  0.3656 -0.8832
 7281TIP3   OH243333   6.604   5.146  12.231 -0.1623 -0.6016 -0.2740
 7281TIP3    H143334   6.601   5.087  12.306 -0.5217 -0.5153 -0.2186
 7281TIP3    H243335   6.521   5.130  12.185 -1.1772  1.2141  0.7765
 7282TIP3   OH243336   1.925   0.633   9.687  0.4039  1.1228  0.4780
 7282TIP3    H143337   1.850   0.576   9.668 -0.3841  2.6693 -1.3798
 7282TIP3    H243338   1.891   0.722   9.677  2.6593  1.8768 -1.3618
 7283TIP3   OH243339   7.117   2.853   1.323 -0.0522 -0.8498  0.3356
 7283TIP3    H143340   7.099   2.943   1.351 -1.1500 -0.9312 -0.0703
 7283TIP3    H243341   7.165   2.815   1.396  0.2720  0.0051  0.5885
 7284TIP3   OH243342   5.646   1.050   2.077  0.2978 -0.4800 -0.8162
 7284TIP3    H143343   5.680   1.035   2.165 -0.2235 -1.4927 -0.7777
 7284TIP3    H243344   5.719   1.093   2.031  1.4237 -2.0065 -0.5440
 7285TIP3   OH243345   5.448   4.940  15.032 -0.0749  0.4113  0.1320
 7285TIP3    H143346   5.354   4.949  15.020 -0.2787 -0.7244  0.7134
 7285TIP3    H243347   5.469   4.854  14.995  0.7878  0.7600 -0.2343
 7286TIP3   OH243348   2.772   3.908   0.138 -0.4387 -0.1306 -0.3194
 7286TIP3    H143349   2.843   3.885   0.078  1.3022  2.6507  0.5226
 7286TIP3    H243350   2.774   4.003   0.143 -3.0097 -0.0695  1.2741
 7287TIP3   OH243351   5.862   3.276   3.513 -0.5875  0.4955 -0.0800
 7287TIP3    H143352   5.887   3.367   3.525 -1.2281  0.6212  0.4018
 7287TIP3    H243353   5.937   3.225   3.544 -1.1430  0.8484  2.0181
 7288TIP3   OH243354   0.467   1.500  14.115 -0.1003  0.2513  0.4203
 7288TIP3    H143355   0.443   1.436  14.048  3.0493  0.0987 -0.7683
 7288TIP3    H243356   0.398   1.566  14.112 -0.5600 -0.2333 -2.3882
 7289TIP3   OH243357   6.560   5.143   1.161 -0.3540  0.3395  0.3379
 7289TIP3    H143358   6.506   5.167   1.236 -0.2804  1.3679  0.0761
 7289TIP3    H243359   6.563   5.047   1.163 -0.4639  0.3491  1.5591
 7290TIP3   OH243360   7.180   1.463  10.835 -0.1114 -0.1407 -0.0664
 7290TIP3    H143361   7.161   1.413  10.914 -0.0695 -2.0458 -1.1900
 7290TIP3    H243362   7.094   1.488  10.801 -0.1829 -0.3432 -0.0345
 7291TIP3   OH243363   1.678   2.446   0.688  0.1594  0.4470  0.2542
 7291TIP3    H143364   1.584   2.448   0.704 -0.3896 -2.0530 -1.9054
 7291TIP3    H243365   1.713   2.387   0.755  0.0311  0.5189  0.3853
 7292TIP3   OH243366   3.127   5.782  15.257  0.0263 -0.1530 -0.1682
 7292TIP3    H143367   3.051   5.755  15.308  0.4071  0.8058  0.9587
 7292TIP3    H243368   3.094   5.847  15.196 -0.0129  0.5722  0.6041
 7293TIP3   OH243369   0.289   5.268  10.267  0.5345 -0.0248  0.0215
 7293TIP3    H143370   0.286   5.233  10.177  0.1888  0.4172 -0.1396
 7293TIP3    H243371   0.284   5.190  10.322 -0.0020 -0.2553 -0.3412
 7294TIP3   OH243372   2.671   6.494  11.459 -0.4410  0.5207 -0.1379
 7294TIP3    H143373   2.611   6.430  11.421  0.5994 -0.4459 -0.2245
 7294TIP3    H243374   2.756   6.472  11.419  0.0522  1.5443  0.3330
 7295TIP3   OH243375   6.501   1.999   3.820  0.0256 -0.6055  0.6377
 7295TIP3    H143376   6.576   2.036   3.866 -0.0299  0.5132 -0.1305
 7295TIP3    H243377   6.522   2.008   3.727 -1.3378  0.3983  0.3892
 7296TIP3   OH243378   5.818   2.962  14.959  0.1871  0.0449  0.2686
 7296TIP3    H143379   5.825   3.056  14.975  0.1476  0.1174 -0.1285
 7296TIP3    H243380   5.828   2.922  15.045 -1.1219  0.4795  0.6530
 7297TIP3   OH243381   1.580   2.918  14.690 -0.6597 -0.1634 -0.1149
 7297TIP3    H143382   1.529   2.989  14.729 -0.0044 -0.6022  1.6352
 7297TIP3    H243383   1.616   2.956  14.609  0.7060  1.9528  1.3774
 7298TIP3   OH243384   5.384   1.860   9.186 -0.5860 -0.1005 -0.2327
 7298TIP3    H143385   5.465   1.857   9.236 -1.6575 -2.9709  1.5642
 7298TIP3    H243386   5.402   1.810   9.107 -0.9442 -2.2611  0.9558
 7299TIP3   OH243387   4.704   1.135   4.796 -0.2501 -0.0690  0.7673
 7299TIP3    H143388   4.693   1.135   4.700  1.8344  0.8972  0.4612
 7299TIP3    H243389   4.636   1.195   4.827 -0.9504 -0.3798 -0.0933
 7300TIP3   OH243390   5.890   1.684  11.468  0.0484  0.3894  0.4683
 7300TIP3    H143391   5.893   1.619  11.538 -1.0276  2.0792  2.1901
 7300TIP3    H243392   5.798   1.685  11.440  0.3569  0.1292 -0.6331
 7301TIP3   OH243393   0.666   3.108   0.346 -0.3150  0.1067 -0.0426
 7301TIP3    H143394   0.655   3.020   0.383 -1.8024  0.3474  0.1346
 7301TIP3    H243395   0.736   3.147   0.399  0.1900 -0.8701  0.0402
 7302TIP3   OH243396   5.237   5.482   2.060 -0.1593 -0.0027  0.5830
 7302TIP3    H143397   5.225   5.490   1.965  0.6723 -1.6405  0.3108
 7302TIP3    H243398   5.332   5.486   2.072 -0.1906 -0.9235  1.2155
 7303TIP3   OH243399   1.088   1.009  10.221  0.0380 -0.2817 -0.5238
 7303TIP3    H143400   1.161   1.034  10.165 -0.0411 -0.5497 -0.7486
 7303TIP3    H243401   1.012   1.008  10.163  0.0079 -0.8607 -0.4772
 7304TIP3   OH243402   5.720   0.517  11.748  0.5399  0.1233 -0.1245
 7304TIP3    H143403   5.665   0.545  11.822 -0.8514  0.7754 -1.3689
 7304TIP3    H243404   5.760   0.598  11.716 -1.1113  0.3034 -1.8449
 7305TIP3   OH243405   6.621   7.133   2.206 -0.2874 -0.1803 -0.5713
 7305TIP3    H143406   6.705   7.162   2.171 -0.1899  0.1566 -0.0741
 7305TIP3    H243407   6.644   7.072   2.276 -0.4548 -0.0895 -0.4359
 7306TIP3   OH243408   4.833   0.399   2.156  0.2175 -0.2093  0.6026
 7306TIP3    H143409   4.928   0.413   2.153  0.4832 -1.9656 -0.8088
 7306TIP3    H243410   4.797   0.469   2.101  0.7812 -0.0835  0.3848
 7307TIP3   OH243411   5.803   2.094  14.281 -0.1027 -0.0872  0.2561
 7307TIP3    H143412   5.806   2.180  14.323 -0.1591  0.2153 -0.3488
 7307TIP3    H243413   5.858   2.039  14.336 -0.2852  0.2680  0.8015
 7308TIP3   OH243414   5.609   0.563   3.665 -0.8327 -0.9698  0.1677
 7308TIP3    H143415   5.605   0.512   3.746 -0.6332 -1.4437 -0.1214
 7308TIP3    H243416   5.517   0.574   3.639 -1.0456  0.7282  1.4037
 7309TIP3   OH243417   1.324   6.725  11.332 -0.3313  0.6150 -0.4648
 7309TIP3    H143418   1.312   6.819  11.345  2.1366  0.8990  0.1036
 7309TIP3    H243419   1.377   6.719  11.252  2.3422 -0.0732  1.2700
 7310TIP3   OH243420   1.470   0.872   0.565  0.5362 -0.2249 -0.1571
 7310TIP3    H143421   1.420   0.838   0.640 -0.1258 -1.8422 -1.2848
 7310TIP3    H243422   1.544   0.917   0.605  0.1558 -0.9670  1.4854
 7311TIP3   OH243423   4.888   6.677   1.426  0.3841  0.1057  0.6707
 7311TIP3    H143424   4.945   6.753   1.419  2.2191 -0.9333  3.1104
 7311TIP3    H243425   4.911   6.623   1.350  1.7846  0.2997  0.9242
 7312TIP3   OH243426   1.743   2.011   0.575  0.1917 -0.1529 -0.3701
 7312TIP3    H143427   1.657   2.034   0.541 -0.0411  1.5713  1.1938
 7312TIP3    H243428   1.725   1.946   0.643 -0.0905  1.2726  0.9730
 7313TIP3   OH243429   4.926   0.874  12.715 -0.1570  0.7407  0.7707
 7313TIP3    H143430   4.990   0.815  12.755 -0.2946  0.3152  0.3679
 7313TIP3    H243431   4.938   0.863  12.621 -0.4461  1.0737  0.6917
 7314TIP3   OH243432   4.323   1.730  10.906 -0.0001  0.2452  0.3709
 7314TIP3    H143433   4.336   1.650  10.957 -1.9551 -0.4947 -0.1877
 7314TIP3    H243434   4.243   1.713  10.856  0.8257  1.6660 -1.5280
 7315TIP3   OH243435   6.868   6.823   1.723 -0.2704  0.5064 -0.0851
 7315TIP3    H143436   6.783   6.855   1.692 -0.3327 -0.0955 -0.5500
 7315TIP3    H243437   6.872   6.733   1.692  0.9465  0.8140 -0.8536
 7316TIP3   OH243438   7.134   2.107  12.865  0.8653  0.1332 -0.3275
 7316TIP3    H143439   7.147   2.072  12.777 -0.0029  2.6383 -1.5808
 7316TIP3    H243440   7.039   2.115  12.873  0.9866  2.5381 -0.3964
 7317TIP3   OH243441   0.674   3.439  13.652 -0.5439 -0.0211 -0.1887
 7317TIP3    H143442   0.632   3.471  13.731  0.3947  0.0968  0.2812
 7317TIP3    H243443   0.613   3.375  13.616 -0.6971 -0.5717  0.9977
 7318TIP3   OH243444   6.233   0.539  13.175 -0.3442  0.0165  0.1740
 7318TIP3    H143445   6.278   0.540  13.259 -2.0445 -0.1997  1.1368
 7318TIP3    H243446   6.161   0.602  13.186 -0.2373  0.4527 -1.3467
 7319TIP3   OH243447   4.235   3.489   2.623 -0.4985 -0.4893  0.3792
 7319TIP3    H143448   4.285   3.481   2.541 -0.1955 -0.1641  0.5296
 7319TIP3    H243449   4.186   3.408   2.628 -0.1606 -0.7182  0.1069
 7320TIP3   OH243450   4.231   6.780  14.899  0.0288 -0.6000  0.0783
 7320TIP3    H143451   4.249   6.788  14.806  0.7724 -0.8686  0.1970
 7320TIP3    H243452   4.317   6.768  14.940  0.0654  2.1219  1.0823
 7321TIP3   OH243453   7.121   6.535  14.897 -0.2659  0.1835 -1.0559
 7321TIP3    H143454   7.161   6.523  14.983 -0.4198  0.1710 -0.9847
 7321TIP3    H243455   7.028   6.546  14.916 -0.1768  1.1455 -1.1424
 7322TIP3   OH243456   0.068   0.398  12.315 -0.3496 -0.2125 -0.0902
 7322TIP3    H143457   0.013   0.361  12.247  0.2337 -0.0191 -0.6732
 7322TIP3    H243458   0.047   0.346  12.393 -0.8035 -0.6300 -0.4836
 7323TIP3   OH243459   5.582   2.475  13.728 -0.6907  0.2645  0.2722
 7323TIP3    H143460   5.622   2.391  13.752 -4.2550 -0.6889  3.9313
 7323TIP3    H243461   5.609   2.535  13.798 -2.3645  0.6458  0.6247
 7324TIP3   OH243462   3.624   6.626   9.553 -0.5547  0.1324 -0.2282
 7324TIP3    H143463   3.696   6.587   9.601 -0.3796  1.1880  0.3835
 7324TIP3    H243464   3.550   6.568   9.569  0.1803 -1.0561 -1.0049
 7325TIP3   OH243465   6.334   5.093  10.421  0.3312  0.2183  0.3672
 7325TIP3    H143466   6.377   5.138  10.348 -1.6504  1.8658  0.1066
 7325TIP3    H243467   6.248   5.068  10.386  0.5675 -1.9010  1.1944
 7326TIP3   OH243468   5.718   1.478   4.887 -0.0592  0.2660 -0.3372
 7326TIP3    H143469   5.662   1.497   4.963  1.1070  0.5394  0.4861
 7326TIP3    H243470   5.802   1.452   4.925  0.3042 -0.3817 -1.5389
 7327TIP3   OH243471   2.878   0.253  13.919 -0.1049 -0.0224 -0.4474
 7327TIP3    H143472   2.873   0.237  13.825  0.7012  0.2948 -0.5449
 7327TIP3    H243473   2.868   0.348  13.928 -0.2361 -0.0578 -0.2025
 7328TIP3   OH243474   6.913   1.868  13.287 -0.5120  0.2016 -0.1485
 7328TIP3    H143475   6.868   1.794  13.247  1.3213 -0.9590 -0.1878
 7328TIP3    H243476   6.988   1.884  13.231  0.4889  0.4545  1.2075
 7329TIP3   OH243477   0.393   5.955   2.350 -0.7275 -0.0657 -0.3770
 7329TIP3    H143478   0.405   5.902   2.429 -0.2493 -1.4900 -1.3812
 7329TIP3    H243479   0.404   6.046   2.381  0.0787 -0.6230  1.0822
 7330TIP3   OH243480   5.417   6.229   3.822 -0.5051 -0.5574  1.0089
 7330TIP3    H143481   5.334   6.188   3.848  0.4447 -1.8571  2.1409
 7330TIP3    H243482   5.393   6.319   3.800 -2.4142 -1.2498  0.0305
 7331TIP3   OH243483   6.094   7.110   9.202 -0.0919 -0.2216 -0.2745
 7331TIP3    H143484   6.111   7.180   9.139 -0.8966 -0.0253 -0.2801
 7331TIP3    H243485   6.179   7.067   9.213  0.7302  1.5315  0.6785
 7332TIP3   OH243486   4.873   2.154   4.284 -0.5272  0.2364  0.3914
 7332TIP3    H143487   4.794   2.205   4.303 -1.1497  0.3745 -2.1537
 7332TIP3    H243488   4.841   2.076   4.240  0.7006 -0.0475 -0.0471
 7333TIP3   OH243489   3.927   5.230  14.309  1.0051 -0.4371  0.6921
 7333TIP3    H143490   3.853   5.273  14.350 -0.0639  0.5006 -2.0175
 7333TIP3    H243491   3.925   5.140  14.344  0.3586  0.3225  2.7580
 7334TIP3   OH243492   4.826   4.735  10.835 -0.2993  0.5717  0.3548
 7334TIP3    H143493   4.893   4.802  10.849  0.0448  0.4367 -0.6183
 7334TIP3    H243494   4.765   4.775  10.774  0.0264 -0.0815 -0.4058
 7335TIP3   OH243495   2.579   3.781  13.429  0.1248 -0.1415  0.4423
 7335TIP3    H143496   2.641   3.722  13.385  1.0144  0.3205  1.0332
 7335TIP3    H243497   2.497   3.770  13.381  0.5416 -1.1096 -0.0852
 7336TIP3   OH243498   2.083   4.291  14.915  0.9029 -0.0335 -0.3390
 7336TIP3    H143499   2.014   4.225  14.904  1.9934 -0.9613 -1.9986
 7336TIP3    H243500   2.040   4.374  14.894 -0.1996 -0.3377  0.6231
 7337TIP3   OH243501   5.419   0.674   0.060 -0.5408  0.5512  0.5260
 7337TIP3    H143502   5.366   0.620   0.002  1.2902 -1.4666  0.6076
 7337TIP3    H243503   5.421   0.625   0.143  1.7510  0.2761  0.3812
 7338TIP3   OH243504   1.683   0.626  11.759 -0.5261  0.2891 -0.2507
 7338TIP3    H143505   1.765   0.581  11.775 -0.7962  0.1079  0.6577
 7338TIP3    H243506   1.638   0.572  11.694 -0.3117 -0.0819 -0.0937
 7339TIP3   OH243507   5.323   0.589  14.163 -0.0039 -0.2380 -0.5981
 7339TIP3    H143508   5.332   0.580  14.068 -0.3023  1.3280 -0.8124
 7339TIP3    H243509   5.303   0.682  14.176 -1.2231 -0.6662  0.9126
 7340TIP3   OH243510   4.277   5.376  12.135  0.0238 -0.0677  0.9575
 7340TIP3    H143511   4.265   5.471  12.123  0.0080 -0.0185  1.3450
 7340TIP3    H243512   4.189   5.344  12.158  0.0831 -0.1349  1.0897
 7341TIP3   OH243513   0.425   7.211  10.152  0.2428 -0.3153  0.1083
 7341TIP3    H143514   0.494   7.226  10.216  2.6689  1.1551 -2.6059
 7341TIP3    H243515   0.372   7.290  10.154 -1.2302 -1.2926  1.9359
 7342TIP3   OH243516   0.282   6.480  10.864  0.5944  0.2890 -0.9779
 7342TIP3    H143517   0.215   6.457  10.800 -0.2229  0.3060 -0.1427
 7342TIP3    H243518   0.240   6.467  10.949  1.8100 -0.1514 -0.4340
 7343TIP3   OH243519   2.855   3.643  13.449 -0.4072  0.2503  0.2795
 7343TIP3    H143520   2.911   3.720  13.462 -2.3348  1.4463  2.1228
 7343TIP3    H243521   2.888   3.579  13.512 -1.0541  0.9516  1.3667
 7344TIP3   OH243522   4.120   5.902   0.764  0.2399 -0.6246 -0.2691
 7344TIP3    H143523   4.202   5.951   0.756 -0.6324  0.7709 -1.1596
 7344TIP3    H243524   4.055   5.968   0.788 -0.7298 -1.6120 -0.0899
 7345TIP3   OH243525   5.414   3.052   0.209 -1.1236  0.0344 -0.1458
 7345TIP3    H143526   5.509   3.058   0.223 -1.1887  2.6744 -0.3530
 7345TIP3    H243527   5.406   3.010   0.123 -0.2640 -1.7861  0.5899
 7346TIP3   OH243528   5.911   2.881  14.725  0.6370  0.0419  0.5584
 7346TIP3    H143529   5.873   2.937  14.658  0.0017 -0.2904  0.6357
 7346TIP3    H243530   5.869   2.909  14.807 -0.0339 -0.8446  0.5326
 7347TIP3   OH243531   5.008   4.946   1.348 -0.0584  0.0520 -0.0447
 7347TIP3    H143532   5.056   5.026   1.325  0.2084  0.2999  1.2821
 7347TIP3    H243533   4.917   4.974   1.356  0.1263  0.3810  1.0537
 7348TIP3   OH243534   6.982   1.609   9.473  0.8304 -0.5102 -0.1142
 7348TIP3    H143535   7.020   1.668   9.538 -2.1898  0.9064  0.5628
 7348TIP3    H243536   6.990   1.656   9.390 -0.0126  0.1396  0.1502
 7349TIP3   OH243537   5.516   3.709   2.782 -0.0404  0.1297  0.7517
 7349TIP3    H143538   5.431   3.740   2.813 -0.7763 -2.5730  1.7418
 7349TIP3    H243539   5.576   3.728   2.854 -0.4398 -0.5691  1.2776
 7350TIP3   OH243540   4.023   3.648   3.299  0.0826 -0.3768 -0.5506
 7350TIP3    H143541   3.992   3.725   3.251  1.7226  0.5011 -0.2457
 7350TIP3    H243542   4.010   3.669   3.391  0.6347 -0.4114 -0.4603
 7351TIP3   OH243543   6.913   1.932  11.299 -0.4937  0.2077  0.2853
 7351TIP3    H143544   6.989   1.939  11.242 -1.5024 -0.5703 -1.2300
 7351TIP3    H243545   6.945   1.957  11.386  1.7787 -1.2799 -0.0522
 7352TIP3   OH243546   5.874   1.186   1.266 -0.5663 -0.6413  0.5768
 7352TIP3    H143547   5.885   1.143   1.181 -1.2463  0.9761 -0.3739
 7352TIP3    H243548   5.800   1.141   1.306  0.0677 -1.7413  0.5500
 7353TIP3   OH243549   0.272   0.163  10.149  0.5687  0.0504  0.3273
 7353TIP3    H143550   0.337   0.213  10.100  1.6291 -0.1210  1.5123
 7353TIP3    H243551   0.242   0.222  10.218 -2.2286  0.9351 -1.4427
 7354TIP3   OH243552   1.481   5.800  14.219  0.3370  0.3919  0.6259
 7354TIP3    H143553   1.387   5.791  14.205  0.1181  0.1164  2.1068
 7354TIP3    H243554   1.504   5.724  14.272  1.0679  1.3365  1.7042
 7355TIP3   OH243555   6.089   3.809   9.209 -0.3198  0.0406 -0.2996
 7355TIP3    H143556   6.149   3.792   9.281  0.7132  0.2637 -1.0797
 7355TIP3    H243557   6.125   3.887   9.166 -0.5158 -0.4906 -1.4640
 7356TIP3   OH243558   6.895   5.273   9.595 -0.9142 -0.3833  0.0253
 7356TIP3    H143559   6.904   5.192   9.646 -0.1729  0.3047  1.0579
 7356TIP3    H243560   6.936   5.253   9.511 -0.6570 -1.0624  0.3007
 7357TIP3   OH243561   4.835   1.093  15.106 -0.4332  0.1813 -0.0983
 7357TIP3    H143562   4.790   1.176  15.087 -0.1973  1.2339  3.2569
 7357TIP3    H243563   4.765   1.029  15.113 -1.4105  1.4043  3.1083
 7358TIP3   OH243564   1.714   0.436   6.142  0.0102  0.3299 -0.5268
 7358TIP3    H143565   1.795   0.450   6.092  0.8757  0.0177  0.7450
 7358TIP3    H243566   1.660   0.382   6.084  1.5098 -1.1217 -0.6370
 7359TIP3   OH243567   3.576   6.018  13.631  0.2960  0.0804 -0.2861
 7359TIP3    H143568   3.577   5.923  13.624 -1.2712  0.1209 -1.7483
 7359TIP3    H243569   3.515   6.037  13.702  1.8636  0.0051  1.1346
 7360TIP3   OH243570   1.167   5.112   3.026  0.2435  0.3433  0.0344
 7360TIP3    H143571   1.138   5.202   3.041 -1.9212  0.4160 -3.5713
 7360TIP3    H243572   1.098   5.058   3.064 -0.3653  0.3428 -1.0285
 7361TIP3   OH243573   6.943   5.195  12.176  0.8562  0.2150  0.2114
 7361TIP3    H143574   6.986   5.126  12.126  0.9512  1.1982 -1.1019
 7361TIP3    H243575   7.004   5.214  12.247  2.4901  1.3321 -1.4103
 7362TIP3   OH243576   3.826   2.925   2.174  0.2111 -0.1018 -0.1298
 7362TIP3    H143577   3.792   2.953   2.259 -0.4076 -1.9966  0.2868
 7362TIP3    H243578   3.758   2.949   2.111  0.6429  1.2457 -0.1323
 7363TIP3   OH243579   0.058   1.019  11.536  0.3068 -0.1456 -0.1091
 7363TIP3    H143580   0.152   1.012  11.519 -0.1567 -1.8839 -2.5579
 7363TIP3    H243581   0.038   0.948  11.597  0.6894  0.8145  1.1661
 7364TIP3   OH243582   3.295   6.997  13.202  0.2866  0.3012  0.4559
 7364TIP3    H143583   3.347   7.053  13.260 -0.5019  0.2831  1.2026
 7364TIP3    H243584   3.240   7.059  13.153 -0.2822  0.2273  0.9797
 7365TIP3   OH243585   4.561   5.397   3.733 -0.0264  0.4528  0.0643
 7365TIP3    H143586   4.496   5.328   3.721  0.1534  0.2070  0.4500
 7365TIP3    H243587   4.516   5.464   3.784 -0.2423  0.6776 -0.4286
 7366TIP3   OH243588   0.051   7.087  10.114 -0.1269 -0.1839  0.2472
 7366TIP3    H143589   0.128   7.140  10.138  1.2706 -2.4703  1.1767
 7366TIP3    H243590   0.088   7.012  10.068 -2.0769 -0.1961 -1.3815
 7367TIP3   OH243591   6.421   6.164   1.625  0.9043  0.0098  0.2620
 7367TIP3    H143592   6.452   6.104   1.692  1.8767  0.0833 -0.1007
 7367TIP3    H243593   6.486   6.234   1.624 -0.0671  0.9386  0.4900
 7368TIP3   OH243594   6.313   0.281  11.724  0.3848  0.0899 -0.0042
 7368TIP3    H143595   6.241   0.220  11.744  2.0534 -2.3094 -0.9017
 7368TIP3    H243596   6.278   0.336  11.654 -0.9791 -0.2315  0.3834
 7369TIP3   OH243597   4.549   3.082   3.576 -0.2659  0.1271  0.0560
 7369TIP3    H143598   4.620   3.147   3.576  0.9690 -1.1622  1.0121
 7369TIP3    H243599   4.593   2.998   3.588 -2.0447 -0.6096  1.9612
 7370TIP3   OH243600   1.245   1.083  14.676  0.3361  0.6169  0.3148
 7370TIP3    H143601   1.230   1.052  14.587 -0.8308 -1.6719  1.2148
 7370TIP3    H243602   1.337   1.064  14.693  0.4610  0.6827 -0.2830
 7371TIP3   OH243603   6.282   2.981   9.699  0.3585  0.3143 -0.2878
 7371TIP3    H143604   6.287   3.040   9.623  1.1190  0.6908  0.0427
 7371TIP3    H243605   6.252   2.898   9.662  0.4562  0.5707 -0.9615
 7372TIP3   OH243606   4.692   4.331   1.707  0.1746 -0.3863  0.2197
 7372TIP3    H143607   4.713   4.396   1.774 -1.0276  0.5599 -0.2717
 7372TIP3    H243608   4.753   4.348   1.636 -1.0143  1.1747 -0.4842
 7373TIP3   OH243609   1.886   5.481   0.078 -0.2115  0.8999 -0.1595
 7373TIP3    H143610   1.909   5.572   0.093  1.6986  0.1535  1.9870
 7373TIP3    H243611   1.898   5.439   0.163 -2.5461 -1.0860 -0.7191
 7374TIP3   OH243612   3.188   1.816   0.860  0.0774  0.6026 -0.2255
 7374TIP3    H143613   3.104   1.859   0.880  1.0817  3.1890 -1.1655
 7374TIP3    H243614   3.253   1.867   0.908  1.3100 -0.1873 -1.0086
 7375TIP3   OH243615   0.520   0.135  15.167  0.2196  0.2357  0.6174
 7375TIP3    H143616   0.489   0.222  15.142  2.1735  0.2727 -2.2372
 7375TIP3    H243617   0.468   0.074  15.114  2.8648  0.1589 -2.1638
 7376TIP3   OH243618   0.619   3.683   2.667  0.4286 -0.0682  0.5887
 7376TIP3    H143619   0.610   3.653   2.576  2.9494 -1.4627  0.7056
 7376TIP3    H243620   0.606   3.604   2.719  2.2865 -0.0177  1.2003
 7377TIP3   OH243621   0.174   5.008  11.162 -0.0339 -0.5273  0.3649
 7377TIP3    H143622   0.186   4.914  11.147  0.3277 -0.3268 -0.6890
 7377TIP3    H243623   0.199   5.021  11.254 -0.3621 -1.5006  0.6036
 7378TIP3   OH243624   3.408   5.897  14.888  0.0262 -0.0806 -0.5125
 7378TIP3    H143625   3.499   5.886  14.917 -1.4562 -2.1708  4.4490
 7378TIP3    H243626   3.404   5.850  14.805  3.5260  0.5663 -1.2140
 7379TIP3   OH243627   1.662   0.027  13.086 -0.0441  0.0770  0.3044
 7379TIP3    H143628   1.574  -0.008  13.075 -0.5979  1.8678 -1.6185
 7379TIP3    H243629   1.716  -0.023  13.025  0.1135 -0.4088  0.8290
 7380TIP3   OH243630   4.923   3.656  14.036 -0.3512 -0.7608 -0.2223
 7380TIP3    H143631   4.835   3.619  14.031 -0.2650 -1.1827  1.0927
 7380TIP3    H243632   4.923   3.710  14.115  0.6040 -0.8508 -0.1412
 7381TIP3   OH243633   1.140   2.128  14.970 -0.3888 -0.7330  0.1480
 7381TIP3    H143634   1.229   2.097  14.950 -0.5563 -1.0638 -0.1027
 7381TIP3    H243635   1.095   2.051  15.004  0.2040  0.0529  2.9490
 7382TIP3   OH243636   0.979   2.960  13.365 -0.8073  0.1124  0.1872
 7382TIP3    H143637   1.058   2.925  13.325  0.2654  2.2464  0.3397
 7382TIP3    H243638   0.956   2.895  13.432 -0.3423 -1.4894 -1.1360
 7383TIP3   OH243639   2.365   2.706  14.705  0.0231 -0.0685 -0.1751
 7383TIP3    H143640   2.393   2.614  14.702  0.1297 -0.0510  0.2837
 7383TIP3    H243641   2.401   2.740  14.787  0.4656  0.5382 -0.6055
 7384TIP3   OH243642   3.662   3.346  11.527  1.0349 -0.4050  0.7885
 7384TIP3    H143643   3.604   3.416  11.495 -0.1267 -1.4679  0.4702
 7384TIP3    H243644   3.732   3.342  11.462  0.6639 -0.0956  0.3602
 7385TIP3   OH243645   0.360   3.335   0.069 -0.4159  0.7889 -0.3565
 7385TIP3    H143646   0.455   3.326   0.066 -0.3585  1.4397 -0.7672
 7385TIP3    H243647   0.338   3.385  -0.009 -1.5398 -2.5821 -2.3691
 7386TIP3   OH243648   0.879   1.229   3.876  0.6283  0.1866  0.1811
 7386TIP3    H143649   0.830   1.307   3.901  0.3789 -0.7760  3.1030
 7386TIP3    H243650   0.828   1.156   3.913  1.2876 -1.3114 -1.7212
 7387TIP3   OH243651   0.759   4.171  11.064 -0.4086 -0.1478  0.7287
 7387TIP3    H143652   0.741   4.264  11.047  0.3601  0.0112  0.7833
 7387TIP3    H243653   0.806   4.170  11.147 -0.4490 -0.5951  0.7504
 7388TIP3   OH243654   3.465   3.236  10.362 -0.4470 -0.2413 -1.1970
 7388TIP3    H143655   3.411   3.306  10.327 -1.9266 -1.3662 -1.2615
 7388TIP3    H243656   3.473   3.256  10.456  1.5979  1.5292 -1.6708
 7389TIP3   OH243657   3.650   5.868   1.013  0.2928 -0.0845  0.2348
 7389TIP3    H143658   3.579   5.852   1.076 -0.7687  1.0372 -0.6237
 7389TIP3    H243659   3.637   5.802   0.945 -0.5418  0.7170 -0.4037
 7390TIP3   OH243660   4.219   3.614   2.865  0.4079 -0.6670 -0.0017
 7390TIP3    H143661   4.233   3.586   2.775 -0.5456 -1.0488 -0.0401
 7390TIP3    H243662   4.166   3.544   2.904 -0.6266  0.3000  0.3679
 7391TIP3   OH243663   2.420   4.700   2.353  0.2249  0.1771  0.1197
 7391TIP3    H143664   2.483   4.762   2.317  0.1345 -0.1711 -0.6585
 7391TIP3    H243665   2.367   4.673   2.278 -2.7485  2.5705  1.1182
 7392TIP3   OH243666   6.678   3.845   4.618  0.2057 -0.4047  0.3983
 7392TIP3    H143667   6.649   3.935   4.632 -0.1518 -0.8227  2.7631
 7392TIP3    H243668   6.608   3.805   4.567  0.0209  0.4538 -0.0401
 7393TIP3   OH243669   5.200   5.582  12.577 -0.0562  0.3128  0.1676
 7393TIP3    H143670   5.171   5.644  12.643  0.1755  0.8752 -0.2571
 7393TIP3    H243671   5.120   5.542  12.544 -0.5303  2.7085 -1.8626
 7394TIP3   OH243672   4.431   1.655  14.030 -0.7107 -0.1823 -0.2119
 7394TIP3    H143673   4.497   1.658  13.961 -1.5847  0.4108 -1.0403
 7394TIP3    H243674   4.389   1.741  14.028  0.1639  0.3716  2.0067
 7395TIP3   OH243675   0.002   3.336   0.528 -0.3372  0.0638 -0.0276
 7395TIP3    H143676   0.092   3.321   0.498  0.3051  0.4808  1.6094
 7395TIP3    H243677  -0.041   3.379   0.454  0.9808  0.4207 -0.6117
 7396TIP3   OH243678   2.017   6.404  12.275 -0.1280 -0.1384 -0.2899
 7396TIP3    H143679   2.001   6.465  12.346  1.8206 -0.3961  0.4324
 7396TIP3    H243680   2.086   6.446  12.223  1.9344 -2.0346  0.7484
 7397TIP3   OH243681   5.197   0.123  14.173  0.3084  0.2325  0.2810
 7397TIP3    H143682   5.254   0.131  14.097  0.8730 -0.9605  0.5629
 7397TIP3    H243683   5.166   0.213  14.189  1.2778  0.7259 -0.5047
 7398TIP3   OH243684   3.249   1.978  12.817 -1.2162  0.1724 -0.3676
 7398TIP3    H143685   3.264   2.048  12.880  0.0538 -1.4425  1.2600
 7398TIP3    H243686   3.337   1.952  12.788 -1.5361 -1.5630  0.0716
 7399TIP3   OH243687   2.742   3.403  14.654 -0.1376  0.5204  0.2328
 7399TIP3    H143688   2.822   3.410  14.706  1.7310 -2.3001 -1.9582
 7399TIP3    H243689   2.687   3.340  14.702  0.7455 -0.6092 -0.2046
 7400TIP3   OH243690   7.237   2.736   4.916 -0.6280  0.3356 -0.5299
 7400TIP3    H143691   7.284   2.805   4.869  1.1137  0.4954  1.2995
 7400TIP3    H243692   7.237   2.766   5.007 -5.0932  0.7371 -0.4501
 7401TIP3   OH243693   1.934   1.769  14.585  0.0802 -0.4854 -0.3268
 7401TIP3    H143694   1.879   1.824  14.641  0.2083  0.9320 -1.5427
 7401TIP3    H243695   2.017   1.816  14.580  1.9565 -3.1887  2.4838
 7402TIP3   OH243696   1.261   5.881  12.217  0.2884  0.4481 -0.6616
 7402TIP3    H143697   1.231   5.796  12.249  0.3379 -0.1197 -2.0359
 7402TIP3    H243698   1.302   5.923  12.293  0.6781 -0.9465 -0.0745
 7403TIP3   OH243699   0.032   0.799   0.875 -0.2159  0.0578  0.5626
 7403TIP3    H143700   0.087   0.829   0.947 -0.6561 -0.0115  0.9393
 7403TIP3    H243701  -0.057   0.825   0.901 -0.3813  0.0187  0.0501
 7404TIP3   OH243702   5.913   6.378   1.041 -0.1642 -0.3661  0.3264
 7404TIP3    H143703   5.868   6.319   0.982  0.4301 -0.5386  0.0315
 7404TIP3    H243704   5.885   6.352   1.129 -0.7085 -0.3991  0.1425
 7405TIP3   OH243705   3.170   4.049  12.751 -0.0854 -0.3747  0.2138
 7405TIP3    H143706   3.113   4.107  12.700 -0.0318 -0.8645 -0.4202
 7405TIP3    H243707   3.248   4.101  12.769 -0.0878 -0.2104 -0.2424
 7406TIP3   OH243708   6.866   1.396  11.661 -0.0907 -0.0279 -0.9488
 7406TIP3    H143709   6.893   1.487  11.671  1.7751 -0.6048 -0.2585
 7406TIP3    H243710   6.849   1.387  11.567  0.8058  0.7616 -1.2032
 7407TIP3   OH243711   3.757   6.797   3.438  0.4581 -0.0106 -0.2374
 7407TIP3    H143712   3.848   6.798   3.409  0.0529  1.1267 -1.6069
 7407TIP3    H243713   3.720   6.717   3.401  0.4162  0.5271 -1.4013
 7408TIP3   OH243714   5.966   5.057   5.302 -0.3425 -0.1810  0.2827
 7408TIP3    H143715   6.004   5.143   5.285 -0.0903 -0.1560  0.9505
 7408TIP3    H243716   5.909   5.041   5.227  0.2164  0.2202 -0.2366
 7409TIP3   OH243717   2.115   1.788  10.271  0.0219  0.2494 -0.4486
 7409TIP3    H143718   2.060   1.767  10.346  0.9784  1.1825  0.5529
 7409TIP3    H243719   2.147   1.703  10.241 -0.4616 -0.1481  0.1323
 7410TIP3   OH243720   0.576   5.115   1.027 -0.2584  0.2106  0.2120
 7410TIP3    H143721   0.649   5.119   0.966 -0.1189 -1.4534  0.2294
 7410TIP3    H243722   0.583   5.196   1.078  2.0033 -0.1965  0.6765
 7411TIP3   OH243723   3.933   1.329   9.725  0.1353  0.0511  0.0018
 7411TIP3    H143724   3.991   1.396   9.688  0.3217 -0.1405 -0.0558
 7411TIP3    H243725   3.845   1.367   9.718  0.0841 -0.2663 -1.3007
 7412TIP3   OH243726   2.710   1.781   4.922 -0.8578 -0.6638 -0.3019
 7412TIP3    H143727   2.626   1.826   4.912 -0.3602  0.1150 -1.0786
 7412TIP3    H243728   2.762   1.839   4.977 -0.4640 -0.6156 -0.7149
 7413TIP3   OH243729   1.788   3.831   3.300  0.0615 -0.0329  0.6673
 7413TIP3    H143730   1.882   3.817   3.298  0.1515  0.5024  0.9553
 7413TIP3    H243731   1.773   3.901   3.236 -0.0801  0.2028  0.9545
 7414TIP3   OH243732   0.933   0.306  13.186  0.0666 -0.2613 -0.2711
 7414TIP3    H143733   0.997   0.236  13.176 -1.6454 -1.8681 -0.6866
 7414TIP3    H243734   0.879   0.278  13.261  0.2509  1.3871  0.5133
 7415TIP3   OH243735   2.913   6.540   9.530 -0.5058  0.1521 -0.5934
 7415TIP3    H143736   2.956   6.456   9.548 -1.3437  0.0508  1.0664
 7415TIP3    H243737   2.891   6.535   9.437 -0.8987 -1.6340 -0.4506
 7416TIP3   OH243738   4.622   3.580  13.752  0.2987 -0.9689  0.5062
 7416TIP3    H143739   4.705   3.626  13.741  0.0523 -0.4778  0.6901
 7416TIP3    H243740   4.642   3.507  13.810  0.7928 -1.3777 -0.1560
 7417TIP3   OH243741   0.820   5.544  12.117  0.4762  0.3556  0.0907
 7417TIP3    H143742   0.896   5.601  12.099  1.0410 -0.1810  0.7374
 7417TIP3    H243743   0.792   5.569  12.205 -0.5596  1.0444 -0.4110
 7418TIP3   OH243744   4.812   1.710  13.328  0.1999 -0.1704 -0.4236
 7418TIP3    H143745   4.904   1.704  13.354 -0.1188  0.6916  1.0707
 7418TIP3    H243746   4.776   1.779  13.385 -1.4217 -0.6726 -0.7919
 7419TIP3   OH243747   6.012   4.424   0.695  0.2154 -0.1652 -0.1305
 7419TIP3    H143748   5.939   4.416   0.634 -1.2086 -1.3047  1.5811
 7419TIP3    H243749   6.020   4.337   0.734  1.5571  0.3203  0.7659
 7420TIP3   OH243750   5.539   1.398  14.316  0.2803 -0.0166  0.2573
 7420TIP3    H143751   5.571   1.409  14.227  0.7275 -0.9836  0.2975
 7420TIP3    H243752   5.444   1.390  14.307  0.1131  1.7388  0.0487
 7421TIP3   OH243753   6.275   4.737  12.171 -0.5851 -0.4249 -0.8528
 7421TIP3    H143754   6.237   4.724  12.084 -2.1050 -1.2956 -0.1142
 7421TIP3    H243755   6.261   4.653  12.216  0.3956 -0.0773  0.1615
 7422TIP3   OH243756   4.546   0.866   2.755  0.3988 -0.0815 -0.1962
 7422TIP3    H143757   4.499   0.874   2.672  0.6393  0.4942 -0.2795
 7422TIP3    H243758   4.638   0.861   2.731  0.3699 -3.1024 -0.1685
 7423TIP3   OH243759   1.352   2.655   3.102 -0.1158 -0.4306  0.2728
 7423TIP3    H143760   1.272   2.696   3.134 -0.7871 -1.2524 -0.2989
 7423TIP3    H243761   1.423   2.713   3.132 -0.6968 -0.9711  2.9538
 7424TIP3   OH243762   1.155   4.367  10.335  0.1481 -0.2552 -0.2720
 7424TIP3    H143763   1.121   4.330  10.254  1.1168 -1.0323 -0.3515
 7424TIP3    H243764   1.225   4.427  10.306  2.6822 -2.8575  0.0073
 7425TIP3   OH243765   2.217   6.263  14.464 -0.4143 -0.0889  0.0325
 7425TIP3    H143766   2.142   6.322  14.472  0.2018  1.5979 -3.9151
 7425TIP3    H243767   2.292   6.322  14.453  0.7212 -1.6182 -0.8013
 7426TIP3   OH243768   0.872   5.579  13.338  0.4742  0.7645  0.3380
 7426TIP3    H143769   0.967   5.574  13.337  0.4956  0.7839 -1.3518
 7426TIP3    H243770   0.843   5.491  13.315 -0.0079  0.2488  2.6538
 7427TIP3   OH243771   5.430   2.221   3.952 -0.3571  0.2188 -0.2472
 7427TIP3    H143772   5.340   2.192   3.962 -0.6637  0.9681 -0.7725
 7427TIP3    H243773   5.462   2.232   4.042 -1.1049  0.9111 -0.0635
 7428TIP3   OH243774   7.171   0.589  14.116  0.4369 -0.1609 -0.3026
 7428TIP3    H143775   7.180   0.642  14.037  0.9196 -1.1166 -0.9093
 7428TIP3    H243776   7.084   0.550  14.108 -1.1002  2.6100  1.4915
 7429TIP3   OH243777   5.629   4.494   0.918  0.5592  0.1311  0.0656
 7429TIP3    H143778   5.537   4.469   0.905  0.5797 -1.3152  2.1136
 7429TIP3    H243779   5.625   4.578   0.962  0.1120 -0.6938  1.6687
 7430TIP3   OH243780   6.499   5.997  14.586  0.0536  0.1128  0.3208
 7430TIP3    H143781   6.591   6.013  14.563 -0.2749  2.1068  0.1822
 7430TIP3    H243782   6.466   5.941  14.516  1.3892 -1.4693  0.8965
 7431TIP3   OH243783   4.736   7.237   3.735 -0.5625  0.0210  0.6163
 7431TIP3    H143784   4.807   7.173   3.727 -1.1376 -0.6195  0.5381
 7431TIP3    H243785   4.657   7.187   3.717 -1.0158  0.7842  0.4591
 7432TIP3   OH243786   0.674   1.402   1.414  0.4330  0.3567  0.2655
 7432TIP3    H143787   0.684   1.324   1.360 -1.9331  0.0794  0.0923
 7432TIP3    H243788   0.755   1.451   1.402  0.3270 -0.0601 -2.9658
 7433TIP3   OH243789   3.408   5.013  11.104 -0.4923 -0.4865 -0.0697
 7433TIP3    H143790   3.462   5.002  11.183 -1.4453 -0.0153  0.6680
 7433TIP3    H243791   3.323   5.042  11.137 -0.2952  1.8145 -1.4296
 7434TIP3   OH243792   5.203   0.771  12.544  0.4784  0.2849  0.0856
 7434TIP3    H143793   5.206   0.769  12.640 -0.5798 -1.0302  0.1255
 7434TIP3    H243794   5.219   0.862  12.521  2.0285  0.3912  1.4489
 7435TIP3   OH243795   4.564   3.871   0.119 -0.3296  0.0515 -0.1990
 7435TIP3    H143796   4.620   3.800   0.088 -0.9152  0.2357 -1.7384
 7435TIP3    H243797   4.584   3.945   0.062 -0.6756  0.7363  0.5492
 7436TIP3   OH243798   4.735   0.256   2.394  0.0818  0.0639  0.3913
 7436TIP3    H143799   4.721   0.327   2.457  1.4096 -0.0389  0.8322
 7436TIP3    H243800   4.760   0.300   2.313  0.1582  0.1333  0.4523
 7437TIP3   OH243801   1.107   1.598  14.495 -0.0993 -0.3970 -0.0304
 7437TIP3    H143802   1.109   1.508  14.464  1.0971  0.3936 -2.4735
 7437TIP3    H243803   1.033   1.601  14.556  0.7701 -3.3506  1.3277
 7438TIP3   OH243804   4.685   3.275   9.633  0.2835 -0.0622 -0.2921
 7438TIP3    H143805   4.712   3.293   9.723 -0.5178 -2.0356  0.3973
 7438TIP3    H243806   4.766   3.251   9.588  0.3699 -1.3742  0.5348
 7439TIP3   OH243807   5.680   0.597  14.780  0.0035  0.2043 -0.9443
 7439TIP3    H143808   5.602   0.573  14.730 -0.3742 -0.5681 -0.0265
 7439TIP3    H243809   5.681   0.692  14.780 -1.2904  0.2366 -0.4584
 7440TIP3   OH243810   5.458   0.597   1.806  0.5742 -0.0926  0.0598
 7440TIP3    H143811   5.398   0.538   1.853  0.9258  0.9979  1.9623
 7440TIP3    H243812   5.543   0.553   1.809  0.6450  0.0800  0.6723
 7441TIP3   OH243813   6.665   2.689  15.202  0.1430 -0.2900 -0.2206
 7441TIP3    H143814   6.614   2.632  15.260  2.2956 -0.4879  1.6509
 7441TIP3    H243815   6.602   2.753  15.168 -1.3452 -0.5307  1.9116
 7442TIP3   OH243816   5.878   2.854   0.126  0.0091 -1.1560  0.2681
 7442TIP3    H143817   5.839   2.808   0.200 -1.6846  0.0856  0.2072
 7442TIP3    H243818   5.821   2.834   0.052 -0.2713  0.2904  0.0562
 7443TIP3   OH243819   1.115   1.708   0.141 -0.1758 -1.1719  0.6838
 7443TIP3    H143820   1.024   1.680   0.126  0.0228 -1.4565 -0.0689
 7443TIP3    H243821   1.123   1.717   0.236 -1.0360 -0.9939  0.7485
 7444TIP3   OH243822   2.585   5.537   5.218  0.0030  0.1835  0.2651
 7444TIP3    H143823   2.596   5.628   5.191 -0.2417  0.4597  1.0636
 7444TIP3    H243824   2.638   5.486   5.156  0.5288  0.9081  0.1142
 7445TIP3   OH243825   0.754   3.359   2.403 -0.4967 -0.4529 -0.4970
 7445TIP3    H143826   0.830   3.414   2.423 -0.7893 -0.2084 -0.0509
 7445TIP3    H243827   0.679   3.409   2.436 -0.8360 -0.7659 -0.7933
 7446TIP3   OH243828   4.720   1.924  15.019  0.4914  0.6677 -0.4407
 7446TIP3    H143829   4.812   1.913  14.995  0.1255 -1.0987 -1.1370
 7446TIP3    H243830   4.706   2.019  15.016  1.9002  0.8717 -1.7914
 7447TIP3   OH243831   1.464   2.447   4.981  0.1057  0.4835 -0.0087
 7447TIP3    H143832   1.398   2.482   4.921 -0.0402  0.5142  0.1679
 7447TIP3    H243833   1.418   2.377   5.028  1.0984 -1.8416 -2.2341
 7448TIP3   OH243834   1.742   4.701  12.837  0.5872 -0.5494 -0.1144
 7448TIP3    H143835   1.824   4.652  12.830  0.2362 -1.3567  1.1048
 7448TIP3    H243836   1.675   4.641  12.804  0.3260 -0.3699  0.0841
 7449TIP3   OH243837   6.333   4.240   3.041 -0.4667 -0.6342  0.0679
 7449TIP3    H143838   6.415   4.214   2.999 -1.6974 -2.4311 -1.3616
 7449TIP3    H243839   6.309   4.165   3.095 -1.8951 -0.7660 -0.6912
 7450TIP3   OH243840   5.680   6.051  15.113 -0.3016  0.0683  0.5778
 7450TIP3    H143841   5.734   6.095  15.048 -0.4441  0.5076  0.7580
 7450TIP3    H243842   5.711   6.083  15.197 -0.9614  0.4675  0.6790
 7451TIP3   OH243843   4.859   3.077   3.949  0.0042 -0.2664  0.1462
 7451TIP3    H143844   4.820   3.030   4.023 -0.1163  1.3882  1.1981
 7451TIP3    H243845   4.849   3.018   3.875 -1.2252 -1.3748  1.1425
 7452TIP3   OH243846   2.047   6.358  11.173 -0.3264 -0.6703 -0.8663
 7452TIP3    H143847   2.016   6.446  11.150 -0.3093 -0.4174  0.0300
 7452TIP3    H243848   2.061   6.362  11.268 -3.5004 -2.5885 -0.1859
 7453TIP3   OH243849   2.202   4.689  10.146 -0.0781  0.3325  0.4829
 7453TIP3    H143850   2.290   4.703  10.182 -0.5520  0.4323  1.6383
 7453TIP3    H243851   2.214   4.619  10.082  0.5530 -0.9631  1.9288
 7454TIP3   OH243852   0.443   0.530  12.815 -0.2323 -0.3719  0.1049
 7454TIP3    H143853   0.443   0.441  12.780  1.3160 -0.2966 -0.1354
 7454TIP3    H243854   0.430   0.519  12.909 -0.2950 -0.8276  0.0439
 7455TIP3   OH243855   5.827   5.092   3.521  0.1360 -0.0466 -0.3177
 7455TIP3    H143856   5.752   5.058   3.472  1.3679 -1.0255 -1.6347
 7455TIP3    H243857   5.864   5.015   3.564  0.0357  0.5398  0.8564
 7456TIP3   OH243858   3.214   1.107  12.466  0.0348 -0.4700 -0.1451
 7456TIP3    H143859   3.209   1.197  12.500  1.4333 -0.3330 -0.2495
 7456TIP3    H243860   3.183   1.114  12.376  1.7573  0.2581 -0.7206
 7457TIP3   OH243861   3.263   4.757  13.225 -0.6507 -0.7594 -0.3027
 7457TIP3    H143862   3.244   4.829  13.285 -3.0994  0.7514 -2.6281
 7457TIP3    H243863   3.357   4.762  13.209 -0.6543  1.5383  0.1325
 7458TIP3   OH243864   1.802   0.325  10.331  0.3320  0.1182 -0.4650
 7458TIP3    H143865   1.825   0.328  10.239  1.8900 -0.0630 -0.1016
 7458TIP3    H243866   1.706   0.321  10.332  0.3282 -0.6734 -2.0744
 7459TIP3   OH243867   5.955   3.677   3.729 -0.0278  0.2254  0.4926
 7459TIP3    H143868   5.914   3.677   3.816  0.0950  0.2476  0.5503
 7459TIP3    H243869   5.933   3.762   3.692 -1.2887 -0.3158 -0.0656
 7460TIP3   OH243870   6.362   6.244   2.008  0.3795 -0.4346  0.0602
 7460TIP3    H143871   6.327   6.161   2.039 -0.3821  0.1584  0.8338
 7460TIP3    H243872   6.456   6.238   2.024  0.1772 -0.6810  1.2763
 7461TIP3   OH243873   0.387   4.466  14.687  0.1406 -0.1163  0.2433
 7461TIP3    H143874   0.368   4.532  14.754 -0.7096 -0.7659  0.6558
 7461TIP3    H243875   0.452   4.409  14.727 -1.5689 -1.4815  1.1910
 7462TIP3   OH243876   1.441   2.962   1.636 -0.2603  0.3498  0.1136
 7462TIP3    H143877   1.532   2.961   1.605  0.7886  0.8544  2.8916
 7462TIP3    H243878   1.389   2.942   1.558  2.2601 -0.7096 -1.4319
 7463TIP3   OH243879   6.627   3.810  14.083 -0.1523 -0.2108 -0.1220
 7463TIP3    H143880   6.647   3.782  14.172  0.2602  2.2600  0.6277
 7463TIP3    H243881   6.709   3.846  14.049 -0.4929 -0.4294 -1.2353
 7464TIP3   OH243882   3.580   3.999   4.863 -0.4304  0.0203  0.8701
 7464TIP3    H143883   3.631   4.049   4.800 -2.2091 -0.0150 -0.7071
 7464TIP3    H243884   3.576   3.911   4.826 -1.5476  0.0086  0.9856
 7465TIP3   OH243885   1.753   6.125   4.169  0.0763  0.1647 -0.1016
 7465TIP3    H143886   1.686   6.068   4.131  0.1302 -0.1449  0.2579
 7465TIP3    H243887   1.704   6.190   4.219 -0.0037  0.7184 -0.8943
 7466TIP3   OH243888   1.347   0.267  12.718 -0.4589  0.0218  0.3980
 7466TIP3    H143889   1.401   0.249  12.642 -1.8558  2.5415 -1.3578
 7466TIP3    H243890   1.284   0.195  12.720  1.0308 -1.3280  0.6663
 7467TIP3   OH243891   1.327   4.763  13.861  0.3071 -1.0086 -0.0802
 7467TIP3    H143892   1.248   4.805  13.827  0.9520  0.4091  0.1012
 7467TIP3    H243893   1.320   4.672  13.833 -0.6297 -0.5513 -1.4323
 7468TIP3   OH243894   5.089   5.721  13.232  0.8139 -0.0237 -0.5109
 7468TIP3    H143895   5.022   5.750  13.293 -0.1985 -1.0540 -1.1083
 7468TIP3    H243896   5.154   5.791  13.233  0.1854  0.5627  0.7647
 7469TIP3   OH243897   2.336   1.553   5.469  0.1253  0.1519  0.0884
 7469TIP3    H143898   2.411   1.613   5.462 -0.0090  0.2325 -0.8878
 7469TIP3    H243899   2.367   1.482   5.525  0.6350  0.6251  0.4229
 7470TIP3   OH243900   2.608   5.377   2.075  0.2898 -0.3923  0.2898
 7470TIP3    H143901   2.536   5.332   2.030  0.3283  1.8201 -2.2251
 7470TIP3    H243902   2.686   5.355   2.023  0.7237  0.4936  0.5458
 7471TIP3   OH243903   2.139   6.539   3.694  0.3378  0.0692 -0.4565
 7471TIP3    H143904   2.084   6.464   3.672 -0.1501  0.4001 -0.3791
 7471TIP3    H243905   2.119   6.557   3.785 -0.2037  0.8333 -0.7156
 7472TIP3   OH243906   2.661   0.072   3.979 -0.2144  0.3865  0.0483
 7472TIP3    H143907   2.569   0.061   3.955 -0.1221 -0.0928 -0.1012
 7472TIP3    H243908   2.676   0.166   3.973 -0.3540  0.3424 -1.2308
 7473TIP3   OH243909   5.686   0.407   1.750 -0.3695 -0.4260  0.3691
 7473TIP3    H143910   5.704   0.331   1.805  1.1951 -1.6681 -1.7267
 7473TIP3    H243911   5.649   0.371   1.669  1.3955  0.8697 -1.1084
 7474TIP3   OH243912   0.993   2.652  15.354 -0.6294 -0.2571 -0.1870
 7474TIP3    H143913   0.925   2.589  15.327 -0.7333 -0.5525  0.7190
 7474TIP3    H243914   1.002   2.638  15.448 -0.1120  0.5747 -0.1049
 7475TIP3   OH243915   1.328   5.311   4.698  0.0364 -0.0819  0.1280
 7475TIP3    H143916   1.379   5.242   4.655  1.5511  0.0058  1.6930
 7475TIP3    H243917   1.293   5.270   4.777 -0.7965  0.3862  0.0156
 7476TIP3   OH243918   1.858   2.949   2.734 -0.3442 -0.7723 -0.2107
 7476TIP3    H143919   1.880   3.029   2.782  2.4228 -0.9009 -1.1183
 7476TIP3    H243920   1.831   2.888   2.803 -1.5031  0.5651  0.5969
 7477TIP3   OH243921   5.899   1.960   1.846  0.3028  0.4561  0.3393
 7477TIP3    H143922   5.948   1.996   1.921  0.5875  0.4988  0.1335
 7477TIP3    H243923   5.884   1.868   1.870  0.2402  0.5156  0.5279
 7478TIP3   OH243924   5.766   2.806  15.214  0.0884  0.4144  0.0734
 7478TIP3    H143925   5.728   2.721  15.236 -1.3790  0.5949 -1.5820
 7478TIP3    H243926   5.695   2.855  15.174  1.6978  1.2816 -1.9184
 7479TIP3   OH243927   2.456   6.050   3.177  0.3404  0.1994 -0.1393
 7479TIP3    H143928   2.474   6.141   3.152 -0.2380 -0.1796 -2.0660
 7479TIP3    H243929   2.381   6.056   3.236  0.2951  0.9696 -0.2670
 7480TIP3   OH243930   5.187   4.108  11.763 -0.1089 -0.4314  0.4278
 7480TIP3    H143931   5.112   4.079  11.711  0.1365 -0.7775  0.2613
 7480TIP3    H243932   5.151   4.175  11.821 -0.1427  0.9185 -1.0763
 7481TIP3   OH243933   2.964   1.132  13.453 -0.1811 -0.1400  0.0156
 7481TIP3    H143934   2.945   1.223  13.476 -0.8176 -0.6823  1.8114
 7481TIP3    H243935   3.037   1.108  13.509  0.9515 -0.3529 -1.4787
 7482TIP3   OH243936   5.708   6.951  13.681 -0.1244  1.0119  0.1072
 7482TIP3    H143937   5.706   6.917  13.592 -1.7226 -0.3175  0.5859
 7482TIP3    H243938   5.667   7.037  13.675  3.8271  3.0195 -1.0994
 7483TIP3   OH243939   6.554   6.902   1.090 -0.3069  0.3382 -0.1346
 7483TIP3    H143940   6.620   6.851   1.043 -1.2450 -0.8423 -0.2043
 7483TIP3    H243941   6.553   6.864   1.178  1.9244  2.9605  1.1949
 7484TIP3   OH243942   4.335   5.119  10.268 -0.6932 -0.6707  0.0800
 7484TIP3    H143943   4.289   5.130  10.352  0.9167  1.1454  0.7968
 7484TIP3    H243944   4.398   5.049  10.284  0.6136  0.6280  0.9272
 7485TIP3   OH243945   1.398   6.380  14.045  0.6022  0.2298  0.2351
 7485TIP3    H143946   1.351   6.434  14.109 -0.7645 -0.3142 -0.2825
 7485TIP3    H243947   1.457   6.441  14.002 -2.7606  2.0600 -2.2236
 7486TIP3   OH243948   3.314   3.077   0.162 -0.2177  0.1193 -0.5447
 7486TIP3    H143949   3.323   3.040   0.249 -0.9110  0.2367 -0.4214
 7486TIP3    H243950   3.220   3.076   0.144 -0.1068  0.3504 -1.1766
 7487TIP3   OH243951   6.366   5.444   1.967  0.3963  0.4764 -0.0850
 7487TIP3    H143952   6.351   5.426   2.059  1.7863 -0.5729 -0.0185
 7487TIP3    H243953   6.285   5.420   1.923  0.2462 -0.4937  0.7045
 7488TIP3   OH243954   3.574   2.940   4.622  0.4563  0.0692 -0.3149
 7488TIP3    H143955   3.581   2.998   4.698  0.7392  4.7230 -3.4460
 7488TIP3    H243956   3.485   2.906   4.625  0.3075  0.5223  1.7740
 7489TIP3   OH243957   6.979   4.717  13.205  0.5166 -1.0170  0.0203
 7489TIP3    H143958   6.907   4.741  13.147 -0.0860  0.1638  1.2029
 7489TIP3    H243959   7.028   4.651  13.156 -0.9785 -1.3685 -1.0781
 7490TIP3   OH243960   6.419   4.548   9.647 -0.1869 -0.7977  0.1435
 7490TIP3    H143961   6.389   4.533   9.557 -1.3541 -1.1098  0.5665
 7490TIP3    H243962   6.459   4.465   9.673  0.5705 -0.5602 -0.2307
 7491TIP3   OH243963   1.546   3.996  10.313  0.3253 -0.3012  0.5065
 7491TIP3    H143964   1.499   3.932  10.367 -0.5071  1.1621  1.5950
 7491TIP3    H243965   1.592   4.051  10.376  0.3745  0.6670 -0.3423
 7492TIP3   OH243966   5.773   5.328   2.215  0.3352  0.2657 -0.1380
 7492TIP3    H143967   5.778   5.405   2.158  0.3662  1.1893  1.0774
 7492TIP3    H243968   5.863   5.299   2.225  0.4473  0.7264  0.2478
 7493TIP3   OH243969   2.819   0.058  12.274  0.5023 -0.1690  0.3992
 7493TIP3    H143970   2.780   0.071  12.187  1.0564 -1.1655 -0.0154
 7493TIP3    H243971   2.843   0.146  12.302 -2.5628  0.6241  0.9535
 7494TIP3   OH243972   0.049   4.201  12.620 -0.7389 -0.1699  0.2312
 7494TIP3    H143973   0.067   4.110  12.642  2.5062 -0.1318 -1.5677
 7494TIP3    H243974   0.037   4.201  12.525  3.2039  1.5409 -0.4935
 7495TIP3   OH243975   1.249   4.014  10.855  0.2211 -0.0703  0.1122
 7495TIP3    H143976   1.297   3.947  10.903 -0.3293 -1.1366 -0.7771
 7495TIP3    H243977   1.167   4.024  10.904 -0.5599 -1.5213 -0.8209
 7496TIP3   OH243978   0.135   1.537   0.234 -0.0213 -0.1148  0.2188
 7496TIP3    H143979   0.096   1.601   0.294  1.2694 -1.1617  2.3200
 7496TIP3    H243980   0.061   1.482   0.207 -0.6839  0.5458  0.6318
 7497TIP3   OH243981   0.659   4.590   2.573  0.1340  0.4882  1.1710
 7497TIP3    H143982   0.614   4.534   2.636  1.7246 -0.3471  1.6075
 7497TIP3    H243983   0.603   4.588   2.495 -0.8835 -0.0147  1.8896
 7498TIP3   OH243984   1.823   6.236  12.323  0.0935  0.6888 -0.0790
 7498TIP3    H143985   1.773   6.289  12.385  1.6276  0.4277  1.4559
 7498TIP3    H243986   1.892   6.294  12.292  1.5134 -0.1702  1.2742
 7499TIP3   OH243987   1.672   5.515   5.301 -0.6234 -0.5266  0.5753
 7499TIP3    H143988   1.746   5.534   5.243 -0.8416 -1.4519 -0.0371
 7499TIP3    H243989   1.650   5.424   5.282 -1.2807 -0.5685  1.4797
 7500TIP3   OH243990   5.049   5.213   0.829  0.3512 -1.0897  0.1994
 7500TIP3    H143991   4.963   5.217   0.787  0.7026 -2.3387 -0.6855
 7500TIP3    H243992   5.034   5.164   0.910  0.0578 -0.4394  0.5488
 7501TIP3   OH243993   3.913   0.174   0.304  0.0954 -0.5339 -0.5191
 7501TIP3    H143994   3.954   0.103   0.354 -1.9019 -1.4511 -0.0844
 7501TIP3    H243995   3.824   0.180   0.340 -0.5014  0.6505 -2.1037
 7502TIP3   OH243996   1.616   4.311   1.071 -0.1070  0.4020  0.1303
 7502TIP3    H143997   1.575   4.234   1.032 -2.0243  1.3492  0.1902
 7502TIP3    H243998   1.667   4.350   1.000  0.8590 -0.8481  0.0886
 7503TIP3   OH243999   1.455   7.226  14.390 -0.3246  0.2293 -0.2246
 7503TIP3    H144000   1.449   7.299  14.329 -0.2349  0.7277  0.3583
 7503TIP3    H244001   1.385   7.166  14.363  0.9509 -0.5388 -2.0932
 7504TIP3   OH244002   5.645   4.018   0.655  0.5210 -0.2934 -0.0672
 7504TIP3    H144003   5.593   3.971   0.590  1.0859  0.2969 -0.9569
 7504TIP3    H244004   5.636   4.110   0.632  0.9307 -0.0976  0.5369
 7505TIP3   OH244005   5.147   4.898   3.703 -0.1011 -0.3342 -0.3957
 7505TIP3    H144006   5.054   4.876   3.712 -0.2130  0.4321  0.4245
 7505TIP3    H244007   5.162   4.898   3.608 -0.8604 -0.7634 -0.5246
 7506TIP3   OH244008   6.631   0.259   2.500 -0.5160 -0.3371  0.2136
 7506TIP3    H144009   6.623   0.347   2.462  1.3750  0.2608  1.0890
 7506TIP3    H244010   6.683   0.210   2.437  1.0900  0.1328  1.1089
 7507TIP3   OH244011   4.828   5.377  14.054  0.5035 -0.0655 -0.3728
 7507TIP3    H144012   4.835   5.469  14.080  0.5139 -0.4312  1.0264
 7507TIP3    H244013   4.884   5.331  14.117  0.8424 -0.9890 -1.3255
 7508TIP3   OH244014   7.013   0.144  10.167  0.1576 -0.1565  0.0565
 7508TIP3    H144015   7.082   0.179  10.112  0.6471 -0.8700  0.1957
 7508TIP3    H244016   6.934   0.188  10.138  0.7505  1.0630  0.2530
 7509TIP3   OH244017   1.054   0.714  12.536  0.2249  0.6578 -0.2303
 7509TIP3    H144018   1.129   0.763  12.572  0.9727 -1.4205  1.2098
 7509TIP3    H244019   0.979   0.771  12.551  1.0630  1.4274  1.2775
 7510TIP3   OH244020   1.461   4.663   5.733 -0.2424  0.0416 -0.0774
 7510TIP3    H144021   1.484   4.651   5.826  0.2196  1.9278  0.0783
 7510TIP3    H244022   1.385   4.607   5.720 -0.8450  0.4010  1.6652
 7511TIP3   OH244023   6.219   1.325   0.271 -0.0675 -0.2128 -0.0990
 7511TIP3    H144024   6.268   1.406   0.256 -0.5090 -0.2847 -2.3657
 7511TIP3    H244025   6.127   1.352   0.266 -0.2563 -0.5298  1.3326
 7512TIP3   OH244026   4.073   1.350  13.191  0.1611 -0.4757 -0.3073
 7512TIP3    H144027   4.055   1.287  13.262 -0.9104 -0.9652 -0.9813
 7512TIP3    H244028   4.108   1.296  13.120 -0.8828 -0.3535 -0.9361
 7513TIP3   OH244029   6.981   0.858  11.304  0.0248  0.5749  0.6650
 7513TIP3    H144030   6.951   0.843  11.394 -1.3490 -0.3878  0.0852
 7513TIP3    H244031   6.903   0.890  11.258  0.5480  0.4621 -0.3261
 7514TIP3   OH244032   2.168   4.262  13.675 -0.4027 -0.2403 -0.0898
 7514TIP3    H144033   2.187   4.227  13.762 -0.3944  1.8770  0.8167
 7514TIP3    H244034   2.081   4.301  13.684  0.4434  1.8503 -0.3698
 7515TIP3   OH244035   6.333   3.485  15.085  0.0754 -0.4425 -0.2217
 7515TIP3    H144036   6.345   3.559  15.026  0.6548 -0.7878 -0.5432
 7515TIP3    H244037   6.419   3.444  15.091 -0.3125 -1.3065 -0.3429
 7516TIP3   OH244038   6.104   2.787  13.815 -0.2620 -0.3688  0.0347
 7516TIP3    H144039   6.196   2.761  13.820 -0.1759 -0.8225 -2.4249
 7516TIP3    H244040   6.092   2.814  13.724 -2.1028  1.6072  0.7887
 7517TIP3   OH244041   2.712   0.901   1.517 -0.6368 -0.3856 -0.1588
 7517TIP3    H144042   2.644   0.836   1.535 -0.3323 -0.5603  0.3808
 7517TIP3    H244043   2.776   0.889   1.587 -1.1937  1.3446  0.7186
 7518TIP3   OH244044   6.334   1.872  12.703  0.1216 -0.4756 -0.0683
 7518TIP3    H144045   6.293   1.954  12.675  1.1419 -0.0269 -0.3220
 7518TIP3    H244046   6.376   1.839  12.624  1.9615  0.1452  0.5825
 7519TIP3   OH244047   0.205   4.645  12.364 -0.4683 -0.2230 -0.7955
 7519TIP3    H144048   0.142   4.577  12.343  0.4569 -0.8482 -1.6496
 7519TIP3    H244049   0.153   4.726  12.368 -1.0487 -0.3307 -3.7593
 7520TIP3   OH244050   5.893   4.135   3.246  0.1693  0.4317  0.4105
 7520TIP3    H144051   5.940   4.089   3.176  0.0432 -1.3827  1.4595
 7520TIP3    H244052   5.819   4.078   3.266  1.0553  0.0746  3.0763
 7521TIP3   OH244053   0.526   3.340   0.390  0.3426 -0.3710  0.1362
 7521TIP3    H144054   0.541   3.249   0.364 -0.2571 -0.6436  0.7011
 7521TIP3    H244055   0.440   3.361   0.353  0.3957 -0.0958  0.1707
 7522TIP3   OH244056   1.397   1.005  14.973  0.4944  0.1942  0.5075
 7522TIP3    H144057   1.425   1.045  15.056 -0.5372  0.5837  0.6718
 7522TIP3    H244058   1.390   0.912  14.993 -1.1605  0.4597  1.2718
 7523TIP3   OH244059   2.972   7.115  12.827 -0.1876  0.3889 -0.7851
 7523TIP3    H144060   3.006   7.059  12.758  2.7336  0.1505  0.6870
 7523TIP3    H244061   2.878   7.097  12.828  0.0697 -1.6030 -2.8581
 7524TIP3   OH244062   5.626   3.559  11.880 -0.1656  0.6553 -0.1575
 7524TIP3    H144063   5.610   3.486  11.820 -1.0088  1.0512 -0.4231
 7524TIP3    H244064   5.720   3.554  11.899 -0.6811 -2.5168  2.4643
 7525TIP3   OH244065   3.562   3.308  10.078  0.2731 -0.2806 -0.3190
 7525TIP3    H144066   3.584   3.218  10.053 -2.2147 -0.8898 -0.6167
 7525TIP3    H244067   3.520   3.300  10.164  1.8068  0.8876  0.5961
 7526TIP3   OH244068   4.961   4.452  12.522 -0.1480  0.0260  0.4199
 7526TIP3    H144069   4.903   4.395  12.574  0.7045 -0.2578  1.0928
 7526TIP3    H244070   4.974   4.405  12.440 -2.4668  1.0240 -0.6020
 7527TIP3   OH244071   1.463   4.568  11.331  0.4903  0.1688 -0.8282
 7527TIP3    H144072   1.420   4.509  11.269 -2.4268  1.5957 -0.3717
 7527TIP3    H244073   1.556   4.551  11.320 -0.1129 -3.3948 -1.7494
 7528TIP3   OH244074   1.356   1.473  10.600  0.1823  0.4925  0.3068
 7528TIP3    H144075   1.269   1.433  10.603 -0.6226  2.1626  0.9063
 7528TIP3    H244076   1.399   1.442  10.680 -0.6365  1.2204  1.0551
 7529TIP3   OH244077   5.412   7.060  14.315  0.4619  0.1682 -0.2766
 7529TIP3    H144078   5.485   7.120  14.297  0.9673  0.0092  1.1018
 7529TIP3    H244079   5.418   6.993  14.247  1.5313  0.2341 -0.2602
 7530TIP3   OH244080   1.019   4.124   4.487 -0.5491  0.0515 -0.3407
 7530TIP3    H144081   1.111   4.116   4.463 -0.3559 -2.0737  0.8513
 7530TIP3    H244082   0.972   4.083   4.414 -0.1873 -2.9926  0.9600
 7531TIP3   OH244083   5.562   4.591  15.197 -0.4575 -0.2190  0.3245
 7531TIP3    H144084   5.631   4.572  15.133 -0.9300  0.4474 -0.3906
 7531TIP3    H244085   5.602   4.653  15.257  0.2851 -1.5273  1.2293
 7532TIP3   OH244086   6.951   4.476  12.267 -0.1563  0.2711  0.1169
 7532TIP3    H144087   6.858   4.466  12.288 -0.2967 -0.9758 -0.9757
 7532TIP3    H244088   6.969   4.407  12.203  1.5762  0.3602  0.4565
 7533TIP3   OH244089   5.050   4.047  13.189  0.2724 -0.0405 -0.0162
 7533TIP3    H144090   5.049   4.066  13.095  0.6228  0.3467  0.0577
 7533TIP3    H244091   4.957   4.038  13.212  0.0934  1.2196 -0.1385
 7534TIP3   OH244092   7.180   3.031   4.130  0.1766 -0.6117 -0.0608
 7534TIP3    H144093   7.248   3.087   4.093 -0.1152 -0.4674 -0.3884
 7534TIP3    H244094   7.098   3.071   4.101 -0.0336 -1.2288 -0.3409
 7535TIP3   OH244095   5.765   0.862  14.072 -0.3092 -0.3486  0.2853
 7535TIP3    H144096   5.686   0.841  14.121 -0.8744  1.2000  0.0962
 7535TIP3    H244097   5.830   0.883  14.139  0.1901 -2.3312  0.4657
 7536TIP3   OH244098   3.024   3.238   0.558  0.8845  0.0519 -0.0928
 7536TIP3    H144099   3.002   3.168   0.619  0.8221 -0.1607 -0.3560
 7536TIP3    H244100   2.940   3.277   0.534  1.0749  2.0354  2.1553
 7537TIP3   OH244101   1.976   5.568   4.028  0.3464  0.0987 -0.6321
 7537TIP3    H144102   2.064   5.599   4.051 -0.1502  1.0956  0.0267
 7537TIP3    H244103   1.980   5.474   4.040  0.8931  0.2984  1.0091
 7538TIP3   OH244104   3.367   4.003   0.308 -0.6851 -0.1632  0.0875
 7538TIP3    H144105   3.322   4.086   0.321  0.2854  0.1797  1.3964
 7538TIP3    H244106   3.426   4.019   0.234 -0.5794  0.2678  0.2682
 7539TIP3   OH244107   5.276   1.997   5.742  0.4073 -0.0410  0.5364
 7539TIP3    H144108   5.344   1.930   5.746 -0.4282 -1.0998 -1.5395
 7539TIP3    H244109   5.322   2.080   5.756  1.6221 -0.9334  2.0767
 7540TIP3   OH244110   3.830   3.176  11.256 -0.3005  0.2076 -0.4716
 7540TIP3    H144111   3.739   3.203  11.241 -0.4574 -0.7997 -1.4906
 7540TIP3    H244112   3.866   3.244  11.313 -2.0873 -0.1007  1.1119
 7541TIP3   OH244113   5.585   3.377   3.753  0.0808  0.4771  0.3364
 7541TIP3    H144114   5.651   3.310   3.773 -1.9007 -1.3878  0.9789
 7541TIP3    H244115   5.630   3.437   3.693  3.0843  0.6606  2.5435
 7542TIP3   OH244116   1.989   1.084   2.753 -0.2569 -0.5226 -0.0237
 7542TIP3    H144117   1.942   1.001   2.748  0.7133 -1.2982  2.3231
 7542TIP3    H244118   1.984   1.109   2.845  0.8342  1.2342 -0.3869
 7543TIP3   OH244119   4.439   3.115  11.031 -0.1974  0.0485 -0.4331
 7543TIP3    H144120   4.388   3.194  11.013 -0.0460  0.5147  1.0320
 7543TIP3    H244121   4.385   3.044  10.997 -1.8216  0.5379  0.9329
 7544TIP3   OH244122   5.103   5.064  10.772 -0.1904 -0.3497 -0.1378
 7544TIP3    H144123   5.187   5.070  10.818 -0.8156  1.4368  0.8910
 7544TIP3    H244124   5.045   5.018  10.834 -0.1343 -1.0457 -0.5966
 7545TIP3   OH244125   5.568   2.843  12.484  0.2119 -0.3352 -0.3473
 7545TIP3    H144126   5.622   2.766  12.467  1.3766  0.7432 -1.7255
 7545TIP3    H244127   5.624   2.899  12.538 -1.0458 -0.8670  1.6513
 7546TIP3   OH244128   6.310   0.251  10.018  0.2028 -0.3106  0.0005
 7546TIP3    H144129   6.295   0.265   9.925 -0.1741  0.4434  0.1642
 7546TIP3    H244130   6.304   0.157  10.030 -3.5355 -0.2499 -0.1238
 7547TIP3   OH244131   0.636   1.783   0.625 -0.4648 -0.0266  0.1292
 7547TIP3    H144132   0.637   1.878   0.617  1.0442 -0.1475 -2.0748
 7547TIP3    H244133   0.680   1.765   0.708  0.4170  1.1860 -0.0503
 7548TIP3   OH244134   0.368   4.693  11.484  0.0958  0.2574  0.0489
 7548TIP3    H144135   0.393   4.677  11.393  0.0425 -0.7163  0.2017
 7548TIP3    H244136   0.412   4.775  11.507 -2.0807  2.1000 -1.7314
 7549TIP3   OH244137   1.801   7.196  11.887  0.2304 -0.8021 -0.3457
 7549TIP3    H144138   1.827   7.224  11.800  0.6696  0.9600  0.3115
 7549TIP3    H244139   1.709   7.223  11.894 -0.8138 -3.6868 -1.3079
 7550TIP3   OH244140   5.298   2.391   9.699 -0.0872  0.0006  0.6925
 7550TIP3    H144141   5.278   2.484   9.713 -0.2563  0.0920 -0.1005
 7550TIP3    H244142   5.225   2.359   9.647 -0.0394 -0.5914  0.9856
 7551TIP3   OH244143   4.024   4.593  14.241 -0.4967  0.6962 -0.2297
 7551TIP3    H144144   3.948   4.619  14.293  0.6623  2.3933  0.6828
 7551TIP3    H244145   4.035   4.664  14.178 -0.6910 -0.3852 -1.5323
 7552TIP3   OH244146   2.363   0.334   0.351  0.6246 -0.4616 -0.1277
 7552TIP3    H144147   2.429   0.304   0.289  0.1654  0.2646 -0.9839
 7552TIP3    H244148   2.410   0.342   0.435  1.6216  0.0375 -0.7174
 7553TIP3   OH244149   2.829   4.046   1.644  0.1136 -0.2241  0.4818
 7553TIP3    H144150   2.865   4.031   1.732 -1.0923  0.4113  1.1100
 7553TIP3    H244151   2.906   4.059   1.589  1.0023  4.6227  2.3785
 7554TIP3   OH244152   4.511   3.141   9.908 -0.3938 -0.0723  1.0107
 7554TIP3    H144153   4.453   3.114   9.837 -0.3389  0.7130  0.6614
 7554TIP3    H244154   4.554   3.060   9.936  0.1562 -0.2684 -0.3537
 7555TIP3   OH244155   5.655   4.149   2.039  0.2544  0.3987 -0.6357
 7555TIP3    H144156   5.579   4.138   1.983 -0.0206 -0.5342 -0.1091
 7555TIP3    H244157   5.669   4.243   2.044 -0.4331  0.5431 -1.2991
 7556TIP3   OH244158   3.130   0.602  12.263 -0.2965 -0.0957  0.6830
 7556TIP3    H144159   3.195   0.668  12.242 -2.0225  1.6791  0.5737
 7556TIP3    H244160   3.102   0.623  12.352 -2.5846  0.9567 -0.1879
 7557TIP3   OH244161   0.716   1.143  14.975  0.2371  0.3512 -0.3350
 7557TIP3    H144162   0.806   1.166  14.995  0.1393  4.2906 -3.2943
 7557TIP3    H244163   0.664   1.182  15.045  0.6714  1.1361 -0.4384
 7558TIP3   OH244164   2.230   3.206  14.488 -0.6842 -0.1507 -0.0379
 7558TIP3    H144165   2.238   3.139  14.420 -0.9845  0.6385 -0.8774
 7558TIP3    H244166   2.289   3.176  14.557  1.4358  0.1319 -1.5933
 7559TIP3   OH244167   4.858   1.388  14.490  0.5723  0.4024 -0.2885
 7559TIP3    H144168   4.811   1.469  14.506  1.1831  0.9083 -0.9923
 7559TIP3    H244169   4.921   1.381  14.562 -0.4195 -0.1765  0.5472
 7560TIP3   OH244170   6.524   2.847  12.222  0.0861  0.8143 -0.3435
 7560TIP3    H144171   6.474   2.775  12.262  0.2108  1.0342  0.2152
 7560TIP3    H244172   6.464   2.921  12.223 -0.2428  0.5857 -1.4367
 7561TIP3   OH244173   6.820   1.013  15.163  0.3181 -0.3604  0.0323
 7561TIP3    H144174   6.748   1.072  15.139 -0.5590 -1.8529 -1.2246
 7561TIP3    H244175   6.894   1.042  15.110  0.1000  0.0581 -0.0424
 7562TIP3   OH244176   4.605   4.659   1.504  0.4847 -0.2265 -0.4067
 7562TIP3    H144177   4.621   4.747   1.469  3.1776 -1.0606 -1.5784
 7562TIP3    H244178   4.633   4.665   1.596  0.9426  0.0755 -0.5605
 7563TIP3   OH244179   4.521   0.965   2.480 -0.0612 -0.0836 -0.0022
 7563TIP3    H144180   4.588   0.930   2.422  0.2202  1.3444 -0.5792
 7563TIP3    H244181   4.513   1.058   2.456 -1.9663 -0.1115  0.3085
 7564TIP3   OH244182   3.933   2.276  10.452 -0.1052 -0.0424 -0.6225
 7564TIP3    H144183   3.965   2.333  10.522  0.3974 -0.5939 -0.3880
 7564TIP3    H244184   4.012   2.233  10.419 -0.6248 -1.9168  0.3915
 7565TIP3   OH244185   4.516   4.137   1.407  0.3941 -0.1376  0.5880
 7565TIP3    H144186   4.459   4.079   1.357  1.3833 -1.2028  0.6553
 7565TIP3    H244187   4.463   4.164   1.482  0.1421 -1.5197  0.9287
 7566TIP3   OH244188   3.717   1.861  12.319  0.0500 -0.0754  0.2409
 7566TIP3    H144189   3.642   1.891  12.371 -0.6095  1.6935 -1.5942
 7566TIP3    H244190   3.679   1.834  12.235  1.4418  1.4482 -0.9671
 7567TIP3   OH244191   6.960   1.556   1.136  0.0658 -0.1723 -0.0843
 7567TIP3    H144192   6.865   1.567   1.138  0.2081  2.2403 -2.0703
 7567TIP3    H244193   6.984   1.576   1.046  2.6478  1.1177  0.8112
 7568TIP3   OH244194   5.686   4.136  11.021  0.0242 -0.9380  0.0865
 7568TIP3    H144195   5.704   4.197  11.092 -2.5877 -0.8915  0.8379
 7568TIP3    H244196   5.709   4.050  11.056  0.7998 -0.6994  0.1665
 7569TIP3   OH244197   2.724   6.027  11.873  0.0118 -0.1584 -0.1529
 7569TIP3    H144198   2.689   6.084  11.804  1.7384  1.1499 -0.0207
 7569TIP3    H244199   2.810   6.064  11.894  0.9615 -2.4842  0.3896
 7570TIP3   OH244200   6.492   5.484   1.636 -0.1100 -0.0269 -0.0990
 7570TIP3    H144201   6.526   5.395   1.642 -1.1738 -0.4064  0.4992
 7570TIP3    H244202   6.401   5.474   1.609 -0.0815  0.9198 -0.6115
 7571TIP3   OH244203   5.804   0.042  12.522 -0.5228 -0.2146  0.1592
 7571TIP3    H144204   5.861   0.057  12.597  0.0249  0.1756 -0.3268
 7571TIP3    H244205   5.748   0.120  12.518 -0.7515 -0.3685  0.3346
 7572TIP3   OH244206   0.260   0.341   9.870  0.1541 -0.2236 -0.3006
 7572TIP3    H144207   0.263   0.383   9.784 -0.9365 -1.3577 -0.9286
 7572TIP3    H244208   0.169   0.353   9.898  0.7999  1.3215  1.3466
 7573TIP3   OH244209   1.973   3.924  10.645  0.7130  0.1594 -0.1609
 7573TIP3    H144210   1.929   3.982  10.582  0.9461  0.9576  0.3967
 7573TIP3    H244211   2.039   3.878  10.593  1.0514  0.9664 -0.4708
 7574TIP3   OH244212   6.756   1.699  13.104  0.7435 -0.1614  0.5629
 7574TIP3    H144213   6.740   1.692  13.010 -0.7188 -0.4006  0.8155
 7574TIP3    H244214   6.670   1.691  13.144  1.0243  2.1160  1.8117
 7575TIP3   OH244215   5.065   4.868  11.684  0.1289 -0.4120 -0.1436
 7575TIP3    H144216   5.007   4.942  11.703 -3.2851 -2.5891 -1.0233
 7575TIP3    H244217   5.079   4.874  11.589 -0.6602 -1.1724 -0.3169
 7576TIP3   OH244218   4.655   0.854  11.544 -0.1685  0.0582 -0.1583
 7576TIP3    H144219   4.662   0.944  11.514  0.1057 -0.1186 -0.6357
 7576TIP3    H244220   4.562   0.832  11.534 -0.2013  0.2250 -0.2162
 7577TIP3   OH244221   1.324   4.428  10.558 -0.0201  0.1707 -0.7082
 7577TIP3    H144222   1.335   4.379  10.639  3.3043  0.6858 -0.6733
 7577TIP3    H244223   1.241   4.398  10.522 -0.6630 -1.4980  1.8958
 7578TIP3   OH244224   4.664   3.773  10.818 -0.7384  0.0028  0.0449
 7578TIP3    H144225   4.577   3.763  10.856  0.3844  1.2978  3.3104
 7578TIP3    H244226   4.722   3.719  10.872  0.8934  1.3142 -0.2833
 7579TIP3   OH244227   1.884   6.898  10.196  0.5583 -0.5829 -0.2387
 7579TIP3    H144228   1.798   6.893  10.154 -0.7168  0.3474  2.0337
 7579TIP3    H244229   1.903   6.808  10.222  0.2254 -0.7884 -0.6922
 7580TIP3   OH244230   6.173   2.692  11.439 -0.2096  0.1981  0.5719
 7580TIP3    H144231   6.116   2.622  11.470 -0.5586  0.8783  1.4933
 7580TIP3    H244232   6.211   2.729  11.518  0.6532  0.4809  0.0304
 7581TIP3   OH244233   7.214   2.874   5.159 -0.1808  0.4365 -0.1567
 7581TIP3    H144234   7.287   2.881   5.221 -1.2935  3.3687  0.9825
 7581TIP3    H244235   7.142   2.840   5.210 -0.8945  2.1593  0.0580
 7582TIP3   OH244236   4.002   5.994  10.847  0.0104 -0.0380  0.2251
 7582TIP3    H144237   3.947   6.057  10.894 -0.7276 -0.9467  0.6057
 7582TIP3    H244238   3.940   5.935  10.803  0.6934  0.0482 -0.8906
 7583TIP3   OH244239   4.592   3.620   9.979 -0.0816 -0.0775  0.2197
 7583TIP3    H144240   4.652   3.672  10.033 -0.2582 -1.9165  2.3284
 7583TIP3    H244241   4.649   3.555   9.937 -0.1870  0.2410 -0.4226
 7584TIP3   OH244242   1.360   2.121  10.621  0.0838  0.2540 -0.5436
 7584TIP3    H144243   1.288   2.076  10.664  0.1604  1.0979  0.5057
 7584TIP3    H244244   1.431   2.120  10.685  0.0126  2.0390 -0.3837
 7585TIP3   OH244245   5.728   2.107   4.398 -0.4016 -0.3904  0.0461
 7585TIP3    H144246   5.692   2.066   4.477 -1.3691 -0.7483 -0.5665
 7585TIP3    H244247   5.663   2.172   4.373 -0.9369 -1.4387 -1.4085
 7586TIP3   OH244248   6.506   3.218   0.319  0.1189 -0.4936  0.2839
 7586TIP3    H144249   6.431   3.241   0.375 -0.5824  0.9088 -1.1485
 7586TIP3    H244250   6.469   3.159   0.253  0.4480 -0.4049  0.0206
 7587TIP3   OH244251   3.492   3.482   3.120 -0.3091  0.0920 -0.0730
 7587TIP3    H144252   3.533   3.411   3.170  1.2548 -0.3981 -1.9080
 7587TIP3    H244253   3.469   3.548   3.186  2.6258 -0.0240  1.2138
 7588TIP3   OH244254   1.171   2.721  11.375 -0.4584  0.5290  0.3664
 7588TIP3    H144255   1.086   2.690  11.344 -0.1743  0.2259 -0.1172
 7588TIP3    H244256   1.162   2.726  11.471 -0.2766 -1.7987  0.5664
 7589TIP3   OH244257   0.900   1.563   4.143  0.0959  0.1407 -0.4152
 7589TIP3    H144258   0.971   1.615   4.106  0.0129  0.6575  0.1334
 7589TIP3    H244259   0.862   1.619   4.211  0.2566 -0.7835  0.4703
 7590TIP3   OH244260   2.560   5.725  13.222 -0.2541  0.2265 -0.3430
 7590TIP3    H144261   2.484   5.756  13.173  0.3750  0.9942 -0.8626
 7590TIP3    H244262   2.544   5.752  13.312 -0.8572 -0.1210 -0.3437
 7591TIP3   OH244263   3.191   1.553  13.029 -0.3570  0.6856  0.3385
 7591TIP3    H144264   3.277   1.591  13.047  1.1284 -1.8537 -0.8952
 7591TIP3    H244265   3.210   1.466  12.995 -3.4844 -0.2578  0.7406
 7592TIP3   OH244266   0.634   6.608  12.651  0.8071  0.3292  0.1513
 7592TIP3    H144267   0.607   6.649  12.733  0.7434 -1.0583  0.8443
 7592TIP3    H244268   0.574   6.534  12.640 -1.2376  2.1833 -2.7391
 7593TIP3   OH244269   3.745   4.637  13.771 -0.1340  0.7446 -0.0375
 7593TIP3    H144270   3.656   4.663  13.794 -0.5568 -0.3580 -0.3553
 7593TIP3    H244271   3.739   4.542  13.755  0.9401  0.7836 -0.7773
 7594TIP3   OH244272   3.006   6.605   0.478  0.2309 -0.3274  0.0390
 7594TIP3    H144273   3.002   6.663   0.554 -0.3421  1.1644 -1.0967
 7594TIP3    H244274   2.974   6.521   0.510 -0.0038  0.2746  1.4342
 7595TIP3   OH244275   4.978   0.950  11.247 -0.2523 -0.0586  0.1176
 7595TIP3    H144276   4.950   1.004  11.320  2.0425 -1.3936  2.1396
 7595TIP3    H244277   5.000   0.866  11.286 -0.0012 -1.2291 -2.3155
 7596TIP3   OH244278   7.010   5.433  11.407  0.4028  0.0218  0.4536
 7596TIP3    H144279   7.067   5.368  11.447  0.4652 -0.8626 -0.9864
 7596TIP3    H244280   7.062   5.469  11.335  0.0730  1.1043  0.7377
 7597TIP3   OH244281   5.613   6.950   1.954  0.0402  0.4197  0.0919
 7597TIP3    H144282   5.567   6.881   2.003  1.1151  0.4920  1.2525
 7597TIP3    H244283   5.705   6.927   1.962  0.3983  1.9073  0.3546
 7598TIP3   OH244284   6.796   6.490  14.767 -0.4487  0.3688 -0.5314
 7598TIP3    H144285   6.708   6.488  14.804 -0.7175  3.4325 -0.7090
 7598TIP3    H244286   6.813   6.583  14.752  2.2922 -0.2386 -1.8129
 7599TIP3   OH244287   3.512   2.265   0.423 -0.5363 -0.2190 -0.1739
 7599TIP3    H144288   3.439   2.303   0.374 -2.0818 -2.6246  0.1100
 7599TIP3    H244289   3.495   2.289   0.514 -0.7549 -0.4398 -0.1562
 7600TIP3   OH244290   2.933   5.931  12.337 -0.1947  0.4721  0.1165
 7600TIP3    H144291   2.926   6.018  12.376  0.6911  0.4896  0.2566
 7600TIP3    H244292   2.916   5.871  12.410  3.3751  0.4590  1.1018
 7601TIP3   OH244293   4.767   5.501  10.261 -0.3341  0.2298  0.2524
 7601TIP3    H144294   4.787   5.544  10.344 -0.5931  0.3228  0.2664
 7601TIP3    H244295   4.839   5.525  10.204  0.2197 -0.4137  0.6634
 7602TIP3   OH244296   1.910   2.956   3.804 -0.0129  0.0465  0.1434
 7602TIP3    H144297   1.886   2.886   3.743  0.8984  0.4869 -0.7382
 7602TIP3    H244298   1.865   3.034   3.770  1.4290  0.5510 -0.6644
 7603TIP3   OH244299   1.556   3.226  10.568 -0.1739 -0.1940 -0.1650
 7603TIP3    H144300   1.522   3.303  10.613  0.7952  0.2236 -0.1106
 7603TIP3    H244301   1.546   3.155  10.632  0.2884  0.1963  0.3617
 7604TIP3   OH244302   1.685   0.727   3.054  0.2425  0.2236 -0.0501
 7604TIP3    H144303   1.673   0.654   3.114 -0.2664  1.0962  0.9395
 7604TIP3    H244304   1.772   0.713   3.016  0.2489 -0.7537  0.3163
 7605TIP3   OH244305   2.713   7.228  14.318 -0.8269  0.1342 -0.5582
 7605TIP3    H144306   2.723   7.137  14.291  0.4727 -0.3790  1.4636
 7605TIP3    H244307   2.692   7.275  14.236  0.1295 -1.7115 -1.9367
 7606TIP3   OH244308   5.441   6.094   1.325  0.5237 -0.3583 -0.3656
 7606TIP3    H144309   5.399   6.141   1.398  0.6606 -1.0630  0.1821
 7606TIP3    H244310   5.505   6.156   1.290 -0.7023  0.5966 -0.9760
 7607TIP3   OH244311   0.390   6.278  11.773  0.7422 -0.2124 -0.4217
 7607TIP3    H144312   0.361   6.337  11.842  1.6644  0.6757 -0.7689
 7607TIP3    H244313   0.380   6.190  11.811  0.3097  0.2091  0.4691
 7608TIP3   OH244314   4.017   5.490   6.117  0.3948 -0.1802 -0.3533
 7608TIP3    H144315   4.086   5.424   6.121 -0.2266 -0.8303 -0.1643
 7608TIP3    H244316   4.037   5.540   6.037  0.8266 -0.6394 -0.5382
 7609TIP3   OH244317   2.472   6.807  14.702  0.0522  0.2643  0.5710
 7609TIP3    H144318   2.484   6.884  14.758  2.2491  0.4547 -0.0991
 7609TIP3    H244319   2.531   6.741  14.740 -2.8983 -1.7396  2.0992
 7610TIP3   OH244320   4.357   5.648  12.159  0.0414  0.6169  0.0183
 7610TIP3    H144321   4.346   5.648  12.063 -0.3709 -0.3814  0.0606
 7610TIP3    H244322   4.448   5.624  12.173 -0.0839  0.0742 -0.1035
 7611TIP3   OH244323   4.810   1.681   1.564 -0.2743 -0.4360  0.1211
 7611TIP3    H144324   4.851   1.763   1.589  0.9417 -0.9092 -0.2346
 7611TIP3    H244325   4.718   1.691   1.590 -0.2020  1.1010 -0.1295
 7612TIP3   OH244326   6.534   0.368  14.111  0.3084  0.2647  0.1757
 7612TIP3    H144327   6.516   0.382  14.204  1.7615 -1.4392  0.7661
 7612TIP3    H244328   6.501   0.280  14.092  0.7013  0.2959 -0.7318
 7613TIP3   OH244329   1.890   6.581   0.444  0.1736 -0.3762  0.2205
 7613TIP3    H144330   1.920   6.663   0.406  1.0920 -0.8448 -0.1029
 7613TIP3    H244331   1.796   6.579   0.427  0.3011  0.1665 -0.6069
 7614TIP3   OH244332   4.906   0.328  13.610 -0.5129 -0.3766 -0.1873
 7614TIP3    H144333   4.891   0.243  13.651  0.3530 -0.2546  0.3941
 7614TIP3    H244334   4.819   0.354  13.578 -0.9667 -1.0421  0.4602
 7615TIP3   OH244335   0.192   1.362   2.147 -0.2698  0.3708  0.0778
 7615TIP3    H144336   0.162   1.364   2.056  2.1163  3.6801 -0.8298
 7615TIP3    H244337   0.111   1.364   2.198 -1.6972  1.6310 -2.0488
 7616TIP3   OH244338   1.071   4.285  12.831  0.0956  0.2440 -0.1634
 7616TIP3    H144339   1.088   4.322  12.917 -0.8095  0.4959 -0.0824
 7616TIP3    H244340   1.132   4.330  12.773  0.9793 -0.2018  0.3951
 7617TIP3   OH244341   3.904   5.297  10.601 -0.4624  0.8526 -0.4111
 7617TIP3    H144342   3.928   5.383  10.638  0.7560 -0.6362  2.6260
 7617TIP3    H244343   3.987   5.259  10.573 -0.7264 -0.0252 -0.0349
 7618TIP3   OH244344   6.183   4.423   2.913  0.7032 -0.4591 -0.0382
 7618TIP3    H144345   6.263   4.385   2.948  1.8782 -0.2157 -2.2515
 7618TIP3    H244346   6.115   4.401   2.977  1.8562 -3.7325  0.2343
 7619TIP3   OH244347   6.162   6.865  15.161 -0.2275  0.0950 -0.7127
 7619TIP3    H144348   6.210   6.859  15.244  0.2938 -0.5494 -1.0523
 7619TIP3    H244349   6.152   6.959  15.146 -1.5097  0.2445  0.7449
 7620TIP3   OH244350   4.794   2.158  10.192  0.3214 -0.3216  0.8555
 7620TIP3    H144351   4.704   2.154  10.222  0.5125 -0.8504  1.3736
 7620TIP3    H244352   4.790   2.135  10.099  0.0095 -1.0788  1.0528
 7621TIP3   OH244353   1.033   0.202   2.248 -0.2016 -0.0814 -0.0857
 7621TIP3    H144354   1.019   0.277   2.190  2.0967  0.5616  0.0988
 7621TIP3    H244355   0.970   0.136   2.218 -0.4656  0.9703 -1.9816
 7622TIP3   OH244356   2.787   6.141   3.261  0.1068 -0.4118  0.3268
 7622TIP3    H144357   2.703   6.095   3.263  0.5020 -1.0996  1.4595
 7622TIP3    H244358   2.851   6.076   3.287  0.6487  0.8356  2.2918
 7623TIP3   OH244359   1.922   0.185  11.366  0.3501  0.4402 -0.0870
 7623TIP3    H144360   1.987   0.238  11.319  0.3090 -0.2566 -0.9407
 7623TIP3    H244361   1.962   0.099  11.372  0.0032  0.3175  0.4425
 7624TIP3   OH244362   4.681   5.948  10.037 -0.7476  0.6840 -0.2296
 7624TIP3    H144363   4.685   5.876   9.973  1.6593 -0.0850  0.6889
 7624TIP3    H244364   4.623   6.013   9.996 -0.1132 -0.2137 -2.7378
 7625TIP3   OH244365   1.072   3.768   9.944 -0.4995 -0.1152 -0.0426
 7625TIP3    H144366   1.161   3.762   9.910 -0.8543  1.6592 -1.4267
 7625TIP3    H244367   1.019   3.716   9.884 -0.7033  0.6905 -0.5815
 7626TIP3   OH244368   6.504   5.414  12.889 -0.0935  0.0149 -0.5662
 7626TIP3    H144369   6.520   5.373  12.973  1.5964  1.0449 -0.3454
 7626TIP3    H244370   6.441   5.356  12.846 -0.5495 -0.8331  1.1495
 7627TIP3   OH244371   4.953   1.368  12.643 -0.7041  0.3852 -0.3900
 7627TIP3    H144372   4.951   1.425  12.720  1.3968 -0.1276  0.1038
 7627TIP3    H244373   4.944   1.280  12.679 -1.6481  0.2426 -0.9392
 7628TIP3   OH244374   3.603   0.655  11.604 -0.2863 -0.0831  0.0321
 7628TIP3    H144375   3.652   0.586  11.559 -0.1800 -0.3168  0.4936
 7628TIP3    H244376   3.587   0.619  11.692 -2.2966 -0.5147 -0.4675
 7629TIP3   OH244377   7.083   4.855  10.356 -0.0250  0.3017 -0.1625
 7629TIP3    H144378   7.093   4.894  10.443 -2.2558  0.0886  0.2370
 7629TIP3    H244379   7.161   4.883  10.308  0.2768  2.0828  1.2819
 7630TIP3   OH244380   6.118   5.333   2.557 -0.1572  0.3629  0.0895
 7630TIP3    H144381   6.028   5.357   2.576  0.1605  1.2625  0.5036
 7630TIP3    H244382   6.111   5.251   2.508 -1.2854  1.3031 -1.4067
 7631TIP3   OH244383   6.596   5.012  14.471 -0.2027 -0.1484 -0.3810
 7631TIP3    H144384   6.632   4.977  14.389  0.6439 -0.8079  0.2481
 7631TIP3    H244385   6.669   5.058  14.511 -1.4234  2.9879 -1.4529
 7632TIP3   OH244386   0.823   3.808  10.417  0.2637  0.1956 -0.1454
 7632TIP3    H144387   0.732   3.782  10.428  0.0168  0.8854 -0.5197
 7632TIP3    H244388   0.858   3.744  10.355  0.2863 -0.6104  0.6827
 7633TIP3   OH244389   2.382   6.581  10.380  0.3517  0.2837  0.9689
 7633TIP3    H144390   2.476   6.598  10.372  0.4707 -0.7873 -0.2561
 7633TIP3    H244391   2.369   6.555  10.471  1.1074  1.1666  1.3381
 7634TIP3   OH244392   2.113   4.759  12.909  0.1640 -0.1681  0.8094
 7634TIP3    H144393   2.115   4.706  12.989  0.9342 -0.6002  0.5147
 7634TIP3    H244394   2.199   4.746  12.869 -0.1992  0.0621 -0.0760
 7635TIP3   OH244395   6.937   4.160  10.805 -0.1320  0.2691  0.3693
 7635TIP3    H144396   6.975   4.212  10.876 -1.1185 -0.0975  1.1815
 7635TIP3    H244397   6.917   4.225  10.737  2.3013  0.4349 -0.3137
 7636TIP3   OH244398   3.850   2.093  12.612  0.2696  0.1910  0.5316
 7636TIP3    H144399   3.781   2.137  12.561 -0.1540 -0.0515  0.8856
 7636TIP3    H244400   3.932   2.125  12.574 -0.0240 -0.3895 -0.6710
 7637TIP3   OH244401   6.805   3.643  12.620 -0.2210  0.0645  0.5609
 7637TIP3    H144402   6.861   3.667  12.546 -0.5205 -0.3447  0.1977
 7637TIP3    H244403   6.774   3.555  12.599 -0.4475  0.0123  1.0929
 7638TIP3   OH244404   0.527   3.432  10.998  0.2982  0.1282 -0.0510
 7638TIP3    H144405   0.468   3.360  11.016 -0.4712  0.3171 -1.6214
 7638TIP3    H244406   0.585   3.399  10.929 -0.1088  1.0181 -0.8360
 7639TIP3   OH244407   5.109   3.139  10.889  0.2771 -0.6930  0.3265
 7639TIP3    H144408   5.114   3.046  10.914  2.3637 -0.9721 -0.9504
 7639TIP3    H244409   5.167   3.183  10.951  0.3514 -0.4460  0.0813
 7640TIP3   OH244410   0.617   2.796  11.003  0.2417  0.2784 -0.4233
 7640TIP3    H144411   0.555   2.741  10.955 -2.0460  0.8509  1.6759
 7640TIP3    H244412   0.688   2.812  10.940 -0.6388 -2.2045 -2.2240
 7641TIP3   OH244413   7.188   2.454   1.979 -0.7339 -0.6259 -0.2645
 7641TIP3    H144414   7.098   2.473   2.008 -1.3314 -1.0756 -1.6966
 7641TIP3    H244415   7.230   2.540   1.977 -2.1819  0.1341 -2.7513
 7642TIP3   OH244416   1.871   3.901  12.232 -0.2347  0.1623 -0.0388
 7642TIP3    H144417   1.799   3.925  12.291 -0.0642 -0.9389  0.6422
 7642TIP3    H244418   1.835   3.912  12.144 -1.9214 -2.2487  0.2755
 7643TIP3   OH244419   2.083   4.251  13.237  0.1282  0.3021 -0.1763
 7643TIP3    H144420   2.027   4.298  13.298 -2.1215 -1.7559 -0.4909
 7643TIP3    H244421   2.111   4.173  13.285 -0.7428 -0.7673 -1.3361
 7644TIP3   OH244422   6.924   0.716  13.833 -0.2136 -0.3983 -0.1196
 7644TIP3    H144423   6.929   0.779  13.906  0.8510 -2.1724  1.4207
 7644TIP3    H244424   6.871   0.644  13.868 -0.4234 -0.9057 -1.4419
 7645TIP3   OH244425   2.879   3.351   9.454 -0.1134 -0.4124 -0.3061
 7645TIP3    H144426   2.857   3.414   9.523 -0.0031 -3.2096  2.5142
 7645TIP3    H244427   2.975   3.355   9.448 -0.0258 -0.9124  0.5601
 7646TIP3   OH244428   4.953   0.372   0.919  0.3482  0.1384 -0.3626
 7646TIP3    H144429   4.959   0.467   0.928 -0.4403  0.2727 -1.1496
 7646TIP3    H244430   4.960   0.356   0.825  2.0990 -0.7205 -0.1251
 7647TIP3   OH244431   3.164   4.214   0.112 -0.2059  0.2180  0.3648
 7647TIP3    H144432   3.194   4.216   0.203  1.9949 -0.4951 -0.2732
 7647TIP3    H244433   3.176   4.304   0.082  1.3894 -0.0264  0.1510
 7648TIP3   OH244434   1.183   4.445  14.095 -0.8566 -0.7031  0.7609
 7648TIP3    H144435   1.244   4.512  14.123 -1.0550 -1.2125  2.5094
 7648TIP3    H244436   1.237   4.381  14.049 -0.5265  0.1618 -0.0939
 7649TIP3   OH244437   5.589   5.269   0.672 -0.2716 -0.0500  0.0092
 7649TIP3    H144438   5.663   5.283   0.732 -0.3828 -0.3980  0.2340
 7649TIP3    H244439   5.555   5.183   0.696 -0.8275  0.1578 -0.0088
 7650TIP3   OH244440   2.253   7.094  12.120 -0.6038  0.2131 -0.1250
 7650TIP3    H144441   2.191   7.154  12.162 -0.6845  0.0638 -0.0280
 7650TIP3    H244442   2.209   7.009  12.122 -0.6678  0.2344 -0.6465
 7651TIP3   OH244443   6.325   0.266   1.899 -0.8584  0.3306 -0.3721
 7651TIP3    H144444   6.260   0.196   1.908  0.5719 -0.8359  2.1275
 7651TIP3    H244445   6.362   0.275   1.987  3.1121  0.1315 -1.8167
 7652TIP3   OH244446   5.558   7.082  10.663  0.1890  0.7958  0.3683
 7652TIP3    H144447   5.467   7.054  10.663  0.3260  0.2735  1.3923
 7652TIP3    H244448   5.554   7.176  10.683 -0.1151  0.6453  1.0721
 7653TIP3   OH244449   0.950   4.483   2.964  0.0462  0.7079  0.2357
 7653TIP3    H144450   0.870   4.530   2.942 -0.8300 -0.6525  0.4026
 7653TIP3    H244451   0.921   4.409   3.018  1.0405 -1.3967 -1.8930
 7654TIP3   OH244452   3.022   5.462   3.344 -0.2628  0.6536  0.0851
 7654TIP3    H144453   2.981   5.376   3.346  1.0176  0.0173  2.3569
 7654TIP3    H244454   3.021   5.487   3.251 -1.5183 -1.3539 -0.4977
 7655TIP3   OH244455   1.237   0.762  15.010 -0.0055  0.6579 -0.1910
 7655TIP3    H144456   1.280   0.720  14.936  0.4230 -1.4764  1.1519
 7655TIP3    H244457   1.184   0.832  14.972  0.9107  0.2216 -2.3761
 7656TIP3   OH244458   6.745   2.085  13.736 -0.2100 -0.4916 -0.4602
 7656TIP3    H144459   6.687   2.012  13.759 -0.5571 -0.5158 -1.3655
 7656TIP3    H244460   6.702   2.127  13.662 -0.7826  1.5876  0.9848
 7657TIP3   OH244461   3.202   1.576   0.759  0.3795 -0.2871 -0.4785
 7657TIP3    H144462   3.177   1.595   0.669 -0.8396 -2.2705 -0.6185
 7657TIP3    H244463   3.190   1.659   0.806 -0.7132  0.3177 -1.7772
 7658TIP3   OH244464   4.316   3.629   1.251  0.1379  0.6691  0.7077
 7658TIP3    H144465   4.224   3.619   1.273  0.2224  0.9967  1.2108
 7658TIP3    H244466   4.328   3.573   1.174 -0.7137  1.4203  0.0056
 7659TIP3   OH244467   2.074   0.265   0.695 -0.5894 -0.0917  0.4476
 7659TIP3    H144468   2.099   0.181   0.733  2.5818  0.6877  0.4069
 7659TIP3    H244469   2.069   0.325   0.769  1.2868  0.4894  0.1685
 7660TIP3   OH244470   2.881   5.615  12.149 -0.1300 -0.1725 -0.4335
 7660TIP3    H144471   2.792   5.606  12.181 -0.5199  0.1989 -1.3671
 7660TIP3    H244472   2.923   5.532  12.171 -0.0574  0.3950  1.8624
 7661TIP3   OH244473   3.299   3.200  10.045 -0.2056  0.7219  0.1290
 7661TIP3    H144474   3.251   3.125  10.079  0.9525 -0.5041 -0.8224
 7661TIP3    H244475   3.236   3.246   9.990 -0.2580 -1.0505 -1.3854
 7662TIP3   OH244476   4.599   4.733   2.021  0.0683  0.1965  0.3558
 7662TIP3    H144477   4.532   4.773   2.076 -0.6700 -0.9041  0.3040
 7662TIP3    H244478   4.681   4.773   2.048 -0.4448  0.5723  1.3855
 7663TIP3   OH244479   5.656   5.848   3.584  0.0292 -0.3572  0.3533
 7663TIP3    H144480   5.601   5.771   3.574 -3.4830  1.8044  1.1631
 7663TIP3    H244481   5.674   5.877   3.495 -1.5442 -0.2847  0.0311
 7664TIP3   OH244482   6.241   3.175   9.494 -0.5017 -0.3300  0.2836
 7664TIP3    H144483   6.150   3.180   9.466 -0.0542  3.5132 -1.0105
 7664TIP3    H244484   6.261   3.262   9.527  2.8562 -0.8826  0.0754
 7665TIP3   OH244485   0.110   1.230  14.185 -0.2514  0.1801  0.3468
 7665TIP3    H144486   0.100   1.250  14.092 -0.3579  0.8502  0.5032
 7665TIP3    H244487   0.032   1.179  14.207 -0.3617  0.2609  0.1414
 7666TIP3   OH244488   5.034   2.087   0.643  0.4013 -0.2926 -0.0347
 7666TIP3    H144489   4.952   2.039   0.651 -0.5456  0.7580 -2.6418
 7666TIP3    H244490   5.080   2.068   0.725 -1.8620 -1.9214  0.9717
 7667TIP3   OH244491   2.748   4.268   2.715  0.2538  0.5452 -0.1645
 7667TIP3    H144492   2.685   4.309   2.656 -1.3768 -1.0452  0.3512
 7667TIP3    H244493   2.796   4.206   2.660 -0.1293  0.2394 -0.1598
 7668TIP3   OH244494   6.660   7.237   3.527 -0.0885 -0.0472  0.2070
 7668TIP3    H144495   6.735   7.177   3.533 -1.5364 -2.1390 -1.4699
 7668TIP3    H244496   6.687   7.302   3.461  0.6010 -0.1855  0.3392
 7669TIP3   OH244497   7.098   5.600   0.263  0.0465  0.0170 -0.1548
 7669TIP3    H144498   7.013   5.598   0.218  0.3833  0.5826 -0.8277
 7669TIP3    H244499   7.145   5.672   0.222 -0.4913  2.1636  2.6874
 7670TIP3   OH244500   1.673   4.967  10.427 -0.7196 -0.2104  0.4852
 7670TIP3    H144501   1.681   4.871  10.429 -0.3053 -0.2081 -0.6595
 7670TIP3    H244502   1.762   4.998  10.443  0.0744 -0.0987 -3.2837
 7671TIP3   OH244503   3.335   1.548  14.036 -0.7676  0.3757 -0.1292
 7671TIP3    H144504   3.397   1.617  14.060 -0.6038  0.3196 -0.3839
 7671TIP3    H244505   3.358   1.526  13.946 -2.7462  2.0908 -1.1345
 7672TIP3   OH244506   6.858   1.398  12.162  0.7885 -0.2134 -0.4321
 7672TIP3    H144507   6.794   1.388  12.092  1.1521  2.2047 -1.2055
 7672TIP3    H244508   6.821   1.467  12.218  0.5048 -2.0681  1.8232
 7673TIP3   OH244509   1.570   3.748  12.102  0.2270  0.0048 -0.4144
 7673TIP3    H144510   1.656   3.708  12.093  0.1988  0.1800 -1.5462
 7673TIP3    H244511   1.569   3.783  12.191  0.2231 -2.5544  0.6775
 7674TIP3   OH244512   2.206   1.316  10.554 -0.5410 -0.5608  0.2018
 7674TIP3    H144513   2.199   1.407  10.583 -1.2959 -0.4159 -0.4146
 7674TIP3    H244514   2.117   1.291  10.530 -0.1695 -1.1248 -0.6366
 7675TIP3   OH244515   7.078   2.961  13.880 -0.3723 -0.9141  0.4958
 7675TIP3    H144516   7.055   2.966  13.787  0.3695  1.1113  0.3633
 7675TIP3    H244517   7.172   2.941  13.881 -0.4100 -1.0879  0.8146
 7676TIP3   OH244518   5.446   4.715  10.315 -0.5479  0.3034  0.4687
 7676TIP3    H144519   5.500   4.792  10.332 -0.9832  0.2506  2.2428
 7676TIP3    H244520   5.509   4.647  10.293 -0.0729  0.8473  0.1135
 7677TIP3   OH244521   5.928   5.478   1.010  0.2339  0.4859  0.5717
 7677TIP3    H144522   5.917   5.566   0.974 -1.4055  1.1050  2.4042
 7677TIP3    H244523   5.964   5.492   1.098  0.3107 -0.6919  0.7442
 7678TIP3   OH244524   2.970   3.719   9.482  0.1496 -0.0765  0.2083
 7678TIP3    H144525   3.002   3.643   9.530  0.8284 -0.2250 -0.4534
 7678TIP3    H244526   2.950   3.686   9.395 -1.7198  0.0475  0.5597
 7679TIP3   OH244527   0.677   2.028   1.740  0.2824  0.2589 -0.2372
 7679TIP3    H144528   0.757   1.995   1.780 -0.8126 -1.4994  0.6296
 7679TIP3    H244529   0.607   1.992   1.794 -1.1122  1.5112 -1.1475
 7680TIP3   OH244530   7.236   4.568  11.678  0.5446 -0.5831 -0.1143
 7680TIP3    H144531   7.245   4.622  11.599  1.8891  0.5383  0.7634
 7680TIP3    H244532   7.315   4.586  11.728 -0.3741 -1.1094  1.5942
 7681TIP3   OH244533   3.037   2.862   0.396  0.1426  0.0247  0.3511
 7681TIP3    H144534   2.959   2.838   0.347  0.6534  0.0497 -0.4987
 7681TIP3    H244535   3.078   2.778   0.418  0.3730  0.0309 -0.0407
 7682TIP3   OH244536   2.448   3.164  11.796 -0.1170 -0.1288 -0.2385
 7682TIP3    H144537   2.415   3.132  11.880 -0.5109 -0.6000 -0.5690
 7682TIP3    H244538   2.490   3.088  11.756  0.8546  0.3144 -0.0877
 7683TIP3   OH244539   4.762   1.781  11.397  0.3041  0.1562  0.6594
 7683TIP3    H144540   4.755   1.807  11.305  1.9042  0.1088  0.5094
 7683TIP3    H244541   4.681   1.732  11.414  0.8671 -1.5762 -1.3022
 7684TIP3   OH244542   3.874   0.206   2.507  0.4486  0.1310  0.0360
 7684TIP3    H144543   3.784   0.180   2.489  0.1596  1.5181 -0.7257
 7684TIP3    H244544   3.927   0.131   2.480 -0.3975 -0.1762 -0.8424
 7685TIP3   OH244545   5.286   2.113  10.207  0.3610 -0.1392 -0.3685
 7685TIP3    H144546   5.263   2.054  10.279 -1.4099  0.7592 -0.1422
 7685TIP3    H244547   5.316   2.054  10.137 -0.6338 -1.2648  0.1100
 7686TIP3   OH244548   2.766   3.813  14.886 -0.2287 -0.6746 -0.0514
 7686TIP3    H144549   2.710   3.735  14.898 -0.2132 -0.9244 -1.4416
 7686TIP3    H244550   2.774   3.822  14.791  0.7701  0.3283  0.1125
 7687TIP3   OH244551   4.441   3.764   4.429 -0.1396 -0.5936 -0.6064
 7687TIP3    H144552   4.388   3.805   4.498  0.2961 -0.7489 -0.1739
 7687TIP3    H244553   4.505   3.830   4.404 -0.1638 -0.6123 -0.7204
 7688TIP3   OH244554   1.760   2.337   0.925  0.5028 -0.1278  0.0675
 7688TIP3    H144555   1.674   2.340   0.967 -0.6811  0.1198 -2.1889
 7688TIP3    H244556   1.809   2.408   0.967 -1.0543  0.9658  0.1440
 7689TIP3   OH244557   4.709   0.166   2.722  0.3116  0.3393 -0.1334
 7689TIP3    H144558   4.757   0.224   2.662 -1.9032  1.7119 -0.7047
 7689TIP3    H244559   4.692   0.220   2.799  0.1722 -0.2996  0.2931
 7690TIP3   OH244560   5.939   0.615  14.643  0.0811 -0.6054  0.0134
 7690TIP3    H144561   6.013   0.576  14.689 -0.7798 -2.8261 -0.3286
 7690TIP3    H244562   5.864   0.599  14.701 -0.1582  1.9092  0.5200
 7691TIP3   OH244563   6.582   2.390  12.562 -0.1841  0.1385 -0.1463
 7691TIP3    H144564   6.499   2.388  12.514 -0.3118 -2.0868  0.0514
 7691TIP3    H244565   6.565   2.339  12.641  1.6120 -1.2860 -0.6051
 7692TIP3   OH244566   3.708   3.077   2.365 -0.2075  0.2143 -0.0531
 7692TIP3    H144567   3.632   3.133   2.353 -0.6257 -0.2204  0.5056
 7692TIP3    H244568   3.723   3.077   2.460  0.1490 -0.1386 -0.1069
 7693TIP3   OH244569   5.469   3.883   4.382  0.0913  0.0878  0.2037
 7693TIP3    H144570   5.472   3.933   4.301 -4.1428 -1.6745 -1.3236
 7693TIP3    H244571   5.492   3.794   4.356 -0.0397 -0.2576  1.2228
 7694TIP3   OH244572   4.623   1.804   0.832 -0.0642  0.0387  0.0047
 7694TIP3    H144573   4.624   1.717   0.873 -2.1092  0.2755  0.7215
 7694TIP3    H244574   4.543   1.844   0.867 -0.1281  1.5101 -1.7463
 7695TIP3   OH244575   1.616   0.978  10.836 -0.3295 -0.0156 -0.0546
 7695TIP3    H144576   1.659   0.942  10.758 -0.5131 -4.0712  1.4454
 7695TIP3    H244577   1.530   0.937  10.836 -1.0859  1.4636  1.3123
 7696TIP3   OH244578   3.233   4.643   2.851 -0.2680  0.0310  0.0493
 7696TIP3    H144579   3.262   4.638   2.942  0.6961 -0.5689 -0.2688
 7696TIP3    H244580   3.150   4.595   2.850 -1.0124  1.2356  0.8634
 7697TIP3   OH244581   5.447   3.055  13.971  0.8324  0.9199  0.8552
 7697TIP3    H144582   5.512   3.010  14.025  2.4828  1.3482 -0.6850
 7697TIP3    H244583   5.496   3.125  13.928  0.3138 -0.9601 -3.2456
 7698TIP3   OH244584   1.467   2.596  15.184  0.5861 -0.1689 -0.6497
 7698TIP3    H144585   1.395   2.540  15.155  0.1367 -1.4409  2.4840
 7698TIP3    H244586   1.509   2.546  15.254  2.3062  2.0432  0.0210
 7699TIP3   OH244587   1.780   3.897  12.967  1.1687  0.2730  0.2703
 7699TIP3    H144588   1.737   3.854  13.041  0.2938  1.8323  0.7194
 7699TIP3    H244589   1.764   3.839  12.892  1.3478 -0.9077  1.1182
 7700TIP3   OH244590   0.365   5.364  11.844  0.2045 -0.0752  0.2864
 7700TIP3    H144591   0.386   5.421  11.918 -0.7667 -0.9364  1.2628
 7700TIP3    H244592   0.312   5.418  11.786 -0.8575 -0.0079  1.2860
 7701TIP3   OH244593   1.847   4.380  12.481 -0.0821  0.0723  0.1590
 7701TIP3    H144594   1.866   4.301  12.531  0.1147 -0.9712 -1.4558
 7701TIP3    H244595   1.784   4.351  12.415 -0.3139  1.3672 -0.2059
 7702TIP3   OH244596   3.732   3.493  13.342  0.0381  0.4354 -0.0026
 7702TIP3    H144597   3.793   3.477  13.270  0.9437  2.3239  0.2744
 7702TIP3    H244598   3.657   3.536  13.300  0.3628  1.1095  0.0867
 7703TIP3   OH244599   0.599   5.673   4.457  0.2449 -0.3205 -0.7262
 7703TIP3    H144600   0.634   5.714   4.537 -0.7689 -2.4056  0.9072
 7703TIP3    H244601   0.674   5.627   4.420  0.5422  0.0017 -0.5448
 7704TIP3   OH244602   1.627   3.970   3.790 -0.3447  0.3233 -0.5441
 7704TIP3    H144603   1.651   3.927   3.708 -0.5851 -1.0106  0.0484
 7704TIP3    H244604   1.532   3.965   3.793 -0.4051  1.2917 -0.6564
 7705TIP3   OH244605   7.001   6.102  12.315 -0.6879 -0.4624 -0.2490
 7705TIP3    H144606   7.045   6.023  12.345 -0.4592 -0.0572  0.4931
 7705TIP3    H244607   6.908   6.078  12.312 -0.6863 -0.5888  0.5351
 7706TIP3   OH244608   5.907   0.037   9.632  0.0351 -0.2657  0.5523
 7706TIP3    H144609   5.941   0.017   9.544  0.6913  0.5126  0.6127
 7706TIP3    H244610   5.814   0.014   9.627 -0.2788  1.0966 -0.8167
 7707TIP3   OH244611   6.354   5.126   4.439 -0.2524 -0.6606 -0.7167
 7707TIP3    H144612   6.269   5.134   4.482 -0.6293 -0.2571 -1.5059
 7707TIP3    H244613   6.416   5.159   4.503 -0.7745 -0.2869 -0.3913
 7708TIP3   OH244614   6.191   5.391  13.681  0.5174 -0.0043  0.0162
 7708TIP3    H144615   6.145   5.451  13.624 -1.9364 -3.1084 -1.5978
 7708TIP3    H244616   6.259   5.351  13.626  0.6717 -0.2866  0.3978
 7709TIP3   OH244617   5.148   0.517  10.509  0.3297 -0.5839  0.3747
 7709TIP3    H144618   5.204   0.551  10.579 -0.8494 -0.6241  1.3705
 7709TIP3    H244619   5.119   0.595  10.462  2.2545 -0.6373 -1.0114
 7710TIP3   OH244620   4.966   2.383   4.170  0.6040  0.0256 -0.0548
 7710TIP3    H144621   4.914   2.462   4.185  0.1938 -0.3157  0.3284
 7710TIP3    H244622   4.942   2.324   4.242  0.6354 -0.5899 -0.5416
 7711TIP3   OH244623   4.918   2.908  10.081  0.1742  0.2301 -0.0282
 7711TIP3    H144624   4.988   2.892  10.017 -0.3239 -0.2970 -0.4529
 7711TIP3    H244625   4.839   2.877  10.038 -0.0895 -0.7145  1.0645
 7712TIP3   OH244626   3.258   5.354   4.888 -0.2600 -0.3794 -0.6582
 7712TIP3    H144627   3.280   5.442   4.917  0.7905 -0.8303 -0.0494
 7712TIP3    H244628   3.201   5.367   4.812  0.9961  0.8374 -1.4367
 7713TIP3   OH244629   4.332   0.997   4.239  0.0282 -0.3447  0.0358
 7713TIP3    H144630   4.274   0.925   4.215 -1.4915  0.5667  0.8666
 7713TIP3    H244631   4.346   1.045   4.157  1.6552 -1.9233 -0.6961
 7714TIP3   OH244632   5.435   5.814   1.164  0.1854 -0.2891 -0.4428
 7714TIP3    H144633   5.361   5.807   1.103  1.3101  1.0378 -2.0584
 7714TIP3    H244634   5.486   5.887   1.131  1.5968 -0.3915  1.3541
 7715TIP3   OH244635   4.748   2.937  14.521 -0.5714  0.0146  0.0750
 7715TIP3    H144636   4.681   3.006  14.517 -2.2799 -1.5572  0.3076
 7715TIP3    H244637   4.712   2.873  14.582  1.3413 -0.7312  0.4802
 7716TIP3   OH244638   6.623   3.498   0.303 -0.8827  0.1585 -0.7235
 7716TIP3    H144639   6.630   3.482   0.209 -0.9210 -0.7200 -0.5839
 7716TIP3    H244640   6.655   3.418   0.343  2.3520  1.6981  0.0821
 7717TIP3   OH244641   6.682   5.861  13.285 -0.3897 -0.8325 -0.2369
 7717TIP3    H144642   6.671   5.859  13.381 -1.2540 -0.3292 -0.3089
 7717TIP3    H244643   6.772   5.832  13.270  0.4580  1.0764  0.8449
 7718TIP3   OH244644   1.022   6.673  12.834 -0.2918 -0.3719 -0.0871
 7718TIP3    H144645   0.927   6.676  12.839 -0.2158  0.5634  1.6867
 7718TIP3    H244646   1.050   6.655  12.924  1.2191 -0.1343 -0.4796
 7719TIP3   OH244647   1.329   3.147   0.418  0.9841  0.2733 -0.6116
 7719TIP3    H144648   1.238   3.123   0.437  0.1360  3.7271  0.3372
 7719TIP3    H244649   1.364   3.070   0.372 -0.9093 -3.1607  3.0555
 7720TIP3   OH244650   3.916   6.189  13.101  0.3567 -0.8670 -0.3014
 7720TIP3    H144651   3.991   6.241  13.129 -0.1418 -0.9588  1.2740
 7720TIP3    H244652   3.871   6.243  13.037  0.3741  0.2555  0.6085
 7721TIP3   OH244653   5.116   6.938  14.726 -0.0907  0.4255  0.3369
 7721TIP3    H144654   5.070   6.859  14.756 -0.4692  0.5184  0.0133
 7721TIP3    H244655   5.123   6.927  14.631  1.9834 -0.3397  0.5351
 7722TIP3   OH244656   6.006   6.675  10.005 -0.7630  0.1595  0.0325
 7722TIP3    H144657   6.023   6.644   9.916  1.3051 -0.3019  0.5273
 7722TIP3    H244658   6.022   6.599  10.061 -2.3997  0.3464  0.7967
 7723TIP3   OH244659   4.957   4.670  15.255 -0.3101 -0.4540 -0.4502
 7723TIP3    H144660   4.943   4.594  15.310  2.1333  0.5519  1.8199
 7723TIP3    H244661   4.874   4.717  15.256 -1.2060 -2.0032 -0.1456
 7724TIP3   OH244662   4.372   0.834  14.420 -0.4868  0.4656  0.6464
 7724TIP3    H144663   4.461   0.811  14.393  0.0427  1.3708  1.5476
 7724TIP3    H244664   4.373   0.825  14.515 -2.3551 -2.8427  0.5213
 7725TIP3   OH244665   0.858   2.905   2.387 -0.3802  0.5000  0.0987
 7725TIP3    H144666   0.831   2.974   2.448 -0.8270 -1.5898  2.4085
 7725TIP3    H244667   0.831   2.823   2.429  0.3261 -1.1469 -2.4128
 7726TIP3   OH244668   4.289   3.311   0.465  0.7524 -0.5366 -0.2223
 7726TIP3    H144669   4.215   3.326   0.406  1.1270  0.0710 -0.5460
 7726TIP3    H244670   4.249   3.286   0.548  0.1716  0.1617 -0.2866
 7727TIP3   OH244671   6.451   5.713   3.056 -0.3350 -0.0902 -0.4542
 7727TIP3    H144672   6.450   5.808   3.052  2.6354  0.0537 -0.2290
 7727TIP3    H244673   6.422   5.685   2.970 -1.7351  0.9653 -0.3621
 7728TIP3   OH244674   0.729   6.163  11.001 -0.3901  0.1389  0.6064
 7728TIP3    H144675   0.683   6.138  10.921 -0.4964  1.6826  0.1614
 7728TIP3    H244676   0.753   6.079  11.042  1.6580 -0.7652 -2.1223
 7729TIP3   OH244677   2.104   0.841  12.980  0.1171  0.4800  0.1530
 7729TIP3    H144678   2.189   0.806  12.952 -0.3059 -0.5848  0.1728
 7729TIP3    H244679   2.118   0.935  12.986  0.9069  0.4857 -1.2750
 7730TIP3   OH244680   4.968   6.394   1.946 -0.3408 -0.0651 -0.1554
 7730TIP3    H144681   5.057   6.429   1.947 -0.8747  1.4253  1.8708
 7730TIP3    H244682   4.917   6.457   1.997 -2.7142 -0.5182 -1.7901
 7731TIP3   OH244683   1.011   2.258   1.682 -1.1211 -0.0795 -0.3298
 7731TIP3    H144684   0.955   2.301   1.617 -0.2074 -0.2676 -1.2833
 7731TIP3    H244685   1.087   2.315   1.689 -1.4411  0.2084  0.9968
 7732TIP3   OH244686   5.869   5.249  14.754  0.1964 -0.0241  0.1905
 7732TIP3    H144687   5.811   5.201  14.695 -0.4443 -0.1603  0.9246
 7732TIP3    H244688   5.950   5.261  14.703 -0.2722 -0.3150 -0.6352
 7733TIP3   OH244689   4.029   4.448  14.690 -0.2105  0.3631  0.4717
 7733TIP3    H144690   3.934   4.456  14.699 -0.5296 -1.9353 -0.2852
 7733TIP3    H244691   4.052   4.372  14.743  0.8171 -0.6219 -1.3064
 7734TIP3   OH244692   5.120   1.656  12.358 -0.6056  0.3364 -0.1776
 7734TIP3    H144693   5.138   1.689  12.446 -0.3487 -1.3490  0.4460
 7734TIP3    H244694   5.202   1.616  12.330 -1.1795 -0.6930 -0.4494
 7735TIP3   OH244695   1.493   4.247   5.362 -0.4173 -0.3511  0.1353
 7735TIP3    H144696   1.432   4.208   5.425  0.6601 -1.0948  0.7630
 7735TIP3    H244697   1.575   4.201   5.378 -0.1721 -0.7521 -2.0140
 7736TIP3   OH244698   2.200   5.652   3.376  0.4288 -0.2739  0.1533
 7736TIP3    H144699   2.110   5.680   3.395  1.5500  2.1499  2.6944
 7736TIP3    H244700   2.204   5.562   3.409 -0.8514 -0.1222  0.8035
 7737TIP3   OH244701   6.327   5.156  14.667  0.3207  0.1221  0.6461
 7737TIP3    H144702   6.310   5.095  14.595  0.0739  0.3523  0.5098
 7737TIP3    H244703   6.240   5.180  14.699  0.4311 -0.5648  1.5190
 7738TIP3   OH244704   3.360   2.784  10.257  0.0824  0.2241  0.3234
 7738TIP3    H144705   3.360   2.690  10.239  0.3885  0.1620  0.6328
 7738TIP3    H244706   3.452   2.805  10.272 -0.0303  0.4931  0.6452
 7739TIP3   OH244707   3.461   3.254  14.966 -0.1000 -0.2485  0.6273
 7739TIP3    H144708   3.471   3.159  14.975 -0.9137 -0.2373  1.8823
 7739TIP3    H244709   3.367   3.267  14.955 -0.1639  0.4895  1.8518
 7740TIP3   OH244710   4.098   3.139  15.128 -0.3728 -0.1556 -0.1506
 7740TIP3    H144711   4.007   3.168  15.122 -0.7221 -1.0748  0.4103
 7740TIP3    H244712   4.097   3.051  15.091  0.4086  0.0478 -0.6670
 7741TIP3   OH244713   2.669   6.781   9.629  0.2740  0.1786  0.4096
 7741TIP3    H144714   2.603   6.723   9.591 -0.4323  1.1598  0.1008
 7741TIP3    H244715   2.618   6.841   9.685  0.9014  0.9046  0.2176
 7742TIP3   OH244716   0.687   5.283   3.368 -0.2593  0.2070  0.0225
 7742TIP3    H144717   0.756   5.272   3.433 -0.3135  1.7233  0.3769
 7742TIP3    H244718   0.643   5.199   3.365  0.4555 -0.2272  1.1342
 7743TIP3   OH244719   0.525   3.171  14.654  0.2898 -0.1985  0.2535
 7743TIP3    H144720   0.593   3.205  14.596 -0.1656  0.8387  0.3037
 7743TIP3    H244721   0.563   3.091  14.691  0.5011 -1.0071 -1.6278
 7744TIP3   OH244722   2.629   1.567  14.677 -0.6994 -0.1628 -0.2275
 7744TIP3    H144723   2.670   1.491  14.636 -0.1607  0.6528 -1.2481
 7744TIP3    H244724   2.605   1.537  14.764  0.1828 -1.2822 -0.3437
 7745TIP3   OH244725   1.820   4.706   0.417 -0.4494 -0.2098 -0.9224
 7745TIP3    H144726   1.889   4.652   0.377 -0.5898 -0.1297 -1.2775
 7745TIP3    H244727   1.846   4.714   0.509  0.6886  0.8627 -1.3105
 7746TIP3   OH244728   4.333   6.667  10.561 -0.4988  0.2500 -0.1760
 7746TIP3    H144729   4.408   6.723  10.540  0.7119 -1.5722 -1.0480
 7746TIP3    H244730   4.370   6.596  10.614 -1.5400 -0.8120 -0.8046
 7747TIP3   OH244731   5.386   0.202  12.016  0.0849 -0.1446  0.2730
 7747TIP3    H144732   5.394   0.199  12.111  1.7455  0.5412  0.1852
 7747TIP3    H244733   5.358   0.114  11.991  0.8432 -0.6913  1.2968
 7748TIP3   OH244734   5.795   0.006   2.493  0.1157 -0.0235 -0.1611
 7748TIP3    H144735   5.875   0.050   2.464  1.0436 -0.5388  1.4454
 7748TIP3    H244736   5.725   0.068   2.474  0.9937  0.7898 -0.8690
 7749TIP3   OH244737   6.179   4.123   3.690 -0.4113 -0.4549 -0.3481
 7749TIP3    H144738   6.094   4.135   3.733 -0.2783 -0.5938 -0.0434
 7749TIP3    H244739   6.212   4.212   3.677 -0.8878 -0.3702 -1.0492
 7750TIP3   OH244740   3.964   5.420  11.893  0.0534 -0.8498  0.4333
 7750TIP3    H144741   3.885   5.425  11.839  1.5446  2.3973 -1.8296
 7750TIP3    H244742   4.033   5.456  11.837  2.6132 -1.1190  3.1770
 7751TIP3   OH244743   6.012   3.485  14.163 -0.3064  0.1617 -0.1927
 7751TIP3    H144744   6.065   3.443  14.095 -0.4103 -0.8944  0.3555
 7751TIP3    H244745   5.965   3.414  14.204 -1.9391  1.0520 -0.4441
 7752TIP3   OH244746   6.737   0.021  10.920 -0.1863 -0.1262 -0.1153
 7752TIP3    H144747   6.645  -0.003  10.907  0.3677 -2.4589 -0.1752
 7752TIP3    H244748   6.766  -0.033  10.993  1.2439  0.3434 -0.2999
 7753TIP3   OH244749   4.418   5.337   0.722 -0.3802 -0.2059 -0.2816
 7753TIP3    H144750   4.380   5.411   0.675  1.5178  0.3115 -1.0984
 7753TIP3    H244751   4.416   5.264   0.660  1.7615  0.3732 -1.1161
 7754TIP3   OH244752   2.693   1.714   0.462 -0.2538 -0.4666 -0.4152
 7754TIP3    H144753   2.603   1.690   0.440 -0.4948 -0.5210  0.5560
 7754TIP3    H244754   2.742   1.702   0.381 -1.3844  0.9319 -1.3646
 7755TIP3   OH244755   2.026   1.226   5.554  0.0124 -0.0363 -0.1187
 7755TIP3    H144756   2.101   1.176   5.586 -0.9509 -1.1412  0.4705
 7755TIP3    H244757   1.967   1.161   5.518 -0.7025  0.8137 -0.5218
 7756TIP3   OH244758   0.750   6.379  12.383 -0.6097  0.3172  0.1619
 7756TIP3    H144759   0.679   6.440  12.364 -0.7430 -0.2062 -1.1682
 7756TIP3    H244760   0.819   6.433  12.422 -1.0592  1.1548 -0.1831
 7757TIP3   OH244761   0.351   5.592   3.681  0.5189 -0.1579 -0.0737
 7757TIP3    H144762   0.444   5.570   3.677  0.5619 -0.2234  1.0519
 7757TIP3    H244763   0.340   5.637   3.765 -0.4097  0.1239 -0.3300
 7758TIP3   OH244764   4.801   4.994   1.635 -0.5190  0.0851  0.3022
 7758TIP3    H144765   4.802   5.077   1.588  2.2716  0.0125  0.0665
 7758TIP3    H244766   4.734   4.942   1.591 -2.2706  2.1296  0.4069
 7759TIP3   OH244767   5.057   5.151  11.102  0.1396 -0.0000 -0.2024
 7759TIP3    H144768   4.979   5.182  11.147 -0.0029 -0.3403 -0.2120
 7759TIP3    H244769   5.126   5.154  11.168 -0.0439 -0.3858  0.0139
 7760TIP3   OH244770   3.060   4.904  12.338 -0.0317 -0.1341  0.0516
 7760TIP3    H144771   3.011   4.834  12.295  0.0406  0.8592 -1.7460
 7760TIP3    H244772   3.132   4.859  12.383 -0.7508 -1.3144  0.0595
 7761TIP3   OH244773   4.047   2.792  11.412  0.2995 -0.4787  0.5690
 7761TIP3    H144774   4.029   2.699  11.398  0.6645 -0.3385 -1.0077
 7761TIP3    H244775   4.069   2.826  11.325 -0.4131  1.2178  1.0019
 7762TIP3   OH244776   3.504   0.799   0.099 -0.5082 -0.0334  0.3190
 7762TIP3    H144777   3.531   0.877   0.148  1.2940  0.2492 -1.0295
 7762TIP3    H244778   3.408   0.800   0.104 -0.4651  1.0461  2.1402
 7763TIP3   OH244779   6.896   6.930   0.822 -0.1937 -0.5697  0.1669
 7763TIP3    H144780   6.808   6.930   0.784 -0.2504 -2.0158  0.2374
 7763TIP3    H244781   6.928   7.019   0.810 -0.2675 -0.8768 -3.1613
 7764TIP3   OH244782   4.529   3.721  12.428  0.3923 -0.0844  0.8751
 7764TIP3    H144783   4.436   3.732  12.409  0.6757  0.9233 -0.0313
 7764TIP3    H244784   4.532   3.697  12.521 -0.8666 -2.1354  0.4558
 7765TIP3   OH244785   5.620   5.401   1.431 -0.3328  0.5088 -0.3751
 7765TIP3    H144786   5.660   5.317   1.406 -1.7116 -0.3671  0.2211
 7765TIP3    H244787   5.565   5.424   1.356 -0.7623  0.3384 -0.1134
 7766TIP3   OH244788   3.400   1.757   1.993 -0.3356 -0.5979  0.2672
 7766TIP3    H144789   3.493   1.781   1.996 -1.0736  2.6734  0.2185
 7766TIP3    H244790   3.379   1.731   2.082  0.3633 -0.1912  0.5577
 7767TIP3   OH244791   4.550   4.903  14.798  0.0254  0.1938 -0.6070
 7767TIP3    H144792   4.490   4.903  14.723  0.7178 -0.1236 -1.1667
 7767TIP3    H244793   4.550   4.812  14.829  1.4676 -0.2011 -1.6444
 7768TIP3   OH244794   3.803   5.096   2.979 -0.4822  0.4935 -0.0865
 7768TIP3    H144795   3.736   5.029   2.969 -0.2553  0.3703 -0.8112
 7768TIP3    H244796   3.833   5.114   2.890 -0.1611  1.1696  0.1512
 7769TIP3   OH244797   5.961   2.882  10.886  0.1107  0.0131  0.1818
 7769TIP3    H144798   5.931   2.829  10.812  2.2701 -0.5984 -0.3210
 7769TIP3    H244799   5.926   2.969  10.870 -0.0943 -0.3027 -1.1610
 7770TIP3   OH244800   1.797   1.103  11.333 -0.0464 -0.5334 -0.0955
 7770TIP3    H144801   1.726   1.149  11.290  1.4635  2.2243  0.1487
 7770TIP3    H244802   1.808   1.148  11.417  2.3723 -0.3990 -0.4071
 7771TIP3   OH244803   5.169   3.545  14.737 -0.3233  0.4680 -0.6777
 7771TIP3    H144804   5.150   3.465  14.688 -0.6310  0.7393 -1.0122
 7771TIP3    H244805   5.179   3.613  14.669 -1.3130  0.9635 -0.3550
 7772TIP3   OH244806   2.323   1.546   1.422 -0.0886 -0.1361 -0.3523
 7772TIP3    H144807   2.321   1.452   1.407  0.2088 -0.0729 -0.8198
 7772TIP3    H244808   2.239   1.566   1.462 -0.6642 -0.4215 -1.3840
 7773TIP3   OH244809   3.290   1.040  11.773 -0.4852  0.2749 -0.3081
 7773TIP3    H144810   3.262   1.004  11.689  0.4322  1.7651 -1.2904
 7773TIP3    H244811   3.254   1.129  11.775 -1.1027  0.0207  1.2160
 7774TIP3   OH244812   4.049   0.403  11.049  0.2876  0.4387 -0.1726
 7774TIP3    H144813   3.994   0.364  10.981 -0.9482  0.2146  0.9003
 7774TIP3    H244814   4.137   0.370  11.031 -0.5318 -2.2121  0.1533
 7775TIP3   OH244815   4.078   4.185  10.071 -0.0463 -0.2511 -0.2088
 7775TIP3    H144816   4.012   4.143  10.016 -1.5836  2.0746 -0.2745
 7775TIP3    H244817   4.140   4.222  10.008  1.0818 -1.9138 -0.1582
 7776TIP3   OH244818   3.785   3.618   4.964  0.4310  0.7591  0.1751
 7776TIP3    H144819   3.760   3.599   5.055 -2.6538 -0.6695 -0.8384
 7776TIP3    H244820   3.876   3.588   4.958  0.1890 -0.6988  2.3564
 7777TIP3   OH244821   6.961   6.150   0.847  0.1593  0.4647 -0.2918
 7777TIP3    H144822   7.047   6.179   0.877  0.6169 -0.1693 -0.9535
 7777TIP3    H244823   6.959   6.173   0.754 -0.2002  0.0708 -0.3871
 7778TIP3   OH244824   1.105   2.815  11.669 -0.1144  0.1173 -0.1725
 7778TIP3    H144825   1.066   2.829  11.755  2.2902  0.8249  0.8757
 7778TIP3    H244826   1.141   2.901  11.644 -0.1004 -0.2561 -1.5416
 7779TIP3   OH244827   0.834   4.818   0.025 -0.2570  0.3819 -0.2545
 7779TIP3    H144828   0.903   4.875   0.058  0.3968 -1.2555  1.4117
 7779TIP3    H244829   0.877   4.764  -0.041 -0.0504 -0.2622  0.3907
 7780TIP3   OH244830   3.303   0.609   2.847  0.2113 -0.0706 -0.3026
 7780TIP3    H144831   3.246   0.533   2.842  0.8059 -0.5423 -0.0751
 7780TIP3    H244832   3.296   0.650   2.761  2.0883 -2.0177 -1.5018
 7781TIP3   OH244833   2.849   3.025   9.967  0.6595 -0.2809  0.0792
 7781TIP3    H144834   2.850   3.066   9.881 -0.9319  0.4422  0.3658
 7781TIP3    H244835   2.870   3.097  10.028 -0.1348 -0.3447  0.4317
 7782TIP3   OH244836   2.633   6.148  14.746 -0.1340  0.0530  0.2471
 7782TIP3    H144837   2.617   6.228  14.796 -0.8130  2.1006 -2.9966
 7782TIP3    H244838   2.551   6.129  14.701  0.8962 -0.6314 -1.4703
 7783TIP3   OH244839   1.136   6.859   3.664 -0.2064  0.2662 -0.1627
 7783TIP3    H144840   1.186   6.941   3.665 -1.5745  1.1113  0.2397
 7783TIP3    H244841   1.061   6.877   3.607 -1.7350  0.0374  1.7110
 7784TIP3   OH244842   6.692   1.873  11.034 -0.3167  0.5275  0.2007
 7784TIP3    H144843   6.660   1.886  10.945 -0.1893 -1.0832 -0.1041
 7784TIP3    H244844   6.628   1.815  11.074  0.4082  0.0531  0.6837
 7785TIP3   OH244845   5.188   4.702  13.904  0.6155  0.4674  0.1658
 7785TIP3    H144846   5.223   4.769  13.963  0.5793  0.1050  0.6005
 7785TIP3    H244847   5.256   4.635  13.900 -0.3842 -0.7249  1.7982
 7786TIP3   OH244848   1.606   7.087   0.951 -0.5218  0.2613  0.6093
 7786TIP3    H144849   1.624   7.144   0.877 -0.1440  0.7196  1.0491
 7786TIP3    H244850   1.515   7.059   0.938 -2.1127  3.9642  2.3288
 7787TIP3   OH244851   6.892   4.149   4.835  0.0975 -1.0635 -0.4108
 7787TIP3    H144852   6.810   4.100   4.843  0.5360 -1.8548 -0.6169
 7787TIP3    H244853   6.921   4.161   4.926 -1.3901  1.2644 -0.1694
 7788TIP3   OH244854   6.551   4.923   2.197 -0.7158 -0.4269 -0.1698
 7788TIP3    H144855   6.468   4.877   2.209 -0.8101 -0.1759  0.1304
 7788TIP3    H244856   6.559   4.979   2.274  0.2890 -1.3131  0.4046
 7789TIP3   OH244857   1.532   2.753  13.909  0.0488  0.1053 -0.1921
 7789TIP3    H144858   1.481   2.831  13.885  0.7049  1.9246  3.6362
 7789TIP3    H244859   1.614   2.762  13.861 -0.2951  1.2367 -0.5856
 7790TIP3   OH244860   1.308   3.084   2.108  0.2328  0.5522 -0.4435
 7790TIP3    H144861   1.359   3.093   2.188  0.7383 -0.0106 -0.6997
 7790TIP3    H244862   1.373   3.093   2.037 -0.2998  1.7073 -0.8076
 7791TIP3   OH244863   2.999   4.260   9.277  0.0484 -0.3935  0.0277
 7791TIP3    H144864   3.081   4.304   9.299  0.1059 -0.9130  0.9294
 7791TIP3    H244865   3.020   4.167   9.277 -0.2398 -0.4746 -1.1194
 7792TIP3   OH244866   1.437   6.065   2.718  0.4328  0.3157 -0.1694
 7792TIP3    H144867   1.522   6.072   2.760  0.5505  1.7999 -0.5871
 7792TIP3    H244868   1.374   6.079   2.788  0.5227 -0.8671  0.1552
 7793TIP3   OH244869   1.427   1.675  13.939  0.0646  0.6108  0.4576
 7793TIP3    H144870   1.378   1.610  13.889  0.3740  0.7637 -0.0455
 7793TIP3    H244871   1.374   1.688  14.018 -0.0121 -0.2300  0.5586
 7794TIP3   OH244872   2.012   3.472  14.353  0.3871  0.4898  0.5125
 7794TIP3    H144873   1.966   3.514  14.426  0.2980 -0.8794  1.2816
 7794TIP3    H244874   1.954   3.483  14.278 -0.8186 -0.4368  1.2665
 7795TIP3   OH244875   1.042   5.932  10.607  0.7570  0.1652  0.0089
 7795TIP3    H144876   1.070   5.927  10.515  0.8532 -1.1115  0.0946
 7795TIP3    H244877   1.073   6.018  10.636  0.7140  0.5930 -1.1535
 7796TIP3   OH244878   6.457   2.980  14.186 -0.1610  0.6842 -0.3891
 7796TIP3    H144879   6.380   2.951  14.233  0.1482  1.7329  0.8320
 7796TIP3    H244880   6.425   3.048  14.127 -0.1998  1.0539  0.0506
 7797TIP3   OH244881   5.416   0.091   9.979 -0.2944 -0.1061 -0.3963
 7797TIP3    H144882   5.412   0.012  10.032 -0.4248 -0.1477 -0.4667
 7797TIP3    H244883   5.396   0.162  10.041 -3.8349 -0.4073 -0.9748
 7798TIP3   OH244884   5.854   3.781  13.084 -0.3547  0.4296  0.3045
 7798TIP3    H144885   5.871   3.872  13.108  0.6786  0.1172  0.8477
 7798TIP3    H244886   5.859   3.734  13.167 -0.2173 -0.2087 -0.0620
 7799TIP3   OH244887   6.085   1.907  14.073 -0.3159 -0.0902  0.6689
 7799TIP3    H144888   6.111   1.901  13.981  1.0446  1.8381  0.8767
 7799TIP3    H244889   6.072   1.816  14.100 -1.1541 -0.6647 -1.5195
 7800TIP3   OH244890   0.718   5.633   1.966 -0.1560  0.2737 -0.4494
 7800TIP3    H144891   0.753   5.544   1.964 -0.2991  0.2234 -1.3397
 7800TIP3    H244892   0.631   5.624   2.005 -0.2109  0.0057 -0.6332
 7801TIP3   OH244893   0.038   0.130  10.596  0.2330 -0.6607 -0.2576
 7801TIP3    H144894  -0.019   0.191  10.550  0.0355 -1.2618 -0.8196
 7801TIP3    H244895   0.028   0.047  10.549  0.0484 -1.2811  0.8452
 7802TIP3   OH244896   2.534   2.081  15.267 -0.2166 -0.2429  0.0535
 7802TIP3    H144897   2.479   2.011  15.302 -1.2667  0.6770  0.2987
 7802TIP3    H244898   2.472   2.152  15.246  0.7630  0.4305 -0.6391
 7803TIP3   OH244899   2.828   2.065  12.848  0.2293  0.4835 -1.0276
 7803TIP3    H144900   2.846   2.088  12.756 -1.7006  2.0571 -1.0577
 7803TIP3    H244901   2.796   1.975  12.843 -3.4401  1.6628 -2.4974
 7804TIP3   OH244902   2.784   6.851  10.109  0.0731  0.1464  0.1254
 7804TIP3    H144903   2.715   6.914  10.133 -0.5260 -1.0229  1.6120
 7804TIP3    H244904   2.849   6.904  10.064 -1.1964  1.5306 -0.1742
 7805TIP3   OH244905   6.932   5.582   9.351 -0.0189 -0.3475  0.3192
 7805TIP3    H144906   7.007   5.537   9.312 -0.8117 -1.0297 -0.4632
 7805TIP3    H244907   6.968   5.626   9.428  1.6520  1.2613 -1.2884
 7806TIP3   OH244908   2.078   6.123  10.893  0.3870 -0.3663  0.5021
 7806TIP3    H144909   1.998   6.074  10.875 -0.8239  1.0516  1.7522
 7806TIP3    H244910   2.080   6.193  10.828  2.4693 -2.3173 -1.7186
 7807TIP3   OH244911   1.084   5.009   2.050  0.1918 -0.0029 -0.3398
 7807TIP3    H144912   1.124   4.922   2.048 -0.5692 -0.3593 -1.0666
 7807TIP3    H244913   1.144   5.064   2.000  0.6458 -0.1268  0.0666
 7808TIP3   OH244914   3.190   5.325   9.777 -0.6183 -0.0555  0.2736
 7808TIP3    H144915   3.110   5.274   9.781  0.2195 -1.4488 -0.0762
 7808TIP3    H244916   3.220   5.317   9.686 -0.5120  1.1407  0.1871
 7809TIP3   OH244917   1.207   3.639  14.952  0.0104  0.7773  0.5313
 7809TIP3    H144918   1.214   3.720  15.003  0.0322  2.8421 -2.4753
 7809TIP3    H244919   1.255   3.657  14.871  0.1484 -2.3525 -0.2207
 7810TIP3   OH244920   1.895   0.100  11.697  0.1541 -0.2381 -0.0847
 7810TIP3    H144921   1.955   0.114  11.624  0.4287 -0.4506  0.0971
 7810TIP3    H244922   1.885   0.187  11.737 -1.0390  0.1466 -1.1610
 7811TIP3   OH244923   1.316   7.104  12.380  0.2004  0.4017 -0.6874
 7811TIP3    H144924   1.235   7.148  12.355 -0.9085 -1.0499  0.2639
 7811TIP3    H244925   1.291   7.014  12.398  2.3501 -0.5831 -2.1947
 7812TIP3   OH244926   2.162   4.592  13.119 -0.3071  0.2374  0.0738
 7812TIP3    H144927   2.067   4.587  13.107 -0.1086 -0.3767 -1.4712
 7812TIP3    H244928   2.194   4.506  13.093  0.8310  1.0313 -1.3577
 7813TIP3   OH244929   1.260   5.920  12.573 -0.3710 -0.1974 -0.2506
 7813TIP3    H144930   1.254   5.860  12.499  1.7981  1.5823 -1.9993
 7813TIP3    H244931   1.353   5.932  12.587 -0.7505  0.6874  1.8182
 7814TIP3   OH244932   5.130   5.633   5.284  0.3551 -0.0901  0.6631
 7814TIP3    H144933   5.038   5.655   5.271  0.6894  0.9285 -0.0473
 7814TIP3    H244934   5.162   5.612   5.197  1.0558  0.6165  0.7414
 7815TIP3   OH244935   6.907   2.586   9.814 -0.2117 -0.6524  0.0387
 7815TIP3    H144936   6.887   2.496   9.788 -0.1311 -0.6105 -0.1683
 7815TIP3    H244937   6.932   2.630   9.732 -0.5375 -0.3665  0.0864
 7816TIP3   OH244938   5.691   2.867  10.453  0.2827 -0.3459 -0.1471
 7816TIP3    H144939   5.625   2.806  10.485  0.1898  0.2337  0.8190
 7816TIP3    H244940   5.672   2.877  10.360 -0.5346 -0.7401 -0.0307
 7817TIP3   OH244941   3.730   0.561  10.805  0.0479 -0.1164  0.0329
 7817TIP3    H144942   3.687   0.614  10.738 -0.0801  0.2614  0.4100
 7817TIP3    H244943   3.695   0.594  10.888  0.5672 -0.2527  0.3102
 7818TIP3   OH244944   2.844   4.102   0.775  0.1536 -0.2230 -0.3914
 7818TIP3    H144945   2.782   4.118   0.846  0.5670 -2.2734  0.5247
 7818TIP3    H244946   2.908   4.042   0.813  1.1603 -0.2987 -2.1152
 7819TIP3   OH244947   3.076   1.785  12.893 -0.2449  0.1898 -0.1091
 7819TIP3    H144948   3.140   1.856  12.883 -0.7812  0.6392 -0.3728
 7819TIP3    H244949   3.107   1.736  12.969 -0.9126  1.8313  1.2974
 7820TIP3   OH244950   5.799   0.080  10.786  0.4715 -0.1961  0.6856
 7820TIP3    H144951   5.799   0.105  10.693 -1.5965  1.2394  0.9996
 7820TIP3    H244952   5.886   0.044  10.801  1.4108  0.9885 -1.4349
 7821TIP3   OH244953   0.693   4.327   0.059 -0.1340  0.0912 -0.0490
 7821TIP3    H144954   0.676   4.249   0.007  1.2659  0.4640 -1.1381
 7821TIP3    H244955   0.625   4.389   0.034  1.1397  0.6702 -2.4028
 7822TIP3   OH244956   4.078   3.997  15.010  0.2132  0.0854 -0.4403
 7822TIP3    H144957   4.161   3.950  15.000  1.5913  2.5882 -1.7654
 7822TIP3    H244958   4.025   3.969  14.935 -0.1589 -1.4725  0.3748
 7823TIP3   OH244959   5.176   4.242  15.280  0.4937  0.0736 -0.1301
 7823TIP3    H144960   5.171   4.323  15.230 -1.2625 -0.6108 -1.1637
 7823TIP3    H244961   5.254   4.252  15.335  0.7454  2.1185 -0.7811
 7824TIP3   OH244962   1.350   3.916  15.018  0.0298 -0.2620  0.5250
 7824TIP3    H144963   1.444   3.931  15.029  0.1813 -0.5012 -0.3790
 7824TIP3    H244964   1.309   3.967  15.088  0.6837  2.0127 -0.6497
 7825TIP3   OH244965   5.218   3.212   1.553 -0.0693  0.0856 -0.3563
 7825TIP3    H144966   5.267   3.266   1.491  2.3634  0.2679  1.5765
 7825TIP3    H244967   5.195   3.134   1.503  1.1530  0.5361 -1.6968
 7826TIP3   OH244968   6.506   6.890   3.230 -0.0394  0.3819  0.0565
 7826TIP3    H144969   6.474   6.911   3.317  0.6712  1.1226  0.1479
 7826TIP3    H244970   6.433   6.844   3.188 -0.2592 -0.3075  1.1471
 7827TIP3   OH244971   7.181   3.485  11.186  0.5055 -0.1405 -0.4113
 7827TIP3    H144972   7.107   3.532  11.146  1.5448 -0.6635 -3.1440
 7827TIP3    H244973   7.238   3.555  11.220 -2.2245  0.2877  4.1332
 7828TIP3   OH244974   4.754   5.001   4.446  0.3692 -0.3210  0.2927
 7828TIP3    H144975   4.664   5.028   4.432  0.7853  0.2516 -1.6107
 7828TIP3    H244976   4.806   5.079   4.424  1.3155 -0.0533  3.0462
 7829TIP3   OH244977   3.820   3.505  12.412 -0.5407  0.3978  0.1622
 7829TIP3    H144978   3.906   3.482  12.447 -0.5111 -1.5858 -1.0338
 7829TIP3    H244979   3.770   3.534  12.488  0.7180  0.0947  1.1398
 7830TIP3   OH244980   6.334   3.048  12.124  0.2239  0.3023  0.2302
 7830TIP3    H144981   6.298   3.110  12.060 -0.4860 -1.2969 -0.9865
 7830TIP3    H244982   6.273   3.051  12.197 -0.1922  0.5405 -0.1206
 7831TIP3   OH244983   4.104   0.311   1.517  0.1154 -0.3237 -0.3296
 7831TIP3    H144984   4.075   0.320   1.426 -0.1886 -0.6879 -0.2693
 7831TIP3    H244985   4.059   0.383   1.563 -0.6969 -0.8688 -0.2404
 7832TIP3   OH244986   7.176   2.491   3.399 -0.3166  0.2241 -0.3090
 7832TIP3    H144987   7.244   2.531   3.345 -0.2773 -1.0369 -1.2152
 7832TIP3    H244988   7.207   2.403   3.417 -1.5236 -0.2336 -0.3911
 7833TIP3   OH244989   4.834   2.923   2.204 -0.2046  0.3658 -0.1660
 7833TIP3    H144990   4.867   2.996   2.255 -3.1773  2.9907 -1.6390
 7833TIP3    H244991   4.841   2.847   2.262 -0.0833  2.4523  2.7395
 7834TIP3   OH244992   3.334   6.593  12.482  0.0493  0.4157  0.0720
 7834TIP3    H144993   3.401   6.527  12.494  1.0402  1.5558  1.0973
 7834TIP3    H244994   3.280   6.560  12.410  0.6079 -1.3929  0.4452
 7835TIP3   OH244995   5.462   5.572   3.590  0.0075 -0.0995  0.0895
 7835TIP3    H144996   5.422   5.519   3.521 -0.5016 -1.0854  1.1080
 7835TIP3    H244997   5.554   5.546   3.590 -0.0248 -0.2133 -0.1109
 7836TIP3   OH244998   5.603   1.376   0.100  0.0821 -0.1095  0.4082
 7836TIP3    H144999   5.551   1.298   0.121  0.1590 -0.0552  0.8009
 7836TIP3    H245000   5.689   1.341   0.076  0.1925 -0.1291  0.8343
 7837TIP3   OH245001   7.106   2.130   3.506 -0.4645  0.1259 -0.2555
 7837TIP3    H145002   7.113   2.127   3.602 -0.2304  2.3004 -0.1577
 7837TIP3    H245003   7.197   2.137   3.476 -0.5481 -0.3798 -0.6457
 7838TIP3   OH245004   1.309   2.534   0.151  0.5395  0.0693  0.2732
 7838TIP3    H145005   1.350   2.468   0.208 -2.7149 -0.6260  2.0846
 7838TIP3    H245006   1.265   2.593   0.212 -1.4454  0.4680 -1.4512
 7839TIP3   OH245007   5.875   5.200   1.551  0.1083 -0.3085  0.6335
 7839TIP3    H145008   5.812   5.201   1.480  1.0230 -0.2269 -0.1895
 7839TIP3    H245009   5.945   5.141   1.521  0.4757 -0.3301  1.4874
 7840TIP3   OH245010   5.092   2.010  11.628  0.2969 -0.5511  0.3271
 7840TIP3    H145011   5.122   2.025  11.718  3.6639 -0.0067 -0.7508
 7840TIP3    H245012   5.068   1.917  11.626 -1.1982 -0.2629  2.0733
 7841TIP3   OH245013   4.979   1.766  11.591  0.7123 -0.7685  0.2760
 7841TIP3    H145014   4.909   1.749  11.527  1.9375 -3.1342 -0.5771
 7841TIP3    H245015   4.971   1.694  11.654  0.2126  0.9219  2.2567
 7842TIP3   OH245016   3.553   3.790  13.807  0.3095  0.0437  0.3932
 7842TIP3    H145017   3.581   3.699  13.803 -0.0767 -0.0671  0.1025
 7842TIP3    H245018   3.575   3.818  13.896  0.3969 -0.3421  0.4955
 7843TIP3   OH245019   6.977   6.600   2.308  0.1559  0.7424 -0.7901
 7843TIP3    H145020   7.036   6.536   2.348 -2.1741 -0.9832  0.1209
 7843TIP3    H245021   6.973   6.672   2.370 -1.2145 -0.6362  0.8080
 7844TIP3   OH245022   3.111   1.038   4.787  0.8628 -0.2289 -0.3438
 7844TIP3    H145023   3.038   0.999   4.739  0.2653 -0.0129  0.3692
 7844TIP3    H245024   3.115   0.989   4.868  0.8640  0.4154  0.0532
 7845TIP3   OH245025   3.603   0.774   1.180  0.4075  0.7352 -0.5091
 7845TIP3    H145026   3.571   0.725   1.104  0.3138  1.8419 -1.2118
 7845TIP3    H245027   3.635   0.707   1.240 -2.3525 -0.3897 -0.1529
 7846TIP3   OH245028   0.689   0.118  11.724  0.4936  0.0076  0.1439
 7846TIP3    H145029   0.743   0.178  11.674  0.3158  0.2593  0.2526
 7846TIP3    H245030   0.742   0.039  11.733  0.5012 -0.0589 -0.4858
 7847TIP3   OH245031   6.402   4.072   1.855  0.0566  0.6495 -0.9891
 7847TIP3    H145032   6.360   4.082   1.770 -0.4029  0.0830 -0.8355
 7847TIP3    H245033   6.479   4.018   1.839  1.0830  2.1661 -1.3725
 7848TIP3   OH245034   4.923   3.105   9.869  1.2829 -0.4494  0.0350
 7848TIP3    H145035   4.958   3.194   9.876  0.8998 -0.2122 -0.8977
 7848TIP3    H245036   4.869   3.094   9.947 -1.7533  1.5650 -1.5587
 7849TIP3   OH245037   0.300   6.074  12.697  0.0919  1.0180 -0.1317
 7849TIP3    H145038   0.349   6.015  12.754 -0.9334  0.4763  0.2064
 7849TIP3    H245039   0.311   6.036  12.609 -0.0628  0.6611  0.0004
 7850TIP3   OH245040   0.335   4.441   1.071  0.0799 -0.6602 -0.3673
 7850TIP3    H145041   0.271   4.468   1.004  0.6090 -1.3965 -1.2018
 7850TIP3    H245042   0.334   4.511   1.136  0.8682  0.9964 -2.0610
 7851TIP3   OH245043   0.522   4.088   9.617 -0.2474 -0.0400 -0.2592
 7851TIP3    H145044   0.432   4.079   9.586 -0.5507 -0.6262  0.7424
 7851TIP3    H245045   0.562   4.150   9.556 -1.4959  0.6971 -0.3815
 7852TIP3   OH245046   2.840   3.517   1.358 -0.3046  0.4316  0.4329
 7852TIP3    H145047   2.803   3.433   1.331 -0.2996  0.5217  0.1448
 7852TIP3    H245048   2.916   3.494   1.411 -0.5077  0.2509  0.6422
 7853TIP3   OH245049   4.360   1.207  14.276 -0.6013  0.0975 -0.7528
 7853TIP3    H145050   4.422   1.157  14.223  2.8859  0.9055  2.1624
 7853TIP3    H245051   4.369   1.297  14.245 -1.0810  0.0844 -0.9425
 7854TIP3   OH245052   4.751   1.552  10.967  0.1446  0.1355 -0.5186
 7854TIP3    H145053   4.813   1.624  10.960  1.4143 -1.0717 -3.5476
 7854TIP3    H245054   4.804   1.477  10.993 -0.6223 -0.3105 -0.2168
 7855TIP3   OH245055   2.459   4.861   0.781 -0.2515  0.1904  0.0473
 7855TIP3    H145056   2.552   4.884   0.771 -0.5445  1.5142  0.3041
 7855TIP3    H245057   2.435   4.893   0.867 -0.7291 -0.9992  0.3798
 7856TIP3   OH245058   5.578   3.052   3.684  0.4945  0.2574  0.0265
 7856TIP3    H145059   5.559   3.118   3.617 -2.2495  0.3007  0.7158
 7856TIP3    H245060   5.637   3.097   3.746 -0.4420  1.7372 -0.0916
 7857TIP3   OH245061   1.376   3.545  12.102 -0.3690  0.0593  0.2769
 7857TIP3    H145062   1.458   3.590  12.123 -0.1400  0.3002 -1.0354
 7857TIP3    H245063   1.323   3.611  12.059 -0.6936 -0.4741 -0.1570
 7858TIP3   OH245064   0.113   3.274   4.463 -0.0773  0.7237  0.3344
 7858TIP3    H145065   0.019   3.270   4.482 -0.2147 -0.3132 -0.5127
 7858TIP3    H245066   0.128   3.366   4.440 -1.3602  0.4854 -1.7530
 7859TIP3   OH245067   0.232   6.115   0.735  0.2650  0.4232 -0.0014
 7859TIP3    H145068   0.277   6.030   0.730 -0.9322 -0.2314 -0.0168
 7859TIP3    H245069   0.182   6.121   0.654 -0.8680  0.4167  0.6652
 7860TIP3   OH245070   1.571   0.951  10.111  0.1963 -0.3676  0.2013
 7860TIP3    H145071   1.503   1.005  10.152  0.3230 -0.0344 -0.0252
 7860TIP3    H245072   1.523   0.898  10.047  0.2444  0.3932 -0.4792
 7861TIP3   OH245073   1.410   5.154  12.678 -0.1800 -0.1326  0.1779
 7861TIP3    H145074   1.501   5.183  12.686 -0.0696 -0.0797 -0.9899
 7861TIP3    H245075   1.413   5.088  12.608 -1.0338 -0.1444  0.1453
 7862TIP3   OH245076   6.652   6.070   3.351 -0.1926  0.2932  0.4049
 7862TIP3    H145077   6.688   5.981   3.341  0.6820  0.3932  2.2435
 7862TIP3    H245078   6.652   6.106   3.263  0.8826 -1.0105 -0.1640
 7863TIP3   OH245079   2.257   5.178  14.669 -0.6905 -0.5350 -0.2918
 7863TIP3    H145080   2.273   5.204  14.760  0.1804 -0.3451 -0.4854
 7863TIP3    H245081   2.302   5.094  14.660  0.8016  0.3057 -1.0283
 7864TIP3   OH245082   5.444   3.091  10.807  0.2729  1.2349  0.0220
 7864TIP3    H145083   5.356   3.061  10.829  0.8087 -0.9369 -0.6106
 7864TIP3    H245084   5.430   3.157  10.739 -0.9563  2.8905  1.7493
 7865TIP3   OH245085   5.018   2.944  14.157  0.1557  0.1828  0.0018
 7865TIP3    H145086   5.027   2.850  14.150  3.5113  0.4998 -1.8807
 7865TIP3    H245087   4.967   2.970  14.080 -2.2135 -0.1198  1.3715
 7866TIP3   OH245088   0.276   1.352   0.380  0.2300 -0.3797  0.6655
 7866TIP3    H145089   0.237   1.399   0.307  1.3754  2.7664  1.8954
 7866TIP3    H245090   0.215   1.366   0.453  0.8646 -0.3346  1.1943
 7867TIP3   OH245091   2.312   5.402  11.199  0.0320 -0.1721 -0.1318
 7867TIP3    H145092   2.303   5.425  11.291  0.5414 -0.1130 -0.0928
 7867TIP3    H245093   2.363   5.321  11.200 -1.5073 -1.1815 -0.2769
 7868TIP3   OH245094   5.644   1.323  11.939  0.1039  0.3175 -0.3706
 7868TIP3    H145095   5.701   1.286  12.007 -2.2010 -1.1713  0.8644
 7868TIP3    H245096   5.700   1.386  11.893  2.9051 -1.4368  0.3754
 7869TIP3   OH245097   4.082   5.206  15.183  0.1806 -0.2629  0.2147
 7869TIP3    H145098   3.993   5.169  15.191 -0.0241 -1.0890 -3.9055
 7869TIP3    H245099   4.139   5.130  15.190  0.7309  0.3018  3.1328
 7870TIP3   OH245100   5.321   4.432   3.811 -0.2261 -0.0077 -0.3323
 7870TIP3    H145101   5.314   4.528   3.811  0.5355  0.2513 -5.0471
 7870TIP3    H245102   5.415   4.415   3.806 -0.2870 -1.1412  1.3934
 7871TIP3   OH245103   0.268   2.955  10.159 -0.4155 -0.5131  0.3934
 7871TIP3    H145104   0.210   3.031  10.161 -1.0780 -0.9674 -0.7790
 7871TIP3    H245105   0.340   2.981  10.102 -0.1793 -0.4553  0.7135
 7872TIP3   OH245106   2.341   1.990   2.323  0.7779  0.4402 -0.3470
 7872TIP3    H145107   2.382   2.058   2.270  1.9401  1.4404  1.7273
 7872TIP3    H245108   2.411   1.927   2.340  0.7819  0.7696  0.9904
 7873TIP3   OH245109   0.889   1.470  13.532 -0.2438 -0.7833 -0.9535
 7873TIP3    H145110   0.827   1.540  13.514  0.0330  0.8697  3.3252
 7873TIP3    H245111   0.842   1.410  13.591  1.4293 -0.7245  0.5316
 7874TIP3   OH245112   1.023   3.852  12.259  0.0201 -0.5381  0.0378
 7874TIP3    H145113   0.948   3.820  12.209 -2.3441  1.0221  2.2876
 7874TIP3    H245114   1.063   3.918  12.203 -1.1454 -0.4448 -0.7289
 7875TIP3   OH245115   4.967   6.283   4.878 -0.1382 -0.0324 -0.2523
 7875TIP3    H145116   4.956   6.305   4.971 -0.6734  0.3714 -0.4050
 7875TIP3    H245117   5.061   6.283   4.864 -0.0845  0.7838  0.0893
 7876TIP3   OH245118   1.802   5.760  14.442  0.2113 -0.3657 -0.0422
 7876TIP3    H145119   1.795   5.849  14.407  0.9245  0.8885  2.7088
 7876TIP3    H245120   1.711   5.734  14.457 -0.0243 -0.2855 -1.2109
 7877TIP3   OH245121   6.703   2.784   0.404 -0.2069 -0.4642  0.0640
 7877TIP3    H145122   6.717   2.697   0.442 -0.8895 -1.0032 -0.8571
 7877TIP3    H245123   6.790   2.811   0.374  0.0780 -0.6539  0.6888
 7878TIP3   OH245124   0.761   1.984   1.442 -0.1973  0.2378 -0.2439
 7878TIP3    H145125   0.733   1.896   1.465 -1.5099  1.3317  2.8142
 7878TIP3    H245126   0.748   2.036   1.521  0.8985  3.1303 -1.7812
 7879TIP3   OH245127   4.471   0.670   4.041 -0.1130 -0.3343  0.1199
 7879TIP3    H145128   4.391   0.625   4.071  0.0652 -0.7443 -0.0079
 7879TIP3    H245129   4.517   0.693   4.122  0.1860 -1.1051  0.1767
 7880TIP3   OH245130   2.320   0.601  13.805 -0.5236 -0.6282  0.3073
 7880TIP3    H145131   2.236   0.618  13.762 -0.2703  0.6024  0.2682
 7880TIP3    H245132   2.349   0.686  13.836  1.5084 -0.7144 -1.1118
 7881TIP3   OH245133   0.305   5.311   3.102  0.5529  0.0632 -0.4076
 7881TIP3    H145134   0.310   5.328   3.196 -0.4539  1.4148 -0.5644
 7881TIP3    H245135   0.284   5.218   3.095  0.4077  0.0029  0.7145
 7882TIP3   OH245136   3.630   0.532  11.840 -0.1986  0.2398 -0.1417
 7882TIP3    H145137   3.579   0.544  11.920 -0.9687  1.4366 -0.7792
 7882TIP3    H245138   3.658   0.440  11.843 -2.7114 -0.5998  0.0739
 7883TIP3   OH245139   5.213   0.825  12.161  0.0082 -0.4605 -0.3672
 7883TIP3    H145140   5.153   0.755  12.135  1.1054 -1.0494 -1.4093
 7883TIP3    H245141   5.156   0.898  12.185 -1.1484 -1.4730  0.0745
 7884TIP3   OH245142   3.521   3.433  10.980 -0.1530 -0.7355 -0.2927
 7884TIP3    H145143   3.427   3.439  11.000  0.5711  0.6337  3.3176
 7884TIP3    H245144   3.527   3.356  10.923 -3.7703  1.1123 -3.7761
 7885TIP3   OH245145   4.783   4.430  14.361 -0.1977 -0.2411  0.5991
 7885TIP3    H145146   4.832   4.355  14.328 -0.5996 -0.1187 -0.3117
 7885TIP3    H245147   4.831   4.506  14.329  1.0335 -0.0519  2.7361
 7886TIP3   OH245148   1.649   2.755   0.730  0.3003  0.0392 -0.6532
 7886TIP3    H145149   1.651   2.798   0.645  1.6954  0.3153 -0.5049
 7886TIP3    H245150   1.679   2.666   0.712  2.8110  0.7044 -0.1773
 7887TIP3   OH245151   5.738   3.379   1.931  0.3282  0.0796 -0.0575
 7887TIP3    H145152   5.770   3.353   1.845  1.9630  0.2700  0.4542
 7887TIP3    H245153   5.730   3.474   1.926 -1.1977 -0.0466 -0.4926
 7888TIP3   OH245154   0.306   3.525  12.812  0.1855 -0.1669 -0.3405
 7888TIP3    H145155   0.300   3.595  12.747  0.2062 -2.0169 -2.4603
 7888TIP3    H245156   0.230   3.469  12.793  0.3901 -0.9386  1.0231
 7889TIP3   OH245157   3.022   0.191   9.842  0.3583  0.4321 -0.7691
 7889TIP3    H145158   2.990   0.113   9.797  1.8439 -0.7630  0.1390
 7889TIP3    H245159   3.068   0.240   9.774  1.6887 -0.8352 -0.8399
 7890TIP3   OH245160   0.461   5.215   0.326  0.2658  0.1206 -0.0595
 7890TIP3    H145161   0.393   5.152   0.350 -0.5495  1.4042  1.1694
 7890TIP3    H245162   0.506   5.234   0.409 -0.1702  1.8873 -0.1942
 7891TIP3   OH245163   1.788   1.913   3.959 -0.1670  0.0502  0.0428
 7891TIP3    H145164   1.860   1.927   3.898 -0.5891  1.6005 -0.1256
 7891TIP3    H245165   1.806   1.827   3.998  2.0347  0.6141  0.3779
 7892TIP3   OH245166   1.492   7.054  14.093 -0.2220 -0.7757 -0.4388
 7892TIP3    H145167   1.529   7.142  14.106 -1.6306 -0.1360 -0.5710
 7892TIP3    H245168   1.413   7.069  14.041 -1.3754 -1.9126  0.8826
 7893TIP3   OH245169   1.962   5.097   1.845 -0.3543 -0.4250  0.3592
 7893TIP3    H145170   1.870   5.076   1.833 -1.3624  3.0101  1.0574
 7893TIP3    H245171   1.970   5.188   1.818  2.8306 -0.5334  0.5054
 7894TIP3   OH245172   3.416   1.377   0.599 -0.5206  0.2609  0.2601
 7894TIP3    H145173   3.455   1.387   0.512 -0.4321  0.4593  0.3214
 7894TIP3    H245174   3.391   1.466   0.624  2.1875  0.7009  1.6975
 7895TIP3   OH245175   5.020   4.022   5.148  0.2356  0.2540 -0.2837
 7895TIP3    H145176   5.010   4.022   5.053  1.3958 -1.3894 -0.4554
 7895TIP3    H245177   4.997   3.932   5.174 -1.1985  0.9780  1.1537
 7896TIP3   OH245178   6.494   1.382  11.305 -0.1538  0.0019 -0.0521
 7896TIP3    H145179   6.402   1.359  11.310 -0.0624 -0.1972  0.8444
 7896TIP3    H245180   6.535   1.307  11.261 -0.3018 -0.2457  0.2304
 7897TIP3   OH245181   5.850   1.938   4.765  0.1656  0.7303  0.3515
 7897TIP3    H145182   5.862   2.033   4.770  2.2787  0.4592  1.4082
 7897TIP3    H245183   5.930   1.906   4.723  0.9584 -0.8181  2.8427
 7898TIP3   OH245184   1.233   4.866  10.042 -0.2875 -0.5414  0.2484
 7898TIP3    H145185   1.323   4.862  10.074  0.0499  0.9400 -0.4246
 7898TIP3    H245186   1.235   4.817   9.960 -0.1602 -0.6863  0.3359
 7899TIP3   OH245187   7.104   0.018  12.126 -0.7691  0.0684 -0.1707
 7899TIP3    H145188   7.073   0.106  12.146  0.0012  0.3077  0.0256
 7899TIP3    H245189   7.175   0.004  12.189 -0.2483 -0.3111 -0.8376
 7900TIP3   OH245190   4.804   4.775  14.094  0.4644 -0.2597  0.1186
 7900TIP3    H145191   4.760   4.810  14.016  0.9675 -0.0322 -0.0638
 7900TIP3    H245192   4.869   4.841  14.118  1.3741 -1.0169 -0.1838
 7901TIP3   OH245193   5.752   3.381   9.919  0.3088  0.0207 -0.2265
 7901TIP3    H145194   5.818   3.449   9.908  1.2122 -0.9554 -0.9856
 7901TIP3    H245195   5.763   3.324   9.843 -1.3937 -0.1839 -0.3653
 7902TIP3   OH245196   2.234   1.293  15.169  0.4976  0.0598 -0.0935
 7902TIP3    H145197   2.205   1.341  15.246  0.0676 -1.8451  1.0018
 7902TIP3    H245198   2.181   1.327  15.098 -0.3805  0.6139  0.8005
 7903TIP3   OH245199   0.193   0.733  11.323  0.2087 -0.6564 -0.1638
 7903TIP3    H145200   0.229   0.758  11.409  1.9500  0.3812 -1.1301
 7903TIP3    H245201   0.122   0.796  11.308 -0.3211 -1.0441  0.6279
 7904TIP3   OH245202   6.753   0.061  14.084 -0.4353  0.1275 -0.5189
 7904TIP3    H145203   6.817   0.101  14.024 -0.0545 -0.8560 -0.7910
 7904TIP3    H245204   6.698   0.007  14.027  1.6020 -3.0208  0.2214
 7905TIP3   OH245205   2.991   4.198  12.549  0.1143  0.2687 -0.7137
 7905TIP3    H145206   2.915   4.194  12.607  1.1546  0.0447  0.6746
 7905TIP3    H245207   2.979   4.279  12.499 -1.3247 -0.0648 -0.9785
 7906TIP3   OH245208   3.342   6.042  10.466 -0.0013  0.3336  0.6024
 7906TIP3    H145209   3.279   6.018  10.398  0.5294 -0.1082  0.2623
 7906TIP3    H245210   3.303   6.007  10.547  0.4984 -1.2635  0.1920
 7907TIP3   OH245211   1.543   1.620  10.214  0.1514  0.0833 -0.0516
 7907TIP3    H145212   1.630   1.606  10.252 -0.4794 -0.7703  1.1287
 7907TIP3    H245213   1.546   1.710  10.181  2.5825 -0.9255 -3.1023
 7908TIP3   OH245214   3.535   1.238   0.143  0.3680 -0.6067  0.3934
 7908TIP3    H145215   3.583   1.156   0.134 -0.7678 -1.1468 -1.3736
 7908TIP3    H245216   3.562   1.290   0.067  2.7826  1.6756  2.6138
 7909TIP3   OH245217   4.756   6.580  14.274 -0.1377  0.1574 -0.4313
 7909TIP3    H145218   4.703   6.515  14.228  0.4967 -0.7227  0.0602
 7909TIP3    H245219   4.790   6.636  14.205  0.0667 -0.5974 -0.9545
 7910TIP3   OH245220   6.823   3.743  13.307 -0.5561  0.2817  0.3185
 7910TIP3    H145221   6.871   3.754  13.225  0.2236 -0.6274  0.6409
 7910TIP3    H245222   6.881   3.780  13.374  0.0679 -1.4698  0.8078
 7911TIP3   OH245223   1.052   7.220   0.486 -0.4907  0.3739  0.3465
 7911TIP3    H145224   1.133   7.262   0.459 -1.1184  1.2548 -0.1979
 7911TIP3    H245225   1.022   7.271   0.562 -1.2019  0.8604 -0.2541
 7912TIP3   OH245226   7.007   3.906  12.551 -0.3668  0.0421  0.2616
 7912TIP3    H145227   6.931   3.924  12.607 -0.5878  1.3733 -0.4102
 7912TIP3    H245228   6.971   3.862  12.474 -0.2696 -0.4773  0.5107
 7913TIP3   OH245229   3.004   5.898  11.165  0.7268  0.6615 -0.2404
 7913TIP3    H145230   2.951   5.968  11.204  1.6257  1.3386 -0.2122
 7913TIP3    H245231   3.069   5.944  11.112  2.9745  0.0364  1.7736
 7914TIP3   OH245232   4.779   5.506  13.606  0.2942 -0.2510 -0.2960
 7914TIP3    H145233   4.752   5.598  13.612  0.0610 -0.3000 -0.5637
 7914TIP3    H245234   4.830   5.490  13.685  1.8170  0.5926 -1.0619
 7915TIP3   OH245235   5.428   0.648   5.650  0.0935 -0.0249  0.7982
 7915TIP3    H145236   5.494   0.634   5.717  0.2284 -0.4809  0.5683
 7915TIP3    H245237   5.406   0.741   5.658  0.7878  0.1411  0.8479
 7916TIP3   OH245238   6.765   1.273   1.861 -0.1900  0.0847 -0.2403
 7916TIP3    H145239   6.780   1.328   1.784  0.7704 -0.1213 -0.2104
 7916TIP3    H245240   6.844   1.283   1.914 -0.9100  0.3568  0.8101
 7917TIP3   OH245241   1.693   6.232  13.115 -0.8567  0.8445  0.0427
 7917TIP3    H145242   1.709   6.142  13.085  1.7315  0.6317  1.6894
 7917TIP3    H245243   1.637   6.222  13.192 -1.5827  0.7488 -0.4977
 7918TIP3   OH245244   3.865   6.148  11.839  0.3526  0.0854 -0.0170
 7918TIP3    H145245   3.807   6.193  11.778 -2.0461 -3.8247 -0.9938
 7918TIP3    H245246   3.949   6.144  11.793 -0.3241  0.6042 -1.3528
 7919TIP3   OH245247   0.350   4.343   9.988 -0.2865  0.2274 -0.3542
 7919TIP3    H145248   0.295   4.398   9.932 -1.1458  1.4668  1.6144
 7919TIP3    H245249   0.301   4.336  10.070  1.6983 -0.0884  0.8556
 7920TIP3   OH245250   3.857   5.493   3.715  0.2110 -0.3671  0.0207
 7920TIP3    H145251   3.791   5.559   3.694 -0.7942 -1.5993 -0.8997
 7920TIP3    H245252   3.828   5.457   3.799  0.1223 -0.4065 -0.0267
 7921TIP3   OH245253   0.956   5.225  12.267 -0.7420  0.3814 -1.3798
 7921TIP3    H145254   0.913   5.198  12.347  0.1051  0.0059 -1.0440
 7921TIP3    H245255   0.910   5.178  12.197  0.6990 -2.0372 -0.8248
 7922TIP3   OH245256   6.924   5.509  12.283 -0.7423 -0.2934 -0.6998
 7922TIP3    H145257   6.923   5.493  12.378  1.1753  1.7064 -0.2546
 7922TIP3    H245258   7.006   5.470  12.254 -0.0978  1.2456 -1.0445
 7923TIP3   OH245259   3.639   7.213   0.498 -0.8299  0.0955 -0.2997
 7923TIP3    H145260   3.583   7.232   0.573 -0.6938  1.9242 -0.6149
 7923TIP3    H245261   3.583   7.165   0.437 -1.8131  1.1567 -0.2541
 7924TIP3   OH245262   4.796   6.728   4.286 -0.4198  0.3894  0.0047
 7924TIP3    H145263   4.821   6.752   4.197 -0.8506  0.4925 -0.0946
 7924TIP3    H245264   4.764   6.810   4.324  0.4216  0.5012  0.4897
 7925TIP3   OH245265   5.568   2.591   3.081 -0.2742  0.2551  0.3229
 7925TIP3    H145266   5.474   2.603   3.097 -0.4051 -0.3011  0.0146
 7925TIP3    H245267   5.602   2.679   3.069 -1.0055  0.3962 -0.8597
 7926TIP3   OH245268   0.908   4.397  10.613  0.0478  0.1211 -0.2642
 7926TIP3    H145269   0.865   4.387  10.528  1.0896 -2.1042 -0.6016
 7926TIP3    H245270   0.927   4.307  10.641  1.2508  0.8795  1.5262
 7927TIP3   OH245271   1.048   5.167  14.379  0.6666 -0.4823  0.7517
 7927TIP3    H145272   1.140   5.140  14.382  0.6230 -0.5373  2.5724
 7927TIP3    H245273   1.008   5.108  14.314  2.0815  0.2025 -0.8249
 7928TIP3   OH245274   1.250   2.261  13.895 -1.0153  0.0318  0.0533
 7928TIP3    H145275   1.285   2.173  13.889  0.1699  0.5451 -0.9133
 7928TIP3    H245276   1.180   2.264  13.830 -1.6249 -0.4181  0.6661
 7929TIP3   OH245277   3.536   0.561   3.557  0.2222  0.0961 -0.0000
 7929TIP3    H145278   3.469   0.617   3.517 -0.8847  0.2035  1.9032
 7929TIP3    H245279   3.549   0.490   3.494 -2.4063 -0.4543 -0.0285
 7930TIP3   OH245280   6.800   0.772  14.805  0.3592  0.7215  0.0425
 7930TIP3    H145281   6.847   0.720  14.739 -2.0684  1.4526 -2.4826
 7930TIP3    H245282   6.716   0.728  14.815 -0.3306  2.0962  0.6164
 7931TIP3   OH245283   0.304   6.393  13.164 -0.0037 -0.3076  0.0386
 7931TIP3    H145284   0.250   6.469  13.144 -1.5060 -0.9629  1.3604
 7931TIP3    H245285   0.316   6.397  13.259  2.1528 -0.2984 -0.1850
 7932TIP3   OH245286   4.563   5.881  11.442 -0.4067  0.1072  0.4689
 7932TIP3    H145287   4.634   5.866  11.380 -0.1434  2.5008  0.0885
 7932TIP3    H245288   4.607   5.903  11.524 -0.6732  1.3263  0.3029
 7933TIP3   OH245289   1.642   5.367  15.337  0.2231 -0.2171 -0.5530
 7933TIP3    H145290   1.678   5.315  15.266  0.9003 -1.4708  0.6731
 7933TIP3    H245291   1.718   5.401  15.383 -0.2083  1.5098 -1.0439
 7934TIP3   OH245292   1.462   2.691   3.535 -0.0011 -0.3664 -0.0883
 7934TIP3    H145293   1.436   2.685   3.627 -0.2017  0.2257 -0.0989
 7934TIP3    H245294   1.434   2.779   3.508  0.1451 -0.4969 -0.6864
 7935TIP3   OH245295   4.098   4.751   0.097 -0.0200 -0.4730  0.2352
 7935TIP3    H145296   4.008   4.718   0.088  0.4850 -1.6225 -0.9877
 7935TIP3    H245297   4.145   4.679   0.140  0.5186 -0.2979 -0.0475
 7936TIP3   OH245298   2.801   5.943  13.440  0.3889  0.4373 -0.1695
 7936TIP3    H145299   2.731   6.009  13.440 -0.2527 -0.2300 -0.8435
 7936TIP3    H245300   2.804   5.910  13.351 -0.6037 -1.7746  0.5279
 7937TIP3   OH245301   5.447   3.431  10.004  0.0304 -0.0130  0.1249
 7937TIP3    H145302   5.432   3.514  10.050 -0.1726  0.6548 -1.1138
 7937TIP3    H245303   5.540   3.433   9.979  0.9275 -1.6242  2.8453
 7938TIP3   OH245304   5.959   1.984   1.207  0.4109 -1.1479  0.0845
 7938TIP3    H145305   6.029   2.033   1.164 -1.7917  1.3295 -0.9522
 7938TIP3    H245306   5.978   1.994   1.301  1.3786 -0.4601 -0.1638
 7939TIP3   OH245307   3.313   4.259   4.835  0.0884  0.0776  0.1768
 7939TIP3    H145308   3.275   4.260   4.923 -1.0186 -0.9366 -0.2635
 7939TIP3    H245309   3.303   4.169   4.805  2.1729 -0.0406 -0.2928
 7940TIP3   OH245310   3.468   5.885   3.054  0.3498  0.8242  0.7138
 7940TIP3    H145311   3.408   5.939   3.105 -0.5797  0.1896  0.3185
 7940TIP3    H245312   3.520   5.947   3.003 -1.5855  1.3615 -0.7253
 7941TIP3   OH245313   6.316   2.039  14.242  0.2350 -0.6941 -0.8587
 7941TIP3    H145314   6.239   2.018  14.188 -0.1187 -0.3799 -0.4779
 7941TIP3    H245315   6.382   2.067  14.178  0.5382 -2.3693 -1.3406
 7942TIP3   OH245316   1.543   6.980   1.372 -0.2916  0.0462  0.4370
 7942TIP3    H145317   1.595   6.996   1.451 -1.0683 -0.0770  0.9928
 7942TIP3    H245318   1.552   7.060   1.321  1.5762 -0.5035 -0.1628
 7943TIP3   OH245319   1.175   6.555  14.126 -0.0444 -0.2704  0.0728
 7943TIP3    H145320   1.171   6.650  14.109 -1.1243 -0.0593  1.3768
 7943TIP3    H245321   1.138   6.515  14.047 -2.2969  0.5421  0.6567
 7944TIP3   OH245322   4.503   3.410  10.139  0.1126  0.3185 -0.2350
 7944TIP3    H145323   4.580   3.443  10.185  0.8516 -0.1605 -1.1035
 7944TIP3    H245324   4.482   3.478  10.075 -0.9121  0.9824  0.7639
 7945TIP3   OH245325   0.153   6.127  15.101  0.3282  0.5588  0.1037
 7945TIP3    H145326   0.183   6.040  15.125  0.5521 -0.0445 -2.2177
 7945TIP3    H245327   0.058   6.120  15.098  0.1667  1.0544  2.1146
 7946TIP3   OH245328   0.509   5.363  14.458 -0.0165 -0.5658  0.6718
 7946TIP3    H145329   0.530   5.337  14.368 -1.7603 -0.3843  0.1925
 7946TIP3    H245330   0.494   5.457  14.453 -0.6893 -0.6515  1.0336
 7947TIP3   OH245331   6.853   5.096  10.606 -0.1909  0.1526  0.5048
 7947TIP3    H145332   6.795   5.073  10.534  0.4114  0.6436 -0.1505
 7947TIP3    H245333   6.801   5.081  10.685 -0.5099 -1.4679  0.0293
 7948TIP3   OH245334   3.789   0.404  10.272  0.2849 -0.4950 -0.5717
 7948TIP3    H145335   3.771   0.450  10.190 -0.9458 -0.0218 -0.0636
 7948TIP3    H245336   3.837   0.468  10.326  0.0396 -0.3827 -0.4846
 7949TIP3   OH245337   5.754   6.314  10.492 -0.1888  0.1184  0.0899
 7949TIP3    H145338   5.692   6.255  10.535 -1.5742 -1.1946 -3.3102
 7949TIP3    H245339   5.726   6.401  10.518 -1.6169 -0.5629  0.9649
 7950TIP3   OH245340   0.198   0.147   3.416 -0.2511 -0.1601 -0.5230
 7950TIP3    H145341   0.103   0.161   3.425 -0.4679 -0.1765 -2.4366
 7950TIP3    H245342   0.237   0.206   3.480 -1.5584 -0.3532  0.4925
 7951TIP3   OH245343   4.368   4.467   1.141  0.3444  0.1617 -0.2383
 7951TIP3    H145344   4.451   4.491   1.183  0.8455 -0.9294 -0.5600
 7951TIP3    H245345   4.395   4.410   1.069 -0.8467 -2.4617  1.2765
 7952TIP3   OH245346   5.887   6.140  10.832 -0.5639  0.1009 -0.1027
 7952TIP3    H145347   5.917   6.229  10.848  0.4034 -0.0203 -1.0890
 7952TIP3    H245348   5.845   6.113  10.914  0.3197  0.9906  0.6626
 7953TIP3   OH245349   5.353   1.242  13.404 -0.1813  0.2769 -0.5446
 7953TIP3    H145350   5.364   1.320  13.458  2.2044 -0.5957  0.3587
 7953TIP3    H245351   5.420   1.250  13.336  0.9278 -1.4859  0.2653
 7954TIP3   OH245352   3.971   3.841   9.232  0.3665 -0.7059  0.2861
 7954TIP3    H145353   3.909   3.911   9.255  1.1385 -0.0743  0.4744
 7954TIP3    H245354   3.921   3.760   9.244 -0.7323 -0.1686 -0.5155
 7955TIP3   OH245355   5.910   0.807  14.306  0.1478 -0.2597  0.3780
 7955TIP3    H145356   5.883   0.891  14.343  2.4041 -0.2688  2.2643
 7955TIP3    H245357   5.844   0.745  14.338 -0.4233  0.4665  0.6387
 7956TIP3   OH245358   5.766   3.632  11.427  0.1496 -0.0148 -0.0621
 7956TIP3    H145359   5.684   3.662  11.467  0.6595 -0.0601  1.0707
 7956TIP3    H245360   5.774   3.540  11.455 -0.8037 -0.9190 -2.5148
 7957TIP3   OH245361   2.669   3.067  15.114  0.3556  0.5615 -0.0158
 7957TIP3    H145362   2.697   3.158  15.117 -2.1061  1.3906 -0.0929
 7957TIP3    H245363   2.617   3.055  15.193 -0.1294 -0.5018 -0.4790
 7958TIP3   OH245364   1.159   0.716   0.412 -0.2775  0.1869  0.1531
 7958TIP3    H145365   1.236   0.734   0.465  0.1171 -0.8896 -0.0146
 7958TIP3    H245366   1.180   0.750   0.325 -0.2250  0.4195  0.2588
 7959TIP3   OH245367   3.624   6.105  15.097 -0.0516 -0.0706  0.2721
 7959TIP3    H145368   3.640   6.189  15.053 -2.5469  1.3266  1.7693
 7959TIP3    H245369   3.536   6.080  15.069  0.8698 -2.5791 -0.6118
 7960TIP3   OH245370   4.012   3.131   1.521 -0.4392  0.7595 -0.4774
 7960TIP3    H145371   4.013   3.176   1.605 -3.0607 -0.0830  0.0925
 7960TIP3    H245372   3.981   3.042   1.541  2.0408 -0.5526 -1.9232
 7961TIP3   OH245373   1.059   0.676  10.229  0.2559  0.4246 -0.2009
 7961TIP3    H145374   1.049   0.617  10.304  1.9003  1.6289  1.0312
 7961TIP3    H245375   1.067   0.763  10.268  0.0842  1.2169 -1.8586
 7962TIP3   OH245376   3.404   0.238  15.076  0.1555  0.0177  0.4427
 7962TIP3    H145377   3.373   0.255  15.165 -2.1048 -0.5374 -0.1800
 7962TIP3    H245378   3.395   0.144  15.064 -0.3789  0.1906 -0.6476
 7963TIP3   OH245379   5.915   6.092   4.529 -0.3190  0.4672 -0.9478
 7963TIP3    H145380   5.954   6.006   4.512  1.0621  0.9912 -0.6170
 7963TIP3    H245381   5.859   6.109   4.454 -0.5388 -0.6819 -1.0583
 7964TIP3   OH245382   5.169   0.893   0.159 -0.1308 -0.1494  0.0879
 7964TIP3    H145383   5.130   0.808   0.180 -0.0294 -0.4409 -0.8811
 7964TIP3    H245384   5.143   0.911   0.069  0.7886  0.3192 -0.1041
 7965TIP3   OH245385   1.612   5.216  13.179 -0.5293 -0.9765  0.3795
 7965TIP3    H145386   1.548   5.199  13.110 -0.5133  1.2073 -0.2656
 7965TIP3    H245387   1.567   5.192  13.260 -2.2983  0.6428 -0.0379
 7966TIP3   OH245388   4.326   4.140   4.269  0.0531 -0.1096  0.0053
 7966TIP3    H145389   4.346   4.227   4.235 -0.7134 -0.7716 -2.3271
 7966TIP3    H245390   4.271   4.156   4.346 -0.5316  1.4613 -0.7169
 7967TIP3   OH245391   1.886   4.614  13.898  0.4201 -0.2186  0.2816
 7967TIP3    H145392   1.968   4.632  13.945 -0.1636  0.0384  1.2274
 7967TIP3    H245393   1.828   4.685  13.925 -0.8057 -1.5719  1.3276
 7968TIP3   OH245394   3.567   1.483  11.867 -0.2999 -0.1221  0.1808
 7968TIP3    H145395   3.532   1.569  11.846  1.5081  0.3890 -0.9462
 7968TIP3    H245396   3.537   1.426  11.796  0.9140  0.2655 -0.6653
 7969TIP3   OH245397   4.954   6.805   3.083 -0.1365 -0.6560  0.0818
 7969TIP3    H145398   4.976   6.760   3.164 -0.3853 -0.7448  0.1003
 7969TIP3    H245399   4.899   6.879   3.111  0.2571 -0.3492  0.0518
 7970TIP3   OH245400   3.801   7.122   1.342 -0.2280 -0.2648  0.2352
 7970TIP3    H145401   3.845   7.191   1.392  1.9607 -1.3077 -0.1459
 7970TIP3    H245402   3.839   7.129   1.254 -0.4566 -1.5225  0.0264
 7971TIP3   OH245403   2.200   6.165   3.233 -0.0515  0.5339 -0.3134
 7971TIP3    H145404   2.186   6.184   3.141 -0.6820  0.0010 -0.3386
 7971TIP3    H245405   2.125   6.110   3.258 -1.5813  3.1339  1.2762
 7972TIP3   OH245406   5.624   7.239  14.272  0.7874  0.1716  0.1307
 7972TIP3    H145407   5.628   7.245  14.176  1.4382  0.9263  0.1963
 7972TIP3    H245408   5.611   7.329  14.301  1.3991  0.0575  0.7825
 7973TIP3   OH245409   2.418   0.079  11.978  0.3236  0.3380 -0.1814
 7973TIP3    H145410   2.472   0.034  11.913 -0.5675 -0.8026 -0.1449
 7973TIP3    H245411   2.331   0.081  11.940  0.1113  1.0441  0.3141
 7974TIP3   OH245412   1.312   1.780   0.338 -0.3327  0.1209  0.0298
 7974TIP3    H145413   1.390   1.729   0.358 -1.3339 -0.7345  1.9861
 7974TIP3    H245414   1.345   1.856   0.289  1.3702 -1.5241 -1.5229
 7975TIP3   OH245415   6.084   6.326   0.032 -0.2607  0.2238 -0.0404
 7975TIP3    H145416   6.071   6.399   0.092 -0.4927 -0.0972  0.2967
 7975TIP3    H245417   6.166   6.347  -0.013  2.2951 -1.5127  3.3406
 7976TIP3   OH245418   7.138   6.072  14.039 -0.1803  0.1579 -0.6023
 7976TIP3    H145419   7.079   6.112  14.103  1.7732  2.0537  0.1093
 7976TIP3    H245420   7.117   5.978  14.044 -2.7537  0.6800 -0.0550
 7977TIP3   OH245421   1.004   5.357   1.142 -0.7186 -0.3018  0.0497
 7977TIP3    H145422   1.037   5.304   1.215  0.0381 -1.1650 -0.8994
 7977TIP3    H245423   1.079   5.368   1.084 -1.0317  1.2649 -0.1129
 7978TIP3   OH245424   2.787   1.365  11.211  0.1368  0.3419 -0.6070
 7978TIP3    H145425   2.744   1.347  11.127 -0.5601  0.6985 -0.3358
 7978TIP3    H245426   2.763   1.455  11.231  0.4741  0.3271 -0.1256
 7979TIP3   OH245427   5.721   2.735  13.594  0.4562  0.5070 -0.1279
 7979TIP3    H145428   5.696   2.658  13.543  0.7581 -0.1389  0.6706
 7979TIP3    H245429   5.804   2.763  13.557  1.6728 -1.1301  1.1948
 7980TIP3   OH245430   1.715   3.258  11.071  0.3482  0.1504  0.1225
 7980TIP3    H145431   1.779   3.220  11.130  1.1072 -0.2029 -0.8907
 7980TIP3    H245432   1.768   3.303  11.004 -0.4918  2.1326  0.7022
 7981TIP3   OH245433   2.457   4.434  10.115  0.3179 -0.0831  0.1113
 7981TIP3    H145434   2.423   4.391  10.037 -2.8016  1.3867  0.4888
 7981TIP3    H245435   2.479   4.363  10.175 -3.7919 -1.3337  0.4034
 7982TIP3   OH245436   1.106   3.281   9.671 -0.7997  0.4501  0.2516
 7982TIP3    H145437   1.189   3.235   9.659  0.2800  2.2391  0.4947
 7982TIP3    H245438   1.040   3.212   9.666  0.6900 -1.0524  0.1696
 7983TIP3   OH245439   4.709   5.251  12.984 -0.0088 -0.3137  0.1740
 7983TIP3    H145440   4.666   5.186  13.039 -1.3064 -0.5003 -1.0118
 7983TIP3    H245441   4.790   5.208  12.955  0.0451 -0.6905  0.8649
 7984TIP3   OH245442   3.210   3.756  14.479  0.4852  0.5740 -0.0219
 7984TIP3    H145443   3.181   3.847  14.475  0.1002  0.4105 -1.6205
 7984TIP3    H245444   3.303   3.762  14.504  0.2426  1.3443  0.7412
 7985TIP3   OH245445   3.777   1.726   0.741 -0.1956  0.1570  0.0407
 7985TIP3    H145446   3.760   1.665   0.813  0.6987 -0.7785 -0.5072
 7985TIP3    H245447   3.708   1.792   0.749 -1.9367 -1.5595 -0.0373
 7986TIP3   OH245448   3.415   0.397   0.541 -0.2753 -0.4911  0.4937
 7986TIP3    H145449   3.434   0.409   0.448 -1.3713 -0.9062  0.2078
 7986TIP3    H245450   3.340   0.455   0.557  0.4299  0.2176  1.3224
 7987TIP3   OH245451   6.016   2.194   0.973 -0.3470  0.0375  0.1150
 7987TIP3    H145452   5.982   2.182   0.884 -1.4416  3.1604 -0.0033
 7987TIP3    H245453   6.110   2.210   0.962 -0.4175  0.0623 -0.4408
 7988TIP3   OH245454   2.099   4.249  10.634 -0.7387  0.1217  0.0835
 7988TIP3    H145455   2.163   4.225  10.566 -1.2484  1.8180 -1.0458
 7988TIP3    H245456   2.014   4.240  10.591 -1.0749  1.0853  0.5407
 7989TIP3   OH245457   4.159   4.373  11.918 -0.0898  0.0663  0.4802
 7989TIP3    H145458   4.239   4.337  11.957 -0.3350  0.9847  1.9194
 7989TIP3    H245459   4.093   4.305  11.931  0.5532 -0.9474 -1.2514
 7990TIP3   OH245460   0.593   2.560  12.310  0.2490 -0.4871  0.0240
 7990TIP3    H145461   0.559   2.621  12.375 -1.2269 -2.4256  1.2124
 7990TIP3    H245462   0.647   2.499  12.360 -0.7519 -1.8993 -0.5191
 7991TIP3   OH245463   3.706   1.500   1.361 -0.3309  0.6379  0.3202
 7991TIP3    H145464   3.640   1.503   1.429  1.1878 -1.2955  1.9890
 7991TIP3    H245465   3.707   1.409   1.331 -0.3715  1.2538 -1.7224
 7992TIP3   OH245466   1.196   6.201   9.845  0.1845  0.6252 -0.1267
 7992TIP3    H145467   1.287   6.220   9.824  0.5875 -0.4154  0.5586
 7992TIP3    H245468   1.188   6.106   9.832 -1.2171  0.9107 -1.6520
 7993TIP3   OH245469   5.904   2.162   5.836 -0.0401  0.2242  0.4625
 7993TIP3    H145470   5.869   2.190   5.752 -0.7008 -0.8493  0.3590
 7993TIP3    H245471   5.998   2.176   5.828 -0.1343  0.4906 -0.3147
 7994TIP3   OH245472   3.486   3.494  14.499  0.6241  0.2123 -0.0880
 7994TIP3    H145473   3.556   3.439  14.535  1.0458 -0.0535 -1.2574
 7994TIP3    H245474   3.524   3.582  14.494  1.5042 -0.2192 -2.2200
 7995TIP3   OH245475   7.107   3.676  12.688 -0.1015 -0.2045  0.2596
 7995TIP3    H145476   7.111   3.595  12.638  1.2847 -0.4758  0.7653
 7995TIP3    H245477   7.064   3.739  12.630 -2.6527 -1.6811  0.4302
 7996TIP3   OH245478   3.200   4.535   1.169 -0.4583 -0.1200  0.2458
 7996TIP3    H145479   3.195   4.444   1.141  4.8488 -0.4498 -0.6719
 7996TIP3    H245480   3.227   4.531   1.261  0.8846  0.3837 -0.0964
 7997TIP3   OH245481   2.911   1.677  13.562  1.1846  0.6404 -0.4076
 7997TIP3    H145482   2.953   1.744  13.508 -0.2489  1.3658 -0.6655
 7997TIP3    H245483   2.917   1.710  13.651  2.0581  0.2426 -0.3088
 7998TIP3   OH245484   3.923   2.241  13.651  0.3108  0.0506 -0.4884
 7998TIP3    H145485   3.916   2.171  13.715  1.7471  0.0368 -0.3159
 7998TIP3    H245486   3.862   2.308  13.682  2.4405  0.9557  2.1343
 7999TIP3   OH245487   2.141   2.046  10.209  0.1371  0.2427  0.2215
 7999TIP3    H145488   2.219   2.057  10.155 -0.2518  1.0864 -0.1873
 7999TIP3    H245489   2.137   1.952  10.227  1.7336  0.2884  1.0029
 8000TIP3   OH245490   6.892   1.526  13.260 -0.2458 -0.3547 -0.1454
 8000TIP3    H145491   6.819   1.577  13.225  0.0388 -0.0651 -0.3219
 8000TIP3    H245492   6.891   1.444  13.211 -0.4308 -0.3368 -0.1704
 8001TIP3   OH245493   1.660   2.391  11.207  1.0036 -0.1092  0.0439
 8001TIP3    H145494   1.699   2.308  11.232  0.6938 -0.0572  0.7223
 8001TIP3    H245495   1.569   2.370  11.186  1.2128 -0.1235 -0.9004
 8002TIP3   OH245496   6.188   4.827   2.678 -0.0845  0.4061  0.4674
 8002TIP3    H145497   6.149   4.905   2.639 -0.2080  0.7444  1.2562
 8002TIP3    H245498   6.268   4.859   2.720  0.8626 -0.2078 -0.7825
 8003TIP3   OH245499   7.182   3.952  10.301 -0.4717  0.5903 -0.2082
 8003TIP3    H145500   7.161   4.041  10.270 -0.3461 -0.1652 -2.6563
 8003TIP3    H245501   7.274   3.940  10.279 -0.5822 -0.2652 -0.2373
 8004TIP3   OH245502   3.874   0.941  14.028 -0.5096  0.6931 -0.4566
 8004TIP3    H145503   3.910   0.964  13.942 -0.1808  0.9100 -0.2623
 8004TIP3    H245504   3.823   1.018  14.054  0.6520  1.2611  0.2260
 8005TIP3   OH245505   2.680   1.537  15.013  0.0264 -0.1844 -0.3287
 8005TIP3    H145506   2.624   1.478  15.063 -0.9326 -0.1490 -1.3150
 8005TIP3    H245507   2.748   1.564  15.075 -0.5817 -0.8626  0.6671
 8006TIP3   OH245508   1.376   2.871  10.361  0.2997  0.4116  0.3773
 8006TIP3    H145509   1.310   2.811  10.328  0.7878  0.7548 -1.3423
 8006TIP3    H245510   1.381   2.853  10.455 -2.1027  0.2954  0.5289
 8007TIP3   OH245511   4.586   3.556   1.290 -0.4115  0.2384 -0.6131
 8007TIP3    H145512   4.610   3.626   1.350 -0.1704 -0.1184 -0.2915
 8007TIP3    H245513   4.501   3.583   1.254 -0.8563  0.1689  0.3472
 8008TIP3   OH245514   0.758   4.514  12.518  0.3515  0.2636  0.3153
 8008TIP3    H145515   0.714   4.441  12.475  1.6749 -0.1333 -0.4115
 8008TIP3    H245516   0.776   4.483  12.607 -0.6282  0.3687  0.5663
 8009TIP3   OH245517   1.312   5.327  15.023 -0.4333 -0.0991  0.9991
 8009TIP3    H145518   1.318   5.284  15.108 -2.3253 -0.5901  0.9282
 8009TIP3    H245519   1.236   5.287  14.981 -0.4087  1.1589 -0.3410
 8010TIP3   OH245520   5.704   6.599  10.440  0.2065  0.8133 -0.4358
 8010TIP3    H145521   5.613   6.621  10.419  0.0639  0.6234 -0.0385
 8010TIP3    H245522   5.756   6.663  10.392 -0.0767  0.0420 -1.8238
 8011TIP3   OH245523   3.895   5.184  11.645  0.1333  0.3516 -0.1051
 8011TIP3    H145524   3.841   5.263  11.645 -0.3921  0.0434  2.0212
 8011TIP3    H245525   3.981   5.214  11.614 -0.4030  1.4686 -0.5704
 8012TIP3   OH245526   4.910   1.331  10.985  0.4785 -0.0945  0.3101
 8012TIP3    H145527   4.949   1.327  11.073  0.8050 -0.7235  0.1425
 8012TIP3    H245528   4.909   1.240  10.955  0.6955  0.1539 -0.4752
 8013TIP3   OH245529   6.693   1.630  13.460  0.3097 -0.5251  0.1254
 8013TIP3    H145530   6.677   1.543  13.496  0.8807 -1.2338 -1.2672
 8013TIP3    H245531   6.788   1.639  13.459  0.3011 -0.4517 -1.0274
 8014TIP3   OH245532   1.437   6.325   9.806  0.0845 -0.0496  0.5589
 8014TIP3    H145533   1.511   6.277   9.769 -1.5778 -1.8447 -0.6491
 8014TIP3    H245534   1.429   6.403   9.751  0.4023 -0.4362 -0.0518
 8015TIP3   OH245535   6.049   2.040  10.893 -0.8173  0.2807 -0.2937
 8015TIP3    H145536   5.992   1.999  10.829 -0.1377  1.4314 -1.6967
 8015TIP3    H245537   6.011   2.017  10.978 -2.6175 -0.0191 -1.1405
 8016TIP3   OH245538   2.490   1.623   1.832  0.5103 -0.3709  0.4640
 8016TIP3    H145539   2.533   1.596   1.751  1.1597  0.6293  0.4586
 8016TIP3    H245540   2.402   1.650   1.804  1.4511  2.1780 -0.3386
 8017TIP3   OH245541   0.696   4.422   5.018  0.4494 -0.2119  0.0915
 8017TIP3    H145542   0.750   4.467   5.084 -1.9823  1.2242  1.2192
 8017TIP3    H245543   0.621   4.480   5.005 -0.9225 -2.1885 -1.2903
 8018TIP3   OH245544   2.445   3.059   9.751  0.1617  0.2490  0.3667
 8018TIP3    H145545   2.413   2.974   9.782 -2.2847  0.3761 -1.4676
 8018TIP3    H245546   2.503   3.038   9.679  0.9642  0.1100  1.0451
 8019TIP3   OH245547   1.195   1.201  13.873 -0.1802 -0.0300  0.1089
 8019TIP3    H145548   1.173   1.154  13.792  1.9854 -0.0290 -0.5451
 8019TIP3    H245549   1.221   1.131  13.934  0.8734  0.1310 -0.1348
 8020TIP3   OH245550   0.967   0.252   3.036 -0.1684  0.0512 -0.4225
 8020TIP3    H145551   0.967   0.299   3.119 -1.2584  1.5763 -1.2470
 8020TIP3    H245552   0.983   0.319   2.969 -3.2471 -0.4010 -1.7610
 8021TIP3   OH245553   0.450   3.089   1.283  0.3713 -0.2191  0.1027
 8021TIP3    H145554   0.489   3.064   1.366 -0.9996  0.3637  0.9556
 8021TIP3    H245555   0.384   3.156   1.305 -0.3300 -0.3547 -1.3809
 8022TIP3   OH245556   3.618   1.229  13.969  1.2655 -0.3206  0.5915
 8022TIP3    H145557   3.692   1.251  13.913 -0.0099  1.6136 -0.4313
 8022TIP3    H245558   3.551   1.197  13.909  0.2342  0.8169  1.1054
 8023TIP3   OH245559   2.792   6.690   1.570  0.6589  0.4251 -0.1681
 8023TIP3    H145560   2.742   6.771   1.564  0.9320  0.5782 -0.3707
 8023TIP3    H245561   2.766   6.652   1.654 -1.1960 -0.4096 -1.0485
 8024TIP3   OH245562   6.098   5.898  13.275 -0.1768 -0.1420 -0.0001
 8024TIP3    H145563   6.181   5.858  13.299  0.3996  0.0635 -1.5526
 8024TIP3    H245564   6.051   5.906  13.358  2.0735  1.4272  1.2425
 8025TIP3   OH245565   3.641   4.663   2.205 -0.3234 -0.0188 -0.2465
 8025TIP3    H145566   3.581   4.700   2.269 -1.8561  0.2337 -1.7486
 8025TIP3    H245567   3.688   4.594   2.252 -2.2217 -0.6325  0.8492
 8026TIP3   OH245568   6.278   3.919   3.523  0.2329 -0.1079  0.0121
 8026TIP3    H145569   6.189   3.898   3.495 -0.3730  2.5422 -0.3944
 8026TIP3    H245570   6.267   3.988   3.588  1.9828  0.2315 -0.0008
 8027TIP3   OH245571   4.229   5.785   1.337  0.6939  0.5533 -0.3119
 8027TIP3    H145572   4.315   5.778   1.296  0.8059  0.2428 -0.0267
 8027TIP3    H245573   4.235   5.864   1.391  1.2943 -0.2421  0.8428
 8028TIP3   OH245574   5.689   3.180  12.503  0.1208  0.0733 -0.5222
 8028TIP3    H145575   5.720   3.270  12.498  0.7820 -0.1190 -0.0604
 8028TIP3    H245576   5.613   3.177  12.446 -1.0729  1.4026  0.9155
 8029TIP3   OH245577   4.836   0.114  12.797 -0.2944  0.3217  0.5159
 8029TIP3    H145578   4.812   0.030  12.836  0.2213  0.7023  1.6781
 8029TIP3    H245579   4.849   0.094  12.704  1.2038 -1.1919  1.0082
 8030TIP3   OH245580   6.988   3.345  14.744  0.1953  0.0288 -0.7067
 8030TIP3    H145581   6.897   3.323  14.765  0.1082  0.7997 -0.2355
 8030TIP3    H245582   6.981   3.426  14.692  0.5934 -0.0700 -0.9121
 8031TIP3   OH245583   5.882   3.677   0.944 -0.1663 -0.1815  0.4441
 8031TIP3    H145584   5.970   3.700   0.972 -0.4698 -1.5913  2.7695
 8031TIP3    H245585   5.850   3.756   0.899  1.2087  1.4274  2.1419
 8032TIP3   OH245586   5.043   3.006   3.161  0.3342 -0.5204 -0.6901
 8032TIP3    H145587   4.948   3.021   3.150  0.2567 -0.2944  0.2027
 8032TIP3    H245588   5.079   3.094   3.172  0.8573 -0.4833 -2.3931
 8033TIP3   OH245589   1.292   1.377  14.693 -0.0086  0.4683  0.0927
 8033TIP3    H145590   1.205   1.394  14.729 -0.2452  0.3605 -0.4277
 8033TIP3    H245591   1.309   1.285  14.714 -0.3024  0.3011 -0.3896
 8034TIP3   OH245592   6.865   4.227   3.070 -0.7198  0.3017 -0.5309
 8034TIP3    H145593   6.897   4.155   3.124  0.8178 -0.5529 -2.4702
 8034TIP3    H245594   6.770   4.225   3.082 -0.7112 -1.9297 -0.3773
 8035TIP3   OH245595   4.406   4.657  11.264 -0.2882 -0.2266  0.0908
 8035TIP3    H145596   4.444   4.655  11.176  0.4043  0.4444  0.3729
 8035TIP3    H245597   4.471   4.615  11.319  0.3813  1.5322  0.6971
 8036TIP3   OH245598   1.179   1.813  14.677  0.1452  0.1780 -0.1655
 8036TIP3    H145599   1.195   1.743  14.614  0.9991 -0.3856  0.6575
 8036TIP3    H245600   1.166   1.768  14.760 -0.4704  0.9415  0.1652
 8037TIP3   OH245601   4.497   6.469  10.676  0.0394 -0.3525 -0.5382
 8037TIP3    H145602   4.447   6.390  10.696 -0.6122 -0.0867 -1.0787
 8037TIP3    H245603   4.558   6.441  10.607 -0.9906 -0.1151 -1.5681
 8038TIP3   OH245604   0.089   5.935  12.023  0.3843  0.0292 -0.0008
 8038TIP3    H145605   0.026   5.930  11.951 -2.1112 -1.5418  2.1054
 8038TIP3    H245606   0.055   6.003  12.081  0.6069 -0.8248  1.1715
 8039TIP3   OH245607   3.232   4.813  12.558 -0.0843 -0.3680 -0.1740
 8039TIP3    H145608   3.290   4.740  12.579  0.9576 -0.1066 -1.9924
 8039TIP3    H245609   3.216   4.856  12.643  2.8981 -0.0836  0.3508
 8040TIP3   OH245610   0.425   5.420   0.799  0.0778 -0.4039 -0.8350
 8040TIP3    H145611   0.495   5.412   0.734  0.2963  2.8417 -1.1741
 8040TIP3    H245612   0.463   5.472   0.870 -1.6785  0.6538 -0.6081
 8041TIP3   OH245613   0.972   0.330   0.550 -0.3539 -0.3264 -0.7947
 8041TIP3    H145614   0.929   0.255   0.508  0.2939  0.2570 -2.5934
 8041TIP3    H245615   1.060   0.332   0.512 -0.8735  2.2988 -2.1137
 8042TIP3   OH245616   0.788   5.251   0.370 -0.5325 -0.7006  0.7596
 8042TIP3    H145617   0.756   5.184   0.431 -1.3164 -1.2502 -0.2224
 8042TIP3    H245618   0.740   5.235   0.289  2.4562 -1.8438 -0.9688
 8043TIP3   OH245619   0.214   5.849  10.775 -0.4280  0.5124 -0.8796
 8043TIP3    H145620   0.224   5.893  10.859 -0.3480 -1.4427  0.1894
 8043TIP3    H245621   0.302   5.847  10.738  0.0488 -0.9330  0.2478
 8044TIP3   OH245622   3.739   1.231  14.901  1.4155  0.3570 -0.6788
 8044TIP3    H145623   3.682   1.246  14.977  0.5491 -0.0605 -1.2383
 8044TIP3    H245624   3.696   1.162  14.851  1.4102  1.3657 -2.1248
 8045TIP3   OH245625   2.390   0.636  15.191 -0.3694 -0.8876 -0.4455
 8045TIP3    H145626   2.312   0.626  15.246  0.0076  1.1176  0.5276
 8045TIP3    H245627   2.434   0.551  15.196  0.2943 -0.4942  3.4265
 8046TIP3   OH245628   2.591   1.618   2.183  0.3228  0.4902 -0.4355
 8046TIP3    H145629   2.645   1.668   2.243  1.7312 -2.0885  0.6101
 8046TIP3    H245630   2.509   1.667   2.177  1.2639  2.3859  1.1927
 8047TIP3   OH245631   3.562   4.432   1.240  0.2890 -0.4421  0.2463
 8047TIP3    H145632   3.473   4.403   1.223 -0.4790  2.3020 -1.0196
 8047TIP3    H245633   3.617   4.368   1.196 -1.1626 -0.9830 -0.8578
 8048TIP3   OH245634   2.771   2.870   4.423 -0.3251  0.4793  0.5280
 8048TIP3    H145635   2.741   2.819   4.499  0.0657  0.2452  0.5315
 8048TIP3    H245636   2.839   2.816   4.384 -0.5557  0.5799 -0.0213
 8049TIP3   OH245637   1.351   2.052   0.197  0.0889 -0.2120  0.1198
 8049TIP3    H145638   1.271   2.093   0.229 -1.2245 -2.8338  0.5003
 8049TIP3    H245639   1.328   2.020   0.110  1.2949  0.4654 -0.4666
 8050TIP3   OH245640   3.027   3.945   0.895  0.3065  0.0025  0.1353
 8050TIP3    H145641   3.039   3.872   0.834 -0.0900 -1.6066  1.9143
 8050TIP3    H245642   3.060   3.914   0.978 -0.0732  1.7926  1.0106
 8051TIP3   OH245643   7.153   4.964   2.268 -0.2633 -0.4382  0.1535
 8051TIP3    H145644   7.167   5.058   2.279  1.0290 -0.2313 -2.4620
 8051TIP3    H245645   7.237   4.925   2.293 -0.6589 -0.8890  0.8131
 8052TIP3   OH245646   4.647   1.983  10.890 -0.0557 -0.3623 -0.5172
 8052TIP3    H145647   4.692   2.028  10.819  1.3110  0.5773  0.8807
 8052TIP3    H245648   4.600   2.052  10.936  1.0636 -0.5013  0.9223
 8053TIP3   OH245649   4.712   0.077   1.279 -0.4610 -0.2466 -0.1343
 8053TIP3    H145650   4.778   0.139   1.248  1.1330 -2.1345 -0.7294
 8053TIP3    H245651   4.741  -0.008   1.246 -2.6635 -1.3134  0.4662
 8054TIP3   OH245652   6.229   4.463  10.035 -0.4995 -0.2892  0.2252
 8054TIP3    H145653   6.316   4.458  10.075 -0.6502 -0.8051  0.5042
 8054TIP3    H245654   6.238   4.528   9.966 -0.4267  1.2102  1.5921
 8055TIP3   OH245655   6.836   2.106   4.448 -0.2363 -0.0728  0.7341
 8055TIP3    H145656   6.928   2.080   4.452  0.0080  0.5442 -0.3211
 8055TIP3    H245657   6.795   2.039   4.394  0.2872  1.2912 -1.5344
 8056TIP3   OH245658   0.385   4.238  11.161 -0.0951 -0.0619  0.0975
 8056TIP3    H145659   0.455   4.230  11.225 -0.6518 -2.0501  0.5461
 8056TIP3    H245660   0.307   4.258  11.213 -0.6583 -2.2446  0.1860
 8057TIP3   OH245661   3.389   6.769   2.588  0.0299  0.3379 -0.0080
 8057TIP3    H145662   3.328   6.822   2.537 -0.7178  0.1094  0.6132
 8057TIP3    H245663   3.401   6.818   2.669 -0.4465 -0.2829  0.4513
 8058TIP3   OH245664   1.201   4.812   5.918 -0.1960  0.3394  0.2211
 8058TIP3    H145665   1.288   4.796   5.880  0.1339 -0.9338  1.4143
 8058TIP3    H245666   1.185   4.905   5.902  0.8825  0.3430 -1.0274
 8059TIP3   OH245667   5.151   2.515   9.445 -0.2655  0.3341 -0.0222
 8059TIP3    H145668   5.093   2.578   9.403 -0.2778  1.7575  2.0032
 8059TIP3    H245669   5.098   2.475   9.514  0.9723  1.3735  1.6045
 8060TIP3   OH245670   6.657   6.265   3.137  0.0689  0.2001 -0.3944
 8060TIP3    H145671   6.748   6.285   3.160 -0.7989  2.5854  1.3762
 8060TIP3    H245672   6.648   6.295   3.047  0.7346  1.0690 -0.1806
 8061TIP3   OH245673   0.079   1.471  11.607 -0.0876  0.5431  0.2323
 8061TIP3    H145674   0.053   1.446  11.695 -0.1403  0.5032  0.2050
 8061TIP3    H245675   0.033   1.411  11.549  0.2528  0.3130  0.1950
 8062TIP3   OH245676   4.509   7.020  10.108 -0.8106 -0.2174 -0.5086
 8062TIP3    H145677   4.577   7.083  10.130 -1.0204 -0.2387  0.2376
 8062TIP3    H245678   4.547   6.935  10.128 -0.9990 -0.2380 -0.2221
 8063TIP3   OH245679   2.399   2.272  13.736  0.4655  0.8612 -0.3419
 8063TIP3    H145680   2.330   2.323  13.694 -0.6769  0.9083  1.4669
 8063TIP3    H245681   2.352   2.211  13.793  1.8813 -0.5092 -0.5646
 8064TIP3   OH245682   6.976   4.663  14.325  0.0944 -0.0471  0.4169
 8064TIP3    H145683   6.966   4.626  14.237 -2.1126  1.9428 -0.2672
 8064TIP3    H245684   7.048   4.726  14.316 -0.7670  0.8681 -0.2653
 8065TIP3   OH245685   5.823   2.610   0.271  0.0156  0.0371 -0.1377
 8065TIP3    H145686   5.825   2.538   0.207 -1.9861 -0.4027  0.2256
 8065TIP3    H245687   5.772   2.575   0.344  0.0701  1.4133  0.5903
 8066TIP3   OH245688   6.074   2.854   3.529  0.0014 -0.1662 -0.0255
 8066TIP3    H145689   5.998   2.877   3.583  0.1777  0.7406 -0.1445
 8066TIP3    H245690   6.093   2.763   3.551 -0.3093  0.0048  0.9878
 8067TIP3   OH245691   2.982   3.077  10.675 -0.4073  0.0162 -0.1532
 8067TIP3    H145692   2.924   3.062  10.749 -0.1137  0.0098  0.0803
 8067TIP3    H245693   2.973   2.998  10.621  1.0516 -1.0202  1.0129
 8068TIP3   OH245694   3.703   6.595   3.905  0.2696  0.0974 -0.2326
 8068TIP3    H145695   3.785   6.561   3.869  1.7246  2.0174  1.0938
 8068TIP3    H245696   3.687   6.541   3.983  0.6425  0.1362 -0.1265
 8069TIP3   OH245697   6.308   5.506  11.451  0.2057  0.3269 -0.2112
 8069TIP3    H145698   6.397   5.477  11.430 -0.1506 -0.5338 -0.5462
 8069TIP3    H245699   6.263   5.509  11.367 -0.5954 -0.9935  0.1507
 8070TIP3   OH245700   4.423   0.792   1.001  0.8698 -0.0155  0.2702
 8070TIP3    H145701   4.416   0.697   0.988  0.6898 -0.2199  1.6190
 8070TIP3    H245702   4.511   0.805   1.036  1.3088  0.4756 -0.9713
 8071TIP3   OH245703   6.939   0.043  14.838  0.4074 -0.1016 -0.1853
 8071TIP3    H145704   6.974   0.063  14.924 -1.3352  0.7275  0.3805
 8071TIP3    H245705   7.005   0.076  14.777  0.2194  2.3007  0.8146
 8072TIP3   OH245706   5.513   2.080  14.102  0.2111  0.6632  0.1385
 8072TIP3    H145707   5.494   2.151  14.164  0.6672  1.1195 -0.2407
 8072TIP3    H245708   5.498   2.118  14.016 -0.3519  0.0476 -0.0453
 8073TIP3   OH245709   4.712   1.190   0.460 -0.1738  0.0782  0.3414
 8073TIP3    H145710   4.740   1.116   0.406  0.9523  0.7118  0.0227
 8073TIP3    H245711   4.621   1.206   0.434  0.3045  0.2808 -1.3008
 8074TIP3   OH245712   0.236   4.749  13.647  0.3332 -0.3011 -0.1099
 8074TIP3    H145713   0.324   4.730  13.679  0.8396  0.7808 -0.7989
 8074TIP3    H245714   0.233   4.709  13.560  0.0079 -0.6489  0.0559
 8075TIP3   OH245715   2.756   6.743  15.119  0.1391  0.5278 -0.6109
 8075TIP3    H145716   2.675   6.794  15.116 -0.8918 -1.0156 -0.0662
 8075TIP3    H245717   2.817   6.791  15.063 -1.9357  0.4079 -3.1505
 8076TIP3   OH245718   0.119   2.401  13.052 -0.3090 -0.3289 -0.2152
 8076TIP3    H145719   0.044   2.433  13.003  0.4667 -2.4898 -3.0722
 8076TIP3    H245720   0.129   2.310  13.025  2.1518 -0.7128  1.5962
 8077TIP3   OH245721   4.878   2.999   0.143  0.2026  0.1886 -0.3493
 8077TIP3    H145722   4.829   2.939   0.086 -0.5996 -0.2416  0.7585
 8077TIP3    H245723   4.810   3.051   0.186  0.2472 -2.9361  4.1111
 8078TIP3   OH245724   2.974   5.550  11.751 -0.3233 -0.3670  0.7655
 8078TIP3    H145725   2.897   5.507  11.789 -0.5844 -0.5942 -0.0106
 8078TIP3    H245726   2.954   5.558  11.658 -0.5084  1.9232  0.9534
 8079TIP3   OH245727   1.303   4.644   5.041  0.0576  0.4661  0.2856
 8079TIP3    H145728   1.254   4.588   5.101 -0.4328  1.5303  0.8894
 8079TIP3    H245729   1.237   4.682   4.983  0.6021 -1.2768 -1.6129
 8080TIP3   OH245730   3.222   3.364  13.608  0.6276  0.3217 -0.5003
 8080TIP3    H145731   3.311   3.369  13.640 -0.0585  0.5825  1.4666
 8080TIP3    H245732   3.179   3.442  13.643 -0.9960 -1.0416  0.6963
 8081TIP3   OH245733   7.147   4.326  14.121  0.6992  0.4300  0.0022
 8081TIP3    H145734   7.097   4.248  14.145 -0.0639  1.4968  2.2170
 8081TIP3    H245735   7.230   4.315  14.166  0.3706  1.1271  0.8036
 8082TIP3   OH245736   4.436   0.083  12.817 -0.1009 -0.2281 -0.0407
 8082TIP3    H145737   4.350   0.052  12.788 -0.1255 -0.8195  0.6249
 8082TIP3    H245738   4.497   0.015  12.787 -0.1511 -0.9563  1.4224
 8083TIP3   OH245739   4.944   0.361   0.644 -0.2483  0.0685  0.5299
 8083TIP3    H145740   4.909   0.275   0.624 -0.5076  0.7239 -2.2380
 8083TIP3    H245741   4.898   0.420   0.584  1.4363  1.7995  0.8396
 8084TIP3   OH245742   2.511   2.772  12.216  0.2493 -0.2404  0.0331
 8084TIP3    H145743   2.586   2.831  12.223  0.3739 -0.4699  0.7059
 8084TIP3    H245744   2.461   2.788  12.296  0.2044 -0.9318  0.1485
 8085TIP3   OH245745   0.720   2.827  13.106  0.0834  0.3422  0.3951
 8085TIP3    H145746   0.805   2.823  13.061 -0.2471 -1.2127 -0.1486
 8085TIP3    H245747   0.706   2.739  13.139 -0.7398  0.9002  1.6332
 8086TIP3   OH245748   6.668   4.464  10.454 -0.5616 -0.1634  0.4339
 8086TIP3    H145749   6.680   4.449  10.360 -0.0938  2.3407  0.0504
 8086TIP3    H245750   6.573   4.472  10.464 -0.5266  1.0905 -0.1048
 8087TIP3   OH245751   2.804   4.232   0.328 -0.4700  0.7290 -0.4552
 8087TIP3    H145752   2.894   4.261   0.342 -0.1878  0.4507 -1.6013
 8087TIP3    H245753   2.790   4.166   0.397  0.3920  0.3805 -0.5929
 8088TIP3   OH245754   1.273   4.503  13.747 -0.0291 -0.4873 -0.4054
 8088TIP3    H145755   1.230   4.428  13.707 -0.0137 -2.2488  2.6309
 8088TIP3    H245756   1.365   4.478  13.754  0.0670  0.0101  0.2239
 8089TIP3   OH245757   3.795   4.480   2.328  0.6830  0.8125  0.0905
 8089TIP3    H145758   3.816   4.388   2.316  0.1368  0.6813  0.0759
 8089TIP3    H245759   3.862   4.527   2.280  0.2507  0.3832 -0.9693
 8090TIP3   OH245760   5.114   4.816   2.941 -0.0371 -0.8070 -0.1888
 8090TIP3    H145761   5.038   4.874   2.933  0.3698  0.1495  2.0539
 8090TIP3    H245762   5.082   4.742   2.993  1.0046  0.7420  2.9124
 8091TIP3   OH245763   0.848   3.824  10.686 -0.2498 -0.4949 -0.1084
 8091TIP3    H145764   0.832   3.839  10.593  1.8547 -1.7974 -0.7583
 8091TIP3    H245765   0.847   3.729  10.696  1.4529 -0.4647  0.7635
 8092TIP3   OH245766   6.745   4.762  15.175  0.1209 -0.1104  0.2470
 8092TIP3    H145767   6.771   4.764  15.083 -1.4781  1.4085 -0.2296
 8092TIP3    H245768   6.688   4.686  15.183  2.3256 -1.8072  0.6551
 8093TIP3   OH245769   5.836   5.901  14.183  0.1985 -0.0635 -0.5030
 8093TIP3    H145770   5.825   5.877  14.091 -0.5628  0.4375 -0.5443
 8093TIP3    H245771   5.784   5.980  14.194 -1.6971 -1.4377  0.9344
 8094TIP3   OH245772   6.530   5.788   1.138  0.4727 -0.3507  0.1868
 8094TIP3    H145773   6.486   5.866   1.171 -0.2846 -0.6022 -0.2123
 8094TIP3    H245774   6.595   5.821   1.077  0.4933 -0.0070  0.3904
 8095TIP3   OH245775   6.268   3.581  11.975  1.0858 -0.3822  0.2276
 8095TIP3    H145776   6.324   3.518  12.021  2.2468 -0.6872 -1.4961
 8095TIP3    H245777   6.256   3.653  12.036  1.3978 -1.3784  1.4978
 8096TIP3   OH245778   0.586   5.515  11.956 -0.0465 -0.1973  0.9852
 8096TIP3    H145779   0.634   5.514  12.038  0.1732  1.8689  0.9123
 8096TIP3    H245780   0.654   5.509  11.888 -0.2846 -3.6326  0.8378
 8097TIP3   OH245781   3.594   5.347   2.928  0.1589  0.1093  0.6103
 8097TIP3    H145782   3.688   5.352   2.911 -0.0167  0.9530 -0.2348
 8097TIP3    H245783   3.564   5.272   2.876 -0.2504  2.2476 -2.5529
 8098TIP3   OH245784   6.225   2.591   4.520  0.2990 -0.0516 -0.0947
 8098TIP3    H145785   6.131   2.604   4.538  0.4603 -0.1188  0.8782
 8098TIP3    H245786   6.260   2.679   4.509 -0.0701 -0.0726 -1.5587
 8099TIP3   OH245787   5.483   5.513   4.838  0.0468  0.0636  0.2308
 8099TIP3    H145788   5.535   5.530   4.760  0.5016 -0.8400  0.3244
 8099TIP3    H245789   5.515   5.430   4.871 -0.5957  0.1078  1.0139
 8100TIP3   OH245790   2.509   6.326   4.176 -0.7936  0.2844 -0.3480
 8100TIP3    H145791   2.578   6.359   4.118 -1.3417  0.1792 -1.0845
 8100TIP3    H245792   2.504   6.233   4.156 -0.5358  0.1192  0.3572
 8101TIP3   OH245793   6.972   0.284   3.680 -0.1690 -0.1107  0.1767
 8101TIP3    H145794   7.052   0.253   3.637 -0.4497 -0.0233 -0.4192
 8101TIP3    H245795   7.004   0.339   3.752  0.3174 -0.7992  0.5075
 8102TIP3   OH245796   1.754   3.611  10.013 -0.2782 -0.3762  0.0961
 8102TIP3    H145797   1.843   3.648  10.013  0.1260 -1.2824  1.2770
 8102TIP3    H245798   1.707   3.663   9.949  0.8955  0.6533  0.0230
 8103TIP3   OH245799   6.873   6.416   3.792 -0.4859 -0.0629 -0.0227
 8103TIP3    H145800   6.885   6.440   3.700  0.6650 -1.2124 -0.2029
 8103TIP3    H245801   6.955   6.375   3.817 -0.7832  0.2191  1.5364
 8104TIP3   OH245802   3.472   1.184  12.180  0.1362 -0.1073 -0.5509
 8104TIP3    H145803   3.382   1.160  12.200  0.3508 -1.4893 -1.1211
 8104TIP3    H245804   3.520   1.101  12.182  1.1689  0.4416 -1.3853
 8105TIP3   OH245805   1.186   4.814  14.290  0.1305 -0.1387  0.2780
 8105TIP3    H145806   1.185   4.771  14.375  1.1859  0.2169  0.4768
 8105TIP3    H245807   1.238   4.756  14.234  1.2986  0.7200  0.4666
 8106TIP3   OH245808   0.708   2.804   3.780 -0.6028 -0.4223  0.0643
 8106TIP3    H145809   0.612   2.794   3.780 -0.6493 -0.1997  1.8397
 8106TIP3    H245810   0.722   2.894   3.749 -1.0426 -0.0086  1.0298
 8107TIP3   OH245811   1.005   3.068   1.669  0.8343  0.0906 -0.2924
 8107TIP3    H145812   1.009   3.080   1.574 -2.9059 -0.4640 -0.6899
 8107TIP3    H245813   0.925   3.113   1.695  0.9808 -1.0261  2.3831
 8108TIP3   OH245814   4.032   0.541  15.188  0.1954 -0.1717  0.0977
 8108TIP3    H145815   4.058   0.576  15.274 -0.3458  1.2979 -0.3094
 8108TIP3    H245816   3.973   0.468  15.209  1.3644 -0.9202  0.9692
 8109TIP3   OH245817   3.310   1.681  13.679 -0.2062  0.2961 -0.1531
 8109TIP3    H145818   3.228   1.651  13.719  0.2781 -1.5872 -0.4774
 8109TIP3    H245819   3.305   1.776  13.685 -1.6244  0.1900  1.4156
 8110TIP3   OH245820   6.394   0.770   0.425  0.3395  0.2006 -0.0191
 8110TIP3    H145821   6.390   0.724   0.509 -0.1839  0.9499  0.3818
 8110TIP3    H245822   6.448   0.847   0.443 -0.5406  0.8555 -0.1106
 8111TIP3   OH245823   3.788   1.766  14.268  0.4199  0.3026  0.3456
 8111TIP3    H145824   3.774   1.783  14.361 -1.9270  0.2849  0.0445
 8111TIP3    H245825   3.828   1.679  14.266  1.4238  0.7107  1.3461
 8112TIP3   OH245826   0.832   3.066  15.223 -0.2757 -0.6213  0.2454
 8112TIP3    H145827   0.871   3.036  15.305  0.1585 -0.1024  0.2361
 8112TIP3    H245828   0.867   3.007  15.157  0.3716 -0.2624  0.2620
 8113TIP3   OH245829   0.256   7.008   4.613  0.8994  0.2613 -0.2874
 8113TIP3    H145830   0.341   7.050   4.617  2.2020 -2.2736  0.8016
 8113TIP3    H245831   0.264   6.945   4.542 -0.7331  1.1865 -1.3757
 8114TIP3   OH245832   0.664   5.769   5.165  0.3772  0.4503  0.0176
 8114TIP3    H145833   0.649   5.863   5.177 -1.4894  0.3480 -0.9975
 8114TIP3    H245834   0.660   5.733   5.254 -1.6170  1.0532  0.2422
 8115TIP3   OH245835   5.656   3.942  10.426  0.0348 -0.0160  0.0039
 8115TIP3    H145836   5.708   3.892  10.362 -0.1281 -0.6087  0.3253
 8115TIP3    H245837   5.612   4.009  10.375  0.2501 -0.2118 -0.4417
 8116TIP3   OH245838   2.152   3.830  11.614 -0.0801  0.1355  0.0710
 8116TIP3    H145839   2.132   3.886  11.689  0.4708 -1.4778  1.4841
 8116TIP3    H245840   2.246   3.813  11.621 -0.1047 -0.4000 -0.7354
 8117TIP3   OH245841   0.924   6.859  14.378 -0.1558  0.1227  0.3905
 8117TIP3    H145842   0.919   6.867  14.283 -1.8261  2.6249  0.5971
 8117TIP3    H245843   0.978   6.932  14.406  2.0518 -1.7465  1.3265
 8118TIP3   OH245844   3.615   6.297  13.261  0.3300  0.0876 -0.1124
 8118TIP3    H145845   3.543   6.236  13.274 -0.4689  1.1906  0.8954
 8118TIP3    H245846   3.625   6.341  13.346  2.1824 -0.0229 -0.2326
 8119TIP3   OH245847   2.193   4.028  13.329 -0.0353  0.4080 -0.0370
 8119TIP3    H145848   2.130   3.967  13.367  2.9433 -2.4408  0.8040
 8119TIP3    H245849   2.197   4.005  13.237  1.7425 -1.5159  0.4386
 8120TIP3   OH245850   6.074   3.461  13.286  0.5295  0.2407  0.2913
 8120TIP3    H145851   6.123   3.434  13.364 -0.0469  0.5710  0.7831
 8120TIP3    H245852   6.002   3.515  13.321 -1.2304 -1.6358 -0.2105
 8121TIP3   OH245853   0.387   7.136  14.607 -0.3215  0.2923  0.2056
 8121TIP3    H145854   0.473   7.132  14.648 -0.1781 -0.3004 -0.1399
 8121TIP3    H245855   0.384   7.222  14.565  1.0500 -0.5605 -1.7896
 8122TIP3   OH245856   2.125   3.486  11.094 -0.1434 -0.2522  0.0084
 8122TIP3    H145857   2.201   3.539  11.119 -0.6042  1.6718 -2.2922
 8122TIP3    H245858   2.154   3.396  11.106  2.0316  0.4498  0.5138
 8123TIP3   OH245859   0.989   2.203   0.248 -0.1542  0.6528 -0.3109
 8123TIP3    H145860   1.013   2.142   0.178  1.0814 -1.5510  1.8657
 8123TIP3    H245861   0.912   2.164   0.289 -1.0130  2.0437 -0.5464
 8124TIP3   OH245862   6.531   2.578   3.389 -0.4992 -0.1203  0.0316
 8124TIP3    H145863   6.516   2.631   3.311  1.8390  1.3624  0.4794
 8124TIP3    H245864   6.533   2.488   3.356 -0.9487  0.3534 -1.3751
 8125TIP3   OH245865   7.070   2.108  14.823 -0.4946  0.1573 -0.1539
 8125TIP3    H145866   7.144   2.134  14.768 -1.4450  0.8210 -1.1604
 8125TIP3    H245867   7.071   2.013  14.822  0.2497  0.1601 -0.2867
 8126TIP3   OH245868   1.676   3.886   9.629 -0.1141 -0.6315 -0.3447
 8126TIP3    H145869   1.606   3.860   9.569 -0.6066  0.8615 -0.4507
 8126TIP3    H245870   1.696   3.977   9.605  0.2466 -0.2723  1.2115
 8127TIP3   OH245871   0.794   1.977  15.244 -0.3875  0.1041  0.0390
 8127TIP3    H145872   0.737   2.001  15.316 -0.3875  0.4788 -0.0850
 8127TIP3    H245873   0.867   2.039  15.249  0.7563 -1.2588  1.0764
 8128TIP3   OH245874   2.036   0.808  14.744 -0.0427  0.0447  0.0127
 8128TIP3    H145875   2.002   0.720  14.761  1.6567 -0.9462 -1.3767
 8128TIP3    H245876   2.093   0.826  14.819 -0.5190  0.0581  0.3813
 8129TIP3   OH245877   4.224   6.195  14.998  0.5801  0.6005 -0.1796
 8129TIP3    H145878   4.157   6.141  15.039 -1.5949  2.7222 -0.7417
 8129TIP3    H245879   4.293   6.202  15.065 -0.5435 -0.1597  1.1099
 8130TIP3   OH245880   6.458   3.594   0.889 -0.3324  0.1304  0.4553
 8130TIP3    H145881   6.497   3.509   0.912 -1.6236 -0.4240  0.6830
 8130TIP3    H245882   6.429   3.631   0.972 -0.3237  0.5205  0.2874
 8131TIP3   OH245883   4.924   0.539  12.760 -0.1667 -0.0978 -0.0280
 8131TIP3    H145884   4.841   0.493  12.771 -0.3288  0.1777 -0.0756
 8131TIP3    H245885   4.987   0.470  12.739 -0.2212 -0.4090  0.7882
 8132TIP3   OH245886   5.585   5.935  12.799 -0.0845 -0.1836 -0.7454
 8132TIP3    H145887   5.490   5.937  12.789 -0.3434  2.2133  1.1338
 8132TIP3    H245888   5.615   5.877  12.730 -3.0395 -2.7749 -0.0853
 8133TIP3   OH245889   5.734   5.775   4.952  0.4729  0.1373  0.5041
 8133TIP3    H145890   5.653   5.826   4.950 -2.0341 -3.3914 -2.2281
 8133TIP3    H245891   5.768   5.781   4.863  1.4486 -1.0006  0.7784
 8134TIP3   OH245892   4.297   0.593   1.331  0.0031 -0.5722 -0.3508
 8134TIP3    H145893   4.223   0.619   1.386 -0.3390  3.2306 -2.2642
 8134TIP3    H245894   4.264   0.604   1.242  2.6765  0.8054 -1.2602
 8135TIP3   OH245895   3.938   6.731  14.703  0.1656  0.1274 -0.4159
 8135TIP3    H145896   3.861   6.779  14.733 -0.5554 -0.6580 -0.9456
 8135TIP3    H245897   3.993   6.797  14.660  0.7882  1.0943  1.7225
 8136TIP3   OH245898   5.773   2.276  13.807 -0.2170 -0.2705  0.3379
 8136TIP3    H145899   5.851   2.298  13.756 -1.4725  1.5744 -0.9054
 8136TIP3    H245900   5.789   2.186  13.837  1.9186 -0.3160 -0.7267
 8137TIP3   OH245901   5.628   6.501   3.010  0.0938 -0.8576  0.1229
 8137TIP3    H145902   5.631   6.597   3.005 -1.2332 -0.8467 -1.3015
 8137TIP3    H245903   5.650   6.472   2.922  0.6444 -1.8784  0.5858
 8138TIP3   OH245904   0.449   3.793  12.144 -0.9081 -0.0167 -0.3774
 8138TIP3    H145905   0.529   3.769  12.097 -1.3589 -1.2350 -0.5548
 8138TIP3    H245906   0.383   3.733  12.110 -2.0926  1.4708 -0.7827
 8139TIP3   OH245907   4.386   4.683   3.598  0.0097 -0.0822  0.2929
 8139TIP3    H145908   4.323   4.625   3.643 -0.4538  0.9947  1.0803
 8139TIP3    H245909   4.471   4.654   3.628 -0.1151 -1.2425 -0.3990
 8140TIP3   OH245910   5.410   6.734  13.438 -0.1157 -0.4791 -0.2044
 8140TIP3    H145911   5.467   6.805  13.468 -0.6471 -0.0944 -0.0678
 8140TIP3    H245912   5.409   6.742  13.343  0.0996 -0.5182 -0.2090
 8141TIP3   OH245913   4.168   6.583  13.951  0.0420  0.1252 -0.3198
 8141TIP3    H145914   4.157   6.564  13.858  2.3803  3.7094 -1.5241
 8141TIP3    H245915   4.079   6.602  13.982 -1.0575 -3.0107 -1.1891
 8142TIP3   OH245916   3.433   4.013  10.641  0.5339 -0.5227  0.1957
 8142TIP3    H145917   3.346   3.984  10.668  0.9366 -1.8490  0.1747
 8142TIP3    H245918   3.432   4.108  10.652 -0.2448 -0.7028  2.1924
 8143TIP3   OH245919   7.052   2.761  13.653  0.5268  0.1968 -0.0465
 8143TIP3    H145920   6.960   2.755  13.679  0.8457  1.6031  1.6134
 8143TIP3    H245921   7.064   2.852  13.626  1.4527  0.0669 -0.1110
 8144TIP3   OH245922   3.727   7.235  12.554 -0.2595 -0.0024 -0.2506
 8144TIP3    H145923   3.742   7.183  12.475  2.2973  0.9893 -0.5135
 8144TIP3    H245924   3.790   7.201  12.617 -0.7788  0.6519  0.6395
 8145TIP3   OH245925   1.982   6.348  14.902  0.1055 -0.3410  0.4554
 8145TIP3    H145926   2.065   6.378  14.864 -0.0743 -1.5401 -0.9618
 8145TIP3    H245927   1.987   6.253  14.899 -0.9592 -0.4353  1.2084
 8146TIP3   OH245928   4.813   1.135  12.345  0.2721 -0.2272 -0.3907
 8146TIP3    H145929   4.775   1.204  12.399  1.2976 -0.3272  0.5001
 8146TIP3    H245930   4.816   1.172  12.257 -0.2084  0.4440 -0.1293
 8147TIP3   OH245931   2.517   4.884   1.054 -0.3434 -0.1385  0.0385
 8147TIP3    H145932   2.441   4.900   1.111  0.1996 -0.9906  1.0451
 8147TIP3    H245933   2.592   4.911   1.107  0.0872  0.4101 -0.8355
 8148TIP3   OH245934   0.452   6.389   1.194  0.7622  0.2301 -0.4243
 8148TIP3    H145935   0.383   6.456   1.200  2.2574  1.8908 -0.9014
 8148TIP3    H245936   0.427   6.337   1.117  0.1162  0.9148 -0.6969
 8149TIP3   OH245937   3.574   0.153  10.130  0.6432  0.1462 -0.2104
 8149TIP3    H145938   3.564   0.087  10.062  0.6935 -1.5683  1.3608
 8149TIP3    H245939   3.502   0.214  10.115  0.6987 -0.1587 -1.8123
 8150TIP3   OH245940   0.545   4.874  13.455  0.0954  0.3188 -0.1456
 8150TIP3    H145941   0.584   4.864  13.368 -1.3948 -2.9148 -0.5783
 8150TIP3    H245942   0.453   4.896  13.437 -0.0211  0.4981  0.6539
 8151TIP3   OH245943   0.277   3.637   0.813 -0.1100  0.5133 -0.3186
 8151TIP3    H145944   0.294   3.619   0.721  1.6238  1.6711 -0.2953
 8151TIP3    H245945   0.314   3.725   0.827  0.2134  0.1218  1.6068
 8152TIP3   OH245946   6.030   5.595   4.987  0.0730 -0.8082 -0.0685
 8152TIP3    H145947   5.973   5.600   5.064 -1.7102  2.9243 -1.3489
 8152TIP3    H245948   6.116   5.623   5.018 -0.2548 -0.8179  0.8686
 8153TIP3   OH245949   5.423   0.223   2.916  0.7902 -0.2229 -0.0206
 8153TIP3    H145950   5.396   0.195   2.829  0.5473  0.0183 -0.0264
 8153TIP3    H245951   5.347   0.206   2.972  0.0342  1.8059 -0.3142
 8154TIP3   OH245952   0.181   2.869  13.055 -0.7520 -0.1989 -0.0924
 8154TIP3    H145953   0.212   2.908  13.136 -0.9170 -0.4660  0.1029
 8154TIP3    H245954   0.143   2.785  13.082  0.8565 -1.1539 -0.6631
 8155TIP3   OH245955   5.688   7.171  14.007  0.0930  0.0354  0.3436
 8155TIP3    H145956   5.737   7.253  13.995 -0.6531  0.7008  1.6618
 8155TIP3    H245957   5.607   7.183  13.956  0.4088 -0.2999 -0.2600
 8156TIP3   OH245958   5.987   3.015  13.967 -0.4826  0.0490 -0.4419
 8156TIP3    H145959   6.037   2.937  13.941 -0.4197 -0.6446  1.5624
 8156TIP3    H245960   5.941   3.041  13.888 -0.7669 -2.2305 -1.1123
 8157TIP3   OH245961   3.509   2.028  13.595 -0.4067  0.3528 -0.2654
 8157TIP3    H145962   3.591   1.980  13.596  0.9689  2.5280 -1.6278
 8157TIP3    H245963   3.481   2.028  13.504  0.2977  3.0647 -0.5573
 8158TIP3   OH245964   7.001   4.919  10.082  0.0280 -0.2882 -0.1820
 8158TIP3    H145965   7.053   4.862  10.026  2.3934  1.9019 -0.3632
 8158TIP3    H245966   6.991   4.870  10.164  3.5660 -0.3597  0.3392
 8159TIP3   OH245967   5.254   4.208   3.679 -0.2668  0.1959 -0.0422
 8159TIP3    H145968   5.283   4.291   3.717  0.2398 -0.7291  1.7253
 8159TIP3    H245969   5.317   4.190   3.610 -0.5490  1.4065 -0.6368
 8160TIP3   OH245970   0.166   0.269  10.991  0.0818 -0.2486  0.4869
 8160TIP3    H145971   0.172   0.354  11.035  0.9706 -0.8568  1.6041
 8160TIP3    H245972   0.087   0.275  10.937  0.6583  1.6339 -0.2503
 8161TIP3   OH245973   5.102   4.041  12.918 -0.0471 -0.5231  0.3889
 8161TIP3    H145974   5.191   4.045  12.954 -0.0562 -0.9531  0.4636
 8161TIP3    H245975   5.089   4.126  12.877  0.6295 -0.6714 -0.1585
 8162TIP3   OH245976   7.227   6.087   0.247  0.6253 -0.3592  0.6766
 8162TIP3    H145977   7.166   6.160   0.260  1.4473  0.3042  0.8913
 8162TIP3    H245978   7.257   6.097   0.157  3.2196  1.5693  1.6304
 8163TIP3   OH245979   0.555   7.242   0.038 -0.4950 -0.7778  0.0007
 8163TIP3    H145980   0.528   7.297  -0.035  0.8022  0.0089  0.0976
 8163TIP3    H245981   0.650   7.235   0.030 -0.2776 -0.4156  1.7661
 8164TIP3   OH245982   0.425   1.823   5.004  0.4675 -0.4384  0.1206
 8164TIP3    H145983   0.438   1.773   4.923  1.2527 -2.0241  1.1842
 8164TIP3    H245984   0.505   1.808   5.055  0.8396  2.0891  0.4438
 8165TIP3   OH245985   6.074   1.418   3.169  0.2628  0.0618  0.2879
 8165TIP3    H145986   6.050   1.476   3.242 -0.7057  0.0230  0.0107
 8165TIP3    H245987   6.161   1.447   3.144  1.2839 -0.9122  2.4590
 8166TIP3   OH245988   3.321   4.310  12.747  0.4682  0.0056  0.3916
 8166TIP3    H145989   3.385   4.299  12.817  2.2061 -0.7707 -1.2177
 8166TIP3    H245990   3.366   4.365  12.682 -1.1686  0.9091 -0.0517
 8167TIP3   OH245991   0.986   5.034  11.337 -0.4307  0.6402  0.0614
 8167TIP3    H145992   0.954   5.123  11.323 -0.1229  0.6862 -0.3626
 8167TIP3    H245993   1.074   5.034  11.302 -1.0076 -0.2698 -1.4915
 8168TIP3   OH245994   0.392   0.027  12.003  0.2566  0.4506 -0.3972
 8168TIP3    H145995   0.427  -0.042  11.947  0.4670  0.7676 -0.6606
 8168TIP3    H245996   0.336  -0.019  12.067  1.7894 -0.1634  0.5573
 8169TIP3   OH245997   5.480   4.183  14.534 -0.0658 -0.3927 -0.6133
 8169TIP3    H145998   5.467   4.214  14.623 -0.0845  2.4374 -1.5216
 8169TIP3    H245999   5.539   4.246  14.494  0.8136 -2.1835 -2.3269
 8170TIP3   OH246000   2.658   7.250   2.551 -0.0685  0.2135 -0.1449
 8170TIP3    H146001   2.572   7.248   2.593 -2.1974  0.8095 -4.0267
 8170TIP3    H246002   2.685   7.342   2.556  1.6793 -0.3047  3.1091
 8171TIP3   OH246003   0.300   0.350  11.295  0.6826  0.2771 -0.3760
 8171TIP3    H146004   0.282   0.382  11.207 -0.7395  0.8672  0.0990
 8171TIP3    H246005   0.378   0.296  11.285  2.4910  2.8572 -1.4505
 8172TIP3   OH246006   5.099   2.117   2.201  0.3665 -0.4656 -0.2811
 8172TIP3    H146007   5.193   2.100   2.193  0.2721 -1.4463  0.5377
 8172TIP3    H246008   5.071   2.066   2.276 -0.4809  1.2796  0.6539
 8173TIP3   OH246009   4.141   6.557  14.402 -0.0690 -0.0060  0.0120
 8173TIP3    H146010   4.116   6.640  14.363 -0.4322 -0.8011 -1.5030
 8173TIP3    H246011   4.060   6.506  14.405 -0.0940  0.0439  1.9610
 8174TIP3   OH246012   3.390   6.899   4.189  0.1075  0.1700 -0.2775
 8174TIP3    H146013   3.455   6.881   4.258  0.3057  0.5040 -0.3769
 8174TIP3    H246014   3.328   6.827   4.197  0.0726  0.2552  0.3186
 8175TIP3   OH246015   0.508   1.442  11.772 -0.0625  0.5256 -0.0901
 8175TIP3    H146016   0.571   1.401  11.712  0.1260  1.1624 -0.3342
 8175TIP3    H246017   0.471   1.369  11.822 -0.4470 -0.0591 -1.1948
 8176TIP3   OH246018   6.786   6.691  12.922  0.2668 -0.5315 -0.3002
 8176TIP3    H146019   6.707   6.640  12.942 -0.7552  1.1552  0.1914
 8176TIP3    H246020   6.782   6.704  12.827 -0.4293  0.1059 -0.1951
 8177TIP3   OH246021   5.154   5.195  12.859  0.2242  0.7375  0.2039
 8177TIP3    H146022   5.063   5.222  12.868 -0.2351 -1.4352  3.2270
 8177TIP3    H246023   5.201   5.249  12.922  0.7834  0.7142 -0.1872
 8178TIP3   OH246024   4.642   2.412   3.754  0.3895 -0.1765 -0.1178
 8178TIP3    H146025   4.602   2.487   3.796  1.7058 -0.0508  0.9814
 8178TIP3    H246026   4.599   2.406   3.669 -0.7819  0.8996  0.3729
 8179TIP3   OH246027   3.944   1.743  10.030  0.1346  0.1967 -0.3386
 8179TIP3    H146028   3.920   1.654  10.057  0.4206  0.5354  1.1005
 8179TIP3    H246029   4.000   1.730   9.953 -1.3557 -0.7656 -1.3265
 8180TIP3   OH246030   5.173   0.379  14.286  0.1038 -0.1573 -0.2547
 8180TIP3    H146031   5.240   0.440  14.256  0.0513 -0.3741 -0.8231
 8180TIP3    H246032   5.163   0.399  14.379 -1.1110  1.8744 -0.7591
 8181TIP3   OH246033   4.966   5.576  13.005  0.1340  0.5210 -0.0101
 8181TIP3    H146034   5.006   5.640  13.063  0.0285 -0.3229  1.0287
 8181TIP3    H246035   4.873   5.580  13.024 -0.4189  2.6416 -2.5872
 8182TIP3   OH246036   0.150   1.507  13.475  0.5821 -0.0211  0.4129
 8182TIP3    H146037   0.097   1.508  13.395 -0.1018 -0.1286  0.8607
 8182TIP3    H246038   0.222   1.567  13.456  0.9928 -0.8218 -0.6672
 8183TIP3   OH246039   6.874   3.072  10.569  0.4615  0.4417 -0.4166
 8183TIP3    H146040   6.908   3.118  10.492  0.6642 -0.9109 -1.1629
 8183TIP3    H246041   6.779   3.082  10.563  0.4406 -0.0899 -1.1461
 8184TIP3   OH246042   6.612   0.367  11.287  0.2033  0.4325 -0.0348
 8184TIP3    H146043   6.678   0.436  11.282  0.4716  0.3762  1.9094
 8184TIP3    H246044   6.660   0.290  11.317 -0.6473  0.2748  0.9704
 8185TIP3   OH246045   3.833   0.763  15.311  0.1348  0.1660 -1.1034
 8185TIP3    H146046   3.772   0.783  15.382  1.6702  0.4168  0.2076
 8185TIP3    H246047   3.859   0.672  15.326 -0.9360 -0.3954 -2.4731
 8186TIP3   OH246048   1.828   0.656  11.457  0.5428  0.1312  0.1400
 8186TIP3    H146049   1.917   0.621  11.451 -0.0291 -2.4902  3.7134
 8186TIP3    H246050   1.774   0.591  11.413  0.0311 -0.7965  2.0178
 8187TIP3   OH246051   3.065   4.648   1.980  0.1989 -0.2755 -0.3086
 8187TIP3    H146052   3.059   4.725   1.922 -0.6712  0.1931  0.3782
 8187TIP3    H246053   3.159   4.637   1.995  0.3087  2.1385  1.4710
 8188TIP3   OH246054   4.113   2.516   0.089 -0.5179  0.4917 -0.3596
 8188TIP3    H146055   4.042   2.464   0.128  1.6310 -2.0015  0.5352
 8188TIP3    H246056   4.183   2.511   0.153  1.3341  0.7187 -2.2809
 8189TIP3   OH246057   1.385   3.975  13.997  0.2000  0.6802 -0.2297
 8189TIP3    H146058   1.423   3.890  14.018  1.5847  1.5132  0.7602
 8189TIP3    H246059   1.372   3.973  13.902  1.5478 -0.1200 -0.4116
 8190TIP3   OH246060   0.507   6.689   0.482 -0.4556  0.4662  0.5588
 8190TIP3    H146061   0.539   6.675   0.571 -0.4065 -1.2144  0.3179
 8190TIP3    H246062   0.546   6.618   0.431 -0.5556  1.3445 -0.7940
 8191TIP3   OH246063   7.140   7.075  12.989 -0.2050  0.1103  0.3038
 8191TIP3    H146064   7.223   7.032  12.970  0.2505  0.9746  0.2647
 8191TIP3    H246065   7.153   7.115  13.075 -0.4587  0.5130  0.1620
 8192TIP3   OH246066   6.624   0.261   3.355  0.4432  0.1780 -0.3919
 8192TIP3    H146067   6.663   0.298   3.434  0.8965  1.0721 -1.0276
 8192TIP3    H246068   6.548   0.316   3.337  1.1474  0.8796 -1.3636
 8193TIP3   OH246069   3.861   3.388  10.543  1.2256  0.0545  0.2449
 8193TIP3    H146070   3.843   3.338  10.463  0.6277  0.5804  0.0467
 8193TIP3    H246071   3.873   3.478  10.513 -0.6057  0.5565  0.8992
 8194TIP3   OH246072   1.518   0.067  10.131 -0.0313 -0.3784 -0.1437
 8194TIP3    H146073   1.613   0.078  10.132 -0.2832  2.8019 -1.1918
 8194TIP3    H246074   1.483   0.151  10.161 -2.5439 -1.4179  0.1259
 8195TIP3   OH246075   2.708   6.710   0.724  0.0689 -0.0368  0.0512
 8195TIP3    H146076   2.689   6.617   0.735 -3.0308  0.4490 -0.2689
 8195TIP3    H246077   2.706   6.724   0.629  1.7378  0.1976  0.0157
 8196TIP3   OH246078   5.927   1.867   3.532  0.6651  0.1232  0.1430
 8196TIP3    H146079   5.850   1.886   3.585  0.7955 -2.3970  1.3966
 8196TIP3    H246080   5.999   1.866   3.594  1.3443  0.1880 -0.6293
 8197TIP3   OH246081   0.039   4.429  15.164 -0.3994  0.0150 -0.5363
 8197TIP3    H146082  -0.015   4.398  15.236  1.4590 -0.0855  0.8838
 8197TIP3    H246083   0.030   4.524  15.166 -0.7148 -0.0146 -0.4880
 8198TIP3   OH246084   4.922   2.442  14.001  0.0526 -0.4366  0.3422
 8198TIP3    H146085   4.828   2.434  14.018 -1.0417  3.2170 -2.6009
 8198TIP3    H246086   4.936   2.391  13.921  0.2707  0.1162  0.0257
 8199TIP3   OH246087   4.632   5.898   5.074  0.3801  1.0030 -0.3988
 8199TIP3    H146088   4.708   5.939   5.116  0.1714 -1.2362  2.5355
 8199TIP3    H246089   4.666   5.862   4.992  2.9965 -1.0655  1.3901
 8200TIP3   OH246090   3.008   3.226  15.019 -0.0737  0.2376 -0.1895
 8200TIP3    H146091   3.084   3.236  14.962 -2.0284 -1.4485 -3.3921
 8200TIP3    H246092   3.013   3.136  15.051 -0.5931  0.1756 -0.2706
 8201TIP3   OH246093   5.219   6.097  11.359 -0.0148  0.0636 -0.5469
 8201TIP3    H146094   5.178   6.051  11.432  0.6712 -0.9171 -0.7440
 8201TIP3    H246095   5.296   6.140  11.398  0.7841 -1.0828 -0.7848
 8202TIP3   OH246096   0.014   0.228   9.557 -0.3387  0.6257 -0.3633
 8202TIP3    H146097   0.000   0.223   9.462 -1.6431  1.8189 -0.2716
 8202TIP3    H246098  -0.039   0.303   9.584  2.2701  2.1399  0.8962
 8203TIP3   OH246099   4.176   2.385   2.430 -0.0298  0.1664 -0.0246
 8203TIP3    H146100   4.246   2.395   2.494 -0.2979  0.9945  0.1568
 8203TIP3    H246101   4.155   2.475   2.403  1.6608 -0.2075 -3.0632
 8204TIP3   OH246102   6.194   4.193  12.426 -0.4320 -0.6598  0.3077
 8204TIP3    H146103   6.201   4.258  12.496 -2.2020  0.5950 -0.6099
 8204TIP3    H246104   6.192   4.109  12.471 -0.7084  0.0682  1.7062
 8205TIP3   OH246105   6.677   1.896  12.571  0.4664  0.4579 -0.2142
 8205TIP3    H146106   6.641   1.928  12.653  1.0397  0.9296 -0.1441
 8205TIP3    H246107   6.608   1.839  12.535  0.3170  0.0433  0.7092
 8206TIP3   OH246108   1.856   0.238  12.395  0.3012 -0.3904  0.1183
 8206TIP3    H146109   1.852   0.334  12.386  2.1331 -0.2286  0.5947
 8206TIP3    H246110   1.862   0.223  12.489 -0.3919 -1.0073  0.0671
 8207TIP3   OH246111   1.958   3.042  11.578 -0.2262  0.5347 -0.6870
 8207TIP3    H146112   1.934   2.964  11.628  0.1518  0.5864 -0.4212
 8207TIP3    H246113   1.942   3.115  11.639 -1.3388  0.7383 -1.1988
 8208TIP3   OH246114   1.642   4.005   2.222 -0.0360 -0.0394  0.3474
 8208TIP3    H146115   1.605   4.085   2.260 -0.4777  0.4325 -1.0270
 8208TIP3    H246116   1.567   3.959   2.186  0.4038 -0.3157 -0.2277
 8209TIP3   OH246117   1.417   2.190  15.173  0.0480 -0.2000 -0.0521
 8209TIP3    H146118   1.507   2.210  15.198  0.5983 -2.1971 -0.3166
 8209TIP3    H246119   1.417   2.195  15.077 -0.3133  0.4870 -0.0240
 8210TIP3   OH246120   3.649   0.290  11.899 -0.5743  0.3472 -0.4588
 8210TIP3    H146121   3.557   0.266  11.911 -0.4127 -0.0640 -0.0006
 8210TIP3    H246122   3.692   0.262  11.980 -0.2251  1.4763 -0.2479
 8211TIP3   OH246123   1.302   0.246  11.139 -0.6324 -0.0647  0.2052
 8211TIP3    H146124   1.209   0.265  11.130 -1.2010 -2.4685  0.2780
 8211TIP3    H246125   1.334   0.241  11.049 -0.2781  1.8470  0.1893
 8212TIP3   OH246126   5.912   1.920  11.107 -0.7052  0.0255 -0.4165
 8212TIP3    H146127   5.891   1.849  11.046  0.1626  0.5207 -1.3015
 8212TIP3    H246128   5.950   1.875  11.183 -3.2804 -0.7341  0.5033
 8213TIP3   OH246129   2.202   1.079  13.015  0.3272  0.4478 -0.4211
 8213TIP3    H146130   2.138   1.109  13.080 -1.3206 -0.5179 -1.5308
 8213TIP3    H246131   2.246   1.159  12.987 -0.4206  1.1496  0.3416
 8214TIP3   OH246132   2.477   1.439  12.099 -0.5572  0.5559 -0.9496
 8214TIP3    H146133   2.501   1.355  12.059  0.0600  0.2447  0.0429
 8214TIP3    H246134   2.414   1.415  12.168  0.4602  0.7684  0.0820
 8215TIP3   OH246135   3.632   4.399  14.433 -0.1282  0.2689 -0.0491
 8215TIP3    H146136   3.567   4.448  14.382  0.0496  0.8271  0.2574
 8215TIP3    H246137   3.584   4.322  14.465 -0.5719  0.5545 -0.0230
 8216TIP3   OH246138   2.338   7.023   1.479  0.0688  0.0712 -0.4722
 8216TIP3    H146139   2.247   7.027   1.508 -0.0337 -0.1280 -0.7686
 8216TIP3    H246140   2.334   6.986   1.391  0.5755 -1.5630  0.1677
 8217TIP3   OH246141   6.623   3.768  14.354  0.3156 -0.6024  0.2277
 8217TIP3    H146142   6.654   3.707  14.421 -1.0647 -0.2458  1.2205
 8217TIP3    H246143   6.618   3.852  14.398 -3.1819 -0.8397  0.5221
 8218TIP3   OH246144   0.555   3.555   3.146 -0.6904  0.5481  0.5169
 8218TIP3    H146145   0.480   3.556   3.087  0.6248 -0.4457 -1.2741
 8218TIP3    H246146   0.612   3.625   3.113 -0.1149  0.2492  0.8666
 8219TIP3   OH246147   7.099   5.924  11.849 -0.4164  0.3455  0.2364
 8219TIP3    H146148   7.059   5.979  11.916 -0.8917 -0.4404  0.6143
 8219TIP3    H246149   7.032   5.916  11.781 -0.5210 -0.1277  0.3908
 8220TIP3   OH246150   4.206   0.414   0.173 -0.4553 -0.1706  0.0287
 8220TIP3    H146151   4.223   0.401   0.266 -2.7057  0.7817  0.6315
 8220TIP3    H246152   4.181   0.506   0.165 -0.2617 -0.2159 -1.5451
 8221TIP3   OH246153   2.963   3.200  11.147 -0.5576 -0.6944 -0.1984
 8221TIP3    H146154   2.900   3.254  11.195 -0.2691 -1.1933  0.7624
 8221TIP3    H246155   2.944   3.110  11.175  0.8277 -0.8203  0.4175
 8222TIP3   OH246156   0.631   2.122  13.462 -0.4577  0.4739  0.1036
 8222TIP3    H146157   0.607   2.205  13.504 -0.2782  0.4305  0.2946
 8222TIP3    H246158   0.695   2.083  13.522 -1.5713 -0.4566  0.7221
 8223TIP3   OH246159   1.240   0.446  14.646  0.5430 -0.2108 -0.1876
 8223TIP3    H146160   1.160   0.482  14.609  0.8419  1.2527  0.5227
 8223TIP3    H246161   1.217   0.356  14.670 -1.3066  0.5687  1.2386
 8224TIP3   OH246162   3.573   6.392   5.314  0.2503  0.2383  0.1182
 8224TIP3    H146163   3.555   6.422   5.225 -1.6327  1.0543  0.7265
 8224TIP3    H246164   3.490   6.357   5.346  1.3653 -1.8842  0.9141
 8225TIP3   OH246165   5.909   3.933  10.057  0.3146 -0.0876  0.3176
 8225TIP3    H146166   5.931   3.989  10.131 -0.2316  0.0483  0.3853
 8225TIP3    H246167   5.992   3.918  10.012  0.5015  0.6013  0.4233
 8226TIP3   OH246168   1.587   0.241  13.581  0.5176  0.3129 -0.2850
 8226TIP3    H146169   1.512   0.203  13.627  0.4632  0.6671 -0.0764
 8226TIP3    H246170   1.551   0.315  13.533  0.9196  1.2066  0.7426
 8227TIP3   OH246171   1.326   3.975  12.362 -0.2332 -0.1771 -0.2051
 8227TIP3    H146172   1.416   3.945  12.376 -0.7822 -1.9077 -0.1329
 8227TIP3    H246173   1.273   3.896  12.368 -1.5390  0.4063 -2.6918
 8228TIP3   OH246174   7.223   6.235   2.987  0.1570  0.2490  0.4618
 8228TIP3    H146175   7.150   6.199   3.037  0.1705  0.5322  0.6875
 8228TIP3    H246176   7.249   6.314   3.035  1.2176 -0.3550  0.8971
 8229TIP3   OH246177   6.422   2.915   9.928 -0.3655  0.0896 -0.2472
 8229TIP3    H146178   6.365   2.950   9.859 -0.1385 -0.2200 -0.5911
 8229TIP3    H246179   6.451   2.830   9.895  1.2921  0.7679 -0.6448
 8230TIP3   OH246180   4.943   6.164  14.079  0.0767 -0.0155  0.8251
 8230TIP3    H146181   4.984   6.233  14.026 -1.7650  0.6704  0.2123
 8230TIP3    H246182   4.918   6.208  14.161  0.5809 -0.4304  1.2079
 8231TIP3   OH246183   6.337   6.852  13.680  0.0969  0.0801  0.0494
 8231TIP3    H146184   6.334   6.944  13.706 -0.0883 -0.0091  0.3476
 8231TIP3    H246185   6.365   6.805  13.759 -0.0592 -0.1488 -0.0288
 8232TIP3   OH246186   0.668   4.156  10.742  0.3083  0.7411 -0.0258
 8232TIP3    H146187   0.658   4.242  10.701 -1.7546  0.2351 -0.6786
 8232TIP3    H246188   0.600   4.153  10.809  2.6916  0.9810  2.5926
 8233TIP3   OH246189   4.259   3.638   0.668 -0.1573 -0.5017  0.3089
 8233TIP3    H146190   4.257   3.642   0.764  0.0645 -0.0005  0.2971
 8233TIP3    H246191   4.232   3.726   0.640  0.4244 -0.4345 -0.0746
 8234TIP3   OH246192   4.740   1.078  11.390  0.0731  0.1582 -0.3601
 8234TIP3    H146193   4.716   1.167  11.365  1.9389  1.0748  0.8754
 8234TIP3    H246194   4.797   1.089  11.467  0.1687 -2.1166 -0.0233
 8235TIP3   OH246195   6.479   2.099   0.324 -0.5067 -0.5319  0.0782
 8235TIP3    H146196   6.392   2.068   0.348 -0.0408 -1.7306  0.2815
 8235TIP3    H246197   6.535   2.070   0.396 -0.1801  1.6266  0.7721
 8236TIP3   OH246198   4.113   6.165   2.466 -0.4584  0.0188 -0.3221
 8236TIP3    H146199   4.020   6.185   2.476 -0.6548 -0.6382 -0.7076
 8236TIP3    H246200   4.115   6.089   2.407  0.3872  0.8178 -1.3594
 8237TIP3   OH246201   1.442   4.304  14.882 -0.0272 -0.1951 -0.3265
 8237TIP3    H146202   1.366   4.250  14.905 -0.9927  0.1922 -2.3734
 8237TIP3    H246203   1.474   4.267  14.800 -0.6561  2.1691 -1.7488
 8238TIP3   OH246204   4.750   4.886  11.490 -0.8963 -0.3757 -0.1580
 8238TIP3    H146205   4.656   4.872  11.495 -1.3763  2.4324  0.3439
 8238TIP3    H246206   4.768   4.954  11.554  1.3248 -0.1330 -0.9467
 8239TIP3   OH246207   4.255   1.922  12.753  0.4004 -0.2119 -0.2489
 8239TIP3    H146208   4.163   1.946  12.768  1.0226  2.3050  0.0463
 8239TIP3    H246209   4.276   1.959  12.668  2.2875  3.4749  1.5715
 8240TIP3   OH246210   2.089   4.115   9.849 -0.2972 -0.0785  0.5153
 8240TIP3    H146211   2.112   4.044   9.789  1.4094  1.3159 -0.5908
 8240TIP3    H246212   2.146   4.101   9.926  1.7947  1.2956 -0.6762
 8241TIP3   OH246213   4.433   1.023  11.799  0.9818 -0.4676  0.1228
 8241TIP3    H146214   4.437   1.038  11.704  0.8902 -1.4957 -0.0563
 8241TIP3    H246215   4.350   0.977  11.812 -0.2813  1.9399  1.0604
 8242TIP3   OH246216   3.078   3.236   2.604  0.2092  0.2418  0.2330
 8242TIP3    H146217   3.162   3.198   2.631  0.5096  1.2027  0.6783
 8242TIP3    H246218   3.052   3.184   2.527  0.2479 -1.3335  1.2327
 8243TIP3   OH246219   5.146   2.165   0.381  0.0660  0.3185  0.5034
 8243TIP3    H146220   5.105   2.136   0.463 -0.2071  1.2074  0.6973
 8243TIP3    H246221   5.073   2.173   0.320 -0.0140  1.4837  0.7246
 8244TIP3   OH246222   1.863   5.075   3.631 -0.3646 -0.0052 -0.1525
 8244TIP3    H146223   1.928   5.021   3.586 -0.0956  1.2325 -1.3254
 8244TIP3    H246224   1.809   5.012   3.679  1.4147 -1.1046  0.5314
 8245TIP3   OH246225   2.292   4.446   1.899  0.5896  0.8717  0.0298
 8245TIP3    H146226   2.264   4.452   1.808 -0.5704  1.3564  0.3930
 8245TIP3    H246227   2.227   4.389   1.940  2.9542 -2.1284 -0.1079
 8246TIP3   OH246228   4.561   2.189  12.674 -0.2406  0.4192  0.1361
 8246TIP3    H146229   4.600   2.276  12.685  0.6397 -0.0843  1.0354
 8246TIP3    H246230   4.478   2.194  12.721 -1.6645  1.6753 -2.2626
 8247TIP3   OH246231   4.294   3.245   4.533 -0.2788 -0.3046  0.2152
 8247TIP3    H146232   4.384   3.246   4.503 -0.3633 -0.2379 -0.0370
 8247TIP3    H246233   4.245   3.202   4.463 -0.3910 -0.6524  0.4984
 8248TIP3   OH246234   4.852   6.080   3.399  0.8524  0.1351  0.6060
 8248TIP3    H146235   4.768   6.072   3.444  1.5567  0.4619  2.0232
 8248TIP3    H246236   4.866   6.174   3.391  1.1699  0.0857  0.5564
 8249TIP3   OH246237   4.236   6.005   2.027 -0.0369  0.1340 -0.5043
 8249TIP3    H146238   4.219   5.912   2.043  0.9414 -0.1197 -0.9188
 8249TIP3    H246239   4.323   6.020   2.063 -1.4854  1.7425  2.8464
 8250TIP3   OH246240   3.184   0.536   0.584  0.3448 -0.2379 -0.1605
 8250TIP3    H146241   3.203   0.571   0.671 -0.8380 -1.7199  0.7441
 8250TIP3    H246242   3.153   0.611   0.534 -1.2503  0.2484  1.4356
 8251TIP3   OH246243   6.774   0.959  12.736 -0.1104 -0.3860  0.1741
 8251TIP3    H146244   6.854   0.950  12.684  1.9426 -1.6307  3.2002
 8251TIP3    H246245   6.788   1.038  12.788 -2.0012  0.7274 -0.9092
 8252TIP3   OH246246   3.433   4.892   5.304 -0.5884  0.0171  0.0197
 8252TIP3    H146247   3.528   4.884   5.307 -0.2603  3.1789  1.6877
 8252TIP3    H246248   3.417   4.986   5.300 -3.6702 -0.3204  1.6640
 8253TIP3   OH246249   0.725   3.230  14.472 -0.0068  0.1729  0.2438
 8253TIP3    H146250   0.758   3.145  14.443  1.4774  0.5497  0.7164
 8253TIP3    H246251   0.651   3.248  14.414  0.9339 -0.4982 -1.2299
 8254TIP3   OH246252   4.436   3.120  15.137  0.2548  0.9022  0.6333
 8254TIP3    H146253   4.373   3.049  15.123  1.8838 -0.4786  0.0478
 8254TIP3    H246254   4.393   3.197  15.100 -1.6546  0.3290  1.4823
 8255TIP3   OH246255   4.972   4.567  10.262  0.4306  0.7259  0.3975
 8255TIP3    H146256   5.000   4.476  10.254 -0.7742  0.4955 -2.8553
 8255TIP3    H246257   5.053   4.617  10.264  1.1113 -0.3371  0.1714
 8256TIP3   OH246258   1.088   2.528  11.689 -0.1268 -0.3802 -0.7247
 8256TIP3    H146259   1.172   2.505  11.727 -0.4255 -2.2891 -1.1268
 8256TIP3    H246260   1.096   2.621  11.668  0.8821  0.1525  1.7278
 8257TIP3   OH246261   2.786   0.729   3.496 -0.0576  0.4248  0.3483
 8257TIP3    H146262   2.732   0.757   3.422  0.7771  0.0165 -0.4291
 8257TIP3    H246263   2.780   0.634   3.495  2.0426  0.2355 -0.8522
 8258TIP3   OH246264   3.499   5.552  12.065 -0.0669 -0.4272 -0.1256
 8258TIP3    H146265   3.536   5.466  12.044  2.4702  0.9804 -2.0130
 8258TIP3    H246266   3.470   5.587  11.980 -1.5965  0.3961  0.6904
 8259TIP3   OH246267   6.192   6.588  13.077  0.5350  0.3240 -0.0190
 8259TIP3    H146268   6.217   6.532  13.151  1.6782  0.8134 -0.0158
 8259TIP3    H246269   6.181   6.528  13.004  0.2239 -0.0744  0.3476
 8260TIP3   OH246270   7.173   2.711  11.930  0.8115 -0.3227 -0.0214
 8260TIP3    H146271   7.103   2.655  11.961  0.7043 -0.0170  0.2962
 8260TIP3    H246272   7.254   2.664  11.953  0.7173 -0.5494 -0.1515
 8261TIP3   OH246273   3.252   3.993   2.120 -0.2687 -0.0912 -0.0979
 8261TIP3    H146274   3.194   3.919   2.098  0.0399 -0.1177 -0.8519
 8261TIP3    H246275   3.262   3.988   2.215 -2.9648  0.9901  0.3266
 8262TIP3   OH246276   4.613   2.564  11.676 -0.2344  0.1808  0.5838
 8262TIP3    H146277   4.591   2.649  11.639  0.9505  0.5292  0.6402
 8262TIP3    H246278   4.530   2.517  11.679 -0.6842  0.8467 -0.6913
 8263TIP3   OH246279   1.356   1.219  14.319  0.4537  0.1970  0.1692
 8263TIP3    H146280   1.383   1.142  14.368  0.0716  0.8229  1.4111
 8263TIP3    H246281   1.400   1.210  14.234 -0.7911 -2.1362 -0.3027
 8264TIP3   OH246282   6.567   1.458   5.870 -0.2485  0.7488 -0.2820
 8264TIP3    H146283   6.633   1.448   5.801  1.2641 -0.1886  1.2323
 8264TIP3    H246284   6.558   1.553   5.881 -1.7109  0.9832 -2.7978
 8265TIP3   OH246285   4.140   5.473   3.777 -0.0180  0.4554 -0.0591
 8265TIP3    H146286   4.147   5.409   3.706 -1.8723 -0.3658  0.4236
 8265TIP3    H246287   4.055   5.515   3.764 -2.3096 -2.3541  3.5946
 8266TIP3   OH246288   3.018   1.217  11.273  0.1076  0.0337 -0.2143
 8266TIP3    H146289   3.077   1.261  11.211  0.4280  0.7570  0.5825
 8266TIP3    H246290   2.932   1.257  11.256  0.1957  0.2360 -0.1866
 8267TIP3   OH246291   4.148   4.050   3.942 -0.0724 -0.1192  0.3338
 8267TIP3    H146292   4.112   4.137   3.929  0.7027 -0.1483 -2.8864
 8267TIP3    H246293   4.085   4.006   4.000 -1.4485  1.9918  0.5317
 8268TIP3   OH246294   2.963   1.170  11.543 -0.1378  0.1204 -0.5794
 8268TIP3    H146295   2.963   1.077  11.566 -0.7654 -0.1393 -1.5696
 8268TIP3    H246296   3.002   1.173  11.456 -0.8316  0.6951 -0.8752
 8269TIP3   OH246297   1.162   6.060  12.980 -0.4237  0.2543 -0.4135
 8269TIP3    H146298   1.071   6.074  13.006  0.7748  2.4319  3.3520
 8269TIP3    H246299   1.204   6.146  12.992  2.4750 -1.0679 -0.2735
 8270TIP3   OH246300   4.106   1.449  15.154 -0.0297 -0.4839 -0.3826
 8270TIP3    H146301   4.091   1.367  15.107  1.7861 -1.3021  0.3967
 8270TIP3    H246302   4.166   1.426  15.224  0.0383  1.4111  0.2244
 8271TIP3   OH246303   3.030   6.756   0.717 -0.0548  0.0958 -0.5532
 8271TIP3    H146304   2.992   6.795   0.796  0.0388  0.3718 -0.6416
 8271TIP3    H246305   3.104   6.704   0.748 -1.0379 -1.1850 -0.2823
 8272TIP3   OH246306   7.043   0.054  14.429  0.1917 -0.9933  0.0792
 8272TIP3    H146307   7.094   0.030  14.506  0.7256  0.4091  0.1779
 8272TIP3    H246308   6.982  -0.019  14.418  0.8416 -1.7331  1.1640
 8273TIP3   OH246309   1.365   2.804  12.413  0.0840  0.2104  0.6570
 8273TIP3    H146310   1.450   2.823  12.372  2.0705 -2.0796  3.2878
 8273TIP3    H246311   1.332   2.890  12.440  2.5621  1.0883  1.2403
 8274TIP3   OH246312   3.119   1.801  11.794  0.5239 -0.0284  0.1390
 8274TIP3    H146313   3.143   1.893  11.803  0.7156  0.0146 -0.6715
 8274TIP3    H246314   3.129   1.764  11.881  3.0611  0.1048 -0.0400
 8275TIP3   OH246315   2.615   3.607   0.402 -0.1843  0.2314  0.2895
 8275TIP3    H146316   2.618   3.556   0.483  0.4084  0.6212  0.5191
 8275TIP3    H246317   2.529   3.648   0.402 -0.7808 -0.9891 -0.0380
 8276TIP3   OH246318   6.506   5.451  12.333 -0.1135 -0.6132 -0.2866
 8276TIP3    H146319   6.464   5.490  12.256 -1.2746  0.4114  0.8121
 8276TIP3    H246320   6.581   5.403  12.298  0.1845  0.9348 -1.9335
 8277TIP3   OH246321   6.190   5.426   1.606  0.0969 -0.3637 -0.1854
 8277TIP3    H146322   6.139   5.494   1.561  0.9266  0.1400 -0.4061
 8277TIP3    H246323   6.159   5.428   1.696 -1.3566 -1.1533 -0.6448
 8278TIP3   OH246324   0.795   5.181   0.880  0.3266 -0.0690 -0.4196
 8278TIP3    H146325   0.863   5.180   0.948  1.2595  0.5448 -1.3080
 8278TIP3    H246326   0.778   5.089   0.862 -2.0020 -0.3856  2.5762
 8279TIP3   OH246327   1.290   0.823   2.196  0.3939  0.1026 -0.3853
 8279TIP3    H146328   1.284   0.750   2.257  0.4937 -0.8176 -1.4478
 8279TIP3    H246329   1.202   0.834   2.161  0.8603 -1.2114 -2.1133
 8280TIP3   OH246330   0.991   1.436  14.032 -0.2849 -0.6141  0.2792
 8280TIP3    H146331   0.925   1.433  14.102 -0.1406  3.2146  0.8261
 8280TIP3    H246332   1.074   1.436  14.079 -0.1411  0.4485  0.0451
 8281TIP3   OH246333   5.201   3.874   3.749  0.0610 -0.0110 -0.0020
 8281TIP3    H146334   5.173   3.943   3.809  0.6411  1.2269 -1.0851
 8281TIP3    H246335   5.235   3.805   3.805 -2.4327 -0.3569  1.2329
 8282TIP3   OH246336   3.553   0.278  12.400  0.0667 -0.0106  0.6705
 8282TIP3    H146337   3.522   0.237  12.482 -0.2319  1.0051  1.0754
 8282TIP3    H246338   3.647   0.287  12.413 -0.1043  1.0301  1.3246
 8283TIP3   OH246339   6.651   5.342  10.028  0.2772 -0.5272 -0.2991
 8283TIP3    H146340   6.743   5.319  10.043  0.7726  1.7849  0.6738
 8283TIP3    H246341   6.633   5.313   9.939  1.5366 -2.2247 -0.0518
 8284TIP3   OH246342   7.249   4.314  14.930  0.6264  0.5227 -0.1099
 8284TIP3    H146343   7.336   4.280  14.910  1.3694 -0.2473  3.7280
 8284TIP3    H246344   7.256   4.350  15.018 -2.7050  1.4536 -0.0540
 8285TIP3   OH246345   5.480   3.207  10.279  0.1310 -0.4903  0.7694
 8285TIP3    H146346   5.494   3.298  10.306 -1.4215 -0.0664  0.2634
 8285TIP3    H246347   5.556   3.186  10.225  1.9160 -0.4496  3.1071
 8286TIP3   OH246348   0.277   2.327  12.242 -0.0984  0.4299  0.1149
 8286TIP3    H146349   0.320   2.243  12.221 -1.5492 -0.5871  1.0471
 8286TIP3    H246350   0.293   2.340  12.335 -1.6446  0.0716  0.4693
 8287TIP3   OH246351   6.620   2.018  14.591  0.2091  0.3144 -0.0793
 8287TIP3    H146352   6.640   2.104  14.625  0.2561  0.1147  0.4024
 8287TIP3    H246353   6.695   1.996  14.535 -0.2158  0.9555 -0.9309
 8288TIP3   OH246354   0.664   6.817  10.873 -0.2447  0.1481 -0.2779
 8288TIP3    H146355   0.611   6.800  10.795 -0.7644  1.8162 -0.3436
 8288TIP3    H246356   0.600   6.827  10.944 -0.0716  1.9700 -0.3181
 8289TIP3   OH246357   6.942   1.988  12.528  0.1315  0.1045 -0.2143
 8289TIP3    H146358   6.940   2.074  12.569  0.4188 -0.5966  1.3513
 8289TIP3    H246359   6.860   1.946  12.556 -0.2090  0.0161 -1.3117
 8290TIP3   OH246360   1.833   5.121  11.003 -0.2788 -0.6631  0.3820
 8290TIP3    H146361   1.913   5.172  10.995 -1.6900  1.3927 -1.7548
 8290TIP3    H246362   1.801   5.140  11.092  0.8472 -0.4185  0.7563
 8291TIP3   OH246363   2.286   3.833   0.904 -0.0524 -0.1050 -0.2570
 8291TIP3    H146364   2.355   3.898   0.888  0.2761 -0.4327 -0.1966
 8291TIP3    H246365   2.257   3.807   0.817 -2.1143  2.1065 -0.3200
 8292TIP3   OH246366   0.648   6.547  11.689  0.2532 -0.7042  0.2566
 8292TIP3    H146367   0.707   6.622  11.691  0.5233 -0.9172  0.3221
 8292TIP3    H246368   0.578   6.573  11.630  1.0826 -0.9502 -0.8730
 8293TIP3   OH246369   3.679   5.148   0.842  0.2059 -0.2732 -0.1143
 8293TIP3    H146370   3.595   5.181   0.875  1.0894  0.1168  1.9817
 8293TIP3    H246371   3.660   5.061   0.808 -0.7208 -1.2404  2.5611
 8294TIP3   OH246372   5.532   3.681   9.818  0.0072 -0.0125  1.5513
 8294TIP3    H146373   5.553   3.611   9.756 -0.7281  0.7526  0.3984
 8294TIP3    H246374   5.613   3.695   9.867  1.2539  0.6780 -0.5827
 8295TIP3   OH246375   4.948   7.249   3.265  0.0167 -0.9787  0.0039
 8295TIP3    H146376   4.862   7.261   3.303  0.6353 -1.5543  1.6753
 8295TIP3    H246377   4.940   7.172   3.209 -0.2121 -1.9887  1.3702
 8296TIP3   OH246378   4.306   1.132   9.963  0.0905  0.3876 -0.1091
 8296TIP3    H146379   4.216   1.105   9.944  0.3866  0.6395 -2.1460
 8296TIP3    H246380   4.343   1.153   9.877  2.8117 -1.8250  0.3832
 8297TIP3   OH246381   4.829   2.744  14.318  0.1074 -0.1109  0.0010
 8297TIP3    H146382   4.856   2.811  14.380 -1.4034  0.6759 -0.1342
 8297TIP3    H246383   4.761   2.695  14.364  0.7216 -1.1279 -0.1500
 8298TIP3   OH246384   7.100   6.272   3.795 -0.7470 -0.0367 -0.1972
 8298TIP3    H146385   7.093   6.222   3.877 -0.7510  1.1463  0.5560
 8298TIP3    H246386   7.156   6.219   3.739  0.6708 -0.0865  1.2100
 8299TIP3   OH246387   5.517   2.918   9.701 -0.3975  0.2569  0.0817
 8299TIP3    H146388   5.491   2.914   9.609 -0.5071  0.3768  0.1073
 8299TIP3    H246389   5.602   2.872   9.704 -0.4409  0.1654 -0.0603
 8300TIP3   OH246390   2.350   3.959  10.666 -0.6932  0.6092  0.1801
 8300TIP3    H146391   2.318   4.036  10.714  0.4297  0.6967  0.8293
 8300TIP3    H246392   2.322   3.973  10.576  0.2503  2.2451  0.0966
 8301TIP3   OH246393   4.816   7.179  11.058 -0.2826  0.4605  0.0957
 8301TIP3    H146394   4.776   7.092  11.050 -2.3418  1.3492  0.0749
 8301TIP3    H246395   4.817   7.196  11.152 -1.8048  1.2035  0.0105
 8302TIP3   OH246396   0.817   1.973   0.929 -0.1029 -0.3129  0.3554
 8302TIP3    H146397   0.782   1.949   1.015  0.9976 -2.8487  0.1968
 8302TIP3    H246398   0.898   2.020   0.949 -0.5013  0.2338  0.7035
 8303TIP3   OH246399   1.883   3.563  13.766 -0.9205  0.2612  0.1918
 8303TIP3    H146400   1.835   3.630  13.814 -0.2950  1.3704 -0.6794
 8303TIP3    H246401   1.932   3.515  13.833 -0.7635  1.1980  0.7628
 8304TIP3   OH246402   1.900   1.765  13.840  0.4504 -0.5120 -0.3528
 8304TIP3    H146403   1.970   1.723  13.789  1.9660 -0.1674  1.3525
 8304TIP3    H246404   1.829   1.701  13.838  1.8410 -2.1764  0.2080
 8305TIP3   OH246405   6.861   2.422   4.842  0.1304 -0.1238 -0.5767
 8305TIP3    H146406   6.873   2.406   4.748  1.6663 -3.2293  0.0410
 8305TIP3    H246407   6.766   2.424   4.854 -0.1230 -1.8305 -1.9251
 8306TIP3   OH246408   2.216   2.592   4.068  0.2390  0.8281  0.0047
 8306TIP3    H146409   2.231   2.561   4.157 -0.3078  0.2313 -0.1087
 8306TIP3    H246410   2.167   2.522   4.025  0.9786  0.8641 -0.9400
 8307TIP3   OH246411   4.174   5.266  14.129  0.2924  0.3636 -0.1978
 8307TIP3    H146412   4.089   5.238  14.163 -0.6667  0.6581 -2.2166
 8307TIP3    H246413   4.231   5.270  14.206 -1.5791  0.3806  1.2402
 8308TIP3   OH246414   3.370   0.488  13.275 -0.5428  0.5298 -0.0099
 8308TIP3    H146415   3.420   0.568  13.290  0.2117 -0.0203  0.5530
 8308TIP3    H246416   3.308   0.484  13.347  1.4595 -0.8896  1.7575
 8309TIP3   OH246417   4.304   4.440  15.104 -0.5063  0.2986  0.0465
 8309TIP3    H146418   4.231   4.402  15.152  1.0486 -2.0370  0.7356
 8309TIP3    H246419   4.272   4.449  15.014 -0.9856 -2.9586 -0.2341
 8310TIP3   OH246420   1.340   7.244   2.372  0.2566  0.1263 -0.2088
 8310TIP3    H146421   1.321   7.255   2.466 -2.1552 -0.1239 -0.5995
 8310TIP3    H246422   1.311   7.327   2.333  1.8173  0.4676 -0.6964
 8311TIP3   OH246423   3.216   1.279   0.102 -0.1974  0.7525  0.2330
 8311TIP3    H146424   3.264   1.334   0.164 -0.1296  2.4747 -1.2623
 8311TIP3    H246425   3.284   1.243   0.045 -0.2669 -0.7418  1.0428
 8312TIP3   OH246426   6.385   6.416  14.031  0.4322 -0.0027  0.1622
 8312TIP3    H146427   6.382   6.481  13.962  1.4824 -0.8250 -0.6933
 8312TIP3    H246428   6.453   6.354  14.004  0.5232 -0.6301  1.6782
 8313TIP3   OH246429   5.213   1.538   1.952 -0.4203 -0.0942 -0.3354
 8313TIP3    H146430   5.303   1.533   1.984 -0.3057  1.6922 -0.2791
 8313TIP3    H246431   5.163   1.486   2.015  0.4697 -0.5961 -0.0099
 8314TIP3   OH246432   2.247   0.401   1.237 -0.4771 -0.1726 -0.0918
 8314TIP3    H146433   2.333   0.399   1.280  0.0497 -0.6471 -1.1441
 8314TIP3    H246434   2.195   0.337   1.286  0.5893 -1.8680 -1.0771
 8315TIP3   OH246435   5.530   1.156  12.512  0.4604 -0.1207  0.2893
 8315TIP3    H146436   5.550   1.219  12.581  2.0465 -0.8192  0.5202
 8315TIP3    H246437   5.603   1.094  12.515 -1.7004 -2.7757  0.9875
 8316TIP3   OH246438   1.494   6.125  11.726 -0.0681 -0.2023  0.8575
 8316TIP3    H146439   1.579   6.168  11.724  0.0096 -0.3813 -0.3068
 8316TIP3    H246440   1.496   6.072  11.806  1.0022 -0.3783  0.7338
 8317TIP3   OH246441   2.577   1.582  14.147  0.2616 -0.4808  0.1339
 8317TIP3    H146442   2.562   1.676  14.138  1.6311 -0.2866 -0.3390
 8317TIP3    H246443   2.658   1.565  14.099  0.4304 -1.7795  0.8077
 8318TIP3   OH246444   0.090   5.603  10.858  0.4606  0.6514  0.5096
 8318TIP3    H146445   0.012   5.624  10.807  1.4337  0.4951 -1.1257
 8318TIP3    H246446   0.154   5.670  10.832  1.4145 -0.2517  0.4691
 8319TIP3   OH246447   0.615   2.252   2.465 -0.3391 -0.2333  0.3761
 8319TIP3    H146448   0.579   2.202   2.392 -2.5188  0.4513  0.8898
 8319TIP3    H246449   0.581   2.208   2.543 -0.1493  0.5063  0.8861
 8320TIP3   OH246450   2.109   4.937  10.981  0.5176 -0.9920 -0.4495
 8320TIP3    H146451   2.090   4.907  11.069 -0.4759  2.0922  0.5407
 8320TIP3    H246452   2.196   4.903  10.962  0.9642 -1.3479  1.9224
 8321TIP3   OH246453   0.677   4.396   1.746 -0.5987 -0.2160 -0.4993
 8321TIP3    H146454   0.770   4.396   1.767 -0.9823 -1.6463  1.5420
 8321TIP3    H246455   0.636   4.440   1.821 -1.5929  0.1422 -1.2393
 8322TIP3   OH246456   2.539   1.415   0.292  0.3773  0.0650  0.5536
 8322TIP3    H146457   2.493   1.334   0.312 -0.4390  0.2880 -0.3440
 8322TIP3    H246458   2.502   1.479   0.352  0.9161 -0.1927  1.1618
 8323TIP3   OH246459   2.880   3.900  10.662  0.0010 -0.0716 -0.0697
 8323TIP3    H146460   2.901   3.808  10.680  1.2070  0.2148  0.0652
 8323TIP3    H246461   2.784   3.902  10.658 -0.0378 -1.3885 -0.3919
 8324TIP3   OH246462   5.855   1.670  12.073 -0.2658 -0.4463  0.1147
 8324TIP3    H146463   5.793   1.603  12.101 -1.3488  0.9044  1.0853
 8324TIP3    H246464   5.801   1.748  12.061  1.2462  0.8003  1.1057
 8325TIP3   OH246465   2.781   0.255  14.676 -0.4113  0.1416  0.0957
 8325TIP3    H146466   2.703   0.308  14.662 -0.9505 -0.2562  1.4227
 8325TIP3    H246467   2.759   0.170  14.638  0.0557  0.5078 -1.0710
 8326TIP3   OH246468   5.575   0.511  14.264  0.1058  0.0478 -0.6011
 8326TIP3    H146469   5.490   0.541  14.230 -0.1923  1.0667  0.9551
 8326TIP3    H246470   5.599   0.576  14.330  1.0133 -1.4468  0.6014
 8327TIP3   OH246471   4.366   1.690   9.089 -0.1253  0.5086 -0.6655
 8327TIP3    H146472   4.414   1.610   9.065  0.6786  0.8091 -0.0995
 8327TIP3    H246473   4.301   1.660   9.152  1.4663  0.5536  1.0891
 8328TIP3   OH246474   6.139   5.499  14.665 -0.0100  0.5175 -0.2274
 8328TIP3    H146475   6.176   5.467  14.583 -0.2863  2.6828 -1.2608
 8328TIP3    H246476   6.200   5.567  14.694 -1.8889  2.6159 -0.8240
 8329TIP3   OH246477   2.266   1.602   2.172  0.0180  0.0443  0.5612
 8329TIP3    H146478   2.296   1.660   2.101 -2.9130  1.9036  0.6916
 8329TIP3    H246479   2.317   1.630   2.248 -0.9635  2.2171  0.5022
 8330TIP3   OH246480   6.221   5.918  12.373  0.6796 -0.3012 -0.0129
 8330TIP3    H146481   6.171   5.929  12.293  0.4161  0.0154  0.1891
 8330TIP3    H246482   6.217   6.004  12.416  2.6922  0.2111 -0.7226
 8331TIP3   OH246483   3.962   6.232   0.313  0.1781  0.2705  0.3203
 8331TIP3    H146484   3.985   6.315   0.356 -1.0589  0.4591  0.6674
 8331TIP3    H246485   3.866   6.232   0.313  0.1577 -0.4120 -1.1337
 8332TIP3   OH246486   2.449   7.241  12.253 -0.6461  0.4246 -0.0057
 8332TIP3    H146487   2.442   7.287  12.170 -0.4075 -0.7639 -0.7082
 8332TIP3    H246488   2.410   7.155  12.236  0.3536 -0.2142  0.7928
 8333TIP3   OH246489   6.018   3.704  14.302  0.0882 -0.3733 -0.1223
 8333TIP3    H146490   5.993   3.631  14.245  0.1204  0.4194 -1.1907
 8333TIP3    H246491   5.938   3.726  14.349 -0.6403  0.5828 -1.7425
 8334TIP3   OH246492   4.141   2.919  11.152 -0.4216 -0.0676  0.2441
 8334TIP3    H146493   4.234   2.925  11.173 -0.2629 -0.8260 -0.1876
 8334TIP3    H246494   4.105   3.004  11.176  0.6708  0.7858 -1.0047
 8335TIP3   OH246495   2.574   4.963  13.537  0.2223  0.2321  0.0298
 8335TIP3    H146496   2.590   5.003  13.452 -0.7018  1.4081  0.3787
 8335TIP3    H246497   2.635   5.007  13.596  0.3838 -0.0880  0.1005
 8336TIP3   OH246498   6.915   4.024  11.158 -0.0792 -0.1015 -0.1267
 8336TIP3    H146499   7.007   4.033  11.133  0.3511 -0.7027  1.1089
 8336TIP3    H246500   6.872   3.988  11.081  1.0418 -1.2602 -0.2508
 8337TIP3   OH246501   6.821   6.773  10.322 -0.0762  0.3126 -0.8633
 8337TIP3    H146502   6.825   6.867  10.338 -0.2138  0.3779 -1.2034
 8337TIP3    H246503   6.887   6.736  10.381 -1.3791  0.4142  0.7145
 8338TIP3   OH246504   6.937   3.838  10.318 -0.2623  0.5285  0.2756
 8338TIP3    H146505   7.024   3.877  10.310 -0.2394  0.5279  0.5006
 8338TIP3    H246506   6.953   3.757  10.367 -0.1247 -0.4095 -1.2715
 8339TIP3   OH246507   1.203   5.928   3.082  0.0211 -1.0096  0.5466
 8339TIP3    H146508   1.179   5.848   3.128 -1.3793  0.0272  1.7353
 8339TIP3    H246509   1.141   5.994   3.114  0.2631  0.2491 -1.3756
 8340TIP3   OH246510   6.121   5.336   0.095 -0.4866  0.5426 -0.2765
 8340TIP3    H146511   6.089   5.264   0.150  1.3119  0.2326  0.4513
 8340TIP3    H246512   6.198   5.369   0.142 -1.0244  2.6931 -0.8129
 8341TIP3   OH246513   0.753   0.765   5.571  0.0530  0.0796 -0.0866
 8341TIP3    H146514   0.784   0.854   5.589  1.3246 -0.8075  2.6382
 8341TIP3    H246515   0.658   0.771   5.580  0.0626  1.2785 -0.5668
 8342TIP3   OH246516   0.442   3.916  12.567  0.6145  0.4650 -0.4945
 8342TIP3    H146517   0.456   3.982  12.635 -1.4223  0.9704 -0.4883
 8342TIP3    H246518   0.426   3.967  12.487 -0.5880  0.0056 -0.5720
 8343TIP3   OH246519   3.084   1.291   5.928  0.9398  0.2457  0.1473
 8343TIP3    H146520   3.049   1.356   5.989 -0.2256 -0.7014  0.5417
 8343TIP3    H246521   3.025   1.216   5.938  2.1309 -0.7920 -0.4362
 8344TIP3   OH246522   0.015   5.860  12.675  0.7150 -0.0405 -0.3406
 8344TIP3    H146523   0.032   5.878  12.768  2.4813  1.5321 -0.9016
 8344TIP3    H246524   0.102   5.862  12.634 -0.0580 -0.4145 -2.0898
 8345TIP3   OH246525   3.562   6.934   4.884 -0.4382 -0.7389  0.4245
 8345TIP3    H146526   3.567   7.009   4.825  1.5122  0.1350  1.6006
 8345TIP3    H246527   3.554   6.859   4.825  2.4462  0.0137 -1.1348
 8346TIP3   OH246528   5.864   1.316  14.529  0.0417  0.2909  0.2662
 8346TIP3    H146529   5.898   1.251  14.467  0.7076 -0.9571  1.8641
 8346TIP3    H246530   5.780   1.281  14.557 -0.5382  1.1551 -0.3672
 8347TIP3   OH246531   4.621   6.067  14.746  0.4189  0.1020 -0.0845
 8347TIP3    H146532   4.531   6.094  14.730  0.6693  1.0977  0.1512
 8347TIP3    H246533   4.647   6.022  14.666 -0.0669  0.3842 -0.4054
 8348TIP3   OH246534   6.897   2.885   0.246 -0.0292 -0.2913 -0.1399
 8348TIP3    H146535   6.897   2.806   0.192 -0.2588 -0.0703 -0.4660
 8348TIP3    H246536   6.981   2.926   0.228  0.0956 -0.4674  0.0387
 8349TIP3   OH246537   0.573   0.664  14.936  0.0455 -0.7245 -0.3610
 8349TIP3    H146538   0.630   0.675  15.012 -0.2166 -0.9615 -0.1301
 8349TIP3    H246539   0.631   0.677  14.861  0.1127  0.4952 -0.1182
 8350TIP3   OH246540   1.102   2.945   0.821 -0.0253 -0.1290 -0.0731
 8350TIP3    H146541   1.166   2.985   0.878  0.3134 -0.6453 -0.0847
 8350TIP3    H246542   1.018   2.962   0.863  0.1386  0.3042  0.0857
 8351TIP3   OH246543   6.663   3.281  11.407 -0.2868 -0.0938 -0.1628
 8351TIP3    H146544   6.697   3.310  11.322  2.3012  0.2737  0.9090
 8351TIP3    H246545   6.631   3.192  11.391  1.3077 -0.5068 -1.2694
 8352TIP3   OH246546   2.426   3.906  15.355 -0.6385 -1.0031 -0.6145
 8352TIP3    H146547   2.479   3.830  15.332  0.8152  0.1528 -1.2204
 8352TIP3    H246548   2.430   3.910  15.451 -0.3674 -1.4198 -0.6065
 8353TIP3   OH246549   4.472   4.783  11.581 -0.0213 -0.1667  0.3375
 8353TIP3    H146550   4.401   4.843  11.559  0.5366  0.2479 -0.3386
 8353TIP3    H246551   4.482   4.792  11.676 -1.1254 -0.5211  0.5099
 8354TIP3   OH246552   6.692   2.631  13.008 -0.5447  0.0269 -0.1753
 8354TIP3    H146553   6.717   2.722  13.025  2.4204 -0.7044 -0.0861
 8354TIP3    H246554   6.752   2.601  12.939 -3.3311 -1.1025 -2.3082
 8355TIP3   OH246555   6.374   2.701   3.744 -0.2630 -0.3778  0.3486
 8355TIP3    H146556   6.383   2.744   3.659 -0.2993 -2.3751 -0.7211
 8355TIP3    H246557   6.287   2.660   3.741  0.3199 -1.6935  0.7359
 8356TIP3   OH246558   4.717   2.645  10.500  0.3931 -0.5480 -0.3634
 8356TIP3    H146559   4.628   2.665  10.529  0.4506 -0.9969  0.1333
 8356TIP3    H246560   4.708   2.568  10.444  0.6026 -1.2799  0.5995
 8357TIP3   OH246561   0.519   4.267   1.229 -0.4510 -0.0366 -0.1711
 8357TIP3    H146562   0.523   4.334   1.298 -1.6194  0.3066 -0.4059
 8357TIP3    H246563   0.462   4.306   1.162 -1.6961 -1.5247 -0.0263
 8358TIP3   OH246564   5.766   5.518  13.265 -0.0562 -0.4340 -0.2039
 8358TIP3    H146565   5.798   5.442  13.314 -0.9659 -1.1024 -0.6214
 8358TIP3    H246566   5.831   5.530  13.195 -0.1119 -1.0784 -0.3748
 8359TIP3   OH246567   3.637   5.146  14.025  0.2410  0.5592 -0.1451
 8359TIP3    H146568   3.613   5.134  14.117  0.1875 -1.0375 -0.3410
 8359TIP3    H246569   3.691   5.225  14.024 -0.8013  1.3217  1.0556
 8360TIP3   OH246570   7.236   1.422  14.674 -0.1437  0.6229 -0.1335
 8360TIP3    H146571   7.314   1.410  14.728  0.8526 -1.1668 -1.8268
 8360TIP3    H246572   7.203   1.333  14.660 -1.9240  1.2635 -0.2907
 8361TIP3   OH246573   0.191   6.893  11.227 -0.2240  0.1802  0.4608
 8361TIP3    H146574   0.165   6.972  11.275 -0.8882  0.5683 -0.5106
 8361TIP3    H246575   0.216   6.925  11.140  0.1198 -0.6139  0.2612
 8362TIP3   OH246576   1.707   5.087  13.791 -0.3255 -0.1230 -0.0054
 8362TIP3    H146577   1.624   5.132  13.806 -1.2675 -1.3629 -1.1635
 8362TIP3    H246578   1.685   4.994  13.801  1.1396 -0.4320  0.5239
 8363TIP3   OH246579   5.167   4.685   4.323  0.2053  0.4090 -0.0260
 8363TIP3    H146580   5.094   4.722   4.274 -0.6147  1.3094  1.7714
 8363TIP3    H246581   5.229   4.757   4.332 -0.1709  0.6105  1.1771
 8364TIP3   OH246582   2.948   4.733  13.432  0.3247 -0.2417  0.5334
 8364TIP3    H146583   2.980   4.822  13.420  0.3589 -0.3809 -0.4882
 8364TIP3    H246584   2.870   4.728  13.377  0.4957 -0.9345  0.3439
 8365TIP3   OH246585   6.786   7.209  11.169  0.3708 -0.3210  0.2071
 8365TIP3    H146586   6.732   7.148  11.221  1.0366 -0.7277  0.4280
 8365TIP3    H246587   6.802   7.283  11.227  0.2733 -0.3214  0.2345
 8366TIP3   OH246588   0.044   1.642  10.688  0.1585  0.2962  0.2705
 8366TIP3    H146589   0.011   1.595  10.765 -1.3678  0.6277 -0.1474
 8366TIP3    H246590   0.015   1.590  10.614  1.1251  0.2843 -0.0997
 8367TIP3   OH246591   0.564   6.025   0.184 -0.1363  0.2076 -0.1709
 8367TIP3    H146592   0.610   5.950   0.146 -3.2415 -1.1245 -1.6705
 8367TIP3    H246593   0.517   5.989   0.259 -0.1716  1.1242  0.2642
 8368TIP3   OH246594   5.603   0.426  12.277 -0.4641  0.2287  0.2197
 8368TIP3    H146595   5.516   0.396  12.250 -0.4281  0.1770  0.1602
 8368TIP3    H246596   5.588   0.512  12.316 -0.4714  0.4622 -0.2896
 8369TIP3   OH246597   3.570   1.402   1.936  0.2735 -0.2555 -0.1232
 8369TIP3    H146598   3.480   1.390   1.905 -0.2540  0.4233  1.1047
 8369TIP3    H246599   3.578   1.342   2.010 -0.2373  1.9476  1.8037
 8370TIP3   OH246600   5.919   4.661  12.237 -0.2214  0.1315  0.4131
 8370TIP3    H146601   5.992   4.600  12.246  0.1388  0.2733 -1.1602
 8370TIP3    H246602   5.841   4.606  12.246  0.0122  0.1183  3.0094
 8371TIP3   OH246603   1.723   4.695   5.662  0.1254  0.4027 -0.0985
 8371TIP3    H146604   1.632   4.702   5.692 -0.7586  0.1195 -2.4482
 8371TIP3    H246605   1.761   4.626   5.717 -0.7170  1.2815  1.6660
 8372TIP3   OH246606   3.847   1.424  12.910  0.3547  0.1504  0.4566
 8372TIP3    H146607   3.934   1.458  12.931  0.5125 -0.5062  0.8893
 8372TIP3    H246608   3.836   1.347  12.966  0.5161 -1.2772 -1.3614
 8373TIP3   OH246609   1.644   3.597   0.451  0.1554  0.3964  0.7929
 8373TIP3    H146610   1.591   3.556   0.382  1.5193  0.4906 -0.3466
 8373TIP3    H246611   1.582   3.653   0.498 -0.4479  1.9177 -1.6376
 8374TIP3   OH246612   1.079   6.766   1.269  0.4143 -0.1899  0.0731
 8374TIP3    H146613   1.077   6.717   1.187 -0.5317 -0.8922  0.4970
 8374TIP3    H246614   1.056   6.855   1.245 -0.5031 -0.5286 -0.3487
 8375TIP3   OH246615   5.997   6.481  12.877  0.2709 -0.8024  0.0498
 8375TIP3    H146616   5.986   6.551  12.941  2.5492 -1.3170  1.1149
 8375TIP3    H246617   6.003   6.526  12.793 -0.4200  0.0874  0.4683
 8376TIP3   OH246618   6.906   3.961  12.076  0.2635 -0.7222  0.6946
 8376TIP3    H146619   6.964   3.918  12.138  0.2772  0.1661  1.3230
 8376TIP3    H246620   6.933   3.928  11.991  0.9344 -1.1764  1.0711
 8377TIP3   OH246621   5.984   3.798  12.499  0.1505  0.3415  0.0390
 8377TIP3    H146622   5.896   3.823  12.525  0.6803  1.5919  0.7157
 8377TIP3    H246623   5.972   3.740  12.424 -1.1864  1.8899 -0.9863
 8378TIP3   OH246624   0.800   3.452   4.006 -0.4204  0.2495  0.2906
 8378TIP3    H146625   0.887   3.422   4.030 -0.5461 -0.9380 -0.6359
 8378TIP3    H246626   0.790   3.426   3.914 -1.9129 -0.0591  0.5042
 8379TIP3   OH246627   6.022   3.529  11.859 -0.2691  0.1818 -0.0084
 8379TIP3    H146628   6.009   3.569  11.773  0.8978 -1.1008 -0.8232
 8379TIP3    H246629   6.117   3.527  11.870 -0.3771 -0.5803  0.8657
 8380TIP3   OH246630   5.937   5.439  13.891 -0.7614  0.5350  0.2289
 8380TIP3    H146631   5.963   5.487  13.813 -0.4227  1.0466  0.6472
 8380TIP3    H246632   5.869   5.494  13.931 -0.7691  0.3892  0.4172
 8381TIP3   OH246633   2.050   5.404   9.952 -0.0755 -0.2179  0.4491
 8381TIP3    H146634   1.995   5.326   9.937  0.4780 -0.6889  0.8049
 8381TIP3    H246635   2.117   5.400   9.884  1.0043 -1.0413  1.5010
 8382TIP3   OH246636   0.773   4.775   0.491  1.2738  0.3074 -0.1756
 8382TIP3    H146637   0.855   4.766   0.444  1.3149 -0.2857  0.0102
 8382TIP3    H246638   0.713   4.714   0.448  1.2755 -0.1419  0.4475
 8383TIP3   OH246639   0.188   0.379  10.291  0.2051  0.2854  0.0688
 8383TIP3    H146640   0.148   0.423  10.366  1.0458 -0.4839  0.9857
 8383TIP3    H246641   0.188   0.446  10.222 -1.1485  0.8090  0.5335
 8384TIP3   OH246642   4.664   5.379  14.618  0.0936 -0.3938  0.5512
 8384TIP3    H146643   4.644   5.358  14.709  2.0236 -1.1500  0.8555
 8384TIP3    H246644   4.670   5.295  14.574  0.2924 -0.0958 -0.0048
 8385TIP3   OH246645   3.496   2.642   2.208 -0.5885  0.4832  0.0129
 8385TIP3    H146646   3.437   2.709   2.173 -0.5359  0.0539 -0.9267
 8385TIP3    H246647   3.532   2.682   2.287  0.8909  2.3730 -1.5035
 8386TIP3   OH246648   2.321   1.379  12.600 -0.7769  0.0101  0.0115
 8386TIP3    H146649   2.244   1.323  12.591 -0.6139 -0.3972  1.0402
 8386TIP3    H246650   2.367   1.345  12.677  1.1489 -0.6240 -1.3336
 8387TIP3   OH246651   1.199   0.403  15.111  0.2167 -0.3903 -0.6900
 8387TIP3    H146652   1.150   0.417  15.030 -0.7018 -0.1137 -0.0953
 8387TIP3    H246653   1.136   0.417  15.181  1.1191 -0.1387  0.1015
 8388TIP3   OH246654   4.225   0.536  13.962  1.1611 -0.2614 -0.1177
 8388TIP3    H146655   4.220   0.630  13.945  0.9720 -0.3391 -0.5130
 8388TIP3    H246656   4.245   0.529  14.055 -0.9400  0.1436  0.4102
 8389TIP3   OH246657   6.499   0.261  12.540 -0.0826  0.5661 -0.1570
 8389TIP3    H146658   6.414   0.295  12.513 -0.7333 -1.2824 -0.5967
 8389TIP3    H246659   6.532   0.214  12.464  1.4961  1.4851 -0.0919
 8390TIP3   OH246660   5.172   2.115  13.455  0.2622 -0.5007 -0.3660
 8390TIP3    H146661   5.180   2.089  13.363  1.7720 -0.8046 -0.1784
 8390TIP3    H246662   5.086   2.155  13.462 -1.1137 -3.0992 -1.2568
 8391TIP3   OH246663   6.054   4.870  14.713  0.1650  0.2291 -0.1694
 8391TIP3    H146664   6.011   4.831  14.637 -1.3605  0.9311  0.3036
 8391TIP3    H246665   6.051   4.965  14.696 -2.6203  0.6413  1.8999
 8392TIP3   OH246666   1.261   5.838   2.128  0.2242  0.4198  0.4181
 8392TIP3    H146667   1.198   5.876   2.066 -1.0424 -1.0601  0.7535
 8392TIP3    H246668   1.336   5.898   2.124 -0.1568  0.8655 -1.8789
 8393TIP3   OH246669   1.237   4.800  13.348  0.0832  0.5334  0.1330
 8393TIP3    H146670   1.227   4.808  13.253 -1.6105  0.5601  0.2839
 8393TIP3    H246671   1.220   4.888  13.382  2.3972  0.9496  0.3903
 8394TIP3   OH246672   1.772   0.569  13.602 -0.3940  0.0458 -0.2696
 8394TIP3    H146673   1.833   0.603  13.536  0.6039  1.7576  1.4296
 8394TIP3    H246674   1.686   0.579  13.563  0.1583  1.1214 -1.2757
 8395TIP3   OH246675   6.513   1.373   5.122  0.6233 -0.2970 -0.4612
 8395TIP3    H146676   6.536   1.454   5.075  2.0094  0.4461  1.3850
 8395TIP3    H246677   6.549   1.385   5.209  0.8888 -2.9481 -0.1293
 8396TIP3   OH246678   0.375   1.776   0.545  0.1951  0.3775  0.4167
 8396TIP3    H146679   0.368   1.684   0.520 -1.3585  0.5771  0.0473
 8396TIP3    H246680   0.469   1.790   0.555  0.4462 -1.3467  0.8675
 8397TIP3   OH246681   2.375   1.902  13.814  0.6001  0.4444  0.3624
 8397TIP3    H146682   2.316   1.935  13.746 -0.3130 -0.2107  0.8126
 8397TIP3    H246683   2.459   1.942  13.794 -0.1347  1.8896  0.0704
 8398TIP3   OH246684   2.057   0.549  10.170 -0.4037 -0.0464 -0.1980
 8398TIP3    H146685   2.092   0.570  10.083 -1.0676  1.0934 -0.2145
 8398TIP3    H246686   1.993   0.480  10.154  0.4439 -0.7918 -0.4226
 8399TIP3   OH246687   1.292   2.134  11.520 -0.5658  0.9366  0.2907
 8399TIP3    H146688   1.366   2.181  11.558  0.6161 -0.4315 -0.2196
 8399TIP3    H246689   1.216   2.189  11.539  0.7516  3.1185 -0.4333
 8400TIP3   OH246690   3.638   6.016  12.326 -0.9076  0.0445 -0.0987
 8400TIP3    H146691   3.716   5.995  12.377 -1.6816 -2.9546  0.0364
 8400TIP3    H246692   3.622   5.938  12.273 -3.0480  1.0988 -1.1482
 8401TIP3   OH246693   7.127   4.549  12.973  0.2747  0.2412  0.2823
 8401TIP3    H146694   7.202   4.601  13.003  0.3851  0.6585 -0.6667
 8401TIP3    H246695   7.123   4.475  13.033 -0.9124  2.1741  2.7794
 8402TIP3   OH246696   4.280   6.428  15.245  0.0316  0.2769 -0.2809
 8402TIP3    H146697   4.269   6.400  15.336 -2.9914 -1.0713 -0.9361
 8402TIP3    H246698   4.338   6.362  15.206  1.5406  0.9976  0.6597
 8403TIP3   OH246699   1.725   3.290   4.452 -0.6089  0.3959  0.0592
 8403TIP3    H146700   1.685   3.241   4.381  0.1306 -0.0283 -0.0763
 8403TIP3    H246701   1.810   3.247   4.466 -0.4288  0.9398  0.6904
 8404TIP3   OH246702   3.839   0.262  13.183  0.0066  0.8135 -0.2984
 8404TIP3    H146703   3.864   0.239  13.093 -0.5678 -0.2673 -0.1955
 8404TIP3    H246704   3.807   0.352  13.176  1.4121  1.3070 -0.8918
 8405TIP3   OH246705   4.012   1.842  13.528 -0.0542  0.1968 -0.2292
 8405TIP3    H146706   3.967   1.888  13.458  1.3068  1.0100 -0.6188
 8405TIP3    H246707   4.077   1.788  13.484  1.2562  1.1963  0.3786
 8406TIP3   OH246708   5.308   6.911   1.721  0.0340  0.0320 -0.2183
 8406TIP3    H146709   5.390   6.960   1.716 -1.3137  2.5615  1.1466
 8406TIP3    H246710   5.249   6.966   1.772 -1.8027 -2.7823  0.9360
 8407TIP3   OH246711   0.221   4.105  12.821  0.1707  0.1060 -0.2209
 8407TIP3    H146712   0.132   4.141  12.822  0.0447 -0.1372 -1.4159
 8407TIP3    H246713   0.268   4.160  12.758  0.4846 -0.6383 -0.6420
 8408TIP3   OH246714   6.527   6.482  14.795  0.2451  0.3761 -0.4537
 8408TIP3    H146715   6.447   6.432  14.775  0.5926 -0.1646 -0.5249
 8408TIP3    H246716   6.500   6.543  14.864 -0.5425  1.0728 -1.3452
 8409TIP3   OH246717   4.856   4.202  13.586 -0.5267  0.3466 -0.3034
 8409TIP3    H146718   4.780   4.205  13.644  0.3054 -1.6959  0.9904
 8409TIP3    H246719   4.828   4.249  13.508 -2.8610  0.2783  0.4184
 8410TIP3   OH246720   2.083   5.414  13.321 -0.4868 -0.0809  1.0033
 8410TIP3    H146721   2.011   5.359  13.290  0.6326 -0.4549 -1.1399
 8410TIP3    H246722   2.138   5.427  13.244  1.2829  0.9297  2.3619
 8411TIP3   OH246723   6.463   5.925   0.668  0.5854  0.0522  0.4528
 8411TIP3    H146724   6.546   5.955   0.705  0.1929 -1.0204  2.3996
 8411TIP3    H246725   6.486   5.850   0.614  1.0352  0.7086 -0.2726
 8412TIP3   OH246726   2.527   3.593  10.022  0.0912 -0.4079 -0.4840
 8412TIP3    H146727   2.512   3.623  10.112  2.7141  1.4631 -0.5619
 8412TIP3    H246728   2.584   3.517  10.031  1.8846  0.8860 -0.5644
 8413TIP3   OH246729   6.636   4.043   4.918 -0.6181  0.0244 -0.0944
 8413TIP3    H146730   6.582   4.068   4.843 -1.1605 -0.4174  0.1442
 8413TIP3    H246731   6.637   3.948   4.917  2.6513 -0.0933 -1.8596
 8414TIP3   OH246732   0.482   1.532   9.936  0.1782 -0.4985  0.1648
 8414TIP3    H146733   0.563   1.487   9.911 -0.3975 -1.4834  0.0104
 8414TIP3    H246734   0.510   1.600   9.998  1.1257 -0.7741  0.0518
 8415TIP3   OH246735   6.734   2.368  11.267  0.1328  0.3619  0.3276
 8415TIP3    H146736   6.738   2.370  11.363  1.4026  0.2705  0.2913
 8415TIP3    H246737   6.761   2.280  11.244 -0.0062  0.4397 -0.1342
 8416TIP3   OH246738   0.419   2.871   0.534  0.4913  0.3761 -0.5971
 8416TIP3    H146739   0.377   2.956   0.524 -1.2634 -0.2003  1.2607
 8416TIP3    H246740   0.506   2.892   0.570 -0.0803  1.3732  0.2428
 8417TIP3   OH246741   1.163   5.281  11.740  0.0745 -0.2205  0.4103
 8417TIP3    H146742   1.090   5.335  11.769  0.8225  0.7012  0.6117
 8417TIP3    H246743   1.209   5.334  11.675  0.4400 -0.8699  0.1256
 8418TIP3   OH246744   0.020   4.712  11.462 -0.4126 -0.5719  0.4055
 8418TIP3    H146745   0.106   4.683  11.434 -0.8942 -1.1183 -0.5507
 8418TIP3    H246746  -0.037   4.698  11.386 -1.3922 -0.4362  1.0842
 8419TIP3   OH246747   3.009   2.439  10.636  0.1193 -0.0984 -0.7638
 8419TIP3    H146748   2.945   2.454  10.705  1.0283  0.6464 -0.0457
 8419TIP3    H246749   3.088   2.484  10.666  0.2642  1.1030 -2.7273
 8420TIP3   OH246750   0.646   4.352  10.167  0.1593  0.1603  0.6602
 8420TIP3    H146751   0.618   4.280  10.111  2.3763 -0.6956  0.5366
 8420TIP3    H246752   0.565   4.387  10.204 -1.1008 -1.3536 -0.5192
 8421TIP3   OH246753   3.411   6.116  13.350 -0.6413  0.4443  0.2414
 8421TIP3    H146754   3.422   6.056  13.276 -3.6076  1.4221 -1.1637
 8421TIP3    H246755   3.372   6.063  13.419 -0.8369  0.1673 -0.0766
 8422TIP3   OH246756   7.044   5.067  14.090  0.3714  0.1616 -0.5203
 8422TIP3    H146757   6.989   5.135  14.131  0.7399 -0.3827  0.9343
 8422TIP3    H246758   7.133   5.103  14.094  0.3273  0.4177 -1.5528
 8423TIP3   OH246759   3.391   2.947  14.753  0.1342 -0.2767  0.8979
 8423TIP3    H146760   3.367   2.854  14.749 -0.9921 -0.0433  1.6962
 8423TIP3    H246761   3.486   2.947  14.739  0.0384 -1.4636  0.0370
 8424TIP3   OH246762   4.159   1.685   2.761  0.0596  0.4613 -0.1019
 8424TIP3    H146763   4.216   1.646   2.827 -0.5544 -0.8448 -0.3035
 8424TIP3    H246764   4.135   1.770   2.797  1.1406  0.5054  0.5419
 8425TIP3   OH246765   3.253   3.341  10.734 -0.4027 -0.1508  0.1028
 8425TIP3    H146766   3.268   3.424  10.780 -0.5177  0.0739 -0.2524
 8425TIP3    H246767   3.166   3.313  10.762 -0.5158  0.0388 -0.0517
 8426TIP3   OH246768   1.944   4.848  10.799  0.5233  0.9156  0.2942
 8426TIP3    H146769   1.999   4.894  10.862 -0.2732  0.0619  1.6529
 8426TIP3    H246770   1.924   4.764  10.841  0.9243 -0.1744 -1.5929
 8427TIP3   OH246771   3.991   6.993   2.110  0.1854 -0.0567 -0.1439
 8427TIP3    H146772   3.927   7.048   2.065  0.0518  0.6485  0.8745
 8427TIP3    H246773   4.067   6.991   2.051 -0.1669  0.4470 -0.6167
 8428TIP3   OH246774   5.418   0.658  11.645 -0.1473 -0.0771  0.3454
 8428TIP3    H146775   5.396   0.584  11.588 -0.2533  0.3274 -0.1433
 8428TIP3    H246776   5.504   0.687  11.615 -0.1398  0.0465  0.4853
 8429TIP3   OH246777   6.940   2.866  15.252  0.5814  0.8270  0.2017
 8429TIP3    H146778   6.908   2.889  15.165  1.2306 -1.5448 -0.7515
 8429TIP3    H246779   7.035   2.867  15.243  0.6609 -1.7106  0.1388
 8430TIP3   OH246780   2.046   7.049   2.523 -0.0628  0.4516 -0.0906
 8430TIP3    H146781   2.017   7.098   2.600 -2.1881  0.8311 -1.0431
 8430TIP3    H246782   2.015   7.101   2.448  0.1932 -0.8747 -1.1660
 8431TIP3   OH246783   1.571   0.147   4.004 -0.4625  0.1991  0.4928
 8431TIP3    H146784   1.508   0.200   4.052  0.7609  0.7963  1.5214
 8431TIP3    H246785   1.629   0.211   3.962 -0.2328 -0.3242 -0.0052
 8432TIP3   OH246786   5.748   1.500  12.967 -0.3145  0.0653 -0.2031
 8432TIP3    H146787   5.722   1.411  12.989 -0.1703  0.0525 -0.0841
 8432TIP3    H246788   5.775   1.538  13.050 -0.1831  0.1557 -0.2871
 8433TIP3   OH246789   4.296   0.031   2.323 -0.0875 -0.2468  0.7030
 8433TIP3    H146790   4.359  -0.040   2.337  1.4231  0.7551 -0.7061
 8433TIP3    H246791   4.260   0.014   2.236 -0.7582 -0.0400  0.9338
 8434TIP3   OH246792   6.306   6.291  14.824  0.4965  0.0315  0.3040
 8434TIP3    H146793   6.212   6.307  14.836 -0.1039 -1.7588 -1.3962
 8434TIP3    H246794   6.313   6.195  14.822  1.9596  0.1210 -2.1692
 8435TIP3   OH246795   4.485   3.481  10.896 -0.0859  0.6278  0.3453
 8435TIP3    H146796   4.404   3.431  10.887 -0.4011  0.7305  2.1339
 8435TIP3    H246797   4.457   3.567  10.927  0.7128  0.4915  1.5190
 8436TIP3   OH246798   4.504   5.794  10.588 -0.4502 -0.4846  0.1631
 8436TIP3    H146799   4.520   5.835  10.673  0.5878 -1.6267  0.5458
 8436TIP3    H246800   4.581   5.818  10.536 -1.4741  0.9404 -0.7892
 8437TIP3   OH246801   7.165   2.563  13.288 -0.2496  0.3399  0.4234
 8437TIP3    H146802   7.103   2.522  13.348 -0.6899 -1.5385 -1.2128
 8437TIP3    H246803   7.243   2.509  13.294 -0.7899 -0.7743 -1.6747
 8438TIP3   OH246804   0.770   6.603   0.996  0.1734 -0.0899 -0.6626
 8438TIP3    H146805   0.744   6.631   1.083  1.6597  0.1503 -0.2673
 8438TIP3    H246806   0.777   6.684   0.945  1.3251 -0.0010 -0.4055
 8439TIP3   OH246807   6.023   4.164  15.271 -0.4624 -0.2723 -0.0853
 8439TIP3    H146808   5.941   4.172  15.318 -2.0577 -0.9184 -2.5605
 8439TIP3    H246809   6.071   4.094  15.315 -1.5365 -0.3544  0.9707
 8440TIP3   OH246810   3.166   1.266   9.678 -0.6607 -0.5471 -0.3226
 8440TIP3    H146811   3.223   1.207   9.727 -1.7957 -0.5708  1.0435
 8440TIP3    H246812   3.120   1.208   9.616  0.4189 -0.5979 -1.0921
 8441TIP3   OH246813   6.671   5.186  11.517 -0.2048 -0.6984 -0.7032
 8441TIP3    H146814   6.707   5.167  11.430  0.8292  0.0057 -0.4450
 8441TIP3    H246815   6.727   5.255  11.552 -2.3421  1.1369 -0.6482
 8442TIP3   OH246816   1.872   3.000   0.281 -0.3062 -0.1306  0.1512
 8442TIP3    H146817   1.952   3.026   0.326 -0.0814 -1.1799  0.3796
 8442TIP3    H246818   1.858   2.909   0.307 -0.5848 -0.5263 -1.2909
 8443TIP3   OH246819   5.380   6.811  12.776 -0.0566 -0.2012 -0.6803
 8443TIP3    H146820   5.384   6.896  12.819 -2.7143 -0.0191 -0.6450
 8443TIP3    H246821   5.442   6.756  12.825  0.7802  1.3675  0.0696
 8444TIP3   OH246822   0.942   7.051  14.755 -0.4901 -0.1822 -0.3553
 8444TIP3    H146823   1.007   7.035  14.824 -1.0115 -0.7880  0.0006
 8444TIP3    H246824   0.891   7.125  14.788 -0.3855 -0.1090 -0.3534
 8445TIP3   OH246825   5.402   2.001   1.726  0.1941 -0.1501 -0.3454
 8445TIP3    H146826   5.381   1.934   1.792  1.3142 -0.7265 -0.5625
 8445TIP3    H246827   5.431   2.077   1.778 -1.1728  0.2299 -0.0955
 8446TIP3   OH246828   2.308   1.548  13.454 -0.3764 -0.5407 -0.1842
 8446TIP3    H146829   2.352   1.549  13.539  0.2670 -0.8740 -0.5095
 8446TIP3    H246830   2.317   1.458  13.423 -0.5764 -0.4122 -0.6205
 8447TIP3   OH246831   1.108   3.898  13.841  0.4768 -0.2500  0.3531
 8447TIP3    H146832   1.069   3.810  13.836  2.1294 -0.9857 -0.0749
 8447TIP3    H246833   1.189   3.891  13.791  0.7430  1.4744  0.5100
 8448TIP3   OH246834   0.870   6.098  12.972 -0.2270 -0.4983  0.0285
 8448TIP3    H146835   0.852   6.026  12.911 -1.0891 -0.1798 -0.1022
 8448TIP3    H246836   0.792   6.153  12.967  1.5266  2.0341 -2.0284
 8449TIP3   OH246837   5.336   4.257   3.347 -0.5077  0.0039 -0.3068
 8449TIP3    H146838   5.409   4.260   3.285 -0.3196 -1.8553 -0.2251
 8449TIP3    H246839   5.262   4.223   3.295 -0.9815  0.6185 -0.0570
 8450TIP3   OH246840   6.484   6.061  14.287  0.3368  0.3493 -0.3901
 8450TIP3    H146841   6.412   6.091  14.232  0.1892 -0.0427 -0.4124
 8450TIP3    H246842   6.476   5.966  14.288 -0.6436  0.4111  1.6352
 8451TIP3   OH246843   2.351   2.900  12.410  0.1235 -0.2052 -0.0230
 8451TIP3    H146844   2.309   2.917  12.494  0.1827 -0.9167  0.1527
 8451TIP3    H246845   2.287   2.931  12.345 -0.2239 -0.3135  0.2649
 8452TIP3   OH246846   7.123   5.041  10.565 -0.1872  0.3695 -0.5085
 8452TIP3    H146847   7.180   5.117  10.579 -0.0090  0.4750 -1.6752
 8452TIP3    H246848   7.034   5.076  10.567 -0.1402  0.4623 -0.1514
 8453TIP3   OH246849   3.632   6.576  10.250  0.0450  0.2671  0.1693
 8453TIP3    H146850   3.572   6.642  10.214 -0.8521  0.4790  1.9010
 8453TIP3    H246851   3.719   6.613  10.237 -0.3573  1.1177 -0.2069
 8454TIP3   OH246852   6.307   0.204  12.092  0.4832  0.1519 -0.2229
 8454TIP3    H146853   6.215   0.198  12.068  0.6953  1.5144 -1.4782
 8454TIP3    H246854   6.340   0.280  12.044  1.3572  2.1285  3.2067
 8455TIP3   OH246855   1.431   6.484  11.404  0.0248 -0.0249 -0.1075
 8455TIP3    H146856   1.441   6.482  11.499  2.1834 -0.2186 -0.2964
 8455TIP3    H246857   1.390   6.568  11.386  0.5637  0.4714  0.9185
 8456TIP3   OH246858   4.533   1.957  11.979  0.2470  0.0543 -0.3042
 8456TIP3    H146859   4.438   1.964  11.989  0.0854 -0.4979 -1.3405
 8456TIP3    H246860   4.553   1.867  12.005  0.6213  0.4298  0.7632
 8457TIP3   OH246861   4.667   6.148  11.925 -0.4965 -0.2537 -0.0670
 8457TIP3    H146862   4.737   6.157  11.990  1.0887  0.7736 -1.8125
 8457TIP3    H246863   4.602   6.213  11.952 -0.1216 -0.2212  0.7950
 8458TIP3   OH246864   6.939   3.962  14.864  0.2263  0.2393 -0.0342
 8458TIP3    H146865   6.908   3.916  14.943 -0.1464  2.6555  1.3404
 8458TIP3    H246866   7.024   3.998  14.889  0.2413  0.7758 -0.8269
 8459TIP3   OH246867   1.593   3.893   0.607  0.4161  0.1709 -0.2954
 8459TIP3    H146868   1.678   3.857   0.632 -0.0255 -0.0067  1.0520
 8459TIP3    H246869   1.599   3.985   0.633 -0.0801 -0.0326  0.5589
 8460TIP3   OH246870   2.011   6.440  14.167  0.4500  0.4685 -0.3998
 8460TIP3    H146871   1.980   6.485  14.088  1.4221 -0.5107 -1.3699
 8460TIP3    H246872   1.955   6.363  14.174  0.5567  0.3991 -0.3063
 8461TIP3   OH246873   7.038   4.787  10.753  0.2760  0.4042 -0.0493
 8461TIP3    H146874   6.957   4.838  10.748  0.3708  0.6215  0.4946
 8461TIP3    H246875   7.104   4.844  10.714  0.3113  0.5525  0.2204
 8462TIP3   OH246876   5.213   3.343   0.694  0.2461  0.0869 -0.2339
 8462TIP3    H146877   5.165   3.354   0.775  2.3429  0.7025  1.0007
 8462TIP3    H246878   5.275   3.271   0.712  0.0856 -0.4386 -1.6213
 8463TIP3   OH246879   6.823   1.419  11.037 -0.1948  0.5659 -0.3639
 8463TIP3    H146880   6.890   1.457  11.093  0.4551 -0.2281 -0.5863
 8463TIP3    H246881   6.820   1.327  11.062 -1.2197  0.5963 -0.3502
 8464TIP3   OH246882   0.737   6.715  14.797  0.1538 -0.2192 -0.3969
 8464TIP3    H146883   0.810   6.654  14.785 -1.8468 -2.5878 -1.4577
 8464TIP3    H246884   0.721   6.750  14.710 -0.3015 -0.1252 -0.2783
 8465TIP3   OH246885   2.178   6.961   0.362 -0.0738 -0.5348 -0.0387
 8465TIP3    H146886   2.228   6.989   0.285 -2.3637 -0.2610 -1.5318
 8465TIP3    H246887   2.155   7.042   0.408  3.0288 -0.7875  2.2291
 8466TIP3   OH246888   4.066   4.122  10.889  0.2144  1.1267 -0.2386
 8466TIP3    H146889   4.106   4.104  10.803 -1.9336  0.2490 -1.1380
 8466TIP3    H246890   4.140   4.145  10.945  1.8272  0.7225 -2.0590
 8467TIP3   OH246891   3.284   3.457  12.525 -0.0256 -0.7477 -0.0841
 8467TIP3    H146892   3.280   3.474  12.430 -0.6607  0.4182  0.1275
 8467TIP3    H246893   3.239   3.532  12.564 -0.3320 -1.5391  1.1199
 8468TIP3   OH246894   3.486   2.830   1.227  0.4238  0.2603 -0.1215
 8468TIP3    H146895   3.485   2.797   1.317 -1.5541 -0.2370 -0.2663
 8468TIP3    H246896   3.522   2.918   1.233  0.8169  0.0315  1.0664
 8469TIP3   OH246897   3.952   5.741  13.248 -0.1558  0.1947 -0.8852
 8469TIP3    H146898   3.873   5.692  13.228 -1.4870  1.3044  1.3185
 8469TIP3    H246899   3.924   5.833  13.251  0.8228  0.4806  1.5287
 8470TIP3   OH246900   4.504   5.372  14.191 -0.0783 -0.0964  0.2800
 8470TIP3    H146901   4.553   5.381  14.110  0.9088 -0.9974  0.7585
 8470TIP3    H246902   4.561   5.411  14.258  1.3344 -3.5600  1.3057
 8471TIP3   OH246903   0.784   1.192   1.215  0.1077 -0.6323  0.0867
 8471TIP3    H146904   0.763   1.119   1.272  1.5041 -2.0179 -1.0862
 8471TIP3    H246905   0.827   1.152   1.139  1.8244  1.4539 -0.1425
 8472TIP3   OH246906   0.786   5.989   3.273 -0.0023  0.6581 -0.1684
 8472TIP3    H146907   0.794   5.894   3.259 -1.3074  0.5172 -0.1419
 8472TIP3    H246908   0.789   6.026   3.186  1.0207  0.6584 -0.1492
 8473TIP3   OH246909   6.119   0.656  11.265  0.2089 -0.8041 -0.1573
 8473TIP3    H146910   6.082   0.597  11.199 -3.0553 -1.2169  1.8010
 8473TIP3    H246911   6.054   0.726  11.273  2.4059  1.3359 -0.0640
 8474TIP3   OH246912   0.265   4.057  12.050  0.1385  0.6671  0.1942
 8474TIP3    H146913   0.196   4.085  12.110 -0.3199  0.9032 -0.4388
 8474TIP3    H246914   0.331   4.126  12.058  0.4910  0.2552  1.0756
 8475TIP3   OH246915   5.092   0.405   1.587  0.1969 -0.0044  0.2192
 8475TIP3    H146916   5.132   0.442   1.666 -1.0353  0.6415  0.5705
 8475TIP3    H246917   5.011   0.455   1.576  0.4806  0.1272 -1.6305
 8476TIP3   OH246918   2.544   1.010  11.325 -0.1080  0.7608  0.1673
 8476TIP3    H146919   2.522   1.000  11.417  1.7154  0.4775  0.6145
 8476TIP3    H246920   2.580   0.925  11.299 -0.6947  0.8060 -0.8465
 8477TIP3   OH246921   0.762   5.804   9.881 -0.2089 -0.1257 -0.3219
 8477TIP3    H146922   0.760   5.891   9.841 -0.6334  0.0639  0.0986
 8477TIP3    H246923   0.854   5.788   9.900 -0.3132  1.0798  1.4035
 8478TIP3   OH246924   6.990   7.046  13.652  0.1442  0.2080  0.3429
 8478TIP3    H146925   6.996   6.965  13.702 -0.4480 -0.0929 -0.0641
 8478TIP3    H246926   6.954   7.019  13.568 -2.3445  1.2212  1.0050
 8479TIP3   OH246927   7.045   0.513  14.385  0.2874  0.6208 -0.1388
 8479TIP3    H146928   6.959   0.538  14.353  0.6214  0.9980 -0.7564
 8479TIP3    H246929   7.106   0.557  14.327  0.9285  1.8575  1.4143
 8480TIP3   OH246930   1.320   3.232  10.072 -0.2901  0.8468 -0.0982
 8480TIP3    H146931   1.234   3.192  10.077  0.2798 -0.5960 -1.2113
 8480TIP3    H246932   1.364   3.204  10.152 -0.5088  0.7698 -0.0048
 8481TIP3   OH246933   2.642   3.497  10.692 -0.0408 -0.0598 -0.1234
 8481TIP3    H146934   2.563   3.550  10.679 -0.7270 -1.0671 -0.2218
 8481TIP3    H246935   2.616   3.430  10.756  1.0379  0.1892  0.6094
 8482TIP3   OH246936   0.322   3.534  10.158  0.1164 -0.3793 -0.1340
 8482TIP3    H146937   0.364   3.581  10.230  0.3514  0.4897 -0.8186
 8482TIP3    H246938   0.246   3.492  10.197 -0.1575  0.6651  0.4744
 8483TIP3   OH246939   1.478   6.828  11.640  0.0509 -0.0706 -0.1463
 8483TIP3    H146940   1.410   6.844  11.575  0.1239  0.6225 -0.0521
 8483TIP3    H246941   1.526   6.752  11.606  0.3804  0.5597 -1.1435
 8484TIP3   OH246942   4.132   2.702  14.219  0.0089 -0.7283 -0.4969
 8484TIP3    H146943   4.201   2.759  14.184 -0.1164 -1.2373 -1.6215
 8484TIP3    H246944   4.179   2.633  14.266  0.3862 -1.8087 -2.3460
 8485TIP3   OH246945   2.553   2.207   1.445 -0.1443  0.9510 -0.5501
 8485TIP3    H146946   2.577   2.284   1.393  0.8472  1.1281  0.1347
 8485TIP3    H246947   2.613   2.139   1.415 -0.1425  0.8174 -0.2437
 8486TIP3   OH246948   4.604   7.219  14.344 -0.1601 -0.5808 -0.4431
 8486TIP3    H146949   4.682   7.187  14.390  0.0649 -1.7145 -1.5677
 8486TIP3    H246950   4.569   7.141  14.301 -0.3166  0.4528 -2.2530
 8487TIP3   OH246951   4.500   3.391  14.923 -0.1380  0.1102  0.2002
 8487TIP3    H146952   4.481   3.447  14.848 -0.9946  0.1406  0.4199
 8487TIP3    H246953   4.414   3.372  14.961  0.2924  0.2178  1.2674
 8488TIP3   OH246954   4.832   2.162  14.279 -0.0996  0.6071 -0.3376
 8488TIP3    H146955   4.749   2.209  14.271 -0.7232 -0.7118 -2.0578
 8488TIP3    H246956   4.809   2.079  14.322  0.3145  0.2027 -0.8845
 8489TIP3   OH246957   2.184   4.998  13.092 -0.3635 -0.0861 -0.0879
 8489TIP3    H146958   2.211   4.909  13.070 -1.1183 -0.1983 -0.5815
 8489TIP3    H246959   2.263   5.039  13.127 -0.2087 -1.1975  0.9263
 8490TIP3   OH246960   5.575   2.495   3.334  0.5033  0.0291 -0.1877
 8490TIP3    H146961   5.597   2.530   3.248 -3.5727  1.2506 -0.9397
 8490TIP3    H246962   5.587   2.568   3.394  0.8077 -0.0344 -0.1712
 8491TIP3   OH246963   1.802   1.020  13.465  0.2853  0.2879  0.7590
 8491TIP3    H146964   1.778   1.113  13.466 -0.9947  0.0072 -0.7762
 8491TIP3    H246965   1.818   0.999  13.557 -0.8949  1.6578  1.3161
 8492TIP3   OH246966   3.694   3.613  15.102  0.5353 -0.0784  0.4308
 8492TIP3    H146967   3.610   3.568  15.103  0.4550  0.0468 -0.2421
 8492TIP3    H246968   3.749   3.563  15.162 -0.5363  0.8679  2.2912
 8493TIP3   OH246969   5.906   2.282   1.197  0.7727 -0.1208 -0.5040
 8493TIP3    H146970   5.871   2.351   1.140 -0.5100 -0.1835  0.1573
 8493TIP3    H246971   5.957   2.226   1.139  0.5944  0.5609 -1.3369
 8494TIP3   OH246972   5.335   5.852   9.517  0.3917 -0.2226  0.0880
 8494TIP3    H146973   5.347   5.836   9.423 -1.0751 -2.0949  0.1453
 8494TIP3    H246974   5.407   5.806   9.559  0.7742  0.2118 -0.0812
 8495TIP3   OH246975   0.543   4.468   2.778  0.1229 -0.1995  0.2006
 8495TIP3    H146976   0.465   4.516   2.803 -0.2427 -0.3200 -0.6543
 8495TIP3    H246977   0.511   4.380   2.756  0.8330 -1.0015  2.1648
 8496TIP3   OH246978   3.659   4.080   2.948 -0.1345  0.2418  0.1875
 8496TIP3    H146979   3.732   4.019   2.936  0.7326  0.9658  1.4663
 8496TIP3    H246980   3.649   4.124   2.864  0.2501 -0.5605 -0.2845
 8497TIP3   OH246981   3.535   3.032  10.040 -0.4140  0.0281  0.3014
 8497TIP3    H146982   3.444   3.063  10.047  0.0667  1.7026 -0.6243
 8497TIP3    H246983   3.537   2.983   9.958 -0.0837  1.4993 -0.5977
 8498TIP3   OH246984   1.447   4.521   2.537  0.3854  0.2658 -0.7220
 8498TIP3    H146985   1.415   4.548   2.623 -0.1841 -1.2970 -0.4303
 8498TIP3    H246986   1.435   4.599   2.482  0.4478  1.1806  0.5122
 8499TIP3   OH246987   6.798   4.870   2.953  0.4042 -0.0280 -0.0190
 8499TIP3    H146988   6.888   4.858   2.983  0.5169  1.4503  0.2854
 8499TIP3    H246989   6.748   4.805   3.002  1.2452 -0.6710  0.0168
 8500TIP3   OH246990   6.241   1.620  13.969  0.3325  0.6447 -0.2257
 8500TIP3    H146991   6.311   1.652  14.026 -1.2035  1.4856  1.2707
 8500TIP3    H246992   6.186   1.567  14.026 -0.8783  0.9469 -1.0752
 8501TIP3   OH246993   0.239   0.569  13.418  0.1459  0.4961  0.0005
 8501TIP3    H146994   0.273   0.483  13.445 -0.7649  0.1031 -0.0746
 8501TIP3    H246995   0.145   0.555  13.407  0.0871  1.3463 -0.6554
 8502TIP3   OH246996   5.504   4.378   9.901 -0.2336 -0.3443 -0.8476
 8502TIP3    H146997   5.504   4.296   9.852 -0.6171 -0.4820 -0.6171
 8502TIP3    H246998   5.591   4.414   9.886 -0.0313 -0.8358 -0.8768
 8503TIP3   OH246999   5.967   3.924  13.484 -0.0214  0.1493 -0.3523
 8503TIP3    H147000   6.034   3.910  13.418  0.0094 -1.5404 -0.0126
 8503TIP3    H247001   5.891   3.956  13.435  0.5903  0.7486 -0.9223
 8504TIP3   OH247002   5.391   6.948  14.681  0.2615  0.5752  0.0411
 8504TIP3    H147003   5.300   6.961  14.706  0.7310  0.8440  1.7872
 8504TIP3    H247004   5.393   6.864  14.637 -0.8203  0.5558  0.0059
 8505TIP3   OH247005   4.460   4.246   2.128  0.2602  0.1680  0.0405
 8505TIP3    H147006   4.514   4.182   2.175  0.7759 -1.1225 -2.1900
 8505TIP3    H247007   4.522   4.313   2.098  0.0124  0.6854  0.6357
 8506TIP3   OH247008   4.025   2.273   3.835  0.8717 -0.1544  0.5216
 8506TIP3    H147009   4.043   2.217   3.759 -0.9315 -0.4870  0.2864
 8506TIP3    H247010   3.940   2.243   3.867  0.2530  1.8729  0.9258
 8507TIP3   OH247011   6.973   6.747   0.260  0.3998 -0.5517 -0.0308
 8507TIP3    H147012   6.887   6.713   0.288 -0.3984  0.9770 -0.5094
 8507TIP3    H247013   6.953   6.832   0.221  2.2190  0.0617  0.3066
 8508TIP3   OH247014   0.950   4.299   3.160 -0.3599 -0.0660  0.1184
 8508TIP3    H147015   0.888   4.236   3.197  2.0064 -1.7079  1.5998
 8508TIP3    H247016   0.939   4.378   3.213 -1.1669 -0.3346  0.3618
 8509TIP3   OH247017   4.171   6.000  12.584 -0.5141  0.1836 -0.2661
 8509TIP3    H147018   4.257   5.973  12.551 -0.7776  0.6869 -1.4055
 8509TIP3    H247019   4.172   5.975  12.676  0.1581 -1.4816 -0.6974
 8510TIP3   OH247020   0.289   1.679   0.844  0.4763  0.1055  0.7796
 8510TIP3    H147021   0.235   1.702   0.919  0.2683 -1.3797  1.1150
 8510TIP3    H247022   0.351   1.752   0.835 -1.0461  1.4560  0.8666
 8511TIP3   OH247023   1.192   1.018  13.670 -0.8138  0.3328 -0.7755
 8511TIP3    H147024   1.122   0.973  13.716  1.2847 -0.3502  2.0314
 8511TIP3    H247025   1.253   0.948  13.645  1.3026  1.2618  1.4661
 8512TIP3   OH247026   2.808   2.002  15.230 -1.1274  0.4823 -0.1877
 8512TIP3    H147027   2.725   2.047  15.213 -2.3283 -1.8163 -0.8374
 8512TIP3    H247028   2.825   2.017  15.323 -1.0737  2.7973 -0.5022
 8513TIP3   OH247029   1.713   7.044   1.589 -0.1592 -0.4931  0.7146
 8513TIP3    H147030   1.785   7.107   1.597 -0.6483  0.3886 -1.1809
 8513TIP3    H247031   1.644   7.079   1.644 -0.4425  0.7067 -0.3580
 8514TIP3   OH247032   0.643   6.291  10.398  0.3982  0.0737  0.6059
 8514TIP3    H147033   0.611   6.240  10.324  0.0775 -2.1227  2.1609
 8514TIP3    H247034   0.565   6.309  10.450  0.6866  1.1437  0.6894
 8515TIP3   OH247035   1.864   6.083  12.775 -0.0851  0.1319 -0.1634
 8515TIP3    H147036   1.850   6.020  12.705 -1.0180  1.6001 -1.3479
 8515TIP3    H247037   1.782   6.131  12.782  0.1303  0.3344  1.6590
 8516TIP3   OH247038   3.904   6.391   1.588 -0.0823 -0.4620 -0.1500
 8516TIP3    H147039   3.847   6.445   1.644 -1.1926 -2.5726  0.8843
 8516TIP3    H247040   3.903   6.435   1.503  1.5333  2.7963  1.3432
 8517TIP3   OH247041   7.206   0.329   4.427 -0.0307  0.0889 -0.1993
 8517TIP3    H147042   7.278   0.391   4.420 -0.0208  0.0090 -0.8933
 8517TIP3    H247043   7.137   0.377   4.473  0.5152  0.1140  0.6101
 8518TIP3   OH247044   6.134   6.096  14.454  0.4209 -1.0707 -0.0343
 8518TIP3    H147045   6.104   6.071  14.367 -1.2026 -2.0678  0.7617
 8518TIP3    H247046   6.131   6.191  14.454 -0.9571 -1.0887 -0.6365
 8519TIP3   OH247047   3.666   4.835   5.028 -0.0235 -0.5081 -0.2758
 8519TIP3    H147048   3.678   4.763   5.090 -1.8665 -0.8177 -0.2242
 8519TIP3    H247049   3.745   4.888   5.037  0.4987 -1.4618  1.1039
 8520TIP3   OH247050   3.701   2.361   1.147  0.8560  0.3259  0.0069
 8520TIP3    H147051   3.675   2.450   1.169  1.2862  0.7301 -1.0358
 8520TIP3    H247052   3.651   2.306   1.206  1.6444  1.3118  1.6824
 8521TIP3   OH247053   2.413   5.472   4.611 -0.3550 -0.4680 -0.1781
 8521TIP3    H147054   2.387   5.563   4.621  1.1870  0.0314 -0.4543
 8521TIP3    H247055   2.498   5.466   4.656 -0.1660 -1.6260 -0.6382
 8522TIP3   OH247056   4.345   5.010  10.690 -0.1065 -0.2159  0.4224
 8522TIP3    H147057   4.421   5.014  10.748 -0.1388  2.3097  0.3688
 8522TIP3    H247058   4.377   4.966  10.612  0.6906 -1.1183  1.2306
 8523TIP3   OH247059   6.258   5.030  11.201 -0.7380  1.0796  0.7414
 8523TIP3    H147060   6.258   5.058  11.293 -0.8810  2.4425  0.3547
 8523TIP3    H247061   6.291   4.941  11.203 -0.3035  1.2419  2.0750
 8524TIP3   OH247062   2.811   6.061  11.270 -0.2313 -0.5418 -0.2603
 8524TIP3    H147063   2.840   6.067  11.361 -0.0827 -0.6213 -0.3024
 8524TIP3    H247064   2.716   6.049  11.276 -0.4303  0.9560 -0.1510
 8525TIP3   OH247065   3.835   4.770  10.256 -0.6545  0.2458 -0.0036
 8525TIP3    H147066   3.815   4.822  10.334 -1.6838 -0.9693  0.5658
 8525TIP3    H247067   3.772   4.800  10.191 -0.8360  0.1457  0.1270
 8526TIP3   OH247068   7.132   1.248  10.369 -0.3214  0.0004  0.3249
 8526TIP3    H147069   7.046   1.275  10.338 -0.6083 -0.7232  0.4632
 8526TIP3    H247070   7.135   1.154  10.352  1.6685  0.4771 -2.6253
 8527TIP3   OH247071   2.677   1.681   9.556  0.7519 -0.2712  0.1584
 8527TIP3    H147072   2.693   1.775   9.564 -0.6686  0.0119 -0.1048
 8527TIP3    H247073   2.594   1.674   9.508 -0.1343 -1.6130  1.7847
 8528TIP3   OH247074   5.382   5.400   0.045 -0.1213  0.0480  0.1000
 8528TIP3    H147075   5.338   5.320   0.075  0.8152 -0.5302 -0.0379
 8528TIP3    H247076   5.329   5.430  -0.029  0.0119 -0.9383 -0.4107
 8529TIP3   OH247077   6.031   3.666   1.796  0.2953  0.1222  0.0597
 8529TIP3    H147078   6.111   3.697   1.754  0.3191  1.3846  0.9749
 8529TIP3    H247079   5.960   3.713   1.751  0.2887  1.1096  1.0496
 8530TIP3   OH247080   4.367   4.645  10.326  1.3261  0.4243 -0.6573
 8530TIP3    H147081   4.314   4.567  10.310  1.2010 -0.0239  1.6658
 8530TIP3    H247082   4.362   4.694  10.244 -2.6756  0.4159 -0.6018
 8531TIP3   OH247083   5.792   5.622   1.330 -0.0313  0.4596 -0.0691
 8531TIP3    H147084   5.759   5.711   1.340 -0.2933  0.3015  0.4947
 8531TIP3    H247085   5.733   5.569   1.384 -1.4195 -0.3943 -2.2720
 8532TIP3   OH247086   2.714   6.508  13.513  0.1071  0.2969 -0.8595
 8532TIP3    H147087   2.780   6.443  13.491 -0.0790 -0.1230 -0.2122
 8532TIP3    H247088   2.634   6.457  13.528  0.1743  0.5849  0.5418
 8533TIP3   OH247089   5.053   2.262  10.238  0.0974  0.0688  0.0032
 8533TIP3    H147090   5.112   2.202  10.193 -1.3916  0.3475 -2.5058
 8533TIP3    H247091   4.967   2.220  10.232 -0.7037  1.6786 -0.4148
 8534TIP3   OH247092   4.723   6.673   0.704 -0.3300 -0.8837  0.1349
 8534TIP3    H147093   4.722   6.708   0.793  0.6014 -1.9624  0.6079
 8534TIP3    H247094   4.672   6.592   0.710  1.5394 -2.1228  0.2597
 8535TIP3   OH247095   6.615   4.514  15.234 -0.1808 -0.7216  0.2705
 8535TIP3    H147096   6.564   4.452  15.180 -0.4598 -1.3657  1.2551
 8535TIP3    H247097   6.672   4.459  15.286  0.3311 -0.0772  0.3982
 8536TIP3   OH247098   5.122   7.049  13.943 -0.0963  0.4556 -0.1540
 8536TIP3    H147099   5.054   7.042  13.876 -0.0143 -4.2791 -0.0435
 8536TIP3    H247100   5.193   6.994  13.911  1.1504  0.3630  2.5093
 8537TIP3   OH247101   3.068   2.034   2.282  0.1940 -0.2297 -0.5037
 8537TIP3    H147102   3.163   2.045   2.276  0.1138 -0.4015 -2.9944
 8537TIP3    H247103   3.056   1.963   2.345  1.4637  2.2345  2.7920
 8538TIP3   OH247104   1.065   2.017   9.947  0.6203  0.2878  0.1069
 8538TIP3    H147105   1.013   2.074   9.890 -0.3353 -0.2761  0.3766
 8538TIP3    H247106   1.154   2.052   9.942  0.3868  0.7866 -1.0331
 8539TIP3   OH247107   0.623   2.879   4.319 -0.2205 -0.0521  0.0699
 8539TIP3    H147108   0.647   2.971   4.308  0.7040 -0.4950 -2.0347
 8539TIP3    H247109   0.528   2.879   4.315 -0.1764  0.6346 -1.8564
 8540TIP3   OH247110   5.583   4.136  14.857 -0.5482  0.1620 -0.4611
 8540TIP3    H147111   5.595   4.084  14.778  0.0429 -1.2451  0.5160
 8540TIP3    H247112   5.576   4.072  14.927 -2.5337  1.3245  0.4833
 8541TIP3   OH247113   1.803   4.404   9.777 -0.1482  0.0642 -0.2995
 8541TIP3    H147114   1.765   4.339   9.836  1.3202 -0.8770 -0.3549
 8541TIP3    H247115   1.765   4.487   9.806  1.1645 -0.2261  2.5696
 8542TIP3   OH247116   7.137   6.220  14.995 -0.1800 -0.2147 -0.3365
 8542TIP3    H147117   7.176   6.160  14.931 -1.8492 -2.6692  0.8261
 8542TIP3    H247118   7.055   6.249  14.954 -0.7379 -0.9662  0.2237
 8543TIP3   OH247119   4.708   4.794   2.785 -0.2022 -0.4757 -0.8109
 8543TIP3    H147120   4.696   4.778   2.692 -0.4549 -1.4739 -0.6167
 8543TIP3    H247121   4.619   4.811   2.818  0.1571  3.1789 -1.2814
 8544TIP3   OH247122   7.019   3.418  11.410  0.4338  0.6269 -0.0315
 8544TIP3    H147123   6.933   3.443  11.377  0.5283  0.2782 -0.5556
 8544TIP3    H247124   7.079   3.437  11.338  0.7911  0.8227  0.3111
 8545TIP3   OH247125   0.626   7.042  14.204  0.1732 -0.1102 -0.0381
 8545TIP3    H147126   0.586   7.033  14.117  0.4606  0.3250 -0.2175
 8545TIP3    H247127   0.570   6.989  14.261 -0.2921 -0.0272 -0.4049
 8546TIP3   OH247128   6.026   5.111   2.424  0.3648 -0.0748 -0.1325
 8546TIP3    H147129   6.089   5.047   2.392  0.0935  0.0369 -0.9117
 8546TIP3    H247130   5.950   5.100   2.367 -0.9671 -1.3008  1.7510
 8547TIP3   OH247131   4.224   1.011  14.886  0.2350  0.0183  0.0169
 8547TIP3    H147132   4.310   1.050  14.874  0.0917  0.0771 -0.8765
 8547TIP3    H247133   4.228   0.969  14.972  0.8559  0.7748  0.3680
 8548TIP3   OH247134   3.337   0.945   3.032  0.1487  0.0950 -0.0618
 8548TIP3    H147135   3.270   0.901   3.086  1.6194  1.6510  3.2994
 8548TIP3    H247136   3.287   0.994   2.968 -2.1895  2.0828  2.9867
 8549TIP3   OH247137   0.862   7.114  12.786 -0.0654  0.6786 -0.0239
 8549TIP3    H147138   0.822   7.051  12.725  0.4470 -2.2807  2.4916
 8549TIP3    H247139   0.952   7.124  12.755 -0.3205  0.6746 -0.7934
 8550TIP3   OH247140   2.853   3.822   3.081 -0.3564 -0.5024 -0.5966
 8550TIP3    H147141   2.925   3.802   3.022 -0.0875 -1.8228  0.1192
 8550TIP3    H247142   2.825   3.910   3.058 -1.9288 -1.8070 -4.4001
 8551TIP3   OH247143   3.531   0.694   9.490 -0.8071 -0.1548 -0.2407
 8551TIP3    H147144   3.539   0.746   9.570  0.3750 -1.5583  0.6042
 8551TIP3    H247145   3.437   0.676   9.483 -1.2374  1.9062 -0.4925
 8552TIP3   OH247146   0.680   4.104   2.597  0.5003  0.3211  0.5976
 8552TIP3    H147147   0.588   4.112   2.621  0.2792  1.6737 -0.5943
 8552TIP3    H247148   0.719   4.188   2.621  1.0564  0.3515 -0.3623
 8553TIP3   OH247149   0.096   3.892   0.430  0.6679 -0.1547  0.8860
 8553TIP3    H147150   0.143   3.904   0.513  0.0067 -1.4235  1.4860
 8553TIP3    H247151   0.146   3.825   0.384 -0.2169 -1.1793  1.3298
 8554TIP3   OH247152   1.322   6.606   1.919  0.4548 -0.4054 -0.0857
 8554TIP3    H147153   1.385   6.547   1.877  0.5792 -0.6280  0.4075
 8554TIP3    H247154   1.376   6.669   1.966  0.3119 -0.4137  0.0901
 8555TIP3   OH247155   1.953   5.164   2.628 -0.1231 -0.1042 -0.0370
 8555TIP3    H147156   1.975   5.231   2.693  1.3404  0.2514 -0.8583
 8555TIP3    H247157   1.861   5.143   2.646 -0.2072  1.1080  1.1284
 8556TIP3   OH247158   2.629   5.142  14.990  0.0980  0.1848  0.0475
 8556TIP3    H147159   2.609   5.207  15.058 -0.2875  1.2145 -1.0287
 8556TIP3    H247160   2.718   5.114  15.010  0.0585  0.6131  0.8657
 8557TIP3   OH247161   3.478   5.352  15.300 -0.1270 -0.0264 -0.0388
 8557TIP3    H147162   3.551   5.413  15.294 -0.7760  0.5832 -3.2854
 8557TIP3    H247163   3.515   5.267  15.278 -0.2330  0.1342 -0.8401
 8558TIP3   OH247164   4.956   6.577  11.188 -0.2461 -0.1382  0.6008
 8558TIP3    H147165   4.946   6.671  11.174 -0.4791 -0.3788 -1.0428
 8558TIP3    H247166   5.050   6.563  11.198 -0.1111  0.1606 -0.1873
 8559TIP3   OH247167   5.418   4.563   0.068  0.2543  0.0350  0.0196
 8559TIP3    H147168   5.511   4.585   0.071  1.0527 -2.8743  0.9078
 8559TIP3    H247169   5.399   4.550  -0.024  1.6547 -2.3341 -0.0222
 8560TIP3   OH247170   2.101   2.765  14.683 -0.1425 -0.1152 -0.1938
 8560TIP3    H147171   2.094   2.848  14.730  1.0733  0.4024 -0.8858
 8560TIP3    H247172   2.195   2.749  14.677 -0.3658 -2.1015  0.8637
 8561TIP3   OH247173   4.100   5.574  14.151  0.1785  0.1913  0.1406
 8561TIP3    H147174   4.130   5.483  14.154 -0.7368 -0.1742 -0.9784
 8561TIP3    H247175   4.055   5.588  14.234  1.5908  0.1039  0.9483
 8562TIP3   OH247176   2.192   2.267  10.605  0.2547  0.2420 -0.1781
 8562TIP3    H147177   2.267   2.269  10.546  2.3527 -0.9009  2.2698
 8562TIP3    H247178   2.121   2.231  10.552  1.7911  0.0110 -2.2055
 8563TIP3   OH247179   2.313   0.340  12.840  0.2623  0.2687 -0.4026
 8563TIP3    H147180   2.302   0.298  12.925  1.5284  1.4386  0.3812
 8563TIP3    H247181   2.229   0.382  12.823 -0.5253 -1.2615 -0.5073
 8564TIP3   OH247182   5.142   2.621  10.974 -0.0077  0.1748 -0.0363
 8564TIP3    H147183   5.103   2.555  11.031  0.8005 -0.1891  0.1058
 8564TIP3    H247184   5.197   2.571  10.914 -1.6356  0.4329 -1.8492
 8565TIP3   OH247185   4.942   3.881  10.823 -0.0477 -0.1733  0.6872
 8565TIP3    H147186   4.908   3.851  10.738  0.3434 -0.2398  0.5505
 8565TIP3    H247187   5.027   3.838  10.830  0.8583  1.4579  0.1503
 8566TIP3   OH247188   0.453   0.473  10.812  0.3096 -0.4987 -0.6168
 8566TIP3    H147189   0.443   0.378  10.808 -1.1129 -0.4413  0.6676
 8566TIP3    H247190   0.424   0.504  10.726 -1.2890 -1.1105 -0.3406
 8567TIP3   OH247191   6.068   5.411   0.787 -0.4406  0.4541 -0.3866
 8567TIP3    H147192   6.000   5.393   0.851  0.7113  1.5524  1.2513
 8567TIP3    H247193   6.132   5.465   0.835  2.6652 -2.2472 -1.1525
 8568TIP3   OH247194   6.302   6.119   0.977  0.1472 -0.0197 -0.1713
 8568TIP3    H147195   6.209   6.126   0.953  0.1407 -1.2596 -0.6117
 8568TIP3    H247196   6.347   6.111   0.893  0.6739  0.7263  0.0368
 8569TIP3   OH247197   4.377   0.679  13.222  0.2836 -0.1023 -0.0991
 8569TIP3    H147198   4.312   0.614  13.248 -1.5159  1.3558 -0.7382
 8569TIP3    H247199   4.350   0.706  13.134  1.7451  0.5861 -0.3623
 8570TIP3   OH247200   6.919   4.315  11.638 -0.1806 -0.1907 -0.5094
 8570TIP3    H147201   6.887   4.252  11.703  1.5160 -1.2205 -0.6192
 8570TIP3    H247202   6.883   4.283  11.555 -0.4468 -0.2100 -0.3897
 8571TIP3   OH247203   1.128   7.122  12.798 -0.2290  0.0392 -0.1772
 8571TIP3    H147204   1.159   7.211  12.777 -0.4335  0.1821  0.1194
 8571TIP3    H247205   1.130   7.118  12.894  0.3619 -0.4893 -0.2012
 8572TIP3   OH247206   7.242   5.308   1.591  0.0996 -0.4927  0.2638
 8572TIP3    H147207   7.320   5.309   1.536 -0.1685 -1.0868 -0.1488
 8572TIP3    H247208   7.248   5.226   1.639 -1.4481 -1.7692 -1.5644
 8573TIP3   OH247209   2.387   3.288  10.251 -0.5002 -0.2513  0.3687
 8573TIP3    H147210   2.345   3.373  10.262  0.4764  0.3988 -0.6287
 8573TIP3    H247211   2.387   3.274  10.156  2.0467  0.1200  0.2355
 8574TIP3   OH247212   4.463   4.457  12.616 -0.7355 -0.1260 -0.0011
 8574TIP3    H147213   4.511   4.448  12.534  1.4679 -3.3924  1.4661
 8574TIP3    H247214   4.452   4.552  12.627  3.0296  0.6982 -1.7781
 8575TIP3   OH247215   4.999   6.183  11.165  0.0815  0.3576 -0.1560
 8575TIP3    H147216   4.972   6.120  11.232 -0.2064 -1.0251 -1.5085
 8575TIP3    H247217   4.917   6.219  11.133  0.2150  0.9572  0.1653
 8576TIP3   OH247218   3.430   5.473   3.648  0.4595 -0.0783 -0.6029
 8576TIP3    H147219   3.477   5.395   3.617 -1.7234 -1.8091  0.1606
 8576TIP3    H247220   3.365   5.490   3.580 -0.0550  0.1546 -0.0608
 8577TIP3   OH247221   4.647   7.105  11.280  0.3726 -0.2213 -0.3700
 8577TIP3    H147222   4.632   7.012  11.265  0.0612 -0.5449  1.7508
 8577TIP3    H247223   4.726   7.109  11.333 -0.3374  0.6108  0.6823
 8578TIP3   OH247224   2.001   3.002  12.936  0.2448  0.6636 -0.3652
 8578TIP3    H147225   2.094   2.992  12.955  0.4935  0.3640 -1.6413
 8578TIP3    H247226   1.960   2.927  12.978  0.6556  0.4534 -0.3311
 8579TIP3   OH247227   5.235   1.370   3.747  0.0842  0.7296  0.2148
 8579TIP3    H147228   5.184   1.376   3.828  0.1540 -0.2969  0.3484
 8579TIP3    H247229   5.224   1.279   3.719  1.9533  0.4458  0.3210
 8580TIP3   OH247230   5.340   2.708  13.412 -0.4722  0.4534 -0.4837
 8580TIP3    H147231   5.306   2.618  13.414  0.5753  0.0387 -0.0539
 8580TIP3    H247232   5.415   2.705  13.471 -0.5405  1.6724 -0.3265
 8581TIP3   OH247233   1.670   5.904  14.021 -0.2259 -0.0655  0.4745
 8581TIP3    H147234   1.605   5.968  13.992 -1.8053 -1.2772  1.2561
 8581TIP3    H247235   1.620   5.835  14.063  1.3823 -2.0696 -0.7047
 8582TIP3   OH247236   5.024   0.197   9.589  0.3096  0.4389 -0.3408
 8582TIP3    H147237   5.008   0.279   9.543 -0.5434  0.4379 -0.0524
 8582TIP3    H247238   5.022   0.130   9.520 -0.4400  0.4961 -0.3751
 8583TIP3   OH247239   5.868   2.012  13.766 -0.0782  0.0272 -0.0952
 8583TIP3    H147240   5.837   1.975  13.850 -0.1805  2.6291  1.1106
 8583TIP3    H247241   5.961   2.026  13.779  0.4360 -1.8002 -1.3881
 8584TIP3   OH247242   6.309   4.943   9.743  0.1554  0.8793 -0.0834
 8584TIP3    H147243   6.226   4.899   9.759  1.3620 -2.0497 -1.0145
 8584TIP3    H247244   6.309   4.962   9.649  0.7445  0.2572 -0.2226
 8585TIP3   OH247245   4.648   6.041  11.073  0.1588 -0.3424 -0.1481
 8585TIP3    H147246   4.561   6.080  11.060 -0.1663 -0.7354  0.7613
 8585TIP3    H247247   4.630   5.950  11.097  0.6466  0.2387  2.8147
 8586TIP3   OH247248   4.618   5.072  11.995  0.0239  0.6491  0.1051
 8586TIP3    H147249   4.674   5.148  12.010 -2.0246  2.4616 -0.9301
 8586TIP3    H247250   4.552   5.075  12.064  0.0795 -0.3751  0.2227
 8587TIP3   OH247251   0.598   5.447   3.624 -0.1691  0.2976 -0.2260
 8587TIP3    H147252   0.643   5.460   3.708  1.5134  1.1019 -1.1919
 8587TIP3    H247253   0.658   5.391   3.574  0.8020  2.9505 -2.2600
 8588TIP3   OH247254   6.299   1.870   3.989 -0.0608 -0.1619 -0.4097
 8588TIP3    H147255   6.329   1.929   3.920  0.1948 -2.8143 -2.7572
 8588TIP3    H247256   6.262   1.928   4.056  0.3286  2.6085 -2.4059
 8589TIP3   OH247257   2.620   3.235  10.370  0.2162  0.2070  0.0927
 8589TIP3    H147258   2.661   3.218  10.285  0.2686 -0.3651  0.2266
 8589TIP3    H247259   2.529   3.255  10.350  0.7253  2.4929 -0.3035
 8590TIP3   OH247260   6.007   2.061  14.460 -0.3312 -0.2004  0.3128
 8590TIP3    H147261   6.073   2.118  14.499  0.2450 -0.8130  0.2414
 8590TIP3    H247262   5.974   2.009  14.533  0.5800 -1.1804  0.0542
 8591TIP3   OH247263   4.176   4.661  11.057  0.9310 -0.4545 -0.3445
 8591TIP3    H147264   4.246   4.660  11.122  1.4087  0.6773 -0.8051
 8591TIP3    H247265   4.160   4.754  11.041 -0.8889 -0.6726 -0.0411
 8592TIP3   OH247266   0.919   5.607   0.418 -0.4409 -0.5062 -0.4371
 8592TIP3    H147267   0.925   5.544   0.490  1.5638  1.6704  1.4666
 8592TIP3    H247268   0.845   5.663   0.441 -0.1086 -0.1159 -0.2962
 8593TIP3   OH247269   1.542   6.812   4.722 -0.5629 -0.3764  0.1718
 8593TIP3    H147270   1.486   6.772   4.656 -0.4309  1.4852 -1.1641
 8593TIP3    H247271   1.608   6.746   4.741 -1.4464 -1.4910 -0.4574
 8594TIP3   OH247272   0.775   3.586   4.762  0.8340 -0.0302  0.1777
 8594TIP3    H147273   0.680   3.590   4.758  0.7108 -1.8875  0.5013
 8594TIP3    H247274   0.794   3.509   4.815  2.5243  0.4743  0.3720
 8595TIP3   OH247275   3.347   5.114   1.958  0.6692  0.2136 -0.2866
 8595TIP3    H147276   3.431   5.123   1.913  1.0779  0.0866  0.4311
 8595TIP3    H247277   3.349   5.181   2.026  1.2839 -1.4069  1.3736
 8596TIP3   OH247278   2.801   1.568  13.994 -0.0611  0.0017  0.4576
 8596TIP3    H147279   2.851   1.523  13.926 -0.1864 -0.4395  0.6541
 8596TIP3    H247280   2.865   1.626  14.036  0.1411 -0.1157  0.3151
 8597TIP3   OH247281   1.652   0.308  13.010 -0.2613 -0.1632  0.6146
 8597TIP3    H147282   1.737   0.350  13.025  0.6096 -0.2023 -3.0478
 8597TIP3    H247283   1.669   0.215  13.024  0.7027 -0.3013 -1.1550
 8598TIP3   OH247284   2.977   6.365  14.390 -0.2418  0.2827 -0.1964
 8598TIP3    H147285   2.946   6.290  14.339  1.5547  0.6538 -1.9564
 8598TIP3    H247286   3.050   6.400  14.339  0.4163  1.8704  1.7140
 8599TIP3   OH247287   0.758   4.878   1.656 -0.3648 -0.1811  0.2521
 8599TIP3    H147288   0.816   4.946   1.689  0.7674 -1.8154  1.8146
 8599TIP3    H247289   0.709   4.849   1.733  0.5311 -2.3735  0.0742
 8600TIP3   OH247290   4.741   1.412   2.013  0.1390 -0.4704  0.7179
 8600TIP3    H147291   4.658   1.454   1.992  1.1964  0.9595 -0.7929
 8600TIP3    H247292   4.784   1.471   2.075 -0.9545 -2.4378  3.6179
 8601TIP3   OH247293   1.989   5.044  15.284  0.6785  0.7579  0.0234
 8601TIP3    H147294   1.909   5.014  15.327  1.3035  0.4167  0.9688
 8601TIP3    H247295   2.014   4.970  15.228 -0.2774  1.3025 -1.1670
 8602TIP3   OH247296   4.510   2.114  10.206 -0.8998 -0.1998  0.1309
 8602TIP3    H147297   4.452   2.085  10.136 -0.0086 -1.8041  0.0018
 8602TIP3    H247298   4.474   2.073  10.285 -0.6205 -0.2451  0.2361
 8603TIP3   OH247299   4.610   0.594  13.993 -0.5819  0.8927  0.0442
 8603TIP3    H147300   4.655   0.510  13.987  1.4689  1.8783  0.8733
 8603TIP3    H247301   4.619   0.633  13.906 -0.6868  0.6785 -0.0626
 8604TIP3   OH247302   1.737   1.286  12.585  0.0751  0.1834 -0.1008
 8604TIP3    H147303   1.760   1.245  12.502 -0.3388 -1.0629  0.3838
 8604TIP3    H247304   1.817   1.282  12.637 -0.5174 -2.1037  0.7581
 8605TIP3   OH247305   1.371   0.963  13.302 -0.0846 -0.7503  0.0562
 8605TIP3    H147306   1.344   1.054  13.317 -0.6634 -0.9330  0.1361
 8605TIP3    H247307   1.308   0.929  13.239  0.6989 -0.8213 -0.7089
 8606TIP3   OH247308   1.327   2.973  13.897  0.1172  0.2332  1.0817
 8606TIP3    H147309   1.286   2.886  13.904  1.2398 -0.3364  0.8109
 8606TIP3    H247310   1.253   3.034  13.894 -0.7067 -0.7482  0.7762
 8607TIP3   OH247311   1.181   4.681   2.148 -0.5201 -0.4712 -0.9206
 8607TIP3    H147312   1.215   4.703   2.235 -3.2818  1.5221 -0.2297
 8607TIP3    H247313   1.259   4.658   2.098  1.6741  2.0590  1.0008
 8608TIP3   OH247314   5.009   1.927   2.751  0.5161 -0.1388 -0.2920
 8608TIP3    H147315   4.931   1.886   2.713  0.8185 -1.7994  0.7828
 8608TIP3    H247316   4.977   1.976   2.826  0.4749 -0.8410  0.1639
 8609TIP3   OH247317   3.073   1.075   9.505 -0.1095  0.3167 -0.0797
 8609TIP3    H147318   3.019   1.000   9.532 -0.6912  0.8157  0.1583
 8609TIP3    H247319   3.144   1.036   9.454  0.0631 -0.4824  0.7432
 8610TIP3   OH247320   6.008   5.159  15.187 -0.1459  0.1807 -0.4201
 8610TIP3    H147321   6.100   5.159  15.213 -0.0050 -0.0249 -0.9009
 8610TIP3    H247322   5.959   5.160  15.270  0.2856 -0.7177 -0.1444
 8611TIP3   OH247323   4.988   0.259  11.177 -0.5318  0.0908  0.2897
 8611TIP3    H147324   5.000   0.171  11.143  0.6064  0.6906 -0.9663
 8611TIP3    H247325   5.076   0.298  11.174 -0.8651  1.0100  1.5704
 8612TIP3   OH247326   7.113   4.802  12.600 -0.0424  0.5067 -0.0325
 8612TIP3    H147327   7.122   4.741  12.526 -1.1847 -1.3094  1.2194
 8612TIP3    H247328   7.076   4.881  12.561 -1.2909 -0.6485 -1.3596
 8613TIP3   OH247329   5.799   6.041  13.920  0.7184  0.3299 -0.0388
 8613TIP3    H147330   5.848   6.121  13.900 -0.3608  0.8675 -0.6181
 8613TIP3    H247331   5.795   5.994  13.836 -1.3248  1.1933 -0.4897
 8614TIP3   OH247332   4.355   5.106   1.845  0.1923  0.3633 -0.2754
 8614TIP3    H147333   4.445   5.095   1.875  0.3356 -0.5205 -1.0025
 8614TIP3    H247334   4.310   5.146   1.920  0.4444 -2.0944  1.3070
 8615TIP3   OH247335   6.684   6.060  14.031 -0.3769 -0.2036  0.3886
 8615TIP3    H147336   6.694   6.057  14.126  0.9187 -1.1751  0.2564
 8615TIP3    H247337   6.675   5.969  14.005 -1.6814  0.1122 -0.3649
 8616TIP3   OH247338   5.166   4.955   1.779  0.3363  0.2800 -0.3832
 8616TIP3    H147339   5.074   4.976   1.792  0.4485  0.5263  0.0559
 8616TIP3    H247340   5.173   4.930   1.687  0.0616  1.5118 -0.7621
 8617TIP3   OH247341   6.194   1.538  14.566  0.3827 -0.6309  0.5641
 8617TIP3    H147342   6.273   1.569  14.522  0.5831 -0.8689  0.7514
 8617TIP3    H247343   6.195   1.582  14.652 -0.8725  1.1445 -0.2542
 8618TIP3   OH247344   7.158   7.148  13.272 -0.6095  0.4842  0.0281
 8618TIP3    H147345   7.075   7.122  13.312 -0.3637  1.2835  1.0955
 8618TIP3    H247346   7.170   7.239  13.298 -0.0755  0.8005 -1.2816
 8619TIP3   OH247347   3.154   5.460  14.113  0.2704  0.1427  0.2645
 8619TIP3    H147348   3.085   5.425  14.056  1.0395  1.1152 -1.3628
 8619TIP3    H247349   3.121   5.447  14.202 -1.2014 -1.0310 -0.4080
 8620TIP3   OH247350   4.449   6.285  10.035 -0.4350 -0.2076  0.4335
 8620TIP3    H147351   4.366   6.259   9.995  0.0398  2.0772 -2.3576
 8620TIP3    H247352   4.515   6.259   9.972  0.6934  0.8410  1.1390
 8621TIP3   OH247353   4.074   2.788  14.678 -0.4187  0.0903  0.2875
 8621TIP3    H147354   4.080   2.819  14.588 -0.4953  1.0718  0.6098
 8621TIP3    H247355   4.030   2.859  14.725 -0.8435 -0.6253  0.9961
 8622TIP3   OH247356   2.835   4.580  14.060  0.4704  0.3737 -0.0300
 8622TIP3    H147357   2.749   4.577  14.103  0.2343 -0.3784 -0.5442
 8622TIP3    H247358   2.863   4.671  14.072 -0.4923  0.6901 -0.0452
 8623TIP3   OH247359   3.756   1.830   0.311  0.1089 -0.9080  0.6378
 8623TIP3    H147360   3.726   1.903   0.365  1.6257  0.2720 -0.0360
 8623TIP3    H247361   3.809   1.776   0.370  1.9598  0.4999  0.3842
 8624TIP3   OH247362   6.245   2.294   2.781  0.1569  0.5449  0.2925
 8624TIP3    H147363   6.271   2.254   2.864 -0.8679  0.6139  0.6670
 8624TIP3    H247364   6.288   2.379   2.780 -0.0197  0.6452  0.8779
 8625TIP3   OH247365   6.494   0.703   4.695  0.0471 -0.7962  0.3441
 8625TIP3    H147366   6.549   0.680   4.620 -2.2788 -1.8840 -1.1507
 8625TIP3    H247367   6.489   0.623   4.747  1.5842 -0.0693  1.7074
 8626TIP3   OH247368   2.714   2.282  15.199 -0.1064 -0.0092 -0.2358
 8626TIP3    H147369   2.784   2.292  15.263 -0.1789  2.1766 -0.4349
 8626TIP3    H247370   2.645   2.235  15.246 -0.3113  1.8583  1.4822
 8627TIP3   OH247371   4.859   4.255   9.933 -0.4139 -0.4260  0.4122
 8627TIP3    H147372   4.941   4.297   9.906 -0.6150  0.3821  1.0174
 8627TIP3    H247373   4.851   4.277  10.026 -0.7052 -1.5278  0.6600
 8628TIP3   OH247374   1.322   2.539   1.061  0.1336  0.2180 -0.2569
 8628TIP3    H147375   1.228   2.558   1.059 -0.6272 -2.9071  0.0058
 8628TIP3    H247376   1.363   2.610   1.012 -2.4917  1.0844 -1.3316
 8629TIP3   OH247377   4.523   2.590   1.740 -0.0015  0.4017 -0.4591
 8629TIP3    H147378   4.511   2.541   1.659 -0.2859 -1.7695  0.8058
 8629TIP3    H247379   4.616   2.579   1.760 -0.0828  0.3019 -0.1299
 8630TIP3   OH247380   3.180   5.610  13.869  0.1026  0.2079  0.1647
 8630TIP3    H147381   3.184   5.562  13.951  2.6452  1.5918  0.9731
 8630TIP3    H247382   3.219   5.552  13.804  0.1705 -0.0568  0.4428
 8631TIP3   OH247383   2.225   1.671   1.710 -0.1474  0.4236  0.4721
 8631TIP3    H147384   2.140   1.712   1.695 -1.7873 -1.7571  2.9856
 8631TIP3    H247385   2.210   1.610   1.782  3.7500  0.4212  1.4788
 8632TIP3   OH247386   2.017   6.810  14.138  0.2096  0.0168 -0.2061
 8632TIP3    H147387   2.072   6.888  14.132  1.1466 -0.5078  1.0921
 8632TIP3    H247388   1.965   6.823  14.217  0.2841 -0.6166 -0.0490
 8633TIP3   OH247389   2.401   7.252  14.626  0.1413 -0.0884 -0.2120
 8633TIP3    H147390   2.331   7.284  14.684  0.9428  1.2066  0.0622
 8633TIP3    H247391   2.465   7.213  14.686  0.5784  0.5046 -0.2868
 8634TIP3   OH247392   6.390   1.327  10.079 -0.1415 -0.4009 -0.0684
 8634TIP3    H147393   6.399   1.234  10.097  1.1471 -0.3608 -0.3945
 8634TIP3    H247394   6.348   1.332   9.993  0.9661 -0.7193 -0.6477
 8635TIP3   OH247395   0.893   2.273  13.996 -0.5357 -0.4329  0.0279
 8635TIP3    H147396   0.862   2.230  13.917  0.8107  0.5822 -1.1073
 8635TIP3    H247397   0.834   2.347  14.008  0.4966  0.6739 -1.3227
 8636TIP3   OH247398   3.674   4.828   0.560  0.4474  0.1523 -0.0196
 8636TIP3    H147399   3.616   4.816   0.485  0.2805  0.5479  0.0448
 8636TIP3    H247400   3.637   4.772   0.628  0.6747 -0.3081 -0.2746
 8637TIP3   OH247401   2.147   1.040  12.611  0.3335  0.0093  0.3263
 8637TIP3    H147402   2.193   0.961  12.641  0.8114  0.6011  1.2096
 8637TIP3    H247403   2.073   1.007  12.561  0.1334 -1.0294  1.2640
 8638TIP3   OH247404   0.476   2.778   0.844  0.1140  0.4243  0.0983
 8638TIP3    H147405   0.463   2.816   0.931  0.8111  0.1590  0.3231
 8638TIP3    H247406   0.543   2.833   0.804  0.0308  0.3458 -0.1491
 8639TIP3   OH247407   6.368   2.421  14.030 -0.2370  0.2321  0.3259
 8639TIP3    H147408   6.385   2.434  14.124  2.3868 -3.3243  0.5603
 8639TIP3    H247409   6.410   2.495  13.988  1.1427  0.4160  1.8980
 8640TIP3   OH247410   4.411   0.522  15.084 -0.3276 -0.0877  0.0871
 8640TIP3    H147411   4.361   0.536  15.003  0.8992 -0.4494 -0.7566
 8640TIP3    H247412   4.387   0.434  15.112 -0.8485  0.0839  0.2023
 8641TIP3   OH247413   2.497   5.183  11.253  0.0198 -0.3791  0.0304
 8641TIP3    H147414   2.575   5.141  11.217 -0.1343 -0.6194 -0.0255
 8641TIP3    H247415   2.531   5.245  11.319  0.2132 -1.0234  0.5436
 8642TIP3   OH247416   4.446   4.944  11.326 -0.2787 -0.3842  0.4117
 8642TIP3    H147417   4.474   4.978  11.241 -1.2437 -0.4586  0.0503
 8642TIP3    H247418   4.401   4.862  11.306 -1.5049  0.1500  0.8607
 8643TIP3   OH247419   4.692   4.336   4.820 -0.3784 -0.2810 -0.1299
 8643TIP3    H147420   4.667   4.246   4.799 -1.8615 -0.1379  0.8340
 8643TIP3    H247421   4.786   4.339   4.806 -0.1464 -2.2621  0.6991
 8644TIP3   OH247422   0.514   5.646  12.441  0.0009 -0.1525  0.2890
 8644TIP3    H147423   0.448   5.705  12.478 -1.2862 -0.3270 -1.5835
 8644TIP3    H247424   0.471   5.608  12.365  2.6641  0.6559 -1.7590
 8645TIP3   OH247425   6.628   3.043  12.023  0.6817  0.2162 -0.2297
 8645TIP3    H147426   6.682   3.121  12.012  1.0202 -0.2594 -2.5292
 8645TIP3    H247427   6.565   3.067  12.091  1.5669  2.0247  0.0229
 8646TIP3   OH247428   5.507   3.296  12.790 -0.1636  0.3031 -0.0696
 8646TIP3    H147429   5.603   3.296  12.791 -0.1599  0.8967  0.1675
 8646TIP3    H247430   5.483   3.292  12.883 -0.3467  1.7848 -0.0334
 8647TIP3   OH247431   4.771   3.031   1.906 -0.0372 -0.2970  0.6634
 8647TIP3    H147432   4.689   2.997   1.871 -0.4383 -0.0986  1.3942
 8647TIP3    H247433   4.825   2.954   1.922 -0.5360 -0.5238  1.2979
 8648TIP3   OH247434   5.345   1.754  13.204  0.3439 -0.1635 -0.6305
 8648TIP3    H147435   5.298   1.801  13.136 -1.4134 -1.6152 -0.4907
 8648TIP3    H247436   5.282   1.746  13.276  0.5705 -2.5790 -0.6191
 8649TIP3   OH247437   6.783   5.846   3.251 -0.4559  0.1038 -0.2497
 8649TIP3    H147438   6.876   5.863   3.263 -0.5275 -0.4724  1.3574
 8649TIP3    H247439   6.778   5.790   3.174  0.9564 -3.3331  1.9440
 8650TIP3   OH247440   1.239   3.329   1.546 -0.4407  0.1026  0.0245
 8650TIP3    H147441   1.242   3.238   1.518  2.5573  0.4795 -1.2330
 8650TIP3    H247442   1.145   3.351   1.547 -1.1754 -2.6339 -0.6974
 8651TIP3   OH247443   5.690   6.899   0.595 -0.3811  0.6340  0.4235
 8651TIP3    H147444   5.671   6.992   0.604 -0.2134  0.5320  2.3044
 8651TIP3    H247445   5.676   6.863   0.683 -0.3820 -1.1103 -0.2443
 8652TIP3   OH247446   3.698   7.227   9.815  0.3308 -0.4985  0.2107
 8652TIP3    H147447   3.749   7.247   9.894 -1.1170  1.7922  0.6610
 8652TIP3    H247448   3.608   7.220   9.846 -0.2841  0.5911 -1.2339
 8653TIP3   OH247449   2.442   1.184  10.452  0.1340 -0.3196  0.2908
 8653TIP3    H147450   2.361   1.228  10.479  1.1479  1.7565  0.1154
 8653TIP3    H247451   2.422   1.150  10.364 -0.5163  0.2438  0.2161
 8654TIP3   OH247452   3.146   6.252   3.001  0.0106 -0.1294  0.1041
 8654TIP3    H147453   3.082   6.312   3.041  0.7665  1.0238 -0.3603
 8654TIP3    H247454   3.094   6.175   2.977 -1.1156  0.5818  0.1655
 8655TIP3   OH247455   3.413   2.954  12.138 -0.2792  0.0274 -0.2192
 8655TIP3    H147456   3.410   3.037  12.186 -1.5123 -0.2319  0.1725
 8655TIP3    H247457   3.354   2.967  12.064  1.8774  0.5538 -1.9675
 8656TIP3   OH247458   1.160   4.481  11.020 -0.6446 -0.3466 -0.1751
 8656TIP3    H147459   1.153   4.576  11.017  0.2296 -0.1777  1.8508
 8656TIP3    H247460   1.070   4.450  11.034 -0.5911  0.3658  1.9628
 8657TIP3   OH247461   0.734   0.147   9.247 -0.0720  0.7169  0.3543
 8657TIP3    H147462   0.789   0.093   9.303 -1.7108 -1.2212  0.2153
 8657TIP3    H247463   0.667   0.183   9.306 -0.9927 -0.2249 -0.0712
 8658TIP3   OH247464   3.427   6.807   1.292 -0.3546  0.3112 -0.2077
 8658TIP3    H147465   3.493   6.750   1.252  0.2526  0.5256  0.4709
 8658TIP3    H247466   3.389   6.855   1.218  1.5113  1.5141 -0.4567
 8659TIP3   OH247467   2.552   1.715  12.032  0.2308  0.6662 -0.2570
 8659TIP3    H147468   2.637   1.671  12.028  0.4447  1.1286 -0.9480
 8659TIP3    H247469   2.496   1.654  12.079  0.7780  0.0767 -0.3536
 8660TIP3   OH247470   2.507   4.743   1.971 -0.5224 -0.2382  0.1197
 8660TIP3    H147471   2.566   4.816   1.994  0.7123 -1.0624 -0.3072
 8660TIP3    H247472   2.466   4.771   1.889 -0.9528  0.4701  0.5669
 8661TIP3   OH247473   0.388   1.200  11.302 -0.7672 -0.2080  0.0005
 8661TIP3    H147474   0.425   1.243  11.379 -2.1553 -1.3932  1.4113
 8661TIP3    H247475   0.404   1.106  11.318 -0.6191 -0.4412 -1.4199
 8662TIP3   OH247476   6.996   0.001   1.747  0.0372 -0.6036 -0.6403
 8662TIP3    H147477   7.027  -0.045   1.669  0.5342 -1.1839 -0.1084
 8662TIP3    H247478   7.075   0.019   1.798 -0.0271  1.5596 -1.1877
 8663TIP3   OH247479   6.648   2.901  13.037  0.7720 -0.0995  0.2069
 8663TIP3    H147480   6.572   2.889  12.980  0.1927  0.3331  0.8572
 8663TIP3    H247481   6.623   2.974  13.094  1.6700  0.0224  0.4543
 8664TIP3   OH247482   0.379   2.690  13.254 -0.1632 -0.5248  0.1079
 8664TIP3    H147483   0.474   2.683  13.241 -0.0487  1.0577 -0.1116
 8664TIP3    H247484   0.356   2.774  13.215 -1.3409  0.0533  1.9261
 8665TIP3   OH247485   3.209   6.673  12.190 -0.0142 -0.2474 -0.5651
 8665TIP3    H147486   3.271   6.602  12.174  0.4890  0.0635 -0.0341
 8665TIP3    H247487   3.128   6.644  12.147 -0.2453 -1.7735  0.8111
 8666TIP3   OH247488   3.178   4.235  13.527 -0.2214 -0.2035  0.7702
 8666TIP3    H147489   3.094   4.281  13.525 -1.5202 -2.4114  0.6661
 8666TIP3    H247490   3.186   4.203  13.616  1.5908  1.6900  1.3691
 8667TIP3   OH247491   6.129   0.904  10.980 -0.2559  0.1762 -0.1977
 8667TIP3    H147492   6.125   0.863  10.894  0.8237  0.5226 -0.4344
 8667TIP3    H247493   6.187   0.847  11.030  2.1503  1.8896 -0.8513
 8668TIP3   OH247494   5.433   6.647  10.333 -0.2612 -0.1435 -0.0607
 8668TIP3    H147495   5.383   6.622  10.255 -0.4160  0.2586 -0.0942
 8668TIP3    H247496   5.466   6.735  10.313  0.3837 -0.3680 -0.0010
 8669TIP3   OH247497   4.193   1.323  13.692  0.6260  0.0277 -0.5286
 8669TIP3    H147498   4.219   1.415  13.703  2.6320 -0.4964 -0.4066
 8669TIP3    H247499   4.232   1.298  13.608  0.0697 -0.7110 -0.5698
 8670TIP3   OH247500   5.753   0.359   4.313 -0.0158 -0.1606  0.5854
 8670TIP3    H147501   5.767   0.383   4.221 -1.6492  1.7302  0.7745
 8670TIP3    H247502   5.793   0.272   4.321 -0.1900 -0.5692 -2.0220
 8671TIP3   OH247503   6.702   2.273   5.358 -0.0910 -0.4780 -0.0094
 8671TIP3    H147504   6.675   2.331   5.287  0.4421  2.1103  1.7548
 8671TIP3    H247505   6.638   2.289   5.428  1.0700 -0.6886  1.1464
 8672TIP3   OH247506   3.355   0.449  11.158  0.2094  0.3151 -0.4935
 8672TIP3    H147507   3.328   0.517  11.220  1.2630  0.9848 -0.7453
 8672TIP3    H247508   3.405   0.386  11.212 -0.3319 -0.0028 -0.3561
 8673TIP3   OH247509   4.169   4.079  14.528  0.4336 -0.6621 -0.0633
 8673TIP3    H147510   4.148   4.139  14.599 -1.2112 -1.5752  0.2780
 8673TIP3    H247511   4.174   3.993  14.570 -1.4436 -1.3485 -1.1311
 8674TIP3   OH247512   6.801   2.297   3.581 -0.1956 -0.3813  0.1794
 8674TIP3    H147513   6.728   2.345   3.619 -0.7401 -0.6077 -0.5504
 8674TIP3    H247514   6.843   2.254   3.655 -0.4996  0.1506  0.6667
 8675TIP3   OH247515   6.284   3.517  12.810  0.2803 -0.2826 -0.6657
 8675TIP3    H147516   6.343   3.450  12.845 -0.4566  0.0409  1.3187
 8675TIP3    H247517   6.203   3.470  12.790  0.7752 -0.5143 -2.3030
 8676TIP3   OH247518   2.309   2.837   2.516 -0.0020 -0.1169  0.6039
 8676TIP3    H147519   2.403   2.826   2.501  0.0158 -0.3372  0.8646
 8676TIP3    H247520   2.274   2.748   2.514  0.0093 -0.1794  1.8729
 8677TIP3   OH247521   5.574   1.795  13.360  0.2931  0.2927 -0.2190
 8677TIP3    H147522   5.493   1.774  13.314  0.3804  1.1069 -0.7790
 8677TIP3    H247523   5.554   1.784  13.453 -1.0981  2.5071 -0.2049
 8678TIP3   OH247524   5.919   6.372  11.009 -0.3874 -0.4088  0.0665
 8678TIP3    H147525   5.921   6.463  11.038 -1.5976 -0.5703  0.7238
 8678TIP3    H247526   5.967   6.325  11.077  0.2956 -0.2735 -0.3067
 8679TIP3   OH247527   2.235   5.254  12.221  0.3937 -0.2920  0.3102
 8679TIP3    H147528   2.215   5.342  12.254  1.3303 -0.2971  0.9198
 8679TIP3    H247529   2.235   5.199  12.299 -2.0786 -1.2446 -0.2485
 8680TIP3   OH247530   1.232   5.320   0.430  0.2842  0.0805 -0.6892
 8680TIP3    H147531   1.175   5.344   0.358  0.2848 -0.3445 -0.8334
 8680TIP3    H247532   1.291   5.395   0.441 -0.5131  0.6578 -0.3172
 8681TIP3   OH247533   5.211   3.219  13.524  0.2826  0.4527  0.1208
 8681TIP3    H147534   5.293   3.205  13.572  1.5942  0.0162 -2.1304
 8681TIP3    H247535   5.236   3.271  13.448 -1.2552 -0.9074 -1.3864
 8682TIP3   OH247536   0.105   1.241  11.208  0.1836 -0.3921  0.0631
 8682TIP3    H147537   0.076   1.276  11.292  0.0681  1.1731 -0.5910
 8682TIP3    H247538   0.200   1.237  11.214  0.1421 -0.9111  0.4801
 8683TIP3   OH247539   6.283   0.071  14.365 -0.0556  0.2027 -0.2946
 8683TIP3    H147540   6.296  -0.024  14.374  1.3707  0.4432  0.4069
 8683TIP3    H247541   6.311   0.107  14.449 -0.4890  1.2636 -0.5937
 8684TIP3   OH247542   6.977   0.731   1.780 -0.0783  0.8016 -0.4825
 8684TIP3    H147543   6.952   0.740   1.688 -1.7850  2.2756  0.0515
 8684TIP3    H247544   6.918   0.663   1.814  0.6485  0.1553 -0.4961
 8685TIP3   OH247545   0.875   4.478   1.324 -0.1317  0.1514 -0.2825
 8685TIP3    H147546   0.968   4.459   1.336 -0.2463 -0.8682 -0.9169
 8685TIP3    H247547   0.852   4.531   1.400  1.2574  1.5276 -0.7712
 8686TIP3   OH247548   3.499   0.496  14.930  0.7697  0.2587  0.4482
 8686TIP3    H147549   3.444   0.436  14.980  1.3767  1.0323  2.1413
 8686TIP3    H247550   3.557   0.440  14.879 -0.2301 -0.5646  0.1932
 8687TIP3   OH247551   5.492   1.906  15.218 -0.2692  0.6323 -0.2273
 8687TIP3    H147552   5.565   1.968  15.215  0.4787 -0.1393  1.1251
 8687TIP3    H247553   5.528   1.827  15.258 -2.3672  1.0735  2.9288
 8688TIP3   OH247554   7.030   5.911  12.994  0.4454  0.1048  0.5632
 8688TIP3    H147555   7.080   5.984  12.958 -0.4370  0.5699  0.2511
 8688TIP3    H247556   6.944   5.918  12.953  0.6463 -1.7385 -0.2734
 8689TIP3   OH247557   1.112   2.980  10.783  0.3653 -0.1855 -0.7404
 8689TIP3    H147558   1.130   3.009  10.873  1.3653 -0.7913 -0.7315
 8689TIP3    H247559   1.025   3.014  10.764  0.0388 -0.2556  0.5504
 8690TIP3   OH247560   1.829   4.715  10.442 -0.1047  0.5147 -0.0219
 8690TIP3    H147561   1.873   4.786  10.395 -1.0658  0.4906 -0.9774
 8690TIP3    H247562   1.894   4.645  10.447  0.8823  1.4538  0.9822
 8691TIP3   OH247563   6.398   3.235  13.677 -0.2357 -0.2976 -0.0352
 8691TIP3    H147564   6.369   3.278  13.597 -0.1206 -1.9747 -1.0328
 8691TIP3    H247565   6.325   3.178  13.702 -0.5540  0.7162  1.4838
 8692TIP3   OH247566   5.522   3.476   0.364  0.1954  0.8594  0.1231
 8692TIP3    H147567   5.607   3.464   0.405 -0.0019  1.3188  0.6759
 8692TIP3    H247568   5.535   3.447   0.273  0.3925 -1.0363  0.7124
 8693TIP3   OH247569   4.866   2.163  14.787  0.1972 -0.4275 -0.6323
 8693TIP3    H147570   4.922   2.190  14.860 -0.0417 -1.7190  0.0707
 8693TIP3    H247571   4.889   2.221  14.715 -0.1488  1.4778  0.7124
 8694TIP3   OH247572   4.156   6.241  10.480  0.0682 -0.4459 -0.0463
 8694TIP3    H147573   4.170   6.314  10.420  0.3905  0.7866  1.4682
 8694TIP3    H247574   4.233   6.184  10.467  2.8036  2.2839  2.5573
 8695TIP3   OH247575   6.505   0.799  10.526 -0.1772 -0.2090 -0.8515
 8695TIP3    H147576   6.591   0.823  10.561 -0.6418 -1.5902  1.4850
 8695TIP3    H247577   6.458   0.882  10.519  0.2689  0.2673  1.1360
 8696TIP3   OH247578   7.176   5.156  11.367 -0.1757 -0.5326  0.2217
 8696TIP3    H147579   7.092   5.111  11.381 -0.5468 -0.3558 -1.2559
 8696TIP3    H247580   7.180   5.169  11.272 -1.4514  5.0985  0.6161
 8697TIP3   OH247581   7.233   5.518  14.464  0.1959  0.3091  0.1592
 8697TIP3    H147582   7.172   5.528  14.538 -0.3512 -1.4533 -0.0076
 8697TIP3    H247583   7.250   5.424  14.460  2.2069  0.6594 -0.4091
 8698TIP3   OH247584   5.163   6.915   4.645  0.3514  0.7315  0.3807
 8698TIP3    H147585   5.171   7.000   4.601  0.2884  0.6097  0.1349
 8698TIP3    H247586   5.219   6.923   4.722  1.9661  0.3029 -0.6914
 8699TIP3   OH247587   5.945   3.192  15.112 -0.0973 -0.1932 -0.0076
 8699TIP3    H147588   5.962   3.236  15.029 -1.6765  2.5043  0.9891
 8699TIP3    H247589   6.016   3.220  15.169  0.2729 -1.0147 -0.0470
 8700TIP3   OH247590   3.901   3.696   1.517  0.2124  0.1378  0.0536
 8700TIP3    H147591   3.818   3.731   1.549  0.5929  2.3549 -1.1278
 8700TIP3    H247592   3.947   3.666   1.595 -1.1212  0.1721  0.8775
 8701TIP3   OH247593   1.386   1.368  13.525 -0.4259 -0.7351  0.2596
 8701TIP3    H147594   1.454   1.376  13.458  0.3684 -0.1629  1.1201
 8701TIP3    H247595   1.432   1.377  13.608 -1.2983 -2.1215  0.9361
 8702TIP3   OH247596   1.611   1.834  14.977 -0.1656 -0.5890 -0.1166
 8702TIP3    H147597   1.616   1.799  14.888  2.6179 -0.8618  0.0796
 8702TIP3    H247598   1.635   1.761  15.033 -1.0633 -0.1853  0.8323
 8703TIP3   OH247599   3.945   1.477  11.399  0.0276  0.1857  0.6327
 8703TIP3    H147600   4.026   1.505  11.442  0.8326 -1.1202  0.0197
 8703TIP3    H247601   3.970   1.400  11.349 -1.2230  0.7592 -0.9512
 8704TIP3   OH247602   3.298   1.639   4.260  0.4018  0.1325 -0.3193
 8704TIP3    H147603   3.260   1.561   4.218 -1.3131  0.5688  0.3208
 8704TIP3    H247604   3.314   1.612   4.351  0.2196  0.3952 -0.2086
 8705TIP3   OH247605   0.034   4.986  12.008  0.1483 -0.1137  0.2766
 8705TIP3    H147606   0.079   4.904  11.987  0.3101 -1.4118  4.6287
 8705TIP3    H247607   0.098   5.036  12.058 -1.3400  0.6426  1.5034
 8706TIP3   OH247608   0.545   4.320  11.805 -0.0695 -0.2891  0.3591
 8706TIP3    H147609   0.606   4.393  11.793 -0.8699  0.3172 -0.0814
 8706TIP3    H247610   0.498   4.314  11.722  0.2052 -1.5263  0.2761
 8707TIP3   OH247611   1.444   5.556  10.922  0.0893  0.2193  0.1214
 8707TIP3    H147612   1.399   5.477  10.891 -0.5762  1.2921 -1.8601
 8707TIP3    H247613   1.536   5.530  10.926 -0.2169 -0.9117  0.4386
 8708TIP3   OH247614   3.999   3.568   1.747  0.1308 -0.2533  0.4778
 8708TIP3    H147615   4.079   3.517   1.745  0.2906 -0.0316  1.0271
 8708TIP3    H247616   3.977   3.575   1.840 -1.2481 -1.4250  0.2616
 8709TIP3   OH247617   1.189   2.607  10.597 -0.1190  0.3660  0.2783
 8709TIP3    H147618   1.246   2.638  10.668 -0.3446  2.0890 -0.2318
 8709TIP3    H247619   1.239   2.537  10.555 -0.0522 -0.8088  2.1940
 8710TIP3   OH247620   4.668   3.477   2.567 -0.2691  0.3935  0.3378
 8710TIP3    H147621   4.592   3.525   2.535 -0.6881  1.1611  2.3047
 8710TIP3    H247622   4.725   3.544   2.604  0.5168 -0.3573  0.5163
 8711TIP3   OH247623   0.333   3.053   5.824  0.2263 -0.2615  0.1840
 8711TIP3    H147624   0.255   3.104   5.845 -0.6542 -0.2397 -2.7043
 8711TIP3    H247625   0.302   2.963   5.815  0.8006 -0.4804  0.3053
 8712TIP3   OH247626   3.893   3.911   9.982  0.0090  0.5700  0.4255
 8712TIP3    H147627   3.983   3.925   9.952 -0.1058  0.4630  0.0281
 8712TIP3    H247628   3.854   3.855   9.915  0.0093 -0.4104  1.2131
 8713TIP3   OH247629   5.079   1.337   9.804  0.2450 -0.3369 -0.2747
 8713TIP3    H147630   5.038   1.294   9.730 -0.6065 -1.1591  0.6340
 8713TIP3    H247631   5.007   1.383   9.848  1.0228  1.5575 -0.8777
 8714TIP3   OH247632   5.267   6.366  11.104  0.3256 -0.3150 -0.0798
 8714TIP3    H147633   5.185   6.339  11.145  0.9516  0.4208  1.7731
 8714TIP3    H247634   5.335   6.327  11.159  1.3984 -3.3847 -3.1556
 8715TIP3   OH247635   2.615   5.565  10.775 -0.8377  0.6289  0.4001
 8715TIP3    H147636   2.528   5.532  10.753 -0.7174  0.9036 -0.5043
 8715TIP3    H247637   2.621   5.651  10.733 -0.4681  1.0224  1.2219
 8716TIP3   OH247638   2.662   3.097   2.981  0.0982 -0.7137 -0.3764
 8716TIP3    H147639   2.756   3.114   2.972 -0.0881  0.3589 -0.4224
 8716TIP3    H247640   2.651   3.076   3.074  0.3499 -0.5245 -0.3006
 8717TIP3   OH247641   4.827   2.218  10.525  0.3100  0.1713 -0.5425
 8717TIP3    H147642   4.799   2.130  10.501 -3.1601  0.6210  1.2468
 8717TIP3    H247643   4.805   2.272  10.450 -0.3429 -0.0627 -0.5245
 8718TIP3   OH247644   5.247   1.611  14.379  0.3737  0.1544 -0.1414
 8718TIP3    H147645   5.286   1.669  14.445 -0.4375  0.8821 -0.2894
 8718TIP3    H247646   5.188   1.667  14.330 -2.5138 -1.3035  1.4221
 8719TIP3   OH247647   0.904   0.604   4.709  0.2689  0.3981 -0.9219
 8719TIP3    H147648   0.913   0.521   4.662 -1.7484 -0.8101  0.6474
 8719TIP3    H247649   0.815   0.602   4.745  0.7193  2.5216  0.5265
 8720TIP3   OH247650   2.674   4.583   0.086  0.1127  0.2060  0.1743
 8720TIP3    H147651   2.645   4.602  -0.003  0.3663  1.2993  0.3088
 8720TIP3    H247652   2.675   4.487   0.092  0.9562  0.1073 -1.2851
 8721TIP3   OH247653   1.216   0.975  14.406  0.0343 -0.0368 -0.5543
 8721TIP3    H147654   1.273   0.937  14.339  0.3925  1.1678 -0.9576
 8721TIP3    H247655   1.147   1.019  14.357 -1.2379 -1.3901 -0.0704
 8722TIP3   OH247656   3.698   5.359  11.784  0.0984 -0.5501 -0.0484
 8722TIP3    H147657   3.694   5.325  11.873  1.0407  1.2196  0.7116
 8722TIP3    H247658   3.609   5.351  11.751 -0.5594 -0.0477  1.5272
 8723TIP3   OH247659   3.322   5.258  13.363 -0.4063  0.6651  0.5556
 8723TIP3    H147660   3.361   5.334  13.407 -0.8804  0.4406  1.3795
 8723TIP3    H247661   3.235   5.250  13.400 -0.0833 -0.7669  1.0999
 8724TIP3   OH247662   1.396   0.687  14.036  0.1800  0.0109  0.1638
 8724TIP3    H147663   1.470   0.628  14.018 -0.0009 -0.0986 -0.2323
 8724TIP3    H247664   1.384   0.735  13.954  0.0673  0.3170  0.3585
 8725TIP3   OH247665   3.636   0.898  12.169  0.1556  0.0012 -0.0698
 8725TIP3    H147666   3.688   0.846  12.230  0.0895 -1.3621 -1.1176
 8725TIP3    H247667   3.637   0.847  12.087  0.0116  1.6277 -1.1278
 8726TIP3   OH247668   5.935   2.039   2.097 -0.2909  0.0063  0.2030
 8726TIP3    H147669   6.018   2.084   2.083  0.4613 -0.3863  2.8156
 8726TIP3    H247670   5.903   2.074   2.179 -1.3025 -1.8553  0.6490
 8727TIP3   OH247671   0.606   0.991  13.082 -0.2276  0.3554  0.1634
 8727TIP3    H147672   0.675   1.019  13.142 -1.4457  2.1967  0.7826
 8727TIP3    H247673   0.614   0.896  13.079  2.4873  0.5246 -0.0068
 8728TIP3   OH247674   7.107   6.905  13.870  0.4178  0.8286 -0.1085
 8728TIP3    H147675   7.107   6.813  13.899  1.0115  0.3903 -1.4467
 8728TIP3    H247676   7.068   6.952  13.944 -1.2112 -0.6645  0.0596
 8729TIP3   OH247677   7.141   1.641  13.260  0.2543 -0.0767  0.0934
 8729TIP3    H147678   7.135   1.693  13.340 -3.6935  1.5131 -0.9520
 8729TIP3    H247679   7.074   1.574  13.270 -0.0197 -0.1169 -1.6539
 8730TIP3   OH247680   3.446   6.573  13.623  0.6629 -0.5525 -0.3242
 8730TIP3    H147681   3.535   6.544  13.642  0.8537  0.3742  0.2381
 8730TIP3    H247682   3.451   6.609  13.534  0.6070 -1.4571 -0.7023
 8731TIP3   OH247683   5.287   1.003  13.527  0.1709  0.1992 -0.2909
 8731TIP3    H147684   5.291   1.089  13.486  1.0235  0.2239 -0.1754
 8731TIP3    H247685   5.202   1.001  13.571 -0.0326  0.8182 -0.6486
 8732TIP3   OH247686   5.545   1.388   1.809  0.0116 -0.0053  0.0715
 8732TIP3    H147687   5.537   1.310   1.754  0.1970 -0.8536  1.2045
 8732TIP3    H247688   5.633   1.421   1.792  0.2701 -0.5835  0.2704
 8733TIP3   OH247689   1.969   0.989   9.434 -0.4214  0.1166  0.2438
 8733TIP3    H147690   2.050   1.041   9.435 -0.9893  1.0671 -0.9101
 8733TIP3    H247691   1.905   1.045   9.389 -0.7025 -2.0229 -2.2936
 8734TIP3   OH247692   1.694   4.765   1.403  0.1151  0.0913 -0.0485
 8734TIP3    H147693   1.771   4.807   1.439  0.4026 -0.3105 -0.1883
 8734TIP3    H247694   1.710   4.760   1.309  0.4297 -1.0110  0.0497
 8735TIP3   OH247695   5.105   1.904   0.058  0.4659  0.2869 -0.1655
 8735TIP3    H147696   5.184   1.948   0.089  1.9432 -0.6974 -2.2752
 8735TIP3    H247697   5.068   1.964  -0.007  0.2631  0.1461 -0.1819
 8736TIP3   OH247698   1.489   6.866   1.125  0.2709 -0.1561 -0.3247
 8736TIP3    H147699   1.567   6.857   1.070  0.6450 -0.7415  0.2889
 8736TIP3    H247700   1.522   6.903   1.207 -0.2407  0.4360 -0.3797
 8737TIP3   OH247701   4.273   0.826   2.405  0.4020  0.1691 -0.0539
 8737TIP3    H147702   4.362   0.853   2.384 -0.0656  2.0670  0.2316
 8737TIP3    H247703   4.271   0.823   2.501  0.5891 -1.4985 -0.0798
 8738TIP3   OH247704   3.933   4.556   6.013 -0.5826 -0.2013  0.4514
 8738TIP3    H147705   4.005   4.493   6.008 -0.7204 -0.4368  1.2508
 8738TIP3    H247706   3.860   4.513   5.968 -0.7863 -0.7868  1.3095
 8739TIP3   OH247707   4.513   5.906  11.866 -0.0193  0.4907 -0.0827
 8739TIP3    H147708   4.440   5.936  11.812 -0.5283  1.5021  1.1200
 8739TIP3    H247709   4.578   5.977  11.860  0.5447 -0.0439 -0.5001
 8740TIP3   OH247710   0.838   0.934   0.385 -0.1082 -0.5021  0.3618
 8740TIP3    H147711   0.852   1.010   0.442  2.9645 -1.4800  1.1268
 8740TIP3    H247712   0.824   0.861   0.444  0.5063 -1.1012 -0.2068
 8741TIP3   OH247713   7.120   2.612  13.880 -0.0179 -0.0542 -0.4898
 8741TIP3    H147714   7.179   2.687  13.866 -0.6964  0.6316  0.2540
 8741TIP3    H247715   7.109   2.575  13.792 -1.2812  1.9511 -1.2519
 8742TIP3   OH247716   2.964   5.554  13.438 -0.4936  0.6982 -0.8140
 8742TIP3    H147717   2.915   5.551  13.356 -0.2266 -0.6488 -0.9470
 8742TIP3    H247718   2.973   5.463  13.464  2.3602  0.8109 -1.0729
 8743TIP3   OH247719   3.071   4.886  14.907  0.3671 -0.3745 -0.0565
 8743TIP3    H147720   3.055   4.913  14.998  3.7149  0.3873  0.4411
 8743TIP3    H247721   3.031   4.799  14.900 -3.3349  1.0503  0.8775
 8744TIP3   OH247722   1.468   6.424  14.716 -0.1624 -0.0899 -0.0671
 8744TIP3    H147723   1.554   6.406  14.752 -0.9879 -0.6153  1.7796
 8744TIP3    H247724   1.441   6.341  14.677 -0.2733 -0.2675  0.3739
 8745TIP3   OH247725   3.011   1.138   2.535  0.3673 -0.0938  0.0833
 8745TIP3    H147726   3.100   1.173   2.536  0.3884 -0.1137  1.8265
 8745TIP3    H247727   2.958   1.208   2.498  0.9074  0.4849  0.3961
 8746TIP3   OH247728   2.931   4.416   2.018 -0.3323 -0.0283 -0.1676
 8746TIP3    H147729   2.975   4.484   1.966 -0.1314  0.0916  0.1543
 8746TIP3    H247730   3.001   4.379   2.072 -0.8238  0.9117  1.1454
 8747TIP3   OH247731   2.748   6.378  12.179  0.1414  0.2182 -0.0283
 8747TIP3    H147732   2.694   6.301  12.195 -1.1284  1.2847  1.0276
 8747TIP3    H247733   2.825   6.365  12.236 -0.0549 -0.2719  0.1319
 8748TIP3   OH247734   3.277   0.184  13.714  0.0710  0.1158  0.1052
 8748TIP3    H147735   3.188   0.217  13.720  0.4795  1.1845  0.6245
 8748TIP3    H247736   3.295   0.176  13.621 -0.9270 -1.1746 -0.0022
 8749TIP3   OH247737   2.529   3.355   1.890  0.4896 -0.5341  0.1372
 8749TIP3    H147738   2.610   3.393   1.854  1.2446 -1.5866  0.6609
 8749TIP3    H247739   2.478   3.430   1.918  1.7112  0.1369  0.6589
 8750TIP3   OH247740   7.233   1.392  11.850  0.2868 -0.3127  0.3607
 8750TIP3    H147741   7.305   1.400  11.912  0.8161 -1.2778 -0.1145
 8750TIP3    H247742   7.180   1.320  11.884  0.6688 -0.9571 -0.3806
 8751TIP3   OH247743   5.421   0.247   9.132 -0.0763  0.5171  0.4320
 8751TIP3    H147744   5.388   0.166   9.171  0.4125 -0.3605 -0.9212
 8751TIP3    H247745   5.504   0.264   9.178  1.1678 -1.2347 -1.0418
 8752TIP3   OH247746   0.767   3.190  12.671  0.6233  0.6319 -0.0285
 8752TIP3    H147747   0.710   3.261  12.639 -1.1028 -0.3165  0.7667
 8752TIP3    H247748   0.772   3.205  12.766 -0.7875 -0.9337  0.3483
 8753TIP3   OH247749   4.097   4.738  10.123  0.2821  0.8929  0.1639
 8753TIP3    H147750   4.122   4.782  10.042  0.3649  1.8601  0.6965
 8753TIP3    H247751   4.024   4.790  10.157 -0.7097 -0.3387 -0.0107
 8754TIP3   OH247752   2.071   5.961   0.536  0.5433  0.1685  0.4948
 8754TIP3    H147753   2.110   5.896   0.595  0.8218 -1.4085 -1.3467
 8754TIP3    H247754   1.978   5.940   0.537  0.8878 -1.8681 -1.8545
 8755TIP3   OH247755   0.305   6.507   1.736  0.1256  0.1724  0.0686
 8755TIP3    H147756   0.304   6.431   1.677 -1.0295  1.2340 -1.3654
 8755TIP3    H247757   0.219   6.506   1.777  0.3383  0.3644  0.5230
 8756TIP3   OH247758   4.796   2.884  10.686  0.1406  0.2694  0.0228
 8756TIP3    H147759   4.746   2.821  10.634 -0.6288  0.4878  0.4749
 8756TIP3    H247760   4.884   2.883  10.649 -0.4768  0.6897 -1.5164
 8757TIP3   OH247761   5.926   2.503  12.609  0.3795 -0.2378  0.3145
 8757TIP3    H147762   5.908   2.469  12.696  0.7797 -1.3187  0.0016
 8757TIP3    H247763   6.008   2.551  12.618 -0.4675  1.1423  0.8756
 8758TIP3   OH247764   0.929   3.655   2.003  0.4499  0.7276 -0.1953
 8758TIP3    H147765   0.930   3.560   2.006  0.9989  0.7160 -0.4903
 8758TIP3    H247766   0.837   3.679   2.000  0.3149  0.1984 -0.2710
 8759TIP3   OH247767   1.615   2.130   3.962 -0.3830 -0.0457  0.0440
 8759TIP3    H147768   1.646   2.041   3.944  1.2369  0.2650  1.0824
 8759TIP3    H247769   1.625   2.175   3.878  0.4262 -0.4148 -0.0747
 8760TIP3   OH247770   2.692   5.014   0.486  0.1078 -0.6771  0.0282
 8760TIP3    H147771   2.603   4.979   0.477 -0.4491  0.8149 -0.5688
 8760TIP3    H247772   2.742   4.967   0.419 -0.8163  0.2209 -1.3348
 8761TIP3   OH247773   1.993   2.397  12.033  0.0474  0.4627  0.3205
 8761TIP3    H147774   1.998   2.434  11.945 -0.1445  0.6719  0.3955
 8761TIP3    H247775   2.028   2.309  12.024 -0.3422  0.3380 -0.0478
 8762TIP3   OH247776   1.913   0.031   5.598  0.0221 -0.1211 -0.6111
 8762TIP3    H147777   1.989   0.001   5.649 -0.7021 -2.1115 -0.6378
 8762TIP3    H247778   1.857  -0.046   5.590 -1.0021  0.7514 -2.4462
 8763TIP3   OH247779   4.177   5.939  14.766 -0.5071 -0.1068 -0.0861
 8763TIP3    H147780   4.120   5.964  14.839 -0.9884 -0.3786 -0.3666
 8763TIP3    H247781   4.238   6.012  14.758 -0.7801  0.1648  0.2504
 8764TIP3   OH247782   4.364   6.470   3.883  0.1388  0.2435 -0.1851
 8764TIP3    H147783   4.355   6.446   3.791 -0.7768  0.8779 -0.2691
 8764TIP3    H247784   4.411   6.397   3.922  0.3864 -0.1110 -1.1194
 8765TIP3   OH247785   6.745   4.117  14.755  0.5322 -0.1404  0.4443
 8765TIP3    H147786   6.818   4.069  14.795  0.8982  1.0424  1.2408
 8765TIP3    H247787   6.673   4.107  14.817  0.5605  0.2072  0.5321
 8766TIP3   OH247788   1.554   2.385   1.093 -0.2716 -0.5414  0.1922
 8766TIP3    H147789   1.473   2.435   1.097  0.7466  1.2811 -0.9287
 8766TIP3    H247790   1.603   2.410   1.171 -0.4783 -1.1151  0.5121
 8767TIP3   OH247791   3.045   3.852   1.293  0.0584  0.9057 -0.0988
 8767TIP3    H147792   3.091   3.853   1.377  0.4473 -0.0394 -0.2871
 8767TIP3    H247793   2.960   3.892   1.311 -0.4884 -0.7175  1.1209
 8768TIP3   OH247794   0.241   3.120   1.513  0.0741  0.4464 -0.4999
 8768TIP3    H147795   0.187   3.192   1.547 -0.1115 -0.1499  0.5119
 8768TIP3    H247796   0.252   3.062   1.588  3.0343  1.0632 -0.3441
 8769TIP3   OH247797   2.491   4.118   2.576  0.2720  0.1829 -0.5227
 8769TIP3    H147798   2.491   4.214   2.575  2.8639  0.2818  0.3174
 8769TIP3    H247799   2.498   4.093   2.484 -0.0514  0.8000 -0.7211
 8770TIP3   OH247800   1.754   2.305  12.846  0.4962  0.1783  0.1116
 8770TIP3    H147801   1.786   2.287  12.758 -0.2476  1.4258 -0.4315
 8770TIP3    H247802   1.772   2.224  12.895  0.2779 -0.7905 -1.3572
 8771TIP3   OH247803   0.410   5.879   3.753 -0.2620  0.3734  0.2804
 8771TIP3    H147804   0.336   5.921   3.709 -0.7702 -0.3936  0.3878
 8771TIP3    H247805   0.372   5.806   3.801  0.2906  1.1489  1.9736
 8772TIP3   OH247806   5.724   6.537   1.819  0.7733 -0.2538  0.0547
 8772TIP3    H147807   5.801   6.527   1.764 -0.6453 -1.8977 -1.7714
 8772TIP3    H247808   5.701   6.630   1.810  0.5248 -0.4752 -2.3240
 8773TIP3   OH247809   4.032   2.117  12.846 -0.4273 -0.8028  0.0534
 8773TIP3    H147810   3.978   2.101  12.768 -1.0006 -0.5185  0.3835
 8773TIP3    H247811   3.970   2.112  12.919 -0.1736  0.4370  0.3684
 8774TIP3   OH247812   5.797   1.055   9.482 -0.2099  0.3534  0.5146
 8774TIP3    H147813   5.815   1.101   9.564  0.5621  0.5084  0.2633
 8774TIP3    H247814   5.722   0.999   9.503  0.3351 -0.0386  1.5007
 8775TIP3   OH247815   0.956   4.985   2.625  0.1431 -0.6824 -0.3065
 8775TIP3    H147816   1.029   4.935   2.662  2.3500  2.6656  0.2616
 8775TIP3    H247817   0.980   4.998   2.534  0.7242  1.0672  0.0610
 8776TIP3   OH247818   6.391   0.735  10.237 -0.0263 -0.0399  0.5941
 8776TIP3    H147819   6.361   0.813  10.284 -0.6073 -0.3116  0.6827
 8776TIP3    H247820   6.333   0.665  10.266 -0.0638 -0.3269 -0.1329
 8777TIP3   OH247821   2.055   4.438   0.080 -0.5689 -0.3213 -0.4226
 8777TIP3    H147822   2.150   4.443   0.081 -0.5793 -0.0741 -0.7098
 8777TIP3    H247823   2.032   4.413   0.170 -0.2516 -0.1067 -0.2800
 8778TIP3   OH247824   4.496   0.877   3.816 -0.1856  0.8562  0.0451
 8778TIP3    H147825   4.548   0.807   3.776 -1.6740  0.1234 -0.6889
 8778TIP3    H247826   4.450   0.834   3.889  0.7726  1.6642  1.1530
 8779TIP3   OH247827   3.378   6.869   5.891 -0.4528 -0.0070  0.3570
 8779TIP3    H147828   3.313   6.825   5.836 -0.2864  1.3469 -0.9800
 8779TIP3    H247829   3.328   6.936   5.938 -0.3390 -0.2041  0.7628
 8780TIP3   OH247830   6.748   0.918   2.092  0.7420 -0.1697  0.1527
 8780TIP3    H147831   6.800   0.950   2.018  0.3106 -1.0055 -0.5271
 8780TIP3    H247832   6.813   0.881   2.152  1.1795  1.2809  0.6174
 8781TIP3   OH247833   3.330   4.739   3.083  0.4650 -0.5064  0.5185
 8781TIP3    H147834   3.422   4.721   3.102  1.0143  1.0269 -0.5120
 8781TIP3    H247835   3.298   4.786   3.160  0.2904 -1.7419  1.2262
 8782TIP3   OH247836   7.212   2.090   5.782 -0.2884  0.0937  0.1766
 8782TIP3    H147837   7.181   2.069   5.694 -1.6702 -0.1567  0.6953
 8782TIP3    H247838   7.137   2.074   5.838  0.4690  0.5842  1.3719
 8783TIP3   OH247839   5.264   7.236   5.590  0.1798  0.1718 -0.5610
 8783TIP3    H147840   5.267   7.203   5.500  2.8454 -0.7405 -0.2272
 8783TIP3    H247841   5.176   7.214   5.621 -0.2162 -1.0609 -2.3992
 8784TIP3   OH247842   6.135   0.210  10.498  0.3921 -0.1526  0.7151
 8784TIP3    H147843   6.186   0.152  10.441  2.1070 -0.3590  2.3552
 8784TIP3    H247844   6.044   0.183  10.485  0.8678 -1.1194 -0.8348
 8785TIP3   OH247845   3.245   6.038  12.250 -0.0550 -0.1257  0.2683
 8785TIP3    H147846   3.168   6.005  12.297 -0.7211  0.8351 -0.1082
 8785TIP3    H247847   3.293   6.089  12.316 -1.6303  2.2577 -0.3066
 8786TIP3   OH247848   0.921   2.877   0.273 -0.4768 -0.1197 -0.1105
 8786TIP3    H147849   0.838   2.853   0.315  0.5384 -0.0555  2.0946
 8786TIP3    H247850   0.925   2.973   0.282 -1.1605  0.1571 -2.2719
 8787TIP3   OH247851   0.052   4.865  12.392  0.0956  0.4759  0.1255
 8787TIP3    H147852  -0.035   4.839  12.363  0.5065 -0.1508 -0.6020
 8787TIP3    H247853   0.060   4.957  12.365 -0.3110  0.5194  0.1455
 8788TIP3   OH247854   0.989   2.190  15.203  0.1256  0.4529 -0.0761
 8788TIP3    H147855   1.041   2.173  15.281  2.2779  1.8541 -1.1150
 8788TIP3    H247856   1.051   2.185  15.131 -1.5258  0.5456 -1.5800
 8789TIP3   OH247857   2.322   5.689  12.394  0.4862 -0.7478  0.3072
 8789TIP3    H147858   2.385   5.758  12.415 -2.4407  1.5381  2.4066
 8789TIP3    H247859   2.329   5.627  12.467  0.2887 -0.4592  0.5744
 8790TIP3   OH247860   2.566   3.293  11.543  0.3182 -0.5187  0.0335
 8790TIP3    H147861   2.483   3.296  11.496  1.2032 -1.0846 -1.6692
 8790TIP3    H247862   2.542   3.296  11.635 -1.5213  0.4501 -0.4221
 8791TIP3   OH247863   0.557   5.701  10.461  0.5214 -0.7383  0.7542
 8791TIP3    H147864   0.620   5.666  10.523  1.0075 -0.3726  0.4758
 8791TIP3    H247865   0.531   5.626  10.408 -0.7933 -1.3016  2.1379
 8792TIP3   OH247866   3.118   5.864  13.814 -0.0110 -0.6037  0.0972
 8792TIP3    H147867   3.135   5.774  13.842 -1.0969 -0.2510  2.0713
 8792TIP3    H247868   3.091   5.856  13.722 -0.0148 -2.2655  0.2119
 8793TIP3   OH247869   6.531   0.776  13.360  0.0584  0.4884  0.1068
 8793TIP3    H147870   6.516   0.741  13.272 -2.4236 -1.3477  1.1439
 8793TIP3    H247871   6.510   0.869  13.353 -3.2794 -0.2232 -0.6539
 8794TIP3   OH247872   3.959   4.651   2.048 -0.4728 -0.6816  0.1520
 8794TIP3    H147873   3.906   4.720   2.007  0.3570  0.2939  0.6754
 8794TIP3    H247874   3.993   4.600   1.975 -0.0191  0.2864 -0.3291
 8795TIP3   OH247875   3.743   4.389  11.051  0.4576  0.7009  0.7599
 8795TIP3    H147876   3.712   4.300  11.035  1.0027  0.6668 -0.1815
 8795TIP3    H247877   3.838   4.379  11.065  0.7842  1.2733 -0.8343
 8796TIP3   OH247878   5.726   0.687   2.552 -0.5280 -0.2860  0.3834
 8796TIP3    H147879   5.785   0.702   2.625 -1.5132  0.2159  1.0984
 8796TIP3    H247880   5.655   0.749   2.565 -0.9976 -0.5686 -0.7029
 8797TIP3   OH247881   0.112   3.994   1.828 -0.7210 -0.1382  0.1895
 8797TIP3    H147882   0.060   3.922   1.793  0.8579 -0.5488 -1.4693
 8797TIP3    H247883   0.197   3.985   1.786 -0.6910  3.1852 -0.8069
 8798TIP3   OH247884   2.438   6.124  11.716 -0.1126 -0.7557 -0.6111
 8798TIP3    H147885   2.452   6.034  11.745  0.1323 -1.0518 -1.6100
 8798TIP3    H247886   2.525   6.156  11.693  0.0772  0.3583  1.3764
 8799TIP3   OH247887   4.080   1.022   5.597  0.0994 -0.1099  0.2817
 8799TIP3    H147888   4.015   0.988   5.536  0.4918  0.4271 -0.4512
 8799TIP3    H247889   4.148   0.955   5.600  0.9480  0.6298 -1.2807
 8800TIP3   OH247890   6.899   3.188   4.868 -0.1354  0.1414 -0.4812
 8800TIP3    H147891   6.877   3.118   4.806 -1.5170  0.1658 -0.0534
 8800TIP3    H247892   6.971   3.153   4.920 -1.1703 -1.2095  0.0940
 8801TIP3   OH247893   3.850   5.751  11.730 -0.3129 -0.2064 -0.1563
 8801TIP3    H147894   3.828   5.672  11.680 -0.0682 -2.3837  2.9042
 8801TIP3    H247895   3.935   5.778  11.697 -0.1439 -1.5735 -0.8806
 8802TIP3   OH247896   6.454   2.206   2.558 -0.8739 -0.4324 -0.0384
 8802TIP3    H147897   6.542   2.208   2.596 -0.8252 -0.5240 -0.1475
 8802TIP3    H247898   6.396   2.205   2.634 -0.8416  1.7730  0.0693
 8803TIP3   OH247899   2.886   0.531  14.640  0.0838  0.2357  0.3501
 8803TIP3    H147900   2.892   0.436  14.636  1.8301  0.3129  0.5921
 8803TIP3    H247901   2.805   0.548  14.687 -1.3050 -1.0895 -1.4159
 8804TIP3   OH247902   4.212   1.094  10.236  0.4033 -0.3599 -0.6761
 8804TIP3    H147903   4.193   1.136  10.152 -0.9873 -0.3436 -0.3691
 8804TIP3    H247904   4.152   1.020  10.241  1.2441 -1.0285 -0.1744
 8805TIP3   OH247905   0.287   5.913   9.604  0.6124 -0.0966 -0.2229
 8805TIP3    H147906   0.204   5.956   9.588  1.0099  0.7880  0.0325
 8805TIP3    H247907   0.352   5.982   9.597  1.4613 -0.9843 -1.5946
 8806TIP3   OH247908   0.309   0.728  11.585  0.8035 -0.3188 -0.5123
 8806TIP3    H147909   0.252   0.705  11.658 -1.2391  1.2304 -1.4989
 8806TIP3    H247910   0.388   0.762  11.626  0.0510 -0.3003  0.9820
 8807TIP3   OH247911   3.365   4.916  13.523 -0.2306 -0.0624 -0.0014
 8807TIP3    H147912   3.362   4.932  13.618 -0.1669 -0.0969  0.0065
 8807TIP3    H247913   3.429   4.980  13.490 -1.0785  0.7253 -0.1778
 8808TIP3   OH247914   3.031   2.526   4.731 -0.4862  0.2896  0.3924
 8808TIP3    H147915   2.939   2.506   4.716 -0.6305  0.0043  1.5347
 8808TIP3    H247916   3.077   2.492   4.654 -1.2985  0.1932 -0.0532
 8809TIP3   OH247917   4.411   4.875  10.421 -0.1135 -0.3928  0.3774
 8809TIP3    H147918   4.498   4.848  10.391  0.0876  0.1002  0.5075
 8809TIP3    H247919   4.357   4.796  10.413  0.2333 -0.5821 -0.1386
 8810TIP3   OH247920   5.306   3.248  11.081  0.5869  0.4266  0.0734
 8810TIP3    H147921   5.323   3.205  11.165 -0.3702  0.7818  0.4482
 8810TIP3    H247922   5.252   3.324  11.102 -0.4657 -0.0038 -0.9546
 8811TIP3   OH247923   2.829   3.949  13.087  0.4293  0.1200 -0.1549
 8811TIP3    H147924   2.776   3.985  13.158  1.1044  0.8140  0.0217
 8811TIP3    H247925   2.850   3.860  13.115 -1.6419 -0.6358 -0.8019
 8812TIP3   OH247926   7.035   5.970  13.397  0.1600  0.2266 -0.0516
 8812TIP3    H147927   7.091   5.929  13.464 -0.4466  0.7176  0.7766
 8812TIP3    H247928   7.033   5.906  13.326  2.5098  0.5817 -0.5253
 8813TIP3   OH247929   1.872   6.397  10.272  0.0950  0.0518 -0.5973
 8813TIP3    H147930   1.779   6.387  10.293  0.0145  0.8473 -0.5256
 8813TIP3    H247931   1.917   6.344  10.338 -0.1792  2.0787  1.3585
 8814TIP3   OH247932   6.767   6.323   0.012  0.8029 -0.0511  0.1661
 8814TIP3    H147933   6.717   6.246   0.040 -0.2974  1.1124  1.5568
 8814TIP3    H247934   6.853   6.288  -0.012  0.6738 -1.5860  1.7193
 8815TIP3   OH247935   6.957   1.459  15.143  0.2709  0.3906 -0.3174
 8815TIP3    H147936   6.916   1.508  15.071 -1.9096 -1.3085 -0.3336
 8815TIP3    H247937   6.924   1.501  15.222 -0.0776  0.1302 -0.3243
 8816TIP3   OH247938   0.680   2.273   0.321 -0.2776 -0.3595  0.3609
 8816TIP3    H147939   0.731   2.275   0.401 -2.3531  1.4350  1.7734
 8816TIP3    H247940   0.606   2.216   0.341 -0.8232  0.1085 -0.2592
 8817TIP3   OH247941   0.356   6.428  15.228 -0.5909 -0.5638 -0.3846
 8817TIP3    H147942   0.336   6.451  15.319 -0.2820  1.2760 -0.7336
 8817TIP3    H247943   0.377   6.335  15.231  0.7339 -0.2717  1.6733
 8818TIP3   OH247944   1.771   1.142   4.720 -0.1379 -0.9051  0.1707
 8818TIP3    H147945   1.817   1.076   4.669  0.2203 -0.7951  0.3528
 8818TIP3    H247946   1.705   1.177   4.660  0.3391 -0.7161 -0.2430
 8819TIP3   OH247947   6.576   3.625  13.810 -0.0022  0.1290  0.1080
 8819TIP3    H147948   6.641   3.559  13.783 -0.0848 -0.6470  1.6532
 8819TIP3    H247949   6.603   3.648  13.899 -1.1422  0.7208  0.3068
 8820TIP3   OH247950   2.114   1.848   2.219 -0.4583  0.4396  0.1509
 8820TIP3    H147951   2.133   1.755   2.203 -1.1078  0.6393 -2.1662
 8820TIP3    H247952   2.193   1.881   2.261 -0.2990 -1.1941  1.2273
 8821TIP3   OH247953   4.416   5.646  14.327  0.3170  0.0631 -0.3537
 8821TIP3    H147954   4.362   5.568  14.315  0.1456  0.0879  0.2135
 8821TIP3    H247955   4.389   5.681  14.412  0.0780  0.9946 -0.8083
 8822TIP3   OH247956   2.339   7.028  11.835 -0.0503 -0.0519 -0.4865
 8822TIP3    H147957   2.296   7.061  11.913  0.6210 -1.3265  0.4525
 8822TIP3    H247958   2.422   7.076  11.831  0.1668 -0.3896 -0.0880
 8823TIP3   OH247959   0.223   2.815  11.586  0.4944  0.3549 -0.6820
 8823TIP3    H147960   0.249   2.723  11.581 -0.6382 -0.0490  0.3471
 8823TIP3    H247961   0.144   2.821  11.533  0.0448  0.5189 -0.0091
 8824TIP3   OH247962   0.090   7.093  12.523 -0.3472 -0.5498 -0.5209
 8824TIP3    H147963   0.070   7.123  12.611  0.9984 -1.5141  0.1479
 8824TIP3    H247964   0.165   7.036  12.534 -0.2517 -0.8115 -2.2859
 8825TIP3   OH247965   0.202   0.099   5.413 -0.0825 -0.4015 -0.1110
 8825TIP3    H147966   0.133   0.035   5.434 -1.1545  0.3476 -1.2138
 8825TIP3    H247967   0.157   0.166   5.362  1.7974 -0.7798 -2.4264
 8826TIP3   OH247968   7.111   3.685  14.953  0.5662 -0.5600  0.1616
 8826TIP3    H147969   7.131   3.592  14.962  0.0935 -0.5564  1.4768
 8826TIP3    H247970   7.032   3.688  14.899  1.1614 -0.8472 -0.7481
 8827TIP3   OH247971   2.598   4.208   1.318  0.0441  0.2095  0.0964
 8827TIP3    H147972   2.572   4.161   1.397 -0.9462 -0.2741 -0.4900
 8827TIP3    H247973   2.524   4.197   1.258  0.3356  1.4354 -0.5281
 8828TIP3   OH247974   4.362   2.494   3.817 -0.1008  0.2679  0.4579
 8828TIP3    H147975   4.312   2.452   3.887  0.9701 -1.8293  0.0677
 8828TIP3    H247976   4.348   2.438   3.740 -0.4046  1.9253 -0.7523
 8829TIP3   OH247977   6.257   5.371   1.175 -0.3485  0.2629 -0.2810
 8829TIP3    H147978   6.292   5.460   1.178  0.8165 -0.1843  0.2363
 8829TIP3    H247979   6.162   5.382   1.181 -0.3813  1.5573 -2.2717
 8830TIP3   OH247980   2.385   0.891  12.822 -0.2271  0.3009  0.0993
 8830TIP3    H147981   2.349   0.970  12.862 -2.3346 -0.8842  0.6697
 8830TIP3    H247982   2.440   0.854  12.891 -0.6755  0.3404  0.4846
 8831TIP3   OH247983   1.388   2.828  10.016 -0.3843  0.2165 -0.2208
 8831TIP3    H147984   1.300   2.793  10.027 -0.6465  0.8261 -0.3445
 8831TIP3    H247985   1.402   2.884  10.092 -0.8440  1.6298 -1.1436
 8832TIP3   OH247986   0.592   5.383   2.821  0.5898 -0.1520  0.0416
 8832TIP3    H147987   0.605   5.364   2.914  2.6990  1.2700  0.1241
 8832TIP3    H247988   0.655   5.327   2.776  1.0529  0.6585 -0.3411
 8833TIP3   OH247989   4.075   6.171  13.769  0.4403  0.0158 -0.0137
 8833TIP3    H147990   3.991   6.216  13.774  0.4351  0.3355 -1.9878
 8833TIP3    H247991   4.054   6.082  13.742  0.7461  0.4156 -1.7147
 8834TIP3   OH247992   4.517   3.582   2.912  0.9847 -0.5468 -0.1052
 8834TIP3    H147993   4.547   3.629   2.989  1.8084 -1.3770  0.0986
 8834TIP3    H247994   4.458   3.643   2.868  0.2767 -0.1596  1.3172
 8835TIP3   OH247995   4.350   5.526   2.065 -0.3864  0.0148 -0.6722
 8835TIP3    H147996   4.383   5.606   2.106 -1.6489  0.6350 -0.7878
 8835TIP3    H247997   4.422   5.495   2.010  0.5381  0.4066  0.2984
 8836TIP3   OH247998   0.581   2.966  15.006 -0.0817  0.5162  0.0378
 8836TIP3    H147999   0.669   2.959  15.043 -0.2826 -1.7238  0.2460
 8836TIP3    H248000   0.536   2.886  15.035 -1.2459  0.1605 -2.4466
 8837TIP3   OH248001   6.723   4.914   2.598  0.9360  0.1026 -0.3090
 8837TIP3    H148002   6.686   4.935   2.684  3.0628 -0.3029  0.7807
 8837TIP3    H248003   6.812   4.884   2.617  1.0588 -1.2162 -2.5577
 8838TIP3   OH248004   2.086   5.515  13.920 -0.0442 -0.8780 -0.5208
 8838TIP3    H148005   2.035   5.457  13.863  0.6855 -2.2772  0.2190
 8838TIP3    H248006   2.030   5.592  13.931 -1.0383 -1.4235 -1.5312
 8839TIP3   OH248007   3.908   1.270   2.724  0.0558  0.3187  0.0791
 8839TIP3    H148008   3.827   1.318   2.738 -0.3248  0.3440 -1.8458
 8839TIP3    H248009   3.895   1.186   2.768 -0.6567  0.6730  0.5495
 8840TIP3   OH248010   3.577   2.183  12.693 -0.4754 -0.2550 -0.5000
 8840TIP3    H148011   3.521   2.224  12.627  0.2799  0.7039 -0.5658
 8840TIP3    H248012   3.540   2.212  12.777 -1.7266 -1.8582 -0.4461
 8841TIP3   OH248013   5.623   3.365   0.071  0.0434  0.2302  0.2501
 8841TIP3    H148014   5.535   3.355   0.034 -0.0358  1.2066  0.1397
 8841TIP3    H248015   5.674   3.404  -0.000  0.6902 -0.7309  0.1660
 8842TIP3   OH248016   4.139   2.171  14.740  0.3662 -0.1747  0.8427
 8842TIP3    H148017   4.226   2.198  14.710  0.4905 -0.3931  1.0023
 8842TIP3    H248018   4.156   2.115  14.815  0.1252 -0.8704  0.3903
 8843TIP3   OH248019   1.698   6.462  11.281 -0.4027 -0.5344 -0.2301
 8843TIP3    H148020   1.640   6.502  11.346 -1.0345  0.1076 -1.1599
 8843TIP3    H248021   1.781   6.507  11.291 -1.2676  1.5272 -1.6596
 8844TIP3   OH248022   6.660   1.268  10.395 -0.0115  0.4784  0.1828
 8844TIP3    H148023   6.634   1.246  10.484  0.8811 -0.3189  0.2669
 8844TIP3    H248024   6.684   1.184  10.356 -1.4613  0.6362 -1.1929
 8845TIP3   OH248025   3.749   6.343  12.241  0.1137  0.0673  0.5321
 8845TIP3    H148026   3.680   6.346  12.306  1.1894  3.0201  1.7307
 8845TIP3    H248027   3.822   6.298  12.284 -0.7728 -2.5896 -0.5541
 8846TIP3   OH248028   4.672   6.305  12.806 -0.0589 -0.3589  1.0975
 8846TIP3    H148029   4.729   6.249  12.753 -1.1000 -0.1061 -0.3666
 8846TIP3    H248030   4.705   6.394  12.790 -0.9476 -0.1864  0.0493
 8847TIP3   OH248031   4.916   6.935   1.985  0.1031  0.0101 -0.0212
 8847TIP3    H148032   4.966   6.881   1.924 -0.9032 -0.4394 -0.4752
 8847TIP3    H248033   4.974   6.945   2.060  1.1534  0.1198 -0.8181
 8848TIP3   OH248034   6.215   4.276  12.889  0.5688  0.1671 -0.2485
 8848TIP3    H148035   6.127   4.304  12.913  0.0775 -1.4873  0.0382
 8848TIP3    H248036   6.232   4.201  12.947  1.5243 -0.5171 -1.3753
 8849TIP3   OH248037   0.927   0.718   9.998 -0.1811  0.3535  0.0610
 8849TIP3    H148038   0.973   0.687  10.076  0.5840 -0.9034 -0.8528
 8849TIP3    H248039   0.839   0.681  10.005  0.3661 -1.1192 -0.4264
 8850TIP3   OH248040   4.034   4.835  15.058  0.6455  0.1192  0.0091
 8850TIP3    H148041   4.115   4.868  15.020  0.6621  1.7839  1.3433
 8850TIP3    H248042   4.041   4.857  15.151 -1.3566  0.3895  0.1373
 8851TIP3   OH248043   7.013   5.758  15.288  0.1279 -0.5393  0.1608
 8851TIP3    H148044   7.042   5.762  15.196 -1.8860  0.2746 -0.4834
 8851TIP3    H248045   7.095   5.762  15.338  1.1857  2.4571 -1.5254
 8852TIP3   OH248046   0.614   4.437  14.036  0.4763  0.2252 -0.3976
 8852TIP3    H148047   0.568   4.435  13.952 -0.2215  1.7841 -0.0797
 8852TIP3    H248048   0.665   4.518  14.034  0.0540  0.5465  0.8700
 8853TIP3   OH248049   4.165   1.167  12.994 -0.2872 -0.6976  0.0386
 8853TIP3    H148050   4.083   1.159  12.946  0.2784  1.1936 -1.3605
 8853TIP3    H248051   4.223   1.101  12.955  0.7239  1.8771 -3.3148
 8854TIP3   OH248052   1.148   4.963   0.871  0.2775  0.9224 -0.1095
 8854TIP3    H148053   1.148   4.871   0.844  0.6807  1.4557 -2.0903
 8854TIP3    H248054   1.103   4.963   0.956 -3.9951 -0.5755 -2.0424
 8855TIP3   OH248055   6.990   2.476  15.047  0.8314 -0.4037  0.8236
 8855TIP3    H148056   7.016   2.527  15.123  2.1001 -1.6391  1.2564
 8855TIP3    H248057   7.059   2.492  14.982 -0.5799  1.1873 -0.3826
 8856TIP3   OH248058   0.099   2.286  10.360 -0.6416  0.1177  0.5987
 8856TIP3    H148059   0.015   2.242  10.372 -0.9567  0.1761 -1.1200
 8856TIP3    H248060   0.118   2.327  10.444 -2.8926  1.0406  0.7147
 8857TIP3   OH248061   2.757   7.125   0.480 -0.2504 -0.5005 -0.5275
 8857TIP3    H148062   2.790   7.206   0.517 -2.7207  0.2905  0.1293
 8857TIP3    H248063   2.830   7.063   0.488  1.4414  1.4260 -0.3937
 8858TIP3   OH248064   0.692   6.054   2.994 -0.9617 -0.0442 -0.1920
 8858TIP3    H148065   0.659   5.969   2.967 -1.2901 -0.1226  0.4563
 8858TIP3    H248066   0.770   6.068   2.939 -1.0413 -0.6518 -0.4608
 8859TIP3   OH248067   5.725   0.304  11.183  0.0457  0.0697 -0.0845
 8859TIP3    H148068   5.709   0.398  11.191 -1.8782 -0.2475  0.1989
 8859TIP3    H248069   5.746   0.276  11.272  4.8850  0.8281 -0.7218
 8860TIP3   OH248070   3.662   3.319   3.282 -0.1037 -0.7232 -0.4284
 8860TIP3    H148071   3.645   3.245   3.340  0.4132 -2.0317 -1.9090
 8860TIP3    H248072   3.718   3.377   3.334 -0.0415 -1.6225  0.5409
 8861TIP3   OH248073   5.891   5.582  13.678  0.2269  0.3198 -0.1646
 8861TIP3    H148074   5.809   5.632  13.678 -0.3586 -0.6253 -0.3819
 8861TIP3    H248075   5.952   5.638  13.630 -0.4005  0.8527 -0.3688
 8862TIP3   OH248076   3.724   6.867   0.881 -0.5197  0.6099  0.3628
 8862TIP3    H148077   3.679   6.810   0.818  0.4574 -1.1146  1.1605
 8862TIP3    H248078   3.806   6.891   0.837 -0.9769  1.5483 -0.0161
 8863TIP3   OH248079   3.805   4.013   9.384 -0.4724  0.2113  0.3848
 8863TIP3    H148080   3.830   4.073   9.454  0.1855 -0.0126  0.3489
 8863TIP3    H248081   3.733   4.057   9.340 -1.1953  0.1507  1.4741
 8864TIP3   OH248082   2.601   0.629   2.986  0.2200  0.2429 -0.0843
 8864TIP3    H148083   2.520   0.670   3.017  0.4782  0.1946  0.6637
 8864TIP3    H248084   2.643   0.697   2.933  0.6465  0.9883  1.1512
 8865TIP3   OH248085   6.356   5.264   4.182  0.4019  0.3130 -0.1041
 8865TIP3    H148086   6.349   5.232   4.272  0.7593  1.0332  0.1851
 8865TIP3    H248087   6.450   5.273   4.167  0.3002  1.4699 -0.0902
 8866TIP3   OH248088   1.386   2.827  11.205  0.4350 -0.8634 -0.7773
 8866TIP3    H148089   1.311   2.775  11.234  0.4396  0.7691  2.6272
 8866TIP3    H248090   1.350   2.885  11.138 -1.2831 -0.3773  0.5103
 8867TIP3   OH248091   1.126   5.421   1.723  0.4813  0.0752  0.0496
 8867TIP3    H148092   1.181   5.414   1.644  0.8096 -0.4312  0.3161
 8867TIP3    H248093   1.049   5.470   1.694  0.6985  0.0805 -0.5371
 8868TIP3   OH248094   2.487   7.101  15.264 -0.2344  0.0788  0.2639
 8868TIP3    H148095   2.497   7.028  15.202 -2.1003  1.1627 -1.4241
 8868TIP3    H248096   2.539   7.172  15.226 -0.4846  0.4042  0.5244
 8869TIP3   OH248097   6.012   4.532   1.213  0.2302  0.1645  0.0762
 8869TIP3    H148098   5.978   4.544   1.124  1.4416  0.4207 -0.3701
 8869TIP3    H248099   5.982   4.610   1.260  1.5873  1.2600 -0.7735
 8870TIP3   OH248100   0.486   0.288  12.655  0.3947  0.0298  0.1725
 8870TIP3    H148101   0.576   0.320  12.657 -0.5147  2.9978 -1.3542
 8870TIP3    H248102   0.492   0.204  12.610  2.5628 -0.7912  1.7673
 8871TIP3   OH248103   5.245   6.282  13.030  0.1488 -0.6192 -0.2379
 8871TIP3    H148104   5.300   6.205  13.022  0.1645 -0.6618  0.2606
 8871TIP3    H248105   5.265   6.318  13.117 -0.5133 -0.5653 -0.0982
 8872TIP3   OH248106   2.181   3.812  11.086 -0.4253  0.2419  0.2612
 8872TIP3    H148107   2.129   3.855  11.153 -1.0793 -1.1276  0.6739
 8872TIP3    H248108   2.265   3.793  11.129 -0.6022 -0.0371  0.4830
 8873TIP3   OH248109   1.031   6.054   1.575  0.5268 -0.0396 -0.0821
 8873TIP3    H148110   1.119   6.045   1.539 -0.0221 -3.1033 -0.9768
 8873TIP3    H248111   0.976   6.079   1.501  0.2306 -1.0710 -0.2327
 8874TIP3   OH248112   1.692   6.593  13.787  0.0553 -0.0580 -0.0314
 8874TIP3    H148113   1.657   6.514  13.745 -1.7618  0.5696  0.2225
 8874TIP3    H248114   1.744   6.635  13.718 -0.9918 -0.2223 -0.9585
 8875TIP3   OH248115   0.525   0.007  10.400  0.2419  0.3171 -0.2405
 8875TIP3    H148116   0.509  -0.053  10.474  1.7090  1.5859  1.1932
 8875TIP3    H248117   0.465   0.080  10.416  1.4664  1.2020  0.4823
 8876TIP3   OH248118   2.217   0.062  10.300  0.0326 -0.2067 -0.3213
 8876TIP3    H148119   2.215   0.081  10.206  1.3256  1.7003 -0.0195
 8876TIP3    H248120   2.272  -0.015  10.308  0.0669 -0.2780 -1.1173
 8877TIP3   OH248121   2.490   4.693  10.182 -0.3670  0.0607 -0.8357
 8877TIP3    H148122   2.496   4.600  10.161 -2.8504 -0.8841  1.8528
 8877TIP3    H248123   2.499   4.696  10.278  1.2242  2.8293 -0.9734
 8878TIP3   OH248124   0.073   3.271   0.071  0.2008 -0.3425  0.6192
 8878TIP3    H148125   0.055   3.358   0.106  0.4703 -0.8247  2.0119
 8878TIP3    H248126   0.168   3.260   0.080  0.0085 -1.2922  1.7639
 8879TIP3   OH248127   2.866   3.744   1.702  1.1563  0.2320 -0.1367
 8879TIP3    H148128   2.784   3.706   1.733  1.5700 -2.4200 -1.9369
 8879TIP3    H248129   2.840   3.804   1.632  0.7050 -0.0593 -0.2208
 8880TIP3   OH248130   3.877   0.936   3.837 -0.3969  0.2883  0.3878
 8880TIP3    H148131   3.906   0.991   3.763  0.3497 -0.2507  0.2774
 8880TIP3    H248132   3.816   0.874   3.797  0.0556 -0.0445  0.2009
 8881TIP3   OH248133   0.386   6.936   4.018 -0.0350  0.5494 -0.1686
 8881TIP3    H148134   0.388   6.853   3.972  1.3091  1.2418 -1.4683
 8881TIP3    H248135   0.308   6.932   4.074  0.4482 -1.8796  0.4381
 8882TIP3   OH248136   1.559   1.935  14.088 -0.1149  0.2631  0.4389
 8882TIP3    H148137   1.598   1.866  14.141 -0.2370  1.1815  1.7727
 8882TIP3    H248138   1.633   1.984  14.052 -0.0248 -0.6757 -0.7050
 8883TIP3   OH248139   3.158   3.918  14.828 -0.1450 -0.1183 -0.0862
 8883TIP3    H148140   3.123   3.925  14.739 -1.0959  1.3883  0.3710
 8883TIP3    H248141   3.087   3.950  14.884  0.3520 -1.2561  1.2482
 8884TIP3   OH248142   2.606   2.047   0.234 -0.4797  0.1143  0.3619
 8884TIP3    H148143   2.691   2.016   0.203 -0.7493  1.4898 -2.0281
 8884TIP3    H248144   2.558   1.968   0.257  2.0013 -0.6398  3.6024
 8885TIP3   OH248145   4.015   4.342   3.128  0.7520  0.2236  0.4532
 8885TIP3    H148146   3.990   4.343   3.220  1.0941  0.4309  0.5451
 8885TIP3    H248147   4.111   4.339   3.129  0.7839  0.9240  0.1072
 8886TIP3   OH248148   2.428   1.922  12.259 -0.2096 -0.1717 -0.1981
 8886TIP3    H148149   2.494   1.977  12.302 -1.1874 -0.0613  1.2528
 8886TIP3    H248150   2.459   1.833  12.274 -0.6337 -0.1421  0.9428
 8887TIP3   OH248151   5.350   4.029  11.080 -0.3773 -0.0943 -0.5995
 8887TIP3    H148152   5.381   3.940  11.068 -1.7006 -0.4628 -1.5259
 8887TIP3    H248153   5.381   4.076  11.003  0.8840  0.4408  0.2038
 8888TIP3   OH248154   4.322   2.179  13.759 -0.4925  0.2125  0.4402
 8888TIP3    H148155   4.321   2.127  13.679 -1.1852 -0.0779  0.6285
 8888TIP3    H248156   4.274   2.259  13.737  0.1508  0.5567  0.2889
 8889TIP3   OH248157   0.371   1.767   2.743  0.4513 -0.0018  0.1879
 8889TIP3    H148158   0.360   1.830   2.671  1.4719 -0.0025  0.0121
 8889TIP3    H248159   0.321   1.690   2.715 -0.2680  0.4874  0.1066
 8890TIP3   OH248160   3.444   4.029   1.911 -0.0834 -0.3190 -0.2822
 8890TIP3    H148161   3.392   4.029   1.992 -0.3439 -0.5884 -0.4504
 8890TIP3    H248162   3.534   4.034   1.941 -0.1955 -0.0476  0.0183
 8891TIP3   OH248163   4.324   1.842  11.486 -0.7361 -0.6686  0.2303
 8891TIP3    H148164   4.376   1.881  11.416 -3.1193 -0.6872 -1.6628
 8891TIP3    H248165   4.300   1.916  11.542  1.5315 -0.7131  1.3826
 8892TIP3   OH248166   0.618   3.617   1.422 -0.2000  0.4114 -0.2354
 8892TIP3    H148167   0.601   3.550   1.489  1.1863  0.3858  0.1164
 8892TIP3    H248168   0.709   3.643   1.437 -0.0317  0.7840 -1.7891
 8893TIP3   OH248169   6.036   0.210  12.058  0.3758  0.3471 -0.1263
 8893TIP3    H148170   6.025   0.237  11.967  0.5018  0.3629 -0.1376
 8893TIP3    H248171   5.952   0.228  12.099 -1.3727 -3.8662 -1.2707
 8894TIP3   OH248172   5.420   3.684  12.522 -0.1711 -1.0160  0.0588
 8894TIP3    H148173   5.392   3.689  12.431  0.3035 -1.2240 -0.1000
 8894TIP3    H248174   5.401   3.594  12.548 -1.8688 -0.5221  0.6852
 8895TIP3   OH248175   0.530   5.587   1.557  0.6424  0.5802 -0.3768
 8895TIP3    H148176   0.492   5.544   1.633  1.5456  0.0298 -0.2200
 8895TIP3    H248177   0.606   5.634   1.592  0.3359  1.3561 -0.7369
 8896TIP3   OH248178   5.713   6.902   0.322  0.0070 -0.4793  0.2934
 8896TIP3    H148179   5.730   6.919   0.415 -1.2291  1.3564  0.2454
 8896TIP3    H248180   5.617   6.906   0.315  0.0842 -0.6737 -1.0521
 8897TIP3   OH248181   3.968   5.759  12.332  0.2755 -0.3282 -0.5649
 8897TIP3    H148182   3.892   5.753  12.275  0.2766  1.0070 -0.7498
 8897TIP3    H248183   3.937   5.812  12.406  0.6610 -0.8781 -0.0049
 8898TIP3   OH248184   3.350   3.937  11.775  0.6469  0.2065 -0.4916
 8898TIP3    H148185   3.400   4.017  11.786  0.9507 -0.1818  1.1734
 8898TIP3    H248186   3.315   3.918  11.862  1.6651 -2.1558 -0.5257
 8899TIP3   OH248187   3.129   7.116  13.451 -0.3554 -0.2676 -0.5990
 8899TIP3    H148188   3.224   7.104  13.453 -0.5019 -1.3819  0.9558
 8899TIP3    H248189   3.117   7.199  13.403  1.3499 -0.3631 -1.2630
 8900TIP3   OH248190   1.203   2.974   3.060  0.3966  0.1188  0.0683
 8900TIP3    H148191   1.270   3.017   3.006  1.0035  0.3059  0.9457
 8900TIP3    H248192   1.123   3.024   3.043  0.5403  0.0643 -0.7906
 8901TIP3   OH248193   2.961   1.772   9.386  0.0252  0.5404  0.0099
 8901TIP3    H148194   2.965   1.778   9.291 -0.9729  2.6281  0.0401
 8901TIP3    H248195   2.869   1.785   9.408  0.0963 -0.7726  1.2498
 8902TIP3   OH248196   3.990   0.408   0.405 -0.1076 -0.2521 -0.2292
 8902TIP3    H148197   3.991   0.323   0.361  0.7061 -0.3722  0.0102
 8902TIP3    H248198   3.897   0.432   0.408 -0.7373 -2.5386  2.4102
 8903TIP3   OH248199   5.090   2.173   1.922  0.1340  0.1841 -0.2389
 8903TIP3    H148200   5.140   2.103   1.965 -0.4742 -0.0215  0.1481
 8903TIP3    H248201   5.014   2.186   1.978 -1.2383 -0.8137 -1.7799
 8904TIP3   OH248202   5.619   1.689  11.464  0.1120 -0.2137 -0.1262
 8904TIP3    H148203   5.601   1.735  11.546  2.9849  1.1351 -0.1298
 8904TIP3    H248204   5.541   1.636  11.449 -1.1320  0.6100  2.6888
 8905TIP3   OH248205   6.595   4.261   1.902 -0.3283 -0.4987 -0.4801
 8905TIP3    H148206   6.560   4.330   1.846 -2.4969  0.6793  2.0962
 8905TIP3    H248207   6.524   4.196   1.907  1.0510 -2.2077 -1.5210
 8906TIP3   OH248208   0.678   1.965  11.545  0.3762  0.1110 -0.2255
 8906TIP3    H148209   0.671   2.047  11.497  0.2443  0.4449  0.3563
 8906TIP3    H248210   0.601   1.964  11.602 -0.1744 -0.9037 -0.9658
 8907TIP3   OH248211   0.485   0.737   3.419 -0.0787 -0.6240  0.0316
 8907TIP3    H148212   0.445   0.817   3.384 -0.4080 -0.7837  0.0382
 8907TIP3    H248213   0.579   0.752   3.410 -0.1419 -0.3374 -0.1947
 8908TIP3   OH248214   6.814   2.355  14.232 -0.0829 -0.7859  0.0684
 8908TIP3    H148215   6.891   2.321  14.277 -0.3046 -0.2349  0.8788
 8908TIP3    H248216   6.747   2.361  14.300  0.1239  1.8139  0.1216
 8909TIP3   OH248217   4.236   4.066  11.149 -0.1167 -0.3064  0.5091
 8909TIP3    H148218   4.168   4.095  11.211  0.3352  1.2277  0.3336
 8909TIP3    H248219   4.299   4.020  11.204 -0.3668 -0.0835  0.9984
 8910TIP3   OH248220   3.917   0.554   9.722  0.1081  0.5931  0.1941
 8910TIP3    H148221   3.996   0.510   9.754  1.5623  1.1958 -2.2754
 8910TIP3    H248222   3.922   0.545   9.627 -2.4249  1.3548 -0.0725
 8911TIP3   OH248223   5.639   0.754  13.439 -0.4474  0.2262 -0.0077
 8911TIP3    H148224   5.592   0.723  13.517 -2.0028 -0.4062 -1.1393
 8911TIP3    H248225   5.572   0.800  13.388  0.1611 -0.6240 -1.6318
 8912TIP3   OH248226   3.322   4.894  10.147 -0.1825  0.2962  0.0688
 8912TIP3    H148227   3.248   4.852  10.191 -0.1395  0.2508  0.0978
 8912TIP3    H248228   3.284   4.930  10.067 -0.5006  1.3685  0.6862
 8913TIP3   OH248229   1.154   2.729   5.475 -0.3036  0.4511 -0.5502
 8913TIP3    H148230   1.102   2.764   5.547 -0.8309  0.8098 -1.0947
 8913TIP3    H248231   1.096   2.665   5.433 -0.2224  0.6904 -1.0306
 8914TIP3   OH248232   3.915   3.392  11.422  0.1345 -0.0129  0.3430
 8914TIP3    H148233   3.980   3.404  11.491 -0.2679  0.5124  0.6410
 8914TIP3    H248234   3.924   3.470  11.367  0.8567 -0.7042 -0.5538
 8915TIP3   OH248235   4.753   1.048  14.559 -0.4341 -0.4105 -0.2479
 8915TIP3    H148236   4.718   0.974  14.510  2.4883 -0.9879 -1.6791
 8915TIP3    H248237   4.810   1.093  14.497  0.0128  1.4265  1.4111
 8916TIP3   OH248238   3.554   3.369   9.539 -0.2062  0.2517  0.4071
 8916TIP3    H148239   3.533   3.357   9.631 -0.2256 -1.6031  0.1952
 8916TIP3    H248240   3.470   3.360   9.494  0.2931 -3.6502 -0.1268
 8917TIP3   OH248241   6.425   7.007  13.991  0.0917  0.2810 -0.1126
 8917TIP3    H148242   6.514   7.041  14.000 -0.3079  0.8685  2.3813
 8917TIP3    H248243   6.437   6.916  13.964  1.4676  0.2184  0.6139
 8918TIP3   OH248244   0.048   3.520   0.218 -0.3525  0.1369  0.4301
 8918TIP3    H148245   0.123   3.578   0.232  0.6542 -1.0781  0.1405
 8918TIP3    H248246  -0.018   3.553   0.279 -0.7313  3.1025 -1.3589
 8919TIP3   OH248247   0.157   7.142  13.456 -0.4869 -0.3723  0.6247
 8919TIP3    H148248   0.104   7.091  13.395  0.8508  1.4471 -2.2391
 8919TIP3    H248249   0.099   7.156  13.531 -3.2191 -0.5323 -1.2808
 8920TIP3   OH248250   1.248   0.087  14.170  0.2416  0.4956 -0.0959
 8920TIP3    H148251   1.166   0.100  14.216  0.4946  0.3973  0.3865
 8920TIP3    H248252   1.294   0.170  14.178  0.3882  0.4019  0.0289
 8921TIP3   OH248253   1.916   7.085   2.766  0.4278  0.3088  0.3792
 8921TIP3    H148254   1.846   7.147   2.791  0.6065  0.6574  0.0277
 8921TIP3    H248255   1.915   7.019   2.835  0.3097  0.7703  0.8285
 8922TIP3   OH248256   4.281   2.894  15.103  0.3986 -0.0675 -0.8776
 8922TIP3    H148257   4.284   2.828  15.033  1.4964  0.8856 -1.7613
 8922TIP3    H248258   4.248   2.846  15.179  1.4903 -1.7378 -1.3930
 8923TIP3   OH248259   6.000   2.206  11.442 -1.0476  0.2975  0.3238
 8923TIP3    H148260   5.925   2.164  11.483 -1.5513  1.4632  0.6479
 8923TIP3    H248261   6.066   2.210  11.512 -0.9834  0.0035  0.2794
 8924TIP3   OH248262   5.428   4.464   1.900  0.3311 -0.4756 -0.1210
 8924TIP3    H148263   5.437   4.528   1.830 -0.1634 -0.4968 -0.2060
 8924TIP3    H248264   5.464   4.507   1.978 -4.1785  1.8450  1.0228
 8925TIP3   OH248265   7.040   1.282  14.234 -0.6215 -0.5020 -0.1429
 8925TIP3    H148266   7.027   1.298  14.140  2.1385 -0.5190 -0.6013
 8925TIP3    H248267   7.034   1.369  14.274 -0.9023 -0.3733 -0.4611
 8926TIP3   OH248268   2.419   5.177   3.564 -0.6895  0.4311  0.0039
 8926TIP3    H148269   2.417   5.136   3.651  0.1646 -0.7720 -0.5326
 8926TIP3    H248270   2.446   5.268   3.582 -1.8579  0.5979  1.1218
 8927TIP3   OH248271   0.840   5.136   2.170 -0.4148  0.4764  0.1435
 8927TIP3    H148272   0.924   5.090   2.172  0.4841  2.0965  1.2108
 8927TIP3    H248273   0.849   5.207   2.233 -2.5301  0.8223  0.1337
 8928TIP3   OH248274   0.521   0.280  10.090 -0.2784 -0.1088 -0.0236
 8928TIP3    H148275   0.615   0.266  10.104  0.2289  1.1218 -1.8371
 8928TIP3    H248276   0.517   0.343  10.018 -2.5259 -1.7408 -1.4464
 8929TIP3   OH248277   4.556   1.768  10.728 -0.7694  0.9265 -0.0211
 8929TIP3    H148278   4.553   1.860  10.751 -1.6446  0.6986  0.8377
 8929TIP3    H248279   4.520   1.722  10.804 -0.6592 -0.0956 -0.5573
 8930TIP3   OH248280   6.620   7.098  11.361 -0.1748  0.1959 -0.6144
 8930TIP3    H148281   6.660   7.162  11.421 -0.7730 -1.0494  1.1945
 8930TIP3    H248282   6.526   7.113  11.369 -0.2696 -0.0462 -1.2065
 8931TIP3   OH248283   0.752   3.472   9.970  0.3550 -0.2968  0.7861
 8931TIP3    H148284   0.779   3.400  10.027  0.0032 -1.8854 -0.9506
 8931TIP3    H248285   0.829   3.491   9.917  0.4255  0.6110  1.1851
 8932TIP3   OH248286   0.525   2.657  14.619  0.3850 -0.2559  0.0522
 8932TIP3    H148287   0.534   2.749  14.595 -0.8533 -0.4577 -1.2963
 8932TIP3    H248288   0.478   2.617  14.546  0.6220 -1.9061  0.7496
 8933TIP3   OH248289   3.658   2.957   3.127 -0.0180  0.2311  0.2880
 8933TIP3    H148290   3.590   3.023   3.115 -0.2438  0.0807  0.7274
 8933TIP3    H248291   3.732   2.989   3.075 -0.4873  0.2980 -0.3604
 8934TIP3   OH248292   2.704   6.872  14.409  0.0366  0.0157  0.2233
 8934TIP3    H148293   2.654   6.888  14.489  0.4761  1.5722  0.2241
 8934TIP3    H248294   2.640   6.840  14.345 -0.7662  1.0370  0.5022
 8935TIP3   OH248295   7.096   1.929   2.413 -0.2142 -0.1395  0.2257
 8935TIP3    H148296   7.052   2.010   2.390  2.3141  0.8246 -1.7131
 8935TIP3    H248297   7.092   1.925   2.509  0.1599  2.6350  0.4243
 8936TIP3   OH248298   6.831   0.902   0.555 -0.4092  0.3406  0.1543
 8936TIP3    H148299   6.794   0.826   0.510  0.3738  0.3811 -0.5942
 8936TIP3    H248300   6.844   0.967   0.485 -0.4659  0.9303  0.6768
 8937TIP3   OH248301   5.321   0.941  15.218  0.7679  0.1562 -0.0985
 8937TIP3    H148302   5.226   0.926  15.222  0.9460 -0.9299  0.2994
 8937TIP3    H248303   5.338   0.961  15.126  0.2603 -0.5155 -0.3514
 8938TIP3   OH248304   4.479   2.818  11.616 -0.4457  0.1479 -0.0934
 8938TIP3    H148305   4.452   2.738  11.569 -0.2892 -0.2836  0.5354
 8938TIP3    H248306   4.399   2.870  11.623 -0.9326 -0.7009  0.9327
 8939TIP3   OH248307   3.602   0.204  12.685  0.6129 -0.9014 -0.3471
 8939TIP3    H148308   3.530   0.148  12.715  0.7644 -0.7124  0.3918
 8939TIP3    H248309   3.659   0.145  12.636  1.5153 -1.7703  1.6129
 8940TIP3   OH248310   6.932   6.546   1.641  0.3649  0.1434  0.1323
 8940TIP3    H148311   6.977   6.466   1.665 -0.2713  0.0074  0.9421
 8940TIP3    H248312   6.972   6.573   1.558  1.5625 -0.2347  0.5684
 8941TIP3   OH248313   0.654   4.615  12.166  0.0013 -0.0222 -0.2218
 8941TIP3    H148314   0.650   4.521  12.184  2.3046  0.0199  0.9280
 8941TIP3    H248315   0.599   4.654  12.233 -1.6497 -0.5483 -1.2158
 8942TIP3   OH248316   6.572   0.018   9.927  0.4402 -0.6023  0.1473
 8942TIP3    H148317   6.477   0.020   9.933  0.5230  0.3673  1.9576
 8942TIP3    H248318   6.596  -0.071   9.953  0.0833 -0.1259  2.3880
 8943TIP3   OH248319   1.272   0.615  13.357 -0.0693 -0.2197 -0.4192
 8943TIP3    H148320   1.313   0.626  13.271 -0.3373  2.6598 -0.2630
 8943TIP3    H248321   1.180   0.601  13.337  0.0084 -0.4647 -0.6154
 8944TIP3   OH248322   7.220   1.194  10.692 -0.3435  0.2345  0.1320
 8944TIP3    H148323   7.289   1.185  10.626  1.5631  0.3108  2.0133
 8944TIP3    H248324   7.217   1.288  10.711  0.1697  0.0526  1.1786
 8945TIP3   OH248325   4.359   1.447  14.176 -0.2761 -0.3620  0.1331
 8945TIP3    H148326   4.409   1.507  14.121 -1.8879 -0.0392 -1.0652
 8945TIP3    H248327   4.278   1.495  14.196 -1.3964 -1.9010 -0.4488
 8946TIP3   OH248328   4.939   4.316  11.582  0.2836  0.1010 -0.1413
 8946TIP3    H148329   4.999   4.370  11.633 -1.3271  1.5417  0.3370
 8946TIP3    H248330   4.892   4.379  11.527 -0.5826 -1.0113 -0.7107
 8947TIP3   OH248331   5.726   4.190  13.562 -0.5574 -0.2872  0.1927
 8947TIP3    H148332   5.722   4.152  13.474 -0.5767 -1.6639  0.7650
 8947TIP3    H248333   5.689   4.278  13.552  0.9167  0.1866 -1.4694
 8948TIP3   OH248334   1.475   3.371   3.578  0.6571 -0.4140  0.0972
 8948TIP3    H148335   1.449   3.293   3.627  0.2793  0.7444  1.8391
 8948TIP3    H248336   1.398   3.394   3.526  0.1793 -0.2875  0.8407
 8949TIP3   OH248337   1.072   3.125  10.074  0.3863 -0.5849  0.4490
 8949TIP3    H148338   1.072   3.080  10.158 -0.4601  0.2492  0.9238
 8949TIP3    H248339   0.999   3.086  10.025 -0.3084  0.2088  0.8372
 8950TIP3   OH248340   2.930   5.708   9.980 -0.4809  0.5445 -0.0274
 8950TIP3    H148341   2.925   5.624   9.935 -2.6775  0.9201 -0.5664
 8950TIP3    H248342   2.968   5.768   9.915 -3.2352  0.9831 -1.3664
 8951TIP3   OH248343   5.349   3.811  13.279 -0.4552 -0.6185 -0.4024
 8951TIP3    H148344   5.260   3.847  13.280  0.4497  1.8397 -1.4297
 8951TIP3    H248345   5.343   3.732  13.225 -2.3337 -1.6413  1.1379
 8952TIP3   OH248346   3.666   6.169   2.238  0.2389 -0.3380 -0.5420
 8952TIP3    H148347   3.614   6.245   2.212  0.2026 -0.7568 -1.7515
 8952TIP3    H248348   3.632   6.097   2.185  1.8244 -0.6921 -1.1566
 8953TIP3   OH248349   1.351   4.988  10.555  0.3417 -0.2281  0.0924
 8953TIP3    H148350   1.289   4.983  10.482  0.9117  1.9894 -0.6119
 8953TIP3    H248351   1.364   4.897  10.581 -0.9207 -0.9754 -1.6805
 8954TIP3   OH248352   1.703   5.965   9.528  0.4051 -0.3147  0.2159
 8954TIP3    H148353   1.757   5.972   9.449  0.3153 -1.8400 -0.0075
 8954TIP3    H248354   1.754   5.910   9.587  0.2317  0.3809  1.0430
 8955TIP3   OH248355   2.168   3.246  14.901  0.1608  0.3985  0.0564
 8955TIP3    H148356   2.163   3.342  14.898  0.2738  0.3796 -1.7636
 8955TIP3    H248357   2.222   3.227  14.978  0.2072  1.7993  0.3940
 8956TIP3   OH248358   1.525   2.657  10.555  0.2921  0.2687  0.0928
 8956TIP3    H148359   1.462   2.726  10.578  0.3187  0.0282  0.9106
 8956TIP3    H248360   1.496   2.627  10.469 -1.5570 -0.7834  1.0132
 8957TIP3   OH248361   4.356   2.834  11.317 -0.4196 -0.3781  0.2086
 8957TIP3    H148362   4.346   2.920  11.360 -1.3799 -1.1822  1.6679
 8957TIP3    H248363   4.450   2.818  11.318 -0.1549  0.9289 -0.6812
 8958TIP3   OH248364   4.177   6.673  12.420 -0.3784  0.3646  0.0922
 8958TIP3    H148365   4.121   6.615  12.370 -3.9015  3.2944  0.2890
 8958TIP3    H248366   4.242   6.704  12.357 -0.7018 -0.9027 -0.9169
 8959TIP3   OH248367   6.286   1.971  11.913 -0.4158  0.1930  0.4791
 8959TIP3    H148368   6.251   1.887  11.942 -0.0481  0.8518  3.1053
 8959TIP3    H248369   6.231   2.036  11.957 -0.4837  1.3549 -1.2389
 8960TIP3   OH248370   6.035   3.120   1.427 -0.1014  0.6350  0.2718
 8960TIP3    H148371   6.091   3.148   1.354  1.3055 -0.4780  0.8599
 8960TIP3    H248372   6.041   3.191   1.490  0.5814  0.5808  0.2755
 8961TIP3   OH248373   4.340   5.514   3.941 -0.0249  0.3018 -0.2425
 8961TIP3    H148374   4.337   5.436   3.996  0.9365  0.3559 -0.0887
 8961TIP3    H248375   4.269   5.502   3.878  0.3825 -0.9080 -0.4996
 8962TIP3   OH248376   2.530   5.520   2.652  0.1812  0.2149  0.7253
 8962TIP3    H148377   2.436   5.507   2.645  0.0557  0.7666  1.3415
 8962TIP3    H248378   2.540   5.608   2.689  0.9751  0.8827 -0.9700
 8963TIP3   OH248379   5.615   2.991   1.799 -0.3835  0.3830  0.1507
 8963TIP3    H148380   5.576   2.999   1.886  0.9007 -0.6033  0.8568
 8963TIP3    H248381   5.550   3.030   1.740 -0.7710  2.1559  1.6522
 8964TIP3   OH248382   6.095   4.342  13.628 -0.5709 -0.3594 -0.5346
 8964TIP3    H148383   6.126   4.416  13.577 -1.4981 -0.6463 -1.5613
 8964TIP3    H248384   6.132   4.265  13.585  0.0214 -0.5342  0.2539
 8965TIP3   OH248385   6.611   2.149  15.143  0.1035 -0.3016  0.3635
 8965TIP3    H148386   6.587   2.222  15.085  2.2120  0.1088 -0.0824
 8965TIP3    H248387   6.528   2.120  15.180 -0.9255  1.6400 -0.2539
 8966TIP3   OH248388   0.593   3.702  10.506  0.0161  0.1317 -0.2115
 8966TIP3    H148389   0.521   3.644  10.482  1.7249 -3.5484  2.6068
 8966TIP3    H248390   0.570   3.734  10.593  1.2213 -0.1529  0.2220
 8967TIP3   OH248391   2.955   0.924   2.721 -0.3505  0.8743  0.6739
 8967TIP3    H148392   2.966   0.937   2.627  0.9145  2.1379  0.9764
 8967TIP3    H248393   2.953   1.012   2.758 -1.0570  0.4045  1.8226
 8968TIP3   OH248394   5.969   0.732  12.440  0.2108  0.2846 -0.0253
 8968TIP3    H148395   6.017   0.792  12.496  4.2299 -2.1489 -0.4291
 8968TIP3    H248396   5.978   0.647  12.483  1.5737 -1.2991 -3.1331
 8969TIP3   OH248397   4.910   6.050  10.378  0.1060 -0.0991 -0.2840
 8969TIP3    H148398   5.001   6.064  10.401  0.6160 -0.9461 -1.6387
 8969TIP3    H248399   4.912   5.982  10.310 -1.4961  0.1233 -0.6188
 8970TIP3   OH248400   4.848   0.039   9.886  0.0757 -0.4236  0.0718
 8970TIP3    H148401   4.769   0.017   9.837  0.5115 -2.4193  0.1607
 8970TIP3    H248402   4.829   0.012   9.976  0.9009 -1.0941  0.0566
 8971TIP3   OH248403   6.959   2.051  11.582  0.0031  0.5611  0.2917
 8971TIP3    H148404   6.986   2.135  11.546  1.3531  1.2048  2.6075
 8971TIP3    H248405   7.007   2.043  11.665 -1.8908 -1.4074  1.3142
 8972TIP3   OH248406   1.804   4.792   3.236  0.0966 -0.0122  0.0594
 8972TIP3    H148407   1.820   4.759   3.148 -0.0014  0.2051 -0.0405
 8972TIP3    H248408   1.785   4.713   3.288 -0.4007 -0.0959 -0.2371
 8973TIP3   OH248409   0.659   5.972  13.337  0.2001  0.1883  0.2368
 8973TIP3    H148410   0.682   5.894  13.286  0.4385 -1.2882  2.4465
 8973TIP3    H248411   0.722   6.038  13.309  0.6818 -0.7225 -0.9521
 8974TIP3   OH248412   0.894   3.750   4.986 -0.6139  0.2678  0.8189
 8974TIP3    H148413   0.855   3.714   4.907 -0.9148  1.2965  0.4772
 8974TIP3    H248414   0.967   3.692   5.007 -0.5998 -0.0715 -0.1555
 8975TIP3   OH248415   0.270   3.014  13.295 -0.3046  0.5460 -0.5471
 8975TIP3    H148416   0.264   2.980  13.384  2.6469 -0.6197 -0.6711
 8975TIP3    H248417   0.350   3.066  13.295 -0.0064  0.1819 -2.6052
 8976TIP3   OH248418   4.399   1.417  11.321  0.4823 -0.3737 -0.4663
 8976TIP3    H148419   4.485   1.376  11.319  1.1327  0.9143  0.0514
 8976TIP3    H248420   4.358   1.383  11.401  0.7566 -0.5058 -0.3810
 8977TIP3   OH248421   0.989   3.480   9.854 -0.0989 -0.1618  0.0592
 8977TIP3    H148422   1.014   3.464   9.945  0.0422  1.3846  0.3223
 8977TIP3    H248423   1.046   3.422   9.803  1.9946  1.1134  0.8120
 8978TIP3   OH248424   6.142   4.314  10.397  0.3604 -0.2110 -0.5449
 8978TIP3    H148425   6.173   4.282  10.482  0.2423 -0.5693 -0.6328
 8978TIP3    H248426   6.217   4.303  10.339  0.9774  1.5773 -0.1240
 8979TIP3   OH248427   2.042   0.227  10.450 -0.2174  0.2711  0.6135
 8979TIP3    H148428   2.081   0.160  10.394 -1.1708 -1.5677  2.0408
 8979TIP3    H248429   1.956   0.244  10.410  0.6733  1.9717 -0.7108
 8980TIP3   OH248430   0.619   3.070  13.967  0.3496  0.3595 -0.1387
 8980TIP3    H148431   0.692   3.053  14.027  1.0113 -0.1798 -1.0814
 8980TIP3    H248432   0.622   3.165  13.952  0.7949  0.3505 -0.1049
 8981TIP3   OH248433   6.796   2.317  15.280  0.7474  0.1620 -0.7085
 8981TIP3    H148434   6.879   2.296  15.237  0.7096  0.2805 -0.8419
 8981TIP3    H248435   6.732   2.259  15.238  0.3356  1.6411 -2.2387
 8982TIP3   OH248436   4.274   0.340  10.303 -0.2436  0.2747 -0.1883
 8982TIP3    H148437   4.318   0.271  10.353 -0.3232  0.5308  0.2452
 8982TIP3    H248438   4.190   0.303  10.278  0.1566 -0.1658 -0.8886
 8983TIP3   OH248439   5.658   6.503   1.511  0.0827 -0.1618 -0.4011
 8983TIP3    H148440   5.605   6.443   1.563 -3.1515 -0.0184 -3.1865
 8983TIP3    H248441   5.722   6.447   1.467 -0.9830 -1.1486 -0.7352
 8984TIP3   OH248442   7.202   6.477  10.676  0.4252  0.6890 -0.3721
 8984TIP3    H148443   7.164   6.546  10.730  0.4839  2.0728 -2.0007
 8984TIP3    H248444   7.139   6.405  10.681 -0.0454  1.1519  0.7029
 8985TIP3   OH248445   6.436   5.495  10.023  0.2763  0.2364  0.0947
 8985TIP3    H148446   6.517   5.445  10.014 -0.1305 -0.2860 -0.8890
 8985TIP3    H248447   6.425   5.538   9.938 -0.0679  0.9568  0.4880
 8986TIP3   OH248448   0.423   6.673   2.923 -0.8144 -0.7499 -0.0844
 8986TIP3    H148449   0.417   6.769   2.918  0.1184 -0.6973 -0.2444
 8986TIP3    H248450   0.421   6.655   3.017 -0.3979 -0.5352 -0.0339
 8987TIP3   OH248451   2.871   6.409   0.071  0.0355  0.3446  0.2257
 8987TIP3    H148452   2.828   6.451   0.145 -0.1862  0.6482 -0.0702
 8987TIP3    H248453   2.860   6.471  -0.002  0.5980  0.2333  0.0376
 8988TIP3   OH248454   0.835   3.718  12.089 -0.0641  0.0172 -0.1516
 8988TIP3    H148455   0.854   3.771  12.011 -0.4231  1.0641  0.4473
 8988TIP3    H248456   0.820   3.630  12.055 -0.5367  0.5137 -1.3058
 8989TIP3   OH248457   5.060   3.357  10.480 -0.0709 -0.2659 -0.0128
 8989TIP3    H148458   5.049   3.262  10.488  0.4420 -0.2400  1.1641
 8989TIP3    H248459   5.134   3.367  10.421 -0.9279 -0.5634 -1.1725
 8990TIP3   OH248460   1.624   5.447  15.017 -0.1964  0.3454  0.7364
 8990TIP3    H148461   1.547   5.497  15.047 -0.4743 -0.0771  0.7351
 8990TIP3    H248462   1.694   5.512  15.014 -0.8619  1.0401 -0.5717
 8991TIP3   OH248463   4.857   2.500  11.567  0.4650 -0.8470  0.1361
 8991TIP3    H148464   4.868   2.406  11.579  1.3298 -0.8766 -0.8003
 8991TIP3    H248465   4.773   2.520  11.609  0.3425 -2.0033  0.4673
 8992TIP3   OH248466   6.034   4.586  15.298 -0.0619 -0.3685  0.0556
 8992TIP3    H148467   6.018   4.643  15.223  0.8686  0.3017  0.3470
 8992TIP3    H248468   6.120   4.613  15.331 -0.8412  0.0146  1.9399
 8993TIP3   OH248469   3.213   4.417   9.943 -0.4900 -0.1806 -0.1844
 8993TIP3    H148470   3.136   4.473   9.934  0.3568  1.6496  2.5668
 8993TIP3    H248471   3.275   4.451   9.878 -1.0232  0.1696 -0.5169
 8994TIP3   OH248472   7.215   2.065  14.252  0.0460  0.4639  0.1406
 8994TIP3    H148473   7.262   2.147  14.268  1.0333  0.1432 -0.9446
 8994TIP3    H248474   7.270   2.018  14.189 -1.0880 -0.5225 -0.1505
 8995TIP3   OH248475   4.810   0.518   3.628 -0.1931 -0.3455  0.0746
 8995TIP3    H148476   4.778   0.498   3.716 -0.1706 -0.9583 -0.0496
 8995TIP3    H248477   4.792   0.611   3.616 -3.1977 -0.8620 -0.4763
 8996TIP3   OH248478   5.891   5.701  15.034 -0.2326  0.3074  0.1871
 8996TIP3    H148479   5.964   5.763  15.033  0.2365 -0.2192  1.2120
 8996TIP3    H248480   5.932   5.615  15.045 -1.0347  0.0677  1.4401
 8997TIP3   OH248481   5.498   7.212   2.255  0.3473 -0.2138  0.3236
 8997TIP3    H148482   5.490   7.305   2.235  1.4716 -0.0246  0.6525
 8997TIP3    H248483   5.416   7.173   2.225 -0.2549  0.9223  0.4358
 8998TIP3   OH248484   6.927   0.416  12.656  0.0418  0.9847 -0.0057
 8998TIP3    H148485   6.889   0.482  12.598 -1.9785  0.9223  1.1573
 8998TIP3    H248486   6.957   0.347  12.597 -1.9707  0.9115 -1.0568
 8999TIP3   OH248487   2.252   3.186  13.479 -0.3032 -0.4386 -0.6882
 8999TIP3    H148488   2.167   3.173  13.437 -0.2336  0.9985 -1.3354
 8999TIP3    H248489   2.295   3.100  13.475 -1.1437 -0.8283 -1.6550
 9000TIP3   OH248490   4.478   2.275  12.421 -0.2326  0.7954  0.2003
 9000TIP3    H148491   4.453   2.195  12.376 -2.0291  2.0336 -1.1751
 9000TIP3    H248492   4.506   2.246  12.508 -1.5330 -1.2630  0.0091
 9001TIP3   OH248493   0.846   0.002   2.170  0.0357 -0.2360 -0.6618
 9001TIP3    H148494   0.771   0.054   2.141  0.5096  0.8397 -0.0105
 9001TIP3    H248495   0.844  -0.076   2.115 -0.4783  0.6346 -1.9157
 9002TIP3   OH248496   6.374   5.499   0.029 -0.0554 -1.0889  0.6814
 9002TIP3    H148497   6.289   5.539   0.011  0.4145 -0.6916 -0.8559
 9002TIP3    H248498   6.409   5.547   0.104  0.3802  1.3150 -0.9519
 9003TIP3   OH248499   3.472   2.154   3.513  0.3088 -0.5917  0.2678
 9003TIP3    H148500   3.454   2.114   3.429  1.0430 -2.6655  1.0226
 9003TIP3    H248501   3.504   2.082   3.568 -0.5486  0.5787  2.4589
 9004TIP3   OH248502   6.538   5.878   1.508  0.9972  0.2212 -0.0688
 9004TIP3    H148503   6.506   5.924   1.431  0.7182 -1.9406 -1.3361
 9004TIP3    H248504   6.476   5.900   1.578 -0.5597 -0.2144 -1.2732
 9005TIP3   OH248505   1.734   1.387  14.374 -0.1921 -0.3707  0.5681
 9005TIP3    H148506   1.801   1.455  14.372 -0.7152  0.1649  0.8106
 9005TIP3    H248507   1.653   1.434  14.394 -0.6423 -1.0039  0.2762
 9006TIP3   OH248508   0.079   0.357  14.089  0.3156  0.6879 -0.1697
 9006TIP3    H148509   0.015   0.312  14.144 -1.4281 -1.1925 -3.3618
 9006TIP3    H248510   0.057   0.450  14.098 -1.8736  0.2154  0.0997
 9007TIP3   OH248511   5.564   3.428   0.681  0.0616 -0.1424 -0.4661
 9007TIP3    H148512   5.641   3.380   0.711  0.8548  1.7447  0.7489
 9007TIP3    H248513   5.548   3.395   0.593  0.1508 -2.9975  0.4730
 9008TIP3   OH248514   5.361   2.684  11.651 -0.3658  0.4703  0.0421
 9008TIP3    H148515   5.280   2.733  11.638 -1.2142 -0.4585  1.5480
 9008TIP3    H248516   5.341   2.596  11.619 -0.1710  0.0726  0.9783
 9009TIP3   OH248517   4.439   0.278  12.575  0.0385  0.2981 -0.2395
 9009TIP3    H148518   4.426   0.238  12.660 -1.8147  0.3227 -0.4743
 9009TIP3    H248519   4.531   0.306  12.575  0.2208 -0.2187  1.5047
 9010TIP3   OH248520   5.803   0.230  15.058 -0.9965 -0.1760 -0.1110
 9010TIP3    H148521   5.738   0.278  15.007 -1.7699 -2.5353 -1.4726
 9010TIP3    H248522   5.762   0.219  15.144 -1.2333  0.7076 -0.1041
 9011TIP3   OH248523   0.125   1.934  10.215  0.0208 -0.4330 -0.4446
 9011TIP3    H148524   0.069   1.991  10.268 -0.1781  0.2104 -1.3261
 9011TIP3    H248525   0.067   1.867  10.180 -0.4196  0.7304 -2.0656
 9012TIP3   OH248526   3.992   3.203   3.599 -0.8128 -0.3692 -0.3088
 9012TIP3    H148527   4.044   3.277   3.631 -1.5186  0.2817 -0.6270
 9012TIP3    H248528   3.902   3.224   3.626 -1.0325 -1.0497 -0.5106
 9013TIP3   OH248529   1.738   2.604   3.194 -0.3914  0.4640  0.2685
 9013TIP3    H148530   1.738   2.537   3.126 -1.3483 -0.5391  1.2119
 9013TIP3    H248531   1.675   2.669   3.164 -2.3519 -0.9784  1.0839
 9014TIP3   OH248532   6.876   1.081   0.372 -0.4531  0.0095  0.0482
 9014TIP3    H148533   6.968   1.071   0.348 -0.8166 -3.0958 -0.4966
 9014TIP3    H248534   6.832   1.107   0.291 -0.1046  1.6611  0.3472
 9015TIP3   OH248535   2.465   6.691   3.946 -0.3017 -0.0933  0.7784
 9015TIP3    H148536   2.436   6.608   3.911  0.5439 -0.6964  1.4503
 9015TIP3    H248537   2.553   6.673   3.981 -1.0832  0.4186  3.2450
 9016TIP3   OH248538   4.961   6.233  13.062 -0.2580  0.6540 -0.2553
 9016TIP3    H148539   5.051   6.236  13.030 -0.1409 -0.5277 -0.0672
 9016TIP3    H248540   4.967   6.191  13.148 -0.9262  1.0653 -0.0001
 9017TIP3   OH248541   7.212   2.949  10.032 -0.6185  0.5618  0.4073
 9017TIP3    H148542   7.190   2.857  10.051 -0.7025  0.5036  0.0553
 9017TIP3    H248543   7.304   2.957  10.055 -0.5836  0.3594  0.3416
 9018TIP3   OH248544   3.349   5.366   0.182  0.0389 -0.2609 -0.0411
 9018TIP3    H148545   3.365   5.278   0.217 -2.1992 -1.0474 -0.7645
 9018TIP3    H248546   3.396   5.367   0.099 -0.1925 -0.9232 -0.1915
 9019TIP3   OH248547   5.026   3.571   9.581  0.5480  0.1025  0.0090
 9019TIP3    H148548   5.106   3.622   9.574  0.9170 -0.4805 -0.0806
 9019TIP3    H248549   5.051   3.484   9.551 -0.2710  0.0756 -0.6338
 9020TIP3   OH248550   4.523   2.086   3.707 -0.2039  0.2241  0.1649
 9020TIP3    H148551   4.446   2.118   3.659 -1.4240 -1.6127  0.7846
 9020TIP3    H248552   4.579   2.048   3.639 -0.8883 -0.3876 -0.0772
 9021TIP3   OH248553   1.777   5.644  13.691  0.2902  0.0191  0.6208
 9021TIP3    H148554   1.734   5.567  13.729 -3.1337  1.0534 -0.7854
 9021TIP3    H248555   1.854   5.608  13.645  0.0080 -2.2302  1.7729
 9022TIP3   OH248556   4.143   0.289   9.797 -0.0603  0.4327  0.0216
 9022TIP3    H148557   4.222   0.257   9.841  0.2183  1.9089  0.6314
 9022TIP3    H248558   4.168   0.291   9.704  0.6990  1.0867  0.2287
 9023TIP3   OH248559   1.039   2.549  13.012 -0.2115 -0.7245  0.3720
 9023TIP3    H148560   1.096   2.544  13.089 -0.2859 -1.9569  0.3621
 9023TIP3    H248561   1.057   2.469  12.963 -0.5477 -0.2047 -0.6381
 9024TIP3   OH248562   0.175   2.683   9.862 -0.0689  0.0091  0.0258
 9024TIP3    H148563   0.169   2.663   9.768 -1.4359  0.0264  0.0901
 9024TIP3    H248564   0.146   2.602   9.905 -0.2193  0.2661  0.4100
 9025TIP3   OH248565   3.516   6.216  10.571  0.2675  0.3204 -0.3188
 9025TIP3    H148566   3.458   6.158  10.521 -1.2192  2.3308 -1.1020
 9025TIP3    H248567   3.458   6.257  10.636  1.1594  1.1896 -0.0492
 9026TIP3   OH248568   5.088   3.230   2.000 -0.0157 -0.0425  0.9994
 9026TIP3    H148569   5.137   3.235   2.082 -1.8104 -0.0827  2.1264
 9026TIP3    H248570   5.109   3.144   1.964 -0.8290 -0.9287  2.5286
 9027TIP3   OH248571   0.517   6.978  11.671  0.3526 -0.5697  0.1323
 9027TIP3    H148572   0.483   6.889  11.674 -0.1779 -0.3434  1.0164
 9027TIP3    H248573   0.512   7.009  11.761  1.4510  0.0180  0.0103
 9028TIP3   OH248574   0.753   3.744   4.082 -0.0439 -0.1081 -0.6875
 9028TIP3    H148575   0.737   3.737   4.176  0.8441  0.1673 -0.5048
 9028TIP3    H248576   0.723   3.661   4.046 -1.8976  0.3950 -0.4026
 9029TIP3   OH248577   1.109   2.597   1.457  0.4372  0.3105 -0.1816
 9029TIP3    H148578   1.200   2.571   1.468  0.0527 -0.9758  0.2047
 9029TIP3    H248579   1.080   2.624   1.545  0.7909  2.0279 -0.5505
 9030TIP3   OH248580   1.022   3.413  12.711  0.7981  0.1548  0.0497
 9030TIP3    H148581   1.074   3.462  12.774 -0.0185 -1.4512  2.1056
 9030TIP3    H248582   0.934   3.448  12.719  0.9263  0.7792 -1.1435
 9031TIP3   OH248583   5.886   5.258  13.340 -0.1199 -0.4710 -0.4760
 9031TIP3    H148584   5.974   5.234  13.368  0.3155  0.1472 -1.2696
 9031TIP3    H248585   5.834   5.256  13.420  0.7919 -0.0623  0.1468
 9032TIP3   OH248586   6.665   6.197   2.771 -0.3583  0.0253 -0.6171
 9032TIP3    H148587   6.605   6.246   2.716 -1.3495 -0.0271  0.3804
 9032TIP3    H248588   6.699   6.262   2.833 -0.3820 -0.2093 -0.3584
 9033TIP3   OH248589   5.844   4.621  12.901  0.1690 -0.7392  0.0629
 9033TIP3    H148590   5.765   4.593  12.855 -0.8724  0.4420  1.0712
 9033TIP3    H248591   5.889   4.679  12.839 -1.1243  0.6850  0.3964
 9034TIP3   OH248592   1.310   1.722   3.815 -1.0461 -0.2468 -0.3258
 9034TIP3    H148593   1.379   1.784   3.790 -0.1192 -0.9651  0.3575
 9034TIP3    H248594   1.291   1.674   3.735 -0.9487  0.1512 -0.5899
 9035TIP3   OH248595   4.888   3.650   9.932  0.0598 -0.0216  0.1474
 9035TIP3    H148596   4.816   3.666   9.871  0.1859 -0.3602 -0.0945
 9035TIP3    H248597   4.937   3.578   9.893  0.2767 -0.0871  0.5334
 9036TIP3   OH248598   5.490   2.239   0.559 -0.2631  1.0871  0.3140
 9036TIP3    H148599   5.432   2.193   0.498 -1.7172  2.9992  0.1834
 9036TIP3    H248600   5.464   2.207   0.645  0.3793 -0.0671  0.1037
 9037TIP3   OH248601   4.517   4.048  10.558  0.7637 -0.2295 -0.2960
 9037TIP3    H148602   4.520   4.135  10.518 -1.6482 -0.2289 -0.6481
 9037TIP3    H248603   4.524   3.987  10.485  1.4389 -0.3230 -0.1572
 9038TIP3   OH248604   0.515   0.935   3.134  0.0811  0.1607 -0.8616
 9038TIP3    H148605   0.501   0.974   3.048  1.9182  0.8642 -0.8651
 9038TIP3    H248606   0.556   1.003   3.186 -0.2502 -0.5211  0.3487
 9039TIP3   OH248607   5.116   1.959  10.367 -0.4282 -0.2476 -0.0626
 9039TIP3    H148608   5.075   1.940  10.283 -0.6109 -4.1712  0.7205
 9039TIP3    H248609   5.044   1.951  10.430  0.3868 -1.1900  0.7752
 9040TIP3   OH248610   1.498   3.330   2.270 -0.0341  0.3743 -0.3634
 9040TIP3    H148611   1.500   3.271   2.345 -0.0164  0.7253 -0.0854
 9040TIP3    H248612   1.460   3.411   2.304  2.3300  1.4370 -0.0851
 9041TIP3   OH248613   1.836   3.955  11.960 -0.4331 -0.3842  0.3673
 9041TIP3    H148614   1.799   3.881  11.911 -0.8623  0.8814 -1.3197
 9041TIP3    H248615   1.926   3.961  11.929 -1.0798  1.2571 -1.4313
 9042TIP3   OH248616   0.569   1.452  12.361 -0.7291  0.5302  0.3773
 9042TIP3    H148617   0.649   1.405  12.338 -0.4267 -0.1760  2.5645
 9042TIP3    H248618   0.600   1.538  12.389 -0.8010  0.5378  0.4333
 9043TIP3   OH248619   2.936   5.701  10.972 -0.1037  0.2673 -0.2132
 9043TIP3    H148620   2.902   5.758  10.903 -0.9442  1.7987  1.3776
 9043TIP3    H248621   2.953   5.760  11.045 -0.8210 -1.5106  1.4648
 9044TIP3   OH248622   3.875   5.774   1.908  0.7191  0.0140  0.1492
 9044TIP3    H148623   3.810   5.707   1.927  1.0345  0.0447  1.3897
 9044TIP3    H248624   3.884   5.824   1.989  0.8147  1.2980 -0.6163
 9045TIP3   OH248625   5.275   1.355   1.695 -0.2033 -1.0193  0.1900
 9045TIP3    H148626   5.186   1.367   1.728 -0.2406  1.3682 -0.5882
 9045TIP3    H248627   5.331   1.384   1.767 -0.1617 -0.2450 -0.1366
 9046TIP3   OH248628   0.449   1.039  14.624  0.6055 -0.0267 -0.4966
 9046TIP3    H148629   0.475   1.123  14.662 -0.4304  0.8012 -1.5531
 9046TIP3    H248630   0.496   0.974  14.675  0.2226  1.1012  1.3661
 9047TIP3   OH248631   5.807   1.714  10.265  0.4061  0.5458  0.0611
 9047TIP3    H148632   5.780   1.623  10.258  1.5465  0.2609 -0.9673
 9047TIP3    H248633   5.888   1.712  10.314  1.4389  0.7596 -1.5453
 9048TIP3   OH248634   3.295   5.613  11.586  0.4733  0.0279  0.1170
 9048TIP3    H148635   3.271   5.612  11.679 -1.5408 -1.3645 -0.3645
 9048TIP3    H248636   3.272   5.526  11.554  1.2459  0.4377 -1.6819
 9049TIP3   OH248637   5.342   4.375  11.735 -0.4855  0.0434  0.1654
 9049TIP3    H148638   5.293   4.306  11.691 -1.7140  1.0780 -0.1784
 9049TIP3    H248639   5.289   4.454  11.720  0.1415  0.7989  1.7400
 9050TIP3   OH248640   5.821   3.134   2.563 -0.3364 -0.0662  0.1924
 9050TIP3    H148641   5.902   3.183   2.555 -0.1350 -0.2577  0.9733
 9050TIP3    H248642   5.832   3.081   2.642 -1.9747  1.3725  1.4805
 9051TIP3   OH248643   7.066   2.722  12.491  0.2875 -0.3442 -0.0963
 9051TIP3    H148644   7.053   2.718  12.586 -0.9083 -4.0199 -0.2482
 9051TIP3    H248645   7.073   2.630  12.464  2.0397  0.6186 -3.4292
 9052TIP3   OH248646   3.451   0.906  10.398 -0.9490  0.1295  0.1257
 9052TIP3    H148647   3.468   0.993  10.435 -0.8638 -0.0266  0.4643
 9052TIP3    H248648   3.534   0.880  10.359 -0.7088 -0.1814  0.8313
 9053TIP3   OH248649   6.194   5.593  11.218 -0.2857  0.3483  0.9028
 9053TIP3    H148650   6.124   5.655  11.198  0.8402  1.3456 -0.1016
 9053TIP3    H248651   6.261   5.609  11.151  0.3009 -1.5624  0.9641
 9054TIP3   OH248652   6.256   5.724   2.156 -0.3137 -0.0294  0.5216
 9054TIP3    H148653   6.309   5.723   2.235  2.3812  1.7167 -1.1203
 9054TIP3    H248654   6.207   5.806   2.160  0.2316  0.3191  0.1551
 9055TIP3   OH248655   2.320   0.251   5.267  0.2121 -0.1890  0.7001
 9055TIP3    H148656   2.383   0.179   5.258 -0.4229 -0.6888  0.1527
 9055TIP3    H248657   2.255   0.219   5.329  0.7465  0.5252  1.6665
 9056TIP3   OH248658   3.562   6.282  14.089  0.4502  0.8501  0.2803
 9056TIP3    H148659   3.575   6.373  14.064 -0.2725  0.8493 -0.1419
 9056TIP3    H248660   3.486   6.254  14.038 -0.0158  0.3336  1.2238
 9057TIP3   OH248661   2.473   0.839  12.572  0.7690 -0.1848 -0.0115
 9057TIP3    H148662   2.492   0.927  12.540  2.4280  0.0977  1.6231
 9057TIP3    H248663   2.445   0.851  12.663 -2.0012 -1.1210 -0.6405
 9058TIP3   OH248664   0.605   4.670  11.718  0.4340 -0.5953  0.3511
 9058TIP3    H148665   0.552   4.707  11.648 -0.0400  0.0899  1.0546
 9058TIP3    H248666   0.690   4.651  11.677 -0.4417 -2.0707 -0.8840
 9059TIP3   OH248667   1.265   4.262  11.424 -0.3543 -0.1874  0.3267
 9059TIP3    H148668   1.303   4.271  11.337 -1.2654 -1.5451 -0.2305
 9059TIP3    H248669   1.221   4.346  11.439  1.1433  0.6693  0.1802
 9060TIP3   OH248670   4.430   4.812  13.080  0.0778 -0.4854 -0.4689
 9060TIP3    H148671   4.348   4.855  13.103  0.9042  0.2184  1.3199
 9060TIP3    H248672   4.407   4.719  13.072 -1.1330 -0.1254 -1.3537
 9061TIP3   OH248673   5.528   6.536   1.103  0.3700  0.0826 -0.4179
 9061TIP3    H148674   5.545   6.605   1.167  1.1991 -0.7843  0.3299
 9061TIP3    H248675   5.449   6.491   1.136 -0.3160  0.8033 -1.0373
 9062TIP3   OH248676   5.895   3.919  14.993 -0.8142  0.4386 -0.0016
 9062TIP3    H148677   5.827   3.890  14.931 -2.1157  2.5060  0.3701
 9062TIP3    H248678   5.878   3.867  15.072 -2.1234  1.0390  0.1484
 9063TIP3   OH248679   6.182   3.809  10.274 -0.2292 -0.2165  0.3274
 9063TIP3    H148680   6.194   3.733  10.331  1.2267  1.2851  2.1762
 9063TIP3    H248681   6.165   3.881  10.334 -1.8174  0.9244 -1.3837
 9064TIP3   OH248682   0.698   3.984  12.413  0.4579 -0.0367 -0.5737
 9064TIP3    H148683   0.606   3.993  12.438 -0.1320 -1.7255 -1.9254
 9064TIP3    H248684   0.700   3.907  12.355  2.5186  0.6970 -1.5870
 9065TIP3   OH248685   3.418   4.285   2.192 -0.0399  0.1238  0.0988
 9065TIP3    H148686   3.445   4.210   2.140 -1.4832  1.2688 -2.4681
 9065TIP3    H248687   3.499   4.330   2.214  0.6283 -0.5374 -0.9625
 9066TIP3   OH248688   0.940   4.426  11.686 -0.2973  0.0668 -0.0140
 9066TIP3    H148689   0.914   4.517  11.673 -3.1248 -0.5702  0.5537
 9066TIP3    H248690   0.990   4.427  11.768 -0.4505  1.0720  0.0835
 9067TIP3   OH248691   6.118   3.892  10.965 -0.3194 -0.3841 -0.3713
 9067TIP3    H148692   6.057   3.835  10.918 -0.8071 -0.6819  0.6031
 9067TIP3    H248693   6.162   3.835  11.028  0.9669 -0.1666 -1.0380
 9068TIP3   OH248694   1.957   3.838  14.523 -0.1068 -0.2272 -0.3431
 9068TIP3    H148695   1.945   3.756  14.572  0.3880  0.2004  0.5055
 9068TIP3    H248696   1.934   3.815  14.433 -0.9086 -1.0619  0.0552
 9069TIP3   OH248697   0.731   6.745   9.986 -0.0658 -0.0917 -0.5736
 9069TIP3    H148698   0.707   6.653   9.972  0.3820 -0.0712 -1.5275
 9069TIP3    H248699   0.701   6.790   9.907 -0.7443  0.6833  0.1068
 9070TIP3   OH248700   6.805   1.690   2.375  0.2355  0.8906  0.1511
 9070TIP3    H148701   6.734   1.745   2.409  1.5780  0.5685  4.0043
 9070TIP3    H248702   6.764   1.605   2.361 -0.3966  0.9755  1.3487
 9071TIP3   OH248703   4.322   3.798  12.242  0.0191 -0.3337  0.4444
 9071TIP3    H148704   4.271   3.863  12.193  0.8214  0.5338  0.7208
 9071TIP3    H248705   4.268   3.719  12.240 -1.7001  0.7340  1.3332
 9072TIP3   OH248706   5.039   5.482  10.450  0.6339 -0.6360 -0.3314
 9072TIP3    H148707   5.071   5.565  10.414  1.1317 -0.6173  0.1432
 9072TIP3    H248708   5.097   5.463  10.524  1.1173 -1.8692 -0.9825
 9073TIP3   OH248709   5.590   6.665  12.880 -0.0580  0.4987  0.1263
 9073TIP3    H148710   5.677   6.704  12.892  0.3720 -0.2528 -0.5125
 9073TIP3    H248711   5.604   6.594  12.818 -0.7696 -0.8819  1.4809
 9074TIP3   OH248712   5.654   3.055  11.461 -0.0535 -0.1374 -0.0725
 9074TIP3    H148713   5.691   2.967  11.455  0.5120  0.1297 -0.6049
 9074TIP3    H248714   5.624   3.062  11.551  0.3274 -0.7097  0.1053
 9075TIP3   OH248715   6.420   3.731  10.900  0.1270  0.4645  0.2911
 9075TIP3    H148716   6.510   3.700  10.913 -0.5773 -2.2599 -0.7905
 9075TIP3    H248717   6.392   3.759  10.988  1.4026 -0.4644  1.0302
 9076TIP3   OH248718   1.615   0.877  14.634  0.3942  0.1636  0.9276
 9076TIP3    H148719   1.671   0.862  14.710  2.9365 -0.6811 -0.9816
 9076TIP3    H248720   1.672   0.866  14.559 -1.5945  2.5697 -1.1599
 9077TIP3   OH248721   0.298   1.971   0.095  0.3207 -0.4253 -0.1157
 9077TIP3    H148722   0.248   2.052   0.098  0.9980  0.0547 -1.3902
 9077TIP3    H248723   0.335   1.968   0.007  1.6277 -1.3076  0.4281
 9078TIP3   OH248724   6.541   3.806  11.955 -0.4475  0.4923  0.3625
 9078TIP3    H148725   6.476   3.862  11.914 -0.1137  0.1977 -0.6054
 9078TIP3    H248726   6.531   3.822  12.049 -1.6264  0.7513  0.2106
 9079TIP3   OH248727   3.079   4.011   2.388 -0.1789 -0.1923  0.1893
 9079TIP3    H148728   3.122   4.063   2.456 -0.0022 -0.1629  0.0542
 9079TIP3    H248729   3.139   3.939   2.370  0.3232  0.4472 -0.7741
 9080TIP3   OH248730   6.246   0.645   9.711  0.8195  0.0472 -0.1244
 9080TIP3    H148731   6.152   0.649   9.729  0.8459  1.0105 -0.1462
 9080TIP3    H248732   6.252   0.626   9.617  0.6403  0.6679 -0.2636
 9081TIP3   OH248733   5.103   1.672  15.256 -0.1807 -0.6260 -0.1662
 9081TIP3    H148734   5.070   1.732  15.323  2.3072 -0.8827  1.4071
 9081TIP3    H248735   5.039   1.600  15.255 -0.6723 -0.2388  1.3685
 9082TIP3   OH248736   3.709   2.731   2.868  0.1811 -0.5375  0.0680
 9082TIP3    H148737   3.698   2.670   2.940 -1.1744 -0.9462 -0.4489
 9082TIP3    H248738   3.634   2.713   2.810 -0.2967  1.6479 -0.0682
 9083TIP3   OH248739   4.324   4.701   1.355 -0.1049 -0.3258  0.2570
 9083TIP3    H148740   4.403   4.699   1.409 -0.0722 -1.6525  0.1932
 9083TIP3    H248741   4.327   4.620   1.304 -1.9211 -0.8488  0.8711
 9084TIP3   OH248742   1.895   3.070   4.642 -0.1137 -0.0560  0.2261
 9084TIP3    H148743   1.933   3.085   4.556 -0.5614  0.2718  0.0796
 9084TIP3    H248744   1.800   3.074   4.628 -0.1912  0.0604  0.7408
 9085TIP3   OH248745   4.946   1.464  10.214  0.0989  0.1975  0.0658
 9085TIP3    H148746   5.024   1.436  10.261  0.6543  0.8411 -0.4538
 9085TIP3    H248747   4.915   1.384  10.170  2.8024  0.6513 -3.0302
 9086TIP3   OH248748   6.164   3.107   2.498 -0.7303 -0.4761 -0.4432
 9086TIP3    H148749   6.118   3.053   2.434  0.2270  0.4338 -1.9478
 9086TIP3    H248750   6.242   3.138   2.452  0.6740 -0.8122  1.5760
 9087TIP3   OH248751   6.403   0.155   0.269  0.2307  0.1765 -0.1574
 9087TIP3    H148752   6.379   0.156   0.177  0.5029 -1.5250 -0.2752
 9087TIP3    H248753   6.489   0.196   0.272  0.9395 -1.2061 -0.9071
 9088TIP3   OH248754   1.209   5.235   4.319  0.1946 -0.0753 -0.9153
 9088TIP3    H148755   1.158   5.276   4.389  0.5992 -0.1194 -0.5853
 9088TIP3    H248756   1.145   5.214   4.251 -1.2267 -4.5363  1.3769
 9089TIP3   OH248757   2.582   7.245  11.027  0.4585  0.1979  0.0285
 9089TIP3    H148758   2.543   7.303  10.961 -2.9264  0.9129  2.3903
 9089TIP3    H248759   2.625   7.304  11.089 -1.2885  0.1396  1.3778
 9090TIP3   OH248760   3.451   5.263   1.287 -0.0137 -0.8196 -0.0142
 9090TIP3    H148761   3.485   5.335   1.233  0.8166 -0.9009  0.3877
 9090TIP3    H248762   3.390   5.218   1.229  0.8708 -0.9142 -0.9116
 9091TIP3   OH248763   2.383   3.285   3.796  0.0085 -0.4469 -0.0765
 9091TIP3    H148764   2.300   3.243   3.816 -1.3980  1.3947 -1.6451
 9091TIP3    H248765   2.377   3.306   3.703  1.7670  0.7437  0.0290
 9092TIP3   OH248766   2.106   4.287   2.009  0.2039  0.0975 -0.0622
 9092TIP3    H148767   2.018   4.297   2.044  1.3968  0.6293  3.1187
 9092TIP3    H248768   2.110   4.196   1.980 -0.5125 -0.9501  2.7808
 9093TIP3   OH248769   2.992   5.687  13.069  0.2569 -0.4569 -0.1949
 9093TIP3    H148770   3.068   5.681  13.127 -0.9966 -0.3290  1.5472
 9093TIP3    H248771   3.023   5.651  12.986  1.9954 -1.1408  0.6834
 9094TIP3   OH248772   1.027   0.742  14.149  0.0497  0.3219  0.0237
 9094TIP3    H148773   1.055   0.734  14.058 -0.1711  0.1209 -0.0262
 9094TIP3    H248774   1.103   0.716  14.200  0.5197  1.4116 -0.0812
 9095TIP3   OH248775   1.928   5.813  15.165  0.2440  0.1635 -0.7192
 9095TIP3    H148776   1.908   5.905  15.179  0.7716  0.2133 -0.2658
 9095TIP3    H248777   1.930   5.775  15.253  1.8544  0.1152 -0.7451
 9096TIP3   OH248778   0.165   2.206   0.116  0.5543 -0.2646  0.6271
 9096TIP3    H148779   0.137   2.222   0.026  0.9183 -0.6706  0.4400
 9096TIP3    H248780   0.113   2.267   0.168 -0.0519 -0.3974  0.1972
 9097TIP3   OH248781   4.102   1.447  12.806  0.5138  0.4996 -0.1459
 9097TIP3    H148782   4.036   1.437  12.737 -0.4201  0.7274  0.6838
 9097TIP3    H248783   4.182   1.411  12.768 -0.6016 -1.9572 -0.3932
 9098TIP3   OH248784   5.429   5.621  15.142  0.0179  0.5907 -0.4165
 9098TIP3    H148785   5.436   5.547  15.082 -0.6049  0.3146 -0.1569
 9098TIP3    H248786   5.499   5.681  15.115  1.7795 -0.9330  0.5450
 9099TIP3   OH248787   7.164   0.471  11.537  0.0188  0.1846  0.0326
 9099TIP3    H148788   7.243   0.416  11.529  1.2560  1.5686  1.7310
 9099TIP3    H248789   7.100   0.414  11.580  0.8769 -0.3201  0.6928
 9100TIP3   OH248790   3.528   2.666  12.945  0.6229 -0.4063 -0.2351
 9100TIP3    H148791   3.460   2.643  12.881 -0.6760  1.7832  0.2699
 9100TIP3    H248792   3.482   2.718  13.010  2.3424 -0.8940  1.4357
 9101TIP3   OH248793   4.650   2.452  15.077  0.1949 -0.1598  0.2878
 9101TIP3    H148794   4.688   2.422  15.160  0.2914 -0.0911  0.2699
 9101TIP3    H248795   4.563   2.483  15.100  0.2356 -0.1052  0.3702
 9102TIP3   OH248796   6.546   3.125  12.722  0.3736  0.1881  0.3270
 9102TIP3    H148797   6.465   3.077  12.705 -0.1383  1.0250  0.3876
 9102TIP3    H248798   6.615   3.060  12.706 -0.3056 -0.6223  0.5820
 9103TIP3   OH248799   4.752   0.430   1.496  0.0581  0.0318 -0.2149
 9103TIP3    H148800   4.671   0.393   1.462  1.0821 -1.3023 -1.3499
 9103TIP3    H248801   4.772   0.503   1.437 -0.6992  0.8713  0.5435
 9104TIP3   OH248802   6.948   0.940   0.028 -0.7340  0.1260 -0.1923
 9104TIP3    H148803   7.033   0.925  -0.014 -0.8871 -0.6904 -0.2367
 9104TIP3    H248804   6.887   0.947  -0.046 -0.7297  0.5687 -0.1551
 9105TIP3   OH248805   3.894   4.990   9.449  0.0271  0.0558  0.8804
 9105TIP3    H148806   3.818   5.027   9.496 -1.4423 -0.9874 -0.5468
 9105TIP3    H248807   3.886   4.896   9.463  1.3711 -0.0400  1.0913
 9106TIP3   OH248808   4.987   0.826   2.153 -0.0990  0.1472 -0.1835
 9106TIP3    H148809   5.073   0.860   2.179 -0.5268  0.7096  0.5279
 9106TIP3    H248810   4.936   0.904   2.132  0.1151 -0.2624 -2.4520
 9107TIP3   OH248811   2.146   1.332   0.326 -0.0308  0.0577 -0.1470
 9107TIP3    H148812   2.137   1.357   0.418 -0.3461  0.1365 -0.1978
 9107TIP3    H248813   2.065   1.284   0.306 -0.8470  1.6669 -0.8986
 9108TIP3   OH248814   5.930   0.687  10.463  0.3505  0.3920 -0.2812
 9108TIP3    H148815   5.839   0.710  10.446  0.0555 -0.7679 -0.3693
 9108TIP3    H248816   5.942   0.603  10.419  1.5993  0.7437 -0.6555
 9109TIP3   OH248817   2.233   3.484  10.537 -1.0136  0.5799 -0.0491
 9109TIP3    H148818   2.220   3.536  10.457  1.5281 -0.5502 -1.3075
 9109TIP3    H248819   2.302   3.530  10.584 -1.2002  0.2283  0.5771
 9110TIP3   OH248820   6.039   3.462  14.526 -0.3056  0.1447 -0.1061
 9110TIP3    H148821   5.966   3.419  14.482 -1.3402  1.8790 -0.1438
 9110TIP3    H248822   6.044   3.549  14.487  0.0623  1.0046  1.7549
 9111TIP3   OH248823   5.851   5.298  11.380  0.5205 -0.1082  0.0749
 9111TIP3    H148824   5.834   5.334  11.293 -1.6516  1.5385  1.0774
 9111TIP3    H248825   5.927   5.348  11.411  0.2800  0.4932 -0.2715
 9112TIP3   OH248826   1.685   1.106   2.746 -0.0288 -0.5194  0.7795
 9112TIP3    H148827   1.719   1.039   2.687  1.1855 -0.2250  1.1289
 9112TIP3    H248828   1.748   1.111   2.817  0.0795  1.1995  0.6164
 9113TIP3   OH248829   2.668   4.514  15.012  0.1941  0.0119 -0.3662
 9113TIP3    H148830   2.606   4.495  15.082  0.1597 -0.6237 -0.5566
 9113TIP3    H248831   2.750   4.532  15.056  0.2269 -0.6090 -0.1652
 9114TIP3   OH248832   0.367   5.159  15.035  0.2029 -0.2352 -0.4997
 9114TIP3    H148833   0.291   5.217  15.041  1.5441  1.4401  1.5603
 9114TIP3    H248834   0.340   5.080  15.082 -0.1494  0.5222  0.6094
 9115TIP3   OH248835   1.759   3.327  11.653  0.1428 -0.5607 -0.9808
 9115TIP3    H148836   1.834   3.320  11.712  0.2212 -1.3720 -1.1604
 9115TIP3    H248837   1.792   3.378  11.579 -0.4443  1.9712  0.4071
 9116TIP3   OH248838   5.256   2.143  11.844  0.2346 -0.0929  0.2086
 9116TIP3    H148839   5.163   2.165  11.851  0.3432  0.3494  0.2585
 9116TIP3    H248840   5.301   2.227  11.847  0.6309 -0.2983  0.0480
 9117TIP3   OH248841   4.403   0.220   2.504  0.6205  0.0321  0.1501
 9117TIP3    H148842   4.387   0.158   2.433  0.6555  0.3275 -0.1222
 9117TIP3    H248843   4.373   0.176   2.583  0.5364 -0.2822 -0.0574
 9118TIP3   OH248844   4.391   1.544   9.786  0.3250  0.3319 -0.0912
 9118TIP3    H148845   4.395   1.492   9.867 -0.1049  0.2310 -0.1282
 9118TIP3    H248846   4.461   1.510   9.731 -0.4080 -0.7267 -0.4134
 9119TIP3   OH248847   4.740   0.342  12.169  0.3983  0.2709 -0.2599
 9119TIP3    H148848   4.821   0.311  12.208  0.7590 -0.0496 -1.2221
 9119TIP3    H248849   4.674   0.278  12.195  0.1285  1.2738  1.6821
 9120TIP3   OH248850   0.452   0.435  10.365  0.0006 -0.1782  0.5916
 9120TIP3    H148851   0.517   0.366  10.352  1.2855  1.0006  0.4688
 9120TIP3    H248852   0.389   0.423  10.294  0.1527 -1.2697  0.6260
 9121TIP3   OH248853   2.403   0.779   1.796 -0.2883 -0.4929  0.5206
 9121TIP3    H148854   2.308   0.766   1.801 -0.5120  0.8090  0.0120
 9121TIP3    H248855   2.427   0.814   1.881 -0.0700 -1.8278  1.0331
 9122TIP3   OH248856   4.240   4.201  12.952  0.1344 -0.3295 -0.3320
 9122TIP3    H148857   4.228   4.258  12.875  0.6303 -0.4232 -0.4815
 9122TIP3    H248858   4.239   4.261  13.026 -2.7493 -0.4504 -0.1662
 9123TIP3   OH248859   6.070   1.800  11.306  0.0179  0.1653  0.1325
 9123TIP3    H148860   6.141   1.836  11.360 -0.4118 -0.4789  1.1587
 9123TIP3    H248861   6.010   1.761  11.369 -0.0695 -1.4106 -0.8812
 9124TIP3   OH248862   5.682   1.895  12.081  0.4564  0.3853  0.1151
 9124TIP3    H148863   5.615   1.962  12.083  0.1303  0.0634  2.0950
 9124TIP3    H248864   5.724   1.905  11.995 -1.9053  0.7526 -1.0734
 9125TIP3   OH248865   3.893   0.092  12.031  0.3030 -0.1075  0.0241
 9125TIP3    H148866   3.900   0.188  12.031  0.8935 -0.1161  1.7239
 9125TIP3    H248867   3.831   0.073  12.101 -0.2087 -0.9584 -0.6557
 9126TIP3   OH248868   3.759   5.464   6.207  0.0735 -1.0589  0.7422
 9126TIP3    H148869   3.847   5.497   6.193  0.3455 -1.6511  1.0167
 9126TIP3    H248870   3.760   5.376   6.169 -0.6280 -0.7785  0.0448
 9127TIP3   OH248871   2.920   3.443  14.855 -0.1373  0.4068 -0.2698
 9127TIP3    H148872   2.901   3.490  14.937 -0.8028  1.5431 -1.0458
 9127TIP3    H248873   2.967   3.365  14.883 -0.7894  0.5136  1.2501
 9128TIP3   OH248874   6.719   5.237   0.966  0.1908 -0.1869 -0.2594
 9128TIP3    H148875   6.639   5.209   1.012  0.6856  1.0584  1.4515
 9128TIP3    H248876   6.703   5.328   0.942  1.0199  0.0165 -0.0718
 9129TIP3   OH248877   5.372   1.736  14.579 -0.4924 -0.0545 -0.1976
 9129TIP3    H148878   5.457   1.714  14.541 -0.2502 -2.3878  1.4260
 9129TIP3    H248879   5.387   1.815  14.630  1.8824 -2.4340  3.2306
 9130TIP3   OH248880   5.600   5.871   1.395  0.6064 -0.2475  0.0649
 9130TIP3    H148881   5.548   5.836   1.322 -0.6429  1.2878  0.1604
 9130TIP3    H248882   5.572   5.962   1.402  0.4497 -0.4258  2.6658
 9131TIP3   OH248883   3.479   6.486   5.082 -0.5099 -0.2528  0.6651
 9131TIP3    H148884   3.484   6.580   5.098  1.3646 -0.3912  1.1289
 9131TIP3    H248885   3.500   6.476   4.989  0.7011 -0.2943  0.9319
 9132TIP3   OH248886   2.603   0.648  12.098 -0.6471 -0.0117 -0.0448
 9132TIP3    H148887   2.698   0.657  12.105 -0.5063 -0.4124 -1.1349
 9132TIP3    H248888   2.583   0.678  12.009 -1.3877 -0.9913 -0.2276
 9133TIP3   OH248889   6.633   6.585  15.252  0.0093  0.5457 -0.5512
 9133TIP3    H148890   6.666   6.616  15.168  1.1541  1.3317  0.1571
 9133TIP3    H248891   6.698   6.615  15.316 -1.1728  0.5605  0.6961
 9134TIP3   OH248892   6.648   6.191   2.006  0.4350  0.0882 -0.3618
 9134TIP3    H148893   6.656   6.281   1.974 -1.7395  0.3464 -0.3527
 9134TIP3    H248894   6.685   6.137   1.936 -0.6401  0.8634 -1.5714
 9135TIP3   OH248895   3.129   4.414   1.724  0.1680 -0.3284  0.3059
 9135TIP3    H148896   3.049   4.455   1.758  1.0569  0.7938  1.1549
 9135TIP3    H248897   3.190   4.488   1.711  0.8317 -1.0720 -1.0193
 9136TIP3   OH248898   4.205   6.994   1.575  0.0811  0.4739 -0.2017
 9136TIP3    H148899   4.220   7.039   1.492  0.4011 -1.5038 -1.2898
 9136TIP3    H248900   4.117   7.021   1.601  0.0376  1.2523 -1.0923
 9137TIP3   OH248901   7.194   3.069   4.657 -0.0752  0.4394 -0.5696
 9137TIP3    H148902   7.163   3.002   4.717  1.4127 -0.1075 -0.3679
 9137TIP3    H248903   7.234   3.020   4.585  0.7492  1.0944 -0.5773
 9138TIP3   OH248904   1.580   6.059   1.897 -0.3018  0.5646  0.1099
 9138TIP3    H148905   1.587   6.020   1.984  1.3279  1.0105  0.2012
 9138TIP3    H248906   1.492   6.035   1.867  0.2878 -2.4370  0.4957
 9139TIP3   OH248907   3.171   6.255  15.158  0.5322  0.2172  0.4105
 9139TIP3    H148908   3.166   6.351  15.159  1.7684  0.2938  0.5665
 9139TIP3    H248909   3.216   6.235  15.076 -2.1340 -0.4044 -1.0062
 9140TIP3   OH248910   0.048   3.483   4.168 -0.3861 -0.0166  0.0978
 9140TIP3    H148911   0.014   3.572   4.180  1.2346  0.5734  0.6042
 9140TIP3    H248912   0.120   3.476   4.230  0.4923 -1.1577 -0.9807
 9141TIP3   OH248913   6.685   2.569   4.613 -0.4194  0.2261 -0.0190
 9141TIP3    H148914   6.608   2.617   4.645  0.0693  1.9044 -1.2630
 9141TIP3    H248915   6.653   2.480   4.599 -2.4133  1.0825 -1.3793
 9142TIP3   OH248916   0.510   5.047   3.449  0.3618 -0.2104 -0.5920
 9142TIP3    H148917   0.545   5.036   3.537  0.4058 -1.3999 -0.7349
 9142TIP3    H248918   0.429   4.997   3.449  0.7518 -0.8803 -1.4344
 9143TIP3   OH248919   6.690   0.943  12.310 -0.5031  0.1719  0.2080
 9143TIP3    H148920   6.743   0.866  12.288 -0.0676  0.6357 -0.4171
 9143TIP3    H248921   6.678   0.988  12.226 -1.9135  0.0711  0.3280
 9144TIP3   OH248922   1.308   5.800  10.865  0.2382 -0.0921 -0.4836
 9144TIP3    H148923   1.361   5.721  10.857 -0.7328 -0.6857 -1.3041
 9144TIP3    H248924   1.222   5.775  10.830 -0.2284  1.1811 -0.2982
 9145TIP3   OH248925   1.128   6.699  10.911  0.7808 -0.2062 -0.4057
 9145TIP3    H148926   1.073   6.720  10.835 -1.1488 -0.3926  0.8759
 9145TIP3    H248927   1.077   6.727  10.986  2.4723 -0.4102  0.8761
 9146TIP3   OH248928   1.461   5.350   4.388  0.3057 -0.2705 -0.2321
 9146TIP3    H148929   1.395   5.288   4.359 -0.9486  0.7002  0.4677
 9146TIP3    H248930   1.524   5.296   4.438 -0.5333 -1.0406  0.0130
 9147TIP3   OH248931   0.237   3.753  12.680 -0.4463  0.6107 -0.0357
 9147TIP3    H148932   0.290   3.808  12.622 -1.2228 -0.1994 -1.5848
 9147TIP3    H248933   0.166   3.809  12.708  0.2548  1.1851  0.6238
 9148TIP3   OH248934   1.678   7.229   2.820 -0.5486 -0.0112  0.5323
 9148TIP3    H148935   1.663   7.244   2.726  1.7722  1.7995  0.3544
 9148TIP3    H248936   1.593   7.242   2.860 -1.6307 -0.9354 -1.3085
 9149TIP3   OH248937   5.259   7.155  11.548 -0.2280  0.3269  0.0963
 9149TIP3    H148938   5.277   7.063  11.526 -1.9249  0.0036 -0.0926
 9149TIP3    H248939   5.238   7.196  11.464 -1.5054  0.3722  0.4160
 9150TIP3   OH248940   1.166   6.323  11.303  0.4675  0.2598 -0.2622
 9150TIP3    H148941   1.232   6.299  11.367  0.8018 -1.5665 -1.2130
 9150TIP3    H248942   1.215   6.361  11.230 -0.1054  5.0930  1.5443
 9151TIP3   OH248943   7.192   6.846  14.918  0.3341  0.0902 -0.5189
 9151TIP3    H148944   7.189   6.755  14.891  0.3989 -0.3935  1.0448
 9151TIP3    H248945   7.101   6.874  14.921  0.2328 -0.3393  0.3639
 9152TIP3   OH248946   4.388   1.628   3.594  0.1478 -0.0658  0.5313
 9152TIP3    H148947   4.341   1.640   3.677 -1.6093  0.5203 -0.5197
 9152TIP3    H248948   4.378   1.712   3.548  0.2207 -0.7233 -0.7191
 9153TIP3   OH248949   4.028   5.670   1.592 -0.5722  0.0346  0.2313
 9153TIP3    H148950   4.059   5.702   1.677 -2.4878  2.3466  0.1827
 9153TIP3    H248951   3.939   5.639   1.609 -0.6850 -0.2392 -0.7809
 9154TIP3   OH248952   7.093   3.346   3.833 -0.0766 -0.0857  0.2319
 9154TIP3    H148953   7.178   3.331   3.873  0.1043 -0.7431 -0.3871
 9154TIP3    H248954   7.108   3.413   3.767  0.4600 -1.7452 -1.4276
 9155TIP3   OH248955   1.575   3.718  14.601 -0.1425  0.0304  0.2245
 9155TIP3    H148956   1.481   3.713  14.582 -0.0653  0.3241 -0.2608
 9155TIP3    H248957   1.580   3.735  14.695 -0.5734  0.0492  0.2455
 9156TIP3   OH248958   2.205   3.426  11.962  0.1483  0.7653 -0.1770
 9156TIP3    H148959   2.206   3.455  12.054 -0.2522  1.0122 -0.2512
 9156TIP3    H248960   2.198   3.331  11.967 -0.5911  0.8289  0.0390
 9157TIP3   OH248961   2.717   6.897   4.821  0.4110  0.3025 -0.2499
 9157TIP3    H148962   2.730   6.904   4.727  0.8075 -1.5009 -0.3648
 9157TIP3    H248963   2.648   6.832   4.832  1.7935 -1.0864  0.7046
 9158TIP3   OH248964   3.951   4.327  13.156  0.4101 -0.1583 -0.0854
 9158TIP3    H148965   4.006   4.387  13.207 -0.2151 -0.0487  0.4731
 9158TIP3    H248966   3.948   4.367  13.069 -0.6198  1.0479  0.4741
 9159TIP3   OH248967   1.758   1.685  12.273  0.5732  0.2693  0.2288
 9159TIP3    H148968   1.835   1.693  12.216  1.4562 -1.3123  1.1296
 9159TIP3    H248969   1.752   1.770  12.317 -0.5073  1.7771 -2.5681
 9160TIP3   OH248970   3.675   1.232   0.705  0.1243  0.1270  0.0979
 9160TIP3    H148971   3.589   1.244   0.746  0.0151 -0.9107  0.1851
 9160TIP3    H248972   3.676   1.295   0.633 -0.0004  1.4033  1.1834
 9161TIP3   OH248973   4.778   4.042  13.191 -0.9090  0.2278 -0.6087
 9161TIP3    H148974   4.701   4.003  13.233 -0.3047 -0.6607 -0.2969
 9161TIP3    H248975   4.753   4.133  13.174 -1.6856  0.2107  0.3532
 9162TIP3   OH248976   6.731   1.516  14.275 -0.6030  0.3422  0.2856
 9162TIP3    H148977   6.646   1.559  14.262 -1.1822 -0.1834  2.0639
 9162TIP3    H248978   6.713   1.447  14.338  1.4501  1.1821  1.8925
 9163TIP3   OH248979   5.906   7.132  12.318  0.5250 -0.6204  0.2488
 9163TIP3    H148980   5.885   7.174  12.401 -1.0015  2.0338 -1.3610
 9163TIP3    H248981   6.000   7.147  12.307  0.2124  1.5706  0.2097
 9164TIP3   OH248982   0.268   2.925  10.973  0.9772  0.1603 -0.4412
 9164TIP3    H148983   0.194   2.900  10.917 -0.3346  2.6191  0.0458
 9164TIP3    H248984   0.248   2.887  11.058  0.3767  0.5852 -0.3842
 9165TIP3   OH248985   3.526   4.287  15.105  0.5784  0.8433 -0.6148
 9165TIP3    H148986   3.452   4.256  15.157  2.0100  0.2350  1.1510
 9165TIP3    H248987   3.565   4.207  15.068  1.8350  0.8624  0.5782
 9166TIP3   OH248988   0.514   4.132  12.699 -0.0404  0.6497 -0.6225
 9166TIP3    H148989   0.556   4.092  12.775 -2.2701  0.5226  0.6180
 9166TIP3    H248990   0.469   4.208  12.734 -2.0657 -0.0490 -1.5706
 9167TIP3   OH248991   4.593   1.425   4.953 -0.0700 -0.6206  0.0934
 9167TIP3    H148992   4.681   1.421   4.915 -0.5713  0.2223 -1.2833
 9167TIP3    H248993   4.576   1.519   4.962 -0.9964 -0.7523 -0.1387
 9168TIP3   OH248994   2.066   1.392   0.919  0.1696 -0.1087  0.3471
 9168TIP3    H148995   1.986   1.389   0.971  0.3802  1.7678  0.8668
 9168TIP3    H248996   2.107   1.306   0.932 -0.6194 -0.2801  1.9245
 9169TIP3   OH248997   2.409   3.644  10.716  0.8497  0.1469  0.0702
 9169TIP3    H148998   2.428   3.736  10.695  1.1674 -0.1064 -0.7808
 9169TIP3    H248999   2.375   3.647  10.806 -1.8270  1.4378 -0.8863
 9170TIP3   OH249000   3.866   6.703  12.350 -0.8254  0.4860  0.1087
 9170TIP3    H149001   3.918   6.783  12.364  0.8458 -0.5844  0.2575
 9170TIP3    H249002   3.897   6.669  12.266 -0.0172 -1.1011  1.0121
 9171TIP3   OH249003   2.451   1.180  12.008 -0.2328 -0.1390  0.3885
 9171TIP3    H149004   2.405   1.141  12.082 -1.5102 -0.0496 -0.3319
 9171TIP3    H249005   2.446   1.115  11.939  0.4953 -0.0091  0.2020
 9172TIP3   OH249006   3.805   1.564  10.741 -0.0301 -0.3341  0.6796
 9172TIP3    H149007   3.714   1.592  10.748 -0.0437 -0.4398  0.9492
 9172TIP3    H249008   3.854   1.631  10.788  0.1152  0.1394 -0.1355
 9173TIP3   OH249009   1.396   0.556  11.865  0.6249  0.5002  0.0045
 9173TIP3    H149010   1.377   0.647  11.841 -0.8434  0.2687  0.1669
 9173TIP3    H249011   1.443   0.521  11.789  0.4992  1.1750 -0.3924
 9174TIP3   OH249012   4.476   6.906  14.326  0.2145  0.1023  0.7409
 9174TIP3    H149013   4.454   6.885  14.235  0.6535  2.4679  0.0243
 9174TIP3    H249014   4.391   6.914  14.369 -0.0662  0.5621  0.1250
 9175TIP3   OH249015   3.944   7.111  11.136  0.3430  0.2669 -0.0723
 9175TIP3    H149016   3.982   7.185  11.089 -0.8628  0.1158 -1.3664
 9175TIP3    H249017   3.878   7.151  11.193 -2.7945  0.0966 -3.2491
 9176TIP3   OH249018   1.322   1.606  11.488  0.1899  0.3831 -0.4072
 9176TIP3    H149019   1.372   1.632  11.411 -0.6106  0.9675 -0.7495
 9176TIP3    H249020   1.387   1.598  11.558  1.2473 -2.0618 -1.5374
 9177TIP3   OH249021   4.023   3.448  14.618 -0.5881  0.4856 -0.2984
 9177TIP3    H149022   4.017   3.384  14.689 -0.3692  2.5834  1.7299
 9177TIP3    H249023   4.116   3.470  14.613 -0.2416 -1.1357 -2.7633
 9178TIP3   OH249024   2.404   6.260   0.311  0.1094  0.2316 -0.1947
 9178TIP3    H149025   2.313   6.291   0.308  0.0671  0.0616 -0.7433
 9178TIP3    H249026   2.420   6.225   0.224  0.3698 -0.6822  0.2035
 9179TIP3   OH249027   7.023   1.044  11.003 -0.0094 -0.0510 -0.4284
 9179TIP3    H149028   7.002   1.064  10.911 -0.3068  0.6415 -0.2159
 9179TIP3    H249029   7.061   0.957  11.000 -3.7386 -1.8659 -0.7477
 9180TIP3   OH249030   6.951   1.855  13.549  0.4160  0.5748  0.0316
 9180TIP3    H149031   6.864   1.892  13.565 -1.4196 -3.2324  0.0889
 9180TIP3    H249032   6.966   1.870  13.456  0.0748  1.8983  0.1631
 9181TIP3   OH249033   5.301   6.936   4.254  0.1300  0.5130 -0.3359
 9181TIP3    H149034   5.274   6.896   4.171  2.1317 -0.1751 -0.7110
 9181TIP3    H249035   5.247   7.015   4.261  1.2951  1.7410 -3.3575
 9182TIP3   OH249036   2.602   2.464  13.383  0.3582  0.5092  0.6819
 9182TIP3    H149037   2.661   2.503  13.318  0.5546 -1.6344 -0.5295
 9182TIP3    H249038   2.660   2.428  13.450  0.3316  0.1920  0.5386
 9183TIP3   OH249039   2.015   2.457   0.298 -0.8473  0.1034 -0.1299
 9183TIP3    H149040   2.060   2.373   0.306 -1.2551 -0.2534 -1.4252
 9183TIP3    H249041   1.928   2.441   0.334 -1.0471 -0.1259 -0.7218
 9184TIP3   OH249042   4.075   1.246  11.983 -0.1523 -0.3387 -0.3838
 9184TIP3    H149043   3.997   1.192  11.998 -0.3355 -0.0095 -0.1368
 9184TIP3    H249044   4.060   1.325  12.035  0.2153 -0.1457 -0.5656
 9185TIP3   OH249045   5.290   5.760  10.990  0.2537 -0.4091 -0.4759
 9185TIP3    H149046   5.245   5.807  11.060  0.5313 -0.3184 -0.3564
 9185TIP3    H249047   5.233   5.771  10.914  0.8021  1.0174 -0.7274
 9186TIP3   OH249048   4.555   5.737  14.718  0.0743 -0.7120 -0.7626
 9186TIP3    H149049   4.639   5.756  14.676 -0.0251 -0.7021 -0.9594
 9186TIP3    H249050   4.491   5.780  14.662  0.1219  1.7146  0.8722
 9187TIP3   OH249051   1.686   4.018  10.578  0.0892 -0.1806  0.5786
 9187TIP3    H149052   1.620   4.044  10.643  0.5437 -1.4263  1.5923
 9187TIP3    H249053   1.690   3.923  10.586  0.1603 -0.3663 -1.3168
 9188TIP3   OH249054   3.905   3.190  10.994  0.3991  0.2194  0.4950
 9188TIP3    H149055   3.905   3.166  11.087 -1.3012  1.6022  0.9088
 9188TIP3    H249056   3.877   3.282  10.993  1.9815  0.7645 -1.2980
 9189TIP3   OH249057   2.874   1.547  10.883  0.0652  0.1391 -0.5581
 9189TIP3    H149058   2.961   1.508  10.874  2.0217  3.1607  2.6645
 9189TIP3    H249059   2.869   1.612  10.813 -0.5305 -1.3510 -1.9600
 9190TIP3   OH249060   5.444   0.233   1.798 -0.1484 -0.1606  0.3051
 9190TIP3    H149061   5.391   0.155   1.781  0.4640 -0.6360  0.5260
 9190TIP3    H249062   5.530   0.198   1.825  0.2966  0.5902 -0.1185
 9191TIP3   OH249063   0.220   4.208   3.560  0.0242 -0.2994 -0.7634
 9191TIP3    H149064   0.227   4.182   3.652 -2.6845  2.4713  0.4032
 9191TIP3    H249065   0.183   4.131   3.517 -0.2359 -1.1130  0.8207
 9192TIP3   OH249066   2.534   1.374  12.428  0.0890  0.1323 -0.6118
 9192TIP3    H149067   2.554   1.463  12.398  0.5855 -0.3177 -1.6539
 9192TIP3    H249068   2.450   1.383  12.474  1.8533  1.8070  2.6434
 9193TIP3   OH249069   4.065   0.704  14.480 -0.2447  0.3685  0.4257
 9193TIP3    H149070   4.103   0.786  14.448  3.6607 -1.9086 -1.5461
 9193TIP3    H249071   4.124   0.676  14.550 -0.4212 -1.5434 -0.1268
 9194TIP3   OH249072   4.561   3.664  10.396  0.2214 -0.0256  0.5528
 9194TIP3    H149073   4.534   3.590  10.450 -1.6837  0.9320  1.0183
 9194TIP3    H249074   4.628   3.708  10.447  1.5960 -1.5603  0.1348
 9195TIP3   OH249075   4.816   4.484   0.097  0.3213 -0.6433 -0.4659
 9195TIP3    H149076   4.721   4.487   0.097  0.2821  1.4513  1.9389
 9195TIP3    H249077   4.842   4.538   0.172  3.4080 -0.9812 -1.1476
 9196TIP3   OH249078   3.270   5.538   2.671  0.4739 -0.3310  0.4276
 9196TIP3    H149079   3.184   5.560   2.637  0.2162 -0.7330  0.8015
 9196TIP3    H249080   3.267   5.563   2.763  0.6790 -0.5408  0.4949
 9197TIP3   OH249081   4.416   5.881  14.063 -0.1811  0.3997 -0.7085
 9197TIP3    H149082   4.320   5.885  14.072 -0.5691  0.1490 -3.6849
 9197TIP3    H249083   4.438   5.792  14.089 -0.3771  1.0196  1.9641
 9198TIP3   OH249084   3.578   7.120  11.694 -0.4173  0.8443 -0.6449
 9198TIP3    H149085   3.605   7.030  11.709  0.1084  1.1656  0.3360
 9198TIP3    H249086   3.515   7.139  11.764  0.8453  1.8191  0.2748
 9199TIP3   OH249087   5.687   2.281  14.553  0.5449  0.8232 -0.4939
 9199TIP3    H149088   5.723   2.196  14.581  0.2266  1.2473  1.3163
 9199TIP3    H249089   5.753   2.317  14.494  0.5602 -0.7849 -1.5217
 9200TIP3   OH249090   2.757   5.518   0.617  0.2315  0.2896 -0.0215
 9200TIP3    H149091   2.818   5.511   0.544  1.6412  0.3884  1.1051
 9200TIP3    H249092   2.685   5.459   0.594  0.3248  0.8147 -1.7646
 9201TIP3   OH249093   3.265   6.115   1.787 -0.0764 -0.1917  0.0570
 9201TIP3    H149094   3.280   6.070   1.704 -2.1815  0.2683 -0.6275
 9201TIP3    H249095   3.280   6.208   1.767 -1.9598  0.0867 -0.2247
 9202TIP3   OH249096   6.529   1.273  12.838 -0.0490  0.5430  0.1734
 9202TIP3    H149097   6.496   1.300  12.752  1.4267  0.9436 -0.2854
 9202TIP3    H249098   6.530   1.177  12.834 -0.1778  0.5546 -0.1760
 9203TIP3   OH249099   6.360   2.608  14.958 -0.2669 -0.1333  0.2907
 9203TIP3    H149100   6.282   2.644  14.915 -0.1473 -0.3860 -0.1501
 9203TIP3    H249101   6.426   2.677  14.952 -0.2005 -0.2253 -0.0854
 9204TIP3   OH249102   5.290   1.928   0.372  0.3818 -0.2786  0.8743
 9204TIP3    H149103   5.233   2.004   0.377 -1.2778 -1.5070  1.6629
 9204TIP3    H249104   5.303   1.901   0.463  1.0745 -0.8501  0.6217
 9205TIP3   OH249105   3.345   3.162  10.978 -0.3447 -0.2508  0.3836
 9205TIP3    H149106   3.414   3.096  10.979 -0.6876 -0.6071  1.0557
 9205TIP3    H249107   3.275   3.124  10.925 -0.0321  0.1136 -0.3049
 9206TIP3   OH249108   6.856   0.053  15.262 -0.3322  0.5626  0.1515
 9206TIP3    H149109   6.869   0.121  15.196  1.7688 -0.2123 -0.3003
 9206TIP3    H249110   6.909  -0.021  15.232 -0.5267 -0.3588  1.9385
 9207TIP3   OH249111   5.083   4.922   2.519 -0.3521  0.0155 -0.1689
 9207TIP3    H149112   5.023   4.863   2.565 -0.5354 -1.4029 -2.0837
 9207TIP3    H249113   5.149   4.946   2.584 -1.5781 -0.4162  1.2925
 9208TIP3   OH249114   4.874   5.306   1.495  0.6255  0.1565  0.5056
 9208TIP3    H149115   4.965   5.313   1.465  1.0224  2.3604  1.9701
 9208TIP3    H249116   4.860   5.385   1.547 -2.2069 -0.0588  0.2152
 9209TIP3   OH249117   3.221   5.530   1.040  0.0236  0.3857  0.7392
 9209TIP3    H149118   3.311   5.527   1.074  0.5504 -1.8203 -0.6106
 9209TIP3    H249119   3.231   5.565   0.951 -0.6547  1.3896  1.0460
 9210TIP3   OH249120   6.562   7.160   4.307  0.3171  0.3564  0.0693
 9210TIP3    H149121   6.536   7.081   4.354  1.2266  0.3289  0.5382
 9210TIP3    H249122   6.485   7.217   4.310  0.5923  0.6745  2.2757
 9211TIP3   OH249123   2.245   2.168  13.977  0.1524  0.0703 -0.4144
 9211TIP3    H149124   2.189   2.131  14.046  0.0033 -1.0138 -1.0964
 9211TIP3    H249125   2.310   2.219  14.025  0.4094 -1.1507  0.5892
 9212TIP3   OH249126   1.702   4.191  11.247 -0.7021  0.0326 -0.0729
 9212TIP3    H149127   1.619   4.153  11.218  0.9741 -2.7413 -1.6473
 9212TIP3    H249128   1.758   4.116  11.265  1.2082  1.7963  1.9774
 9213TIP3   OH249129   3.338   5.584  12.597 -0.0104 -0.6059 -0.0723
 9213TIP3    H149130   3.354   5.590  12.503  0.1316  0.2041 -0.0048
 9213TIP3    H249131   3.265   5.523  12.605 -0.9790  0.4099 -0.8156
 9214TIP3   OH249132   3.489   5.940  14.517 -0.6314 -0.1707  0.5104
 9214TIP3    H149133   3.558   5.996  14.482 -1.4778  1.8372  1.8896
 9214TIP3    H249134   3.531   5.889  14.585  0.1405 -1.2859 -0.7411
 9215TIP3   OH249135   7.213   2.993  14.974  0.0432 -0.1137  0.3153
 9215TIP3    H149136   7.229   2.910  14.928 -0.0794  1.1423 -2.1455
 9215TIP3    H249137   7.117   2.997  14.981  0.0843 -0.6198  1.3749
 9216TIP3   OH249138   0.424   4.208   5.692 -0.0274  0.2655 -0.3923
 9216TIP3    H149139   0.366   4.224   5.766 -1.6446  3.1882 -2.1107
 9216TIP3    H249140   0.423   4.290   5.642  4.3155 -0.0620 -1.4659
 9217TIP3   OH249141   1.007   2.013  10.652 -0.1307  0.2360 -0.3813
 9217TIP3    H149142   1.089   1.974  10.683  1.9530  3.5870 -1.1654
 9217TIP3    H249143   0.952   2.019  10.730  1.7089  0.8764  0.9569
 9218TIP3   OH249144   1.578   6.282  10.050 -0.6053 -0.2389 -0.0011
 9218TIP3    H149145   1.497   6.312  10.008 -0.4738 -0.5458 -0.4874
 9218TIP3    H249146   1.611   6.214   9.992  1.2439  1.4648 -1.0924
 9219TIP3   OH249147   5.116   1.274   3.070  0.1681 -0.3647 -0.3081
 9219TIP3    H149148   5.160   1.191   3.088  0.7217 -0.2276 -0.9632
 9219TIP3    H249149   5.185   1.329   3.032 -0.7301 -0.4352 -2.1740
 9220TIP3   OH249150   3.695   3.197  13.353  0.2834 -0.1733 -0.3205
 9220TIP3    H149151   3.694   3.291  13.370 -0.1048 -0.4729  1.5994
 9220TIP3    H249152   3.611   3.166  13.388  0.5955 -1.2900 -0.5438
 9221TIP3   OH249153   3.993   2.417   4.473 -0.4697  0.4410 -0.5308
 9221TIP3    H149154   4.085   2.435   4.489 -0.3904 -1.3164  1.5389
 9221TIP3    H249155   3.962   2.491   4.420  2.0405  1.1628 -1.1050
 9222TIP3   OH249156   0.705   6.653  10.585  0.2689 -0.2828 -0.2275
 9222TIP3    H149157   0.710   6.650  10.490  0.8909  3.3734 -0.4626
 9222TIP3    H249158   0.611   6.646  10.604  0.0536 -0.0367 -1.1780
 9223TIP3   OH249159   6.935   5.510   0.869  0.4436  0.4257 -0.1685
 9223TIP3    H149160   6.899   5.426   0.841 -0.6831  0.2453  1.6697
 9223TIP3    H249161   6.868   5.548   0.926  0.6873  2.8485 -1.3512
 9224TIP3   OH249162   3.055   4.374  10.958 -0.0199  0.0560  0.2421
 9224TIP3    H149163   3.111   4.356  10.882 -0.3062  0.2207 -0.0091
 9224TIP3    H249164   3.004   4.294  10.970 -0.1662  0.1274  0.0958
 9225TIP3   OH249165   2.781   2.072  10.351 -0.7169 -0.8593 -0.1736
 9225TIP3    H149166   2.769   1.986  10.390 -0.8005 -1.3213 -1.1905
 9225TIP3    H249167   2.780   2.133  10.425 -0.6562 -1.7275  0.5484
 9226TIP3   OH249168   3.987   4.959   0.287 -0.2592 -0.0195  0.6554
 9226TIP3    H149169   3.951   5.024   0.226  0.9952  1.3869  1.3490
 9226TIP3    H249170   4.032   4.896   0.230  0.6583  1.1197  0.0562
 9227TIP3   OH249171   0.422   4.020  12.326 -0.0998  0.5511  0.1895
 9227TIP3    H149172   0.436   3.948  12.265  1.2321 -0.2276  1.3599
 9227TIP3    H249173   0.350   4.070  12.288 -0.8176 -1.1806 -0.8488
 9228TIP3   OH249174   6.353   1.492   3.147  0.3295  0.4749 -0.8486
 9228TIP3    H149175   6.428   1.471   3.203  0.1582  0.8084 -0.4881
 9228TIP3    H249176   6.308   1.563   3.192 -1.0848 -0.7282 -0.2583
 9229TIP3   OH249177   5.296   2.863  11.244  0.5539  0.0369  0.1903
 9229TIP3    H149178   5.380   2.837  11.207  0.3277  0.3444 -0.5633
 9229TIP3    H249179   5.313   2.947  11.286 -0.0007  1.7784 -2.7452
 9230TIP3   OH249180   6.682   2.618  14.106  0.2447 -0.5089 -0.4563
 9230TIP3    H149181   6.639   2.696  14.069  0.3081  2.3108  4.4410
 9230TIP3    H249182   6.775   2.640  14.107  0.2067 -0.2586  1.4874
 9231TIP3   OH249183   5.452   4.051   0.120 -0.3632  0.7404  0.5085
 9231TIP3    H149184   5.452   4.103   0.039 -1.4097 -0.7083 -0.4841
 9231TIP3    H249185   5.362   4.019   0.127  0.5777 -2.2935  0.1150
 9232TIP3   OH249186   4.172   1.292   1.409 -0.2994 -0.0297 -0.1129
 9232TIP3    H149187   4.182   1.207   1.366  0.2946 -0.2911  0.5107
 9232TIP3    H249188   4.189   1.274   1.502 -3.6893  0.0832  0.6495
 9233TIP3   OH249189   1.095   2.764  10.366 -0.6046 -0.0111  0.3047
 9233TIP3    H149190   1.047   2.824  10.424 -0.6959  0.1890  0.0269
 9233TIP3    H249191   1.166   2.730  10.420  0.8776  2.1299 -0.1464
 9234TIP3   OH249192   0.857   3.109  11.267  0.2075  0.4573 -0.0021
 9234TIP3    H149193   0.793   3.118  11.197  0.1950  0.4695  0.0111
 9234TIP3    H249194   0.834   3.177  11.331 -2.7696 -2.4820  2.4162
 9235TIP3   OH249195   5.306   3.691   1.333  0.2405 -0.8234  0.1156
 9235TIP3    H149196   5.318   3.719   1.423  0.3849  0.2626 -0.2257
 9235TIP3    H249197   5.362   3.749   1.281 -0.4029 -0.9290 -0.7393
 9236TIP3   OH249198   4.684   5.207   0.148  0.2158 -0.0695  0.0379
 9236TIP3    H149199   4.591   5.193   0.169  0.0853  1.8896  0.9112
 9236TIP3    H249200   4.699   5.151   0.072 -1.8668  0.0520 -0.5267
 9237TIP3   OH249201   7.239   4.893  13.571 -0.3039  0.2464  0.0824
 9237TIP3    H149202   7.203   4.915  13.657 -2.9139 -0.6784 -0.6839
 9237TIP3    H249203   7.320   4.845  13.590  0.2514  1.8061  1.9262
 9238TIP3   OH249204   0.241   0.731   1.799 -0.2455 -0.0364 -0.4182
 9238TIP3    H149205   0.283   0.770   1.722  1.5766 -1.9340 -0.4642
 9238TIP3    H249206   0.233   0.638   1.778 -0.7797 -0.3967  1.2157
 9239TIP3   OH249207   1.747   4.211  11.558 -0.2178 -0.0746 -1.3142
 9239TIP3    H149208   1.721   4.251  11.476 -1.2818 -1.6550 -1.8126
 9239TIP3    H249209   1.666   4.172  11.592  0.8679 -2.6211 -1.4068
 9240TIP3   OH249210   6.877   1.732  10.026 -0.3406 -0.8869  0.3962
 9240TIP3    H149211   6.850   1.694  10.109 -1.1583 -2.0645 -0.3827
 9240TIP3    H249212   6.913   1.818  10.050  0.0856 -1.4814  2.0243
 9241TIP3   OH249213   2.568   4.907   2.320  0.0630  0.2285  0.0638
 9241TIP3    H149214   2.503   4.930   2.254  1.4838  1.5115 -0.9675
 9241TIP3    H249215   2.559   4.974   2.388 -0.5677 -0.3736  0.5871
 9242TIP3   OH249216   6.605   3.087  10.603 -0.4817 -0.3415 -0.3176
 9242TIP3    H149217   6.581   3.149  10.534 -0.5317 -0.0162 -0.0093
 9242TIP3    H249218   6.617   3.141  10.681 -2.8510 -0.9132  0.5556
 9243TIP3   OH249219   4.225   4.049  10.238 -0.0690  0.4023 -0.1048
 9243TIP3    H149220   4.175   3.969  10.225  0.0079  0.4355 -0.6387
 9243TIP3    H249221   4.215   4.098  10.156 -0.6923  1.2683  0.4764
 9244TIP3   OH249222   3.181   6.908  11.101  0.1764 -0.3279  0.2926
 9244TIP3    H149223   3.128   6.933  11.178 -0.4668 -1.1049  0.1205
 9244TIP3    H249224   3.116   6.884  11.035  0.7098  1.0035 -0.7529
 9245TIP3   OH249225   5.473   0.915  10.555 -0.0611 -0.1247 -0.3155
 9245TIP3    H149226   5.436   0.917  10.643  0.1165  2.0565 -0.2186
 9245TIP3    H249227   5.413   0.968  10.502  1.7163  1.7637 -0.6061
 9246TIP3   OH249228   1.254   7.079  14.260 -0.6686  0.1133  0.6094
 9246TIP3    H149229   1.259   7.166  14.219 -1.0148 -0.2776 -0.2762
 9246TIP3    H249230   1.196   7.092  14.335  0.4075  0.9609  1.3410
 9247TIP3   OH249231   0.240   0.864   9.703 -0.2756  0.2993  0.1800
 9247TIP3    H149232   0.155   0.858   9.746 -0.0600 -0.2970  0.5311
 9247TIP3    H249233   0.243   0.789   9.644  0.5567 -0.5064  1.1968
 9248TIP3   OH249234   3.515   1.379  12.438 -0.4241 -0.2050 -0.4628
 9248TIP3    H149235   3.489   1.321  12.367 -0.1035  0.4636 -1.1444
 9248TIP3    H249236   3.527   1.322  12.513  1.4582 -1.2611 -1.4970
 9249TIP3   OH249237   5.945   3.094  10.470  0.5059  0.0517  0.2360
 9249TIP3    H149238   6.034   3.095  10.505  1.7119 -1.4493 -2.4590
 9249TIP3    H249239   5.950   3.037  10.394 -3.3856 -2.3529  1.4565
 9250TIP3   OH249240   1.081   6.678   4.034  0.0664 -0.1041  0.0913
 9250TIP3    H149241   1.007   6.659   4.092 -0.7655 -0.8129 -1.1443
 9250TIP3    H249242   1.144   6.725   4.089 -2.3109  2.7863  0.6189
 9251TIP3   OH249243   5.755   2.658   5.234 -0.3021  0.3277  0.2886
 9251TIP3    H149244   5.761   2.701   5.320  0.7707 -0.3906  0.5890
 9251TIP3    H249245   5.780   2.567   5.250  1.1184  0.4496 -0.9774
 9252TIP3   OH249246   0.153   1.981   2.823 -0.7305 -0.5733  0.0282
 9252TIP3    H149247   0.200   1.979   2.740  2.2119 -0.1909  1.5647
 9252TIP3    H249248   0.199   2.046   2.876 -3.1634 -0.0182  1.6300
 9253TIP3   OH249249   2.507   6.461  12.376  0.6489 -0.3456 -0.3115
 9253TIP3    H149250   2.439   6.426  12.433 -1.3180  2.2120 -0.9190
 9253TIP3    H249251   2.488   6.421  12.290  0.1457  0.0681 -0.3950
 9254TIP3   OH249252   5.282   5.755   2.469 -0.4078 -0.1581 -0.3717
 9254TIP3    H149253   5.272   5.681   2.409 -0.8037 -1.2649  1.0037
 9254TIP3    H249254   5.218   5.819   2.438 -0.2715 -0.4865 -1.4012
 9255TIP3   OH249255   4.477   5.335  13.222  0.1783 -0.3283 -0.3509
 9255TIP3    H149256   4.455   5.259  13.276  1.2085 -1.0680 -0.9358
 9255TIP3    H249257   4.436   5.409  13.267 -0.2852 -1.1333  0.5927
 9256TIP3   OH249258   1.857   3.557   0.972  0.3006 -0.0156 -0.0742
 9256TIP3    H149259   1.781   3.533   1.024  1.4133 -1.7269  0.8704
 9256TIP3    H249260   1.881   3.644   1.004 -0.9128  0.3175 -0.0113
 9257TIP3   OH249261   5.474   3.079   2.060 -0.3591  0.2999 -0.3730
 9257TIP3    H149262   5.553   3.116   2.099 -0.3452  1.0596 -1.0981
 9257TIP3    H249263   5.410   3.150   2.063 -2.2191 -1.2311  3.3760
 9258TIP3   OH249264   3.038   4.861   0.321 -0.5217 -0.4599 -0.7477
 9258TIP3    H149265   3.107   4.832   0.261  1.1332 -0.4467  1.0464
 9258TIP3    H249266   3.071   4.943   0.358  0.5342 -2.3985  3.1531
 9259TIP3   OH249267   6.047   0.566  13.481 -1.0345 -0.9522 -0.5560
 9259TIP3    H149268   5.973   0.506  13.485 -2.9256  1.1444 -1.5777
 9259TIP3    H249269   6.007   0.653  13.470  1.4945  0.5940  1.2359
 9260TIP3   OH249270   3.213   3.144  11.744 -0.0640 -0.1487  0.0681
 9260TIP3    H149271   3.171   3.204  11.806  0.0958 -0.7930  0.8191
 9260TIP3    H249272   3.263   3.201  11.686 -0.7003  0.5118  0.1488
 9261TIP3   OH249273   0.467   3.788   5.195 -0.1332  0.2861  0.1761
 9261TIP3    H149274   0.494   3.782   5.103  0.6566 -0.2610  0.4355
 9261TIP3    H249275   0.384   3.836   5.192  0.7156  1.8080 -0.6747
 9262TIP3   OH249276   0.480   1.614  12.831 -0.3219  0.4576  0.7263
 9262TIP3    H149277   0.453   1.529  12.866 -1.6754  0.1043 -1.0724
 9262TIP3    H249278   0.445   1.616  12.742  2.9021  1.3598 -0.6623
 9263TIP3   OH249279   1.719   2.075  13.548  0.0141 -0.2802 -0.4125
 9263TIP3    H149280   1.685   2.159  13.580 -1.5998 -0.7851 -0.6964
 9263TIP3    H249281   1.812   2.091  13.533  0.1232  0.9371  1.2430
 9264TIP3   OH249282   6.228   4.289  13.891  0.2480  0.4378 -0.1577
 9264TIP3    H149283   6.303   4.236  13.918  0.9761  0.9330 -1.1429
 9264TIP3    H249284   6.168   4.227  13.850 -0.4476 -0.1606  1.6727
 9265TIP3   OH249285   3.501   1.488   3.219 -0.1249 -0.1595  0.1153
 9265TIP3    H149286   3.574   1.537   3.255 -0.3449 -0.3529  0.8510
 9265TIP3    H249287   3.539   1.407   3.187  0.1203  0.1454 -0.3630
 9266TIP3   OH249288   3.124   4.870   4.634  0.2844 -0.1237 -0.0246
 9266TIP3    H149289   3.107   4.776   4.643  0.8029 -0.0393  2.4158
 9266TIP3    H249290   3.135   4.883   4.540  1.9649 -2.8244 -0.2968
 9267TIP3   OH249291   5.666   0.070   1.776 -0.0997  0.1711  0.4448
 9267TIP3    H149292   5.657   0.004   1.845  0.7723  1.5026  1.8837
 9267TIP3    H249293   5.673   0.019   1.695 -0.7275 -1.4430  1.3588
 9268TIP3   OH249294   1.155   2.979   9.791 -0.0318 -0.3802 -0.3279
 9268TIP3    H149295   1.172   3.033   9.868 -3.0393  1.2269 -0.6092
 9268TIP3    H249296   1.190   3.030   9.717 -0.6825  0.0497 -0.3532
 9269TIP3   OH249297   0.437   4.415   3.662  0.4107 -0.1233 -0.1013
 9269TIP3    H149298   0.507   4.450   3.608  1.0075  0.5573  1.0588
 9269TIP3    H249299   0.380   4.369   3.601 -0.1245  2.3903 -1.6784
 9270TIP3   OH249300   1.573   1.313  13.726 -0.8422  0.0399 -0.4820
 9270TIP3    H149301   1.503   1.358  13.771 -0.8735 -0.2586 -0.2274
 9270TIP3    H249302   1.595   1.239  13.783  0.9258  1.1402  0.3710
 9271TIP3   OH249303   3.887   6.808  12.062  0.6508  0.0414  0.2695
 9271TIP3    H149304   3.941   6.778  11.989  0.9408 -0.2102  0.5824
 9271TIP3    H249305   3.881   6.903  12.051  1.0087  0.0487  0.1321
 9272TIP3   OH249306   6.671   3.590  10.503 -0.4766  0.1556 -0.1603
 9272TIP3    H149307   6.592   3.584  10.558 -0.1006  0.4426  0.4221
 9272TIP3    H249308   6.739   3.548  10.556 -0.2627 -0.1907 -0.7114
 9273TIP3   OH249309   3.741   6.541   1.756 -0.8407 -0.0322 -0.8766
 9273TIP3    H149310   3.771   6.571   1.842  2.4334 -0.4591 -1.7320
 9273TIP3    H249311   3.709   6.621   1.714 -1.8852  0.2975  0.4676
 9274TIP3   OH249312   0.089   2.965   0.781 -0.1547  0.2089  0.2535
 9274TIP3    H149313   0.131   2.901   0.838  0.1959 -0.3369 -0.5904
 9274TIP3    H249314   0.110   2.935   0.692  0.3838  1.7416 -0.1652
 9275TIP3   OH249315   4.065   0.295   1.253 -0.3195  0.5946 -0.4555
 9275TIP3    H149316   4.104   0.357   1.191  0.1473  2.6431  1.7404
 9275TIP3    H249317   4.128   0.223   1.258  1.5141  2.1886  0.3953
 9276TIP3   OH249318   1.831   1.052   1.192  0.5935 -0.4022  0.2308
 9276TIP3    H149319   1.750   1.099   1.213  1.7836  1.4142  1.0232
 9276TIP3    H249320   1.869   1.031   1.277  0.1962 -2.7414 -0.1090
 9277TIP3   OH249321   1.874   0.504  15.292  0.2585 -0.3228 -0.0911
 9277TIP3    H149322   1.846   0.414  15.311 -0.6375 -0.0970 -0.2953
 9277TIP3    H249323   1.834   0.556  15.362  1.0966 -0.1249  0.2515
 9278TIP3   OH249324   6.791   6.956  11.916  0.0637  0.0824 -0.0617
 9278TIP3    H149325   6.756   6.870  11.893 -1.1138 -0.3762  2.9807
 9278TIP3    H249326   6.850   6.939  11.990  1.0879  1.7140 -0.4609
 9279TIP3   OH249327   2.926   5.621   5.156 -0.9791 -0.2447 -0.0322
 9279TIP3    H149328   2.922   5.549   5.218  0.0848 -0.0845  0.2447
 9279TIP3    H249329   2.993   5.596   5.093  0.2182  0.9550  0.7036
 9280TIP3   OH249330   6.458   6.547  12.316  0.7398  0.5637 -0.1596
 9280TIP3    H149331   6.414   6.630  12.296  0.5116  0.4526 -0.1258
 9280TIP3    H249332   6.521   6.569  12.384  2.6551  1.2790 -2.0461
 9281TIP3   OH249333   4.601   3.768  12.163  0.3992  0.3471 -0.4447
 9281TIP3    H149334   4.527   3.782  12.222 -0.0146 -2.1364 -0.2549
 9281TIP3    H249335   4.585   3.828  12.090 -2.8218 -1.2882 -1.2569
 9282TIP3   OH249336   5.072   3.849   3.250  0.0475 -0.2453 -0.2519
 9282TIP3    H149337   5.028   3.805   3.177 -0.7301  0.8588 -0.4613
 9282TIP3    H249338   5.101   3.932   3.215  1.1027 -0.3820  0.2715
 9283TIP3   OH249339   7.091   4.423   0.955 -0.3975 -0.0550  0.0768
 9283TIP3    H149340   7.039   4.426   1.036  0.1593 -1.8119  0.5523
 9283TIP3    H249341   7.030   4.451   0.886 -1.0113  1.0480  1.0229
 9284TIP3   OH249342   1.143   4.348   0.986 -0.5280  0.4671 -0.3495
 9284TIP3    H149343   1.100   4.337   0.901  0.2250  0.9013 -0.8053
 9284TIP3    H249344   1.224   4.394   0.965  0.8428 -1.5454  0.2940
 9285TIP3   OH249345   2.025   6.074  13.158 -0.2943  0.2654  0.5191
 9285TIP3    H149346   2.020   6.124  13.076  0.1816  0.0303  0.3429
 9285TIP3    H249347   2.076   6.130  13.217  0.6906 -0.2261  0.1530
 9286TIP3   OH249348   5.253   6.085   2.138 -0.2035  0.3584  0.5489
 9286TIP3    H149349   5.199   6.045   2.206  0.1049 -0.0272  0.5706
 9286TIP3    H249350   5.201   6.079   2.058 -2.0867  3.8378  1.2847
 9287TIP3   OH249351   3.397   7.217  10.661  0.1674  0.3049  0.2631
 9287TIP3    H149352   3.341   7.141  10.672  0.7080  0.0872  1.7866
 9287TIP3    H249353   3.338   7.287  10.633  0.0236 -1.1656 -3.7420
 9288TIP3   OH249354   3.980   4.341  11.627 -0.2417  0.1223  0.4867
 9288TIP3    H149355   4.069   4.319  11.653 -0.2344 -0.2577  0.1390
 9288TIP3    H249356   3.958   4.418  11.681  0.1612  0.0008  0.8288
 9289TIP3   OH249357   1.014   2.648  10.983  0.8439 -0.1381  0.1858
 9289TIP3    H149358   1.020   2.725  11.039 -0.2216 -0.5921  0.9371
 9289TIP3    H249359   1.104   2.636  10.950  1.5740 -0.0487  2.0354
 9290TIP3   OH249360   4.816   4.230   2.044  0.1725  0.6750 -0.0242
 9290TIP3    H149361   4.768   4.149   2.025  1.0370  0.3399 -0.8279
 9290TIP3    H249362   4.804   4.285   1.966 -1.0934  1.6879  0.8355
 9291TIP3   OH249363   6.056   0.889   1.235 -0.1511  0.4435 -0.2999
 9291TIP3    H149364   6.006   0.896   1.317  0.0759  2.4599 -0.2782
 9291TIP3    H249365   6.000   0.931   1.170  0.1377 -0.1853 -0.9650
 9292TIP3   OH249366   1.367   1.833   1.475 -0.0528 -0.0425 -0.1609
 9292TIP3    H149367   1.348   1.873   1.390 -0.7304 -2.4558 -1.2014
 9292TIP3    H249368   1.461   1.848   1.487 -0.3182  2.1146 -0.2975
 9293TIP3   OH249369   5.305   0.713  13.078 -0.0137  0.3231  0.2243
 9293TIP3    H149370   5.308   0.794  13.128 -0.4915  0.5883 -0.1630
 9293TIP3    H249371   5.391   0.672  13.092 -0.2881  0.1845  1.5759
 9294TIP3   OH249372   7.082   6.331  10.263  0.0900 -0.2488 -0.1254
 9294TIP3    H149373   7.089   6.237  10.280  0.5935 -0.2540 -0.3432
 9294TIP3    H249374   7.001   6.341  10.214 -0.2694 -0.4973  0.4147
 9295TIP3   OH249375   7.045   6.211   2.122  0.6349  0.1464  0.5294
 9295TIP3    H149376   6.979   6.158   2.167  0.2217 -0.1499 -0.3921
 9295TIP3    H249377   7.070   6.157   2.046  0.0548  1.3593 -0.5511
 9296TIP3   OH249378   6.229   6.398   2.379  0.1805 -0.1866  1.0272
 9296TIP3    H149379   6.318   6.379   2.348  0.4181  0.7272  1.1256
 9296TIP3    H249380   6.224   6.357   2.465  0.8742  0.6553  1.4784
 9297TIP3   OH249381   5.716   0.837  12.201  1.2353  0.1041 -0.2784
 9297TIP3    H149382   5.712   0.844  12.106 -1.8823 -1.8175 -0.4242
 9297TIP3    H249383   5.795   0.785  12.217  3.8497  3.3915 -1.4100
 9298TIP3   OH249384   6.601   3.503   9.586  0.8724 -0.3187 -0.3327
 9298TIP3    H149385   6.513   3.470   9.566  0.1866  1.3701 -0.2779
 9298TIP3    H249386   6.635   3.441   9.652 -0.8380 -0.2319  0.7057
 9299TIP3   OH249387   0.760   6.100   3.533 -0.1169  0.1312 -0.3340
 9299TIP3    H149388   0.779   6.055   3.451  0.4852 -0.1084 -0.0719
 9299TIP3    H249389   0.818   6.058   3.597 -1.2292 -0.3115  0.4112
 9300TIP3   OH249390   2.497   1.322  14.284 -0.3572 -0.9147  0.2652
 9300TIP3    H149391   2.401   1.324  14.286 -0.3630 -0.6312 -0.1739
 9300TIP3    H249392   2.522   1.413  14.265 -0.0000 -0.9761  0.4393
 9301TIP3   OH249393   0.152   6.602   5.823 -0.3156 -0.4121 -0.3310
 9301TIP3    H149394   0.243   6.592   5.794 -0.0828  0.4719  0.0698
 9301TIP3    H249395   0.102   6.547   5.763  0.3916 -0.2404 -1.0981
 9302TIP3   OH249396   1.470   1.485  14.911 -0.3796 -0.2875 -0.0325
 9302TIP3    H149397   1.464   1.411  14.851 -2.1060 -0.0064 -0.2693
 9302TIP3    H249398   1.515   1.553  14.860 -0.1590 -0.6644 -0.3470
 9303TIP3   OH249399   6.326   5.494  10.597  0.5681  0.4052  0.0023
 9303TIP3    H149400   6.397   5.457  10.650  0.3647 -1.4001 -0.9159
 9303TIP3    H249401   6.368   5.521  10.516  0.2725 -0.4870 -0.4652
 9304TIP3   OH249402   3.968   3.381   4.473  0.0424 -0.4888 -0.1000
 9304TIP3    H149403   3.920   3.368   4.554  0.7401 -0.8632  0.2683
 9304TIP3    H249404   4.004   3.295   4.452  0.8940 -0.1458 -0.1251
 9305TIP3   OH249405   6.605   0.062   0.018  0.3104  0.4307 -0.0571
 9305TIP3    H149406   6.699   0.051   0.006  0.1852 -0.6466 -0.0724
 9305TIP3    H249407   6.569   0.058  -0.070  0.1939  0.3771 -0.0062
 9306TIP3   OH249408   5.240   6.030   0.876  0.9328  0.1609  0.3321
 9306TIP3    H149409   5.199   6.066   0.797  2.0743  1.6789  0.3836
 9306TIP3    H249410   5.303   5.966   0.843  1.3077  0.6874  0.0146
 9307TIP3   OH249411   5.772   5.373   2.894 -0.3647 -0.3640  0.2379
 9307TIP3    H149412   5.821   5.291   2.900 -0.4534 -0.4441 -0.0996
 9307TIP3    H249413   5.680   5.346   2.894 -0.4355 -0.1798  1.4355
 9308TIP3   OH249414   1.051   2.437  13.800 -0.5535 -0.2115 -0.6605
 9308TIP3    H149415   1.088   2.468  13.882  2.3084 -1.6784 -1.2582
 9308TIP3    H249416   0.957   2.451  13.809 -0.1525  1.4124  2.0597
 9309TIP3   OH249417   0.264   5.927  15.293 -0.6983  0.2203  0.1012
 9309TIP3    H149418   0.322   5.868  15.244 -1.0094 -0.7225  0.8292
 9309TIP3    H249419   0.220   5.870  15.356 -1.4794  1.1405  0.4115
 9310TIP3   OH249420   4.751   0.919   0.647 -0.0553  0.0195 -0.1535
 9310TIP3    H149421   4.846   0.916   0.657 -0.2140 -0.5347  1.2997
 9310TIP3    H249422   4.721   0.978   0.716 -0.6348  1.8017 -1.8318
 9311TIP3   OH249423   7.245   0.948   1.482  0.1945  0.2901 -0.4167
 9311TIP3    H149424   7.228   0.920   1.392  0.6724  1.9787 -1.0812
 9311TIP3    H249425   7.208   1.036   1.487  0.4172  0.3293  0.9631
 9312TIP3   OH249426   0.803   5.656   1.208  0.0157 -0.0909 -0.3375
 9312TIP3    H149427   0.823   5.749   1.195  0.0519 -0.0889 -0.2662
 9312TIP3    H249428   0.708   5.652   1.209  0.0122 -0.1045 -0.7092
 9313TIP3   OH249429   2.791   0.288  12.509  0.0678  0.0129  1.0247
 9313TIP3    H149430   2.830   0.231  12.575 -1.5679 -1.0528  1.1262
 9313TIP3    H249431   2.698   0.264  12.507  0.1364 -0.5131 -2.1527
 9314TIP3   OH249432   2.255   3.813   5.664  0.1200  0.2468 -0.3394
 9314TIP3    H149433   2.317   3.740   5.657  0.6490  0.6861 -0.3102
 9314TIP3    H249434   2.271   3.851   5.750 -0.8563 -0.2166  0.0637
 9315TIP3   OH249435   3.448   6.589   3.023  0.0031 -0.0514  0.2554
 9315TIP3    H149436   3.467   6.660   2.962 -0.2682 -0.3453 -0.1763
 9315TIP3    H249437   3.372   6.619   3.072 -1.1470 -0.7127 -1.0562
 9316TIP3   OH249438   6.536   1.155  10.638  0.7500  0.1824 -0.4864
 9316TIP3    H149439   6.483   1.102  10.578  1.8377 -0.0829 -1.2577
 9316TIP3    H249440   6.473   1.196  10.697 -0.3832  0.4798 -1.8389
 9317TIP3   OH249441   3.053   3.086   1.621  0.0648 -0.1472  0.2150
 9317TIP3    H149442   2.993   3.039   1.563  0.7230 -1.8022  0.8248
 9317TIP3    H249443   3.136   3.088   1.573  0.5325 -1.2693  0.9288
 9318TIP3   OH249444   1.214   4.990   9.682  0.3620  0.0045 -0.1967
 9318TIP3    H149445   1.290   5.032   9.724  0.8465 -0.5349 -0.5218
 9318TIP3    H249446   1.216   4.900   9.714 -1.3461  0.4719  1.4229
 9319TIP3   OH249447   5.409   2.691   5.275  0.2068  0.2739  0.5528
 9319TIP3    H149448   5.466   2.696   5.198  1.5381  1.4749  1.5654
 9319TIP3    H249449   5.387   2.598   5.283 -0.0477  0.1386 -1.3180
 9320TIP3   OH249450   3.877   2.418  12.963  0.0058  0.3682  0.1178
 9320TIP3    H149451   3.875   2.511  12.986  2.2942  0.6474 -0.5441
 9320TIP3    H249452   3.970   2.399  12.947 -0.3714 -2.1012  0.4640
 9321TIP3   OH249453   1.698   5.118  12.673  0.1046  0.4553  0.3961
 9321TIP3    H149454   1.727   5.209  12.671  1.6757 -0.0294 -1.1501
 9321TIP3    H249455   1.700   5.089  12.581 -1.2252 -0.8957  0.7384
 9322TIP3   OH249456   6.846   2.919   9.734 -0.1681  0.2310 -0.1431
 9322TIP3    H149457   6.848   2.978   9.659  0.3397  0.2966 -0.0745
 9322TIP3    H249458   6.766   2.867   9.721  0.0964  0.0098 -0.9085
 9323TIP3   OH249459   0.148   4.704  13.379 -0.5801  0.0771  0.2510
 9323TIP3    H149460   0.119   4.686  13.290  1.7474 -0.1425 -0.5202
 9323TIP3    H249461   0.179   4.794  13.377 -1.8166  0.5601  1.2410
 9324TIP3   OH249462   0.708   0.175   5.131  0.3682  0.1954  0.1178
 9324TIP3    H149463   0.736   0.212   5.047 -1.4458 -0.4417 -0.8070
 9324TIP3    H249464   0.673   0.250   5.179 -2.9098 -0.0927 -1.5857
 9325TIP3   OH249465   3.595   6.009  11.421  0.3037 -0.1858 -0.5569
 9325TIP3    H149466   3.625   5.983  11.508 -3.5516 -4.8053 -0.1375
 9325TIP3    H249467   3.515   6.060  11.438  1.2409  1.7012 -1.5199
 9326TIP3   OH249468   0.403   1.345  12.842 -0.6822 -0.0758  0.4106
 9326TIP3    H149469   0.480   1.291  12.826 -0.5789 -0.1900  1.2610
 9326TIP3    H249470   0.374   1.321  12.930 -2.4414 -0.9832 -0.3456
 9327TIP3   OH249471   1.918   4.459  12.788 -0.1770  0.0907  0.3487
 9327TIP3    H149472   1.965   4.422  12.863  2.5683  0.3491 -1.1598
 9327TIP3    H249473   1.852   4.393  12.767  2.7079 -2.7649 -0.4915
 9328TIP3   OH249474   6.151   2.305  13.912  0.4213 -0.0751  0.1340
 9328TIP3    H149475   6.229   2.351  13.943  1.5714 -1.5841 -0.4237
 9328TIP3    H249476   6.078   2.356  13.947  1.6494  1.1623  0.9886
 9329TIP3   OH249477   0.802   5.366   1.969 -0.2407  0.4824  0.0848
 9329TIP3    H149478   0.811   5.281   2.012 -0.7772  0.3102 -0.1374
 9329TIP3    H249479   0.783   5.344   1.877  0.3539  0.8430 -0.1360
 9330TIP3   OH249480   6.529   2.042   1.554 -0.0970 -0.4458 -0.4160
 9330TIP3    H149481   6.449   2.009   1.513  0.3421 -0.0853 -1.6143
 9330TIP3    H249482   6.589   2.057   1.481  1.2517 -1.1636  0.4837
 9331TIP3   OH249483   5.548   6.019  12.407  0.3695 -0.6622  0.2679
 9331TIP3    H149484   5.631   6.037  12.364  0.5623  0.0654  0.9123
 9331TIP3    H249485   5.567   5.947  12.467  1.5457  1.8172  3.1261
 9332TIP3   OH249486   2.280   4.128  13.946 -0.6307 -0.0226  0.1840
 9332TIP3    H149487   2.198   4.121  13.996 -1.6248 -1.2088 -1.5213
 9332TIP3    H249488   2.340   4.069  13.991 -0.7821  0.6164  1.2687
 9333TIP3   OH249489   0.368   3.177  11.029 -0.3361 -0.2624 -0.1584
 9333TIP3    H149490   0.353   3.086  11.005  2.6979 -0.7626 -0.5398
 9333TIP3    H249491   0.282   3.209  11.057 -1.4518 -3.2781  0.2038
 9334TIP3   OH249492   5.147   6.954  13.368 -0.0144 -0.0508 -0.2163
 9334TIP3    H149493   5.104   7.032  13.405 -1.0626 -0.8960  0.3885
 9334TIP3    H249494   5.209   6.927  13.436  0.1150  0.0592 -0.2894
 9335TIP3   OH249495   2.826   0.581  13.728 -0.0403  0.0020  0.0378
 9335TIP3    H149496   2.819   0.660  13.782 -0.6428  0.2533 -0.3967
 9335TIP3    H249497   2.737   0.567  13.694  0.4044  0.1136 -1.2435
 9336TIP3   OH249498   3.820   5.425   9.936  0.0171  0.2974 -0.5864
 9336TIP3    H149499   3.914   5.417   9.922  0.2577 -0.1108  1.0789
 9336TIP3    H249500   3.807   5.515   9.963  0.0547  0.1362 -0.0178
 9337TIP3   OH249501   1.112   1.708  15.221 -0.0586  0.5290 -0.1024
 9337TIP3    H149502   1.185   1.646  15.226  0.6576  1.2995 -0.9109
 9337TIP3    H249503   1.107   1.745  15.309 -0.8701 -1.0626  0.5702
 9338TIP3   OH249504   1.312   7.172   1.133  0.1404  0.1677  0.2572
 9338TIP3    H149505   1.319   7.091   1.184 -0.4953  0.1161  0.2696
 9338TIP3    H249506   1.324   7.242   1.196  0.2732  0.0932  0.3166
 9339TIP3   OH249507   6.161   4.323  11.299  0.5829 -0.3328  0.6110
 9339TIP3    H149508   6.255   4.308  11.310  0.7706  0.0350 -0.3998
 9339TIP3    H249509   6.132   4.255  11.238  1.0657  2.0026 -2.4690
 9340TIP3   OH249510   2.947   0.585   3.692  0.0130 -0.3923 -0.2575
 9340TIP3    H149511   2.980   0.525   3.625  0.9467  0.5006 -0.6383
 9340TIP3    H249512   2.924   0.664   3.643  1.8960  0.7409  0.5758
 9341TIP3   OH249513   5.412   0.289  13.205  0.6059 -0.0605  0.3742
 9341TIP3    H149514   5.430   0.254  13.292 -1.0496  1.7562  1.5407
 9341TIP3    H249515   5.460   0.372  13.202  1.1878 -0.4100 -0.7412
 9342TIP3   OH249516   5.443   2.199  13.464 -0.2562  0.6023  0.3882
 9342TIP3    H149517   5.352   2.172  13.453  0.0513 -0.7655  1.0069
 9342TIP3    H249518   5.492   2.146  13.402  0.3127  0.0072  1.3241
 9343TIP3   OH249519   1.675   0.234   1.034 -0.1834 -0.6748  0.1553
 9343TIP3    H149520   1.609   0.204   1.095 -1.3794  1.3764 -0.0266
 9343TIP3    H249521   1.628   0.250   0.952  0.7825 -0.4560 -0.3794
 9344TIP3   OH249522   1.752   3.998   3.095  0.1735 -0.3616  0.0768
 9344TIP3    H149523   1.672   4.015   3.145  0.7231  0.9507  0.5613
 9344TIP3    H249524   1.771   4.080   3.050  1.3471 -0.5848  0.1233
 9345TIP3   OH249525   3.314   6.959  14.631 -0.2150 -0.4335  0.0519
 9345TIP3    H149526   3.251   6.996  14.693 -0.2157  2.3949 -1.5107
 9345TIP3    H249527   3.264   6.945  14.551  1.0198  1.7192 -1.1681
 9346TIP3   OH249528   1.846   6.588   3.481 -0.2234 -0.0929 -0.1648
 9346TIP3    H149529   1.874   6.554   3.566  1.8417 -0.9902 -1.1316
 9346TIP3    H249530   1.840   6.510   3.426 -1.2440  0.5158 -0.9478
 9347TIP3   OH249531   2.707   1.738   0.748 -0.2409 -0.3569 -0.7114
 9347TIP3    H149532   2.635   1.682   0.775 -1.5901  1.2688 -0.7648
 9347TIP3    H249533   2.692   1.753   0.654  0.1750 -0.0225 -0.7261
 9348TIP3   OH249534   1.070   3.121   1.108 -0.0028 -0.0247  0.0775
 9348TIP3    H149535   1.011   3.127   1.032  0.1356 -1.8699 -0.2196
 9348TIP3    H249536   1.156   3.102   1.070 -0.0172 -1.4024  0.7097
 9349TIP3   OH249537   7.246   0.225  14.312  0.1622  0.2586 -0.8125
 9349TIP3    H149538   7.160   0.208  14.272 -0.0284  1.6479 -1.0202
 9349TIP3    H249539   7.248   0.167  14.388 -0.8197 -0.0292 -0.9847
 9350TIP3   OH249540   0.478   2.154   2.685  0.4206  0.0457  0.8183
 9350TIP3    H149541   0.409   2.215   2.711 -0.3292  0.1225 -1.1672
 9350TIP3    H249542   0.525   2.135   2.766 -1.3056  0.7692  2.0579
 9351TIP3   OH249543   7.223   5.174  13.463  0.3916 -0.3221  0.5741
 9351TIP3    H149544   7.199   5.082  13.463 -1.4129  0.0941  1.0652
 9351TIP3    H249545   7.263   5.189  13.549  0.8238 -0.6837  0.4340
 9352TIP3   OH249546   0.092   5.821  13.843 -0.1612 -0.0621 -0.1479
 9352TIP3    H149547  -0.000   5.821  13.868 -0.1653  0.3236 -0.1639
 9352TIP3    H249548   0.134   5.883  13.903 -0.1350  0.7030 -0.9428
 9353TIP3   OH249549   5.518   2.036  12.591  0.3480  0.0233  0.1796
 9353TIP3    H149550   5.586   2.099  12.568  2.7316 -2.3514  0.1431
 9353TIP3    H249551   5.484   2.005  12.507  1.3384 -0.8407  0.0697
 9354TIP3   OH249552   4.848   0.470  11.357 -0.0784  0.4623 -0.2673
 9354TIP3    H149553   4.904   0.463  11.279 -2.5034  1.3289 -2.2276
 9354TIP3    H249554   4.759   0.469  11.322 -1.3276 -0.5063  2.6669
 9355TIP3   OH249555   3.501   4.781   0.331 -0.1075 -0.2134 -0.1135
 9355TIP3    H149556   3.411   4.812   0.322 -0.0689 -0.2076 -0.4754
 9355TIP3    H249557   3.531   4.767   0.242  0.7461  1.2175 -0.0771
 9356TIP3   OH249558   4.648   1.303  11.279 -0.6660  0.9436  0.4423
 9356TIP3    H149559   4.618   1.302  11.188 -0.4059 -0.1907  0.3643
 9356TIP3    H249560   4.730   1.352  11.277 -0.5669  0.7612  0.0336
 9357TIP3   OH249561   6.678   1.519   1.085  0.0653  0.4899 -0.2470
 9357TIP3    H149562   6.604   1.509   1.145  0.0784  1.0026 -0.1364
 9357TIP3    H249563   6.670   1.447   1.023 -0.2188  0.2312  0.0918
 9358TIP3   OH249564   6.523   1.572  13.199  0.1689 -0.0290  0.2262
 9358TIP3    H149565   6.435   1.543  13.223 -0.3329  0.2011 -1.2358
 9358TIP3    H249566   6.557   1.613  13.278  0.3305 -3.1728  1.9288
 9359TIP3   OH249567   1.412   2.549  11.313 -0.1111 -0.7097  0.7192
 9359TIP3    H149568   1.341   2.612  11.322 -0.5529 -1.1623  0.4577
 9359TIP3    H249569   1.375   2.466  11.344  0.3879 -0.8962  0.8347
 9360TIP3   OH249570   2.131   6.088  10.067 -0.1851  0.0865 -0.3604
 9360TIP3    H149571   2.198   6.079  10.135  2.6016  0.5024 -2.8496
 9360TIP3    H249572   2.105   5.998  10.047  0.7094 -0.1874 -0.3319
 9361TIP3   OH249573   0.469   4.233  12.044 -0.3955 -0.6596 -0.0163
 9361TIP3    H149574   0.529   4.281  12.101  0.0964  0.1838 -1.2181
 9361TIP3    H249575   0.483   4.270  11.957 -0.3282 -2.6838 -0.9133
 9362TIP3   OH249576   1.494   0.887  10.512  0.1839  0.5215  0.7018
 9362TIP3    H149577   1.442   0.944  10.569 -2.5864  0.0934 -1.2040
 9362TIP3    H249578   1.502   0.935  10.430 -1.4450 -1.3298 -0.6503
 9363TIP3   OH249579   1.314   2.850  13.523 -0.3072  0.7428 -0.3123
 9363TIP3    H149580   1.295   2.783  13.457  2.4166 -2.8416  2.1166
 9363TIP3    H249581   1.229   2.869  13.563 -1.3731 -0.1884 -2.0251
 9364TIP3   OH249582   0.281   1.935   3.200  0.2822 -0.8061  0.0290
 9364TIP3    H149583   0.336   1.867   3.161 -1.1983 -0.4362 -3.0114
 9364TIP3    H249584   0.211   1.886   3.244 -0.3089 -1.3208 -1.4196
 9365TIP3   OH249585   2.784   0.156   0.522  0.4064 -0.4053  0.8344
 9365TIP3    H149586   2.726   0.232   0.528  0.9879  0.0574  0.6204
 9365TIP3    H249587   2.733   0.091   0.474  0.6426  0.5599 -0.7779
 9366TIP3   OH249588   3.467   5.017  10.375  0.2128  0.0929 -0.2703
 9366TIP3    H149589   3.398   4.997  10.311 -1.3366  0.9095  1.0669
 9366TIP3    H249590   3.489   4.932  10.413  1.1441 -0.4013 -1.8316
 9367TIP3   OH249591   0.870   2.122   9.780  0.2105 -0.4811  0.2454
 9367TIP3    H149592   0.889   2.085   9.693  0.6421 -0.4352  0.3181
 9367TIP3    H249593   0.799   2.184   9.764  0.7750  0.0632 -0.1994
 9368TIP3   OH249594   0.573   1.004  11.141  0.0085  0.3601 -0.3496
 9368TIP3    H149595   0.502   0.987  11.079 -1.3203  1.3355  0.8616
 9368TIP3    H249596   0.653   0.988  11.090 -1.0281 -2.7671 -1.1944
 9369TIP3   OH249597   6.923   2.420  14.666 -0.0671  0.2520 -0.5151
 9369TIP3    H149598   6.952   2.390  14.579  0.4436  0.9513 -0.5985
 9369TIP3    H249599   6.837   2.381  14.677  0.3778 -0.8653 -0.8053
 9370TIP3   OH249600   1.979   5.867   9.398 -0.2303 -0.3862  0.1814
 9370TIP3    H149601   1.944   5.957   9.401 -1.2579 -0.7811  1.5962
 9370TIP3    H249602   2.059   5.871   9.450 -0.2347 -0.2670  0.1793
 9371TIP3   OH249603   7.019   0.186   9.361  0.3340  0.2771 -0.3615
 9371TIP3    H149604   7.056   0.098   9.351 -1.7119 -1.0426  2.2457
 9371TIP3    H249605   7.079   0.243   9.314  2.8005 -2.2696 -0.5638
 9372TIP3   OH249606   4.583   6.056  13.277 -0.8774  0.3636 -0.2954
 9372TIP3    H149607   4.629   6.096  13.351  0.4619  0.4372 -1.1371
 9372TIP3    H249608   4.618   6.100  13.200 -2.0012  0.0445 -1.0140
 9373TIP3   OH249609   5.794   1.821  14.951  0.5305 -0.0256  0.0635
 9373TIP3    H149610   5.702   1.797  14.947  0.2206  0.3732  2.7027
 9373TIP3    H249611   5.797   1.912  14.921  0.3819 -0.5593 -1.6704
 9374TIP3   OH249612   2.833   6.561   1.256  0.3153  0.5876 -0.4345
 9374TIP3    H149613   2.773   6.635   1.248  1.4766  1.4805 -1.1922
 9374TIP3    H249614   2.848   6.552   1.350  1.3205  2.3230 -0.3712
 9375TIP3   OH249615   6.803   0.999   2.443 -0.3097  0.6253  0.3992
 9375TIP3    H149616   6.708   0.996   2.436 -0.3451 -0.7267  1.0578
 9375TIP3    H249617   6.822   0.970   2.532  0.7146  0.8674  0.2760
 9376TIP3   OH249618   0.807   2.960  11.753  0.5500  0.2065 -0.5824
 9376TIP3    H149619   0.759   2.989  11.676 -0.5225  0.6215  0.2254
 9376TIP3    H249620   0.895   2.998  11.742 -0.3967  2.6597 -0.2435
 9377TIP3   OH249621   0.041   4.677  14.048  0.0331 -0.0829 -0.0796
 9377TIP3    H149622  -0.009   4.598  14.069 -2.8644  1.6069 -0.1229
 9377TIP3    H249623   0.129   4.660  14.082 -1.4659 -1.8502  3.3186
 9378TIP3   OH249624   1.497   5.901  14.673 -0.4283 -0.4144  0.2040
 9378TIP3    H149625   1.511   5.842  14.598 -1.5902  0.8338 -1.0458
 9378TIP3    H249626   1.452   5.846  14.738 -0.9038 -1.0979 -0.6772
 9379TIP3   OH249627   4.414   2.841  10.899 -0.6414  0.2199  0.4358
 9379TIP3    H149628   4.339   2.846  10.839  0.6418 -2.7705 -1.6947
 9379TIP3    H249629   4.396   2.764  10.953  0.2025  0.3823  0.9653
 9380TIP3   OH249630   0.328   5.774  12.993  0.0506 -0.0625 -0.5990
 9380TIP3    H149631   0.400   5.807  12.939  1.2690 -1.5710  0.0324
 9380TIP3    H249632   0.293   5.700  12.944 -0.9836  0.5573 -0.8190
 9381TIP3   OH249633   2.797   0.569  11.839 -0.0452 -0.2898  0.4130
 9381TIP3    H149634   2.732   0.625  11.882 -2.4606 -1.0968 -1.9255
 9381TIP3    H249635   2.872   0.568  11.900 -1.2530  2.5836  2.1453
 9382TIP3   OH249636   1.904   2.724   3.570 -0.6137  0.0176  0.2089
 9382TIP3    H149637   1.887   2.631   3.581 -0.6602 -0.0183 -0.1703
 9382TIP3    H249638   1.975   2.729   3.506 -1.5045  0.2857 -0.7833
 9383TIP3   OH249639   4.605   4.774   2.531 -0.4852  0.4284 -0.2352
 9383TIP3    H149640   4.681   4.797   2.478  1.5323 -2.1860  1.2533
 9383TIP3    H249641   4.554   4.715   2.476  0.6757 -0.8807  0.0370
 9384TIP3   OH249642   6.917   5.812   1.611  0.0566  0.3478 -0.2783
 9384TIP3    H149643   6.961   5.793   1.695 -4.6146 -0.4835  2.3243
 9384TIP3    H249644   6.864   5.735   1.594 -2.6420  2.2865 -1.4319
 9385TIP3   OH249645   0.679   2.277  12.214  0.5360  0.0990  0.2773
 9385TIP3    H149646   0.622   2.354  12.223 -1.4934 -1.1759 -0.8607
 9385TIP3    H249647   0.727   2.292  12.132  0.2350  0.2068  0.1209
 9386TIP3   OH249648   5.657   6.664  12.453  0.1722 -0.2086  0.1549
 9386TIP3    H149649   5.738   6.623  12.422  0.3911 -0.4506  1.0063
 9386TIP3    H249650   5.676   6.757  12.451  0.4886 -0.2643  0.3822
 9387TIP3   OH249651   6.338   1.497  15.070  0.0234 -0.1169  0.8670
 9387TIP3    H149652   6.341   1.401  15.077 -2.4948 -0.5433 -1.7537
 9387TIP3    H249653   6.413   1.519  15.014 -0.8249 -0.9644 -0.6956
 9388TIP3   OH249654   4.725   5.749  12.436  0.0450  0.3396 -0.0046
 9388TIP3    H149655   4.659   5.801  12.482  0.3556  0.9570 -0.2381
 9388TIP3    H249656   4.782   5.814  12.395 -0.1446 -0.1919 -1.1523
 9389TIP3   OH249657   3.609   5.683   6.081  0.4700 -0.1334  0.5647
 9389TIP3    H149658   3.655   5.602   6.102 -0.7896 -0.9560  0.2505
 9389TIP3    H249659   3.534   5.684   6.141 -1.1935 -0.7221 -1.3873
 9390TIP3   OH249660   4.907   1.460  15.298 -0.4683  0.3684  0.3130
 9390TIP3    H149661   4.888   1.420  15.383 -2.5237 -0.1812 -0.3411
 9390TIP3    H249662   4.823   1.495  15.269  0.1216  0.2883 -1.6253
 9391TIP3   OH249663   0.473   5.405   4.896  0.2724  0.1461 -0.4802
 9391TIP3    H149664   0.552   5.459   4.900  0.4464  0.0624 -2.1118
 9391TIP3    H249665   0.407   5.456   4.942  0.9198  0.8654 -0.3167
 9392TIP3   OH249666   1.972   3.347   0.241  0.2048 -0.0657  0.7764
 9392TIP3    H149667   1.918   3.353   0.320 -0.2762 -0.1237  0.4625
 9392TIP3    H249668   1.925   3.284   0.185 -0.4910  1.3663 -0.3292
 9393TIP3   OH249669   1.250   4.642  12.550 -0.5367  0.1819  0.1212
 9393TIP3    H149670   1.285   4.722  12.511  0.3682 -0.3753 -0.2569
 9393TIP3    H249671   1.244   4.581  12.477 -2.9013  0.4209  0.0555
 9394TIP3   OH249672   1.088   0.913  12.799  0.3491 -0.1626  0.0809
 9394TIP3    H149673   1.023   0.922  12.869 -2.0068  1.6897 -2.1580
 9394TIP3    H249674   1.108   1.003  12.773  0.0352 -0.7599 -2.5209
 9395TIP3   OH249675   6.826   7.215  12.181  0.7793  0.7134  0.5158
 9395TIP3    H149676   6.906   7.166  12.163 -0.1278 -0.5168 -0.2886
 9395TIP3    H249677   6.779   7.216  12.098 -0.0810  1.3619  0.9927
 9396TIP3   OH249678   1.981   3.911  15.291  0.1938  1.3587  0.2077
 9396TIP3    H149679   2.037   3.932  15.366  1.7777 -0.0012 -0.5240
 9396TIP3    H249680   2.000   3.819  15.272 -3.5917  0.2582  0.9671
 9397TIP3   OH249681   0.178   5.289  13.319  0.2960 -0.2604  0.4391
 9397TIP3    H149682   0.086   5.265  13.330  0.0656 -0.2710 -1.3232
 9397TIP3    H249683   0.196   5.275  13.226  2.0648 -0.1787  0.7317
 9398TIP3   OH249684   4.857   0.190  14.435  0.7425  0.2325 -0.3293
 9398TIP3    H149685   4.845   0.284  14.442 -2.1042 -0.1626  2.9028
 9398TIP3    H249686   4.879   0.162  14.523 -1.8656 -2.3654 -0.3343
 9399TIP3   OH249687   4.040   4.449  12.887 -0.1707  0.0146  0.2829
 9399TIP3    H149688   4.090   4.531  12.889 -0.0289 -0.0080 -1.1033
 9399TIP3    H249689   4.077   4.400  12.813 -0.8884 -0.8881  0.4981
 9400TIP3   OH249690   0.819   0.295  11.534 -0.0290 -0.4874  0.5852
 9400TIP3    H149691   0.860   0.381  11.544 -1.6592  0.3100  0.6774
 9400TIP3    H249692   0.776   0.298  11.449 -2.8527  0.0626  1.9212
 9401TIP3   OH249693   5.790   4.912   0.319  0.7448 -0.0810  0.6016
 9401TIP3    H149694   5.702   4.940   0.295  0.3772 -2.0604 -0.6448
 9401TIP3    H249695   5.837   4.993   0.341 -0.6168  1.2917 -1.2655
 9402TIP3   OH249696   3.188   3.126  14.120  0.4524 -0.5959  0.1945
 9402TIP3    H149697   3.227   3.207  14.152 -1.7083 -0.0468  1.6439
 9402TIP3    H249698   3.235   3.057  14.166  0.4898 -0.0335  1.0193
 9403TIP3   OH249699   2.549   0.372  14.281 -1.1425 -0.4281  0.0927
 9403TIP3    H149700   2.544   0.281  14.312  0.5692 -0.1288  1.3478
 9403TIP3    H249701   2.640   0.397  14.293 -1.7894  1.8334  0.8179
 9404TIP3   OH249702   0.682   2.917  11.487  0.0696 -0.0842 -0.3104
 9404TIP3    H149703   0.708   2.954  11.403  0.7163 -0.0644 -0.1019
 9404TIP3    H249704   0.587   2.930  11.490  0.3294  2.1235  0.0276
 9405TIP3   OH249705   4.245   1.196   1.632  0.2689  0.5455 -0.0278
 9405TIP3    H149706   4.303   1.124   1.606 -1.1190  0.1805 -2.3972
 9405TIP3    H249707   4.221   1.176   1.722  2.9901  0.2103  0.7233
 9406TIP3   OH249708   5.453   0.019   4.012  0.2191 -0.6699  0.2337
 9406TIP3    H149709   5.404  -0.063   4.004 -1.8867  0.3719  1.5442
 9406TIP3    H249710   5.486   0.019   4.102  2.6228 -1.2526 -0.5516
 9407TIP3   OH249711   2.527   5.131  12.292 -0.0237 -0.0667  0.5065
 9407TIP3    H149712   2.597   5.083  12.336 -0.1317 -1.1728 -0.4838
 9407TIP3    H249713   2.457   5.067  12.279 -1.2082  0.9956  1.3913
 9408TIP3   OH249714   5.614   5.244  12.688  0.3902 -0.4438  0.3816
 9408TIP3    H149715   5.563   5.280  12.615  2.3263 -0.7158 -1.1865
 9408TIP3    H249716   5.573   5.280  12.766 -1.0164  0.8521 -0.8984
 9409TIP3   OH249717   5.955   6.575   2.653 -0.0895  0.1438  0.7507
 9409TIP3    H149718   5.954   6.572   2.557 -0.3804  0.1264  0.7537
 9409TIP3    H249719   5.958   6.483   2.679 -0.4286  0.1336  0.7607
 9410TIP3   OH249720   4.914   1.395   1.406 -0.5430  0.3393  0.0878
 9410TIP3    H149721   5.007   1.419   1.400 -0.2915 -0.7483 -0.7937
 9410TIP3    H249722   4.896   1.393   1.500  0.8133 -1.1342  0.3670
 9411TIP3   OH249723   6.956   5.448  12.546 -0.0281 -0.5711  0.0842
 9411TIP3    H149724   6.910   5.409  12.621 -0.4897  0.5797  0.4232
 9411TIP3    H249725   7.024   5.502  12.586  1.1642 -1.6656 -0.3986
 9412TIP3   OH249726   2.385   5.607   1.923  0.1015  0.3455 -0.1794
 9412TIP3    H149727   2.394   5.550   1.847 -0.0436  1.1436 -0.8186
 9412TIP3    H249728   2.460   5.587   1.978  0.7749  0.4689 -1.0305
 9413TIP3   OH249729   1.274   0.895   4.894  1.0095 -0.1023 -0.4951
 9413TIP3    H149730   1.361   0.855   4.887  0.9320 -0.0736 -1.9901
 9413TIP3    H249731   1.291   0.989   4.887  0.8774 -0.0747 -0.4489
 9414TIP3   OH249732   6.113   2.737  12.645 -0.6062 -0.2544 -0.3346
 9414TIP3    H149733   6.097   2.765  12.555  0.7974  0.0076 -0.5326
 9414TIP3    H249734   6.154   2.813  12.686  1.4993 -1.3261 -0.3423
 9415TIP3   OH249735   6.564   2.999  15.343  0.0396 -0.1649 -0.4055
 9415TIP3    H149736   6.558   2.933  15.411  0.5758 -0.4735 -0.6480
 9415TIP3    H249737   6.564   2.949  15.261  2.1702 -0.0138 -0.5463
 9416TIP3   OH249738   4.259   1.580  13.771  0.1218  0.5008 -0.6000
 9416TIP3    H149739   4.186   1.597  13.831 -0.1620  0.4105 -0.9160
 9416TIP3    H249740   4.293   1.667  13.749 -0.4072  0.5907 -1.0849
 9417TIP3   OH249741   6.820   2.458  13.686 -0.3982  0.7544 -0.1169
 9417TIP3    H149742   6.808   2.553  13.690 -1.2202  0.6301  0.5119
 9417TIP3    H249743   6.766   2.424  13.756  2.7351  0.0333  2.1786
 9418TIP3   OH249744   4.261   3.607   3.833  0.0652 -0.0760  0.8511
 9418TIP3    H149745   4.342   3.636   3.790 -0.7922 -1.7665 -2.2444
 9418TIP3    H249746   4.201   3.681   3.820  0.5615  0.4556  1.5105
 9419TIP3   OH249747   1.129   5.827   1.674 -0.0072 -0.5096  0.4052
 9419TIP3    H149748   1.074   5.881   1.617  0.8089  0.2105  0.2711
 9419TIP3    H249749   1.070   5.762   1.711 -0.6227 -0.7914 -1.0166
 9420TIP3   OH249750   1.199   4.148  13.080  0.2685  0.3529 -0.5251
 9420TIP3    H149751   1.169   4.072  13.030  0.4861  0.5841 -1.0184
 9420TIP3    H249752   1.294   4.137  13.084  0.3193  0.6950 -0.7627
 9421TIP3   OH249753   4.198   7.161  12.376 -0.5579 -0.4446  0.0192
 9421TIP3    H149754   4.235   7.249  12.372 -2.0939  0.2283 -0.1021
 9421TIP3    H249755   4.212   7.124  12.289  0.4731 -0.5003  0.1985
 9422TIP3   OH249756   3.165   6.421  11.242  0.0514 -0.1836  0.0487
 9422TIP3    H149757   3.207   6.419  11.328  1.0870  1.1341 -0.3986
 9422TIP3    H249758   3.233   6.390  11.182 -0.7963 -1.4904 -0.2862
 9423TIP3   OH249759   5.473   0.844   5.013  0.3397  0.9861  0.3860
 9423TIP3    H149760   5.547   0.905   5.010  1.1901 -0.0224  0.3887
 9423TIP3    H249761   5.507   0.766   5.056 -0.4508  0.1221 -0.4957
 9424TIP3   OH249762   6.777   6.468   4.105 -0.0404 -0.4815 -0.0830
 9424TIP3    H149763   6.859   6.437   4.145  0.9959  1.7228 -0.3394
 9424TIP3    H249764   6.751   6.543   4.159  0.0962  1.0707 -2.0618
 9425TIP3   OH249765   2.256   4.610  11.607  0.3917 -0.4735  0.3761
 9425TIP3    H149766   2.178   4.589  11.556  0.5104 -0.0138  0.0021
 9425TIP3    H249767   2.295   4.685  11.562  0.9286 -0.5607  0.6863
 9426TIP3   OH249768   3.921   6.583  11.644  0.4306  0.2233 -0.0628
 9426TIP3    H149769   3.840   6.585  11.593 -0.2333  0.0023  0.9592
 9426TIP3    H249770   3.906   6.645  11.715  0.1270 -1.6626  1.6141
 9427TIP3   OH249771   4.357   5.764   0.158  0.3370  0.3347  0.4254
 9427TIP3    H149772   4.302   5.701   0.111  0.3703  0.4192  0.2706
 9427TIP3    H249773   4.307   5.846   0.155  1.3047  0.9206 -1.4081
 9428TIP3   OH249774   6.690   5.768  10.142 -0.1350 -0.0613 -0.2955
 9428TIP3    H149775   6.666   5.762  10.234 -2.0121  1.4137 -0.6132
 9428TIP3    H249776   6.762   5.706  10.131 -0.4126 -0.8636  1.9659
 9429TIP3   OH249777   2.509   0.312   0.570 -0.5098  0.2208 -0.6408
 9429TIP3    H149778   2.561   0.356   0.637  2.1834 -1.8465 -1.2065
 9429TIP3    H249779   2.467   0.240   0.616 -0.3422  0.0469 -0.7561
 9430TIP3   OH249780   0.181   1.085  13.512 -0.2440  0.3204 -0.5418
 9430TIP3    H149781   0.129   1.105  13.434 -0.0019  0.5228 -0.6503
 9430TIP3    H249782   0.272   1.084  13.482 -0.2056 -0.4023 -0.4226
 9431TIP3   OH249783   0.285   0.130  13.663 -0.1788 -0.5203 -0.0770
 9431TIP3    H149784   0.317   0.040  13.663 -0.6542 -0.7036  0.8207
 9431TIP3    H249785   0.218   0.131  13.732  0.4003  0.7279  0.4882
 9432TIP3   OH249786   4.664   0.309  11.876 -0.0438 -0.3937  0.2903
 9432TIP3    H149787   4.758   0.291  11.868 -0.2646 -1.3497 -0.3434
 9432TIP3    H249788   4.652   0.329  11.969  1.0292  1.3289  0.0969
 9433TIP3   OH249789   5.012   4.960  14.163 -0.0126 -0.2329 -0.4607
 9433TIP3    H149790   5.036   5.011  14.086  0.9359  0.4561  0.2545
 9433TIP3    H249791   5.048   5.010  14.236  1.2204 -2.0853  0.2689
 9434TIP3   OH249792   3.904   5.228   4.855 -0.2956  0.5755 -0.2541
 9434TIP3    H149793   3.882   5.308   4.806  0.6859  0.8474 -0.2862
 9434TIP3    H249794   3.996   5.212   4.833 -0.5805 -0.8003 -0.5634
 9435TIP3   OH249795   4.172   4.595   5.819  0.2171 -0.4613  0.4896
 9435TIP3    H149796   4.238   4.616   5.753 -1.3529 -2.5308 -1.9571
 9435TIP3    H249797   4.211   4.525   5.871  0.3363 -1.0227 -0.3355
 9436TIP3   OH249798   5.935   0.665  13.880  0.3779  0.4198 -0.1072
 9436TIP3    H149799   5.902   0.736  13.935  0.7785  0.0563  0.6178
 9436TIP3    H249800   5.964   0.709  13.800  3.5722  1.6116  1.4941
 9437TIP3   OH249801   6.558   3.000   4.852  0.3313 -0.1090  0.2589
 9437TIP3    H149802   6.572   3.092   4.829  1.6716  0.0168  1.4511
 9437TIP3    H249803   6.627   2.980   4.915  0.6441 -2.2001 -0.6527
 9438TIP3   OH249804   3.007   5.939  14.086 -0.2655 -0.9573  0.0225
 9438TIP3    H149805   3.061   5.941  14.007 -0.8181 -1.9945 -0.4109
 9438TIP3    H249806   2.971   5.850  14.087 -0.6455 -0.7980  1.1889
 9439TIP3   OH249807   5.213   4.598   1.777 -0.3398  0.0632 -0.7025
 9439TIP3    H149808   5.130   4.627   1.740 -0.3574 -0.4674 -1.0896
 9439TIP3    H249809   5.242   4.528   1.718  0.2461  0.0628 -0.4160
 9440TIP3   OH249810   5.162   4.148   5.349 -0.3113 -0.5147  0.5404
 9440TIP3    H149811   5.103   4.119   5.280 -0.4196 -0.4092  0.5886
 9440TIP3    H249812   5.234   4.191   5.303 -0.5662 -0.1137  0.5093
 9441TIP3   OH249813   6.518   1.835   9.951  0.2755  0.4162  0.0744
 9441TIP3    H149814   6.480   1.910   9.904 -0.7819 -0.1816 -0.0390
 9441TIP3    H249815   6.544   1.871  10.035  0.0127  0.9736 -0.0766
 9442TIP3   OH249816   0.077   2.291  10.894 -0.2038 -0.3777  0.3694
 9442TIP3    H149817   0.042   2.248  10.972 -1.2515  1.4496  0.9708
 9442TIP3    H249818   0.171   2.294  10.908 -0.3696 -0.1993  1.5051
 9443TIP3   OH249819   3.349   6.068   0.432 -0.0515  0.7358  0.4048
 9443TIP3    H149820   3.405   6.145   0.423 -0.4891  0.9305 -1.1186
 9443TIP3    H249821   3.338   6.037   0.342 -2.3745  0.7223  0.6336
 9444TIP3   OH249822   5.709   4.918  10.146  0.0859  0.2540 -0.3817
 9444TIP3    H149823   5.721   4.878  10.060  3.2651 -0.8465  0.4528
 9444TIP3    H249824   5.706   4.845  10.207 -4.4502  0.8399  0.4618
 9445TIP3   OH249825   5.307   4.411  14.232  0.0206  0.2576  0.1683
 9445TIP3    H149826   5.388   4.461  14.219  0.2104 -0.4027 -1.3106
 9445TIP3    H249827   5.324   4.326  14.191 -0.6845 -0.6739  1.7131
 9446TIP3   OH249828   6.521   1.529  12.643 -0.0802 -0.1774 -0.5082
 9446TIP3    H149829   6.561   1.583  12.711  0.1075  0.5137 -1.1536
 9446TIP3    H249830   6.561   1.442  12.655  0.0268 -0.0384  0.1877
 9447TIP3   OH249831   1.857   4.010   9.886 -0.6121 -0.3235  0.0497
 9447TIP3    H149832   1.861   3.952   9.809  0.2219 -1.0473  0.6142
 9447TIP3    H249833   1.940   4.057   9.884 -0.1974 -0.9849  0.9758
 9448TIP3   OH249834   6.832   7.023   0.437  0.1703  0.4084  0.2210
 9448TIP3    H149835   6.782   7.094   0.396  2.5021  2.4677  0.6957
 9448TIP3    H249836   6.784   7.002   0.517 -0.3734  1.7435  0.2731
 9449TIP3   OH249837   1.863   5.463  12.260 -0.0201 -0.0356  0.5053
 9449TIP3    H149838   1.904   5.493  12.341 -0.0470  0.1272  0.4593
 9449TIP3    H249839   1.929   5.407  12.219  0.5409  0.9944 -0.0377
 9450TIP3   OH249840   2.710   2.928  10.319  0.3877  0.6794  0.4114
 9450TIP3    H149841   2.638   2.912  10.381  0.3246  0.5184  0.2975
 9450TIP3    H249842   2.666   2.940  10.235  0.3912  1.9790  0.5718
 9451TIP3   OH249843   2.849   2.661   1.166  0.2273  0.5576 -0.0302
 9451TIP3    H149844   2.922   2.720   1.149  0.6737  0.4748  1.4600
 9451TIP3    H249845   2.883   2.574   1.148 -0.3558  0.6929 -1.9837
 9452TIP3   OH249846   6.638   1.958   4.670  0.2232  0.4244  0.3637
 9452TIP3    H149847   6.699   1.955   4.744  0.3894  4.3703  0.6092
 9452TIP3    H249848   6.694   1.970   4.594 -0.0675  3.4819  0.5254
 9453TIP3   OH249849   7.162   6.413   1.442  0.0902  0.2317 -0.1549
 9453TIP3    H149850   7.161   6.336   1.498  1.0587  0.2244 -0.1299
 9453TIP3    H249851   7.081   6.406   1.390  0.5643 -1.2406 -0.7360
 9454TIP3   OH249852   2.828   2.246   1.644  0.3488  0.1663 -0.4905
 9454TIP3    H149853   2.742   2.254   1.603  1.1848 -0.9258 -2.6375
 9454TIP3    H249854   2.886   2.300   1.590  1.8111 -2.6112 -1.9854
 9455TIP3   OH249855   1.879   4.637  11.575  0.5434  0.4379  0.7620
 9455TIP3    H149856   1.940   4.710  11.565  1.1670 -0.2788 -0.9142
 9455TIP3    H249857   1.802   4.663  11.524  1.9821 -1.3081 -2.6059
 9456TIP3   OH249858   3.445   5.277   0.868  0.3787 -0.3876 -0.4347
 9456TIP3    H149859   3.386   5.351   0.881 -0.1929 -1.0153  0.6499
 9456TIP3    H249860   3.395   5.216   0.814  1.2281  0.4174 -2.2276
 9457TIP3   OH249861   3.729   6.340   3.602 -0.6338  0.3187  0.0739
 9457TIP3    H149862   3.714   6.293   3.520  0.1765 -1.9147  1.1246
 9457TIP3    H249863   3.822   6.330   3.619 -0.7753  0.8392  1.2392
 9458TIP3   OH249864   5.330   0.146  11.630  0.2027 -0.3359 -0.2823
 9458TIP3    H149865   5.360   0.125  11.719 -1.0448 -1.5094 -0.1013
 9458TIP3    H249866   5.279   0.069  11.604 -1.7957  1.1388 -0.9251
 9459TIP3   OH249867   1.979   3.949  13.834 -0.1191 -0.4845 -0.3100
 9459TIP3    H149868   1.907   3.929  13.774  0.3999  0.4246 -1.2602
 9459TIP3    H249869   1.953   4.031  13.876  0.4319 -0.0477 -0.8008
 9460TIP3   OH249870   4.564   1.268  10.298 -0.3318 -0.3815 -0.6747
 9460TIP3    H149871   4.560   1.201  10.230 -0.1663 -0.3483 -0.7162
 9460TIP3    H249872   4.476   1.305  10.300 -0.4540 -0.6788 -0.5717
 9461TIP3   OH249873   1.924   7.165   9.971  0.2876  0.3119 -0.5674
 9461TIP3    H149874   1.851   7.139   9.914 -0.3981  0.1754  0.3463
 9461TIP3    H249875   1.972   7.084   9.988  1.2091  0.5522 -1.9069
 9462TIP3   OH249876   4.188   2.501  14.421  0.1884 -0.2453  0.2506
 9462TIP3    H149877   4.206   2.497  14.515  1.1020  2.6707  0.3060
 9462TIP3    H249878   4.096   2.477  14.413  0.2895 -1.2746  1.7737
 9463TIP3   OH249879   3.758   4.920  11.212 -0.0040  0.2924 -0.2482
 9463TIP3    H149880   3.672   4.945  11.247  1.3249  1.0748  2.6713
 9463TIP3    H249881   3.767   4.828  11.236  0.3409  0.4620  0.2868
 9464TIP3   OH249882   5.791   6.838   0.059  0.0732 -0.1384  0.0245
 9464TIP3    H149883   5.718   6.780   0.038  1.1495 -1.6769  0.2984
 9464TIP3    H249884   5.765   6.882   0.139 -0.3842 -1.0042  0.3670
 9465TIP3   OH249885   6.101   5.747  10.752  0.2399  0.3697  0.0538
 9465TIP3    H149886   6.076   5.679  10.689  1.1588 -1.1697  1.2727
 9465TIP3    H249887   6.038   5.817  10.737 -2.0667 -1.5559  0.0786
 9466TIP3   OH249888   2.468   4.963  14.817 -0.4697 -0.1643  0.0115
 9466TIP3    H149889   2.511   5.033  14.865 -0.0036  0.7563 -1.6791
 9466TIP3    H249890   2.534   4.894  14.811 -0.4695 -0.2139  0.5063
 9467TIP3   OH249891   3.629   2.915  14.518  0.2172  0.1166 -0.5357
 9467TIP3    H149892   3.633   2.992  14.462  0.7351 -1.0344 -2.1573
 9467TIP3    H249893   3.568   2.856  14.473 -1.3446  0.1360  1.4382
 9468TIP3   OH249894   6.545   3.239  14.384 -0.0442 -0.1451 -0.2710
 9468TIP3    H149895   6.597   3.180  14.439  1.9407  1.7494  0.0111
 9468TIP3    H249896   6.496   3.292  14.446  0.4257  0.4371 -0.3878
 9469TIP3   OH249897   6.615   7.188   4.719 -0.2317 -0.0198 -0.1118
 9469TIP3    H149898   6.628   7.213   4.628 -2.6198  0.7144 -0.3331
 9469TIP3    H249899   6.570   7.263   4.758 -0.7002 -0.9629  1.2293
 9470TIP3   OH249900   6.915   6.571   4.999 -0.0403 -0.0346  0.4743
 9470TIP3    H149901   6.925   6.615   5.084  1.3203  1.6418 -0.4912
 9470TIP3    H249902   6.982   6.610   4.944 -1.4326 -0.4694 -1.6386
 9471TIP3   OH249903   3.622   5.055   1.182  0.5343 -0.1913 -0.1940
 9471TIP3    H149904   3.589   5.121   1.243 -0.0799 -0.7393  0.0803
 9471TIP3    H249905   3.549   5.041   1.121  0.0739 -1.7151  0.6564
 9472TIP3   OH249906   1.500   6.171  13.307  0.2112 -0.3503  0.3451
 9472TIP3    H149907   1.409   6.162  13.335  0.4229 -0.6310  0.9488
 9472TIP3    H249908   1.535   6.081  13.309  0.1581 -0.4377 -1.0900
 9473TIP3   OH249909   1.758   5.197  11.268 -0.4034 -0.5492  0.2313
 9473TIP3    H149910   1.827   5.214  11.332 -0.5057 -1.0203  0.4704
 9473TIP3    H249911   1.712   5.281  11.260  1.4086  0.3584 -1.4473
 9474TIP3   OH249912   4.403   6.270  12.851 -0.0311  0.4192 -0.0299
 9474TIP3    H149913   4.413   6.285  12.945  0.3930  1.0305 -0.1705
 9474TIP3    H249914   4.489   6.291  12.814  0.1382 -0.8826 -0.4269
 9475TIP3   OH249915   6.070   1.872  15.057 -0.4115 -0.2008  0.1820
 9475TIP3    H149916   5.977   1.851  15.046 -0.4401 -1.4907  2.2598
 9475TIP3    H249917   6.076   1.965  15.039 -1.8468 -0.3515 -1.3407
 9476TIP3   OH249918   2.952   5.506   2.399  0.3521 -0.0016 -0.3144
 9476TIP3    H149919   2.862   5.473   2.393  0.2459  0.5280 -3.6843
 9476TIP3    H249920   3.006   5.436   2.363  1.3128 -0.1748  1.3657
 9477TIP3   OH249921   0.488   4.590   4.938 -0.1133 -0.0848  0.4554
 9477TIP3    H149922   0.536   4.591   4.855  2.0180 -1.2804  1.5815
 9477TIP3    H249923   0.479   4.682   4.962  1.3128  0.1922  0.0073
 9478TIP3   OH249924   0.987   7.030  11.439 -0.2673  0.4601 -0.6154
 9478TIP3    H149925   1.013   7.106  11.387 -0.1119 -0.5628 -2.0895
 9478TIP3    H249926   0.894   7.019  11.419 -0.8929  1.5764  1.3711
 9479TIP3   OH249927   4.538   2.333  13.746 -0.3490  0.2078 -0.0994
 9479TIP3    H149928   4.531   2.427  13.731 -0.5724  0.5441  1.8926
 9479TIP3    H249929   4.448   2.305  13.765 -0.2491 -0.3873 -0.4528
 9480TIP3   OH249930   0.992   1.976  12.961  0.1564  0.2472 -0.1637
 9480TIP3    H149931   1.008   1.929  12.880  2.6068  0.9814 -0.1912
 9480TIP3    H249932   0.951   2.058  12.934 -0.4970 -0.1757 -0.4802
 9481TIP3   OH249933   3.784   7.058   9.485  0.1292 -0.1650 -0.1159
 9481TIP3    H149934   3.781   7.126   9.418 -0.0395 -0.6373 -0.5960
 9481TIP3    H249935   3.852   6.997   9.455 -0.5512 -0.8396 -0.3179
 9482TIP3   OH249936   3.199   2.755   1.234  0.5256  0.0003  0.2836
 9482TIP3    H149937   3.285   2.797   1.235  0.5086  0.1037  3.2220
 9482TIP3    H249938   3.215   2.669   1.195  1.8748  0.1433  0.4868
 9483TIP3   OH249939   2.170   0.482  14.459  0.2090  0.3594  0.2894
 9483TIP3    H149940   2.215   0.541  14.519  1.7556 -1.6990  1.3101
 9483TIP3    H249941   2.103   0.439  14.513 -1.5781  1.7876 -0.6795
 9484TIP3   OH249942   4.908   1.934  14.065 -0.2225  0.2072  0.6249
 9484TIP3    H149943   4.895   2.020  14.104  1.6337  1.7472 -1.9078
 9484TIP3    H249944   4.856   1.936  13.984  1.4058 -0.2372 -0.4843
 9485TIP3   OH249945   0.029   0.386   3.862  0.0646  0.1376 -0.1767
 9485TIP3    H149946  -0.005   0.299   3.879 -1.2936  0.7609  0.4360
 9485TIP3    H249947   0.096   0.400   3.929  1.5038 -1.0426 -1.2997
 9486TIP3   OH249948   6.148   5.519   5.403  0.5158  0.1330  0.0655
 9486TIP3    H149949   6.238   5.490   5.415  0.1664 -1.4947 -0.8642
 9486TIP3    H249950   6.099   5.476   5.473 -0.0098 -1.6619 -1.3264
 9487TIP3   OH249951   5.237   6.646  11.260  0.0108 -0.0369  0.0274
 9487TIP3    H149952   5.264   6.727  11.218 -2.2053  0.4025 -0.6886
 9487TIP3    H249953   5.292   6.578  11.221  0.4285  0.8440 -0.9342
 9488TIP3   OH249954   5.687   6.895  10.847  0.3009 -0.2822 -0.9528
 9488TIP3    H149955   5.746   6.861  10.779  0.2707 -0.2858 -0.9773
 9488TIP3    H249956   5.615   6.936  10.798  0.1636 -0.4836 -0.9244
 9489TIP3   OH249957   0.275   2.731   1.812  0.4289  0.0429  0.1009
 9489TIP3    H149958   0.285   2.826   1.820  1.6454 -0.0433 -0.1525
 9489TIP3    H249959   0.325   2.709   1.733 -0.1189 -0.7658 -0.0218
 9490TIP3   OH249960   0.487   5.138  11.121 -0.0802 -0.7241 -0.2296
 9490TIP3    H149961   0.522   5.227  11.129 -0.1340 -0.6105 -1.1795
 9490TIP3    H249962   0.473   5.110  11.212 -1.5000  0.8079  0.0691
 9491TIP3   OH249963   6.084   0.151  13.700  0.9931  0.5680  0.3546
 9491TIP3    H149964   6.040   0.079  13.745 -1.9217  0.6048 -2.0763
 9491TIP3    H249965   6.067   0.228  13.755 -1.0181  0.3318  0.1326
 9492TIP3   OH249966   3.715   2.392  11.764 -0.1693 -0.7029  0.7722
 9492TIP3    H149967   3.634   2.420  11.806 -0.4218 -0.7000  0.2830
 9492TIP3    H249968   3.747   2.321  11.820 -0.1119 -0.1977  1.3840
 9493TIP3   OH249969   0.587   5.611   9.696 -0.4460 -0.5027 -0.5463
 9493TIP3    H149970   0.628   5.688   9.734  0.2962  0.0579 -2.3840
 9493TIP3    H249971   0.518   5.587   9.758 -1.1541  2.0446 -0.2467
 9494TIP3   OH249972   3.224   3.721  10.593  0.3597 -0.1372 -0.0984
 9494TIP3    H149973   3.310   3.720  10.550  1.6754 -0.1648  2.3338
 9494TIP3    H249974   3.175   3.651  10.551  1.4910 -0.0904 -1.5951
 9495TIP3   OH249975   4.670   5.657  11.220  0.5617 -0.4407 -0.2845
 9495TIP3    H149976   4.663   5.620  11.132 -0.5845  0.8219 -0.7620
 9495TIP3    H249977   4.764   5.670  11.232  0.6763  0.4213 -1.8073
 9496TIP3   OH249978   1.914   6.369  13.728 -0.2779 -0.2973 -0.3465
 9496TIP3    H149979   1.894   6.381  13.635 -0.8301  1.2337 -0.0766
 9496TIP3    H249980   1.833   6.333  13.765 -1.3104  2.1612  0.0492
 9497TIP3   OH249981   1.929   0.817   3.766 -0.2784  0.4598 -0.0612
 9497TIP3    H149982   1.868   0.862   3.824 -1.3982 -0.9230 -0.1230
 9497TIP3    H249983   1.877   0.747   3.726  0.8760  0.4015 -1.5321
 9498TIP3   OH249984   4.649   5.252  13.534 -0.0427 -0.1179 -0.1699
 9498TIP3    H149985   4.648   5.347  13.532  0.5876 -0.0961 -2.6139
 9498TIP3    H249986   4.722   5.229  13.592 -0.0184  0.8699  0.2033
 9499TIP3   OH249987   3.822   0.066  11.316 -0.2556 -0.2041  0.0610
 9499TIP3    H149988   3.814   0.159  11.294  1.1959 -0.0640  0.0286
 9499TIP3    H249989   3.866   0.066  11.401  1.3447 -0.8892 -0.7483
 9500TIP3   OH249990   5.866   1.009   9.957  0.1189  0.1221 -0.1865
 9500TIP3    H149991   5.822   0.933   9.997  0.0587 -0.8172 -1.9205
 9500TIP3    H249992   5.954   1.008   9.996  1.1971 -2.7581 -2.3221
 9501TIP3   OH249993   0.769   4.401  13.020 -0.1018 -0.4722  0.1237
 9501TIP3    H149994   0.765   4.312  13.055 -3.0516 -1.1184 -1.4857
 9501TIP3    H249995   0.761   4.390  12.925 -0.7414  1.4921 -0.1036
 9502TIP3   OH249996   5.641   4.016  11.568 -0.4862  0.0898 -0.0952
 9502TIP3    H149997   5.564   4.028  11.624  0.1171 -0.3852  0.8730
 9502TIP3    H249998   5.613   4.044  11.481 -1.9031 -0.5459  0.1303
 9503TIP3   OH249999   5.498   2.904  13.637  0.7335 -0.2882  0.0116
 9503TIP3    H150000   5.439   2.855  13.694 -1.3830 -2.0301 -3.3181
 9503TIP3    H250001   5.573   2.847  13.624 -0.1497 -1.2514 -1.1428
 9504TIP3   OH250002   4.310   1.951  15.273  0.0651  0.0454  0.0480
 9504TIP3    H150003   4.314   1.869  15.225  1.6153  0.1362 -0.0333
 9504TIP3    H250004   4.342   2.017  15.210 -2.0590  0.9057 -0.2170
 9505TIP3   OH250005   4.740   6.969  11.866  0.3061 -0.2596  0.3594
 9505TIP3    H150006   4.700   6.891  11.828  1.2291 -0.1261 -0.9469
 9505TIP3    H250007   4.806   6.996  11.803  0.5546  1.1298  1.1568
 9506TIP3   OH250008   1.684   1.389  10.482  0.4255 -0.0469  0.1287
 9506TIP3    H150009   1.780   1.393  10.478  0.3823  0.1049 -1.4182
 9506TIP3    H250010   1.659   1.470  10.527  1.0343 -0.2577  0.8614
 9507TIP3   OH250011   1.577   2.539  14.121  0.0329 -0.2831 -0.1483
 9507TIP3    H150012   1.550   2.616  14.072  0.1740  0.7160  1.2572
 9507TIP3    H250013   1.603   2.574  14.207  0.2609 -1.8765  0.4632
 9508TIP3   OH250014   7.164   1.575   3.087  0.3151 -0.4079 -0.3741
 9508TIP3    H150015   7.102   1.577   3.015 -0.0786  0.1340 -0.0249
 9508TIP3    H250016   7.244   1.614   3.051  0.2924 -0.6288 -0.6686
 9509TIP3   OH250017   1.933   0.445   1.342 -0.6275 -0.3816  0.0392
 9509TIP3    H150018   1.971   0.531   1.360  0.0243 -0.7955  0.6660
 9509TIP3    H250019   1.863   0.436   1.407 -1.1821 -0.0262 -0.4965
 9510TIP3   OH250020   6.319   4.947  14.998 -0.4166 -0.5607  0.2220
 9510TIP3    H150021   6.307   4.904  15.083 -0.2989 -0.8897  0.0706
 9510TIP3    H250022   6.327   4.876  14.936 -2.0477 -0.3361 -0.2978
 9511TIP3   OH250023   2.522   3.708  10.274  0.3623 -0.5813  0.0354
 9511TIP3    H150024   2.562   3.639  10.327 -0.9197  0.2787  2.2362
 9511TIP3    H250025   2.587   3.779  10.274 -0.2531  0.0394  1.9169
 9512TIP3   OH250026   7.226   4.562   2.434 -0.0592  0.1965  0.5072
 9512TIP3    H150027   7.246   4.539   2.343 -1.7201 -0.9079  0.3983
 9512TIP3    H250028   7.292   4.515   2.486  0.3758  0.1582 -0.0732
 9513TIP3   OH250029   0.690   6.845   3.596 -0.4850 -0.5769 -0.1402
 9513TIP3    H150030   0.610   6.874   3.639 -0.0022  0.9216 -0.1915
 9513TIP3    H250031   0.744   6.809   3.667 -0.4776  0.0863  0.1962
 9514TIP3   OH250032   2.452   2.361   3.277 -0.0469 -0.6977  0.3330
 9514TIP3    H150033   2.371   2.333   3.319 -1.0404  0.7429 -0.5130
 9514TIP3    H250034   2.446   2.327   3.188  0.5624 -1.0426  0.4115
 9515TIP3   OH250035   2.064   0.064   2.327  0.2730 -0.2912 -0.0823
 9515TIP3    H150036   2.154   0.043   2.351  0.1687  0.0793  0.6372
 9515TIP3    H250037   2.071   0.100   2.238  1.4558  3.8271  1.4260
 9516TIP3   OH250038   3.718   2.535  14.385 -0.1937  0.5629  0.5304
 9516TIP3    H150039   3.671   2.460  14.347 -2.6601  2.1382  0.2578
 9516TIP3    H250040   3.779   2.496  14.448 -0.8995 -1.6919 -0.0876
 9517TIP3   OH250041   1.801   2.397  10.628  0.2456  0.0582  0.4851
 9517TIP3    H150042   1.745   2.414  10.704  2.2368  0.7313  1.8930
 9517TIP3    H250043   1.853   2.321  10.654  1.5613  0.8264  0.1777
 9518TIP3   OH250044   4.959   3.922   1.644 -0.4963 -0.0287 -0.0466
 9518TIP3    H150045   4.960   3.982   1.718  1.1396  1.4810 -1.2255
 9518TIP3    H250046   4.898   3.961   1.582 -1.3921 -0.9645  0.2254
 9519TIP3   OH250047   6.447   6.089   3.069  0.7836 -0.0492  0.2556
 9519TIP3    H150048   6.355   6.117   3.074  1.1267  1.0548  0.6575
 9519TIP3    H250049   6.496   6.161   3.108  1.8702 -0.4351 -0.3650
 9520TIP3   OH250050   1.188   2.100  12.268 -0.1274 -0.1957  0.0567
 9520TIP3    H150051   1.107   2.093  12.319 -0.6940 -2.8215 -1.0100
 9520TIP3    H250052   1.256   2.068  12.326 -0.0872  0.6523  0.4828
 9521TIP3   OH250053   0.872   5.660  14.189  0.7126 -0.0872  0.6452
 9521TIP3    H150054   0.860   5.610  14.109  0.0030  2.1769 -0.7560
 9521TIP3    H250055   0.967   5.675  14.194  0.5518  2.7234 -1.8346
 9522TIP3   OH250056   1.842   6.552   2.033 -0.1894  0.0954  0.5282
 9522TIP3    H150057   1.851   6.457   2.036 -0.0858  0.1246  1.1209
 9522TIP3    H250058   1.841   6.573   1.939 -2.1714 -0.6682  0.3367
 9523TIP3   OH250059   6.425   3.625  10.629 -0.6168 -0.2462 -0.2138
 9523TIP3    H150060   6.338   3.599  10.598 -0.6062 -0.8397  0.2496
 9523TIP3    H250061   6.409   3.659  10.718 -0.4835  0.3700 -0.4215
 9524TIP3   OH250062   1.017   5.915   1.938 -0.0797 -0.4017  0.2714
 9524TIP3    H150063   0.984   5.828   1.918  1.5006 -1.2469  1.1301
 9524TIP3    H250064   0.975   5.973   1.874  0.3026 -2.0779 -1.5869
 9525TIP3   OH250065   0.531   1.332  14.325  0.7564  0.5071 -0.0669
 9525TIP3    H150066   0.539   1.382  14.244 -0.4284 -3.6312 -3.0724
 9525TIP3    H250067   0.438   1.336  14.346  0.8420  0.4493  0.3290
 9526TIP3   OH250068   2.908   6.117   1.434 -0.2145 -0.2175 -0.4032
 9526TIP3    H150069   2.931   6.040   1.485  1.9690  0.5319 -0.1067
 9526TIP3    H250070   2.842   6.162   1.486 -0.6744 -1.2946 -0.0297
 9527TIP3   OH250071   6.626   4.111  11.534 -0.0094 -0.2228 -0.1517
 9527TIP3    H150072   6.699   4.132  11.476  0.3694 -0.8460  0.0916
 9527TIP3    H250073   6.567   4.059  11.479  0.2621 -0.6572 -0.0386
 9528TIP3   OH250074   0.210   0.428   2.585  0.6762 -0.9271 -0.0608
 9528TIP3    H150075   0.247   0.346   2.618 -0.3214 -1.6769 -0.7385
 9528TIP3    H250076   0.284   0.473   2.545  1.3397 -1.2593  0.7686
 9529TIP3   OH250077   3.337   1.270  14.719  0.2390  0.1576  0.3905
 9529TIP3    H150078   3.368   1.360  14.729  0.1069  0.2222  0.2147
 9529TIP3    H250079   3.417   1.218  14.710  0.3351  0.2004  0.9268
 9530TIP3   OH250080   4.702   4.213   0.280 -0.1051 -0.1045 -0.2323
 9530TIP3    H150081   4.735   4.242   0.365 -2.4060  0.5921  0.5047
 9530TIP3    H250082   4.698   4.293   0.227 -1.8399  0.1246  0.1770
 9531TIP3   OH250083   0.261   1.404  12.305  0.2862 -0.5170 -0.2747
 9531TIP3    H150084   0.271   1.313  12.280  0.8582 -0.6865  0.5250
 9531TIP3    H250085   0.180   1.406  12.356  0.1923 -0.5467 -0.4222
 9532TIP3   OH250086   2.954   0.117  12.698 -0.1085  0.1973  0.2325
 9532TIP3    H150087   2.946   0.021  12.706  0.2309 -0.1121 -2.4550
 9532TIP3    H250088   3.044   0.131  12.671 -0.3500  1.2417 -0.0413
 9533TIP3   OH250089   6.879   2.594  12.250  0.4907  0.2097 -0.2157
 9533TIP3    H150090   6.913   2.563  12.333 -0.6734 -1.0799 -0.1983
 9533TIP3    H250091   6.905   2.528  12.186 -1.2997 -0.4453 -0.3222
 9534TIP3   OH250092   6.538   2.457   1.012 -0.1592 -0.2412 -0.3693
 9534TIP3    H150093   6.623   2.442   1.053 -0.4828 -1.7785 -0.1921
 9534TIP3    H250094   6.514   2.546   1.037  1.5527  0.3493 -0.7237
 9535TIP3   OH250095   2.122   4.435   1.072  0.0277 -0.3588 -0.3953
 9535TIP3    H150096   2.173   4.504   1.031  0.4909  1.0355  2.3075
 9535TIP3    H250097   2.039   4.434   1.024  0.2166  1.7068 -0.8558
 9536TIP3   OH250098   6.349   3.204   0.876 -0.2791  0.3088  0.1397
 9536TIP3    H150099   6.398   3.130   0.840  0.3013 -0.0727  1.6582
 9536TIP3    H250100   6.408   3.278   0.868 -0.6642  0.5207 -0.9022
 9537TIP3   OH250101   5.763   1.119  12.166 -0.0876 -0.0749 -0.4800
 9537TIP3    H150102   5.717   1.036  12.176 -2.4874  1.1508 -0.7364
 9537TIP3    H250103   5.835   1.115  12.229 -2.1199 -1.0519  1.9283
 9538TIP3   OH250104   6.069   4.139  10.148  0.6374  0.6681 -0.7332
 9538TIP3    H150105   6.120   4.167  10.224 -0.6287  1.2598 -0.0686
 9538TIP3    H250106   6.127   4.155  10.073  1.5432  1.0123  0.0140
 9539TIP3   OH250107   5.239   5.708   0.979 -0.1465  0.1066  0.4615
 9539TIP3    H150108   5.309   5.746   0.926  1.1990 -0.2423  1.9160
 9539TIP3    H250109   5.199   5.642   0.922  0.3618  0.6710 -0.5739
 9540TIP3   OH250110   3.483   5.217  14.723 -0.3641  0.1433  0.8880
 9540TIP3    H150111   3.482   5.217  14.627 -0.9457  0.0091  0.8873
 9540TIP3    H250112   3.435   5.296  14.747 -1.1069 -0.3425  1.0591
 9541TIP3   OH250113   5.618   2.053   9.901  0.6852  0.1885 -0.0190
 9541TIP3    H150114   5.709   2.025   9.909  0.5320 -1.1548 -2.1114
 9541TIP3    H250115   5.623   2.148   9.893  1.7192  0.3167  1.7412
 9542TIP3   OH250116   0.081   5.173  12.323  0.1475 -0.1784  0.0861
 9542TIP3    H150117   0.132   5.150  12.401 -0.1211  0.7474  0.5422
 9542TIP3    H250118   0.145   5.172  12.252  0.4509 -0.7481  0.3568
 9543TIP3   OH250119   4.272   5.739  13.676 -0.2771 -0.2390 -0.6050
 9543TIP3    H150120   4.245   5.718  13.765  0.8918  1.1586  0.1252
 9543TIP3    H250121   4.359   5.701  13.668  0.1077  0.6451 -0.7245
 9544TIP3   OH250122   1.878   3.971  12.677  0.2316 -0.0484  0.6152
 9544TIP3    H150123   1.846   3.903  12.618 -1.1566 -0.1172  1.4143
 9544TIP3    H250124   1.969   3.946  12.695  0.7543  0.0672 -1.5836
 9545TIP3   OH250125   5.328   3.584   3.129  0.0584  0.3316 -0.0940
 9545TIP3    H150126   5.378   3.520   3.079 -1.2064  0.4517 -1.5929
 9545TIP3    H250127   5.258   3.611   3.070  0.2219  2.6886  0.6871
 9546TIP3   OH250128   4.405   6.493   4.863  0.2654 -0.3971  0.1600
 9546TIP3    H150129   4.491   6.522   4.834 -0.1045  0.3766 -0.1903
 9546TIP3    H250130   4.391   6.538   4.947 -0.5419  0.9281 -0.6492
 9547TIP3   OH250131   4.603   1.836  12.490 -0.1518 -0.6709  0.1237
 9547TIP3    H150132   4.512   1.805  12.493 -0.1854 -0.4924  1.6116
 9547TIP3    H250133   4.654   1.767  12.531  0.1843 -0.1606  0.5845
 9548TIP3   OH250134   5.279   0.304   1.066 -0.2950 -0.2656  0.2977
 9548TIP3    H150135   5.226   0.256   1.129 -0.6495  1.3102  1.2392
 9548TIP3    H250136   5.304   0.385   1.111 -1.1916  1.2722 -1.8144
 9549TIP3   OH250137   5.593   4.004   1.336  0.1347 -0.1599  0.2913
 9549TIP3    H150138   5.621   3.922   1.375 -0.0852  0.5657  2.0616
 9549TIP3    H250139   5.515   3.982   1.286  1.3675 -1.4220 -1.2099
 9550TIP3   OH250140   3.674   5.428   0.996 -0.2526 -0.2840  0.0032
 9550TIP3    H150141   3.767   5.416   0.979 -0.4198 -1.3200 -0.2254
 9550TIP3    H250142   3.630   5.373   0.932 -1.1821  2.9328 -2.3633
 9551TIP3   OH250143   3.046   0.640   4.395 -0.2608 -0.2823  0.0244
 9551TIP3    H150144   3.008   0.570   4.448 -0.5146 -1.1261 -1.2419
 9551TIP3    H250145   3.018   0.720   4.440 -0.4080 -0.9573  1.2036
 9552TIP3   OH250146   5.909   4.521   0.918 -0.1792  0.1017 -0.3791
 9552TIP3    H150147   5.819   4.495   0.900 -0.4441  1.4801 -1.0980
 9552TIP3    H250148   5.959   4.489   0.843  0.0220 -0.9930  0.1941
 9553TIP3   OH250149   3.080   0.227  10.105 -0.7307 -0.2196 -0.1005
 9553TIP3    H150150   3.173   0.244  10.095 -0.9800  1.4237  0.0494
 9553TIP3    H250151   3.050   0.205  10.017 -0.3564  0.1128 -0.3143
 9554TIP3   OH250152   3.699   0.403  14.778  0.0248  0.4432 -0.2269
 9554TIP3    H150153   3.691   0.311  14.751 -0.7616  0.6524 -0.7513
 9554TIP3    H250154   3.766   0.439  14.720  0.1386  0.2654 -0.2059
 9555TIP3   OH250155   1.517   6.510  14.318 -0.2469 -0.1651  0.1097
 9555TIP3    H150156   1.451   6.472  14.376 -0.8729  0.5412 -0.1256
 9555TIP3    H250157   1.505   6.605  14.327  1.9907  0.0543  1.5234
 9556TIP3   OH250158   5.468   0.831  13.662  0.0356 -0.1147 -0.1014
 9556TIP3    H150159   5.386   0.849  13.615 -1.2978 -1.2298  1.6694
 9556TIP3    H250160   5.493   0.915  13.699 -0.6539  0.1214 -0.1476
 9557TIP3   OH250161   5.479   1.276  11.468 -0.4550  0.0906 -0.3767
 9557TIP3    H150162   5.421   1.343  11.431  1.8193  1.2379 -2.0868
 9557TIP3    H250163   5.423   1.200  11.481 -2.4314  1.2816 -1.4826
 9558TIP3   OH250164   3.482   1.629   0.822 -0.2871  0.7425 -0.3713
 9558TIP3    H150165   3.391   1.615   0.795  0.3089  0.4643 -2.3401
 9558TIP3    H250166   3.491   1.724   0.828 -0.3761  0.8277 -1.4366
 9559TIP3   OH250167   2.672   5.065  13.290  0.6124 -0.1699  0.2318
 9559TIP3    H150168   2.708   4.985  13.251 -0.9472 -0.7519 -0.1008
 9559TIP3    H250169   2.719   5.136  13.247 -1.7982 -0.7011 -3.8497
 9560TIP3   OH250170   4.401   4.169   2.720  0.0483 -0.5364 -0.1908
 9560TIP3    H150171   4.325   4.116   2.744 -0.2394 -0.6513 -1.2817
 9560TIP3    H250172   4.403   4.165   2.624  1.2921 -0.3339 -0.1822
 9561TIP3   OH250173   4.676   6.880   0.349 -0.1517 -0.0321  0.1698
 9561TIP3    H150174   4.752   6.918   0.306  0.1467 -2.6326 -1.8597
 9561TIP3    H250175   4.601   6.911   0.297 -0.0728 -0.6460 -0.3283
 9562TIP3   OH250176   4.910   5.062  10.572 -0.5920 -0.1791 -0.2820
 9562TIP3    H150177   4.987   5.052  10.628 -1.3540  0.4319  0.9185
 9562TIP3    H250178   4.942   5.109  10.495  0.0068  1.2006  0.7684
 9563TIP3   OH250179   6.518   5.671   3.558  0.1594  0.1490  0.4594
 9563TIP3    H150180   6.562   5.756   3.567 -0.6185  0.6875 -0.5981
 9563TIP3    H250181   6.455   5.684   3.487 -0.6791 -1.0247  0.9559
 9564TIP3   OH250182   3.823   7.232  11.655  0.3178  0.1324  0.2974
 9564TIP3    H150183   3.862   7.147  11.638  1.1380  0.4536  0.5179
 9564TIP3    H250184   3.729   7.218  11.645  0.4410 -0.7982  0.3635
 9565TIP3   OH250185   1.580   1.017   9.550  0.2172  0.0960 -0.1143
 9565TIP3    H150186   1.543   0.997   9.636 -3.2683  1.3743 -1.1458
 9565TIP3    H250187   1.573   1.112   9.541  1.3164  0.0918 -1.5163
 9566TIP3   OH250188   5.233   1.757  13.476  0.1640  0.5610 -0.5572
 9566TIP3    H150189   5.139   1.743  13.462 -0.0509  0.8010  0.5519
 9566TIP3    H250190   5.238   1.808  13.557  1.2757  0.2587 -0.4180
 9567TIP3   OH250191   3.261   2.106  10.271 -0.2327  0.1831  0.2374
 9567TIP3    H150192   3.285   2.198  10.259 -3.2887  1.0688 -0.1087
 9567TIP3    H250193   3.168   2.103  10.248 -0.4574 -2.8436  1.1353
 9568TIP3   OH250194   5.990   0.484  12.543  0.3269 -0.1921 -0.3876
 9568TIP3    H150195   5.936   0.410  12.515 -0.7188  0.0037  0.9694
 9568TIP3    H250196   6.075   0.469  12.503 -0.0473 -1.8014 -0.6412
 9569TIP3   OH250197   6.339   5.319  12.485  0.0129  0.3780 -0.2926
 9569TIP3    H150198   6.307   5.255  12.421  1.2059 -0.7979  0.2566
 9569TIP3    H250199   6.404   5.370  12.437  1.5008 -1.0279  0.1416
 9570TIP3   OH250200   3.707   3.121  14.051  0.2757  0.5154  0.0500
 9570TIP3    H150201   3.662   3.200  14.020  0.4562 -0.5978 -3.4546
 9570TIP3    H250202   3.708   3.062  13.975  2.5055 -1.8206  1.7139
 9571TIP3   OH250203   2.797   5.207   2.516  0.2684 -0.1014  0.3140
 9571TIP3    H150204   2.891   5.197   2.499  0.0317 -1.8375 -0.1436
 9571TIP3    H250205   2.769   5.276   2.456  1.0366 -0.3416 -0.3380
 9572TIP3   OH250206   5.073   5.495  14.774  0.2812 -0.5629  0.9147
 9572TIP3    H150207   5.123   5.566  14.814 -1.1721  0.8280  0.3558
 9572TIP3    H250208   5.042   5.443  14.849  1.0954 -0.4518  1.3422
 9573TIP3   OH250209   5.164   2.389  10.781 -0.5403 -0.7869  0.0673
 9573TIP3    H150210   5.191   2.462  10.724  1.0246 -1.2720  0.1437
 9573TIP3    H250211   5.151   2.315  10.721 -0.9928 -0.7610  0.1238
 9574TIP3   OH250212   1.069   6.603  13.102 -0.3006 -0.0076 -0.3838
 9574TIP3    H150213   1.123   6.668  13.148 -1.2933  0.5893 -0.0234
 9574TIP3    H250214   1.007   6.572  13.168  0.0044 -1.1679 -0.6169
 9575TIP3   OH250215   2.562   4.476  11.643 -0.3866 -0.6359  0.1726
 9575TIP3    H150216   2.515   4.553  11.610  0.7794 -0.0896 -0.2719
 9575TIP3    H250217   2.501   4.403  11.631 -1.2955  0.1322  0.0658
 9576TIP3   OH250218   5.878   1.526   4.189 -0.4635 -0.4597  0.6660
 9576TIP3    H150219   5.816   1.513   4.116  0.4291 -0.3619 -0.1265
 9576TIP3    H250220   5.928   1.604   4.164 -0.0481 -0.5077  1.3323
 9577TIP3   OH250221   4.503   2.180   9.780  0.2670 -0.6379  0.0164
 9577TIP3    H150222   4.448   2.173   9.702 -2.5438  0.8945  1.7108
 9577TIP3    H250223   4.467   2.116   9.840  0.8793 -0.1640  0.9056
 9578TIP3   OH250224   1.466   4.235  12.294 -0.0199 -0.5286  0.0681
 9578TIP3    H150225   1.547   4.210  12.249 -0.2920 -0.5180 -0.4371
 9578TIP3    H250226   1.413   4.155  12.295 -0.1727 -0.4286  0.0270
 9579TIP3   OH250227   4.191   1.908   9.836 -0.1325 -0.5127 -0.0969
 9579TIP3    H150228   4.218   1.847   9.904 -0.6138  0.1471  0.7132
 9579TIP3    H250229   4.231   1.875   9.756 -0.2311 -1.7730  0.3557
 9580TIP3   OH250230   2.645   2.595  11.518 -0.0362  0.4473  0.1443
 9580TIP3    H150231   2.562   2.581  11.564  0.1424 -1.8622 -0.1574
 9580TIP3    H250232   2.711   2.558  11.576  0.3190 -1.4629 -1.3989
 9581TIP3   OH250233   2.166   4.856   5.130 -0.0241 -0.2741  0.3978
 9581TIP3    H150234   2.176   4.883   5.221  1.2055 -0.0515  0.2203
 9581TIP3    H250235   2.099   4.789   5.131  0.4396 -0.7405  1.5662
 9582TIP3   OH250236   3.783   3.205  11.725  0.5076 -0.1663  0.6039
 9582TIP3    H150237   3.722   3.132  11.714  1.5947 -1.1793  1.1439
 9582TIP3    H250238   3.755   3.269  11.659 -1.8440 -0.0816  1.5555
 9583TIP3   OH250239   4.305   5.099   3.398  0.0829 -0.6683 -0.1329
 9583TIP3    H150240   4.301   5.084   3.304  0.6208  0.5072 -0.3543
 9583TIP3    H250241   4.370   5.035   3.430 -0.1088 -1.0736 -0.5524
 9584TIP3   OH250242   3.830   4.803   1.434 -0.5995  0.1770  0.8368
 9584TIP3    H150243   3.921   4.827   1.415 -0.9708  0.9831  0.0136
 9584TIP3    H250244   3.779   4.877   1.403 -1.9045 -1.9882 -2.7895
 9585TIP3   OH250245   3.804   6.153  14.084 -0.0454 -0.0620 -0.4118
 9585TIP3    H150246   3.719   6.197  14.088  0.3018  0.5589  0.4621
 9585TIP3    H250247   3.854   6.191  14.156  0.9892 -0.3887 -0.9336
 9586TIP3   OH250248   0.694   6.300   1.084 -0.4190  0.3838 -0.4572
 9586TIP3    H150249   0.722   6.387   1.058  2.3948 -0.3174 -0.1513
 9586TIP3    H250250   0.638   6.314   1.160 -0.2614  1.9180 -0.6007
 9587TIP3   OH250251   4.635   5.655   2.799 -0.0244 -0.0535  0.4116
 9587TIP3    H150252   4.663   5.744   2.821 -1.5919  0.5959 -0.0158
 9587TIP3    H250253   4.636   5.608   2.882 -2.0563  1.2544  1.2531
 9588TIP3   OH250254   4.164   5.127  14.501  0.1758  0.8767  0.2770
 9588TIP3    H150255   4.236   5.066  14.514 -0.3156  0.5224  1.5756
 9588TIP3    H250256   4.087   5.071  14.491 -0.0500  1.2618 -0.1849
 9589TIP3   OH250257   5.325   6.321  14.971 -0.3560  0.1018  0.3461
 9589TIP3    H150258   5.366   6.374  15.039 -1.0936  2.6551 -1.0593
 9589TIP3    H250259   5.232   6.341  14.977 -0.3052  1.6548 -2.2853
 9590TIP3   OH250260   0.819   2.311   0.572  0.1966 -0.2026  0.0516
 9590TIP3    H150261   0.755   2.382   0.574 -0.5297 -0.5954 -3.1427
 9590TIP3    H250262   0.903   2.352   0.588 -0.5919  0.6671  2.2520
 9591TIP3   OH250263   1.067   4.166   1.617  0.2133  0.6327 -0.2516
 9591TIP3    H150264   1.146   4.219   1.606  0.4414  0.6761  1.4302
 9591TIP3    H250265   1.023   4.203   1.694 -0.8776 -0.0943 -0.4940
 9592TIP3   OH250266   3.901   5.913  14.987  0.0939 -0.0279  0.5945
 9592TIP3    H150267   3.862   6.000  14.973  0.7884  0.3539  1.0066
 9592TIP3    H250268   3.875   5.889  15.075 -1.1549 -0.8086  0.0471
 9593TIP3   OH250269   1.246   2.054  13.616  0.2632  0.0942 -0.7652
 9593TIP3    H150270   1.228   1.984  13.678 -2.1552  0.3881 -1.0633
 9593TIP3    H250271   1.267   2.010  13.534 -0.6060 -0.2796 -0.7863
 9594TIP3   OH250272   2.412   1.224  13.650 -0.0882  0.1273  0.5593
 9594TIP3    H150273   2.389   1.217  13.557 -0.8717  0.2909  0.7381
 9594TIP3    H250274   2.328   1.230  13.695  0.2896  2.4931  1.0974
 9595TIP3   OH250275   2.543   0.458   3.241  0.2705 -0.1442 -0.5236
 9595TIP3    H150276   2.544   0.503   3.156 -0.4549 -0.0326 -0.4787
 9595TIP3    H250277   2.569   0.526   3.303 -4.6031  1.5868  0.1369
 9596TIP3   OH250278   1.838   0.101   0.256 -0.5556  0.2535 -0.2788
 9596TIP3    H150279   1.912   0.112   0.315 -0.3902  0.3661 -0.5043
 9596TIP3    H250280   1.777   0.046   0.304 -1.9614  3.0717  1.4179
 9597TIP3   OH250281   4.812   6.591  10.606 -0.6094 -0.4601 -0.3775
 9597TIP3    H150282   4.779   6.514  10.559 -0.3578 -0.5889 -0.3435
 9597TIP3    H250283   4.867   6.636  10.542 -3.6438  1.7345 -1.6955
 9598TIP3   OH250284   3.208   0.461  10.294  0.1890 -0.3272  0.1677
 9598TIP3    H150285   3.224   0.545  10.338 -1.4271  0.0712  0.0755
 9598TIP3    H250286   3.285   0.448  10.238 -0.0007  1.6492 -0.6334
 9599TIP3   OH250287   5.339   6.582   2.091  0.0708  0.1039 -0.1860
 9599TIP3    H150288   5.287   6.505   2.115  0.2939 -0.0641 -0.2270
 9599TIP3    H250289   5.410   6.546   2.038 -0.1163  0.4099 -0.6420
 9600TIP3   OH250290   2.606   5.446  14.174 -0.0066 -0.4683 -0.4224
 9600TIP3    H150291   2.534   5.408  14.225  0.2365 -2.4914 -1.4539
 9600TIP3    H250292   2.684   5.432  14.228 -0.4061  2.4385  1.0494
 9601TIP3   OH250293   5.194   6.556   1.013 -0.2913  0.4254  0.3004
 9601TIP3    H150294   5.213   6.502   0.936  4.3651  2.0513 -0.0609
 9601TIP3    H250295   5.223   6.503   1.087  1.6752  1.2026  0.1739
 9602TIP3   OH250296   1.688   0.464   2.095 -0.1744 -0.1272 -0.3917
 9602TIP3    H150297   1.661   0.378   2.063  1.4742 -0.3644 -1.2367
 9602TIP3    H250298   1.646   0.526   2.036 -0.4829 -0.3984 -0.4596
 9603TIP3   OH250299   5.765   3.290   1.662  0.3327 -0.7452  0.4790
 9603TIP3    H150300   5.718   3.373   1.660  0.7710 -0.4810  0.9245
 9603TIP3    H250301   5.725   3.238   1.592  1.4144  0.5669 -1.2076
 9604TIP3   OH250302   2.830   1.353   3.241  0.0774 -0.6205  0.1906
 9604TIP3    H150303   2.810   1.260   3.256 -0.4254 -0.7595 -1.1953
 9604TIP3    H250304   2.759   1.400   3.284 -0.3728 -0.9341 -0.2003
 9605TIP3   OH250305   4.720   3.398   9.910 -0.6795  0.3589 -0.0400
 9605TIP3    H150306   4.634   3.361   9.890 -0.8455  1.1183 -0.7640
 9605TIP3    H250307   4.752   3.345   9.984 -1.4856 -0.3407 -0.1754
 9606TIP3   OH250308   0.519   2.528  13.773 -0.7235 -0.3371 -0.1518
 9606TIP3    H150309   0.495   2.617  13.747 -0.6370 -0.5920 -1.1317
 9606TIP3    H250310   0.507   2.476  13.694  1.2678 -0.8095 -0.1967
 9607TIP3   OH250311   3.987   5.970  12.947  0.1705 -0.1127 -0.0749
 9607TIP3    H150312   3.948   6.031  13.009 -1.1713 -1.6962  0.7392
 9607TIP3    H250313   4.080   5.993  12.945 -0.3222  2.1112 -0.0756
 9608TIP3   OH250314   5.135   4.341  10.735  0.3752  0.9871  0.2451
 9608TIP3    H150315   5.047   4.303  10.730  0.7062  0.2048  0.2548
 9608TIP3    H250316   5.174   4.323  10.650  1.9623 -2.3227  1.4723
 9609TIP3   OH250317   3.493   0.505  15.316 -0.1407  0.6364  0.5632
 9609TIP3    H150318   3.510   0.597  15.296  0.9414  0.3813  0.2402
 9609TIP3    H250319   3.566   0.458  15.276 -1.7866 -0.5824 -1.1827
 9610TIP3   OH250320   3.367   6.654  15.232 -0.1491  0.1959 -0.1783
 9610TIP3    H150321   3.385   6.744  15.205 -3.2037  0.2716 -2.4705
 9610TIP3    H250322   3.434   6.602  15.188  0.1097  1.1425 -0.9522
 9611TIP3   OH250323   5.196   0.337   2.391  0.5175 -0.3710  0.0236
 9611TIP3    H150324   5.252   0.264   2.365  1.4356  0.2385  0.2160
 9611TIP3    H250325   5.255   0.397   2.437  0.0820  1.0763 -1.2240
 9612TIP3   OH250326   0.660   6.072  10.737  0.4727  0.3171 -0.5751
 9612TIP3    H150327   0.597   6.093  10.669  1.0236 -1.7140 -1.8198
 9612TIP3    H250328   0.711   5.999  10.701  2.1110  0.4777  1.2308
 9613TIP3   OH250329   5.493   5.428   0.307  0.0208  0.0082  0.1056
 9613TIP3    H150330   5.424   5.452   0.369 -1.0193  0.9998 -1.3824
 9613TIP3    H250331   5.450   5.426   0.222  1.7790  0.4128 -0.8429
 9614TIP3   OH250332   4.128   2.647  13.047 -0.1756  0.4324 -0.8437
 9614TIP3    H150333   4.144   2.567  12.998  0.7767 -0.3383  0.6732
 9614TIP3    H250334   4.035   2.643  13.070  0.2537 -1.2114  0.8214
 9615TIP3   OH250335   4.944   2.734  12.951 -0.1461 -0.5132  0.2139
 9615TIP3    H150336   5.005   2.803  12.924  0.2549 -1.1188 -0.4736
 9615TIP3    H250337   4.859   2.776  12.954  0.4728  0.7773  2.7766
 9616TIP3   OH250338   0.072   5.606   3.583 -0.5321 -0.2528 -0.0797
 9616TIP3    H150339   0.025   5.524   3.565  0.8167 -1.3343  1.0617
 9616TIP3    H250340   0.162   5.578   3.601  0.1631  1.5870 -0.4930
 9617TIP3   OH250341   6.403   5.475  15.086 -0.1466 -0.0290 -0.0127
 9617TIP3    H150342   6.390   5.475  15.181 -0.7228 -0.7932 -0.0852
 9617TIP3    H250343   6.498   5.469  15.075 -0.1576 -1.9256  0.5336
 9618TIP3   OH250344   0.906   6.804  10.734  0.1281  0.0380  0.6125
 9618TIP3    H150345   0.881   6.853  10.655 -0.7147 -1.1159  0.1342
 9618TIP3    H250346   0.841   6.830  10.800  0.7340  0.8759  0.8994
 9619TIP3   OH250347   1.368   2.569  12.267  0.7275  0.3473 -0.1297
 9619TIP3    H150348   1.404   2.605  12.185  1.6418  2.0615  0.9684
 9619TIP3    H250349   1.360   2.645  12.325 -1.5611 -0.5304  0.8236
 9620TIP3   OH250350   5.465   1.214  12.892  0.9771  0.4107 -0.1483
 9620TIP3    H150351   5.516   1.272  12.835 -0.8848 -0.3734 -2.7818
 9620TIP3    H250352   5.505   1.128  12.881  0.4780  0.2162 -0.4611
 9621TIP3   OH250353   4.691   4.415  13.856 -0.2523  0.1069 -0.2001
 9621TIP3    H150354   4.713   4.465  13.777 -1.1610  0.8642  0.0180
 9621TIP3    H250355   4.633   4.473  13.906  0.1118 -0.4628  0.9097
 9622TIP3   OH250356   6.375   5.422   4.642  0.0776 -0.2017  0.3138
 9622TIP3    H150357   6.386   5.440   4.549 -0.6063 -0.8580  0.0898
 9622TIP3    H250358   6.437   5.350   4.659 -0.1627 -0.4300  0.2384
 9623TIP3   OH250359   2.922   4.670  12.236 -0.3531 -0.2835  0.2853
 9623TIP3    H150360   2.935   4.575  12.233 -2.3388 -0.5910 -0.1250
 9623TIP3    H250361   2.833   4.683  12.202 -0.2115  1.7127  0.5534
 9624TIP3   OH250362   3.040   6.762  10.054 -0.1679  0.0950  0.5939
 9624TIP3    H150363   2.953   6.750  10.091 -0.3640 -0.4710 -0.0288
 9624TIP3    H250364   3.088   6.683  10.078  0.4669  0.8011  1.7095
 9625TIP3   OH250365   1.743   7.024   9.826 -0.4162  0.4521  0.7910
 9625TIP3    H150366   1.782   6.941   9.799 -2.8188 -0.4739 -0.1535
 9625TIP3    H250367   1.705   7.060   9.746 -0.4999  1.8648  1.4289
 9626TIP3   OH250368   4.633   6.444   1.045 -0.2800 -0.1249  0.3763
 9626TIP3    H150369   4.715   6.459   1.093  0.0030  1.5107 -0.5385
 9626TIP3    H250370   4.566   6.440   1.113  0.2992  0.6843  1.0221
 9627TIP3   OH250371   1.361   1.066  10.997  0.4018  0.1188 -0.1562
 9627TIP3    H150372   1.440   1.092  11.045  1.8403 -1.9486 -1.2145
 9627TIP3    H250373   1.343   0.977  11.028 -0.1514 -0.2821 -1.5683
 9628TIP3   OH250374   0.726   5.506  13.102 -0.2391  0.8299 -0.1789
 9628TIP3    H150375   0.803   5.489  13.048  0.0216  0.6712  0.2371
 9628TIP3    H250376   0.752   5.578  13.159  0.2430 -0.3680  1.1923
 9629TIP3   OH250377   1.423   5.111   4.537  0.1666  0.2477  0.3073
 9629TIP3    H150378   1.419   5.029   4.586  0.1247 -0.3592 -0.6817
 9629TIP3    H250379   1.411   5.084   4.446 -0.3102  1.4112  0.0183
 9630TIP3   OH250380   2.922   1.819   0.906  0.0236 -0.4389 -0.5153
 9630TIP3    H150381   2.848   1.782   0.858  0.6160  0.4518 -2.2078
 9630TIP3    H250382   2.955   1.747   0.960 -0.2956 -1.6826 -1.9221
 9631TIP3   OH250383   4.843   0.508  14.491 -0.8716  0.5051  0.1640
 9631TIP3    H150384   4.819   0.584  14.544 -1.1489  0.7078 -0.2391
 9631TIP3    H250385   4.871   0.546  14.407 -1.7170  0.1419 -0.3028
 9632TIP3   OH250386   4.408   5.839  14.940  0.1384 -0.1520  0.1944
 9632TIP3    H150387   4.324   5.842  14.893 -0.4529 -1.6203  1.1043
 9632TIP3    H250388   4.465   5.786  14.884  0.1635  0.0260  0.0483
 9633TIP3   OH250389   5.967   3.092  10.102  1.0351  0.1216  0.0257
 9633TIP3    H150390   5.956   3.150  10.177  1.6541 -0.1772  0.3641
 9633TIP3    H250391   5.976   3.004  10.140 -0.3662 -0.2738 -0.5033
 9634TIP3   OH250392   5.558   3.175  14.979 -0.0247 -0.4750  0.0845
 9634TIP3    H150393   5.462   3.172  14.981 -0.0351 -0.8779 -0.7692
 9634TIP3    H250394   5.586   3.090  15.012 -0.0393 -1.7507 -2.8394
 9635TIP3   OH250395   5.899   6.463  14.572 -0.1226 -0.1314  0.2395
 9635TIP3    H150396   5.913   6.415  14.490  0.1167  0.3179  0.0125
 9635TIP3    H250397   5.972   6.526  14.576  0.1068 -0.4371  1.0104
 9636TIP3   OH250398   2.508   7.017   4.603 -0.4448  0.0076 -0.7991
 9636TIP3    H150399   2.454   6.968   4.541 -1.2580  2.6398 -2.3155
 9636TIP3    H250400   2.598   7.004   4.572 -0.5664 -1.0625 -0.7400
 9637TIP3   OH250401   4.154   5.173  10.496  0.8125 -0.1829  0.2730
 9637TIP3    H150402   4.180   5.137  10.581  0.6991 -1.3655 -0.1705
 9637TIP3    H250403   4.085   5.114  10.466 -0.4648  1.2875  0.1789
 9638TIP3   OH250404   6.783   2.195  10.682 -0.2291 -0.3845 -0.0582
 9638TIP3    H150405   6.715   2.254  10.649 -0.5314 -0.6857  0.0211
 9638TIP3    H250406   6.758   2.109  10.649  1.9373 -0.0501 -2.9211
 9639TIP3   OH250407   6.179   2.525   0.708  0.3135 -0.1177 -0.4183
 9639TIP3    H150408   6.121   2.485   0.644 -0.8807 -1.2214  1.2813
 9639TIP3    H250409   6.266   2.492   0.686 -0.5144 -3.2784  0.4967
 9640TIP3   OH250410   5.956   1.722   9.215 -0.1385  0.0313  0.3785
 9640TIP3    H150411   5.954   1.646   9.157 -0.9307  0.8612 -0.7382
 9640TIP3    H250412   5.888   1.704   9.280 -1.4911  0.4892 -0.8620
 9641TIP3   OH250413   2.675   5.385   5.004 -0.2965  0.5922  0.0948
 9641TIP3    H150414   2.599   5.327   5.001  0.1316 -0.0628  1.1558
 9641TIP3    H250415   2.751   5.326   5.001  0.1983  0.6862  4.3807
 9642TIP3   OH250416   0.998   4.309   0.743  0.3984  0.3112  0.0952
 9642TIP3    H150417   0.907   4.281   0.754 -0.0351  1.9948  1.1180
 9642TIP3    H250418   1.025   4.271   0.659 -1.0724 -0.6362  0.0246
 9643TIP3   OH250419   2.494   3.696  14.602 -0.5240 -0.3984 -0.1825
 9643TIP3    H150420   2.485   3.629  14.535 -0.5937  0.4116 -1.0017
 9643TIP3    H250421   2.500   3.647  14.684 -1.9785 -1.3578 -0.6066
 9644TIP3   OH250422   4.269   6.639   2.958 -0.0227  0.6620 -0.0571
 9644TIP3    H150423   4.332   6.594   3.014 -0.2523  0.6397  0.1821
 9644TIP3    H250424   4.322   6.673   2.885  0.3402  1.0598  0.3869
 9645TIP3   OH250425   1.262   6.156   0.726  0.5844 -0.2048 -0.0176
 9645TIP3    H150426   1.266   6.168   0.631 -2.6056  1.2920 -0.1179
 9645TIP3    H250427   1.238   6.243   0.760 -1.9149 -1.4452  1.7168
 9646TIP3   OH250428   4.609   0.017  12.489  0.1509  0.4725  0.1097
 9646TIP3    H150429   4.556   0.097  12.490  0.9833  1.0300  0.1908
 9646TIP3    H250430   4.673   0.032  12.420 -0.8371 -0.8971 -1.1698
 9647TIP3   OH250431   4.199   6.646   0.320 -0.6006 -0.0647  0.5405
 9647TIP3    H150432   4.116   6.598   0.326 -1.6846  1.2544 -2.2623
 9647TIP3    H250433   4.195   6.691   0.236  2.0308  1.8631  1.3179
 9648TIP3   OH250434   3.201   6.575   2.720 -0.1149 -0.1036 -0.0677
 9648TIP3    H150435   3.125   6.616   2.762 -0.3848  0.4183 -1.0377
 9648TIP3    H250436   3.262   6.646   2.704 -0.2346 -0.1995 -1.0103
 9649TIP3   OH250437   5.981   2.734   3.049  0.0557 -0.3948  0.0674
 9649TIP3    H150438   5.985   2.822   3.014  1.3480 -0.7536 -0.7656
 9649TIP3    H250439   5.945   2.744   3.137 -0.0458  0.9221 -0.1131
 9650TIP3   OH250440   5.233   4.490   4.791 -0.0169 -0.4420 -0.0664
 9650TIP3    H150441   5.236   4.522   4.701 -0.3523  0.1074  0.1147
 9650TIP3    H250442   5.311   4.435   4.800  2.2510  2.6104  0.4645
 9651TIP3   OH250443   6.457   3.182   1.509 -0.0281 -0.1540 -0.6161
 9651TIP3    H150444   6.522   3.124   1.468  0.5593  0.5695 -0.7385
 9651TIP3    H250445   6.373   3.141   1.491  0.3321 -0.6132 -1.3014
 9652TIP3   OH250446   3.382   5.489   4.036  0.1087 -0.3999  0.1805
 9652TIP3    H150447   3.300   5.450   4.066  0.5425 -0.2136  1.7368
 9652TIP3    H250448   3.356   5.558   3.975 -0.9499  0.1344  1.2008
 9653TIP3   OH250449   5.464   1.686  10.966  0.1134  0.3004  0.3637
 9653TIP3    H150450   5.381   1.674  11.013  0.3553 -0.6049  0.5793
 9653TIP3    H250451   5.510   1.754  11.015  0.0894 -0.1834  1.0737
 9654TIP3   OH250452   0.854   6.040  13.574  0.3700 -0.2476  0.0120
 9654TIP3    H150453   0.874   6.076  13.488 -0.1137  1.2852  0.5051
 9654TIP3    H250454   0.776   5.986  13.560 -0.3892  0.9145 -0.3128
 9655TIP3   OH250455   5.607   4.881   9.143  0.0746 -0.0494  0.3040
 9655TIP3    H150456   5.691   4.845   9.173  1.5359  1.2795 -1.8843
 9655TIP3    H250457   5.619   4.976   9.146 -1.4528  0.1734  0.1524
 9656TIP3   OH250458   1.226   7.243  10.679 -0.4946  0.1496 -0.1553
 9656TIP3    H150459   1.307   7.209  10.717 -0.3492 -0.1153 -0.6964
 9656TIP3    H250460   1.178   7.165  10.652 -0.8251  0.3158 -0.0531
 9657TIP3   OH250461   5.473   4.557  12.451  0.5752 -0.0938  0.1314
 9657TIP3    H150462   5.378   4.554  12.459  0.4386  0.5485 -1.1736
 9657TIP3    H250463   5.498   4.640  12.491  0.3599  0.7729 -1.4717
 9658TIP3   OH250464   7.182   2.310   0.315  0.1598  0.0415 -0.3659
 9658TIP3    H150465   7.150   2.392   0.277 -1.3448  0.3183  1.3470
 9658TIP3    H250466   7.248   2.338   0.379 -0.4094 -0.0345  0.2754
 9659TIP3   OH250467   5.153   7.200   4.285 -0.2891 -0.4915 -0.4954
 9659TIP3    H150468   5.121   7.282   4.322 -0.9649  0.4539 -3.0047
 9659TIP3    H250469   5.088   7.135   4.311 -0.7519  0.1332 -0.0653
 9660TIP3   OH250470   6.072   4.722  13.246  0.0067 -0.0295 -0.0313
 9660TIP3    H150471   6.086   4.732  13.152 -3.1039 -1.0369 -0.7355
 9660TIP3    H250472   6.158   4.701  13.282  1.4011  1.0304 -2.5292
 9661TIP3   OH250473   2.559   5.331   0.507  0.3084  0.0841  0.1784
 9661TIP3    H150474   2.554   5.247   0.551  1.0634 -0.1454 -0.1577
 9661TIP3    H250475   2.500   5.388   0.557  1.4636 -0.0459  1.7778
 9662TIP3   OH250476   2.995   0.745  11.236 -0.0303  0.0520  0.1394
 9662TIP3    H150477   3.032   0.657  11.244  0.6237  0.4171  1.2735
 9662TIP3    H250478   2.906   0.738  11.270  0.1539 -0.0873  0.5940
 9663TIP3   OH250479   0.208   4.424  13.960 -0.6675  0.3711 -0.1929
 9663TIP3    H150480   0.263   4.351  13.987 -2.4805 -1.2173 -0.5201
 9663TIP3    H250481   0.260   4.502  13.977  1.5823 -1.0148 -0.3594
 9664TIP3   OH250482   4.359   5.048  13.807 -0.0525 -0.0118  0.4756
 9664TIP3    H150483   4.402   5.074  13.889  1.6037 -1.3273  0.0773
 9664TIP3    H250484   4.412   4.976  13.774 -0.5868  0.5675 -1.8513
 9665TIP3   OH250485   5.629   6.448   0.251  0.4258 -0.7686  0.1272
 9665TIP3    H150486   5.609   6.405   0.334 -1.4942  0.2197  0.2517
 9665TIP3    H250487   5.692   6.517   0.273 -1.3373  0.6067  1.1557
 9666TIP3   OH250488   0.305   3.518   2.796  0.3051  0.0617 -0.3359
 9666TIP3    H150489   0.223   3.518   2.846  0.9876 -0.2489  0.8394
 9666TIP3    H250490   0.345   3.433   2.816  1.1169  0.3890 -0.5278
 9667TIP3   OH250491   3.750   5.890  11.958  0.0791 -0.4451  0.0015
 9667TIP3    H150492   3.775   5.811  11.910 -0.4283 -0.7623  0.2445
 9667TIP3    H250493   3.776   5.962  11.901  0.1771 -0.7985 -0.4080
 9668TIP3   OH250494   4.913   0.780  10.594  0.2136  0.2728 -0.4056
 9668TIP3    H150495   4.958   0.762  10.511  0.1207  1.0838 -0.6446
 9668TIP3    H250496   4.961   0.854  10.631  0.2093 -0.0412  0.2394
 9669TIP3   OH250497   2.812   2.230  12.610 -0.1069  0.3486  0.6351
 9669TIP3    H150498   2.802   2.237  12.515  2.0949 -1.2138  0.2133
 9669TIP3    H250499   2.813   2.321  12.641 -0.0918  0.9102 -0.9176
 9670TIP3   OH250500   3.723   1.770   1.213  0.2468  0.6025 -0.4376
 9670TIP3    H150501   3.743   1.687   1.256  0.1079  0.6628 -0.2567
 9670TIP3    H250502   3.808   1.813   1.204  0.2157  0.7980  0.2093
 9671TIP3   OH250503   4.608   6.665  14.535  0.0965 -0.4545  0.6596
 9671TIP3    H150504   4.535   6.727  14.530  1.2871  0.8909 -1.3074
 9671TIP3    H250505   4.595   6.608  14.459  0.2922 -1.1441  1.1432
 9672TIP3   OH250506   3.659   2.224   2.602 -0.6092 -0.1517  0.5631
 9672TIP3    H150507   3.627   2.168   2.672 -1.9006  0.4072  0.4426
 9672TIP3    H250508   3.728   2.276   2.643 -1.2900  0.1127  1.4075
 9673TIP3   OH250509   6.810   5.724  11.640 -0.2528  0.4694  0.4620
 9673TIP3    H150510   6.734   5.669  11.661 -1.1530  1.9848  1.3657
 9673TIP3    H250511   6.796   5.804  11.691  1.2668  1.3394 -0.4274
 9674TIP3   OH250512   3.616   6.372  11.991  0.1041  0.1543  0.3571
 9674TIP3    H150513   3.676   6.358  12.065  1.4965  0.3720 -0.6965
 9674TIP3    H250514   3.571   6.288  11.981 -0.2808  0.1926  1.5789
 9675TIP3   OH250515   0.533   3.254  14.246 -0.1700  0.2257 -0.3974
 9675TIP3    H150516   0.449   3.208  14.243  0.5144 -1.0373 -1.1834
 9675TIP3    H250517   0.543   3.292  14.159 -0.8647  2.2011  0.3323
 9676TIP3   OH250518   2.737   4.929   2.615 -0.1728 -0.0008 -0.4312
 9676TIP3    H150519   2.744   5.014   2.572  1.6490  0.4428  0.6441
 9676TIP3    H250520   2.750   4.948   2.708 -0.8106 -1.3387 -0.0466
 9677TIP3   OH250521   6.814   1.219  14.794  0.5941  0.2400  0.1154
 9677TIP3    H150522   6.880   1.276  14.754  0.5864  0.5223  0.4996
 9677TIP3    H250523   6.855   1.189  14.876 -0.8302  2.7600  1.8745
 9678TIP3   OH250524   2.064   0.248   1.585  0.4715  0.1719 -0.5106
 9678TIP3    H150525   2.065   0.343   1.580  0.8481  0.0920 -2.8656
 9678TIP3    H250526   2.152   0.221   1.560  0.5722 -0.8093  0.7658
 9679TIP3   OH250527   3.699   3.231   1.196 -0.0208  0.3325 -0.4700
 9679TIP3    H150528   3.698   3.137   1.216 -1.4708  0.6543  1.1095
 9679TIP3    H250529   3.773   3.265   1.246 -1.8129  0.6158  2.2070
 9680TIP3   OH250530   0.421   0.181  10.848 -0.1903 -0.2379 -0.1839
 9680TIP3    H150531   0.411   0.095  10.806 -1.0027  0.1947 -0.9034
 9680TIP3    H250532   0.335   0.222  10.840  0.6776  1.4629 -1.6872
 9681TIP3   OH250533   5.208   3.676  14.009 -0.3155  0.2584  0.2013
 9681TIP3    H150534   5.246   3.634  13.931  0.0795  1.4547 -0.2709
 9681TIP3    H250535   5.115   3.653  14.005 -0.1439 -0.4312 -0.1272
 9682TIP3   OH250536   3.748   1.539  12.470  0.1285  0.4973 -0.2232
 9682TIP3    H150537   3.676   1.476  12.468  1.0398 -0.5622 -0.2730
 9682TIP3    H250538   3.734   1.595  12.393 -0.9779  0.7068  0.1128
 9683TIP3   OH250539   5.216   4.568  12.493  0.8631 -0.1981 -0.0718
 9683TIP3    H150540   5.186   4.658  12.505  0.1548 -0.6107  1.4867
 9683TIP3    H250541   5.136   4.517  12.482  1.1626 -0.8575  0.7127
 9684TIP3   OH250542   5.863   0.422   9.469  0.0945 -0.1489  0.0312
 9684TIP3    H150543   5.844   0.516   9.464 -2.2802 -0.6030 -0.5117
 9684TIP3    H250544   5.941   0.410   9.415 -0.2698  1.3356 -0.8749
 9685TIP3   OH250545   4.976   2.308  11.354 -0.3062  0.1809  0.3707
 9685TIP3    H150546   4.962   2.215  11.374 -3.0844  0.5734  0.5467
 9685TIP3    H250547   5.016   2.344  11.433 -0.0289 -0.6643  0.6277
 9686TIP3   OH250548   1.553   3.730   4.690  0.8774 -0.1542 -0.0728
 9686TIP3    H150549   1.619   3.665   4.668  2.8126  2.1887 -1.6632
 9686TIP3    H250550   1.561   3.743   4.784  1.6722 -0.9633 -0.0255
 9687TIP3   OH250551   4.164   3.425   3.251  0.7830  0.1395 -0.3943
 9687TIP3    H150552   4.105   3.497   3.228 -0.9670 -0.3166  2.3210
 9687TIP3    H250553   4.212   3.456   3.328  0.8717 -1.1513  0.1007
 9688TIP3   OH250554   5.524   2.262  14.289  0.4739 -0.3379  0.3628
 9688TIP3    H150555   5.568   2.199  14.347 -1.7921 -2.1309  0.2431
 9688TIP3    H250556   5.477   2.321  14.348  0.6027 -0.2721  0.4012
 9689TIP3   OH250557   6.794   6.556   4.743 -0.0930 -0.8794  0.5473
 9689TIP3    H150558   6.854   6.538   4.671 -1.5548  0.9814 -1.2781
 9689TIP3    H250559   6.849   6.594   4.812  0.7886  1.9620 -1.5345
 9690TIP3   OH250560   2.672   6.483  14.219  0.1841  0.2135  0.6685
 9690TIP3    H150561   2.724   6.552  14.176  0.6736 -0.3664  0.3051
 9690TIP3    H250562   2.613   6.530  14.277 -0.8981  1.0812 -1.0511
 9691TIP3   OH250563   2.158   5.576  14.180 -0.4843  0.8414 -0.1829
 9691TIP3    H150564   2.068   5.550  14.198 -0.4275 -0.1733 -1.2269
 9691TIP3    H250565   2.164   5.575  14.084  0.1572  2.6078 -0.2091
 9692TIP3   OH250566   5.825   1.410   3.032  0.5013 -0.3502  0.3730
 9692TIP3    H150567   5.915   1.423   3.062  0.9061 -0.3458 -0.8159
 9692TIP3    H250568   5.833   1.363   2.949 -0.6849 -2.6615  1.4430
 9693TIP3   OH250569   6.526   2.847   0.201  0.3173 -0.1331  0.8068
 9693TIP3    H150570   6.599   2.856   0.262  0.7016 -0.0221  0.3429
 9693TIP3    H250571   6.465   2.787   0.244  0.3837  0.2721  1.4729
 9694TIP3   OH250572   5.678   2.476   0.469  0.0854 -0.0256 -0.6681
 9694TIP3    H150573   5.584   2.459   0.465  0.0829 -0.1022 -0.2498
 9694TIP3    H250574   5.696   2.493   0.561  0.6613 -1.0118 -0.5896
 9695TIP3   OH250575   1.681   5.797   1.755 -0.5920 -0.1045  0.1062
 9695TIP3    H150576   1.684   5.856   1.679  0.3186 -1.1746 -0.7322
 9695TIP3    H250577   1.747   5.831   1.815 -1.1248  0.5920  0.3037
 9696TIP3   OH250578   3.353   0.435  11.477 -0.0614  0.2683  0.7297
 9696TIP3    H150579   3.433   0.410  11.432 -1.4292 -0.8694 -1.2477
 9696TIP3    H250580   3.337   0.525  11.451  0.4122  0.3947  0.8794
 9697TIP3   OH250581   2.270   1.307   5.103 -0.4940 -0.2412  0.1232
 9697TIP3    H150582   2.234   1.383   5.149 -0.1561 -0.6517  1.0894
 9697TIP3    H250583   2.335   1.271   5.163  0.4904 -0.3732 -0.9815
 9698TIP3   OH250584   3.772   0.832  11.870 -0.3605  0.2033 -0.2595
 9698TIP3    H150585   3.721   0.751  11.870  1.6337 -1.2386 -2.9337
 9698TIP3    H250586   3.708   0.901  11.855 -1.9249 -1.0770  0.2670
 9699TIP3   OH250587   2.234   0.289  13.811  0.2904  0.1011 -0.2381
 9699TIP3    H150588   2.191   0.241  13.881  1.0901  2.6538  2.1870
 9699TIP3    H250589   2.193   0.375  13.812  3.0724  1.5468 -0.0561
 9700TIP3   OH250590   1.353   0.565  12.201 -0.1394  0.3910 -0.6313
 9700TIP3    H150591   1.315   0.521  12.278  0.1772 -0.0533 -0.7201
 9700TIP3    H250592   1.281   0.615  12.164 -0.2834  0.6525 -0.0117
 9701TIP3   OH250593   0.649   3.376  13.278 -0.0627  0.4860 -0.0120
 9701TIP3    H150594   0.692   3.438  13.337 -1.9666  1.0103  0.9168
 9701TIP3    H250595   0.716   3.312  13.256  1.5708  2.0723  0.1512
 9702TIP3   OH250596   3.495   4.366   3.147  0.9645  0.0368  0.5567
 9702TIP3    H150597   3.583   4.330   3.158  0.6319 -0.5465  1.4831
 9702TIP3    H250598   3.458   4.317   3.074  0.8893 -0.7965  1.1345
 9703TIP3   OH250599   0.976   2.952  12.102 -0.2402  0.2510 -0.6763
 9703TIP3    H150600   0.887   2.985  12.092 -0.8172 -1.2420 -0.6962
 9703TIP3    H250601   1.026   3.027  12.134 -1.6630  0.9031  0.1032
 9704TIP3   OH250602   6.450   7.027   3.821 -0.0059  0.3443  0.6768
 9704TIP3    H150603   6.382   7.067   3.767  0.1759 -0.0693  0.1451
 9704TIP3    H250604   6.403   6.997   3.900 -0.3336  0.5909  0.5798
 9705TIP3   OH250605   4.320   2.727  14.882  0.7284 -0.2682  0.2247
 9705TIP3    H150606   4.338   2.771  14.799 -1.1325 -1.2045 -0.7357
 9705TIP3    H250607   4.360   2.640  14.872  0.9262 -0.2104  0.5102
 9706TIP3   OH250608   7.057   5.243  14.699 -0.3669 -0.0923  0.3483
 9706TIP3    H150609   7.118   5.169  14.691 -0.7580 -0.3541 -0.4131
 9706TIP3    H250610   6.971   5.203  14.683 -0.5448  0.5864 -0.4590
 9707TIP3   OH250611   4.156   3.378  13.243 -0.6840 -0.3105  0.4174
 9707TIP3    H150612   4.183   3.332  13.322 -0.0953  0.3195  0.5887
 9707TIP3    H250613   4.143   3.469  13.271 -0.0251  0.0155 -0.2985
 9708TIP3   OH250614   0.736   6.732   1.562  0.6216 -0.6888 -0.2120
 9708TIP3    H150615   0.775   6.795   1.624  1.7590  0.1756 -1.7385
 9708TIP3    H250616   0.652   6.771   1.539  0.2297 -0.9689  0.7000
 9709TIP3   OH250617   1.338   1.277  13.108  0.0465 -0.0783 -0.0514
 9709TIP3    H150618   1.346   1.208  13.174  1.4837 -0.5127 -0.6406
 9709TIP3    H250619   1.403   1.343  13.133  1.8143 -1.0132 -1.8697
 9710TIP3   OH250620   3.364   0.720  14.336  0.5947  0.5209  0.1322
 9710TIP3    H150621   3.287   0.714  14.279  1.6000  0.6791 -1.3051
 9710TIP3    H250622   3.339   0.673  14.415  0.0895 -2.2012 -1.5198
 9711TIP3   OH250623   5.378   6.687   1.547 -0.1645 -0.4776 -0.3685
 9711TIP3    H150624   5.380   6.629   1.623  1.8014 -0.5054 -0.3723
 9711TIP3    H250625   5.371   6.775   1.585  0.4141 -0.5174 -0.1457
 9712TIP3   OH250626   3.236   5.581  12.905 -0.3656 -0.1830 -0.1319
 9712TIP3    H150627   3.241   5.487  12.922 -1.5982 -0.1702  0.4220
 9712TIP3    H250628   3.327   5.607  12.890  0.0506 -1.3712  0.1544
 9713TIP3   OH250629   2.535   1.159   4.833 -0.1286 -0.1124  0.0235
 9713TIP3    H150630   2.564   1.069   4.842  0.1625  0.1970  4.0449
 9713TIP3    H250631   2.439   1.154   4.830 -0.1305 -0.5618  0.7213
 9714TIP3   OH250632   1.915   4.724   1.968 -0.1637 -0.5297  0.1279
 9714TIP3    H150633   1.998   4.761   2.001  0.1042 -1.1811  0.1966
 9714TIP3    H250634   1.934   4.699   1.878 -0.3341 -0.5310  0.0928
 9715TIP3   OH250635   4.553   1.556  11.945  0.0014 -0.2759  0.6346
 9715TIP3    H150636   4.530   1.615  12.016  2.1790 -0.3273  1.4469
 9715TIP3    H250637   4.497   1.479  11.959  0.7630 -0.5235  2.6483
 9716TIP3   OH250638   3.015   0.327  11.694  0.6066  0.1227 -0.8619
 9716TIP3    H150639   3.080   0.266  11.659  2.0099  1.9545 -1.5961
 9716TIP3    H250640   2.941   0.321  11.633  1.9152  1.2437 -2.6640
 9717TIP3   OH250641   4.384   1.984   1.138 -0.5206  0.2949 -0.2580
 9717TIP3    H150642   4.297   1.993   1.098  0.0817  1.8643 -1.3033
 9717TIP3    H250643   4.442   2.035   1.081  0.8404  0.4656  1.2278
 9718TIP3   OH250644   5.118   0.184   1.954  0.2457 -0.6926  0.0322
 9718TIP3    H150645   5.127   0.093   1.925 -0.1737 -0.6144 -0.3571
 9718TIP3    H250646   5.036   0.214   1.914  0.6832  0.0422 -0.3400
 9719TIP3   OH250647   1.639   0.869  11.378 -0.1999 -0.3195 -0.4921
 9719TIP3    H150648   1.709   0.817  11.416  0.8546  0.4875 -1.2393
 9719TIP3    H250649   1.682   0.950  11.351 -1.3984  0.1404 -1.1047
 9720TIP3   OH250650   1.456   5.660  11.835 -0.4429 -0.0806  0.2309
 9720TIP3    H150651   1.508   5.691  11.761 -0.9216  0.8333  0.2688
 9720TIP3    H250652   1.517   5.607  11.886 -0.3672 -1.6490 -1.3561
 9721TIP3   OH250653   4.906   4.958   0.378  0.4498 -0.2736 -0.0351
 9721TIP3    H150654   4.954   5.011   0.442 -0.9320  2.2633 -0.9559
 9721TIP3    H250655   4.954   4.969   0.296 -1.0623  1.5757 -0.7611
 9722TIP3   OH250656   1.399   0.593   1.216 -0.1318  0.3758  0.1895
 9722TIP3    H150657   1.432   0.670   1.263  0.5054  0.0732  0.2476
 9722TIP3    H250658   1.304   0.597   1.228 -0.0738  0.9582  0.4950
 9723TIP3   OH250659   1.800   2.194   5.748 -0.0726 -0.0733 -0.5173
 9723TIP3    H150660   1.754   2.239   5.819 -2.6795 -0.6038 -1.7385
 9723TIP3    H250661   1.844   2.120   5.791 -0.1273  0.6128  0.7695
 9724TIP3   OH250662   2.239   2.428  12.430 -0.1145 -0.3925 -0.0946
 9724TIP3    H150663   2.153   2.438  12.470 -0.3449  0.6963 -0.8152
 9724TIP3    H250664   2.221   2.405  12.339  0.3757 -1.2707  0.0196
 9725TIP3   OH250665   5.065   1.069  14.149  0.5654 -0.2404 -0.2083
 9725TIP3    H150666   4.992   1.106  14.198  0.9362 -0.0464  0.1952
 9725TIP3    H250667   5.137   1.065  14.211  0.8141 -0.7281 -0.5147
 9726TIP3   OH250668   5.815   5.019  10.465  0.1899 -0.3125 -0.0781
 9726TIP3    H150669   5.885   5.006  10.401 -1.0706  2.0922 -2.1012
 9726TIP3    H250670   5.861   5.036  10.548  1.8707 -2.5873 -0.4766
 9727TIP3   OH250671   1.632   1.426   0.538  0.0879  0.3702 -0.1162
 9727TIP3    H150672   1.660   1.390   0.622 -0.9670  1.1007  0.5771
 9727TIP3    H250673   1.537   1.418   0.538  0.1649 -1.9063 -2.3357
 9728TIP3   OH250674   2.461   6.198   3.724 -0.0822 -0.3535  0.0761
 9728TIP3    H150675   2.489   6.212   3.633 -0.9470  0.8274 -0.0294
 9728TIP3    H250676   2.375   6.156   3.716 -0.6788  0.7975  0.3199
 9729TIP3   OH250677   6.831   2.557  13.400 -0.1720  0.5594  0.3327
 9729TIP3    H150678   6.875   2.634  13.438  1.7941  0.1017 -0.9094
 9729TIP3    H250679   6.738   2.575  13.414  0.2899  2.4029  1.5195
 9730TIP3   OH250680   4.975   0.909   0.834  0.1044 -0.0630  0.2690
 9730TIP3    H150681   4.889   0.928   0.870 -0.2338  1.5277 -1.2916
 9730TIP3    H250682   5.029   0.984   0.860  0.5331 -0.1623 -0.3136
 9731TIP3   OH250683   6.243   5.413   2.774 -0.5649 -0.3878  0.0642
 9731TIP3    H150684   6.216   5.397   2.683 -0.3754 -1.0640  0.1196
 9731TIP3    H250685   6.266   5.326   2.807 -0.5465 -0.1298  0.7324
 9732TIP3   OH250686   6.455   6.106  11.368  0.0115 -0.2026  0.2668
 9732TIP3    H150687   6.493   6.020  11.383  1.0193 -0.7956 -4.2834
 9732TIP3    H250688   6.508   6.165  11.422  1.9419 -2.0076  0.4919
 9733TIP3   OH250689   4.247   3.692  12.549  0.2014 -0.4493 -0.1842
 9733TIP3    H150690   4.273   3.623  12.611 -1.3359 -0.2401  0.7496
 9733TIP3    H250691   4.164   3.661  12.514  0.2080  0.2655 -0.8391
 9734TIP3   OH250692   5.355   2.479  14.952 -0.5240  0.5079 -0.0365
 9734TIP3    H150693   5.383   2.529  15.028 -0.4195  0.6769 -0.1849
 9734TIP3    H250694   5.429   2.421  14.933 -0.9295 -0.2138  0.5678
 9735TIP3   OH250695   3.919   4.704   4.254  0.0882 -0.0071  0.0610
 9735TIP3    H150696   3.908   4.771   4.320 -0.3331  0.1905 -0.2065
 9735TIP3    H250697   3.830   4.676   4.232  0.2532 -0.5481  0.0671
 9736TIP3   OH250698   0.034   1.875   9.884 -0.2026  0.2912  0.1190
 9736TIP3    H150699  -0.014   1.792   9.887  2.3712 -1.2624  1.1695
 9736TIP3    H250700   0.035   1.899   9.792 -0.2066 -1.3600 -0.3368
 9737TIP3   OH250701   6.477   3.638   9.803 -0.5806 -0.0472 -0.0063
 9737TIP3    H150702   6.525   3.608   9.726 -0.0091 -0.6609  0.5697
 9737TIP3    H250703   6.415   3.703   9.770  0.1051  0.1724 -0.8785
 9738TIP3   OH250704   1.636   4.286  10.445  0.4302  0.0260 -0.2920
 9738TIP3    H150705   1.586   4.353  10.400 -0.0675 -1.6615 -2.4028
 9738TIP3    H250706   1.589   4.272  10.528 -0.1854  1.3036 -0.3932
 9739TIP3   OH250707   6.527   3.632   1.818  0.6074  0.0908 -0.1895
 9739TIP3    H150708   6.506   3.702   1.879  0.2780  0.0702 -0.2769
 9739TIP3    H250709   6.552   3.676   1.737 -0.8842  0.1106 -0.6725
 9740TIP3   OH250710   6.569   4.260  12.668 -0.0312 -0.0939 -0.3182
 9740TIP3    H150711   6.592   4.216  12.586  1.4575  0.6650 -0.3246
 9740TIP3    H250712   6.612   4.345  12.663 -0.9417  0.4510  0.7258
 9741TIP3   OH250713   1.133   4.216   3.380  0.8708  0.0128 -0.5731
 9741TIP3    H150714   1.094   4.254   3.458  0.0711 -2.8126  0.5500
 9741TIP3    H250715   1.061   4.214   3.316  0.4071 -0.9996 -0.0611
 9742TIP3   OH250716   2.591   5.657   2.945  0.6229  0.6511 -0.1456
 9742TIP3    H150717   2.522   5.629   3.005  1.2495 -3.1167 -0.9466
 9742TIP3    H250718   2.544   5.700   2.873 -0.5775  0.8645  0.7382
 9743TIP3   OH250719   3.713   0.222   0.503 -0.5895 -0.6993  0.6280
 9743TIP3    H150720   3.651   0.154   0.532 -0.6252 -0.5887  0.8152
 9743TIP3    H250721   3.752   0.254   0.584 -1.8610  0.7452  0.7162
 9744TIP3   OH250722   5.279   1.367   0.626  0.0427  0.0443  0.2536
 9744TIP3    H150723   5.312   1.323   0.547  0.5515  0.5287  0.1883
 9744TIP3    H250724   5.185   1.352   0.624 -0.3386  2.0803 -1.7580
 9745TIP3   OH250725   3.487   3.298  13.958 -0.2971  0.3014  0.0421
 9745TIP3    H150726   3.450   3.211  13.976  0.1275 -0.1921 -1.3331
 9745TIP3    H250727   3.437   3.357  14.013 -1.6549 -0.6212 -0.1573
 9746TIP3   OH250728   6.636   5.384  15.324 -0.2885 -0.2214 -0.2721
 9746TIP3    H150729   6.566   5.320  15.336  1.0604 -1.6450  0.3251
 9746TIP3    H250730   6.605   5.463  15.368 -1.1318 -1.1148  0.7690
 9747TIP3   OH250731   3.250   5.783   4.570 -0.1440 -0.4599  0.1450
 9747TIP3    H150732   3.259   5.692   4.543  0.3373 -0.8251  1.4579
 9747TIP3    H250733   3.335   5.822   4.550 -0.6754 -0.0122 -1.3587
 9748TIP3   OH250734   0.480   4.861   1.058 -0.2400 -0.0844  0.0965
 9748TIP3    H150735   0.515   4.827   1.140  2.6416 -0.0947 -1.0338
 9748TIP3    H250736   0.507   4.953   1.057 -0.0850 -0.1362 -0.9299
 9749TIP3   OH250737   6.510   6.717   3.520 -0.1302  0.3979  0.1017
 9749TIP3    H150738   6.541   6.708   3.610  0.7166 -0.4713 -0.2587
 9749TIP3    H250739   6.483   6.808   3.513  2.7210  1.3636  0.3627
 9750TIP3   OH250740   1.529   1.962  12.201  0.6900 -0.0562 -0.2109
 9750TIP3    H150741   1.606   2.018  12.199  0.7002  0.1322  2.0906
 9750TIP3    H250742   1.551   1.892  12.263  0.0670 -1.7255 -1.7719
 9751TIP3   OH250743   1.436   3.785  10.445  0.1000 -0.2801  0.2915
 9751TIP3    H150744   1.352   3.784  10.490 -0.7393 -4.3323 -0.9503
 9751TIP3    H250745   1.500   3.769  10.514 -0.6062 -0.9949  0.8130
 9752TIP3   OH250746   3.899   3.652   4.626 -0.4275 -0.5630  0.0070
 9752TIP3    H150747   3.885   3.563   4.658 -0.1607 -0.4332  0.4942
 9752TIP3    H250748   3.841   3.660   4.550 -2.0598 -0.4550  1.2173
 9753TIP3   OH250749   3.934   1.887   4.778  0.2018  0.4745 -0.1453
 9753TIP3    H150750   3.915   1.970   4.733 -0.3351 -0.0080 -0.8366
 9753TIP3    H250751   3.866   1.827   4.747  0.8782 -0.3681 -0.0332
 9754TIP3   OH250752   4.876   3.666   2.050  0.6623  0.4385 -0.7396
 9754TIP3    H150753   4.949   3.612   2.080 -0.4655 -0.8885 -0.2759
 9754TIP3    H250754   4.888   3.670   1.955  1.0859 -0.1661 -0.7245
 9755TIP3   OH250755   7.159   4.409   3.399 -0.3566 -0.0936  0.2386
 9755TIP3    H150756   7.214   4.466   3.345  1.3834 -1.5099  0.4287
 9755TIP3    H250757   7.135   4.337   3.342  0.8341 -1.1932  1.0476
 9756TIP3   OH250758   1.115   7.028   4.763  0.2064  0.5164 -0.7073
 9756TIP3    H150759   1.093   6.942   4.797 -2.9285  1.2689 -0.4765
 9756TIP3    H250760   1.186   7.059   4.819  0.5223 -1.3844  0.0203
 9757TIP3   OH250761   1.199   3.976   2.227 -0.6892 -0.2545 -0.2489
 9757TIP3    H150762   1.230   3.999   2.315 -0.3443 -0.2829 -0.3606
 9757TIP3    H250763   1.127   4.037   2.210 -1.4846 -0.9694  0.4819
 9758TIP3   OH250764   1.236   0.671  15.260  0.2390 -0.3502  0.6342
 9758TIP3    H150765   1.243   0.687  15.166  0.1046  1.5043  0.9038
 9758TIP3    H250766   1.142   0.674  15.277  0.2075 -1.4781  0.7240
 9759TIP3   OH250767   5.803   2.346  11.277 -0.0450 -0.1559 -0.2198
 9759TIP3    H150768   5.877   2.325  11.334  0.5999  1.6214 -0.3545
 9759TIP3    H250769   5.826   2.307  11.192  1.5588  1.7497 -0.7241
 9760TIP3   OH250770   2.802   2.573  12.391  0.5296 -0.4235 -0.2904
 9760TIP3    H150771   2.852   2.514  12.448  0.0709 -0.0189  0.5587
 9760TIP3    H250772   2.772   2.643  12.450  0.4418  0.2635 -1.1332
 9761TIP3   OH250773   4.607   1.625   4.074 -0.0470 -0.3240 -0.0860
 9761TIP3    H150774   4.682   1.629   4.132  0.7993 -0.1642 -1.1744
 9761TIP3    H250775   4.533   1.650   4.130  0.7280 -0.1815  0.9168
 9762TIP3   OH250776   6.822   6.250   4.343  0.4435  0.5971 -0.5306
 9762TIP3    H150777   6.832   6.194   4.265  0.4887  0.5134 -0.4650
 9762TIP3    H250778   6.907   6.244   4.387  0.1766  0.0349 -0.0720
 9763TIP3   OH250779   6.554   6.058  10.279 -0.3197 -0.5543  0.2658
 9763TIP3    H150780   6.559   6.129  10.215 -0.3143 -0.4716  0.3583
 9763TIP3    H250781   6.544   5.979  10.226 -1.2441 -0.3922  0.1937
 9764TIP3   OH250782   2.797   4.991   0.233 -0.0074 -0.2921 -0.0047
 9764TIP3    H150783   2.883   4.954   0.253 -0.3624 -1.4930 -0.5895
 9764TIP3    H250784   2.814   5.054   0.163  0.4631 -0.1657  0.2178
 9765TIP3   OH250785   0.563   4.912   2.396  0.2742  0.1210  0.1106
 9765TIP3    H150786   0.596   4.978   2.456 -0.7784 -0.5448  1.4753
 9765TIP3    H250787   0.635   4.850   2.384  1.3205  1.5404 -1.2961
 9766TIP3   OH250788   6.258   6.037   0.411 -0.0245 -0.1024  0.1126
 9766TIP3    H150789   6.233   6.048   0.320 -2.1278  0.1825  0.6805
 9766TIP3    H250790   6.342   5.990   0.407  0.2419  0.4316 -1.9427
 9767TIP3   OH250791   4.311   1.117  13.322  0.0399  0.7077 -0.0290
 9767TIP3    H150792   4.281   1.042  13.374  1.7069  0.8254  1.1640
 9767TIP3    H250793   4.394   1.143  13.362  0.5643  1.8633 -1.7514
 9768TIP3   OH250794   5.672   3.261   0.940  0.2088  0.2771 -0.1700
 9768TIP3    H150795   5.691   3.167   0.939 -0.8030  0.0060 -2.5614
 9768TIP3    H250796   5.597   3.270   0.998  1.7004 -0.0007  1.9011
 9769TIP3   OH250797   0.067   2.487   4.220  0.1372  0.1686 -0.1832
 9769TIP3    H150798   0.066   2.482   4.125  0.2149  1.0287 -0.2357
 9769TIP3    H250799   0.004   2.555   4.241 -0.3636 -0.4613  0.4237
 9770TIP3   OH250800   4.786   6.340  11.412 -0.2362 -0.2714 -0.3851
 9770TIP3    H150801   4.698   6.374  11.392  0.7219  1.6231 -1.7128
 9770TIP3    H250802   4.815   6.300  11.330  0.0995 -1.0437  0.1003
 9771TIP3   OH250803   7.225   6.696   4.657 -0.4383  0.9037  0.0127
 9771TIP3    H150804   7.294   6.755   4.689 -0.4714  0.9989 -0.0915
 9771TIP3    H250805   7.173   6.750   4.598  1.5701 -0.0493 -2.8959
 9772TIP3   OH250806   1.727   5.270  10.652 -0.4055 -0.2537  0.1339
 9772TIP3    H150807   1.774   5.197  10.611  0.0206  0.3041 -0.3933
 9772TIP3    H250808   1.794   5.319  10.699 -0.5364  0.2429 -0.1802
 9773TIP3   OH250809   3.348   3.885  12.589 -0.3565 -0.2455 -0.1875
 9773TIP3    H150810   3.287   3.916  12.656  0.3553  1.5285 -0.2978
 9773TIP3    H250811   3.429   3.866  12.637 -0.7012 -1.8160 -0.1606
 9774TIP3   OH250812   1.266   3.515  11.228  0.0735 -0.6367 -0.0620
 9774TIP3    H150813   1.332   3.455  11.193  0.3337 -0.0655 -0.5764
 9774TIP3    H250814   1.184   3.486  11.189  0.1541 -0.8481 -0.0730
 9775TIP3   OH250815   3.842   1.114   4.485 -0.1707 -0.2737 -0.7848
 9775TIP3    H150816   3.822   1.092   4.394  1.9300 -1.4379 -1.0347
 9775TIP3    H250817   3.925   1.161   4.481 -0.5189  0.4978  0.4822
 9776TIP3   OH250818   3.527   0.310   3.004  0.1067 -0.6257  0.1305
 9776TIP3    H150819   3.559   0.307   2.914  1.3738 -0.9706  0.5791
 9776TIP3    H250820   3.605   0.319   3.058 -0.3228 -3.4421  1.3968
 9777TIP3   OH250821   6.060   6.000   0.597  0.3118  0.4385  0.2440
 9777TIP3    H150822   6.122   6.021   0.527  0.7576  1.7277  0.9774
 9777TIP3    H250823   6.101   5.929   0.646  0.5016  0.2702 -0.1581
 9778TIP3   OH250824   5.949   1.425   3.912  0.0283 -0.1926  0.0798
 9778TIP3    H150825   6.001   1.504   3.926  2.2698 -1.6170  0.2511
 9778TIP3    H250826   5.999   1.356   3.955 -1.8998 -1.7259 -0.0087
 9779TIP3   OH250827   2.172   2.995   0.553 -0.0480  0.3710 -0.0008
 9779TIP3    H150828   2.100   2.937   0.530  0.4824  0.4481 -1.9974
 9779TIP3    H250829   2.132   3.063   0.607 -1.8052  1.2136 -2.2530
 9780TIP3   OH250830   1.288   2.108   9.677  0.3474  0.6525  0.1291
 9780TIP3    H150831   1.218   2.163   9.643  0.2255  0.6045  0.2960
 9780TIP3    H250832   1.354   2.170   9.709  0.6540  0.6959 -0.5703
 9781TIP3   OH250833   3.781   0.426  14.258  0.0056  0.0937  0.3602
 9781TIP3    H150834   3.754   0.506  14.303  0.7757  0.1642  0.7217
 9781TIP3    H250835   3.847   0.456  14.195  0.8752 -0.3381  1.0356
 9782TIP3   OH250836   1.297   6.670  13.366 -0.2203 -0.0084  0.1645
 9782TIP3    H150837   1.345   6.636  13.290  1.8477  1.4618  0.7266
 9782TIP3    H250838   1.361   6.723  13.413 -1.9141  0.4864  2.0506
 9783TIP3   OH250839   6.232   2.188   3.732  0.5356 -0.1738  0.1570
 9783TIP3    H150840   6.266   2.109   3.690  1.8811 -1.9234  4.0223
 9783TIP3    H250841   6.311   2.234   3.762 -0.1704 -1.1486  4.0330
 9784TIP3   OH250842   1.290   3.724   2.568  0.3296  0.1666 -0.0283
 9784TIP3    H150843   1.299   3.809   2.525  1.5565  0.0304 -0.0750
 9784TIP3    H250844   1.196   3.705   2.564 -0.3267  2.4335  1.7654
 9785TIP3   OH250845   4.631   4.717  10.252  0.2766 -0.2802 -0.2954
 9785TIP3    H150846   4.544   4.724  10.215 -0.3361 -0.2094  1.0949
 9785TIP3    H250847   4.638   4.626  10.281  0.4795 -0.1748  0.0014
 9786TIP3   OH250848   6.332   0.271  15.110 -0.0337 -0.2807 -0.3696
 9786TIP3    H150849   6.345   0.364  15.129  1.4349 -0.1143 -1.9275
 9786TIP3    H250850   6.252   0.268  15.057 -1.0687 -0.1442  1.1308
 9787TIP3   OH250851   6.016   0.467   1.501 -0.4503  0.2841  0.0431
 9787TIP3    H150852   5.965   0.387   1.493  0.7466 -0.4036 -0.9098
 9787TIP3    H250853   6.107   0.439   1.496  0.0176  1.6175  0.5058
 9788TIP3   OH250854   2.744   7.134   5.429 -0.2248 -0.0759  0.6347
 9788TIP3    H150855   2.708   7.214   5.467 -1.9146 -0.7108  0.4390
 9788TIP3    H250856   2.682   7.065   5.453 -0.8365 -0.7137 -2.3127
 9789TIP3   OH250857   3.809   5.114  14.730  0.3821 -0.4215 -0.2014
 9789TIP3    H150858   3.778   5.052  14.796 -1.2721 -0.1222 -0.6528
 9789TIP3    H250859   3.745   5.185  14.732 -0.2344 -0.8033 -2.7121
 9790TIP3   OH250860   5.052   0.407  13.333  0.3019  0.3525  0.4029
 9790TIP3    H150861   5.098   0.488  13.354  1.8418 -0.1847 -0.7315
 9790TIP3    H250862   5.040   0.364  13.417  2.7674  0.0736  0.6753
 9791TIP3   OH250863   1.807   7.045   0.268  0.1741  0.3296 -0.5626
 9791TIP3    H150864   1.775   7.079   0.185 -0.7079  0.1695 -0.2975
 9791TIP3    H250865   1.751   7.086   0.334 -0.7078 -1.3490 -0.2110
 9792TIP3   OH250866   0.758   4.719   3.374  0.2764  0.4944  0.2805
 9792TIP3    H150867   0.729   4.807   3.347 -0.2236  0.9208  2.0270
 9792TIP3    H250868   0.680   4.665   3.367  0.2853  0.4754  0.3260
 9793TIP3   OH250869   1.769   5.485  11.220  0.6949 -0.5173 -0.1910
 9793TIP3    H150870   1.723   5.557  11.264  1.9769 -0.6867  1.5366
 9793TIP3    H250871   1.733   5.484  11.131 -1.6447  0.2075  0.6671
 9794TIP3   OH250872   5.663   3.673  14.029 -0.6493  0.3779  0.0711
 9794TIP3    H150873   5.592   3.738  14.029 -1.4236 -0.4506 -0.1120
 9794TIP3    H250874   5.624   3.595  14.067 -0.1351 -0.4060 -0.9619
 9795TIP3   OH250875   3.613   0.170   2.510  0.2463 -0.4903  0.2354
 9795TIP3    H150876   3.596   0.077   2.496  0.0318 -0.3526 -0.4615
 9795TIP3    H250877   3.574   0.213   2.435 -0.5666  0.2633  1.0668
 9796TIP3   OH250878   6.576   4.566   4.425  0.5029  0.1319 -0.5580
 9796TIP3    H150879   6.612   4.644   4.383 -1.2410  0.3847 -1.6602
 9796TIP3    H250880   6.529   4.599   4.502 -1.3462  0.3728 -1.7379
 9797TIP3   OH250881   6.875   5.692   2.699  0.0556  0.4700 -0.0861
 9797TIP3    H150882   6.794   5.736   2.677 -1.7124 -1.9961  1.0396
 9797TIP3    H250883   6.859   5.600   2.679  1.8220 -0.4070  2.0598
 9798TIP3   OH250884   4.147   1.114  11.532 -0.1514 -0.1642 -0.1675
 9798TIP3    H150885   4.098   1.181  11.579  0.5709  1.8330 -2.0470
 9798TIP3    H250886   4.112   1.118  11.443  1.9276 -0.1184 -1.0486
 9799TIP3   OH250887   1.761   6.040  14.433 -0.0173 -0.4431 -0.0993
 9799TIP3    H150888   1.738   6.124  14.473  0.6602 -0.2771 -0.0405
 9799TIP3    H250889   1.722   6.043  14.345  0.6527  0.2572 -0.3795
 9800TIP3   OH250890   3.344   6.790  14.854  0.3743  0.1268  0.1009
 9800TIP3    H150891   3.322   6.857  14.789  1.5908  0.2920 -0.1668
 9800TIP3    H250892   3.391   6.837  14.923 -1.6916  0.1181  1.5957
 9801TIP3   OH250893   5.258   0.422  11.638  0.5235  0.3673  0.4315
 9801TIP3    H150894   5.279   0.329  11.642  1.5512  0.6244  2.3097
 9801TIP3    H250895   5.176   0.426  11.588  0.3398 -1.5481  0.4856
 9802TIP3   OH250896   4.752   3.578   3.329 -0.5865  0.2113  0.3009
 9802TIP3    H150897   4.799   3.585   3.413 -0.2638  2.1916  0.0007
 9802TIP3    H250898   4.819   3.595   3.263 -0.9796 -0.6658 -0.3330
 9803TIP3   OH250899   1.038   4.171   0.497 -0.3294  0.2192 -0.6047
 9803TIP3    H150900   1.114   4.140   0.447 -0.2215  0.0628 -0.3438
 9803TIP3    H250901   0.999   4.091   0.534  0.6772  0.4862  1.1097
 9804TIP3   OH250902   3.569   5.467  14.196 -0.2682 -0.4836  0.2391
 9804TIP3    H150903   3.607   5.555  14.198  0.1053 -0.4388 -2.9993
 9804TIP3    H250904   3.630   5.416  14.143 -1.3028 -2.2901  0.6942
 9805TIP3   OH250905   0.496   5.203  10.461 -0.1866 -0.2221  0.3250
 9805TIP3    H150906   0.443   5.138  10.508  0.0344 -1.2636 -0.8050
 9805TIP3    H250907   0.502   5.169  10.371  1.6810  0.2899  0.2013
 9806TIP3   OH250908   2.664   3.723  10.984 -0.5473 -0.2699 -0.2212
 9806TIP3    H150909   2.614   3.641  10.985  0.8231 -1.1366  0.6534
 9806TIP3    H250910   2.647   3.760  10.898 -0.3151 -2.0703 -1.0980
 9807TIP3   OH250911   3.222   2.444   9.757  0.3722 -0.0328  0.2845
 9807TIP3    H150912   3.227   2.349   9.767  1.8209  0.0178  0.3089
 9807TIP3    H250913   3.312   2.470   9.738 -0.0136  1.3356  0.2604
 9808TIP3   OH250914   0.264   0.700  15.124  0.4655 -0.1487 -0.0290
 9808TIP3    H150915   0.239   0.735  15.039  2.5951 -1.3728 -1.2597
 9808TIP3    H250916   0.343   0.749  15.148  0.1007 -0.0735  1.1060
 9809TIP3   OH250917   4.310   4.479  10.621 -0.3160 -0.3121  0.1292
 9809TIP3    H150918   4.250   4.451  10.690  1.1939  0.2176  1.7518
 9809TIP3    H250919   4.285   4.569  10.601  0.7842  0.4584  1.9053
 9810TIP3   OH250920   6.319   4.780   4.523  0.4188 -0.4867 -0.5491
 9810TIP3    H150921   6.301   4.732   4.442  1.1650  0.9206 -1.5878
 9810TIP3    H250922   6.234   4.812   4.553  0.1405 -1.0277 -0.7465
 9811TIP3   OH250923   0.382   2.380   0.561  0.2975 -0.2592  0.0857
 9811TIP3    H150924   0.295   2.346   0.580  0.3923 -0.6569 -0.1709
 9811TIP3    H250925   0.368   2.449   0.496  0.1487 -0.1347  0.2499
 9812TIP3   OH250926   4.822   7.093   2.582 -0.3134  0.2753 -0.6195
 9812TIP3    H150927   4.781   7.065   2.663 -0.4242  3.0352  0.4003
 9812TIP3    H250928   4.905   7.046   2.579  0.2398  0.9679  1.7476
 9813TIP3   OH250929   6.365   1.412   3.530  0.1052  0.2461  0.0568
 9813TIP3    H150930   6.274   1.391   3.552  0.1177  0.1865  0.0533
 9813TIP3    H250931   6.401   1.329   3.498  0.4398  0.0119  0.9926
 9814TIP3   OH250932   2.954   1.994   1.542  0.1603  0.2466 -0.1988
 9814TIP3    H150933   3.045   2.021   1.541  0.1267  0.4938 -2.6246
 9814TIP3    H250934   2.905   2.074   1.524 -0.3894 -0.2438 -0.9413
 9815TIP3   OH250935   5.352   1.622   9.898  0.0639  0.2849  0.2313
 9815TIP3    H150936   5.261   1.637   9.923  0.1307 -1.1956  1.4838
 9815TIP3    H250937   5.403   1.664   9.967  0.4341  2.4623 -1.2455
 9816TIP3   OH250938   4.603   1.257   3.341  0.3026 -0.3185 -0.6793
 9816TIP3    H150939   4.580   1.166   3.329 -1.1958  0.0670 -0.8734
 9816TIP3    H250940   4.699   1.258   3.337  0.3068 -1.4472 -3.9278
 9817TIP3   OH250941   3.086   4.475   3.778  0.7617 -0.0704 -0.1332
 9817TIP3    H150942   3.041   4.535   3.719 -0.0965 -1.6737 -1.1711
 9817TIP3    H250943   3.099   4.525   3.859 -2.8618  0.5114  0.2318
 9818TIP3   OH250944   0.744   3.062   3.424 -0.1946 -0.2547  0.0915
 9818TIP3    H150945   0.705   3.057   3.337  0.9541 -0.9772 -0.4024
 9818TIP3    H250946   0.734   3.154   3.449 -0.3616  0.0062 -0.8861
 9819TIP3   OH250947   7.122   5.510  14.718 -0.1650  0.0340 -0.8886
 9819TIP3    H150948   7.110   5.415  14.714 -0.8451  0.1398 -2.3134
 9819TIP3    H250949   7.072   5.538  14.794  0.8260 -0.8395  0.1084
 9820TIP3   OH250950   2.048   3.996   4.127 -0.2187 -0.0407  0.1047
 9820TIP3    H150951   2.076   3.905   4.138 -0.7527 -0.0843  1.2857
 9820TIP3    H250952   2.025   4.003   4.035  0.9923 -0.7586 -0.2844
 9821TIP3   OH250953   3.736   0.139  14.184 -0.0181  0.6104  0.2184
 9821TIP3    H150954   3.685   0.188  14.249 -0.7845  0.7272 -0.4482
 9821TIP3    H250955   3.811   0.195  14.165  0.4593  0.3636  1.3364
 9822TIP3   OH250956   1.856   0.368  14.998  0.6614 -0.7896  0.2014
 9822TIP3    H150957   1.766   0.395  15.018  0.3755 -2.1980  1.0068
 9822TIP3    H250958   1.902   0.377  15.082  0.5225 -2.7853  0.5359
 9823TIP3   OH250959   5.278   4.688   2.758  0.6132  0.2345  0.4880
 9823TIP3    H150960   5.235   4.768   2.788 -1.5302 -0.5311 -0.3604
 9823TIP3    H250961   5.210   4.621   2.762  1.8397 -1.1466 -0.6097
 9824TIP3   OH250962   3.476   6.503   1.464 -0.0219  0.5055  0.1193
 9824TIP3    H150963   3.384   6.483   1.443 -0.2154  0.2217  1.1743
 9824TIP3    H250964   3.508   6.424   1.508  0.8199  0.5001 -0.4865
 9825TIP3   OH250965   5.693   6.217   3.929 -0.1919  0.0412  0.3031
 9825TIP3    H150966   5.609   6.173   3.914  0.8938 -1.8990 -0.3705
 9825TIP3    H250967   5.671   6.290   3.987 -2.0028 -1.8190  2.1432
 9826TIP3   OH250968   4.079   6.958  12.517  0.4820  0.4240 -0.4060
 9826TIP3    H150969   4.117   7.032  12.470  0.1488 -0.3884 -2.0614
 9826TIP3    H250970   4.099   6.883  12.461 -1.7031 -0.3155 -0.2597
 9827TIP3   OH250971   2.700   6.980   3.256  0.0992 -0.0565 -0.3556
 9827TIP3    H150972   2.627   6.988   3.194  0.2913  0.1354 -0.5575
 9827TIP3    H250973   2.749   7.061   3.245  1.4121 -0.9711 -1.5761
 9828TIP3   OH250974   0.529   1.207   5.346  0.5318  0.0537 -0.5992
 9828TIP3    H150975   0.618   1.173   5.361  0.1375 -0.0051  2.0386
 9828TIP3    H250976   0.502   1.243   5.430 -3.2650 -3.0833 -0.1881
 9829TIP3   OH250977   2.791   1.863   4.625  0.1124  0.1551  0.0155
 9829TIP3    H150978   2.721   1.842   4.563 -0.2758 -0.5428  0.6666
 9829TIP3    H250979   2.751   1.851   4.711  1.2444 -0.9803  0.4057
 9830TIP3   OH250980   5.946   4.313  15.063 -0.3993  0.5733  0.2030
 9830TIP3    H150981   5.979   4.257  15.132 -2.0776  0.7717  1.2246
 9830TIP3    H250982   5.864   4.349  15.098 -0.0896  2.5613 -0.9565
 9831TIP3   OH250983   6.505   0.020  12.176  0.3209 -0.2120 -0.0887
 9831TIP3    H150984   6.447   0.095  12.166  1.7587  1.1484  1.1924
 9831TIP3    H250985   6.474  -0.044  12.112 -1.3000  1.2445 -0.8174
 9832TIP3   OH250986   0.200   1.809  10.929  0.0746  0.4623  0.0698
 9832TIP3    H150987   0.155   1.768  10.855 -0.2963 -0.1472  0.6216
 9832TIP3    H250988   0.220   1.898  10.899  3.5807 -0.9071 -2.3456
 9833TIP3   OH250989   6.037   4.128  11.112  0.2071 -0.0273  0.3332
 9833TIP3    H150990   5.980   4.177  11.054 -1.7523 -1.2434  1.1098
 9833TIP3    H250991   6.074   4.059  11.057 -1.3455 -0.9460  0.3477
 9834TIP3   OH250992   2.705   2.144  13.065  0.1373  0.1417 -0.0751
 9834TIP3    H150993   2.747   2.141  12.979  2.5857 -0.9427  1.0836
 9834TIP3    H250994   2.772   2.176  13.125 -1.1404 -0.2020  1.6332
 9835TIP3   OH250995   2.468   2.151   1.705 -0.3082  0.0662  0.2668
 9835TIP3    H150996   2.479   2.196   1.622  0.1325 -0.6249 -0.0568
 9835TIP3    H250997   2.479   2.219   1.771  2.0671  0.1690 -0.1552
 9836TIP3   OH250998   2.797   6.638  11.070 -0.4623  0.0371  0.4095
 9836TIP3    H150999   2.813   6.578  10.997 -2.9456 -0.5920  0.2632
 9836TIP3    H251000   2.835   6.594  11.146  1.4451  0.3197 -0.3404
 9837TIP3   OH251001   6.516   3.797   0.395  0.3427 -0.4653  0.6431
 9837TIP3    H151002   6.502   3.777   0.487  0.0624 -1.4077  0.4066
 9837TIP3    H251003   6.468   3.729   0.347  2.0904 -1.1821 -0.1926
 9838TIP3   OH251004   4.442   6.989   2.866  0.0065  0.1014 -0.3434
 9838TIP3    H151005   4.475   6.937   2.939 -0.6017  1.9031  1.3017
 9838TIP3    H251006   4.511   7.053   2.849  0.1957 -0.3839 -1.4468
 9839TIP3   OH251007   2.137   6.127  13.626  0.0349 -0.1368 -0.5154
 9839TIP3    H151008   2.047   6.155  13.644 -0.2775 -1.1211 -0.4999
 9839TIP3    H251009   2.161   6.174  13.546 -1.0676 -1.0891 -1.4286
 9840TIP3   OH251010   3.475   4.745  10.427 -0.1905 -0.4592 -0.0859
 9840TIP3    H151011   3.507   4.701  10.348  1.0561  0.9877 -0.4418
 9840TIP3    H251012   3.408   4.687  10.461 -0.2292 -1.4953 -1.7918
 9841TIP3   OH251013   4.521   7.054  12.298  0.1058  0.4749 -0.5478
 9841TIP3    H151014   4.514   7.137  12.345 -0.6816 -0.4833  1.1258
 9841TIP3    H251015   4.613   7.050  12.269  0.8034  0.8238  1.4983
 9842TIP3   OH251016   1.784   0.758   0.538 -0.5554 -0.3224 -0.6210
 9842TIP3    H151017   1.838   0.814   0.483  1.7351 -0.1264  1.6344
 9842TIP3    H251018   1.760   0.814   0.612 -1.0754 -1.3710  0.0240
 9843TIP3   OH251019   0.423   1.961   1.906  0.2141  0.6463 -1.1769
 9843TIP3    H151020   0.332   1.956   1.934  0.1958 -1.6735 -1.4604
 9843TIP3    H251021   0.457   1.873   1.920  2.3265  1.3630 -1.4381
 9844TIP3   OH251022   6.195   5.848  12.879 -0.5521 -0.2390 -0.4040
 9844TIP3    H151023   6.224   5.759  12.855 -1.0163 -1.0946  1.9389
 9844TIP3    H251024   6.276   5.898  12.886 -0.1220 -0.9491 -0.0856
 9845TIP3   OH251025   4.900   4.082  11.727 -0.6715  0.1846 -0.1664
 9845TIP3    H151026   4.817   4.086  11.774  0.0634  1.1219  1.1129
 9845TIP3    H251027   4.907   4.168  11.684  0.7306  1.1233  1.7659
 9846TIP3   OH251028   5.633   3.505   2.406 -0.0134  0.0621 -0.0387
 9846TIP3    H151029   5.680   3.534   2.484 -1.6032  0.2938  0.8947
 9846TIP3    H251030   5.698   3.503   2.337  1.4867 -0.2712  1.3284
 9847TIP3   OH251031   6.291   4.136   4.437  0.0801 -0.2574 -1.0318
 9847TIP3    H151032   6.242   4.218   4.436  0.0840 -0.2291 -0.0369
 9847TIP3    H251033   6.382   4.163   4.442  0.0086 -0.2439  2.4811
 9848TIP3   OH251034   4.084   5.420   0.760 -0.2380 -0.1582  0.2128
 9848TIP3    H151035   4.144   5.354   0.727 -1.0411 -0.6046 -0.4098
 9848TIP3    H251036   4.128   5.504   0.745 -0.0447 -0.4410 -0.8198
 9849TIP3   OH251037   1.561   0.461  10.012  0.2213  0.2795  0.0268
 9849TIP3    H151038   1.468   0.482  10.003  0.9948  3.6645 -2.0334
 9849TIP3    H251039   1.599   0.538  10.054  2.1609 -0.9576  0.6895
 9850TIP3   OH251040   6.981   6.508  13.738  0.8423 -0.3481 -0.5790
 9850TIP3    H151041   6.983   6.486  13.831 -0.0918  0.8825 -0.2318
 9850TIP3    H251042   7.015   6.430  13.694 -0.4699 -1.6915  0.6689
 9851TIP3   OH251043   2.191   0.295  14.867  0.6563  0.5537  0.3443
 9851TIP3    H151044   2.159   0.259  14.949 -0.0369  0.7475  0.1629
 9851TIP3    H251045   2.196   0.219  14.808 -3.1215  0.9958 -0.7890
 9852TIP3   OH251046   1.715   3.163   0.517  0.5783  0.2380 -0.0181
 9852TIP3    H151047   1.671   3.153   0.433 -3.1279 -0.5216  1.8178
 9852TIP3    H251048   1.765   3.244   0.509 -0.2222  0.5489 -2.6868
 9853TIP3   OH251049   5.034   3.756   5.288  0.4117  0.3284  0.2720
 9853TIP3    H151050   5.092   3.699   5.338  0.5565  0.4110  0.2003
 9853TIP3    H251051   4.980   3.697   5.235  1.5998  0.2976 -0.9548
 9854TIP3   OH251052   1.276   0.897   1.688 -0.0253 -0.3328 -0.1994
 9854TIP3    H151053   1.277   0.977   1.740  0.0152  0.3421 -1.2189
 9854TIP3    H251054   1.356   0.850   1.715 -0.0126  0.0025  0.3492
 9855TIP3   OH251055   0.066   0.106   0.833  0.4065 -0.3515  0.3528
 9855TIP3    H151056   0.050   0.123   0.740  2.2141  1.4447  0.3097
 9855TIP3    H251057   0.161   0.110   0.842  0.2052  1.8888  2.6678
 9856TIP3   OH251058   7.195   4.853  14.895 -0.3385 -0.0320  0.5478
 9856TIP3    H151059   7.127   4.843  14.962 -0.3877 -2.3894  0.2345
 9856TIP3    H251060   7.269   4.802  14.928  0.3355  0.3600 -0.3303
 9857TIP3   OH251061   3.711   7.083  10.260  0.4438  0.0873  0.0806
 9857TIP3    H151062   3.789   7.028  10.271 -0.1265 -1.3176 -2.2537
 9857TIP3    H251063   3.709   7.104  10.167 -1.8054  0.3558  0.1265
 9858TIP3   OH251064   6.904   4.959   4.421  0.9134  0.3686  0.1712
 9858TIP3    H151065   6.863   4.897   4.482  1.9836 -0.4621  0.0757
 9858TIP3    H251066   6.965   5.009   4.476  2.4976 -0.9406 -0.2955
 9859TIP3   OH251067   2.846   2.641   3.268 -0.1312  0.2547 -0.3541
 9859TIP3    H151068   2.814   2.550   3.262 -0.8213  0.4580  0.0747
 9859TIP3    H251069   2.813   2.683   3.189  0.1967  0.1321 -0.5578
 9860TIP3   OH251070   1.015   7.044  13.319  0.5572 -1.1167 -0.3888
 9860TIP3    H151071   0.936   7.005  13.282 -0.0182 -0.6744  0.3335
 9860TIP3    H251072   1.050   6.977  13.378  0.3754 -1.0840 -0.2442
 9861TIP3   OH251073   6.384   1.311  14.271  0.7310 -0.4266 -0.1885
 9861TIP3    H151074   6.419   1.302  14.182  2.6484 -0.4583  0.5046
 9861TIP3    H251075   6.355   1.401  14.277 -1.4807 -0.9882 -1.4968
 9862TIP3   OH251076   3.833   6.336   5.027  0.4156 -0.0443 -0.0299
 9862TIP3    H151077   3.799   6.425   5.033  0.6409  0.1702 -1.5536
 9862TIP3    H251078   3.885   6.325   5.106 -0.1552  0.9329  0.5048
 9863TIP3   OH251079   6.053   6.381  14.784  0.1211  0.3332 -0.0344
 9863TIP3    H151080   6.090   6.469  14.786 -1.4286  1.0102  1.4009
 9863TIP3    H251081   5.975   6.389  14.729  1.5177 -0.9071 -2.4074
 9864TIP3   OH251082   0.121   4.615   5.183  0.6476  0.3975  0.3279
 9864TIP3    H151083   0.082   4.552   5.243  0.0632 -1.1873 -1.5868
 9864TIP3    H251084   0.059   4.687   5.180 -1.0604 -1.0416 -0.8949
 9865TIP3   OH251085   1.319   3.120   9.597  0.2194 -0.5646  0.7629
 9865TIP3    H151086   1.340   3.091   9.509 -0.3792  1.4434 -0.1142
 9865TIP3    H251087   1.389   3.181   9.620 -0.0181 -0.5159  1.3866
 9866TIP3   OH251088   5.647   2.716   2.774 -0.3606  0.0010 -0.6561
 9866TIP3    H151089   5.656   2.658   2.698  1.1735 -0.0069 -0.4994
 9866TIP3    H251090   5.735   2.720   2.811 -0.9714  0.4839  0.7831
 9867TIP3   OH251091   2.225   1.668  12.238  0.4013 -0.2798  0.0281
 9867TIP3    H151092   2.232   1.578  12.205  1.4550  0.3681 -1.6508
 9867TIP3    H251093   2.234   1.659  12.333  2.3759 -1.7943 -0.2306
 9868TIP3   OH251094   2.674   0.663   2.632  0.6900 -0.2443 -0.3493
 9868TIP3    H151095   2.687   0.733   2.697  0.8452 -0.7517  0.1711
 9868TIP3    H251096   2.728   0.591   2.663 -0.6590 -1.1645 -0.0272
 9869TIP3   OH251097   6.921   0.834   4.481 -0.3655 -0.3360  0.1123
 9869TIP3    H151098   6.921   0.919   4.438 -0.1048 -0.2136  0.3585
 9869TIP3    H251099   6.860   0.781   4.429  0.1060 -0.2544 -0.5386
 9870TIP3   OH251100   0.557   5.103  12.201 -0.2684 -0.4456  0.1672
 9870TIP3    H151101   0.621   5.066  12.261  1.0858 -0.6992 -1.3598
 9870TIP3    H251102   0.546   5.193  12.229  2.1598  0.1467 -0.5698
 9871TIP3   OH251103   4.271   0.189   0.793  0.3015  0.2975 -0.1851
 9871TIP3    H151104   4.185   0.145   0.794 -0.4148  1.6502 -0.3514
 9871TIP3    H251105   4.331   0.123   0.827 -0.7750 -0.7419 -0.2135
 9872TIP3   OH251106   7.074   5.812   2.910 -0.1502 -0.0137  0.1642
 9872TIP3    H151107   6.998   5.759   2.887 -1.3176  1.8090 -0.4488
 9872TIP3    H251108   7.046   5.902   2.891  2.7348  0.6171 -1.7515
 9873TIP3   OH251109   4.822   1.680   0.344 -0.3454 -0.3028  0.3140
 9873TIP3    H151110   4.831   1.722   0.430  1.2268 -0.5945  0.3324
 9873TIP3    H251111   4.776   1.598   0.363 -1.4608  0.3753  0.6144
 9874TIP3   OH251112   6.694   2.650  12.623 -0.5163 -0.4774  0.0809
 9874TIP3    H151113   6.643   2.569  12.621 -1.5101  0.1175  0.6163
 9874TIP3    H251114   6.634   2.717  12.592  0.3058  0.0729 -0.3767
 9875TIP3   OH251115   6.674   4.915  14.912  0.4747 -0.0078  0.4711
 9875TIP3    H151116   6.628   4.973  14.852 -0.6300 -1.0766  0.2389
 9875TIP3    H251117   6.694   4.837  14.860  0.0302 -0.7036  1.3098
 9876TIP3   OH251118   1.521   6.978  10.453  0.5367  0.1687  0.2179
 9876TIP3    H151119   1.528   6.983  10.358 -1.3695  0.6998  0.0721
 9876TIP3    H251120   1.568   7.054  10.485  0.3414  0.5436 -0.3655
 9877TIP3   OH251121   6.095   4.337   9.602  0.5851  0.8044 -0.2673
 9877TIP3    H151122   6.055   4.399   9.663 -0.0806 -0.3528  0.5002
 9877TIP3    H251123   6.033   4.264   9.597  0.9654  0.5604 -1.7994
 9878TIP3   OH251124   5.213   1.209   0.216 -0.0122  0.5354  0.0982
 9878TIP3    H151125   5.153   1.140   0.245  1.6536 -0.3286  1.6747
 9878TIP3    H251126   5.163   1.290   0.226 -1.7865 -0.3365 -1.1805
 9879TIP3   OH251127   6.908   3.239   0.271 -0.6915  0.0315 -0.4646
 9879TIP3    H151128   6.904   3.144   0.281 -1.4391  0.0131 -0.8652
 9879TIP3    H251129   6.816   3.268   0.273 -0.4425  0.8217  0.3681
 9880TIP3   OH251130   7.087   6.473   9.367 -0.2631  0.0161 -0.7197
 9880TIP3    H151131   6.995   6.489   9.346 -0.5129 -0.8549 -0.3442
 9880TIP3    H251132   7.098   6.509   9.455 -0.2867 -0.0158 -0.7036
 9881TIP3   OH251133   0.236   7.208  12.192 -0.2247 -0.2215 -0.4349
 9881TIP3    H151134   0.170   7.263  12.235  0.7342  0.9788 -0.4326
 9881TIP3    H251135   0.257   7.141  12.257 -1.0096 -0.2688 -0.2192
 9882TIP3   OH251136   3.710   1.834   9.818  0.1699 -0.0734 -0.5222
 9882TIP3    H151137   3.732   1.782   9.895 -1.1870 -0.9601 -0.6924
 9882TIP3    H251138   3.620   1.809   9.797  0.6434 -0.2237 -2.6833
 9883TIP3   OH251139   1.824   1.582   0.337 -0.2442 -0.5794  0.6654
 9883TIP3    H151140   1.763   1.653   0.317  2.2122  0.9110 -2.2988
 9883TIP3    H251141   1.844   1.594   0.430 -0.3431  2.3624  0.4198
 9884TIP3   OH251142   3.329   2.789   4.618  0.4930  0.0182 -0.0491
 9884TIP3    H151143   3.264   2.853   4.589 -1.2442 -1.7848 -0.2869
 9884TIP3    H251144   3.379   2.768   4.539 -0.2588 -0.4050 -0.4180
 9885TIP3   OH251145   6.201   6.832  12.954 -0.9475 -0.4289 -0.6596
 9885TIP3    H151146   6.241   6.816  12.869  0.0792 -1.5060  0.0065
 9885TIP3    H251147   6.218   6.752  13.005 -0.6713  0.5706  0.8863
 9886TIP3   OH251148   6.312   7.154  14.826 -0.2310 -0.1976  0.3915
 9886TIP3    H151149   6.288   7.246  14.842 -0.7675 -0.4309  0.9482
 9886TIP3    H251150   6.234   7.116  14.787  0.5755  0.0028 -1.5179
 9887TIP3   OH251151   6.948   7.080  11.480 -0.1096 -0.1331  0.9203
 9887TIP3    H151152   7.004   7.058  11.554 -1.6353  0.0477  2.1907
 9887TIP3    H251153   6.898   7.156  11.510  1.4259  1.9626 -1.4771
 9888TIP3   OH251154   4.012   3.519  15.223 -0.0518  0.4124  0.0906
 9888TIP3    H151155   4.053   3.530  15.309  1.8199 -1.1728 -0.5110
 9888TIP3    H251156   3.939   3.458  15.238  0.8462 -0.6088  0.4506
 9889TIP3   OH251157   1.502   3.189  13.474  0.1852 -0.2158  0.3236
 9889TIP3    H151158   1.498   3.158  13.564 -1.2198 -0.9024  0.0426
 9889TIP3    H251159   1.433   3.255  13.468  0.5789  0.1692 -0.1473
 9890TIP3   OH251160   4.781   3.686  13.139  0.0172  0.4590  0.0916
 9890TIP3    H151161   4.717   3.733  13.193 -0.3833  1.7927 -1.4501
 9890TIP3    H251162   4.832   3.755  13.096  0.5809 -0.5412 -0.9138
 9891TIP3   OH251163   6.159   3.894  11.378  0.1508 -0.2103  0.6213
 9891TIP3    H151164   6.185   3.804  11.355  0.6855  0.5183 -1.9562
 9891TIP3    H251165   6.065   3.897  11.362 -0.2345 -0.7637  2.5330
 9892TIP3   OH251166   7.010   6.695  12.501 -0.3382 -0.2417 -0.5462
 9892TIP3    H151167   7.030   6.649  12.582  1.6343  1.9340  0.3162
 9892TIP3    H251168   7.096   6.716  12.464 -1.0424  3.1143 -0.5951
 9893TIP3   OH251169   3.952   1.717   9.691 -0.4099 -0.1270 -0.3811
 9893TIP3    H151170   3.903   1.779   9.744 -0.7222  0.0658 -0.8945
 9893TIP3    H251171   3.890   1.686   9.625 -0.1350 -0.6553 -0.4027
 9894TIP3   OH251172   7.243   1.613  11.364  0.6932  0.4416 -0.3925
 9894TIP3    H151173   7.314   1.632  11.303 -0.5251  1.8539 -1.4446
 9894TIP3    H251174   7.288   1.590  11.446  2.3714  1.6405 -0.9161
 9895TIP3   OH251175   0.499   2.335   1.200 -0.6159  0.1846  0.2215
 9895TIP3    H151176   0.416   2.368   1.165  0.1724  1.7449 -0.2833
 9895TIP3    H251177   0.479   2.246   1.229 -2.4753  0.5425  0.1833
 9896TIP3   OH251178   6.740   0.104   1.206  0.2500  0.1778 -0.4161
 9896TIP3    H151179   6.753   0.030   1.266 -0.2334 -0.0871 -0.6363
 9896TIP3    H251180   6.786   0.078   1.126 -2.1074 -1.0849 -1.4631
 9897TIP3   OH251181   5.549   5.797   0.507  0.1740 -0.9838 -0.5939
 9897TIP3    H151182   5.565   5.715   0.552  0.8681  0.7771  2.6493
 9897TIP3    H251183   5.635   5.839   0.503 -0.5711  0.7184  0.2844
 9898TIP3   OH251184   5.969   4.987  11.120  0.7554 -0.0002 -0.0196
 9898TIP3    H151185   6.039   5.021  11.175 -0.0503  1.6163  0.0821
 9898TIP3    H251186   5.889   5.022  11.160 -0.1271 -1.8431 -0.1019
 9899TIP3   OH251187   2.456   2.722   5.185  0.4020 -0.0855 -0.4918
 9899TIP3    H151188   2.397   2.716   5.260 -0.3448  0.8255 -0.9851
 9899TIP3    H251189   2.478   2.631   5.165 -1.4768 -0.5118 -0.7769
 9900TIP3   OH251190   5.009   3.731  12.509  0.3064  0.1824 -0.4456
 9900TIP3    H151191   5.020   3.695  12.421 -0.8772 -0.2198 -0.4483
 9900TIP3    H251192   5.065   3.677  12.564  0.3675 -0.1473 -0.8238
 9901TIP3   OH251193   2.502   2.509   4.495  0.4449 -0.4232 -0.4475
 9901TIP3    H151194   2.576   2.553   4.452  0.5722  0.8979  1.0186
 9901TIP3    H251195   2.425   2.539   4.446  0.4283  2.3176  1.0627
 9902TIP3   OH251196   5.218   4.853   1.189  0.3882 -0.1256 -0.1828
 9902TIP3    H151197   5.160   4.891   1.255 -0.1063 -1.2103  0.0288
 9902TIP3    H251198   5.299   4.904   1.196  0.0951  0.2333  0.7622
 9903TIP3   OH251199   0.098   6.220  12.787 -0.6656  0.5105  0.1053
 9903TIP3    H151200   0.098   6.188  12.878 -1.1569 -0.5716 -0.2653
 9903TIP3    H251201   0.171   6.174  12.746 -0.3862  1.0682 -0.0359
 9904TIP3   OH251202   2.279   1.496   3.524 -0.0616  0.4151 -0.7015
 9904TIP3    H151203   2.232   1.546   3.458  1.7429  1.2431 -1.4199
 9904TIP3    H251204   2.228   1.416   3.535  0.4186 -0.5653 -4.3439
 9905TIP3   OH251205   4.784   2.889   4.132 -0.0751 -0.2623 -0.8314
 9905TIP3    H151206   4.741   2.956   4.185  0.5580  0.6293 -1.4248
 9905TIP3    H251207   4.863   2.866   4.181 -1.2074 -1.9783  0.3117
 9906TIP3   OH251208   6.770   1.379  12.520  0.4168  0.5031  0.3686
 9906TIP3    H151209   6.769   1.434  12.598  0.2680  0.9940  0.0321
 9906TIP3    H251210   6.789   1.440  12.448 -2.4656  0.6609 -0.3879
 9907TIP3   OH251211   6.683   3.183  15.084 -0.0702 -0.2675  0.0066
 9907TIP3    H151212   6.647   3.111  15.135 -0.7324  0.6402  0.8557
 9907TIP3    H251213   6.635   3.179  15.001 -0.3964 -0.5554  0.2034
 9908TIP3   OH251214   7.031   5.578   3.719 -0.9861 -0.1273 -0.2977
 9908TIP3    H151215   7.099   5.529   3.674  0.4702  1.3227  0.2490
 9908TIP3    H251216   7.008   5.523   3.794 -0.7954 -0.8584 -0.7640
 9909TIP3   OH251217   4.371   1.282  11.900  0.4722 -0.3423  0.7166
 9909TIP3    H151218   4.392   1.204  11.850 -3.2056  1.1885 -3.8350
 9909TIP3    H251219   4.278   1.274  11.921  0.1524  2.4097  0.7703
 9910TIP3   OH251220   4.771   1.791  10.114 -0.5933  0.1788  0.2727
 9910TIP3    H151221   4.721   1.860  10.071  0.0350 -0.1617 -1.0470
 9910TIP3    H251222   4.859   1.827  10.123 -0.3591 -0.2933 -0.0708
 9911TIP3   OH251223   5.441   3.037  15.199  0.4519  0.5015  0.6693
 9911TIP3    H151224   5.365   2.997  15.242  1.3680 -1.0157  0.9596
 9911TIP3    H251225   5.441   3.128  15.229 -0.5351  0.1970  1.6522
 9912TIP3   OH251226   6.918   1.600   4.172  0.2748 -0.1380 -0.0641
 9912TIP3    H151227   6.929   1.505   4.175  0.8752 -0.0703  0.0111
 9912TIP3    H251228   6.978   1.633   4.239  1.6463  0.4019 -1.4748
 9913TIP3   OH251229   6.560   4.104   2.920  0.9611 -0.4638 -0.5676
 9913TIP3    H151230   6.573   4.117   2.826  0.4895 -0.3699 -0.6183
 9913TIP3    H251231   6.498   4.031   2.926 -0.1440  0.4692 -0.3602
 9914TIP3   OH251232   3.259   1.601   3.185  0.5151  0.2450  0.3481
 9914TIP3    H151233   3.203   1.529   3.214 -0.8073 -0.0604 -2.5976
 9914TIP3    H251234   3.347   1.577   3.215 -0.2415 -1.5286  1.2548
 9915TIP3   OH251235   3.595   5.505   4.564 -0.3676  0.3780 -0.6297
 9915TIP3    H151236   3.630   5.463   4.643  0.7297 -0.2661 -1.4342
 9915TIP3    H251237   3.505   5.473   4.557 -0.7263  1.0150  0.7475
 9916TIP3   OH251238   5.753   4.395   2.032  0.4954 -0.5962 -0.3629
 9916TIP3    H151239   5.760   4.466   2.097 -0.3827 -0.6230 -0.2317
 9916TIP3    H251240   5.752   4.439   1.948 -3.1570 -0.1474 -0.2173
 9917TIP3   OH251241   1.300   1.063   3.390  0.0748 -0.0412 -0.1226
 9917TIP3    H151242   1.257   0.989   3.346 -1.8695  0.3149  1.0601
 9917TIP3    H251243   1.297   1.041   3.483  2.6615 -0.0341  0.0519
 9918TIP3   OH251244   1.620   2.889  12.236  0.4707 -0.2980  0.1864
 9918TIP3    H151245   1.570   2.924  12.163 -1.1644 -1.5741  0.6418
 9918TIP3    H251246   1.694   2.949  12.246  0.7073 -0.0655 -2.4513
 9919TIP3   OH251247   2.086   6.902  13.133 -0.6815 -0.1801  0.5396
 9919TIP3    H151248   2.026   6.969  13.165  0.4970  0.0338  2.4676
 9919TIP3    H251249   2.037   6.857  13.064 -1.3528  2.9295 -1.2008
 9920TIP3   OH251250   5.274   3.711   4.741  0.6365  0.4923 -0.0010
 9920TIP3    H151251   5.227   3.629   4.754  0.9062  0.4661  0.8390
 9920TIP3    H251252   5.349   3.706   4.800  0.0086  1.8305  0.9646
 9921TIP3   OH251253   3.423   0.787  15.170  0.3184 -0.3820 -0.0769
 9921TIP3    H151254   3.352   0.850  15.157 -0.0034 -1.0040 -1.5437
 9921TIP3    H251255   3.490   0.813  15.107 -0.1416 -1.9073 -1.2689
 9922TIP3   OH251256   5.370   1.956   9.987 -0.2128  0.2833 -0.4290
 9922TIP3    H151257   5.390   1.869  10.020 -0.3259  0.1116 -0.8184
 9922TIP3    H251258   5.455   1.992   9.962 -0.2364  0.0377 -0.8760
 9923TIP3   OH251259   6.584   6.634   2.349  0.3597  0.0711 -0.3406
 9923TIP3    H151260   6.535   6.638   2.431  0.7774  0.0872 -0.0924
 9923TIP3    H251261   6.655   6.572   2.366  0.9887  0.7685 -0.4014
 9924TIP3   OH251262   3.026   1.060  13.194  0.2355  1.0136 -0.2190
 9924TIP3    H151263   2.997   1.101  13.276 -0.8793 -2.0516  1.0996
 9924TIP3    H251264   3.080   0.986  13.222 -0.4320 -0.3155 -2.1877
 9925TIP3   OH251265   6.038   6.473  10.191  0.6283 -0.1622  0.1596
 9925TIP3    H151266   6.021   6.438  10.279 -0.4832 -1.1711 -0.4350
 9925TIP3    H251267   6.090   6.404  10.148  0.6791  0.0752 -0.1597
 9926TIP3   OH251268   0.077   3.185  10.834  0.2573  0.2205  0.1767
 9926TIP3    H151269  -0.009   3.156  10.802  0.1740 -0.2592  0.8159
 9926TIP3    H251270   0.095   3.265  10.784 -0.7460  0.5600  0.3258
 9927TIP3   OH251271   0.123   1.743  12.556 -0.1948  0.2441  0.5177
 9927TIP3    H151272   0.113   1.711  12.466  1.1124  1.3459 -0.0471
 9927TIP3    H251273   0.208   1.709  12.584 -0.9495 -0.7679  1.6526
 9928TIP3   OH251274   5.492   1.163   9.919  0.1675 -0.1756  0.2558
 9928TIP3    H151275   5.536   1.122   9.994  1.4145 -0.4469 -0.5789
 9928TIP3    H251276   5.430   1.225   9.958  2.6103  1.6550  1.5719
 9929TIP3   OH251277   0.379   2.711   2.369  0.0989 -0.2689 -0.3815
 9929TIP3    H151278   0.356   2.673   2.454 -0.2625  0.1946 -0.2658
 9929TIP3    H251279   0.461   2.668   2.345  0.7147  0.2819  0.6492
 9930TIP3   OH251280   4.260   6.961  14.526  0.4438  0.2614 -0.4476
 9930TIP3    H151281   4.230   7.041  14.571 -0.5766  0.0247 -0.6916
 9930TIP3    H251282   4.211   6.960  14.444  1.6708  0.2322 -1.1964
 9931TIP3   OH251283   4.110   6.913  11.086  0.1850 -0.0782  0.1768
 9931TIP3    H151284   4.122   6.843  11.150  0.8129  0.1550  0.3193
 9931TIP3    H251285   4.067   6.984  11.134  0.4002 -0.0107  0.2704
 9932TIP3   OH251286   2.525   4.608  14.150  0.1709  0.3687 -0.1325
 9932TIP3    H151287   2.518   4.666  14.075  0.9527 -1.4093 -1.6545
 9932TIP3    H251288   2.442   4.560  14.152  0.8974 -1.0030 -1.1477
 9933TIP3   OH251289   7.042   1.080  10.110 -0.1476 -0.1480 -0.8401
 9933TIP3    H151290   7.031   1.141  10.037 -0.4086 -0.6654 -1.2422
 9933TIP3    H251291   7.124   1.034  10.090 -0.6710 -0.9159 -1.2842
 9934TIP3   OH251292   2.136   2.215   0.365  0.0808 -1.0282 -0.1085
 9934TIP3    H151293   2.113   2.182   0.452 -0.3180 -2.2818 -0.6513
 9934TIP3    H251294   2.163   2.137   0.317 -1.2194 -0.6364 -1.5784
 9935TIP3   OH251295   4.257   0.583  14.227  0.1040  0.2049  0.5179
 9935TIP3    H151296   4.227   0.504  14.272  0.8202  0.3946  1.3545
 9935TIP3    H251297   4.237   0.654  14.287  2.0156  0.3626  1.0597
 9936TIP3   OH251298   3.977   4.736   3.732  0.0883  0.2950  0.7724
 9936TIP3    H151299   3.980   4.734   3.828 -1.2548 -0.4302  0.8242
 9936TIP3    H251300   3.919   4.810   3.711  1.8004  1.6150  0.4312
 9937TIP3   OH251301   4.233   6.428  14.616 -0.0529  1.2100  0.4071
 9937TIP3    H151302   4.194   6.452  14.532 -1.2185  2.5129  1.2792
 9937TIP3    H251303   4.158   6.417  14.675  0.6390 -1.2141  0.9485
 9938TIP3   OH251304   6.749   3.346   9.752  0.2016 -0.4527  0.3218
 9938TIP3    H151305   6.807   3.421   9.742 -0.0823 -0.3568 -0.6805
 9938TIP3    H251306   6.765   3.315   9.841 -1.5068  2.3012  1.6854
 9939TIP3   OH251307   1.283   6.818   5.074 -0.1833  0.8099 -0.5762
 9939TIP3    H151308   1.269   6.909   5.099  0.0504  1.3272 -2.1942
 9939TIP3    H251309   1.202   6.792   5.031 -0.4284  0.0896  0.3022
 9940TIP3   OH251310   6.471   5.009   4.208 -0.0746 -0.1408  0.3688
 9940TIP3    H151311   6.453   5.073   4.276  1.9913  0.3068  0.5691
 9940TIP3    H251312   6.524   5.057   4.144  0.4732 -1.3166 -0.0866
 9941TIP3   OH251313   1.886   3.659  11.130  0.5507  0.5582 -0.1066
 9941TIP3    H151314   1.929   3.634  11.048  1.7695  0.0337  0.6778
 9941TIP3    H251315   1.945   3.629  11.199 -1.0542 -0.1526  1.0138
 9942TIP3   OH251316   2.177   3.669   1.066 -0.2884 -0.1358  0.0341
 9942TIP3    H151317   2.188   3.705   1.154  0.0702  1.6159 -0.6652
 9942TIP3    H251318   2.226   3.730   1.010 -0.7573 -1.0419 -1.4110
 9943TIP3   OH251319   5.093   2.332   4.981 -0.6546  0.2355 -0.2650
 9943TIP3    H151320   5.094   2.237   4.964 -0.9543  0.0928  0.4693
 9943TIP3    H251321   5.174   2.348   5.029  0.0618  0.5918 -1.5434
 9944TIP3   OH251322   3.731   4.808  10.552 -0.0586  0.0326  0.3146
 9944TIP3    H151323   3.724   4.719  10.587 -1.1092  0.0910  0.2912
 9944TIP3    H251324   3.640   4.837  10.543  0.2558  0.8361 -0.3774
 9945TIP3   OH251325   2.563   0.584  13.661  0.0672  1.0276  0.5936
 9945TIP3    H151326   2.469   0.597  13.672 -0.2369 -0.8696  0.5176
 9945TIP3    H251327   2.578   0.600  13.568 -0.2566  0.9342  0.5219
 9946TIP3   OH251328   6.130   0.912  12.591 -0.0760  0.3936 -0.0764
 9946TIP3    H151329   6.048   0.945  12.626 -0.5114 -0.4301 -0.3037
 9946TIP3    H251330   6.195   0.930  12.660 -0.3881  1.2708 -0.0015
 9947TIP3   OH251331   6.965   5.645   4.888  0.3823 -0.2858 -0.0996
 9947TIP3    H151332   7.004   5.728   4.914  0.4158  0.0740 -1.2316
 9947TIP3    H251333   6.923   5.664   4.804  0.8414 -1.5436 -0.6312
 9948TIP3   OH251334   2.031   4.200   5.564 -0.2480 -0.8497  0.2171
 9948TIP3    H151335   2.060   4.217   5.654  1.5122 -1.7517 -0.1409
 9948TIP3    H251336   2.031   4.287   5.523 -2.3142 -0.2231  1.3615
 9949TIP3   OH251337   3.980   2.734   2.053  0.4853 -0.2695  0.7419
 9949TIP3    H151338   4.047   2.780   2.003 -2.2589  0.4042 -2.7007
 9949TIP3    H251339   3.919   2.803   2.079 -1.2097 -1.3024 -0.3288
 9950TIP3   OH251340   4.851   4.898  12.809 -0.1355  0.1214  0.0008
 9950TIP3    H151341   4.770   4.880  12.857 -0.0171 -1.3869 -0.3037
 9950TIP3    H251342   4.836   4.982  12.767 -2.0351 -0.6773 -1.0369
 9951TIP3   OH251343   3.755   3.076  13.007  0.0362  0.4064 -0.3077
 9951TIP3    H151344   3.773   3.013  13.077  3.3152  1.3065 -0.1818
 9951TIP3    H251345   3.676   3.042  12.964 -0.0557 -2.0940  1.5940
 9952TIP3   OH251346   5.058   5.363  13.608  0.0745  0.2793 -0.4552
 9952TIP3    H151347   5.021   5.387  13.524 -0.1556  1.7529  0.0482
 9952TIP3    H251348   4.996   5.395  13.673  2.0222  2.6334  0.4007
 9953TIP3   OH251349   5.790   4.683   1.357 -0.7241  0.3628  0.5384
 9953TIP3    H151350   5.767   4.590   1.353  0.2128  0.1604 -0.8259
 9953TIP3    H251351   5.709   4.729   1.335 -1.8856  0.0209  3.6851
 9954TIP3   OH251352   5.240   5.906   1.393 -0.1886 -0.8207 -0.6851
 9954TIP3    H151353   5.194   5.880   1.313 -1.1085  0.2840 -0.5305
 9954TIP3    H251354   5.304   5.971   1.363 -0.8018 -0.1121 -0.4869
 9955TIP3   OH251355   4.342   2.701  12.653  0.1571 -0.5748 -0.4901
 9955TIP3    H151356   4.380   2.749  12.726  1.5167  2.0782 -2.7508
 9955TIP3    H251357   4.264   2.751  12.628  0.1449 -0.9756 -1.3143
 9956TIP3   OH251358   6.858   6.214  13.404 -0.2470  0.0923  0.1013
 9956TIP3    H151359   6.928   6.241  13.463 -0.5293 -0.5669  0.7482
 9956TIP3    H251360   6.890   6.134  13.363 -0.5041 -0.0550  0.1834
 9957TIP3   OH251361   2.106   0.844  13.985  0.1266  0.3037 -0.1405
 9957TIP3    H151362   2.093   0.903  13.911  0.2342  1.7872  0.9792
 9957TIP3    H251363   2.199   0.852  14.006 -0.0510  0.4932  0.6177
 9958TIP3   OH251364   6.311   4.535  13.817 -0.0460  0.1473  0.6685
 9958TIP3    H151365   6.282   4.450  13.850 -0.2994  0.5069  1.3897
 9958TIP3    H251366   6.246   4.597  13.850  0.2099  0.6364  0.2614
 9959TIP3   OH251367   1.300   0.129   4.379 -0.0101  0.3778  0.2832
 9959TIP3    H151368   1.284   0.182   4.456  0.9659  1.4729 -0.2388
 9959TIP3    H251369   1.234   0.158   4.316  0.2677  0.6910  0.1347
 9960TIP3   OH251370   2.514   0.921   5.297 -0.2365 -0.2960 -0.7870
 9960TIP3    H151371   2.593   0.914   5.351 -0.9917 -1.4808  0.2158
 9960TIP3    H251372   2.463   0.992   5.337 -0.5517 -0.8178 -0.2548
 9961TIP3   OH251373   1.285   5.050  14.353 -0.3584  0.1312 -0.1029
 9961TIP3    H151374   1.373   5.042  14.389 -0.5327  0.8153  0.5065
 9961TIP3    H251375   1.263   4.962  14.322  0.6830  0.0404 -0.6073
 9962TIP3   OH251376   0.052   7.219   5.031  0.5411  1.0020 -0.0740
 9962TIP3    H151377  -0.035   7.248   5.059  0.8457 -1.0959  3.7375
 9962TIP3    H251378   0.113   7.276   5.079  1.2054  0.3711 -0.1479
 9963TIP3   OH251379   5.081   3.478   5.216  0.3600 -0.4809  0.0512
 9963TIP3    H151380   5.130   3.430   5.149 -0.9533 -1.1519 -0.4674
 9963TIP3    H251381   5.146   3.500   5.282  1.4508 -0.8923 -0.8601
 9964TIP3   OH251382   1.076   2.492   1.208  0.0733  0.0242 -0.8339
 9964TIP3    H151383   0.992   2.516   1.168  0.7419  0.5313 -1.9739
 9964TIP3    H251384   1.072   2.530   1.296 -0.8580  0.0974 -0.8954
 9965TIP3   OH251385   1.486   5.968   4.482 -0.5385  0.6704  0.0640
 9965TIP3    H151386   1.499   6.061   4.462 -0.8473  0.5091 -0.9739
 9965TIP3    H251387   1.520   5.922   4.405  0.9621 -0.1657  1.1717
 9966TIP3   OH251388   0.762   1.402  11.017  0.8023  0.0247 -0.1322
 9966TIP3    H151389   0.825   1.339  10.983 -0.1184 -0.3589 -1.1753
 9966TIP3    H251390   0.727   1.445  10.939  0.8191  1.2515  0.5217
 9967TIP3   OH251391   4.016   1.853   2.916 -0.5316  0.1122 -0.0561
 9967TIP3    H151392   3.998   1.939   2.879 -1.7780 -0.2717 -0.3793
 9967TIP3    H251393   3.940   1.800   2.893  1.1056 -1.6932 -1.6853
 9968TIP3   OH251394   1.204   3.723   3.290  0.1833 -0.0165 -0.7553
 9968TIP3    H151395   1.186   3.676   3.372 -2.5947 -1.0220 -1.8252
 9968TIP3    H251396   1.228   3.654   3.228 -2.0945  0.0810 -1.8568
 9969TIP3   OH251397   0.963   6.930   4.054 -0.1194  0.2347  0.0111
 9969TIP3    H151398   1.001   6.926   4.142  0.2639  2.9130  0.0551
 9969TIP3    H251399   1.038   6.944   3.996 -0.4879 -0.3610 -0.6213
 9970TIP3   OH251400   3.880   5.042  13.521 -0.3104 -0.3495  0.8714
 9970TIP3    H151401   3.798   5.062  13.566 -0.2073  0.4996  0.6986
 9970TIP3    H251402   3.891   4.947  13.532 -2.1589 -0.8057 -0.5202
 9971TIP3   OH251403   6.159   1.877   0.099 -0.3752  0.2079 -0.1187
 9971TIP3    H151404   6.150   1.811   0.031 -1.0734  0.6575 -0.4757
 9971TIP3    H251405   6.075   1.923   0.099 -0.5309 -0.0503  1.3350
 9972TIP3   OH251406   5.708   4.126   2.401 -0.4465 -0.0297  0.0116
 9972TIP3    H151407   5.753   4.145   2.319 -0.3126 -0.8469 -0.1134
 9972TIP3    H251408   5.744   4.042   2.430 -1.0052 -0.0990  0.5414
 9973TIP3   OH251409   7.176   4.668   2.693  0.8412 -0.5222  0.1017
 9973TIP3    H151410   7.209   4.749   2.731  1.5841 -1.0541  0.6159
 9973TIP3    H251411   7.182   4.681   2.598  0.0735  0.3690  0.1572
 9974TIP3   OH251412   1.109   2.081   2.211 -0.5855  0.1703 -0.0855
 9974TIP3    H151413   1.198   2.112   2.228 -0.7026 -0.2205  1.3695
 9974TIP3    H251414   1.070   2.149   2.156  0.3252  0.7786 -0.0013
 9975TIP3   OH251415   4.272   4.002   4.828  0.4058  0.2047  0.1697
 9975TIP3    H151416   4.253   3.991   4.734 -2.9182  0.9771  0.6369
 9975TIP3    H251417   4.253   3.917   4.866 -0.4875  0.5085  0.4207
 9976TIP3   OH251418   2.625   6.777   0.443  0.3022  0.8291 -0.4214
 9976TIP3    H151419   2.701   6.834   0.431  1.1755 -0.0647  0.5368
 9976TIP3    H251420   2.601   6.750   0.355  1.2838  0.9123 -0.7351
 9977TIP3   OH251421   4.719   6.869   2.804 -0.0406 -0.0260 -0.5832
 9977TIP3    H151422   4.665   6.876   2.725 -1.6121 -0.7515  0.4051
 9977TIP3    H251423   4.773   6.791   2.789  2.0372  1.5858 -2.2751
 9978TIP3   OH251424   0.911   0.436   1.377  0.3457 -0.0976  0.6193
 9978TIP3    H151425   0.821   0.466   1.367 -0.1073 -0.7341  2.4317
 9978TIP3    H251426   0.912   0.349   1.338  0.2941  0.0776  0.2201
 9979TIP3   OH251427   1.271   3.117  11.633 -0.3158 -0.6219 -0.1694
 9979TIP3    H151428   1.276   3.210  11.657  0.5159 -0.5783 -0.4913
 9979TIP3    H251429   1.324   3.109  11.554  0.3129 -1.5262  0.3228
 9980TIP3   OH251430   6.617   6.859  10.792 -0.1129 -0.4989  0.8621
 9980TIP3    H151431   6.531   6.900  10.803 -0.5970 -1.2595  0.0669
 9980TIP3    H251432   6.673   6.929  10.760 -0.4705 -0.0333  1.2248
 9981TIP3   OH251433   3.463   4.802   2.721  0.2305  0.4854 -0.2285
 9981TIP3    H151434   3.433   4.752   2.797 -0.4905  0.5217 -0.4843
 9981TIP3    H251435   3.412   4.883   2.723  1.9935  1.6596  0.6848
 9982TIP3   OH251436   2.723   5.500  10.349 -0.8752 -0.4985 -0.8059
 9982TIP3    H151437   2.789   5.431  10.349 -2.3740 -2.0065 -2.2821
 9982TIP3    H251438   2.772   5.580  10.330  1.2706 -0.6324  3.0941
 9983TIP3   OH251439   5.378   1.184   3.581 -0.3923  0.2648 -0.2601
 9983TIP3    H151440   5.347   1.141   3.661 -0.9905  0.5986 -0.3103
 9983TIP3    H251441   5.299   1.211   3.535 -0.1283 -1.4326 -1.8203
 9984TIP3   OH251442   4.181   5.416   4.910 -0.1482  0.0454 -0.6079
 9984TIP3    H151443   4.188   5.352   4.980 -0.3599  0.2125 -0.4351
 9984TIP3    H251444   4.126   5.486   4.945  2.1691  1.5912  0.1724
 9985TIP3   OH251445   4.584   1.418   9.627 -0.7920  0.1449 -0.1370
 9985TIP3    H151446   4.668   1.375   9.615 -0.8132 -0.1194  0.6379
 9985TIP3    H251447   4.526   1.376   9.563 -0.6099 -0.4136  0.0639
 9986TIP3   OH251448   6.209   5.995   1.923 -0.6672 -0.2071 -0.0556
 9986TIP3    H151449   6.158   6.053   1.867  1.6547  3.1196  1.0188
 9986TIP3    H251450   6.165   5.999   2.008 -0.9568 -0.7192 -0.1752
 9987TIP3   OH251451   1.587   6.364  13.621 -0.0383  0.0166 -0.1811
 9987TIP3    H151452   1.643   6.300  13.665 -0.6614 -1.4336 -1.3915
 9987TIP3    H251453   1.505   6.316  13.604 -1.0982  1.6100  0.2103
 9988TIP3   OH251454   1.769   5.092  12.416 -0.0130  0.5094  0.3313
 9988TIP3    H151455   1.816   5.008  12.412 -2.0034 -0.7822  2.0713
 9988TIP3    H251456   1.698   5.082  12.353 -0.2544  0.8727  0.5434
 9989TIP3   OH251457   2.614   5.119  13.909  0.3120  0.1826 -0.4318
 9989TIP3    H151458   2.560   5.062  13.855 -2.2196  0.6661  1.3575
 9989TIP3    H251459   2.610   5.204  13.865  2.0559 -0.3901 -1.7971
 9990TIP3   OH251460   6.395   6.819   0.725  0.0472  0.1947  0.2192
 9990TIP3    H151461   6.390   6.748   0.789 -0.8752  0.2450  0.2243
 9990TIP3    H251462   6.315   6.870   0.739 -0.1896  0.1905 -0.9930
 9991TIP3   OH251463   4.456   3.898  11.220 -0.2134 -0.2058 -0.0233
 9991TIP3    H151464   4.515   3.963  11.258  3.1630 -2.4300 -1.0193
 9991TIP3    H251465   4.410   3.861  11.296 -2.3673  3.2126  0.5648
 9992TIP3   OH251466   0.048   3.104  13.612 -0.2434  0.0005  0.2077
 9992TIP3    H151467   0.090   3.128  13.695  1.6041  0.6270 -0.8378
 9992TIP3    H251468   0.085   3.165  13.549 -2.4565  0.2783 -0.9133
 9993TIP3   OH251469   4.126   3.585  10.777  0.5373 -0.3244 -0.2114
 9993TIP3    H151470   4.113   3.495  10.745  2.7468 -0.9024  0.3077
 9993TIP3    H251471   4.103   3.581  10.870  2.4479 -0.9300  0.3020
 9994TIP3   OH251472   2.281   2.172  15.177  0.2298 -0.1484 -0.0344
 9994TIP3    H151473   2.294   2.249  15.232 -0.0125  0.8012 -1.2344
 9994TIP3    H251474   2.234   2.206  15.100 -1.6238 -1.8399  0.2585
 9995TIP3   OH251475   5.924   3.727  13.948 -0.6235  0.2506 -0.2628
 9995TIP3    H151476   5.843   3.702  13.993 -0.5257 -0.4439 -0.4587
 9995TIP3    H251477   5.944   3.815  13.981 -0.0571 -0.5887  1.7651
 9996TIP3   OH251478   0.383   2.673  13.527 -0.2589 -1.1021  0.7500
 9996TIP3    H151479   0.297   2.678  13.568 -0.5505 -0.1433  0.0559
 9996TIP3    H251480   0.367   2.696  13.435  0.6962 -1.1469  0.5647
 9997TIP3   OH251481   5.892   5.800   0.124  0.0797  0.3754 -0.1890
 9997TIP3    H151482   5.797   5.810   0.131  0.1752  0.7290  0.6483
 9997TIP3    H251483   5.917   5.751   0.202  0.6985  1.0805  0.0705
 9998TIP3   OH251484   1.617   6.603   1.270  0.2597 -0.4639 -0.2992
 9998TIP3    H151485   1.527   6.633   1.287  0.2747 -0.2284 -0.6321
 9998TIP3    H251486   1.631   6.622   1.177 -0.3719 -3.1548 -1.0378
 9999TIP3   OH251487   6.010   6.745  14.186 -0.5451  0.0040  0.6645
 9999TIP3    H151488   6.045   6.705  14.105  0.5579 -0.9768  1.5843
 9999TIP3    H251489   5.988   6.834  14.161 -3.9728 -1.3074 -1.7470
10000TIP3   OH251490   1.839   3.919  11.160  0.1447 -0.3859  0.1753
10000TIP3    H151491   1.768   3.943  11.100 -0.2160  0.6214  0.9549
10000TIP3    H251492   1.883   3.846  11.118 -0.6622 -0.2988 -0.8694
10001TIP3   OH251493   1.454   0.186  10.910  0.2189  0.1797 -0.2417
10001TIP3    H151494   1.422   0.177  10.820  0.7291  2.8466 -0.7528
10001TIP3    H251495   1.530   0.127  10.913 -0.1003 -0.3284 -1.3757
10002TIP3   OH251496   2.148   1.975  13.651 -0.3132  0.0013  0.1075
10002TIP3    H151497   2.087   2.032  13.603 -0.6403 -0.8046 -0.4538
10002TIP3    H251498   2.092   1.912  13.696  0.0908 -0.5527 -0.1523
10003TIP3   OH251499   4.652   1.134  10.513  0.3198 -0.3082 -0.6163
10003TIP3    H151500   4.604   1.153  10.432  0.9462 -0.8086 -1.1231
10003TIP3    H251501   4.585   1.123  10.579 -0.2849 -1.1605 -1.3496
10004TIP3   OH251502   4.994   5.816   1.874 -0.2078 -0.8596 -0.2015
10004TIP3    H151503   4.922   5.785   1.928 -0.7738 -3.1102 -2.0604
10004TIP3    H251504   5.047   5.738   1.858  1.4728  0.3164 -0.6258
10005TIP3   OH251505   3.472   2.811   5.986 -0.9602 -0.4421 -0.0822
10005TIP3    H151506   3.465   2.742   5.919 -2.7067  0.8368 -1.3272
10005TIP3    H251507   3.422   2.884   5.950  3.0402  2.6278 -0.1367
10006TIP3   OH251508   0.198   1.717  14.786 -0.0718  0.6402 -0.4099
10006TIP3    H151509   0.179   1.688  14.697 -0.4857  0.7874 -0.3704
10006TIP3    H251510   0.244   1.643  14.826  1.3089  1.0602 -1.1560
10007TIP3   OH251511   3.849   1.916  10.792 -0.5753  0.1340 -0.1366
10007TIP3    H151512   3.816   1.995  10.749 -1.1311  0.7377  1.3334
10007TIP3    H251513   3.839   1.933  10.886  1.0289 -0.9389  0.2818
10008TIP3   OH251514   4.430   1.142  15.192  0.3464  0.0030 -0.3594
10008TIP3    H151515   4.468   1.214  15.141 -3.5904  1.5607 -1.4376
10008TIP3    H251516   4.458   1.159  15.282  2.7085  0.5356 -1.1310
10009TIP3   OH251517   0.210   4.146   4.741 -0.4441 -0.1694  0.2014
10009TIP3    H151518   0.234   4.053   4.740  0.7788  0.1288  0.2461
10009TIP3    H251519   0.116   4.146   4.760 -0.7052 -1.4358 -0.9348
10010TIP3   OH251520   2.296   0.198  13.116  0.2907  0.1530  0.0738
10010TIP3    H151521   2.299   0.120  13.171  0.8182 -0.3198 -0.6151
10010TIP3    H251522   2.220   0.246  13.148  0.2650 -0.3800  0.8536
10011TIP3   OH251523   1.033   1.855   9.707 -0.5037 -0.2782 -0.5281
10011TIP3    H151524   1.011   1.893   9.791  1.5851 -1.2209  0.5455
10011TIP3    H251525   1.000   1.917   9.642 -1.5262  0.8253  0.9850
10012TIP3   OH251526   6.772   4.609   1.075  0.0669  0.1127 -0.3244
10012TIP3    H151527   6.701   4.556   1.111 -2.1460  2.8244 -0.3396
10012TIP3    H251528   6.747   4.623   0.984  0.5380  1.2156 -0.2995
10013TIP3   OH251529   5.372   4.397   2.334 -0.4310  0.1636 -0.3831
10013TIP3    H151530   5.407   4.483   2.314 -1.1317  0.2601 -1.2338
10013TIP3    H251531   5.326   4.370   2.255 -0.5964 -0.8017  0.0247
10014TIP3   OH251532   3.834   1.279  10.705 -0.6204  0.1008 -0.1275
10014TIP3    H151533   3.815   1.266  10.612 -0.7039  0.0382 -0.1021
10014TIP3    H251534   3.819   1.372  10.719  0.3806  0.3182 -0.4052
10015TIP3   OH251535   5.992   1.953  12.461 -0.9394  0.2634 -0.5004
10015TIP3    H151536   6.059   2.014  12.492  0.8661 -1.4971 -0.7472
10015TIP3    H251537   5.910   1.992  12.489  0.2947  1.4483  1.7523
10016TIP3   OH251538   2.229   2.835  10.353  0.3442 -0.4249 -0.6804
10016TIP3    H151539   2.242   2.781  10.431 -1.8609 -0.3982 -0.2502
10016TIP3    H251540   2.145   2.878  10.367  0.7283  0.9650 -2.2969
10017TIP3   OH251541   5.616   3.475   3.342 -0.3275 -0.0283 -0.0431
10017TIP3    H151542   5.530   3.456   3.306  0.2462 -0.6567 -1.1351
10017TIP3    H251543   5.643   3.393   3.384 -0.4655  0.3227  0.7544
10018TIP3   OH251544   6.074   1.976   5.548 -0.1685 -0.2661 -0.3057
10018TIP3    H151545   6.109   1.971   5.637 -1.0030  0.1187  0.0509
10018TIP3    H251546   5.995   1.922   5.550 -1.6109  1.7479 -0.1082
10019TIP3   OH251547   0.879   1.665  10.978  0.2233  0.2756  0.0778
10019TIP3    H151548   0.804   1.610  10.955  0.8209 -1.4201  1.9434
10019TIP3    H251549   0.903   1.708  10.896 -2.6760  0.7805 -0.6080
10020TIP3   OH251550   3.622   3.252  13.730 -0.1723 -0.0386 -0.0017
10020TIP3    H151551   3.701   3.201  13.746  0.0288  0.3985  0.4183
10020TIP3    H251552   3.580   3.258  13.816 -0.9467 -0.7257 -0.3195
10021TIP3   OH251553   6.896   7.028  12.896 -0.1817 -0.1087 -0.4279
10021TIP3    H151554   6.840   6.951  12.899  0.1894 -0.5435 -3.0724
10021TIP3    H251555   6.949   7.022  12.976 -1.6195 -1.3932  0.4873
10022TIP3   OH251556   6.457   2.227  12.751 -0.7269 -0.1377  0.5548
10022TIP3    H151557   6.468   2.259  12.841 -1.9079 -2.1019  1.4508
10022TIP3    H251558   6.486   2.136  12.754 -1.4888 -0.4607 -0.8935
10023TIP3   OH251559   6.676   6.881  11.537 -0.3801 -0.2340 -0.2472
10023TIP3    H151560   6.753   6.824  11.547 -0.2090  0.1108  0.5119
10023TIP3    H251561   6.705   6.951  11.479 -0.1627 -0.1842 -0.0790
10024TIP3   OH251562   2.058   1.584   5.895  1.1927  0.9517 -0.2101
10024TIP3    H151563   2.086   1.526   5.824  1.1140 -0.3647  0.8059
10024TIP3    H251564   1.965   1.599   5.877  1.0024  0.0552 -0.0085
10025TIP3   OH251565   6.503   5.307  14.801  0.3862  0.1993  0.5076
10025TIP3    H151566   6.456   5.249  14.741  0.0333 -0.5664  1.4940
10025TIP3    H251567   6.566   5.353  14.745 -0.9112  0.6048 -0.6857
10026TIP3   OH251568   7.106   5.089   4.581  0.1178  0.2590  0.4820
10026TIP3    H151569   7.169   5.157   4.556  0.1769  0.1364  0.2936
10026TIP3    H251570   7.140   5.054   4.663  0.4805 -0.0348  0.2116
10027TIP3   OH251571   0.909   6.786   0.004 -0.1494  0.5812 -0.1853
10027TIP3    H151572   0.940   6.730   0.076  0.4796 -2.0996 -2.3367
10027TIP3    H251573   0.874   6.864   0.047  1.2883 -0.3134  2.9203
10028TIP3   OH251574   2.046   3.604   2.959  0.3696 -0.4465 -0.0722
10028TIP3    H151575   2.115   3.555   2.914  1.1561  0.3828  0.1970
10028TIP3    H251576   2.037   3.685   2.909  1.7073  0.7858  1.5465
10029TIP3   OH251577   3.441   2.867   3.936 -0.1030 -0.3801  0.4319
10029TIP3    H151578   3.346   2.857   3.936 -0.0465 -0.9520  0.0673
10029TIP3    H251579   3.471   2.814   3.862  0.3532  1.1377 -0.5283
10030TIP3   OH251580   7.108   6.023   1.901 -0.0189 -0.1023 -0.2494
10030TIP3    H151581   7.177   6.047   1.840  1.3628 -0.3024  1.1727
10030TIP3    H251582   7.098   5.928   1.889  1.8451 -0.5535  1.3433
10031TIP3   OH251583   0.917   0.288   5.743  0.2156 -0.1269 -0.3031
10031TIP3    H151584   0.943   0.363   5.795 -0.5586  1.2400 -1.7903
10031TIP3    H251585   0.994   0.231   5.742  1.2512  1.2353 -0.1444
10032TIP3   OH251586   3.399   5.129   0.341  0.2694  0.1252  0.0965
10032TIP3    H151587   3.463   5.128   0.411  1.5813 -0.4432 -1.0616
10032TIP3    H251588   3.319   5.161   0.382  1.0126 -0.1059  1.8129
10033TIP3   OH251589   6.281   0.898   4.562 -0.1151  1.1163 -0.6255
10033TIP3    H151590   6.361   0.855   4.592  0.9233  1.9427 -2.1002
10033TIP3    H251591   6.241   0.835   4.502  0.0721  1.1713 -0.8119
10034TIP3   OH251592   2.722   4.581   2.198  0.1328 -0.0203  0.4197
10034TIP3    H151593   2.627   4.568   2.197 -0.2194  2.2466  0.4551
10034TIP3    H251594   2.757   4.501   2.158 -1.8460 -0.4440 -0.6047
10035TIP3   OH251595   6.598   6.235   1.026 -0.0058  1.1331 -0.6306
10035TIP3    H151596   6.580   6.154   1.075  1.0485  1.7161  0.8050
10035TIP3    H251597   6.518   6.251   0.976 -0.5193 -0.3840 -0.3494
10036TIP3   OH251598   5.002   2.855   4.790  0.4329  0.0371  0.1572
10036TIP3    H151599   4.999   2.764   4.818  0.5753  0.4792  1.6712
10036TIP3    H251600   4.939   2.900   4.846  0.7094  0.9556 -0.2470
10037TIP3   OH251601   3.039   2.451   2.303  0.0113  0.3300 -0.7895
10037TIP3    H151602   3.130   2.424   2.303  0.0740  0.5164 -1.9081
10037TIP3    H251603   2.996   2.392   2.241 -0.6284  0.2462 -0.2787
10038TIP3   OH251604   3.988   2.525  11.815  0.0937 -0.1921  0.3042
10038TIP3    H151605   3.893   2.512  11.810 -0.2217  1.2749  1.6454
10038TIP3    H251606   4.021   2.493  11.731 -1.8853  1.5151 -1.2271
10039TIP3   OH251607   0.638   1.466  10.327  0.1029 -0.4375  0.5596
10039TIP3    H151608   0.636   1.538  10.390 -1.5232  1.3084 -1.3421
10039TIP3    H251609   0.713   1.486  10.270 -0.1540 -0.4441  0.2199
10040TIP3   OH251610   5.148   6.053   1.881  0.2521 -0.1351  0.1407
10040TIP3    H151611   5.099   5.971   1.872  2.3200 -1.4331 -0.0291
10040TIP3    H251612   5.207   6.054   1.806  1.2413  0.8180  0.8991
10041TIP3   OH251613   6.257   5.078  14.042 -0.0971 -1.1590 -0.1049
10041TIP3    H151614   6.191   5.010  14.057 -1.1096  0.0291  1.0801
10041TIP3    H251615   6.281   5.107  14.130  0.4108 -0.0644 -0.5902
10042TIP3   OH251616   4.679   0.735  14.432 -0.3571 -0.7133 -0.1709
10042TIP3    H151617   4.633   0.686  14.363 -1.5176 -1.1264  0.8434
10042TIP3    H251618   4.763   0.760  14.393 -1.2672 -0.2919 -1.9720
10043TIP3   OH251619   4.433   4.928   2.160  0.1182 -0.3633 -0.6852
10043TIP3    H151620   4.496   4.963   2.223  1.6433  0.9258 -2.7768
10043TIP3    H251621   4.349   4.968   2.185  0.5102 -0.4851  0.9330
10044TIP3   OH251622   6.898   1.081   1.616 -0.3700 -0.0214  0.1878
10044TIP3    H151623   6.950   1.156   1.590  0.0518  0.2819  1.7608
10044TIP3    H251624   6.885   1.030   1.536  0.4326  1.0561 -0.6419
10045TIP3   OH251625   1.579   6.203  12.715 -0.2544 -0.0863  0.3831
10045TIP3    H151626   1.585   6.246  12.629  1.4206 -1.0470 -0.0334
10045TIP3    H251627   1.500   6.239  12.754  0.2348  2.2257 -0.5699
10046TIP3   OH251628   1.477   1.866  14.426  0.1521 -0.1808  0.5262
10046TIP3    H151629   1.473   1.946  14.373 -0.5810 -0.9550 -0.6257
10046TIP3    H251630   1.447   1.797  14.367 -0.8490 -1.0525  2.0133
10047TIP3   OH251631   4.738   5.095   3.289  0.1478 -0.2817 -0.0771
10047TIP3    H151632   4.696   5.009   3.280  1.3419 -0.7374 -1.8673
10047TIP3    H251633   4.832   5.076   3.285  0.4836  0.9856  1.0318
10048TIP3   OH251634   2.806   0.290  14.964  0.2726 -0.0901  0.4343
10048TIP3    H151635   2.820   0.196  14.967  0.2646 -0.1043  0.0207
10048TIP3    H251636   2.808   0.312  14.871 -2.0422 -0.0348  0.3414
10049TIP3   OH251637   6.063   6.672  12.652 -0.3320  0.4340 -0.0562
10049TIP3    H151638   6.138   6.648  12.706 -0.5111 -0.1191 -0.0430
10049TIP3    H251639   6.077   6.764  12.630  0.6358  0.2017 -0.5015
10050TIP3   OH251640   3.660   6.247   1.776 -0.0885  0.4148  0.5633
10050TIP3    H151641   3.655   6.334   1.816  0.7566  0.2546  1.0468
10050TIP3    H251642   3.727   6.201   1.827 -0.7850 -0.6489  0.5594
10051TIP3   OH251643   2.406   3.568   4.405  0.0277  0.1314  0.7964
10051TIP3    H151644   2.385   3.485   4.362  2.7354  0.5177 -1.5545
10051TIP3    H251645   2.355   3.566   4.486 -0.9363 -3.2618  0.2775
10052TIP3   OH251646   6.269   6.317   5.444 -0.1340  0.0789 -0.0365
10052TIP3    H151647   6.317   6.367   5.378 -1.8860  0.7781 -0.8471
10052TIP3    H251648   6.332   6.303   5.514  0.6572  2.8467 -0.0748
10053TIP3   OH251649   2.105   2.312  11.667  0.2868  0.6939 -0.3374
10053TIP3    H151650   2.154   2.255  11.726 -0.6055  1.1656  0.9035
10053TIP3    H251651   2.070   2.254  11.600 -1.7990 -0.5353  1.6756
10054TIP3   OH251652   1.052   0.639  11.745 -0.4883  0.0792  0.1655
10054TIP3    H151653   0.968   0.679  11.768 -1.4571  0.0774 -2.9034
10054TIP3    H251654   1.116   0.683  11.801 -2.4654  0.0300  2.6584
10055TIP3   OH251655   4.673   3.102  10.274  0.4197  0.3573  0.3598
10055TIP3    H151656   4.586   3.089  10.235  1.1150  1.2051 -1.6048
10055TIP3    H251657   4.709   3.013  10.281  0.7039  0.2105 -2.1110
10056TIP3   OH251658   0.909   3.695   5.471 -0.8202 -0.5452  0.1470
10056TIP3    H151659   0.835   3.649   5.431 -0.1291 -0.4731 -1.2716
10056TIP3    H251660   0.917   3.656   5.558 -2.6283 -0.4133  0.4010
10057TIP3   OH251661   3.253   2.885  10.810 -0.0127  0.3374  0.0606
10057TIP3    H151662   3.343   2.861  10.831 -0.8063 -1.3737  1.8020
10057TIP3    H251663   3.210   2.895  10.895 -1.2218  2.2394 -0.7125
10058TIP3   OH251664   3.405   5.499   5.480  0.2407  0.5860 -0.3888
10058TIP3    H151665   3.420   5.593   5.469 -1.9801  1.0232 -0.0394
10058TIP3    H251666   3.312   5.486   5.463  0.1721 -1.3215  0.9885
10059TIP3   OH251667   3.030   0.747  10.457 -0.3311 -0.0090 -0.3122
10059TIP3    H151668   2.956   0.799  10.487 -0.1351 -0.0803  0.3163
10059TIP3    H251669   2.991   0.675  10.407 -0.5288  1.6951 -2.7544
10060TIP3   OH251670   4.060   1.989   5.104  0.5389  0.2121 -0.3198
10060TIP3    H151671   4.123   1.919   5.087  0.1152 -0.5640  1.1104
10060TIP3    H251672   4.095   2.034   5.180  0.0311  0.6095 -0.3201
10061TIP3   OH251673   6.907   7.023   4.206 -0.1582  1.0046 -0.3222
10061TIP3    H151674   6.916   7.064   4.292  0.6579  1.2838 -0.5272
10061TIP3    H251675   6.960   7.078   4.148  0.5039 -0.0098 -0.7116
10062TIP3   OH251676   5.144   5.338  10.907  0.3713 -0.0051 -0.6833
10062TIP3    H151677   5.125   5.244  10.908  1.4730 -0.2946  1.7362
10062TIP3    H251678   5.093   5.373  10.981 -1.0309  1.5934 -2.3039
10063TIP3   OH251679   1.599   3.471  10.178  0.5639  0.0173 -0.1108
10063TIP3    H151680   1.657   3.432  10.244  1.1407  1.6144  0.3665
10063TIP3    H251681   1.658   3.520  10.120 -0.0734 -0.3473 -1.1085
10064TIP3   OH251682   3.633   0.726   0.369 -0.8609  0.3535  0.2788
10064TIP3    H151683   3.577   0.700   0.296 -0.2279 -0.5912  0.1158
10064TIP3    H251684   3.668   0.643   0.403  0.8495  0.9558  0.0462
10065TIP3   OH251685   7.154   1.885   2.745  0.2632 -0.0005 -0.2939
10065TIP3    H151686   7.087   1.949   2.769 -0.6640 -0.7450 -0.8152
10065TIP3    H251687   7.237   1.923   2.775 -0.5205  0.3517  1.5041
10066TIP3   OH251688   2.720   0.478   3.468 -0.1851  0.1344 -0.3674
10066TIP3    H151689   2.723   0.426   3.549 -0.1220  1.5471  0.5678
10066TIP3    H251690   2.766   0.424   3.404  2.2338  0.1319  1.2491
10067TIP3   OH251691   2.863   1.931  11.397  0.1802  0.2699 -0.6622
10067TIP3    H151692   2.950   1.916  11.433 -0.5938 -0.2147  1.1058
10067TIP3    H251693   2.832   1.845  11.370  0.3794  0.4955 -1.6435
10068TIP3   OH251694   6.422   0.780  12.184 -0.8071 -0.3150  0.1965
10068TIP3    H151695   6.464   0.711  12.236 -2.9777 -2.1152 -0.2680
10068TIP3    H251696   6.359   0.819  12.244  0.2514  1.2096  0.3873
10069TIP3   OH251697   3.687   6.579  10.708 -0.1762 -0.0899 -0.0126
10069TIP3    H151698   3.675   6.649  10.772 -0.9690 -0.0183 -0.2287
10069TIP3    H251699   3.624   6.599  10.639 -3.1071 -2.9573  1.5588
10070TIP3   OH251700   5.567   2.257   3.080 -0.0796 -0.1549  0.2164
10070TIP3    H151701   5.647   2.251   3.133  2.3381  0.3080 -3.0421
10070TIP3    H251702   5.519   2.330   3.118  0.5153 -1.0006  2.8401
10071TIP3   OH251703   2.410   2.863   1.997  0.1990  0.1336 -0.2211
10071TIP3    H151704   2.454   2.931   2.048  0.5273 -0.0262 -0.2950
10071TIP3    H251705   2.326   2.903   1.972 -0.1235  0.0859  0.7395
10072TIP3   OH251706   3.501   4.778   2.434 -0.0852 -0.1078 -0.2373
10072TIP3    H151707   3.481   4.870   2.450  0.2991 -0.0492 -0.0978
10072TIP3    H251708   3.456   4.731   2.504  0.9702  0.0899  0.6061
10073TIP3   OH251709   4.774   2.855  10.327  0.0243 -0.9007  0.1185
10073TIP3    H151710   4.846   2.850  10.264  1.3145  0.6563  1.3628
10073TIP3    H251711   4.782   2.776  10.379  0.3263 -1.1347 -0.2806
10074TIP3   OH251712   6.728   3.822   5.163  0.0307  0.4441  0.6619
10074TIP3    H151713   6.656   3.832   5.101  0.6036 -0.8556 -0.2511
10074TIP3    H251714   6.742   3.727   5.169  0.4270  0.5742  2.2875
10075TIP3   OH251715   6.796   3.863   3.711  0.0564  0.2737  0.3548
10075TIP3    H151716   6.834   3.804   3.776 -2.1128 -0.5747  0.9334
10075TIP3    H251717   6.730   3.810   3.666  1.4074  0.8433 -2.5566
10076TIP3   OH251718   6.353   4.337   3.672 -0.0415  0.4366  0.0497
10076TIP3    H151719   6.364   4.303   3.584  3.1468 -1.2939  0.9443
10076TIP3    H251720   6.385   4.427   3.668  2.4757 -0.3963 -0.1830
10077TIP3   OH251721   4.888   5.828  10.229  0.4190  0.2923 -0.0882
10077TIP3    H151722   4.918   5.748  10.187 -2.3708 -1.8427  1.5637
10077TIP3    H251723   4.827   5.867  10.167  0.1579 -0.0745 -0.0653
10078TIP3   OH251724   1.953   7.067   1.007  0.5431  0.3558  0.2632
10078TIP3    H151725   1.913   7.052   1.092  0.0541 -3.1649 -0.4428
10078TIP3    H251726   1.973   6.979   0.974  0.2637  1.5433 -3.4821
10079TIP3   OH251727   4.095   2.575   5.694  0.3884 -0.0034 -0.1572
10079TIP3    H151728   4.155   2.501   5.702  1.1470  0.6649  0.4400
10079TIP3    H251729   4.079   2.604   5.784 -1.2770 -0.5037 -0.2609
10080TIP3   OH251730   1.504   6.050   5.143 -0.1866 -0.2141  0.1084
10080TIP3    H151731   1.453   6.059   5.224 -0.3429  1.6232 -0.1491
10080TIP3    H251732   1.576   5.991   5.166  0.0974  0.7229  1.7565
10081TIP3   OH251733   0.550   4.978   1.835  0.2881  0.3568  0.2045
10081TIP3    H151734   0.609   4.991   1.910 -1.0425 -0.2290  1.4065
10081TIP3    H251735   0.481   4.921   1.869 -0.2890 -0.0247 -1.5295
10082TIP3   OH251736   2.968   3.084  13.200 -0.2928  0.8151 -0.7485
10082TIP3    H151737   3.055   3.044  13.205 -1.1349 -1.0228  0.4327
10082TIP3    H251738   2.969   3.154  13.266 -0.1399 -0.1796  0.3425
10083TIP3   OH251739   6.268   4.196   0.608 -0.3573 -0.3023 -0.0429
10083TIP3    H151740   6.255   4.158   0.695 -1.8468 -1.3630 -0.6815
10083TIP3    H251741   6.208   4.147   0.552 -0.7250  1.5497 -1.3492
10084TIP3   OH251742   4.115   2.886  10.864 -0.2512 -0.5485 -0.2428
10084TIP3    H151743   4.102   2.886  10.959  2.0981 -1.5621  0.1489
10084TIP3    H251744   4.061   2.959  10.833  2.1189  2.7168  2.4008
10085TIP3   OH251745   4.022   0.921  10.031 -0.2266  0.1256 -0.1395
10085TIP3    H151746   3.957   0.856  10.058 -0.7934 -0.0070 -1.7381
10085TIP3    H251747   3.971   0.997  10.004  0.2493 -0.0240 -1.5334
10086TIP3   OH251748   2.252   2.640  10.529  0.0882  0.6606 -0.2139
10086TIP3    H151749   2.318   2.590  10.577  1.3400  1.2599 -1.2310
10086TIP3    H251750   2.175   2.583  10.528  1.1736 -0.8852 -0.5603
10087TIP3   OH251751   2.975   1.157   5.224  0.7489 -0.6707 -0.4118
10087TIP3    H151752   2.985   1.087   5.288  1.4962 -2.3215 -2.2122
10087TIP3    H251753   2.888   1.143   5.186 -0.4354  1.3736  1.3680
10088TIP3   OH251754   2.823   2.765  14.972  0.6197  0.1474  0.5839
10088TIP3    H151755   2.831   2.712  15.051 -0.0382  1.6483  1.6956
10088TIP3    H251756   2.863   2.849  14.995 -1.5020  1.3715  0.0970
10089TIP3   OH251757   2.700   1.092  11.782  0.0325 -0.7929  0.0014
10089TIP3    H151758   2.693   1.184  11.809  2.4729 -0.8127  0.9577
10089TIP3    H251759   2.632   1.082  11.715 -0.3515  1.6894 -0.0873
10090TIP3   OH251760   6.474   0.031  11.804 -0.1699  0.2328 -0.7124
10090TIP3    H151761   6.413  -0.026  11.757 -0.5823 -0.1518  0.2728
10090TIP3    H251762   6.419   0.079  11.866  0.5666 -0.4224  0.4845
10091TIP3   OH251763   3.750   0.657   1.581  0.2358  0.0904 -0.0717
10091TIP3    H151764   3.826   0.693   1.627 -0.4145 -0.9487  1.9518
10091TIP3    H251765   3.690   0.730   1.572 -0.0262  0.1353  1.6932
10092TIP3   OH251766   0.710   1.360   9.915 -0.3647 -0.2859  0.4807
10092TIP3    H151767   0.793   1.404   9.935  0.6189 -2.3302  1.3112
10092TIP3    H251768   0.737   1.280   9.869 -1.8810 -1.0072  0.7971
10093TIP3   OH251769   4.732   0.076  14.027 -0.3324 -0.2306 -0.4580
10093TIP3    H151770   4.794   0.031  14.085  0.5358  0.1483 -1.0722
10093TIP3    H251771   4.646   0.047  14.057  0.1598 -1.2548  0.0159
10094TIP3   OH251772   4.064   4.785   3.461 -0.0361 -0.5184  0.4641
10094TIP3    H151773   4.023   4.777   3.548  3.1062 -0.8898  2.0315
10094TIP3    H251774   4.038   4.872   3.431 -2.3756 -0.9251  1.0420
10095TIP3   OH251775   6.082   4.338   4.235 -0.6671  0.1308  0.0600
10095TIP3    H151776   6.149   4.354   4.169 -1.9117  0.0096 -1.2701
10095TIP3    H251777   6.114   4.384   4.313 -0.0668  1.8627 -1.1571
10096TIP3   OH251778   2.330   2.064  11.482 -0.3216 -0.0539 -0.1889
10096TIP3    H151779   2.275   2.116  11.423  0.0067 -1.0285 -1.3941
10096TIP3    H251780   2.313   2.101  11.568 -2.4904  0.0080 -0.5894
10097TIP3   OH251781   6.780   5.497   1.288  0.3654 -0.3292 -0.4187
10097TIP3    H151782   6.735   5.526   1.367  0.1761 -0.8987 -0.3106
10097TIP3    H251783   6.841   5.431   1.319  0.5215 -0.3206 -0.7075
10098TIP3   OH251784   4.333   3.839  14.297  0.1236  0.3164 -0.3310
10098TIP3    H151785   4.365   3.916  14.345  0.9682 -0.1465 -0.1363
10098TIP3    H251786   4.412   3.801  14.258 -0.0708 -1.2313  0.6851
10099TIP3   OH251787   1.138   1.006   1.225  0.5783  0.1800 -0.4222
10099TIP3    H151788   1.154   1.070   1.295  0.7284 -0.9678  0.6252
10099TIP3    H251789   1.163   1.052   1.145 -0.4874  1.8559  0.1555
10100TIP3   OH251790   5.103   1.662   3.294 -0.3160  0.5474  0.3393
10100TIP3    H151791   5.115   1.622   3.380 -2.9316 -1.0128  0.0967
10100TIP3    H251792   5.190   1.689   3.267  0.5748  1.3196  3.5578
10101TIP3   OH251793   2.906   2.229  14.523 -0.1855  0.4794  0.2406
10101TIP3    H151794   2.847   2.154  14.513 -0.0006  0.0763  1.8705
10101TIP3    H251795   2.978   2.195  14.577  1.0750  1.2207 -0.9158
10102TIP3   OH251796   3.249   1.445   5.759  0.4415 -0.1355  0.2961
10102TIP3    H151797   3.189   1.408   5.824  0.9512  0.5066  1.1487
10102TIP3    H251798   3.289   1.368   5.717  1.3270 -0.5820  1.8897
10103TIP3   OH251799   6.810   3.489   1.616 -0.0116 -0.0150 -0.3422
10103TIP3    H151800   6.753   3.548   1.665  2.3407  0.7044  1.7084
10103TIP3    H251801   6.794   3.511   1.524 -1.6750  1.3780  0.2347
10104TIP3   OH251802   4.803   1.176   5.693 -0.1424  0.3600  0.2322
10104TIP3    H151803   4.830   1.098   5.643  1.0713 -0.1762  1.6243
10104TIP3    H251804   4.733   1.215   5.642  0.6662 -0.4649 -1.5931
10105TIP3   OH251805   6.254   2.834  11.653 -0.0615 -0.6858 -0.3068
10105TIP3    H151806   6.251   2.894  11.727  1.2762 -2.7949  1.6078
10105TIP3    H251807   6.245   2.890  11.576 -0.3729  1.7424  1.3805
10106TIP3   OH251808   0.727   1.326   0.458 -0.4499  0.0448  0.7746
10106TIP3    H151809   0.720   1.357   0.549 -2.5740 -0.9985  1.0419
10106TIP3    H251810   0.654   1.264   0.449 -0.3657  0.2182 -1.6952
10107TIP3   OH251811   1.455   3.822   5.621  0.8504 -0.3891 -0.1673
10107TIP3    H151812   1.525   3.759   5.605 -0.5607 -1.6109 -1.8480
10107TIP3    H251813   1.456   3.879   5.544  1.3797  1.0218  0.8218
10108TIP3   OH251814   5.961   2.632   9.694 -0.1128  0.5520  0.6060
10108TIP3    H151815   6.048   2.659   9.723 -0.3017 -0.6442  2.4750
10108TIP3    H251816   5.976   2.553   9.642  0.0402  1.4368 -0.7412
10109TIP3   OH251817   2.216   7.128  13.865  0.0107  0.0190  0.1575
10109TIP3    H151818   2.216   7.209  13.915  1.9112 -0.1516  0.4932
10109TIP3    H251819   2.133   7.086  13.887 -1.2293  2.0473 -0.3745
10110TIP3   OH251820   5.258   3.183  14.130 -0.4776  0.0871 -0.1327
10110TIP3    H151821   5.317   3.142  14.066 -1.0160  2.1929 -2.1230
10110TIP3    H251822   5.226   3.110  14.183  0.5604 -1.7022 -1.8253
10111TIP3   OH251823   0.260   1.698  14.113 -0.4751  0.5852  0.5272
10111TIP3    H151824   0.212   1.637  14.167 -2.3472  1.0342 -0.5447
10111TIP3    H251825   0.207   1.708  14.034  2.0692  0.0371 -1.4050
10112TIP3   OH251826   3.164   7.048  14.046 -0.4443 -0.5014  0.3313
10112TIP3    H151827   3.213   7.036  13.964 -1.6783 -4.2272 -0.0934
10112TIP3    H251828   3.118   7.131  14.034  1.5571  0.4564 -1.5022
10113TIP3   OH251829   0.317   6.429   3.868  0.1953  0.0638  0.4541
10113TIP3    H151830   0.253   6.466   3.929 -0.3624  1.0448 -0.6875
10113TIP3    H251831   0.290   6.462   3.782  0.8448 -1.4395 -0.3619
10114TIP3   OH251832   4.311   5.554   4.645  0.0802 -0.8331  0.4275
10114TIP3    H151833   4.338   5.472   4.603  1.7627 -0.2310  0.2212
10114TIP3    H251834   4.265   5.527   4.724  0.0747 -1.9723  0.0507
10115TIP3   OH251835   4.253   3.944   4.552 -0.9347  0.0648  0.7277
10115TIP3    H151836   4.199   4.018   4.524 -0.4827  0.1173 -0.0295
10115TIP3    H251837   4.206   3.867   4.522 -0.2276  0.1338 -0.6310
10116TIP3   OH251838   5.140   0.048  13.823 -0.0802  0.1219  0.3827
10116TIP3    H151839   5.046   0.063  13.835  0.2769  1.4601  1.8330
10116TIP3    H251840   5.154  -0.041  13.854 -0.6549  0.4574  1.6976
10117TIP3   OH251841   6.668   3.869   0.107  0.2051  0.0989  0.0309
10117TIP3    H151842   6.742   3.827   0.064  0.9128  0.9963  0.3407
10117TIP3    H251843   6.591   3.820   0.076  0.9410 -1.0135 -0.0782
10118TIP3   OH251844   7.239   3.796  13.613  0.1047 -0.0864  0.3731
10118TIP3    H151845   7.201   3.809  13.526  0.3888  1.5097  0.4640
10118TIP3    H251846   7.164   3.793  13.672 -0.0047  0.7391  0.2829
10119TIP3   OH251847   1.887   4.389  13.472  0.8262 -0.5776  0.0089
10119TIP3    H151848   1.968   4.436  13.453 -0.1554  1.9502  1.5518
10119TIP3    H251849   1.883   4.386  13.568 -0.4702 -1.4888 -0.0443
10120TIP3   OH251850   1.856   2.015  12.774 -0.5863 -0.9926  0.2500
10120TIP3    H151851   1.939   1.968  12.768 -0.0313 -0.0311  0.1852
10120TIP3    H251852   1.865   2.087  12.712 -2.0356 -1.6883 -0.8119
10121TIP3   OH251853   2.343   6.031   2.795 -0.4058 -0.2266  0.1188
10121TIP3    H151854   2.333   6.029   2.700 -0.9449  0.2205  0.1649
10121TIP3    H251855   2.419   6.089   2.810 -0.8313  0.3712 -0.0042
10122TIP3   OH251856   4.002   3.290   0.848 -0.0961 -0.5744  0.4105
10122TIP3    H151857   4.041   3.378   0.842 -0.5434 -0.2756  1.6582
10122TIP3    H251858   4.038   3.243   0.772  1.1827  0.2816  0.4551
10123TIP3   OH251859   7.156   5.808  13.571 -0.5780 -0.0436 -0.0041
10123TIP3    H151860   7.143   5.783  13.662 -1.6974 -1.5481 -0.5380
10123TIP3    H251861   7.194   5.730  13.530  1.8415  1.2755 -0.4454
10124TIP3   OH251862   0.268   5.247  14.025 -0.3432 -0.6825 -0.0221
10124TIP3    H151863   0.303   5.159  14.011 -0.0370 -0.5613 -0.0197
10124TIP3    H251864   0.280   5.291  13.941 -0.1391 -0.5202  0.0914
10125TIP3   OH251865   3.638   4.609  10.918  0.0619  0.0972  0.2658
10125TIP3    H151866   3.680   4.529  10.950  0.1333  0.3856  0.9126
10125TIP3    H251867   3.689   4.680  10.956 -0.3442  0.4519  0.1562
10126TIP3   OH251868   4.778   6.969   3.465  0.0157 -0.1488 -0.4355
10126TIP3    H151869   4.808   6.903   3.527 -2.4635 -0.5989  0.3762
10126TIP3    H251870   4.831   7.047   3.485 -0.3948 -0.4095  1.9498
10127TIP3   OH251871   3.935   6.667  15.241  0.2764 -0.0498  0.8200
10127TIP3    H151872   3.963   6.757  15.257  0.3366 -0.0168  0.5215
10127TIP3    H251873   3.972   6.645  15.156 -1.0987  0.2079  0.1295
10128TIP3   OH251874   0.419   1.848  11.288  0.3196  0.3301  0.0464
10128TIP3    H151875   0.456   1.809  11.209  0.0691  0.2607 -0.0367
10128TIP3    H251876   0.430   1.942  11.276 -0.6130  0.3765 -0.5175
10129TIP3   OH251877   6.740   0.058  11.480  0.3803  0.2827  0.2443
10129TIP3    H151878   6.777   0.104  11.404  1.1203  2.7994  1.9711
10129TIP3    H251879   6.672   0.117  11.513  0.0270 -0.7721  1.5076
10130TIP3   OH251880   1.327   2.040  14.708 -0.5434  0.5363 -0.1608
10130TIP3    H151881   1.275   2.110  14.668  0.1361  0.6050 -0.9500
10130TIP3    H251882   1.277   1.960  14.691 -0.9225  0.7258  0.0417
10131TIP3   OH251883   6.908   2.690  11.407 -0.4710 -0.1902  0.3856
10131TIP3    H151884   6.905   2.718  11.316  1.8137 -0.6330  0.1153
10131TIP3    H251885   7.001   2.685  11.428 -0.9302 -0.4830  2.6400
10132TIP3   OH251886   0.603   3.013   5.173 -0.1712  0.1201 -0.4611
10132TIP3    H151887   0.694   3.039   5.185 -0.3085  0.2586  0.4053
10132TIP3    H251888   0.587   3.021   5.079  0.3938  1.1881 -0.4801
10133TIP3   OH251889   5.701   5.690  10.826  0.0969 -0.2143 -0.5713
10133TIP3    H151890   5.686   5.627  10.755 -2.2687  1.2600 -1.5167
10133TIP3    H251891   5.761   5.754  10.789 -0.8187  0.3312 -1.1741
10134TIP3   OH251892   3.418   5.216  10.172 -0.0979 -0.1484 -0.0828
10134TIP3    H151893   3.400   5.288  10.112 -0.2117  0.8943  1.1554
10134TIP3    H251894   3.346   5.154  10.158 -0.5382  0.4413 -0.4713
10135TIP3   OH251895   5.767   2.038  10.829 -0.3891  0.0202  0.4231
10135TIP3    H151896   5.763   1.969  10.763  1.1675 -0.4263  0.7609
10135TIP3    H251897   5.705   2.104  10.799 -2.6224 -1.8922  0.5490
10136TIP3   OH251898   6.454   2.021   1.986  0.1324  0.3201 -0.0374
10136TIP3    H151899   6.453   2.116   2.001  0.3215  0.7831 -2.5490
10136TIP3    H251900   6.547   2.000   1.975  0.0398 -0.0114 -0.2019
10137TIP3   OH251901   5.719   1.708   1.603  0.1940  0.1213 -0.5715
10137TIP3    H151902   5.630   1.743   1.597  0.0931  0.2106  0.8917
10137TIP3    H251903   5.751   1.741   1.687  1.8136  0.5363 -1.3212
10138TIP3   OH251904   5.473   1.202   2.619 -0.0460 -0.1847 -0.6892
10138TIP3    H151905   5.566   1.224   2.618 -0.7993  4.0831  0.8336
10138TIP3    H251906   5.432   1.275   2.572 -2.6929 -1.7703 -1.0166
10139TIP3   OH251907   2.205   1.534  14.322 -0.2549  0.1878 -0.0041
10139TIP3    H151908   2.261   1.515  14.397 -0.5080  0.9156  0.3777
10139TIP3    H251909   2.215   1.628  14.307  0.9071 -0.1585 -1.8029
10140TIP3   OH251910   2.332   4.075   2.254  0.6833  0.1632  0.0333
10140TIP3    H151911   2.275   4.005   2.221 -1.1897  1.2327  0.8571
10140TIP3    H251912   2.317   4.148   2.195 -1.9237  1.7613  2.4207
10141TIP3   OH251913   3.333   6.636  11.748  0.3053 -0.2066 -0.4992
10141TIP3    H151914   3.253   6.687  11.765  0.4408  0.0360 -0.5854
10141TIP3    H251915   3.404   6.700  11.753  0.3586 -0.1175 -1.9463
10142TIP3   OH251916   1.457   1.106   2.329  0.0819  0.1021 -0.1123
10142TIP3    H151917   1.395   1.174   2.301 -1.3132  0.1479  2.6651
10142TIP3    H251918   1.444   1.101   2.424  1.7085 -2.5464  0.0568
10143TIP3   OH251919   2.576   4.452   1.062 -0.2774 -0.2250 -0.4529
10143TIP3    H151920   2.551   4.527   1.008  2.3485  0.6894 -0.5717
10143TIP3    H251921   2.609   4.491   1.143  1.5029 -1.1749 -0.6784
10144TIP3   OH251922   6.551   6.242  13.893 -0.9363  0.1726 -0.4313
10144TIP3    H151923   6.575   6.169  13.949  0.8842  1.9264  1.2021
10144TIP3    H251924   6.612   6.238  13.820 -0.0315  0.7229  0.2773
10145TIP3   OH251925   5.373   0.184   2.599 -0.2263 -0.9881 -0.7672
10145TIP3    H151926   5.322   0.103   2.597 -0.1196 -1.0491 -2.3345
10145TIP3    H251927   5.438   0.173   2.530  1.5067 -0.6261  0.7316
10146TIP3   OH251928   3.229   1.343  11.117 -0.3072  0.8678  0.1229
10146TIP3    H151929   3.301   1.310  11.170 -0.8293 -1.6623 -0.6426
10146TIP3    H251930   3.252   1.435  11.100  3.2851 -0.0833 -1.0129
10147TIP3   OH251931   0.332   4.170   4.375 -0.1679 -0.0429  0.6725
10147TIP3    H151932   0.351   4.176   4.468 -1.4770 -0.6047  0.9982
10147TIP3    H251933   0.341   4.077   4.354  0.6886  0.1555  0.0919
10148TIP3   OH251934   5.522   1.777   1.039 -0.1345 -0.3105 -0.2003
10148TIP3    H151935   5.612   1.798   1.062 -0.7151  0.4017  1.6915
10148TIP3    H251936   5.470   1.815   1.110 -1.7008 -3.3975  0.5153
10149TIP3   OH251937   0.897   5.379  14.547  0.3427 -0.4966 -0.0526
10149TIP3    H151938   0.825   5.317  14.540 -0.5178  0.5894 -1.3338
10149TIP3    H251939   0.976   5.325  14.539 -0.2712 -1.7442  1.7360
10150TIP3   OH251940   0.520   1.940  10.294 -0.3299 -0.0656  0.3600
10150TIP3    H151941   0.495   1.940  10.201 -0.8623 -0.5374  0.4937
10150TIP3    H251942   0.609   1.903  10.295 -0.9710 -1.7148  0.1765
10151TIP3   OH251943   4.736   6.793  13.708  0.4570  0.0447 -0.2503
10151TIP3    H151944   4.822   6.751  13.703  1.1460  1.4203 -0.5202
10151TIP3    H251945   4.733   6.830  13.796  0.1214 -0.0208 -0.2332
10152TIP3   OH251946   5.726   4.764   9.913 -0.3826  0.4122 -0.2642
10152TIP3    H151947   5.779   4.718   9.978 -0.0451  0.0057 -0.8148
10152TIP3    H251948   5.773   4.751   9.831  0.6095  3.0785 -0.2113
10153TIP3   OH251949   5.789   4.267  12.692 -0.0706 -0.2732 -0.3699
10153TIP3    H151950   5.837   4.295  12.614  0.6456  1.7937  0.7497
10153TIP3    H251951   5.698   4.293  12.675 -0.0668 -0.5660 -0.8436
10154TIP3   OH251952   0.379   2.438   0.137  0.0064 -0.2244  0.2795
10154TIP3    H151953   0.407   2.482   0.217 -0.3398  0.4899  0.0171
10154TIP3    H251954   0.411   2.348   0.147 -1.0755 -0.4806  1.7639
10155TIP3   OH251955   6.955   4.976  11.360  0.3707  0.2635  0.1574
10155TIP3    H151956   6.991   4.922  11.290  0.3671  0.3980  0.0526
10155TIP3    H251957   6.871   5.006  11.327  1.1539  1.8401 -0.5545
10156TIP3   OH251958   4.692   0.638  13.553 -0.1174  0.3039  0.3487
10156TIP3    H151959   4.658   0.551  13.575 -1.0639  0.6525  0.2847
10156TIP3    H251960   4.693   0.640  13.457  1.0382 -0.0586  0.3318
10157TIP3   OH251961   4.562   4.381   5.433  0.1830 -0.0499 -0.5920
10157TIP3    H151962   4.537   4.383   5.525  2.3035 -0.0103  0.0443
10157TIP3    H251963   4.518   4.304   5.398 -1.2338  0.3434  0.2470
10158TIP3   OH251964   5.627   6.265   1.222 -0.3038  0.1173  0.2570
10158TIP3    H151965   5.608   6.340   1.164  0.3712  0.2171  0.1647
10158TIP3    H251966   5.705   6.291   1.270  0.5078 -0.9096 -0.4642
10159TIP3   OH251967   5.243   0.197   0.798  0.0170  0.0430 -0.8798
10159TIP3    H151968   5.238   0.232   0.887 -0.3745  0.1692 -0.9502
10159TIP3    H251969   5.323   0.236   0.762  2.5247 -3.1552  0.7408
10160TIP3   OH251970   2.751   1.399   3.963  0.1826  0.4113 -0.4172
10160TIP3    H151971   2.667   1.444   3.969 -0.9216 -1.6390  0.7089
10160TIP3    H251972   2.806   1.441   4.028 -1.0701 -0.2992  1.1698
10161TIP3   OH251973   0.492   3.817   1.292  1.0512  0.7971  0.1166
10161TIP3    H151974   0.559   3.829   1.224  0.3063  0.2472 -0.7485
10161TIP3    H251975   0.539   3.780   1.366  1.4525 -1.3097 -1.1040
10162TIP3   OH251976   4.219   0.524   2.825  0.5706 -0.0827  0.0844
10162TIP3    H151977   4.183   0.606   2.859 -0.3579 -0.4985  0.1249
10162TIP3    H251978   4.276   0.492   2.895 -0.8872 -0.6425  1.0637
10163TIP3   OH251979   3.448   3.382   3.501 -0.8260  0.5960 -0.0196
10163TIP3    H151980   3.381   3.379   3.569 -0.9954  2.7355 -0.0210
10163TIP3    H251981   3.427   3.309   3.443 -1.9108 -0.0133  1.1035
10164TIP3   OH251982   7.037   2.458   0.855  0.0111 -0.9070  0.7465
10164TIP3    H151983   7.054   2.405   0.933 -1.4326 -0.3935  1.4449
10164TIP3    H251984   6.942   2.459   0.847  0.0705  0.3834 -0.0994
10165TIP3   OH251985   2.882   2.191  13.282 -0.5592 -0.4324  0.4841
10165TIP3    H151986   2.816   2.128  13.311 -0.6178 -0.8031 -0.4433
10165TIP3    H251987   2.901   2.242  13.361 -3.3543  0.9758  0.3478
10166TIP3   OH251988   6.415   4.712  13.574  0.0149 -0.4435  0.2839
10166TIP3    H151989   6.386   4.629  13.538  0.4276 -0.2842 -0.4373
10166TIP3    H251990   6.499   4.693  13.615  0.5320 -0.2250 -0.6380
10167TIP3   OH251991   3.579   4.301  10.459  0.9895  0.0957 -0.2212
10167TIP3    H151992   3.622   4.381  10.431  1.5961 -0.3155 -0.4881
10167TIP3    H251993   3.645   4.232  10.445  0.7865 -0.3315  0.7885
10168TIP3   OH251994   4.234   6.796   0.543  0.6142 -0.5882 -0.0203
10168TIP3    H151995   4.216   6.748   0.462  1.1886 -0.3143 -0.3088
10168TIP3    H251996   4.328   6.788   0.555  0.9139  1.4467 -0.6916
10169TIP3   OH251997   0.197   1.246  14.805  1.0417 -0.0023 -0.2994
10169TIP3    H151998   0.267   1.218  14.864  1.7272  0.5457 -0.8470
10169TIP3    H251999   0.201   1.184  14.732  0.3928 -0.4913  0.0687
10170TIP3   OH252000   6.152   4.489   3.314  0.2104 -1.0058  0.4535
10170TIP3    H152001   6.111   4.430   3.250 -1.2112 -0.2119  0.5746
10170TIP3    H252002   6.100   4.477   3.394 -0.0528  0.3089  0.5029
10171TIP3   OH252003   0.018   7.043   9.673 -0.3338  0.1791 -0.4288
10171TIP3    H152004   0.064   7.050   9.590  1.3163 -0.0418  0.4313
10171TIP3    H252005   0.016   6.949   9.692  0.5044  0.3228  0.4187
10172TIP3   OH252006   0.164   1.740  11.197 -0.2894 -0.2395 -0.2407
10172TIP3    H152007   0.158   1.755  11.103 -1.7809 -3.6073 -0.8462
10172TIP3    H252008   0.253   1.764  11.220  0.7085 -1.0049 -2.9385
10173TIP3   OH252009   6.172   7.111  14.473  0.1583  0.2362  0.2336
10173TIP3    H152010   6.107   7.150  14.415  0.1392  0.4524  0.3967
10173TIP3    H252011   6.121   7.065  14.540  0.1765  0.1504  0.1872
10174TIP3   OH252012   5.239   1.012   3.345 -0.6400 -0.0279  0.0313
10174TIP3    H152013   5.291   0.936   3.368 -0.4015 -0.3033 -1.3661
10174TIP3    H252014   5.231   1.061   3.427 -1.9321 -2.1992  1.3058
10175TIP3   OH252015   6.930   3.456   4.788 -0.5061 -0.5393  0.0255
10175TIP3    H152016   6.993   3.444   4.717  1.0652  0.4341  1.1672
10175TIP3    H252017   6.922   3.370   4.829  0.2859 -0.6399 -0.0123
10176TIP3   OH252018   4.008   2.599   1.760 -0.7051 -0.1982 -0.6565
10176TIP3    H152019   3.965   2.525   1.805 -0.4073  0.4344  0.7186
10176TIP3    H252020   4.033   2.658   1.831  1.8762 -0.2315 -1.4553
10177TIP3   OH252021   6.827   5.118  10.256  0.1447 -0.3221 -0.0537
10177TIP3    H152022   6.818   5.023  10.241  0.7976 -0.1302 -2.0098
10177TIP3    H252023   6.879   5.148  10.182  1.7680  1.2650  1.6386
10178TIP3   OH252024   5.095   7.231  12.269  0.0517  0.4369  0.3686
10178TIP3    H152025   5.185   7.206  12.292  0.9686  2.0571 -1.2219
10178TIP3    H252026   5.042   7.155  12.292  1.6962 -0.2538  2.1240
10179TIP3   OH252027   6.110   3.341  15.251  0.3882 -0.8651 -0.3320
10179TIP3    H152028   6.180   3.334  15.317  0.2722  0.9233  0.0322
10179TIP3    H252029   6.149   3.390  15.180 -0.1092 -1.0242 -0.7197
10180TIP3   OH252030   4.935   3.063   5.749 -0.2822 -0.4083  0.1244
10180TIP3    H152031   4.885   3.108   5.680 -0.1091 -0.0507  0.2294
10180TIP3    H252032   4.895   2.977   5.756  1.0264 -1.2558 -1.9137
10181TIP3   OH252033   4.269   4.861   4.305 -0.5475  0.2730  1.0188
10181TIP3    H152034   4.321   4.902   4.374 -1.0655  1.7519  0.5678
10181TIP3    H252035   4.187   4.911   4.303 -1.4230 -1.1019  0.7587
10182TIP3   OH252036   2.433   2.680  11.950  0.4784  0.1241 -0.4119
10182TIP3    H152037   2.479   2.706  12.030  0.0188  1.3576 -0.5266
10182TIP3    H252038   2.468   2.594  11.929 -1.0281 -1.3196  2.3881
10183TIP3   OH252039   1.278   4.153  15.210 -0.2610 -0.4618  0.1982
10183TIP3    H152040   1.308   4.233  15.167  0.1184  0.0239  1.3248
10183TIP3    H252041   1.190   4.139  15.176  0.3969 -0.7142 -1.5545
10184TIP3   OH252042   4.029   2.593   2.275  0.1574  0.0143  0.3671
10184TIP3    H152043   3.958   2.536   2.305  0.4752 -0.1525  0.8193
10184TIP3    H252044   3.999   2.625   2.190  0.3530 -1.5186 -0.3167
10185TIP3   OH252045   6.673   3.860  10.439 -0.0778  0.1699 -0.0428
10185TIP3    H152046   6.763   3.870  10.407  0.4213  1.8328  1.6982
10185TIP3    H252047   6.672   3.773  10.479 -0.3281 -1.3763 -3.0773
10186TIP3   OH252048   2.269   1.231   1.843  0.5770  0.6020 -0.0095
10186TIP3    H152049   2.289   1.138   1.856  0.7504  0.6936  0.4092
10186TIP3    H252050   2.338   1.262   1.785 -0.0025  0.2645 -0.8936
10187TIP3   OH252051   4.001   3.445   2.932 -0.4845 -1.1287  0.4936
10187TIP3    H152052   3.921   3.494   2.951  2.0143  2.6811  2.5829
10187TIP3    H252053   4.018   3.395   3.011 -0.6196 -1.6848  0.1752
10188TIP3   OH252054   7.207   1.379   0.120 -0.1689  0.2600 -0.1282
10188TIP3    H152055   7.210   1.419   0.033  0.4989 -2.0068 -1.2403
10188TIP3    H252056   7.125   1.410   0.158  0.3847  2.7386 -0.7909
10189TIP3   OH252057   0.836   1.018   0.664  0.0188  0.1900  0.0313
10189TIP3    H152058   0.759   0.961   0.656 -1.3715  1.9230  0.4021
10189TIP3    H252059   0.906   0.960   0.691 -0.8088 -1.6997 -1.6355
10190TIP3   OH252060   5.081   1.414  14.040  0.6959  0.4138 -0.1205
10190TIP3    H152061   5.122   1.459  13.967  0.4697  0.1792 -0.3921
10190TIP3    H252062   5.026   1.481  14.082 -0.4726  0.1494 -1.1556
10191TIP3   OH252063   0.129   3.380  12.661  0.1179 -0.4186  0.2455
10191TIP3    H152064   0.044   3.422  12.650 -0.1063 -0.5506  1.3430
10191TIP3    H252065   0.166   3.376  12.572 -1.3372 -1.0484 -0.3719
10192TIP3   OH252066   0.641   5.223  13.064 -0.2095 -0.3649  0.4432
10192TIP3    H152067   0.726   5.189  13.091  0.2020  1.1744  1.1866
10192TIP3    H252068   0.638   5.312  13.098 -2.0140 -0.2779  0.1856
10193TIP3   OH252069   6.649   1.460   2.373 -0.5622 -0.1254 -0.1113
10193TIP3    H152070   6.679   1.380   2.415 -0.2544  0.6259  1.1738
10193TIP3    H252071   6.561   1.473   2.407 -0.2932  0.5099  0.3873
10194TIP3   OH252072   2.119   2.991  14.838 -0.6871  0.1229 -0.1054
10194TIP3    H152073   2.140   3.084  14.848  0.7071 -0.3063  1.5457
10194TIP3    H252074   2.042   2.978  14.893  0.1433 -0.0049  1.0563
10195TIP3   OH252075   3.311   4.859   9.799  0.2042  0.0272 -0.5791
10195TIP3    H152076   3.333   4.767   9.785  0.5095  0.0133 -0.0277
10195TIP3    H252077   3.237   4.857   9.859  2.1607  0.1870  1.9864
10196TIP3   OH252078   3.416   5.988  12.704 -0.2794  0.4554  0.6564
10196TIP3    H152079   3.445   6.058  12.762  2.1522  0.3365 -0.2875
10196TIP3    H252080   3.479   5.989  12.632 -0.7918 -2.0151  0.0754
10197TIP3   OH252081   4.076   3.246   2.517 -0.4117  0.3041 -0.3486
10197TIP3    H152082   4.052   3.197   2.439 -0.2886  0.6098 -0.5826
10197TIP3    H252083   4.030   3.202   2.589  0.4179 -0.7173 -0.4169
10198TIP3   OH252084   4.095   4.566   4.869 -0.5335  0.3049 -0.3950
10198TIP3    H152085   4.103   4.470   4.868  0.5976  0.3863 -0.9642
10198TIP3    H252086   4.022   4.584   4.809 -0.2015 -0.1682 -0.9604
10199TIP3   OH252087   0.968   4.549  12.773  0.2723  0.7040  0.2950
10199TIP3    H152088   0.946   4.457  12.760 -3.5776  1.1767  2.0914
10199TIP3    H252089   0.997   4.555  12.864  0.8492  1.2207  0.0837
10200TIP3   OH252090   0.984   2.083  13.321 -0.0183 -0.3017  0.2516
10200TIP3    H152091   1.062   2.056  13.273 -1.1464 -0.6056 -1.5062
10200TIP3    H252092   0.913   2.028  13.286 -1.5933  1.9925 -0.4390
10201TIP3   OH252093   1.266   3.679   4.167  0.1604 -0.1299 -0.2419
10201TIP3    H152094   1.269   3.591   4.204 -0.0232 -0.4066 -0.8744
10201TIP3    H252095   1.356   3.711   4.174  0.7813 -1.2718 -2.1208
10202TIP3   OH252096   0.560   5.646   9.981 -0.1378 -0.2617  0.3939
10202TIP3    H152097   0.611   5.570  10.007  0.6445 -0.6047 -1.8955
10202TIP3    H252098   0.624   5.707   9.944 -0.9905  0.7108  0.4599
10203TIP3   OH252099   0.221   3.308  13.430 -0.2475 -0.0264 -0.4945
10203TIP3    H152100   0.222   3.403  13.419 -0.4235  0.1480  0.7741
10203TIP3    H252101   0.253   3.273  13.347  1.7601  1.2118 -0.2986
10204TIP3   OH252102   6.398   1.963   2.857  0.4282  0.4696  0.3508
10204TIP3    H152103   6.383   1.912   2.778 -1.0992  1.7797 -0.2594
10204TIP3    H252104   6.492   1.953   2.874  0.8192  0.2097 -1.6762
10205TIP3   OH252105   1.043   5.782   3.777 -0.2417  0.2089  0.0280
10205TIP3    H152106   1.078   5.793   3.866 -1.1754  0.8670  0.3300
10205TIP3    H252107   1.001   5.865   3.757  1.1514  0.5617 -1.6058
10206TIP3   OH252108   6.548   1.423  10.957 -0.3103  0.1924  0.7206
10206TIP3    H152109   6.567   1.464  10.873  1.7935 -1.9333  0.0389
10206TIP3    H252110   6.633   1.399  10.992 -1.2991 -2.3048  1.6632
10207TIP3   OH252111   6.384   3.538   4.107  0.0003  0.4862 -0.2051
10207TIP3    H152112   6.346   3.607   4.052  0.4004 -0.9869 -2.4585
10207TIP3    H252113   6.457   3.504   4.056 -0.3731 -1.8338  0.6805
10208TIP3   OH252114   2.773   5.671   4.880 -0.5891 -0.2810  0.0471
10208TIP3    H152115   2.794   5.644   4.969 -1.2892 -0.1558  0.2603
10208TIP3    H252116   2.838   5.738   4.859 -1.1900  0.6184  0.9558
10209TIP3   OH252117   2.893   0.304  13.637  0.2820  0.1944 -0.1920
10209TIP3    H152118   2.898   0.295  13.542  2.1708  2.9221 -0.4600
10209TIP3    H252119   2.880   0.398  13.652  1.4691  0.0461  2.2644
10210TIP3   OH252120   2.381   5.106   1.658  0.4634  0.1064  0.1459
10210TIP3    H152121   2.296   5.074   1.689  0.8137 -1.5967 -0.5140
10210TIP3    H252122   2.371   5.114   1.564  1.0754 -0.2922  0.0396
10211TIP3   OH252123   2.535   1.778  15.051 -0.0473  0.2584 -0.3823
10211TIP3    H152124   2.531   1.748  15.142  1.1883  0.2790 -0.2938
10211TIP3    H252125   2.561   1.701  15.001 -0.6986  0.2529 -0.7266
10212TIP3   OH252126   5.826   3.619   4.061  0.1035  0.2697  0.0132
10212TIP3    H152127   5.748   3.611   4.006  0.9801 -2.6656 -0.9704
10212TIP3    H252128   5.794   3.654   4.144 -2.3256 -1.0979 -0.2643
10213TIP3   OH252129   4.920   0.632   0.995  0.9445 -0.1606  0.4392
10213TIP3    H152130   4.861   0.639   0.921  0.6045 -1.3459  0.5909
10213TIP3    H252131   4.936   0.723   1.021 -1.2569  0.1822  0.7652
10214TIP3   OH252132   4.361   4.951  12.698  0.2511 -0.0559  0.0078
10214TIP3    H152133   4.292   4.991  12.751  0.7951 -0.2484  0.8834
10214TIP3    H252134   4.439   5.004  12.716  0.1532  0.6971 -1.6459
10215TIP3   OH252135   0.387   3.545  14.173  0.1137  0.8011 -0.0506
10215TIP3    H152136   0.399   3.529  14.079  1.2298  2.0355 -0.1584
10215TIP3    H252137   0.317   3.485  14.199 -0.6700  0.8912 -1.7998
10216TIP3   OH252138   5.528   2.352   3.635 -0.4464  0.1859  0.2852
10216TIP3    H152139   5.456   2.311   3.683  0.0437 -1.1255 -0.0736
10216TIP3    H252140   5.561   2.419   3.695 -0.0028 -1.2559  1.7265
10217TIP3   OH252141   0.126   5.963   2.385  0.1738  0.3384 -1.1121
10217TIP3    H152142   0.117   5.868   2.395  0.3484  0.5325  1.8225
10217TIP3    H252143   0.219   5.977   2.367 -0.2178 -0.1038 -3.8495
10218TIP3   OH252144   0.563   1.757  12.265 -0.4457 -0.5593 -0.4482
10218TIP3    H152145   0.582   1.847  12.294  1.0765 -1.1455  0.4735
10218TIP3    H252146   0.467   1.751  12.269 -0.6056  1.1297 -0.9087
10219TIP3   OH252147   4.764   0.583   3.925 -0.3028  0.3757  0.1769
10219TIP3    H152148   4.773   0.676   3.949  0.5133  0.6993 -1.2585
10219TIP3    H252149   4.732   0.541   4.004  0.8558  1.6211  1.3599
10220TIP3   OH252150   6.595   5.768  10.410 -0.6674 -0.3007 -0.2235
10220TIP3    H152151   6.507   5.805  10.412 -1.3453 -1.7455 -1.2535
10220TIP3    H252152   6.633   5.792  10.495 -1.8195  0.8800 -0.0208
10221TIP3   OH252153   6.747   4.085  13.523 -0.1292 -0.2406 -0.2066
10221TIP3    H152154   6.709   4.120  13.443  0.5197 -0.0228 -0.4262
10221TIP3    H252155   6.690   4.012  13.547 -1.8939  1.3503  0.6390
10222TIP3   OH252156   2.755   6.381   3.662 -0.0922  0.6302 -0.4187
10222TIP3    H152157   2.682   6.405   3.604  0.0835  0.7187 -0.6043
10222TIP3    H252158   2.784   6.464   3.699 -1.2209  0.4142  1.0191
10223TIP3   OH252159   2.975   2.423   1.065  0.2280 -0.0503 -0.1308
10223TIP3    H152160   3.015   2.401   0.981 -1.9368  0.4588 -1.3530
10223TIP3    H252161   2.925   2.345   1.089  0.5454 -0.0579  0.5289
10224TIP3   OH252162   6.278   3.773   9.401 -0.2618 -0.3461 -0.0116
10224TIP3    H152163   6.274   3.803   9.492 -0.1247  0.5596 -0.2962
10224TIP3    H252164   6.367   3.742   9.390 -0.2662 -0.4164  0.1478
10225TIP3   OH252165   5.108   4.273  13.940  0.4006 -0.6084 -0.2491
10225TIP3    H152166   5.160   4.235  14.011  0.1821  2.4363  1.7296
10225TIP3    H252167   5.166   4.336  13.898 -0.3828 -0.2563 -0.8401
10226TIP3   OH252168   4.633   0.893   1.453  0.6504 -0.6815 -0.1273
10226TIP3    H152169   4.649   0.831   1.524  0.4125 -1.1899 -0.5029
10226TIP3    H252170   4.537   0.897   1.446  0.6666 -1.4034 -1.0535
10227TIP3   OH252171   1.763   3.194   3.756 -0.0775 -0.0227  0.0324
10227TIP3    H152172   1.769   3.195   3.661 -1.5499 -1.7391 -0.1221
10227TIP3    H252173   1.756   3.287   3.781  0.2455  0.4362 -1.5115
10228TIP3   OH252174   6.412   0.649  13.814 -0.8651  0.4503  0.0192
10228TIP3    H152175   6.469   0.685  13.746 -0.2235  0.2016  0.4053
10228TIP3    H252176   6.336   0.707  13.816 -0.1288  1.4321  0.2167
10229TIP3   OH252177   3.889   6.121   1.647 -0.1028  0.3839  0.0193
10229TIP3    H152178   3.978   6.123   1.682 -0.8919 -1.2399  2.3161
10229TIP3    H252179   3.871   6.212   1.625  0.8939  1.4207  2.9428
10230TIP3   OH252180   3.610   3.085   1.406 -0.1841 -0.2935 -0.3054
10230TIP3    H152181   3.624   3.179   1.397 -0.3672 -0.3309 -1.0428
10230TIP3    H252182   3.657   3.061   1.486 -1.9243  0.7939  1.0966
10231TIP3   OH252183   3.455   2.077   0.220  0.1147 -0.3269  0.7132
10231TIP3    H152184   3.530   2.104   0.273  0.0622  1.5070 -0.0767
10231TIP3    H252185   3.405   2.157   0.206 -1.5262 -1.3543  0.4635
10232TIP3   OH252186   4.259   3.356  12.972  0.4698  0.2697  0.2336
10232TIP3    H152187   4.223   3.357  13.060  1.9141  1.2953  0.8465
10232TIP3    H252188   4.185   3.379  12.916  0.1863  2.7576  1.4916
10233TIP3   OH252189   2.976   6.688   1.888  0.1760 -0.6321  0.0428
10233TIP3    H152190   2.971   6.675   1.983 -0.8328  0.5445  0.1756
10233TIP3    H252191   2.889   6.668   1.856 -0.3149  1.6277 -0.2327
10234TIP3   OH252192   5.699   0.064   1.338 -0.5162  0.3810 -0.4579
10234TIP3    H152193   5.691  -0.007   1.275 -1.5160  0.1351 -0.0672
10234TIP3    H252194   5.622   0.119   1.323 -0.3725  0.7321  0.0460
10235TIP3   OH252195   5.043   0.483   5.258 -0.2034  0.6780  0.5332
10235TIP3    H152196   5.024   0.422   5.187 -0.2000  0.1160  1.0103
10235TIP3    H252197   5.004   0.566   5.230 -0.8153  0.2769  0.2018
10236TIP3   OH252198   2.753   3.329  15.128 -0.9321 -0.0206  0.6193
10236TIP3    H152199   2.832   3.277  15.111 -1.3489  0.1498 -2.3666
10236TIP3    H252200   2.786   3.418  15.139 -0.5110 -0.3536  2.3293
10237TIP3   OH252201   1.649   0.854  11.914 -0.8679 -0.2870  0.2612
10237TIP3    H152202   1.664   0.771  11.869 -0.9976 -0.8366  1.1994
10237TIP3    H252203   1.590   0.831  11.986  0.8853  0.1541  1.9298
10238TIP3   OH252204   2.554   1.302   2.974 -0.4761 -0.2966 -0.3986
10238TIP3    H152205   2.587   1.371   3.031  1.9735 -1.1588 -0.6463
10238TIP3    H252206   2.519   1.348   2.898  0.3360  0.7162 -0.1852
10239TIP3   OH252207   3.762   5.783   4.476 -0.1795 -0.2270 -0.1982
10239TIP3    H152208   3.820   5.832   4.534 -0.6230 -0.3084  0.3177
10239TIP3    H252209   3.675   5.792   4.515 -0.2097 -1.7739  0.1446
10240TIP3   OH252210   1.496   6.764   2.062  0.1398 -0.8370  0.4462
10240TIP3    H152211   1.569   6.762   2.124  0.0951  0.6513  0.5803
10240TIP3    H252212   1.537   6.777   1.976  0.0256  1.5075  0.6751
10241TIP3   OH252213   1.270   4.052   4.405  0.4852  0.0982 -0.1244
10241TIP3    H152214   1.276   3.957   4.417 -0.4449 -0.3658 -2.7159
10241TIP3    H252215   1.291   4.066   4.313 -1.0639  2.2138 -0.2385
10242TIP3   OH252216   4.006   2.072   9.702  0.1266  0.3474 -0.2634
10242TIP3    H152217   4.021   2.143   9.765 -0.5175 -0.2661  0.6052
10242TIP3    H252218   4.049   1.996   9.741 -1.1553 -0.2876 -0.0460
10243TIP3   OH252219   2.244   5.318  15.327  0.0051 -0.3412 -0.3924
10243TIP3    H152220   2.304   5.248  15.351  1.0582  0.5884 -0.1920
10243TIP3    H252221   2.166   5.274  15.295  0.6459 -1.5895 -0.2844
10244TIP3   OH252222   6.452   5.932   1.775 -0.2811 -0.6073 -0.2267
10244TIP3    H152223   6.446   5.838   1.792 -0.1053 -0.5315  0.2856
10244TIP3    H252224   6.385   5.972   1.831 -0.4652 -0.4424 -0.5628
10245TIP3   OH252225   3.018   0.022   1.948 -0.0556  0.2971 -0.1886
10245TIP3    H152226   2.938  -0.027   1.967  0.1370  0.3181  0.7239
10245TIP3    H252227   3.019   0.029   1.853 -1.2595  0.4989 -0.2092
10246TIP3   OH252228   3.089   4.476  12.734 -0.3258  0.0344  0.7684
10246TIP3    H152229   3.144   4.408  12.696 -1.2203 -1.1575  1.5481
10246TIP3    H252230   3.119   4.483  12.825 -0.5791  0.3292  0.8319
10247TIP3   OH252231   5.268   4.649  14.708 -0.4315 -0.1806 -0.5447
10247TIP3    H152232   5.320   4.682  14.635 -0.7165  0.6945 -0.3566
10247TIP3    H252233   5.177   4.654  14.678 -0.4871 -0.7184 -0.4817
10248TIP3   OH252234   7.018   0.866  14.078  0.2230  0.0518  0.3863
10248TIP3    H152235   7.106   0.871  14.042  0.6329 -2.3832  0.9061
10248TIP3    H252236   7.025   0.903  14.166  1.4000 -2.4371  1.4310
10249TIP3   OH252237   0.923   1.094   0.117 -0.1483  0.8529 -0.1736
10249TIP3    H152238   0.899   1.181   0.148 -1.5735  0.4263 -0.0246
10249TIP3    H252239   0.876   1.034   0.174 -1.7351  0.0366 -2.1901
10250TIP3   OH252240   3.048   4.325   0.445 -0.1310  0.3675  0.3987
10250TIP3    H152241   3.022   4.417   0.438  0.1505  0.5100  1.0780
10250TIP3    H252242   3.143   4.326   0.427  0.2397  0.4886  2.2040
10251TIP3   OH252243   1.509   0.742   3.897 -0.0910 -0.1036 -0.7183
10251TIP3    H152244   1.556   0.709   3.973  0.3806 -1.5044 -1.5825
10251TIP3    H252245   1.514   0.838   3.905 -0.6655 -0.1965  1.3562
10252TIP3   OH252246   3.599   1.333  11.636  0.0767 -0.8415  0.4185
10252TIP3    H152247   3.655   1.387  11.581 -1.0510  0.4608  0.4957
10252TIP3    H252248   3.558   1.271  11.576  0.3624 -0.7383  0.1136
10253TIP3   OH252249   0.110   4.051  11.282  0.1055  0.1225 -0.4143
10253TIP3    H152250   0.085   3.996  11.356 -1.2725  0.3937 -0.6445
10253TIP3    H252251   0.120   4.138  11.319  1.4532 -0.1044 -0.2011
10254TIP3   OH252252   1.512   4.030   3.249  0.3760  0.0345  0.3361
10254TIP3    H152253   1.453   3.992   3.184  0.4942 -0.3220  0.4325
10254TIP3    H252254   1.456   4.043   3.326  0.6248 -1.1906  0.7427
10255TIP3   OH252255   6.721   5.948   0.492  0.2539  0.1735  0.3590
10255TIP3    H152256   6.686   6.037   0.496 -0.2180 -0.0206  0.5559
10255TIP3    H252257   6.812   5.957   0.521  0.6257  0.8078 -0.9287
10256TIP3   OH252258   6.833   2.943   2.224 -0.0981  0.4435  0.6472
10256TIP3    H152259   6.752   2.908   2.187  1.2721 -1.9959 -0.2614
10256TIP3    H252260   6.892   2.868   2.226  1.8434  1.9344  2.1847
10257TIP3   OH252261   6.339   0.230   2.573  0.0063  0.1332 -0.2209
10257TIP3    H152262   6.422   0.225   2.525  0.3779  2.7521  0.0268
10257TIP3    H252263   6.362   0.201   2.662  0.4562  0.0548 -0.3594
10258TIP3   OH252264   2.889   4.935   3.202 -0.0471  0.3467  0.6482
10258TIP3    H152265   2.844   4.870   3.148  2.0489 -0.9744  0.3619
10258TIP3    H252266   2.982   4.923   3.182  0.8415  0.0025  4.2365
10259TIP3   OH252267   0.502   5.649  14.357 -0.0148 -0.2499 -0.0400
10259TIP3    H152268   0.597   5.642  14.369  0.1061  2.3414  1.0946
10259TIP3    H252269   0.492   5.681  14.267  0.4921  2.8162  0.8698
10260TIP3   OH252270   0.803   4.158   3.549 -0.2225 -0.2389 -0.3774
10260TIP3    H152271   0.796   4.176   3.642  0.1414 -2.7792  0.2129
10260TIP3    H252272   0.881   4.103   3.541  0.2344  0.6032 -2.3188
10261TIP3   OH252273   4.161   7.128   9.634  0.6697  0.1421 -0.9714
10261TIP3    H152274   4.077   7.119   9.679  0.0279  1.2430 -1.8847
10261TIP3    H252275   4.201   7.042   9.640 -1.8299 -1.3119 -3.0248
10262TIP3   OH252276   4.422   7.185   1.016  0.0054 -0.0411 -0.0804
10262TIP3    H152277   4.403   7.275   1.043  1.1418  0.4920 -0.9610
10262TIP3    H252278   4.339   7.140   1.025 -0.3200  0.7809  1.5394
10263TIP3   OH252279   2.054   6.095  14.883  0.2066  0.1545 -0.3030
10263TIP3    H152280   2.027   6.052  14.802 -1.4423 -1.5305  1.0373
10263TIP3    H252281   2.147   6.115  14.870  0.1811 -0.7812 -2.2852
10264TIP3   OH252282   6.171   1.765   1.154 -0.1791 -0.2662 -0.1987
10264TIP3    H152283   6.238   1.834   1.152  0.1495 -0.5726  0.1339
10264TIP3    H252284   6.179   1.721   1.070  0.1006 -0.3607 -0.1234
10265TIP3   OH252285   2.498   0.263   2.652  0.3127 -0.2263  0.2740
10265TIP3    H152286   2.463   0.181   2.686 -3.1111  0.2182 -1.7381
10265TIP3    H252287   2.512   0.317   2.730 -2.1906 -1.0505  1.3940
10266TIP3   OH252288   1.506   1.308   2.817  0.5965 -0.1027  0.3197
10266TIP3    H152289   1.544   1.224   2.790 -0.6221 -0.2521 -1.0364
10266TIP3    H252290   1.511   1.363   2.738 -0.5526  0.3890  0.5710
10267TIP3   OH252291   5.734   6.944   1.416 -0.7070  0.6798  0.1792
10267TIP3    H152292   5.687   7.002   1.356 -0.8995  0.7236  0.3718
10267TIP3    H252293   5.821   6.984   1.424  0.1091 -0.5089 -1.8136
10268TIP3   OH252294   4.496   1.197  12.642 -0.3895  0.0146 -0.1110
10268TIP3    H152295   4.485   1.168  12.732 -0.8094 -0.2780 -0.2561
10268TIP3    H252296   4.496   1.117  12.590 -2.8750  0.2795 -0.6523
10269TIP3   OH252297   2.131   0.711   0.720 -0.4547 -0.5601 -0.0303
10269TIP3    H152298   2.181   0.648   0.667 -0.2776  0.2201 -0.8204
10269TIP3    H252299   2.047   0.669   0.735 -0.1748 -1.1752 -0.1613
10270TIP3   OH252300   5.043   2.657   3.535 -0.4266 -0.6983 -0.0928
10270TIP3    H152301   5.046   2.562   3.532  1.4084 -0.6786  0.0026
10270TIP3    H252302   4.993   2.683   3.458 -2.4387 -1.7519  0.7806
10271TIP3   OH252303   7.039   0.212  15.053 -0.1432 -1.1340  0.1109
10271TIP3    H152304   6.964   0.269  15.067 -0.2135 -1.0592 -0.5413
10271TIP3    H252305   7.114   0.263  15.085 -0.2931 -0.9630  0.1904
10272TIP3   OH252306   1.487   4.531   3.120 -0.3516 -0.4395 -0.0427
10272TIP3    H152307   1.412   4.487   3.160  0.3814 -0.8565  0.9181
10272TIP3    H252308   1.542   4.460   3.087  0.3423 -0.2161  0.6020
10273TIP3   OH252309   6.450   6.793  15.315  0.0409  0.1935  0.6111
10273TIP3    H152310   6.492   6.712  15.288  0.1921  0.6749 -0.6633
10273TIP3    H252311   6.511   6.862  15.288 -0.1183  0.7433  1.6089
10274TIP3   OH252312   3.391   4.078  14.846  0.3042  0.4373  0.0300
10274TIP3    H152313   3.439   4.048  14.922  2.6160 -0.6286 -1.7302
10274TIP3    H252314   3.307   4.032  14.850  1.7429 -2.3438  0.1289
10275TIP3   OH252315   6.655   3.501  13.369 -0.3714  0.3636  0.1277
10275TIP3    H152316   6.712   3.575  13.347 -0.5152  0.2192 -0.7592
10275TIP3    H252317   6.566   3.535  13.356 -0.5517  0.8534  2.3272
10276TIP3   OH252318   4.472   4.374   4.948 -0.3026  0.1534 -0.7367
10276TIP3    H152319   4.555   4.370   4.900 -0.0024  0.3443 -0.2332
10276TIP3    H252320   4.466   4.464   4.979 -0.4336 -0.0017 -0.2986
10277TIP3   OH252321   4.010   0.139  11.772 -0.6820  1.0328  0.1537
10277TIP3    H152322   4.000   0.114  11.864 -2.0235  0.1479 -0.2100
10277TIP3    H252323   3.955   0.078  11.724  2.2691 -0.4868 -1.5761
10278TIP3   OH252324   0.644   0.627   0.446 -0.2552 -0.2661  0.8010
10278TIP3    H152325   0.737   0.607   0.437 -0.3372 -0.5791  0.6334
10278TIP3    H252326   0.641   0.703   0.504  0.0556 -0.7814  1.4996
10279TIP3   OH252327   3.256   1.420   2.016 -0.2612 -0.0052 -0.6037
10279TIP3    H152328   3.206   1.484   2.066 -2.0195 -1.5533 -0.2524
10279TIP3    H252329   3.246   1.338   2.066  2.5228 -0.4582 -0.6222
10280TIP3   OH252330   5.787   2.978  14.478 -0.3144  0.1522  0.1847
10280TIP3    H152331   5.846   3.007  14.408 -1.2920  3.3049  0.5266
10280TIP3    H252332   5.706   2.953  14.433 -0.2534  0.2294  0.0324
10281TIP3   OH252333   6.043   4.712   2.195  0.0233 -0.4706 -0.0271
10281TIP3    H152334   6.021   4.724   2.288 -0.2472  0.6028 -0.2099
10281TIP3    H252335   6.139   4.714   2.193  0.0406 -0.9481  0.2824
10282TIP3   OH252336   1.993   1.621  12.994 -0.5954  1.1666 -0.3099
10282TIP3    H152337   1.915   1.666  12.962 -0.4035  0.2971 -2.1317
10282TIP3    H252338   2.062   1.687  12.992 -0.8890  1.4707 -0.4103
10283TIP3   OH252339   0.772   1.116  12.524 -0.8932  0.0127 -0.0237
10283TIP3    H152340   0.857   1.158  12.511 -0.8649  0.4655  1.5006
10283TIP3    H252341   0.719   1.183  12.567 -2.4578  0.2016 -2.0727
10284TIP3   OH252342   3.892   2.885   4.976 -0.2820 -0.0702 -0.4473
10284TIP3    H152343   3.850   2.959   4.932 -2.2291 -1.6843 -1.5043
10284TIP3    H252344   3.857   2.808   4.931  3.2165 -1.6372 -0.7952
10285TIP3   OH252345   4.362   5.421  10.436 -0.0748  0.2402  0.7396
10285TIP3    H152346   4.358   5.380  10.522  1.3248  3.0207  2.2558
10285TIP3    H252347   4.420   5.365  10.385 -0.9657 -1.4771  1.5314
10286TIP3   OH252348   0.960   4.718  14.120 -0.3356 -0.2222  0.1399
10286TIP3    H152349   0.950   4.641  14.176 -0.0259 -0.4576 -0.1239
10286TIP3    H252350   1.041   4.759  14.149 -0.0926 -0.4306 -0.2323
10287TIP3   OH252351   2.100   4.049   1.862 -0.1226  0.2934  0.4223
10287TIP3    H152352   2.123   3.971   1.911 -0.3959  1.4854  2.5363
10287TIP3    H252353   2.172   4.060   1.799 -1.1768 -2.8677 -1.5714
10288TIP3   OH252354   0.456   2.411  12.945 -0.1609 -0.2076  0.2547
10288TIP3    H152355   0.425   2.386  13.032  0.2072 -1.1941  0.1124
10288TIP3    H252356   0.410   2.493  12.926 -1.9179 -1.0965  0.4742
10289TIP3   OH252357   1.385   1.288  12.613 -0.2685  0.1218  0.1441
10289TIP3    H152358   1.365   1.377  12.640 -1.5865  0.7203 -2.4664
10289TIP3    H252359   1.300   1.246  12.603  0.1010 -0.2388 -2.1456
10290TIP3   OH252360   5.463   1.607   2.031 -0.1159 -0.5710 -0.6087
10290TIP3    H152361   5.497   1.677   2.087 -2.1139 -0.5229  0.6514
10290TIP3    H252362   5.522   1.606   1.956  0.6597  1.6901 -0.1290
10291TIP3   OH252363   4.528   1.297  12.108 -0.2590 -0.7665  0.0188
10291TIP3    H152364   4.606   1.263  12.065 -0.2379  1.7389 -2.1910
10291TIP3    H252365   4.459   1.290  12.043 -0.8587  0.8436  0.4301
10292TIP3   OH252366   0.781   7.112  10.209  0.0497 -0.0875  0.8088
10292TIP3    H152367   0.830   7.056  10.150 -0.1519 -0.2880  0.8277
10292TIP3    H252368   0.724   7.051  10.257  0.3559  0.0500  1.3513
10293TIP3   OH252369   2.888   3.702  11.128  0.0222 -0.0442 -0.2042
10293TIP3    H152370   2.948   3.714  11.054  0.6645  0.2749  0.3577
10293TIP3    H252371   2.806   3.741  11.099  0.2173 -0.0745 -0.8140
10294TIP3   OH252372   4.942   1.328  11.261  0.5561  0.3597 -0.3889
10294TIP3    H152373   5.004   1.256  11.248  1.4123  0.8758  0.6361
10294TIP3    H252374   4.987   1.387  11.321 -1.3111  0.2520  1.2257
10295TIP3   OH252375   6.206   5.148   0.657  0.3593 -0.1362 -0.5828
10295TIP3    H152376   6.188   5.242   0.650 -1.0432 -0.0554  2.6791
10295TIP3    H252377   6.300   5.141   0.640  0.3208  1.6701 -1.9156
10296TIP3   OH252378   1.043   6.213  10.275 -0.2933  0.2774 -0.1653
10296TIP3    H152379   1.108   6.282  10.288  0.8819 -0.5624 -1.4034
10296TIP3    H252380   0.999   6.236  10.193 -1.0954  0.4567  0.3005
10297TIP3   OH252381   7.020   1.901   1.857 -0.6214 -0.1148  0.4870
10297TIP3    H152382   6.968   1.897   1.777  0.5771  0.0586 -0.3282
10297TIP3    H252383   6.955   1.900   1.928 -1.7312  0.3145 -0.4868
10298TIP3   OH252384   5.920   6.232  11.641 -0.1181 -0.0583  0.2611
10298TIP3    H152385   6.014   6.220  11.652  0.0444  1.0742  0.2117
10298TIP3    H252386   5.892   6.156  11.589  0.9641  0.1613 -0.6899
10299TIP3   OH252387   4.065   1.184  15.047 -0.2434 -0.5924  0.1930
10299TIP3    H152388   3.991   1.147  15.096 -0.8128  0.0835 -0.1378
10299TIP3    H252389   4.067   1.135  14.965 -2.3235  1.3924 -1.1750
10300TIP3   OH252390   6.994   4.771   1.048 -0.4736 -0.2360 -0.1579
10300TIP3    H152391   6.913   4.735   1.083 -1.2404 -1.0654 -2.6083
10300TIP3    H252392   6.983   4.866   1.054 -2.0928 -0.3087 -1.3470
10301TIP3   OH252393   5.471   3.348   4.016  0.4134 -0.1022  0.3607
10301TIP3    H152394   5.508   3.401   3.945  0.5553  0.0032  0.5110
10301TIP3    H252395   5.407   3.292   3.973  1.6645 -1.2072 -0.1232
10302TIP3   OH252396   6.556   3.591  12.325 -0.2316  0.0344 -0.3933
10302TIP3    H152397   6.505   3.554  12.397 -0.7699  0.4908 -0.5370
10302TIP3    H252398   6.498   3.585  12.249  0.4027 -0.6271 -0.8414
10303TIP3   OH252399   2.664   1.977  13.756  0.0140 -0.5295  0.1320
10303TIP3    H152400   2.671   2.041  13.685 -0.1597 -0.5967  0.0535
10303TIP3    H252401   2.708   2.019  13.830 -1.6657  0.4777  0.6289
10304TIP3   OH252402   0.043   6.047  13.620  0.1767  0.5907 -0.4226
10304TIP3    H152403   0.001   5.961  13.618  0.8177  0.0760  2.9774
10304TIP3    H252404   0.131   6.031  13.585  0.7593 -0.5199  1.4056
10305TIP3   OH252405   3.695   5.189  10.488  0.0300 -0.0933  0.2212
10305TIP3    H152406   3.634   5.206  10.560  0.4823 -1.4948  0.9714
10305TIP3    H252407   3.778   5.225  10.519  0.6319 -2.1862  1.1725
10306TIP3   OH252408   6.481   7.209   9.245  0.3622  0.5442  0.4566
10306TIP3    H152409   6.442   7.125   9.220  1.1209  0.1963  0.4358
10306TIP3    H252410   6.492   7.256   9.163  0.1308  0.5888  0.4478
10307TIP3   OH252411   1.431   3.707  11.291 -0.0446  0.0821 -0.3558
10307TIP3    H152412   1.388   3.779  11.338 -0.2698 -0.1311 -0.2294
10307TIP3    H252413   1.374   3.631  11.306  0.4588 -0.2475 -0.0444
10308TIP3   OH252414   6.464   4.903   0.445 -0.4930 -0.2728 -0.7114
10308TIP3    H152415   6.475   4.866   0.533  0.5067  2.4941  0.4440
10308TIP3    H252416   6.372   4.928   0.441 -0.1244  1.4853  0.4558
10309TIP3   OH252417   3.114   0.827  15.130 -0.4395  0.0207  0.0448
10309TIP3    H152418   3.028   0.801  15.097 -0.6883 -0.2863  0.9233
10309TIP3    H252419   3.112   0.923  15.129 -1.0018  0.0198  0.5775
10310TIP3   OH252420   3.819   4.240  12.803  0.2372 -0.1900  0.0117
10310TIP3    H152421   3.773   4.243  12.887  0.0652  1.6253 -0.1019
10310TIP3    H252422   3.866   4.323  12.798  1.4698 -0.9139 -1.0249
10311TIP3   OH252423   4.910   4.269  15.308  0.6201  0.0078 -0.2040
10311TIP3    H152424   4.985   4.210  15.310  0.4105 -0.2404  0.6210
10311TIP3    H252425   4.925   4.329  15.381  0.3674  0.3951 -0.4684
10312TIP3   OH252426   2.471   0.213   1.801  0.0406 -0.0682  0.4472
10312TIP3    H152427   2.565   0.195   1.795 -0.4105 -3.0477  1.1122
10312TIP3    H252428   2.455   0.231   1.893  0.1263  2.1240  0.1060
10313TIP3   OH252429   0.949   5.122   4.225 -0.0339 -0.2552 -0.0879
10313TIP3    H152430   0.891   5.198   4.229  1.2310  0.8836 -2.1369
10313TIP3    H252431   0.895   5.054   4.183 -1.6932 -1.1443  3.1232
10314TIP3   OH252432   5.015   6.850  11.109  0.2355 -0.6070 -0.4780
10314TIP3    H152433   5.031   6.868  11.202  1.0258 -0.4024 -0.6496
10314TIP3    H252434   5.066   6.917  11.062 -1.7860  0.6243 -1.0518
10315TIP3   OH252435   2.539   4.609  11.357 -0.5579 -0.0975  0.1308
10315TIP3    H152436   2.598   4.602  11.282 -0.1858 -0.0131  0.4130
10315TIP3    H252437   2.555   4.696  11.393  0.2328 -0.6053  1.0895
10316TIP3   OH252438   6.921   5.507   0.543  0.1868 -0.0625  0.6588
10316TIP3    H152439   7.009   5.484   0.574  0.5764  0.3963 -0.0731
10316TIP3    H252440   6.928   5.504   0.447 -0.7798 -0.6977  0.5875
10317TIP3   OH252441   6.184   1.048  13.161 -0.1689  0.3360 -0.1271
10317TIP3    H152442   6.195   1.123  13.102 -0.2479 -0.4433 -1.1660
10317TIP3    H252443   6.126   1.080  13.230 -1.5210  0.7899 -1.4138
10318TIP3   OH252444   5.560   0.399  11.521  0.3185 -0.6320  0.0599
10318TIP3    H152445   5.622   0.328  11.504 -0.0223 -1.1387  0.8506
10318TIP3    H252446   5.601   0.449  11.592 -0.0102 -0.7533  0.3331
10319TIP3   OH252447   5.565   4.223   0.311 -0.1440  0.6419  0.0794
10319TIP3    H152448   5.601   4.303   0.272 -2.0628  1.3320 -0.4111
10319TIP3    H252449   5.539   4.169   0.236 -2.3322  1.2508  0.3470
10320TIP3   OH252450   0.299   2.242  13.701  0.1083 -0.1890 -0.1283
10320TIP3    H152451   0.253   2.181  13.759 -0.3829  0.9117  0.6778
10320TIP3    H252452   0.241   2.252  13.625 -0.9298  1.0309  0.7882
10321TIP3   OH252453   3.777   2.589   1.538  0.1248 -0.3302 -0.3184
10321TIP3    H152454   3.781   2.603   1.633 -0.7758 -0.0448 -0.3133
10321TIP3    H252455   3.850   2.530   1.520 -0.5647 -1.5887  0.7744
10322TIP3   OH252456   3.787   6.820  13.198  0.0897 -0.3306 -0.3295
10322TIP3    H152457   3.854   6.812  13.130  1.3506  1.3520  0.6096
10322TIP3    H252458   3.759   6.912  13.192  1.4252  0.3410  2.4090
10323TIP3   OH252459   5.998   1.126   9.332  0.0387  0.1081  0.4393
10323TIP3    H152460   5.907   1.134   9.361 -0.5218  2.0194 -1.5726
10323TIP3    H252461   6.023   1.214   9.306  3.5475  0.3214  3.6160
10324TIP3   OH252462   0.315   6.383   0.310  0.3777 -0.0772 -0.0970
10324TIP3    H152463   0.311   6.297   0.268  1.6127 -0.0027 -0.4236
10324TIP3    H252464   0.387   6.375   0.373  1.1528  0.9874 -0.8034
10325TIP3   OH252465   6.729   2.980   3.775 -0.0944  0.0366 -0.3076
10325TIP3    H152466   6.712   3.058   3.723  0.2611  0.3046 -0.0295
10325TIP3    H252467   6.749   2.912   3.711 -0.5604  0.1341 -0.5558
10326TIP3   OH252468   0.622   6.805   1.935 -0.0673  0.1991 -0.1256
10326TIP3    H152469   0.646   6.724   1.980 -1.5622  0.6767  1.6563
10326TIP3    H252470   0.693   6.819   1.872 -0.0451 -2.7662 -0.9303
10327TIP3   OH252471   5.091   0.640   5.648  0.1067 -0.1525  0.3188
10327TIP3    H152472   5.065   0.629   5.740 -0.6374  2.0163  0.4283
10327TIP3    H252473   5.110   0.734   5.640  3.8761 -0.8531 -0.8481
10328TIP3   OH252474   2.215   0.679   1.093  0.2669 -0.1881 -0.4023
10328TIP3    H152475   2.250   0.601   1.136  0.1801  0.3088  0.5835
10328TIP3    H252476   2.288   0.713   1.042  0.9769  0.3176  0.9114
10329TIP3   OH252477   5.135   6.325  12.190 -0.0595 -0.1310 -0.0956
10329TIP3    H152478   5.201   6.394  12.196  0.1874 -0.2364 -1.3681
10329TIP3    H252479   5.183   6.248  12.159 -0.6962 -0.3219 -0.6252
10330TIP3   OH252480   6.227   2.732  14.116  0.0754 -0.3449  0.0167
10330TIP3    H152481   6.291   2.674  14.074  0.3526  0.0308 -0.0843
10330TIP3    H252482   6.154   2.735  14.055  0.7280  0.6873 -0.7509
10331TIP3   OH252483   3.064   0.656  10.973 -0.3552 -0.7470 -0.1345
10331TIP3    H152484   3.015   0.667  11.054 -2.6514 -1.3109 -1.3633
10331TIP3    H252485   3.033   0.728  10.917  1.8498  0.1828 -0.2810
10332TIP3   OH252486   6.247   2.354  10.395  0.0629 -0.0928  0.9344
10332TIP3    H152487   6.190   2.397  10.458 -0.9228 -0.9076  0.6269
10332TIP3    H252488   6.188   2.319  10.328  1.0171  0.1105 -0.0601
10333TIP3   OH252489   5.226   4.389   2.072  0.1963  0.5262  0.7380
10333TIP3    H152490   5.166   4.462   2.083  0.6004  1.0333 -0.1940
10333TIP3    H252491   5.295   4.424   2.015  1.3025 -0.0721  1.6609
10334TIP3   OH252492   2.631   0.020  12.914 -0.2766 -0.0109  0.7182
10334TIP3    H152493   2.633  -0.061  12.862  0.5070  1.3219 -1.4702
10334TIP3    H252494   2.571   0.077  12.867  1.3074  1.6497  0.5975
10335TIP3   OH252495   4.404   5.431   2.957  0.2597  0.2457  0.4001
10335TIP3    H152496   4.375   5.460   2.871  0.6125 -1.8585 -0.4892
10335TIP3    H252497   4.479   5.374   2.940  0.1824 -0.4283  2.0677
10336TIP3   OH252498   3.467   3.424  15.184 -0.5442 -0.3487 -0.3955
10336TIP3    H152499   3.482   3.378  15.102 -0.6965 -2.0864  0.4864
10336TIP3    H252500   3.447   3.354  15.247  0.4793  0.8269  1.3213
10337TIP3   OH252501   5.024   0.252   2.613  0.2932 -0.5112 -0.0052
10337TIP3    H152502   5.083   0.267   2.539  0.6202  1.3041  0.5882
10337TIP3    H252503   4.956   0.318   2.603 -1.0283 -1.8043 -0.0034
10338TIP3   OH252504   1.879   2.205  14.941  0.7170  0.3301  0.5637
10338TIP3    H152505   1.823   2.282  14.950  1.2322  0.6270  1.3352
10338TIP3    H252506   1.958   2.238  14.898 -0.3673 -0.4355 -2.2790
10339TIP3   OH252507   6.189   3.637   5.016  0.7249 -0.2252 -0.0468
10339TIP3    H152508   6.117   3.652   5.076  0.1469 -0.5815 -0.6371
10339TIP3    H252509   6.156   3.668   4.931  0.9804 -1.1109 -0.4726
10340TIP3   OH252510   3.108   4.632   3.468 -0.6745 -0.8276  0.0457
10340TIP3    H152511   3.026   4.626   3.419 -0.3927 -0.8568 -0.4251
10340TIP3    H252512   3.168   4.574   3.421  0.6557  1.7692 -1.7051
10341TIP3   OH252513   6.568   6.912  13.193 -0.5344  0.2782 -1.0466
10341TIP3    H152514   6.515   6.914  13.273 -1.1151 -1.1657 -1.3596
10341TIP3    H252515   6.530   6.980  13.138 -1.3611  0.0026 -0.8302
10342TIP3   OH252516   3.189   4.107  13.781  0.3319 -0.1616  0.2069
10342TIP3    H152517   3.168   4.143  13.867 -0.6399 -0.9309  0.3109
10342TIP3    H252518   3.127   4.035  13.769 -0.4531  0.7654 -1.7221
10343TIP3   OH252519   3.557   3.661  13.232 -0.4610 -0.0850 -0.5138
10343TIP3    H152520   3.523   3.683  13.319  1.1207  0.5016 -0.0168
10343TIP3    H252521   3.478   3.645  13.179 -1.5079  1.0027  0.6436
10344TIP3   OH252522   1.991   6.756   1.644 -0.3670 -0.9761 -0.2296
10344TIP3    H152523   2.064   6.694   1.650 -0.4717 -0.9968  1.1235
10344TIP3    H252524   1.912   6.702   1.646 -0.5892 -0.8124  3.9824
10345TIP3   OH252525   7.177   6.124   2.492  0.1763  0.4285  0.4666
10345TIP3    H152526   7.228   6.049   2.460 -1.4676 -1.1782  1.4087
10345TIP3    H252527   7.194   6.126   2.586 -0.8315  0.3968  0.6538
10346TIP3   OH252528   5.279   3.161   4.830  0.1282  0.7103 -0.0805
10346TIP3    H152529   5.262   3.200   4.745  1.2523  0.4785 -0.4238
10346TIP3    H252530   5.194   3.127   4.858 -0.0092 -0.4195 -1.7359
10347TIP3   OH252531   4.556   5.409   4.807  0.2876  0.6505 -0.6141
10347TIP3    H152532   4.500   5.485   4.827  1.3798  0.8356  2.1011
10347TIP3    H252533   4.640   5.447   4.784  0.5199  0.3016 -0.3538
10348TIP3   OH252534   5.866   3.333  11.599  0.1729 -0.8772  0.2890
10348TIP3    H152535   5.914   3.322  11.681  0.8859 -2.4232 -0.3030
10348TIP3    H252536   5.933   3.337  11.531 -0.4462 -2.9312 -0.5354
10349TIP3   OH252537   3.471   7.122   5.366  0.2045 -0.3278 -0.1278
10349TIP3    H152538   3.512   7.117   5.452  1.3685 -0.1487 -0.6427
10349TIP3    H252539   3.391   7.172   5.380  1.4628  1.6580  0.4977
10350TIP3   OH252540   3.049   5.204  11.930  0.1946  0.3787  0.3931
10350TIP3    H152541   3.067   5.163  12.015 -0.6496 -0.8891 -0.0116
10350TIP3    H252542   3.019   5.132  11.874 -3.2440  1.7807  0.1932
10351TIP3   OH252543   1.688   3.050  12.954 -0.2955  0.0796  0.4522
10351TIP3    H152544   1.698   3.022  13.045 -0.6446  0.4035  0.5921
10351TIP3    H252545   1.770   3.094  12.933 -0.4628  0.5648  0.8121
10352TIP3   OH252546   1.056   0.943  11.851  0.1826 -0.2177 -0.0886
10352TIP3    H152547   0.972   0.949  11.804  0.8107 -0.5444 -1.3051
10352TIP3    H252548   1.117   0.906  11.786  0.8842 -1.5521  1.2747
10353TIP3   OH252549   1.193   4.972   3.748 -0.5491 -0.0257 -0.3111
10353TIP3    H152550   1.273   4.976   3.801  0.5523 -1.8455 -1.7091
10353TIP3    H252551   1.213   5.026   3.671 -1.4176  1.0404  0.1813
10354TIP3   OH252552   3.813   3.551  13.587 -0.0290 -0.0346  0.1094
10354TIP3    H152553   3.722   3.554  13.617 -0.2082  0.2021 -0.4620
10354TIP3    H252554   3.809   3.512  13.500  0.4462 -0.2517  0.1788
10355TIP3   OH252555   6.375   3.925  14.039 -0.2513 -0.3573  0.1621
10355TIP3    H152556   6.465   3.897  14.058 -0.3662 -1.4806 -0.8165
10355TIP3    H252557   6.327   3.908  14.120  0.3976  0.2373  0.6910
10356TIP3   OH252558   0.370   1.455   2.876 -0.5415  0.3708 -0.0061
10356TIP3    H152559   0.384   1.467   2.970 -1.8432 -0.7252  0.3602
10356TIP3    H252560   0.278   1.429   2.869 -1.2065  2.8592 -1.8149
10357TIP3   OH252561   5.528   6.018   2.073 -0.5031 -0.3854 -0.0303
10357TIP3    H152562   5.468   6.052   2.140 -0.9985 -1.5212  0.1245
10357TIP3    H252563   5.478   5.950   2.028  0.9205 -1.9900  0.6694
10358TIP3   OH252564   7.172   3.653  14.531 -0.0699 -0.4611  0.1417
10358TIP3    H152565   7.193   3.600  14.454  0.8422 -0.3141  0.2840
10358TIP3    H252566   7.108   3.717  14.498  1.4964  0.6397 -0.9269
10359TIP3   OH252567   4.419   6.827   1.218 -0.0026  0.5778  0.4419
10359TIP3    H152568   4.384   6.739   1.210  0.3635  0.4928 -0.3712
10359TIP3    H252569   4.512   6.814   1.239  0.1303  0.7492 -0.0054
10360TIP3   OH252570   5.484   5.526   1.217  0.6147  0.4774  0.0782
10360TIP3    H152571   5.468   5.620   1.232  0.7132  0.3139  1.3330
10360TIP3    H252572   5.486   5.517   1.122  0.2101  1.6860 -0.0659
10361TIP3   OH252573   5.885   1.430   5.348  0.2992  0.7201  0.6311
10361TIP3    H152574   5.906   1.482   5.425  0.6561  1.5591 -0.0141
10361TIP3    H252575   5.969   1.416   5.304  0.1624 -0.1533  0.6432
10362TIP3   OH252576   0.413   1.541  14.899  0.1921  0.2702 -0.2663
10362TIP3    H152577   0.399   1.474  14.966  1.0630 -0.0811 -0.4265
10362TIP3    H252578   0.392   1.498  14.816  0.0184  0.4268 -0.3050
10363TIP3   OH252579   4.931   2.805   1.873 -0.2671  0.4873 -0.0516
10363TIP3    H152580   4.912   2.722   1.915  0.3811  0.2303 -0.2501
10363TIP3    H252581   5.020   2.795   1.839 -0.9153  0.4966 -1.9183
10364TIP3   OH252582   3.087   0.245  10.406 -0.3261  0.2142 -0.0568
10364TIP3    H152583   3.105   0.266  10.498 -1.2433  1.8775 -0.2298
10364TIP3    H252584   3.117   0.322  10.358  0.6068 -0.8366 -1.2359
10365TIP3   OH252585   2.363   2.981   4.679 -0.0155 -0.2224 -0.0808
10365TIP3    H152586   2.349   3.072   4.706  1.5605  0.0760 -0.2018
10365TIP3    H252587   2.275   2.949   4.657 -0.6685  1.0799  0.5196
10366TIP3   OH252588   1.546   2.052   9.673  0.1789  0.3855  0.1323
10366TIP3    H152589   1.580   1.971   9.711  1.2148  1.2374  1.1151
10366TIP3    H252590   1.451   2.040   9.671  0.4391 -2.0921 -2.7525
10367TIP3   OH252591   1.676   2.210  14.318  0.7430  0.6239 -0.3732
10367TIP3    H152592   1.739   2.228  14.388 -0.9088  0.4037  1.2565
10367TIP3    H252593   1.688   2.281  14.256  2.0207  1.0364  0.2960
10368TIP3   OH252594   1.695   7.219   0.459 -0.1102 -0.3353 -0.2649
10368TIP3    H152595   1.750   7.192   0.533  0.7021 -0.2352 -0.8089
10368TIP3    H252596   1.606   7.215   0.492  0.3058  1.0226  1.1577
10369TIP3   OH252597   5.292   5.608   2.700 -0.0103  0.2219 -0.3067
10369TIP3    H152598   5.344   5.545   2.650 -1.2382 -0.3117 -0.9689
10369TIP3    H252599   5.285   5.684   2.642 -0.3173  0.1221 -0.4040
10370TIP3   OH252600   0.388   2.225   5.725 -0.0639 -0.5251 -0.4499
10370TIP3    H152601   0.419   2.163   5.659  0.2997 -2.4466  1.4410
10370TIP3    H252602   0.457   2.292   5.728 -0.6044  0.2498 -2.7285
10371TIP3   OH252603   0.351   0.194   0.526 -0.3787 -0.1311 -0.1735
10371TIP3    H152604   0.402   0.262   0.571 -1.3106  0.1851  0.4268
10371TIP3    H252605   0.384   0.112   0.561 -0.5626  0.0858  0.5076
10372TIP3   OH252606   4.060   1.998   3.503  0.0331 -0.2035  0.0062
10372TIP3    H152607   4.093   1.908   3.497 -1.4393 -0.9141  1.6257
10372TIP3    H252608   3.965   1.989   3.493 -0.5260  0.7094  3.3099
10373TIP3   OH252609   0.186   1.877  14.398  0.2533  0.3634  0.4150
10373TIP3    H152610   0.097   1.843  14.410 -0.2059  0.9728 -1.0617
10373TIP3    H252611   0.243   1.812  14.440 -0.8092 -0.6247  0.3655
10374TIP3   OH252612   3.133   1.220   3.478  0.1603 -0.3996 -0.4997
10374TIP3    H152613   3.058   1.192   3.530  0.6438 -0.2336  0.3037
10374TIP3    H252614   3.188   1.142   3.472  0.1222 -0.4086 -0.7359
10375TIP3   OH252615   4.420   7.163   0.379  0.0602 -0.2384 -0.0444
10375TIP3    H152616   4.474   7.157   0.457  1.1311  0.8377 -0.6655
10375TIP3    H252617   4.345   7.217   0.405 -0.0620 -0.6541  0.4777
10376TIP3   OH252618   0.877   6.591  12.530 -0.3782 -0.4030  0.2553
10376TIP3    H152619   0.787   6.591  12.561 -0.4893  1.9188  0.1412
10376TIP3    H252620   0.930   6.595  12.610 -0.4958  0.5986  0.3025
10377TIP3   OH252621   6.093   2.350   3.196 -0.5643  0.8389 -0.9095
10377TIP3    H152622   6.137   2.265   3.207 -0.5546  0.6489 -2.2455
10377TIP3    H252623   6.133   2.406   3.262 -0.5460 -0.1819 -0.0137
10378TIP3   OH252624   0.538   2.682  14.092 -0.2146 -0.6855 -0.2955
10378TIP3    H152625   0.582   2.716  14.169 -0.4945  0.7131 -0.7270
10378TIP3    H252626   0.453   2.651  14.124 -1.3453  2.0781 -0.3339
10379TIP3   OH252627   3.038   1.957   0.628  0.8608  0.3721  0.1245
10379TIP3    H152628   3.101   1.889   0.652  1.2613  0.5373 -0.4486
10379TIP3    H252629   3.079   2.004   0.555 -0.1504  0.1483 -0.6066
10380TIP3   OH252630   2.976   1.187   1.100  0.0920 -0.2908  0.0341
10380TIP3    H152631   2.893   1.220   1.132 -0.8443 -1.0466 -1.4983
10380TIP3    H252632   3.042   1.230   1.155 -1.3241 -0.4741  1.9605
10381TIP3   OH252633   4.898   3.748   4.552 -0.1998  0.3532 -0.1821
10381TIP3    H152634   4.908   3.665   4.506 -0.1923  0.0026  0.4428
10381TIP3    H252635   4.987   3.776   4.571 -0.0795  1.6192 -2.3125
10382TIP3   OH252636   3.646   5.471   5.362  0.2548 -0.5691 -0.0553
10382TIP3    H152637   3.572   5.461   5.422  0.4064  0.1159  0.2538
10382TIP3    H252638   3.607   5.460   5.275 -0.2726  0.0372  0.0919
10383TIP3   OH252639   0.153   3.614  14.893  0.2329 -0.3126  0.0250
10383TIP3    H152640   0.107   3.530  14.899 -4.6325  1.9645  0.0868
10383TIP3    H252641   0.137   3.644  14.803 -0.1741  1.4730  0.6498
10384TIP3   OH252642   5.113   0.722  12.849  0.0268  0.4951 -0.0264
10384TIP3    H152643   5.047   0.652  12.847  0.1996  0.3291  0.1178
10384TIP3    H252644   5.157   0.712  12.933 -1.8128  2.5077  1.3119
10385TIP3   OH252645   0.492   5.887  12.783  0.0954 -0.1646  0.2063
10385TIP3    H152646   0.503   5.929  12.698 -0.3101  0.4200  0.4337
10385TIP3    H252647   0.543   5.806  12.777 -0.2571 -0.3353 -0.7362
10386TIP3   OH252648   2.383   0.022   2.644 -0.0966  0.1722  0.0271
10386TIP3    H152649   2.341  -0.013   2.565 -0.5829  0.1120  0.3066
10386TIP3    H252650   2.364  -0.043   2.712  1.3980 -0.4073 -0.0813
10387TIP3   OH252651   3.550   5.140   3.592 -0.4899  0.2841 -0.4032
10387TIP3    H152652   3.535   5.116   3.501  2.8564  0.9721 -1.2600
10387TIP3    H252653   3.482   5.093   3.641 -0.3973 -2.7330 -2.8919
10388TIP3   OH252654   1.241   0.018   3.240  0.4030 -0.4404 -0.1753
10388TIP3    H152655   1.319  -0.031   3.265  0.8540  0.1921 -0.3458
10388TIP3    H252656   1.183  -0.049   3.202  0.7308 -0.9624  0.2202
10389TIP3   OH252657   6.392   0.092   3.275 -0.2526 -0.2241  0.2071
10389TIP3    H152658   6.485   0.085   3.258 -0.1068  2.7418 -0.7314
10389TIP3    H252659   6.377   0.186   3.289 -3.2003 -0.5263 -0.3255
10390TIP3   OH252660   1.066   1.070   4.703  0.3533 -0.5874 -0.3600
10390TIP3    H152661   1.143   1.013   4.703  2.6550  2.2781 -0.2549
10390TIP3    H252662   1.060   1.101   4.613  0.8982  1.0781  0.1408
10391TIP3   OH252663   3.816   2.952   4.176 -0.1481  0.1207 -0.1023
10391TIP3    H152664   3.861   3.021   4.128  0.3037 -1.0748 -1.4746
10391TIP3    H252665   3.871   2.874   4.164 -0.1498 -0.3232  2.1562
10392TIP3   OH252666   3.121   2.090   1.105  0.2580  0.3456  0.1295
10392TIP3    H152667   3.044   2.097   1.048  1.4594 -0.0612 -1.6394
10392TIP3    H252668   3.099   2.019   1.166  0.0399 -1.3047 -1.7633
10393TIP3   OH252669   2.428   2.871  13.832 -0.9441 -0.2071 -0.6392
10393TIP3    H152670   2.443   2.832  13.919  1.0853  1.6348 -0.0820
10393TIP3    H252671   2.497   2.834  13.777  0.4290  1.7459 -0.3355
10394TIP3   OH252672   5.500   4.475   9.600 -0.0535 -0.2511  0.2704
10394TIP3    H152673   5.462   4.396   9.561  0.0011  0.3436 -1.0645
10394TIP3    H252674   5.450   4.489   9.680 -1.3722 -0.5649 -0.4657
10395TIP3   OH252675   6.614   1.331  14.437 -0.0691  0.2401 -0.0593
10395TIP3    H152676   6.588   1.340  14.529  0.2228  0.6688 -0.0127
10395TIP3    H252677   6.533   1.337  14.388 -0.2955 -0.5965  0.2091
10396TIP3   OH252678   4.062   6.409   1.186  0.2906  0.6710  0.6446
10396TIP3    H152679   4.147   6.389   1.148 -0.2830 -0.1131 -0.3003
10396TIP3    H252680   4.017   6.324   1.188 -0.8650  1.2418  0.0736
10397TIP3   OH252681   5.567   6.460   0.793  0.2259 -0.4243 -0.2437
10397TIP3    H152682   5.554   6.498   0.879  1.8836 -0.4729  0.0561
10397TIP3    H252683   5.563   6.534   0.732  1.9006  0.0495  0.1817
10398TIP3   OH252684   0.345   4.252  13.690 -0.2559 -0.2228  0.7925
10398TIP3    H152685   0.365   4.195  13.765 -0.8976 -1.6159 -0.0458
10398TIP3    H252686   0.249   4.252  13.686 -0.2971  1.6011  1.2557
10399TIP3   OH252687   2.349   1.755   8.924 -0.0233 -0.0938  0.8005
10399TIP3    H152688   2.339   1.661   8.912  0.7273 -0.0006 -0.9004
10399TIP3    H252689   2.394   1.764   9.008 -0.4039 -1.2270  1.1405
10400TIP3   OH252690   1.672   2.915   3.623  0.0129  1.5977 -0.1927
10400TIP3    H152691   1.668   2.952   3.535  0.4421  0.3335 -0.7705
10400TIP3    H252692   1.728   2.838   3.614 -3.1282 -0.9737  0.2798
10401TIP3   OH252693   1.354   2.431  12.485  0.0147 -0.0829  0.1337
10401TIP3    H152694   1.433   2.385  12.514 -0.7552 -1.6954 -0.2033
10401TIP3    H252695   1.377   2.468  12.400 -0.2011 -2.4773 -1.0668
10402TIP3   OH252696   2.855   4.181  10.954 -0.1741 -0.9288 -0.2003
10402TIP3    H152697   2.805   4.220  10.883  0.7683  1.5558  0.4003
10402TIP3    H252698   2.815   4.216  11.034  1.9020  0.4759  0.3113
10403TIP3   OH252699   6.126   2.498   0.237  0.1822  0.9593  0.2876
10403TIP3    H152700   6.149   2.407   0.218  0.1018  1.0406 -0.2039
10403TIP3    H252701   6.199   2.531   0.289  0.2460  0.6378  0.4040
10404TIP3   OH252702   0.817   6.612   5.253  0.0794  0.0792  0.0597
10404TIP3    H152703   0.741   6.669   5.265  2.0151  2.9614 -0.2181
10404TIP3    H252704   0.780   6.526   5.234 -3.0839  1.4363 -0.5821
10405TIP3   OH252705   2.349   5.395   3.277 -0.2380  0.0772 -0.4636
10405TIP3    H152706   2.400   5.317   3.261  0.4907  0.8389 -2.0772
10405TIP3    H252707   2.301   5.377   3.358  1.8439 -1.0215  0.5870
10406TIP3   OH252708   6.591   1.386   4.282  0.4350  0.1829  0.0107
10406TIP3    H152709   6.620   1.350   4.198  1.2419  0.1810  0.2807
10406TIP3    H252710   6.513   1.437   4.260 -0.2301 -1.0294 -0.5011
10407TIP3   OH252711   4.596   2.158   3.385  0.1126 -0.3229 -0.1031
10407TIP3    H152712   4.652   2.193   3.315  1.2825 -1.3078  0.3166
10407TIP3    H252713   4.509   2.192   3.365  0.6397  0.3164 -1.4121
10408TIP3   OH252714   6.741   1.244   2.520  0.1363 -0.2808  0.0188
10408TIP3    H152715   6.799   1.239   2.597  1.2826 -0.4003 -0.8250
10408TIP3    H252716   6.782   1.186   2.456 -0.8970 -0.3059 -0.6397
10409TIP3   OH252717   5.376   5.890   4.859  0.1122 -0.0092 -0.1492
10409TIP3    H152718   5.346   5.876   4.769  0.5217 -0.6967 -0.1885
10409TIP3    H252719   5.411   5.979   4.859  0.5473 -0.1726 -0.7981
10410TIP3   OH252720   6.173   1.323  12.267 -0.1743  0.1634 -0.2869
10410TIP3    H152721   6.148   1.383  12.197 -0.4129 -1.0485 -1.2757
10410TIP3    H252722   6.251   1.363  12.306  1.4249 -0.2791 -2.8127
10411TIP3   OH252723   0.422   3.596   5.581 -0.2122 -0.4445 -0.7953
10411TIP3    H152724   0.343   3.544   5.592 -0.5641  0.6674  3.9859
10411TIP3    H252725   0.492   3.541   5.615 -0.0683  0.8036  1.1028
10412TIP3   OH252726   2.047   3.400   2.406 -0.5411 -0.5842 -0.0950
10412TIP3    H152727   2.019   3.333   2.343  0.1650 -1.1699  0.2018
10412TIP3    H252728   2.141   3.409   2.391 -0.4123 -0.5318  0.6868
10413TIP3   OH252729   4.685   4.682  11.075  0.6183 -0.4271 -0.6237
10413TIP3    H152730   4.738   4.693  11.154  0.6141  2.0106 -0.9020
10413TIP3    H252731   4.747   4.695  11.003 -0.1302  1.5252 -0.9575
10414TIP3   OH252732   2.317   0.434   4.700  0.0189 -0.0434 -0.3043
10414TIP3    H152733   2.362   0.518   4.710  0.3367 -0.1075 -1.0805
10414TIP3    H252734   2.380   0.369   4.731  0.3898 -0.1134 -1.1679
10415TIP3   OH252735   4.505   2.357   9.972  0.1190 -0.2882 -0.2063
10415TIP3    H152736   4.433   2.353  10.034  0.3621 -2.8554 -0.0127
10415TIP3    H252737   4.495   2.280   9.917  1.5510  0.3959 -1.5259
10416TIP3   OH252738   3.618   3.109   3.458 -0.4869  0.8283  0.3270
10416TIP3    H152739   3.628   3.053   3.535 -0.9749 -0.9521 -0.8327
10416TIP3    H252740   3.541   3.074   3.413  0.2908  1.2346 -1.4146
10417TIP3   OH252741   0.866   3.096   0.897 -0.1648  0.2847 -0.3553
10417TIP3    H152742   0.825   3.034   0.836  1.6167  0.4412 -1.8005
10417TIP3    H252743   0.794   3.128   0.951 -1.3407 -2.0338 -0.4529
10418TIP3   OH252744   4.091   2.058  15.075 -0.5636 -0.1573  0.0226
10418TIP3    H152745   4.066   2.032  15.164  1.4340  1.2319  1.0775
10418TIP3    H252746   4.169   2.006  15.057  0.3413  1.1632  0.0148
10419TIP3   OH252747   5.054   6.584  11.482  0.3957 -0.4372 -0.4477
10419TIP3    H152748   5.123   6.616  11.424  0.7786  2.7711  1.5223
10419TIP3    H252749   4.973   6.621  11.447  0.0805 -1.5735 -0.9640
10420TIP3   OH252750   4.763   2.952  12.461  0.1883 -0.0666  0.6523
10420TIP3    H152751   4.726   3.001  12.388 -1.4392  0.3649  1.7120
10420TIP3    H252752   4.716   2.869  12.461 -0.6354  0.3779  1.8579
10421TIP3   OH252753   0.077   2.486   0.152 -0.3423 -0.2445 -1.1119
10421TIP3    H152754   0.170   2.464   0.160 -0.1538  0.6920 -0.5891
10421TIP3    H252755   0.075   2.581   0.146 -1.2773 -0.2424 -0.9857
10422TIP3   OH252756   6.474   3.381   4.352  0.5519  0.0532  0.3096
10422TIP3    H152757   6.457   3.437   4.276  0.2367 -0.7320 -0.2094
10422TIP3    H252758   6.523   3.307   4.317  1.4366  0.2493  1.0877
10423TIP3   OH252759   4.193   0.927   0.898  0.0603 -0.0107 -0.4607
10423TIP3    H152760   4.174   0.999   0.959  1.0973 -0.8755  0.9468
10423TIP3    H252761   4.270   0.884   0.935  0.0992 -1.2141 -1.8464
10424TIP3   OH252762   4.592   0.959  15.087 -0.5575 -0.4323 -0.5364
10424TIP3    H152763   4.550   0.879  15.057 -0.2727 -0.3807 -1.0799
10424TIP3    H252764   4.520   1.021  15.099 -0.9610 -1.1750  1.2959
10425TIP3   OH252765   2.549   0.032  10.491 -0.0990  0.1361 -0.3199
10425TIP3    H152766   2.637  -0.003  10.502  0.1177 -0.0639 -2.3618
10425TIP3    H252767   2.498  -0.040  10.456 -0.2434  1.1087 -2.2596
10426TIP3   OH252768   2.725   2.406   3.343  0.4142  0.1722 -0.3914
10426TIP3    H152769   2.638   2.383   3.310  0.6006  0.3031 -0.9729
10426TIP3    H252770   2.786   2.353   3.291  0.6402 -0.6637  0.6735
10427TIP3   OH252771   5.864   4.358  10.152  0.0237 -0.5088  0.0893
10427TIP3    H152772   5.920   4.423  10.195  0.2807 -0.0572 -0.8940
10427TIP3    H252773   5.923   4.285  10.132  0.4465  0.2172 -1.4946
10428TIP3   OH252774   1.619   6.327   4.948  0.2817 -0.1834  0.3787
10428TIP3    H152775   1.566   6.342   5.027  0.8386  1.5247  0.4785
10428TIP3    H252776   1.584   6.246   4.910 -2.5881  0.9818  0.2776
10429TIP3   OH252777   5.786   6.731   4.600 -0.6863  0.0897  0.3863
10429TIP3    H152778   5.849   6.689   4.542  0.6213  0.3932  1.5215
10429TIP3    H252779   5.707   6.677   4.593 -0.1418 -0.6092 -0.6804
10430TIP3   OH252780   5.132   0.713   0.739  0.2487 -0.1606  0.4420
10430TIP3    H152781   5.068   0.779   0.767  0.8293  0.0149  1.4153
10430TIP3    H252782   5.163   0.673   0.820  1.0139 -0.5860 -0.0385
10431TIP3   OH252783   0.871   4.724  13.677  0.4966 -0.4319  0.1457
10431TIP3    H152784   0.953   4.707  13.631  0.2123  2.0304 -1.4203
10431TIP3    H252785   0.804   4.680  13.625  0.4920  0.0893 -0.2960
10432TIP3   OH252786   5.919   0.972   3.037  0.1216  0.3713 -0.2697
10432TIP3    H152787   5.843   0.995   3.091 -0.7979  0.1045 -1.4107
10432TIP3    H252788   5.994   1.005   3.086 -0.7985  1.4854  0.4434
10433TIP3   OH252789   6.771   5.367  11.212  0.2178 -0.6642 -0.0136
10433TIP3    H152790   6.865   5.359  11.232  0.4372  0.0098 -0.7179
10433TIP3    H252791   6.769   5.393  11.120 -0.6726 -0.8356 -0.0474
10434TIP3   OH252792   4.173   2.238   2.886 -0.2592  0.0468 -0.6046
10434TIP3    H152793   4.248   2.298   2.889  0.7795 -1.2003 -0.8608
10434TIP3    H252794   4.133   2.254   2.801  0.4001 -0.0598 -0.9459
10435TIP3   OH252795   2.114   2.762  11.992 -0.7857 -0.0706  0.1728
10435TIP3    H152796   2.177   2.690  11.999 -1.1076 -0.3375  0.3969
10435TIP3    H252797   2.157   2.827  11.938 -0.5116 -0.4608 -0.0825
10436TIP3   OH252798   1.114   0.154  14.752  0.1978 -0.0348 -0.2581
10436TIP3    H152799   1.070   0.100  14.686  0.7469 -0.8353  0.0094
10436TIP3    H252800   1.047   0.172  14.817  0.0740 -0.6262 -0.2203
10437TIP3   OH252801   6.496   5.975   3.596 -0.5404 -0.0497  0.2515
10437TIP3    H152802   6.515   6.001   3.506  0.7864  0.4725  0.6554
10437TIP3    H252803   6.419   6.027   3.620 -0.7584 -0.0137 -0.4978
10438TIP3   OH252804   2.371   0.041   2.945  0.6803 -0.0994  0.3344
10438TIP3    H152805   2.464   0.027   2.928  0.6929 -0.5623  0.7562
10438TIP3    H252806   2.329  -0.039   2.914  0.2151  0.7658 -1.3940
10439TIP3   OH252807   2.153   5.648  15.068  0.0156  0.4414  0.3724
10439TIP3    H152808   2.223   5.690  15.018  0.9345 -1.2788  0.1420
10439TIP3    H252809   2.088   5.717  15.081  1.2670  1.8023 -0.3232
10440TIP3   OH252810   6.842   4.349  10.640  0.3746 -0.5566  0.0029
10440TIP3    H152811   6.918   4.376  10.590 -0.0466  1.4577  0.3918
10440TIP3    H252812   6.767   4.378  10.588 -0.0820 -0.2104  0.8359
10441TIP3   OH252813   3.613   0.961   2.960 -0.1341  0.2132 -0.2426
10441TIP3    H152814   3.647   0.880   2.921 -0.1440 -0.3273  0.8139
10441TIP3    H252815   3.530   0.934   3.001  1.1103  0.0922  2.4183
10442TIP3   OH252816   0.949   5.778   3.008  0.3229  0.0007  0.1660
10442TIP3    H152817   0.887   5.809   2.942  0.3817 -0.2876 -0.0251
10442TIP3    H252818   1.026   5.751   2.959 -0.0866 -1.3491  0.2349
10443TIP3   OH252819   3.916   3.866   4.785 -0.4445  0.2784  0.1138
10443TIP3    H152820   3.922   3.786   4.733  0.4585  0.4433 -0.0560
10443TIP3    H252821   3.996   3.866   4.837 -0.4436  1.0617  0.1202
10444TIP3   OH252822   3.938   4.934   5.552  0.7228 -0.1845 -0.0502
10444TIP3    H152823   4.026   4.927   5.514  0.0210 -1.1819 -1.6185
10444TIP3    H252824   3.950   4.915   5.645  2.1065 -0.8231 -0.3337
10445TIP3   OH252825   4.667   2.328   2.093 -0.2204 -0.1982 -0.0296
10445TIP3    H152826   4.605   2.311   2.164 -0.0386  0.6458  0.3439
10445TIP3    H252827   4.736   2.264   2.105  1.0801  1.4662  2.0974
10446TIP3   OH252828   2.178   1.995   0.015 -0.6530  0.0953 -0.1334
10446TIP3    H152829   2.095   1.950  -0.003 -0.3089 -0.2806 -0.8377
10446TIP3    H252830   2.193   2.048  -0.063  0.6421 -1.1962 -0.8078
10447TIP3   OH252831   1.174   6.582   4.402 -0.1520 -0.3059  0.2006
10447TIP3    H152832   1.115   6.588   4.477  0.6415 -0.1910  0.8280
10447TIP3    H252833   1.152   6.657   4.347 -0.3845 -0.0956  0.5782
10448TIP3   OH252834   5.642   6.167  11.451  0.1872 -0.0741  0.3921
10448TIP3    H152835   5.633   6.072  11.465  2.5790 -0.0735  2.6429
10448TIP3    H252836   5.583   6.206  11.515  0.8773 -0.0819  1.0502
10449TIP3   OH252837   3.461   0.874   3.708  0.0573  0.3317  0.3283
10449TIP3    H152838   3.428   0.831   3.629  1.6532 -1.9797  0.8367
10449TIP3    H252839   3.382   0.889   3.762 -0.7213 -0.5488 -0.5415
10450TIP3   OH252840   5.149   0.984   2.393  0.2970 -0.5512  0.0566
10450TIP3    H152841   5.193   1.059   2.353  0.2763 -1.2017 -1.2200
10450TIP3    H252842   5.197   0.908   2.361 -0.2458 -1.1388  0.6178
10451TIP3   OH252843   1.528   5.957   4.039  0.0121  0.6098  0.2855
10451TIP3    H152844   1.495   6.042   4.010 -1.2157 -0.0760 -0.4206
10451TIP3    H252845   1.564   5.917   3.960 -0.7229 -0.0957  0.2902
10452TIP3   OH252846   4.288   2.595   5.267  0.1783 -0.2492 -0.5021
10452TIP3    H152847   4.256   2.523   5.322  0.4772 -1.3072 -1.6581
10452TIP3    H252848   4.313   2.663   5.329 -0.2526 -1.0823  0.6302
10453TIP3   OH252849   3.803   0.929  13.098  0.4280 -0.4599 -0.0312
10453TIP3    H152850   3.886   0.889  13.072  0.5162  0.7044 -1.6875
10453TIP3    H252851   3.779   0.884  13.179  2.5965 -0.9365  0.4208
10454TIP3   OH252852   5.412   5.661   2.982 -0.2620  0.2850  0.0103
10454TIP3    H152853   5.362   5.634   2.905  0.2325  0.2079 -0.2895
10454TIP3    H252854   5.347   5.670   3.051 -0.6403 -0.1672 -0.2813
10455TIP3   OH252855   2.043   3.923   1.071  0.0005 -0.6252 -0.2923
10455TIP3    H152856   2.085   3.853   1.021  1.3541 -0.2775  0.3159
10455TIP3    H252857   2.092   4.002   1.048  0.8182 -0.4870  1.6991
10456TIP3   OH252858   1.723   1.631   5.269 -0.1827 -0.4551  0.2510
10456TIP3    H152859   1.660   1.681   5.322 -0.9207 -1.2876  0.1955
10456TIP3    H252860   1.809   1.660   5.299 -0.5571  1.6329 -0.5399
10457TIP3   OH252861   3.397   2.894   2.120  0.5888  0.3775 -0.0779
10457TIP3    H152862   3.403   2.892   2.216  1.1769  2.5438 -0.0038
10457TIP3    H252863   3.480   2.932   2.092  0.3292 -0.0194 -1.4374
10458TIP3   OH252864   2.156   4.890   4.436  0.4863 -0.5211  0.7793
10458TIP3    H152865   2.184   4.846   4.356  1.2770 -1.7583  1.7101
10458TIP3    H252866   2.099   4.826   4.480 -1.7060  0.9295  0.2357
10459TIP3   OH252867   4.501   1.309  13.882 -0.4544 -0.0203  0.1478
10459TIP3    H152868   4.582   1.269  13.912 -0.2125  0.3579  0.0159
10459TIP3    H252869   4.528   1.369  13.812 -0.9268 -0.4075 -0.3825
10460TIP3   OH252870   2.574   6.191  13.853  0.2744 -0.7331 -0.4859
10460TIP3    H152871   2.650   6.163  13.802 -0.3581 -2.2442 -0.6593
10460TIP3    H252872   2.611   6.239  13.927  1.3685 -0.9581 -0.8650
10461TIP3   OH252873   0.039   5.086   1.737  0.1624 -0.5185  0.6980
10461TIP3    H152874   0.033   5.101   1.832 -0.0427 -0.7044  0.7137
10461TIP3    H252875   0.098   5.011   1.729 -0.9044 -1.3785  0.7468
10462TIP3   OH252876   6.155   4.971   4.853 -0.1834  0.5774  0.0212
10462TIP3    H152877   6.165   5.012   4.939  0.2349 -0.6647  0.6016
10462TIP3    H252878   6.143   4.878   4.873  1.5028  0.0169 -1.2924
10463TIP3   OH252879   2.260   0.214   3.365 -0.0826  0.0431 -0.2392
10463TIP3    H152880   2.193   0.198   3.299 -1.2742  1.7167  0.4923
10463TIP3    H252881   2.281   0.306   3.356  0.1798  0.1605  1.2770
10464TIP3   OH252882   6.927   3.417   1.013 -0.3165  0.8655 -0.0699
10464TIP3    H152883   6.898   3.381   0.929  1.0758 -1.9201  0.5115
10464TIP3    H252884   7.023   3.421   1.005 -0.1545  0.4091  1.4245
10465TIP3   OH252885   4.706   3.900  13.897 -0.7156 -0.2412  0.4455
10465TIP3    H152886   4.789   3.946  13.910 -0.9286  0.0578  0.7665
10465TIP3    H252887   4.723   3.839  13.825 -0.1017 -0.4605  0.7684
10466TIP3   OH252888   4.535   0.916   3.450 -0.5737 -0.7871 -0.4910
10466TIP3    H152889   4.618   0.941   3.490 -0.3500 -0.3936 -1.1833
10466TIP3    H252890   4.470   0.926   3.519 -0.4130  1.1685 -0.5748
10467TIP3   OH252891   4.433   6.349  11.667  0.0250 -0.3669 -0.6424
10467TIP3    H152892   4.432   6.274  11.608 -0.4653 -1.2645  0.4730
10467TIP3    H252893   4.374   6.324  11.738 -0.1281  1.0684 -0.2337
10468TIP3   OH252894   1.080   3.392   3.812 -0.1822 -0.1276  0.1099
10468TIP3    H152895   1.153   3.378   3.871  2.1029  0.7458 -2.3119
10468TIP3    H252896   1.061   3.486   3.820  0.5379  0.1179 -0.9248
10469TIP3   OH252897   0.030   5.183   3.542 -0.1867  0.2294  0.7589
10469TIP3    H152898   0.118   5.193   3.577  0.6085 -1.9291 -0.4070
10469TIP3    H252899   0.009   5.091   3.557 -1.4401  0.2309 -0.7573
10470TIP3   OH252900   2.203   1.579   5.229  0.2526 -0.2602 -0.2083
10470TIP3    H152901   2.258   1.579   5.308  0.9985 -0.4732 -0.7124
10470TIP3    H252902   2.229   1.659   5.183  1.2747 -1.1392 -1.2065
10471TIP3   OH252903   7.031   1.712   4.397 -0.2940  0.5621 -0.2036
10471TIP3    H152904   7.021   1.704   4.492  0.5784  1.9554  0.0251
10471TIP3    H252905   7.114   1.669   4.378 -0.0519  1.0295 -0.2128
10472TIP3   OH252906   0.532   6.322  14.279 -0.6708 -0.0669 -0.8179
10472TIP3    H152907   0.600   6.357  14.337 -0.1484 -3.4644  0.8722
10472TIP3    H252908   0.450   6.354  14.318 -0.2347 -0.7045  0.6959
10473TIP3   OH252909   7.010   3.441  12.968 -0.6452  0.0652 -0.1269
10473TIP3    H152910   6.932   3.488  12.937 -0.4720  0.4391 -0.0055
10473TIP3    H252911   7.036   3.386  12.895 -0.4411  0.6802 -0.5237
10474TIP3   OH252912   5.027   6.739  15.042  0.1426  0.7372 -0.4449
10474TIP3    H152913   5.019   6.693  15.125 -1.9746  0.3310 -0.8066
10474TIP3    H252914   5.121   6.744  15.026  0.5341 -2.2416  0.2941
10475TIP3   OH252915   4.613   5.249   2.888  0.2690 -0.3724  0.0741
10475TIP3    H152916   4.638   5.296   2.809  0.7776  0.5500  0.7775
10475TIP3    H252917   4.558   5.177   2.856  1.1350 -0.5064 -1.1888
10476TIP3   OH252918   4.344   0.861   2.957  0.2350  0.0121 -0.1082
10476TIP3    H152919   4.391   0.933   3.001 -0.3709 -1.0029  2.3726
10476TIP3    H252920   4.375   0.782   3.000 -0.6973 -1.0446 -1.2947
10477TIP3   OH252921   2.742   5.013   5.158  0.3803 -0.2850  0.2963
10477TIP3    H152922   2.733   5.014   5.253  0.5330  0.6626  0.3093
10477TIP3    H252923   2.836   5.008   5.142  0.4864  1.4029  0.2215
10478TIP3   OH252924   0.553   0.060   4.798  0.1654 -0.1912  0.2506
10478TIP3    H152925   0.545   0.046   4.704  0.8611  0.9893  0.0108
10478TIP3    H252926   0.635   0.018   4.822 -0.0111 -0.4909  0.3410
10479TIP3   OH252927   0.921   1.940   2.371  0.4872 -0.0388 -0.3543
10479TIP3    H152928   0.913   1.861   2.317  1.7025 -0.8257  0.5516
10479TIP3    H252929   0.975   2.000   2.319 -0.6100  0.2925 -1.1322
10480TIP3   OH252930   4.664   6.982   3.221 -0.3884 -0.3599 -0.3750
10480TIP3    H152931   4.594   7.047   3.230 -2.3152 -2.2881 -0.6919
10480TIP3    H252932   4.703   6.976   3.308 -1.6360 -0.3571  0.1937
10481TIP3   OH252933   4.768   7.050   1.183 -0.2163 -0.1624  0.3519
10481TIP3    H152934   4.838   7.076   1.123 -0.1556  1.1388  0.9506
10481TIP3    H252935   4.720   6.982   1.136  0.6308 -0.1122 -0.6201
10482TIP3   OH252936   3.821   1.467  13.659 -0.2099 -0.0844 -0.5264
10482TIP3    H152937   3.735   1.509  13.652 -0.5766 -0.3361  1.6476
10482TIP3    H252938   3.873   1.506  13.589 -1.6988  1.0507 -1.0528
10483TIP3   OH252939   2.840   5.401  10.698  0.1855 -0.6018  0.0115
10483TIP3    H152940   2.756   5.441  10.720 -0.0110 -0.6157 -0.6671
10483TIP3    H252941   2.876   5.457  10.629 -0.1282 -1.6221 -1.0129
10484TIP3   OH252942   0.797   1.135  12.009  0.0941 -0.0797 -0.3854
10484TIP3    H152943   0.816   1.127  11.915  0.6143  1.3397 -0.4330
10484TIP3    H252944   0.767   1.225  12.019  1.4169  0.2346  1.0180
10485TIP3   OH252945   2.779   7.059  10.814  0.2434 -0.5826  0.1871
10485TIP3    H152946   2.811   7.038  10.902  1.9475 -0.3753 -0.3388
10485TIP3    H252947   2.702   7.004  10.802  0.1328 -0.7911  1.7188
10486TIP3   OH252948   0.031   3.505   2.859  0.0919 -0.8825  0.0963
10486TIP3    H152949   0.033   3.557   2.778  1.0603 -0.9240  0.0724
10486TIP3    H252950  -0.061   3.504   2.886  0.0535  0.9312  0.1436
10487TIP3   OH252951   2.431   3.590   1.999 -0.3051 -0.3287  0.3674
10487TIP3    H152952   2.435   3.621   2.090  0.6038  1.0515 -0.1033
10487TIP3    H252953   2.338   3.571   1.984 -0.6615  0.6293  1.2137
10488TIP3   OH252954   5.088   3.995  13.658  0.1915 -0.3419  0.2021
10488TIP3    H152955   5.088   3.982  13.753 -1.3707 -0.2111  0.2397
10488TIP3    H252956   5.075   4.089  13.647 -0.5815 -0.4829 -0.1397
10489TIP3   OH252957   2.762   4.723   3.027  0.2161  0.6528 -0.3949
10489TIP3    H152958   2.764   4.702   2.933 -1.2798 -1.1599 -0.0973
10489TIP3    H252959   2.703   4.657   3.064  0.6088  1.4655  1.8004
10490TIP3   OH252960   0.610   3.787   0.584  0.2510  0.3835 -0.4500
10490TIP3    H152961   0.634   3.878   0.563  0.3966  0.5376  0.3479
10490TIP3    H252962   0.666   3.735   0.526 -0.1748  0.7976 -1.2617
10491TIP3   OH252963   4.548   2.474   4.723  0.1118  0.1412  0.5432
10491TIP3    H152964   4.486   2.546   4.738  0.2945  0.4353 -0.0550
10491TIP3    H252965   4.494   2.397   4.708 -0.0893  0.1891  1.0135
10492TIP3   OH252966   1.047   5.708   4.427 -0.1759 -0.7309  0.3051
10492TIP3    H152967   1.124   5.691   4.373  0.3164 -1.4523  1.2092
10492TIP3    H252968   0.978   5.728   4.365  0.8385  0.3585 -0.5151
10493TIP3   OH252969   4.618   1.572  15.322  0.2958 -0.3990 -0.0298
10493TIP3    H152970   4.593   1.604  15.235 -0.0708 -1.5743 -0.3787
10493TIP3    H252971   4.632   1.652  15.373 -0.9264  0.3243 -0.7542
10494TIP3   OH252972   3.390   2.525  10.185 -0.3926  0.5726  0.0990
10494TIP3    H152973   3.482   2.551  10.179 -0.4570  0.8544  0.2814
10494TIP3    H252974   3.378   2.459  10.117 -0.0707  0.5834  0.0337
10495TIP3   OH252975   2.160   3.746   0.680 -0.2338  0.4216 -0.0806
10495TIP3    H152976   2.193   3.813   0.620  0.4025  1.0695  0.9541
10495TIP3    H252977   2.129   3.676   0.623  0.1543  1.1025 -1.1650
10496TIP3   OH252978   5.851   5.444   5.252 -0.1929 -0.1775  0.4773
10496TIP3    H152979   5.808   5.503   5.190 -0.4939  0.3983  1.2209
10496TIP3    H252980   5.817   5.470   5.338  0.7677 -0.4734  0.9635
10497TIP3   OH252981   5.434   3.302   3.111 -0.4080 -0.4871  0.0309
10497TIP3    H152982   5.410   3.302   3.018  1.9312  1.4013 -0.6930
10497TIP3    H252983   5.508   3.242   3.116 -2.5645 -3.2128  1.4311
10498TIP3   OH252984   5.691   5.902   3.327 -0.2124  0.5955 -0.0264
10498TIP3    H152985   5.727   5.823   3.287 -2.2425 -1.3541  1.7090
10498TIP3    H252986   5.697   5.969   3.259 -1.3167 -1.8704 -2.7459
10499TIP3   OH252987   1.918   0.333  14.240 -0.8134 -0.7558 -0.2621
10499TIP3    H152988   1.846   0.328  14.178 -0.6886 -0.7122 -0.4110
10499TIP3    H252989   1.992   0.365  14.189 -1.1466  0.9656  0.2739
10500TIP3   OH252990   0.714   6.044   0.935 -0.1193  0.1907  0.4148
10500TIP3    H152991   0.625   6.062   0.905 -1.2560 -0.4093  3.1164
10500TIP3    H252992   0.740   6.124   0.981  1.5197  1.0427 -1.8168
10501TIP3   OH252993   0.625   1.544   1.752  0.1925  0.3734  0.2009
10501TIP3    H152994   0.561   1.579   1.814  0.1217 -1.6393  1.3683
10501TIP3    H252995   0.573   1.516   1.677 -0.0830  0.3235  0.4092
10502TIP3   OH252996   3.893   1.354  14.705  0.0261 -0.3078 -0.4745
10502TIP3    H152997   3.833   1.331  14.776 -0.2145  1.3805 -0.1098
10502TIP3    H252998   3.958   1.283  14.705  0.2592 -0.1363  1.6887
10503TIP3   OH252999   4.455   1.884   5.656  0.3253 -0.3228  0.2233
10503TIP3    H153000   4.361   1.875   5.665  0.1818 -1.5802 -1.7896
10503TIP3    H253001   4.492   1.826   5.722 -0.3723 -1.7240 -0.5856
10504TIP3   OH253002   6.020   1.483  14.354 -0.3329 -0.1520 -0.1553
10504TIP3    H153003   5.954   1.441  14.410 -0.8414 -0.5427 -1.0284
10504TIP3    H253004   6.087   1.514  14.415 -1.3195  0.2487  0.7641
10505TIP3   OH253005   4.656   6.981   4.860  0.5676  0.3569  0.1442
10505TIP3    H153006   4.565   6.983   4.829  0.9026  2.3427 -0.8967
10505TIP3    H253007   4.702   6.926   4.797  0.5083  1.2831 -0.7400
10506TIP3   OH253008   0.368   1.407  13.291  0.3145 -0.2806  0.0217
10506TIP3    H153009   0.462   1.392  13.290  0.0938 -1.9092  1.2709
10506TIP3    H253010   0.342   1.399  13.383 -0.8083  1.8887 -0.0300
10507TIP3   OH253011   2.562   6.660   1.348  0.0727  0.2087  0.0322
10507TIP3    H153012   2.556   6.574   1.389  1.7519  0.7835  1.6207
10507TIP3    H253013   2.537   6.721   1.417  1.1730  1.0964 -0.3196
10508TIP3   OH253014   5.277   4.777  14.348  0.2478 -0.2124  0.7779
10508TIP3    H153015   5.252   4.865  14.378  0.5871  0.2491 -0.2431
10508TIP3    H253016   5.199   4.724  14.362 -0.6554  0.7266 -0.4142
10509TIP3   OH253017   4.850   3.054  15.167  0.7804  0.2548  0.4631
10509TIP3    H153018   4.817   3.124  15.111 -1.7130 -0.9895  0.2488
10509TIP3    H253019   4.791   3.053  15.243  1.2656 -1.0827  0.8577
10510TIP3   OH253020   4.350   5.723  11.461 -0.0607 -0.4126 -0.0575
10510TIP3    H153021   4.377   5.637  11.491 -1.3882  0.0245  2.6533
10510TIP3    H253022   4.424   5.780  11.479  0.5122 -0.7900 -1.1104
10511TIP3   OH253023   0.719   4.864   5.231  0.1929  0.3938 -0.1453
10511TIP3    H153024   0.724   4.909   5.316 -1.9707  1.4071 -0.4780
10511TIP3    H253025   0.777   4.914   5.174  1.0766  0.1597  0.5230
10512TIP3   OH253026   2.174   6.926  11.148  0.0685 -0.1710  0.0238
10512TIP3    H153027   2.265   6.896  11.139 -0.5141 -1.9666 -0.3948
10512TIP3    H253028   2.170   7.004  11.093  1.6381  0.6878  1.0266
10513TIP3   OH253029   1.509   1.203  14.095 -0.5849  0.2297 -0.2232
10513TIP3    H153030   1.590   1.254  14.090 -0.6322  0.1829 -1.8182
10513TIP3    H253031   1.529   1.121  14.052 -1.2557 -0.1089  0.0932
10514TIP3   OH253032   0.443   2.694   1.573  0.6800  0.3592 -1.3479
10514TIP3    H153033   0.390   2.759   1.527 -0.5926  0.1095 -0.2963
10514TIP3    H253034   0.441   2.617   1.516 -1.5439 -0.2137 -0.5946
10515TIP3   OH253035   3.311   2.499   1.509  0.0290 -0.1397  0.3035
10515TIP3    H153036   3.386   2.559   1.505 -0.1703  0.1779  0.9620
10515TIP3    H253037   3.343   2.416   1.475  1.3919 -0.6926  2.6938
10516TIP3   OH253038   5.159   1.943  12.738  0.1648  0.8253 -0.4340
10516TIP3    H153039   5.221   2.014  12.750  0.7366  0.4406 -1.0540
10516TIP3    H253040   5.142   1.942  12.644 -1.1546  1.2330 -0.2215
10517TIP3   OH253041   3.668   5.421   3.928 -0.6902  0.1432 -0.2843
10517TIP3    H153042   3.581   5.445   3.961 -0.3435  0.3198  0.5457
10517TIP3    H253043   3.693   5.344   3.980  0.1095  0.7711  0.3035
10518TIP3   OH253044   5.283   4.528   3.283 -0.3542  0.6049 -0.1608
10518TIP3    H153045   5.332   4.547   3.363 -2.2804  2.0265  0.7826
10518TIP3    H253046   5.290   4.434   3.271  2.3124  0.7170  0.0535
10519TIP3   OH253047   6.912   0.446  10.255 -0.1924  0.4854  0.4122
10519TIP3    H153048   6.995   0.436  10.209  0.2755  1.0448  1.1157
10519TIP3    H253049   6.845   0.426  10.190  0.4867  0.3506 -0.2461
10520TIP3   OH253050   5.637   0.351   4.751  0.0361 -0.5423  0.1791
10520TIP3    H153051   5.685   0.395   4.821 -0.0081  0.4775 -0.4085
10520TIP3    H253052   5.685   0.270   4.736  1.7100  0.5203 -0.4939
10521TIP3   OH253053   6.225   0.596  10.410 -0.1740 -0.2413  0.2796
10521TIP3    H153054   6.223   0.569  10.502  2.6946 -0.6027  0.3454
10521TIP3    H253055   6.228   0.514  10.361  0.6884 -0.0839  0.0398
10522TIP3   OH253056   2.991   5.319   1.146  0.0406  0.3053  0.2412
10522TIP3    H153057   3.012   5.303   1.054  1.5525  1.5857  0.3182
10522TIP3    H253058   2.968   5.412   1.150  3.0910  1.1383  1.5701
10523TIP3   OH253059   6.618   6.179   0.340  0.2525 -0.1496 -0.2739
10523TIP3    H153060   6.598   6.139   0.255  1.3119  1.6595 -1.4419
10523TIP3    H253061   6.711   6.200   0.336  0.0342  1.2064  0.7789
10524TIP3   OH253062   5.891   4.882  12.406  0.0783 -0.1789  0.8594
10524TIP3    H153063   5.884   4.839  12.320  0.2107  0.4510  0.5236
10524TIP3    H253064   5.934   4.966  12.387  0.1319 -0.0464  1.5500
10525TIP3   OH253065   4.598   5.067   1.951  0.2109  0.5281 -0.5451
10525TIP3    H153066   4.605   5.013   2.031 -0.1597  1.2576 -0.0067
10525TIP3    H253067   4.675   5.123   1.953  1.0528 -0.5422 -1.5568
10526TIP3   OH253068   5.150   6.365  14.280 -0.7893  0.2320 -0.1037
10526TIP3    H153069   5.082   6.358  14.346 -0.7725  0.4575 -0.0613
10526TIP3    H253070   5.228   6.328  14.321 -0.8574  0.0800 -0.1110
10527TIP3   OH253071   0.595   0.291   9.480 -0.3143  0.3280  0.0835
10527TIP3    H153072   0.672   0.346   9.489 -1.0585  1.4137  0.0556
10527TIP3    H253073   0.528   0.334   9.534 -0.0811 -2.2439  2.6321
10528TIP3   OH253074   1.728   1.525   3.969  0.8192 -0.3238  0.7123
10528TIP3    H153075   1.817   1.558   3.954  0.8710 -0.6256  0.3258
10528TIP3    H253076   1.722   1.515   4.064  0.3182  2.0978  1.0047
10529TIP3   OH253077   2.376   5.376   2.324 -0.6810 -0.2841  0.3397
10529TIP3    H153078   2.371   5.464   2.362 -2.2019 -0.9346  1.7547
10529TIP3    H253079   2.302   5.372   2.264 -0.1769 -0.3702 -0.2869
10530TIP3   OH253080   6.895   7.170   3.236  0.1694  0.0875 -1.0992
10530TIP3    H153081   6.875   7.262   3.222 -0.3094 -0.3262 -3.5146
10530TIP3    H253082   6.990   7.168   3.253  0.2048  0.9953 -1.1375
10531TIP3   OH253083   0.508   6.375  13.574  0.6172  0.3866 -0.9225
10531TIP3    H153084   0.422   6.417  13.579  0.4907  0.0051  0.5388
10531TIP3    H253085   0.491   6.291  13.531 -0.4227 -1.1815  2.2418
10532TIP3   OH253086   1.224   3.802   5.085 -0.8337  0.3106 -0.7727
10532TIP3    H153087   1.180   3.721   5.059 -1.5937  0.7095 -0.7585
10532TIP3    H253088   1.277   3.826   5.009 -0.7765 -0.0784 -0.8564
10533TIP3   OH253089   3.824   5.818   0.335  0.4936  0.7463 -0.0354
10533TIP3    H153090   3.732   5.802   0.314  0.5783  0.1857 -0.0038
10533TIP3    H253091   3.854   5.877   0.266  0.2135  0.6037 -0.2846
10534TIP3   OH253092   6.439   3.808   5.238  1.0415  0.1650  0.2414
10534TIP3    H153093   6.390   3.861   5.175  0.8420 -1.6722 -1.2239
10534TIP3    H253094   6.375   3.743   5.269  1.8032 -0.4964  0.4451
10535TIP3   OH253095   0.317   6.458  14.382  0.4581  0.2095  0.6617
10535TIP3    H153096   0.284   6.390  14.440  2.9279 -2.4495 -0.7853
10535TIP3    H253097   0.375   6.511  14.436 -0.8184  0.6938  1.6026
10536TIP3   OH253098   5.146   2.776   0.217 -0.4636 -0.1820 -0.0679
10536TIP3    H153099   5.053   2.800   0.206 -0.2184  1.2080  0.7182
10536TIP3    H253100   5.145   2.681   0.220 -2.0657 -0.1720  1.4811
10537TIP3   OH253101   3.056   0.883  12.787 -0.6755  0.5480 -0.2681
10537TIP3    H153102   2.983   0.905  12.844 -1.4071 -0.3323 -0.8553
10537TIP3    H253103   3.112   0.826  12.840 -1.5508 -0.5883 -0.5295
10538TIP3   OH253104   3.192   4.109   3.135  0.2454 -0.2073 -0.1943
10538TIP3    H153105   3.150   4.146   3.213  2.5784 -1.0711  1.5766
10538TIP3    H253106   3.237   4.183   3.095 -0.4265  0.1079 -0.3893
10539TIP3   OH253107   0.942   5.040   1.796 -0.0887 -0.2851  0.2945
10539TIP3    H153108   0.977   5.015   1.882  0.2497  1.2120  0.6281
10539TIP3    H253109   0.997   5.113   1.768 -2.5725  1.9008  0.6358
10540TIP3   OH253110   0.142   6.311   1.327 -0.2313  0.2242  0.2999
10540TIP3    H153111   0.145   6.369   1.250  0.2577  0.2151  0.3079
10540TIP3    H253112   0.076   6.351   1.384  0.8214  1.3735  0.7633
10541TIP3   OH253113   4.785   5.057   3.906  0.1199 -0.1562 -0.0320
10541TIP3    H153114   4.805   5.133   3.960 -0.4718  1.4733 -1.9646
10541TIP3    H253115   4.692   5.065   3.887  0.0973 -1.2605 -0.4383
10542TIP3   OH253116   0.419   3.480   5.050  0.3866 -0.1729  0.4374
10542TIP3    H153117   0.474   3.489   5.127 -0.1419 -2.0397  1.1002
10542TIP3    H253118   0.341   3.433   5.082  0.7209 -2.1567 -1.4273
10543TIP3   OH253119   4.006   0.207   2.799 -0.2347 -0.2675 -0.3075
10543TIP3    H153120   3.994   0.287   2.748  0.1190 -0.5129 -0.7870
10543TIP3    H253121   3.973   0.229   2.886  1.9559  1.1500  0.2343
10544TIP3   OH253122   2.453   5.084  14.116  0.3937  0.1818 -0.0485
10544TIP3    H153123   2.520   5.096  14.049 -1.0707  3.0353 -1.1908
10544TIP3    H253124   2.399   5.163  14.110 -3.3724 -2.0850  0.4300
10545TIP3   OH253125   5.694   2.621   3.753  0.4800 -0.2767  0.2702
10545TIP3    H153126   5.774   2.599   3.705  0.0981 -0.3205 -0.3573
10545TIP3    H253127   5.699   2.570   3.834 -1.0648 -3.9179 -1.7310
10546TIP3   OH253128   6.537   6.816   1.546 -0.3412 -0.0297  0.0735
10546TIP3    H153129   6.452   6.803   1.504 -0.4834 -0.4911  0.4957
10546TIP3    H253130   6.517   6.851   1.632 -0.2657 -2.3842  1.1161
10547TIP3   OH253131   1.584   5.581  11.527 -0.1127  0.1675 -0.4031
10547TIP3    H153132   1.660   5.566  11.584  0.2230 -1.2757 -1.1855
10547TIP3    H253133   1.622   5.608  11.443 -0.5468  0.8165 -0.4048
10548TIP3   OH253134   7.015   2.202  15.070  0.9714 -0.1014 -0.1449
10548TIP3    H153135   7.033   2.181  14.979 -2.2930  0.1303 -0.9724
10548TIP3    H253136   7.051   2.290  15.082  1.9447 -0.3687 -1.0277
10549TIP3   OH253137   1.061   3.924   5.547  0.2119 -0.4015  0.4036
10549TIP3    H153138   1.027   3.849   5.498  0.5576  0.4547 -1.2226
10549TIP3    H253139   0.983   3.971   5.575 -0.0393  0.5104 -1.6419
10550TIP3   OH253140   0.682   2.997  13.334  0.1600  0.3992  0.6289
10550TIP3    H153141   0.719   2.944  13.264 -1.3941  1.3102 -0.9463
10550TIP3    H253142   0.627   2.936  13.384 -0.7393  0.2459 -0.5062
10551TIP3   OH253143   5.179   0.915  13.887 -0.1055 -0.0633 -0.4280
10551TIP3    H153144   5.174   1.008  13.908 -1.7067 -0.3820  0.8449
10551TIP3    H253145   5.098   0.897  13.840  0.0851 -0.8460 -0.4689
10552TIP3   OH253146   3.811   3.674  11.336  0.3729 -0.4261 -0.2469
10552TIP3    H153147   3.765   3.674  11.252 -0.5207  2.8494  0.1165
10552TIP3    H253148   3.742   3.659  11.401  0.4584  0.5719  0.0842
10553TIP3   OH253149   5.185   0.136   3.405 -0.3794  0.0734 -0.0215
10553TIP3    H153150   5.182   0.231   3.415 -0.0292  0.2364 -1.2590
10553TIP3    H253151   5.101   0.113   3.364  0.1205  0.0473 -1.0648
10554TIP3   OH253152   6.038   6.644   3.135  0.4246 -0.3590  0.2695
10554TIP3    H153153   5.994   6.559   3.133 -0.6520  0.1246  1.6692
10554TIP3    H253154   5.990   6.698   3.073  2.2053 -1.1959 -1.9973
10555TIP3   OH253155   1.433   1.461   2.557  0.3719 -0.0714  0.5104
10555TIP3    H153156   1.394   1.433   2.474 -0.4920  2.4171 -0.0209
10555TIP3    H253157   1.359   1.474   2.615  0.6128  1.6604  0.4927
10556TIP3   OH253158   5.577   6.689   0.003 -0.0450  0.5206  0.2535
10556TIP3    H153159   5.562   6.783  -0.003  1.4081  0.9497  2.3212
10556TIP3    H253160   5.492   6.652   0.028 -0.1156  1.6014  1.7143
10557TIP3   OH253161   5.102   6.239   0.041  0.2484 -0.1871  0.2562
10557TIP3    H153162   5.098   6.309  -0.024  1.0316 -0.1309  0.2562
10557TIP3    H253163   5.155   6.171  -0.001  1.7035  0.2971  1.2280
10558TIP3   OH253164   6.006   0.284  15.300 -0.5136  0.0106  0.1433
10558TIP3    H153165   5.933   0.344  15.288 -1.2319 -0.3302  2.3414
10558TIP3    H253166   5.969   0.197  15.287 -0.1231 -0.0969 -0.2800
10559TIP3   OH253167   1.689   6.899   4.140  0.4660  0.5201  0.4604
10559TIP3    H153168   1.776   6.862   4.131 -0.1787 -1.6981  2.2927
10559TIP3    H253169   1.699   6.970   4.204  1.0755  0.9812 -0.1346
10560TIP3   OH253170   3.246   4.797  13.836 -0.1716 -0.1367 -0.1624
10560TIP3    H153171   3.174   4.741  13.866 -1.1642  0.7996 -0.7287
10560TIP3    H253172   3.232   4.880  13.882 -0.6363  0.7055 -1.7687
10561TIP3   OH253173   6.708   1.936   2.020  0.1208 -0.8037  0.4014
10561TIP3    H153174   6.737   2.009   1.966  1.4426 -1.4326  0.2105
10561TIP3    H253175   6.718   1.967   2.110  0.3847 -0.6529  0.3197
10562TIP3   OH253176   5.458   4.926  11.240  0.0334 -0.5897 -0.5494
10562TIP3    H153177   5.520   4.866  11.282 -1.7528 -1.5740  0.8104
10562TIP3    H253178   5.415   4.872  11.173  1.3305  0.3823 -2.2388
10563TIP3   OH253179   0.336   2.612   2.895 -1.1753 -0.0800  0.4373
10563TIP3    H153180   0.426   2.644   2.902 -0.4694 -0.9088 -3.0842
10563TIP3    H253181   0.322   2.562   2.975  1.6049 -0.1925  0.9364
10564TIP3   OH253182   1.285   6.557   3.097 -0.1560 -0.3198 -0.2157
10564TIP3    H153183   1.214   6.567   3.161  0.0297  0.3872 -0.1076
10564TIP3    H253184   1.307   6.647   3.073  0.2154 -0.5646 -0.7910
10565TIP3   OH253185   2.701   5.209  14.724  0.7019 -0.0604 -0.1897
10565TIP3    H153186   2.652   5.175  14.799  1.0906 -0.2683 -0.0297
10565TIP3    H253187   2.635   5.221  14.656  0.3956 -0.1524  0.0901
10566TIP3   OH253188   0.202   5.459  12.448 -0.2360 -0.2713 -0.6097
10566TIP3    H153189   0.241   5.463  12.361 -0.3246  1.5091 -0.6036
10566TIP3    H253190   0.136   5.529  12.448  0.4700  0.4467  1.2087
10567TIP3   OH253191   3.864   4.722  13.218  0.3583  0.0470  0.5346
10567TIP3    H153192   3.851   4.759  13.131  0.5243 -2.2778 -0.5314
10567TIP3    H253193   3.783   4.742  13.265 -2.0482 -3.1332 -1.8781
10568TIP3   OH253194   1.339   6.672   1.267 -0.3190  0.0191  0.3855
10568TIP3    H153195   1.257   6.694   1.311 -0.2003 -0.6343  0.9570
10568TIP3    H253196   1.357   6.747   1.211 -2.1746 -0.5345 -1.0488
10569TIP3   OH253197   7.124   1.110   2.077 -0.4063  0.2389 -0.1946
10569TIP3    H153198   7.173   1.170   2.021 -0.2312  0.2489 -0.0347
10569TIP3    H253199   7.070   1.058   2.017 -0.0230  0.0663 -0.3956
10570TIP3   OH253200   6.731   2.137  14.848  0.5469  0.0480  0.3898
10570TIP3    H153201   6.755   2.194  14.920  2.2127  2.6449 -1.9934
10570TIP3    H253202   6.813   2.096  14.822 -0.5619 -3.4435  1.8538
10571TIP3   OH253203   3.207   6.591   5.507 -0.0236 -0.8947  0.4914
10571TIP3    H153204   3.190   6.596   5.601  0.8700  1.1265  0.5863
10571TIP3    H253205   3.170   6.671   5.471  0.4321 -1.2214 -0.7644
10572TIP3   OH253206   1.876   4.873   2.405 -0.2210 -0.6427  0.2743
10572TIP3    H153207   1.903   4.960   2.376 -0.4398 -0.1408  1.5158
10572TIP3    H253208   1.951   4.841   2.456 -0.5773 -0.7207  0.7497
10573TIP3   OH253209   1.357   4.965   3.216 -0.5280 -0.0344  0.2282
10573TIP3    H153210   1.343   4.931   3.128  0.1917  1.8502 -0.6726
10573TIP3    H253211   1.319   5.053   3.214 -0.5763  0.0029  1.8222
10574TIP3   OH253212   6.464   4.184  13.668  0.5199  0.4954  0.1129
10574TIP3    H153213   6.425   4.107  13.710  0.6368  0.0978 -0.4910
10574TIP3    H253214   6.470   4.160  13.575  1.9500  0.6379  0.1368
10575TIP3   OH253215   1.713   3.400  14.112 -0.6804 -0.3610  0.9073
10575TIP3    H153216   1.717   3.430  14.022  0.4539 -2.2757  0.2810
10575TIP3    H253217   1.621   3.376  14.125 -0.7786 -0.4020  0.1509
10576TIP3   OH253218   3.705   3.793   1.908 -0.1390 -0.1593 -0.1448
10576TIP3    H153219   3.773   3.756   1.964  0.7647 -0.7997 -1.6199
10576TIP3    H253220   3.624   3.752   1.939  0.6802 -2.6444 -1.0107
10577TIP3   OH253221   0.394   5.066  13.142  0.2157  0.3102  0.3163
10577TIP3    H153222   0.480   5.066  13.100  0.4318 -0.1876  0.7506
10577TIP3    H253223   0.346   5.137  13.098 -0.7135 -2.1819 -3.0747
10578TIP3   OH253224   0.206   5.683  14.389 -0.1769 -0.8024 -0.6953
10578TIP3    H153225   0.298   5.659  14.380  0.2026  0.0098  0.6946
10578TIP3    H253226   0.158   5.601  14.378  0.7509 -1.3290 -0.8807
10579TIP3   OH253227   1.863   3.516   1.708  0.2992  0.2663  0.4733
10579TIP3    H153228   1.793   3.546   1.650  0.6321  1.3708  0.6197
10579TIP3    H253229   1.825   3.521   1.796  0.8063  1.6423  0.6270
10580TIP3   OH253230   6.804   5.435   2.663 -1.1436  0.3722  0.4079
10580TIP3    H153231   6.791   5.377   2.738  0.3172 -0.0047  0.4003
10580TIP3    H253232   6.755   5.394   2.592 -2.4132  0.6505  1.0723
10581TIP3   OH253233   1.066   2.968   1.921  0.4244 -0.5862  0.1716
10581TIP3    H153234   1.051   3.011   1.837 -0.6150 -0.3298  0.4808
10581TIP3    H253235   1.126   3.027   1.967 -1.2278  0.7588  0.7171
10582TIP3   OH253236   1.394   1.945   1.749  0.1296  0.8119  0.8488
10582TIP3    H153237   1.330   1.901   1.693 -0.7746  1.4792  1.3335
10582TIP3    H253238   1.474   1.894   1.738 -0.2822  0.3829 -0.3237
10583TIP3   OH253239   2.859   1.672   3.667  0.4011 -0.1260 -0.0883
10583TIP3    H153240   2.888   1.583   3.688  0.1896 -0.2071 -0.1394
10583TIP3    H253241   2.919   1.700   3.597  0.1798 -0.3975 -0.3902
10584TIP3   OH253242   3.559   7.085   0.966  0.1248  0.2550  0.4275
10584TIP3    H153243   3.612   7.014   0.929 -1.4563 -0.1972 -1.1133
10584TIP3    H253244   3.617   7.130   1.027  1.4057 -1.9039  0.8866
10585TIP3   OH253245   2.393   1.833  15.312 -0.3397  0.0970 -0.4763
10585TIP3    H153246   2.317   1.888  15.334 -1.3856 -1.2160 -0.6778
10585TIP3    H253247   2.371   1.796  15.227  0.4257 -0.5175 -0.4098
10586TIP3   OH253248   1.485   6.596   0.744 -0.0391 -0.1896 -0.3199
10586TIP3    H153249   1.533   6.530   0.793  0.0202  0.7105  0.8987
10586TIP3    H253250   1.549   6.666   0.728 -0.8629  1.0322  1.3444
10587TIP3   OH253251   2.617   3.686   1.802  0.2226 -0.0760 -0.2617
10587TIP3    H153252   2.538   3.722   1.761  0.6147 -1.6690 -2.6511
10587TIP3    H253253   2.591   3.663   1.891 -1.8152  0.0605 -0.7899
10588TIP3   OH253254   2.940   4.563   1.348 -0.1403 -0.2127  0.3506
10588TIP3    H153255   2.997   4.563   1.271 -0.1355 -1.4393  0.3336
10588TIP3    H253256   2.994   4.599   1.418  0.9380 -2.0040  0.5051
10589TIP3   OH253257   4.369   2.592   0.976  0.6009  0.3591  0.5147
10589TIP3    H153258   4.418   2.532   1.033 -0.6495 -0.2371  1.0022
10589TIP3    H253259   4.279   2.588   1.009 -0.3903 -0.7239 -2.0165
10590TIP3   OH253260   5.843   2.741   1.599  0.2307  0.3062 -0.6015
10590TIP3    H153261   5.826   2.688   1.521 -0.5824 -0.5389  0.1276
10590TIP3    H253262   5.760   2.742   1.646  1.1940 -0.9204  1.2698
10591TIP3   OH253263   1.442   4.820   5.213  0.0165 -0.0938  0.2716
10591TIP3    H153264   1.407   4.759   5.148  1.4161 -0.1418 -0.4798
10591TIP3    H253265   1.402   4.794   5.295 -1.1664 -0.5608 -0.4286
10592TIP3   OH253266   5.769   5.532   2.012 -0.1534  0.1543  0.2592
10592TIP3    H153267   5.758   5.622   1.981 -0.1390 -0.3783 -1.4185
10592TIP3    H253268   5.756   5.478   1.934 -0.2739 -1.3160  1.2495
10593TIP3   OH253269   4.297   3.061  12.989  0.0495  0.3476 -0.7667
10593TIP3    H153270   4.304   3.069  13.085 -0.2530  1.4300 -0.8185
10593TIP3    H253271   4.287   3.151  12.959 -4.3930 -0.1580 -1.4301
10594TIP3   OH253272   4.120   2.862   4.182  0.0255  0.2058  0.4323
10594TIP3    H153273   4.165   2.778   4.177 -1.2776 -0.4252 -1.2066
10594TIP3    H253274   4.188   2.924   4.209  2.0491 -0.6260 -2.3432
10595TIP3   OH253275   0.310   2.403  15.108  0.1554  0.0806  0.1626
10595TIP3    H153276   0.391   2.368  15.146  0.1746 -0.0390  0.0143
10595TIP3    H253277   0.329   2.409  15.014  0.6565  1.8400  0.3481
10596TIP3   OH253278   5.360   5.199   0.486 -0.1274 -0.0225 -0.7232
10596TIP3    H153279   5.439   5.224   0.532 -0.8904  0.5122  0.3373
10596TIP3    H253280   5.301   5.274   0.495 -1.0303 -0.6914 -0.8322
10597TIP3   OH253281   5.839   0.611   1.662  0.2186 -0.1943  0.1036
10597TIP3    H153282   5.903   0.580   1.597 -0.7894 -0.5402 -0.7556
10597TIP3    H253283   5.781   0.536   1.677 -0.1909  0.2133  0.6075
10598TIP3   OH253284   2.719   4.060   3.006  0.3390 -0.2036  0.1433
10598TIP3    H153285   2.655   4.026   2.943  1.1028 -0.2345 -0.6397
10598TIP3    H253286   2.669   4.120   3.061 -0.1272  0.7384 -1.2499
10599TIP3   OH253287   0.303   3.877   4.826  0.7181 -0.5654  0.5096
10599TIP3    H153288   0.390   3.915   4.818  0.3389  0.1047 -0.5997
10599TIP3    H253289   0.304   3.800   4.769  1.3593 -2.0898  2.4501
10600TIP3   OH253290   5.185   3.959   0.108 -0.2199  0.5683  0.2059
10600TIP3    H153291   5.194   3.864   0.106 -0.5537  0.5443 -0.4293
10600TIP3    H253292   5.134   3.980   0.030  1.2730  1.4249 -0.5960
10601TIP3   OH253293   4.341   3.722   9.883  0.5415 -0.0993 -0.2302
10601TIP3    H153294   4.377   3.733   9.794  0.0821 -1.2366 -0.5795
10601TIP3    H253295   4.415   3.689   9.934 -0.1018 -3.3235 -1.1622
10602TIP3   OH253296   0.628   3.880  14.163 -0.1895 -0.4442  0.1671
10602TIP3    H153297   0.596   3.966  14.132  0.1219 -0.9585 -1.7383
10602TIP3    H253298   0.568   3.817  14.122  2.6134 -1.3984 -2.8894
10603TIP3   OH253299   1.722   5.275   2.331 -0.0019  0.2767 -0.6808
10603TIP3    H153300   1.670   5.336   2.278 -2.3756 -1.4782 -0.5414
10603TIP3    H253301   1.658   5.212   2.364  2.0343 -1.0734  0.9048
10604TIP3   OH253302   5.763   1.999  14.018 -0.6978 -0.4904 -0.3108
10604TIP3    H153303   5.806   2.027  14.099  0.3709 -0.0692 -0.9984
10604TIP3    H253304   5.669   2.012  14.036 -0.3673  2.7778 -0.2245
10605TIP3   OH253305   2.749   2.696   5.683  0.6933 -0.0295  0.0143
10605TIP3    H153306   2.807   2.770   5.699  1.2302 -0.4848  0.2147
10605TIP3    H253307   2.676   2.709   5.744  0.2926  0.8532 -0.6436
10606TIP3   OH253308   3.589   2.591   3.855  0.0931 -0.4187 -0.2440
10606TIP3    H153309   3.649   2.528   3.894  1.3571  0.8171 -0.1063
10606TIP3    H253310   3.627   2.609   3.768  1.0881  1.8188  0.5721
10607TIP3   OH253311   4.918   0.052   2.411 -0.2178  0.1972 -1.0651
10607TIP3    H153312   4.878   0.139   2.416 -0.1948  0.2749 -2.0131
10607TIP3    H253313   4.863  -0.004   2.466 -0.1402  0.8380 -0.3179
10608TIP3   OH253314   0.181   1.058   2.657  0.3845 -0.2892 -0.2443
10608TIP3    H153315   0.099   1.016   2.629  0.2947  0.1012 -0.5857
10608TIP3    H253316   0.195   1.127   2.592  0.6916  0.0063  0.1316
10609TIP3   OH253317   0.152   0.499   5.099 -0.2162  0.3722 -0.1526
10609TIP3    H153318   0.230   0.472   5.147 -0.0354 -0.8557 -1.1054
10609TIP3    H253319   0.080   0.488   5.161  0.1859  0.1115  0.2699
10610TIP3   OH253320   2.142   6.080  11.155  0.3898  0.1514 -0.1168
10610TIP3    H153321   2.133   6.175  11.145  0.4586  0.2357  0.5368
10610TIP3    H253322   2.091   6.043  11.083 -1.1943  0.6730  0.6794
10611TIP3   OH253323   2.305   5.089  11.484  1.1301 -0.2172  0.1205
10611TIP3    H153324   2.388   5.090  11.436  0.6107 -1.5249 -0.8551
10611TIP3    H253325   2.286   5.181  11.502  1.1032  0.3794 -2.6338
10612TIP3   OH253326   6.947   2.236  12.655 -0.0094 -0.3243  0.1294
10612TIP3    H153327   6.946   2.331  12.665 -0.5770 -0.3384  0.2304
10612TIP3    H253328   6.906   2.202  12.735  0.1324 -0.6485  0.0670
10613TIP3   OH253329   4.208   4.999  14.906  0.4823 -0.2754  0.1632
10613TIP3    H153330   4.249   5.085  14.901  1.1320 -0.5591  0.5154
10613TIP3    H253331   4.215   4.964  14.818  1.0329 -0.3322  0.2259
10614TIP3   OH253332   4.698   0.479  10.678 -0.5762  0.5148 -0.0519
10614TIP3    H153333   4.696   0.446  10.589  3.0654 -0.8009  0.1746
10614TIP3    H253334   4.651   0.413  10.729  0.9031 -0.9569 -0.5117
10615TIP3   OH253335   0.526   1.767   2.398 -0.1342 -0.1109 -0.1920
10615TIP3    H153336   0.452   1.707   2.393 -0.2623  0.0255  0.0429
10615TIP3    H253337   0.596   1.722   2.352 -0.6795  0.2267 -1.3970
10616TIP3   OH253338   7.121   5.759   1.415  0.4432 -0.3522 -0.3624
10616TIP3    H153339   7.056   5.690   1.401  0.0770 -0.2421  0.6770
10616TIP3    H253340   7.085   5.811   1.487  0.8328  0.7903 -0.9709
10617TIP3   OH253341   3.730   4.865  14.864  0.1447 -0.2536 -0.2990
10617TIP3    H153342   3.708   4.835  14.952  1.7454 -2.5860 -0.5765
10617TIP3    H253343   3.651   4.848  14.812 -0.1941 -0.6094  0.3215
10618TIP3   OH253344   3.806   5.699   4.192  0.3953  0.3264  0.5878
10618TIP3    H153345   3.886   5.714   4.142  0.3848  0.3866  0.5897
10618TIP3    H253346   3.738   5.743   4.142  0.6395  1.8682  1.5297
10619TIP3   OH253347   5.466   7.182   5.275 -0.1785 -0.3427  0.1684
10619TIP3    H153348   5.378   7.169   5.238  0.6174 -1.0962 -1.6037
10619TIP3    H253349   5.508   7.245   5.215  0.5378 -0.0921  0.9166
10620TIP3   OH253350   6.628   5.053  10.440 -0.0684 -0.2793 -0.7102
10620TIP3    H153351   6.555   5.114  10.443  0.3439  0.1624  0.8517
10620TIP3    H253352   6.667   5.066  10.353 -2.8046 -1.7253 -2.3096
10621TIP3   OH253353   6.618   3.923   1.794 -0.2463 -0.6086 -0.1298
10621TIP3    H153354   6.618   3.935   1.699 -0.3179 -2.0964 -0.3459
10621TIP3    H253355   6.710   3.909   1.816  0.0546  1.7227  0.3447
10622TIP3   OH253356   3.178   4.030  14.463 -0.2922 -0.1470 -0.0691
10622TIP3    H153357   3.128   4.025  14.381  0.8906 -0.1218 -0.8068
10622TIP3    H253358   3.181   4.124  14.483 -1.5749 -0.2359  0.6511
10623TIP3   OH253359   4.653   3.832  13.355  0.4654 -0.0873  0.3767
10623TIP3    H153360   4.601   3.874  13.423  0.7706 -0.2065  0.6855
10623TIP3    H253361   4.739   3.820  13.394  1.1967  1.4941 -0.6373
10624TIP3   OH253362   5.730   3.188   3.874 -0.4692  0.3456  0.0994
10624TIP3    H153363   5.698   3.166   3.961  1.1670 -1.9109  0.2101
10624TIP3    H253364   5.825   3.184   3.881 -0.2852  0.9725 -1.5993
10625TIP3   OH253365   4.597   1.457  10.064  0.1674 -0.0345 -0.2443
10625TIP3    H153366   4.588   1.544  10.103 -0.2036 -0.3068  0.3018
10625TIP3    H253367   4.525   1.407  10.103  0.7777 -0.7692 -0.0461
10626TIP3   OH253368   2.952   2.875  10.195  0.1624  0.1031 -0.9267
10626TIP3    H153369   2.964   2.965  10.163 -0.5487  0.6905  0.4253
10626TIP3    H253370   2.878   2.880  10.255  1.4644 -0.9622  0.8333
10627TIP3   OH253371   4.674   3.220  12.483 -0.3402  0.0109 -0.0819
10627TIP3    H153372   4.713   3.132  12.477  1.4714  0.6897  1.0337
10627TIP3    H253373   4.645   3.227  12.574  1.3298  1.2607  0.3815
10628TIP3   OH253374   5.499   2.753   0.713  0.2374 -0.3427  0.0824
10628TIP3    H153375   5.560   2.821   0.684  2.2128 -2.1979 -0.4104
10628TIP3    H253376   5.479   2.704   0.634 -0.5245 -0.8040  0.5510
10629TIP3   OH253377   2.791   2.890  14.336 -0.3358  0.6994 -1.2036
10629TIP3    H153378   2.738   2.817  14.365  0.5238  1.0336  1.4580
10629TIP3    H253379   2.867   2.849  14.293 -0.5946  0.0957 -1.0887
10630TIP3   OH253380   3.482   1.283   5.000  0.1007  0.3717 -0.6752
10630TIP3    H153381   3.504   1.282   5.093  1.0314 -0.0411 -0.8950
10630TIP3    H253382   3.499   1.194   4.970 -1.0630  0.2603 -1.0552
10631TIP3   OH253383   5.459   3.623   4.279  0.0271 -0.4378 -0.0274
10631TIP3    H153384   5.398   3.551   4.296 -1.8241  1.0830  0.0326
10631TIP3    H253385   5.495   3.604   4.192 -1.2183 -0.9122 -0.4612
10632TIP3   OH253386   3.414   3.536  13.753 -0.0115  0.0047  0.6613
10632TIP3    H153387   3.356   3.509  13.824  0.8643  0.0430  1.4273
10632TIP3    H253388   3.500   3.500  13.778  0.4814  0.7220  0.0434
10633TIP3   OH253389   3.180   4.901   0.868 -0.0512  0.1280 -0.4454
10633TIP3    H153390   3.150   4.846   0.796 -3.2517  0.4810  0.4368
10633TIP3    H253391   3.249   4.851   0.910 -2.0156 -2.7333 -0.3788
10634TIP3   OH253392   6.462   0.365   4.490 -0.2266 -0.4648 -0.9746
10634TIP3    H153393   6.393   0.307   4.457  0.5882 -1.5087 -0.8945
10634TIP3    H253394   6.528   0.306   4.525  0.6688  0.5208 -0.9498
10635TIP3   OH253395   4.085   1.745  10.758 -0.0748  0.2529 -0.2069
10635TIP3    H153396   4.096   1.810  10.688 -0.9170  0.3619 -0.2441
10635TIP3    H253397   4.009   1.775  10.807 -1.3996 -1.4804 -1.0966
10636TIP3   OH253398   4.681   6.500   4.848  0.4662  0.0073  0.3508
10636TIP3    H153399   4.686   6.406   4.864  3.5066 -0.0903 -0.4816
10636TIP3    H253400   4.705   6.540   4.932  1.0303 -0.0394  0.2166
10637TIP3   OH253401   5.025   3.983  15.244 -0.4457 -0.1400 -1.1862
10637TIP3    H153402   5.090   4.032  15.194 -0.3594  0.8837 -0.1130
10637TIP3    H253403   4.982   3.927  15.179  1.5192 -0.8950 -1.9212
10638TIP3   OH253404   6.653   2.805   2.657 -0.0486 -0.1640  0.3791
10638TIP3    H153405   6.601   2.885   2.669  0.7677  0.5388 -0.5835
10638TIP3    H253406   6.631   2.751   2.733 -2.3649 -0.0210 -0.0977
10639TIP3   OH253407   2.368   5.867  10.717  0.2702  0.2883  0.3046
10639TIP3    H153408   2.355   5.941  10.658 -1.2396  0.3712  0.7148
10639TIP3    H253409   2.454   5.832  10.692 -0.1353  0.5701 -1.6685
10640TIP3   OH253410   1.434   6.319  15.335  0.0838 -0.3678 -0.2633
10640TIP3    H153411   1.436   6.395  15.393 -2.1135  0.5265 -1.2119
10640TIP3    H253412   1.427   6.244  15.394  0.7189  0.2796  0.6660
10641TIP3   OH253413   2.390   2.250   2.200  0.2091 -0.3433  0.1913
10641TIP3    H153414   2.355   2.326   2.154 -1.4722 -0.7048  0.8177
10641TIP3    H253415   2.456   2.286   2.259  1.0094  0.3429 -1.0658
10642TIP3   OH253416   5.638   2.453   4.241  0.0376  0.0523  0.0928
10642TIP3    H153417   5.589   2.371   4.253  0.4594 -0.1754  0.2864
10642TIP3    H253418   5.578   2.521   4.271 -1.1127  0.0271 -1.9890
10643TIP3   OH253419   5.006   2.585   2.005 -0.0308 -0.1466  0.1692
10643TIP3    H153420   5.039   2.508   1.958 -1.0883 -0.6073  0.1379
10643TIP3    H253421   5.050   2.581   2.090 -0.6944 -1.2869  0.4853
10644TIP3   OH253422   2.071   6.708   1.308 -0.2994 -0.6505  0.4918
10644TIP3    H153423   2.139   6.703   1.376 -0.1955 -0.0294  0.4407
10644TIP3    H253424   2.037   6.797   1.315  0.0262 -0.4324 -0.5717
10645TIP3   OH253425   3.652   1.615   2.436 -0.7638 -0.1697  0.2419
10645TIP3    H153426   3.720   1.583   2.377 -0.0366  0.7407  0.5707
10645TIP3    H253427   3.650   1.550   2.507  0.0776  0.0353  0.4587
10646TIP3   OH253428   3.686   1.793  10.567  0.1436  0.3972 -0.3573
10646TIP3    H153429   3.747   1.825  10.633 -1.9811 -1.1910  2.6209
10646TIP3    H253430   3.638   1.871  10.538  0.0356  0.9431  1.2232
10647TIP3   OH253431   7.211   1.476   4.693  0.3790 -0.2454 -0.2039
10647TIP3    H153432   7.231   1.546   4.631 -0.3370 -0.1711 -0.3513
10647TIP3    H253433   7.128   1.440   4.663  0.7562 -1.1959 -0.1588
10648TIP3   OH253434   2.676   4.692   4.396 -0.0227  0.7569  0.6650
10648TIP3    H153435   2.714   4.729   4.476  0.8694  0.1993  0.5166
10648TIP3    H253436   2.740   4.626   4.368 -0.4968  0.7013 -0.3106
10649TIP3   OH253437   0.217   3.878   5.083 -0.2875  0.3849 -0.2960
10649TIP3    H153438   0.250   3.876   4.993 -2.1182  0.5027 -1.0185
10649TIP3    H253439   0.206   3.971   5.102 -2.0620  0.3327 -0.8475
10650TIP3   OH253440   4.476   4.442   0.535  0.0413  0.0290 -0.3880
10650TIP3    H153441   4.404   4.417   0.594 -0.4996 -0.4963 -1.2356
10650TIP3    H253442   4.553   4.398   0.572  1.1528  4.3295  3.3524
10651TIP3   OH253443   5.524   4.110   2.761 -0.4225 -0.3392  0.3603
10651TIP3    H153444   5.572   4.029   2.742 -0.7790 -0.5196  0.2146
10651TIP3    H253445   5.490   4.138   2.676  1.7802  1.3327 -0.0455
10652TIP3   OH253446   3.942   5.721  10.416  0.6585  0.1759 -0.3593
10652TIP3    H153447   4.006   5.789  10.438  1.2465  0.2383 -2.0901
10652TIP3    H253448   3.995   5.647  10.386 -0.0452 -0.0573 -1.0536
10653TIP3   OH253449   6.987   6.318   1.827  0.5482 -0.0414  0.3460
10653TIP3    H153450   7.031   6.261   1.764  0.9472  1.1827 -0.5232
10653TIP3    H253451   7.019   6.289   1.912  1.0113 -0.8657 -0.0919
10654TIP3   OH253452   3.324   3.074   1.461  0.0391 -0.0192 -0.7511
10654TIP3    H153453   3.415   3.047   1.477  0.9402  3.3489  0.5930
10654TIP3    H253454   3.323   3.101   1.369  1.4531  3.1006  0.0257
10655TIP3   OH253455   1.303   4.396  12.749  0.0918 -0.6950 -0.1237
10655TIP3    H153456   1.332   4.391  12.658 -2.0120  1.1295 -0.9835
10655TIP3    H253457   1.384   4.390  12.801  1.8143  1.8840 -2.2314
10656TIP3   OH253458   7.117   3.165   0.859 -0.0122 -0.7094 -0.5918
10656TIP3    H153459   7.198   3.141   0.905 -0.7981  0.4754  1.5769
10656TIP3    H253460   7.134   3.254   0.826 -0.9400  0.2934  1.4316
10657TIP3   OH253461   4.712   6.288   2.664 -0.2631  0.0173  0.4971
10657TIP3    H153462   4.766   6.211   2.647 -0.5077 -0.0226 -0.1091
10657TIP3    H253463   4.673   6.310   2.579 -0.4096  0.6460  0.7189
10658TIP3   OH253464   5.570   1.593  12.193 -0.1595  0.1730 -0.3068
10658TIP3    H153465   5.528   1.632  12.116 -1.5139  0.6764  0.6435
10658TIP3    H253466   5.497   1.561  12.246  0.7004  0.3225  1.0185
10659TIP3   OH253467   4.310   2.136   3.271  0.3611  0.4107  0.1437
10659TIP3    H153468   4.320   2.091   3.187  0.8822  0.0388  0.4010
10659TIP3    H253469   4.320   2.229   3.249  0.8182  0.2950 -0.1633
10660TIP3   OH253470   6.949   6.120   3.511 -0.1023 -0.1167 -0.0302
10660TIP3    H153471   7.037   6.155   3.494 -0.8826  2.0099  0.0560
10660TIP3    H253472   6.910   6.112   3.424 -0.2772  0.2478  0.0112
10661TIP3   OH253473   6.477   5.716   4.856 -0.4688 -0.4694  0.0926
10661TIP3    H153474   6.506   5.631   4.825 -3.7072 -1.4239 -0.7508
10661TIP3    H253475   6.528   5.779   4.805  2.1642 -1.7936  0.9019
10662TIP3   OH253476   3.481   6.897   3.769 -0.0102 -0.0412  0.1398
10662TIP3    H153477   3.388   6.878   3.780  0.3129 -0.2718  3.4192
10662TIP3    H253478   3.486   6.992   3.762 -0.4933 -0.0484 -0.3314
10663TIP3   OH253479   6.306   2.133   3.031 -0.0420  0.3574 -0.1524
10663TIP3    H153480   6.225   2.094   3.064 -0.9970  0.4673 -2.2004
10663TIP3    H253481   6.341   2.068   2.970  0.0105  1.3798 -1.2461
10664TIP3   OH253482   2.424   5.602   1.513 -0.6537 -0.3384  0.3921
10664TIP3    H153483   2.444   5.680   1.461  1.4705 -0.3447  1.1099
10664TIP3    H253484   2.421   5.531   1.449 -0.1895 -0.0201  0.0086
10665TIP3   OH253485   0.678   1.660   3.584  0.2332  0.0013  0.0821
10665TIP3    H153486   0.719   1.744   3.563 -0.1769  0.1550 -0.1014
10665TIP3    H253487   0.681   1.656   3.680  1.6389 -0.4715  0.0367
10666TIP3   OH253488   3.717   7.242  13.737 -0.2622  0.1527  0.2864
10666TIP3    H153489   3.677   7.155  13.730 -0.2190  0.0550  1.1925
10666TIP3    H253490   3.698   7.283  13.652  0.5072 -1.0686 -0.5247
10667TIP3   OH253491   0.908   4.074  13.538  0.0827 -0.1072 -0.2633
10667TIP3    H153492   0.843   4.125  13.490 -1.3268 -2.5383 -1.1425
10667TIP3    H253493   0.892   4.096  13.630  0.4712  1.9880 -0.6413
10668TIP3   OH253494   5.138   5.321  10.230  0.3803  0.1045  0.7580
10668TIP3    H153495   5.088   5.241  10.217  1.1171 -0.5849  2.0079
10668TIP3    H253496   5.138   5.334  10.325  1.7068  0.6436  0.7095
10669TIP3   OH253497   0.068   3.169   9.691  0.5586  0.6719 -0.0852
10669TIP3    H153498  -0.023   3.141   9.701  1.3910 -2.8871 -1.1205
10669TIP3    H253499   0.080   3.182   9.597  1.3981 -0.0300 -0.0877
10670TIP3   OH253500   4.047   1.617   3.782 -0.1048  0.1079 -0.2309
10670TIP3    H153501   4.089   1.559   3.845 -1.3398 -0.8862 -0.3010
10670TIP3    H253502   3.993   1.676   3.835 -2.1455 -1.5375 -0.3553
10671TIP3   OH253503   0.857   3.222  12.355  0.4987 -0.0037 -0.3128
10671TIP3    H153504   0.782   3.255  12.404  1.5965  0.3432  1.2195
10671TIP3    H253505   0.923   3.291  12.363  0.9068 -0.1733 -1.8768
10672TIP3   OH253506   2.729   0.436   0.722 -0.6957  0.3268  0.5009
10672TIP3    H153507   2.806   0.380   0.730 -2.0413 -1.9494 -1.1599
10672TIP3    H253508   2.752   0.499   0.653  0.2842  0.8962  1.3134
10673TIP3   OH253509   4.800   5.414   3.062 -0.3524  0.5545  0.4350
10673TIP3    H153510   4.713   5.375   3.051 -1.2288  2.2027  1.0833
10673TIP3    H253511   4.783   5.508   3.073  1.6326  1.1295 -0.8691
10674TIP3   OH253512   7.081   3.925   0.083  0.0617 -0.1387 -0.4287
10674TIP3    H153513   7.063   3.834   0.105  0.1550  0.0101  0.2761
10674TIP3    H253514   7.113   3.922  -0.007 -1.8046 -0.5850 -1.1207
10675TIP3   OH253515   0.236   1.096   0.702  0.3591  0.5955 -0.0660
10675TIP3    H153516   0.288   1.116   0.780 -0.1801  0.0333  0.4567
10675TIP3    H253517   0.268   1.010   0.673 -1.5073 -0.6815  1.3920
10676TIP3   OH253518   4.076   3.052  13.979  0.0268 -0.3535 -0.5630
10676TIP3    H153519   4.043   3.011  13.899  0.2205  0.2091 -0.9332
10676TIP3    H253520   4.154   3.001  14.002 -0.1001 -0.5932 -0.6570
10677TIP3   OH253521   0.552   2.191  12.532  0.1747 -0.3193 -0.6094
10677TIP3    H153522   0.501   2.261  12.491 -0.2160 -0.2977 -0.0968
10677TIP3    H253523   0.529   2.196  12.625 -0.9321 -2.0153 -0.7567
10678TIP3   OH253524   3.994   6.450   3.434  0.0103  0.0805  0.1439
10678TIP3    H153525   4.014   6.494   3.351 -1.3116 -2.6293 -1.7346
10678TIP3    H253526   3.919   6.497   3.468 -0.0815  0.5980 -0.7341
10679TIP3   OH253527   1.000   4.033   4.742 -0.1636  0.2088 -0.3756
10679TIP3    H153528   1.015   4.064   4.653  1.9241 -0.6766 -0.3940
10679TIP3    H253529   0.917   4.072   4.767 -0.4552  1.0579 -2.4474
10680TIP3   OH253530   5.561   4.977   0.752  0.5697  0.1125  0.2652
10680TIP3    H153531   5.585   4.981   0.845 -1.5098 -2.1035  0.9923
10680TIP3    H253532   5.633   4.930   0.711  0.7176 -0.3900  1.0828
10681TIP3   OH253533   5.178   6.814   2.025  0.5934  0.1823 -0.4207
10681TIP3    H153534   5.254   6.867   2.051  0.3202 -0.0045  0.8240
10681TIP3    H253535   5.214   6.726   2.012  0.4864 -0.1070  1.0236
10682TIP3   OH253536   5.888   5.049   1.130 -0.3131 -0.0466  0.3346
10682TIP3    H153537   5.907   4.995   1.053 -0.0946 -3.5221  2.5774
10682TIP3    H253538   5.973   5.061   1.173 -0.6356  0.5070  0.8442
10683TIP3   OH253539   4.185   6.874   3.685  0.0303  0.8457 -0.4349
10683TIP3    H153540   4.125   6.805   3.714 -0.1116  1.2483  0.2389
10683TIP3    H253541   4.272   6.841   3.704 -0.0267  0.7428 -0.3556
10684TIP3   OH253542   6.311   0.351   2.890 -0.2131 -0.5758 -0.2312
10684TIP3    H153543   6.402   0.366   2.866 -0.3288 -0.4464 -0.5914
10684TIP3    H253544   6.261   0.404   2.829 -0.4693  0.6588  0.9932
10685TIP3   OH253545   2.211   6.871  15.246 -0.1651 -0.0168  0.2545
10685TIP3    H153546   2.118   6.852  15.253 -0.3263  0.4876 -0.3757
10685TIP3    H253547   2.215   6.959  15.208  0.5337 -1.5248 -3.6016
10686TIP3   OH253548   3.650   0.150   4.215 -0.2835  0.2537 -0.4222
10686TIP3    H153549   3.723   0.108   4.169 -0.5652 -0.1933 -0.4713
10686TIP3    H253550   3.590   0.177   4.145  0.6953  2.3593 -0.5407
10687TIP3   OH253551   0.514   3.635   0.268  0.0147  0.2819 -0.1262
10687TIP3    H153552   0.591   3.662   0.319  0.1054 -1.0556  0.4870
10687TIP3    H253553   0.549   3.584   0.196 -0.1638  1.6521 -1.2332
10688TIP3   OH253554   4.608   2.027   0.641  0.4995  0.4469 -0.2615
10688TIP3    H153555   4.622   1.993   0.730  1.4937 -0.0882 -0.6031
10688TIP3    H253556   4.619   2.122   0.650  2.7605  0.2354 -0.1601
10689TIP3   OH253557   6.023   3.371  10.726  0.3233  0.1437 -0.4415
10689TIP3    H153558   6.066   3.288  10.706  0.0871 -0.6860  2.1284
10689TIP3    H253559   6.087   3.419  10.778  0.8664  2.1165 -2.7510
10690TIP3   OH253560   2.275   3.741   2.695  0.7049  0.1762 -0.1389
10690TIP3    H153561   2.346   3.784   2.646  0.8723  2.9786  2.3210
10690TIP3    H253562   2.205   3.806   2.697 -1.2043 -1.7640 -0.7259
10691TIP3   OH253563   2.996   4.693   1.048 -0.3042  0.1995 -0.4964
10691TIP3    H153564   2.916   4.641   1.037 -0.1242  0.2906 -2.6112
10691TIP3    H253565   2.971   4.782   1.022  0.4091  0.2843 -0.9126
10692TIP3   OH253566   3.757   6.023   0.580 -0.4013 -0.4535  0.1793
10692TIP3    H153567   3.763   6.064   0.494  0.6279  0.5070  0.6741
10692TIP3    H253568   3.663   6.013   0.596 -0.6087 -0.4651 -0.9591
10693TIP3   OH253569   1.482   3.603   2.387 -0.1465 -0.2325  0.4989
10693TIP3    H153570   1.538   3.679   2.401 -1.5306  1.1394 -0.9191
10693TIP3    H253571   1.410   3.614   2.449 -1.6852  1.0993 -1.3866
10694TIP3   OH253572   6.190   7.131  13.395 -0.3331 -0.6043  0.1221
10694TIP3    H153573   6.185   7.105  13.303 -1.1854 -0.4951  0.1220
10694TIP3    H253574   6.100   7.122  13.426 -0.5388  1.5744  0.3194
10695TIP3   OH253575   4.583   6.022   3.488  0.1967  0.0483  0.1331
10695TIP3    H153576   4.519   5.957   3.515  1.2522 -0.1127  2.5520
10695TIP3    H253577   4.546   6.106   3.517  0.1739  0.1812 -0.2778
10696TIP3   OH253578   0.711   4.715   4.374  0.2935 -0.5059  0.8552
10696TIP3    H153579   0.795   4.713   4.419  0.8514  0.3006 -0.1269
10696TIP3    H253580   0.647   4.731   4.443  1.0321 -0.2551  1.4867
10697TIP3   OH253581   6.389   5.105  12.047  0.3380 -0.1071 -0.1697
10697TIP3    H153582   6.303   5.147  12.046  0.8672  1.0077 -0.5241
10697TIP3    H253583   6.377   5.023  11.999  0.0610  1.2684 -2.6022
10698TIP3   OH253584   1.062   4.156   2.884 -0.1843 -0.4045 -0.5457
10698TIP3    H153585   1.129   4.100   2.924  1.2196  1.1451 -0.6013
10698TIP3    H253586   1.037   4.216   2.955  0.3895  0.6667 -1.2283
10699TIP3   OH253587   4.589   1.972   2.565 -0.2703  0.2372  0.4639
10699TIP3    H153588   4.584   2.044   2.502  0.9056  0.6458  0.8136
10699TIP3    H253589   4.523   1.992   2.631 -0.4632  0.6012  0.1616
10700TIP3   OH253590   6.214   3.927  14.776 -0.2707  0.6836 -0.1937
10700TIP3    H153591   6.218   3.899  14.867 -0.9605 -0.4244 -0.4834
10700TIP3    H253592   6.121   3.931  14.756 -0.1160 -0.5307 -1.2582
10701TIP3   OH253593   1.006   2.871  12.726 -0.4773  0.2791 -0.0523
10701TIP3    H153594   1.030   2.962  12.710 -0.2026  0.4511  1.2532
10701TIP3    H253595   1.038   2.824  12.649  0.6218  1.0730 -0.1038
10702TIP3   OH253596   1.966   6.016   3.609 -0.0709  0.1694 -0.2382
10702TIP3    H153597   1.926   6.047   3.690  1.4993  0.2424  0.5452
10702TIP3    H253598   1.975   5.921   3.621  0.4325  0.2201 -0.1924
10703TIP3   OH253599   4.449   3.418   3.539  0.3789 -0.1597  0.2171
10703TIP3    H153600   4.471   3.325   3.541  1.2633  0.0448  0.8894
10703TIP3    H253601   4.533   3.462   3.555  0.2997  0.8060 -1.6445
10704TIP3   OH253602   2.428   4.326  10.605 -0.1436  0.0490  0.0120
10704TIP3    H153603   2.395   4.298  10.691 -0.0207  1.7444  0.6637
10704TIP3    H253604   2.385   4.410  10.590  0.2728  0.0342 -1.3464
10705TIP3   OH253605   4.655   1.990   3.958  0.0402 -0.2981 -0.0041
10705TIP3    H153606   4.627   2.000   3.868  1.1900 -1.8746 -0.5925
10705TIP3    H253607   4.716   2.062   3.974  0.9851 -0.8417 -1.0133
10706TIP3   OH253608   2.454   0.717   4.686  0.3128 -0.0262  0.1332
10706TIP3    H153609   2.526   0.775   4.711 -0.6396  1.5554 -0.6206
10706TIP3    H253610   2.376   0.759   4.723 -0.5285 -0.2186 -1.3549
10707TIP3   OH253611   4.762   5.531   3.871 -0.4324  0.1461 -0.0329
10707TIP3    H153612   4.689   5.484   3.831  0.5644 -0.9636 -0.6191
10707TIP3    H253613   4.833   5.523   3.807  0.2938  0.9453  0.6508
10708TIP3   OH253614   1.681   0.923  14.268 -0.0851 -0.1269 -0.0945
10708TIP3    H153615   1.726   1.007  14.269  1.1778 -0.7761 -0.5097
10708TIP3    H253616   1.724   0.871  14.336  1.6705 -1.6556 -2.2440
10709TIP3   OH253617   4.204   0.261  12.898 -0.3803  0.7094 -0.0843
10709TIP3    H153618   4.216   0.183  12.843  2.4846  0.8208  0.2178
10709TIP3    H253619   4.213   0.229  12.987 -0.8251  1.1506  0.1228
10710TIP3   OH253620   0.641   7.141  14.695  0.4266 -0.1003  0.2530
10710TIP3    H153621   0.659   7.106  14.782  1.4480  0.3641  0.2463
10710TIP3    H253622   0.617   7.232  14.711 -2.6456 -0.8191  0.3140
10711TIP3   OH253623   0.645   0.280   5.943  0.4459 -0.4102  0.0483
10711TIP3    H153624   0.727   0.328   5.949 -0.2934  0.8534  0.4143
10711TIP3    H253625   0.584   0.330   5.997 -0.8301 -0.7331 -1.0435
10712TIP3   OH253626   4.748   3.776   1.355  0.3700 -0.6193 -0.3883
10712TIP3    H153627   4.801   3.711   1.310 -0.2446 -1.0539 -0.5117
10712TIP3    H253628   4.750   3.853   1.299  2.2603 -0.0154  0.4421
10713TIP3   OH253629   6.121   6.062  14.714 -0.6515  0.4743 -0.1149
10713TIP3    H153630   6.064   6.135  14.740 -1.6840 -0.4370  0.2551
10713TIP3    H253631   6.124   6.068  14.618 -2.0066  0.0935 -0.2013
10714TIP3   OH253632   6.857   4.108   3.816  0.2329  0.1829  0.2879
10714TIP3    H153633   6.909   4.154   3.750  0.1319 -1.6617 -1.1428
10714TIP3    H253634   6.821   4.032   3.771 -1.8119  0.1081  1.8462
10715TIP3   OH253635   3.583   0.868  12.925 -0.3740  0.1132 -0.2808
10715TIP3    H153636   3.652   0.874  12.991 -1.6697 -1.0714  1.2759
10715TIP3    H253637   3.622   0.817  12.854  0.9799  1.2097 -0.3691
10716TIP3   OH253638   5.528   6.923  14.110 -0.2137  0.2050  0.0655
10716TIP3    H153639   5.526   6.830  14.134  0.7968  0.6082  1.9009
10716TIP3    H253640   5.595   6.928  14.042 -1.6333 -0.6606 -1.4760
10717TIP3   OH253641   3.982   4.174  12.023 -0.1304 -0.2489 -0.1656
10717TIP3    H153642   4.027   4.145  12.102 -0.2172 -0.3805 -0.1646
10717TIP3    H253643   3.910   4.112  12.011  0.9675 -1.3634 -1.3787
10718TIP3   OH253644   3.294   5.817  11.356 -0.1256 -0.1315  0.0486
10718TIP3    H153645   3.336   5.868  11.286 -0.2342  0.4490  0.3999
10718TIP3    H253646   3.266   5.736  11.313  0.6943 -0.2142 -0.3575
10719TIP3   OH253647   1.861   0.364   5.207 -0.0533 -0.1023  0.4182
10719TIP3    H153648   1.770   0.389   5.223  0.2422  1.0104  0.4258
10719TIP3    H253649   1.856   0.303   5.133 -0.7102  0.7829 -0.2860
10720TIP3   OH253650   5.351   4.422  13.081 -0.3674  0.2416  0.1674
10720TIP3    H153651   5.433   4.459  13.115  0.1522 -0.3881 -0.3615
10720TIP3    H253652   5.283   4.481  13.113  0.2720  0.6568  0.8002
10721TIP3   OH253653   5.293   7.062   2.092 -0.3015 -0.0814  0.0251
10721TIP3    H153654   5.208   7.086   2.129  0.0418  0.5519  0.4219
10721TIP3    H253655   5.287   7.088   2.000 -0.6669 -0.3862 -0.0417
10722TIP3   OH253656   5.609   4.673   9.448 -0.1982 -0.2899 -0.3321
10722TIP3    H153657   5.588   4.641   9.360  2.4420 -1.5666 -0.5954
10722TIP3    H253658   5.586   4.601   9.506  1.6667 -1.0583 -0.4640
10723TIP3   OH253659   5.600   6.072  14.095 -0.2366 -0.2594 -0.4613
10723TIP3    H153660   5.552   5.990  14.083 -0.9836  0.0475  0.2847
10723TIP3    H253661   5.668   6.070  14.029 -1.3188 -0.6950 -1.6013
10724TIP3   OH253662   6.661   6.256  15.022  0.5669 -0.0847 -0.7627
10724TIP3    H153663   6.607   6.261  15.102 -0.3296  1.3556 -1.4134
10724TIP3    H253664   6.620   6.187  14.970 -0.0462  0.2975 -0.8017
10725TIP3   OH253665   2.852   2.667   0.232  0.3378 -0.3960  0.1728
10725TIP3    H153666   2.758   2.684   0.240  0.8003  2.5039  0.4852
10725TIP3    H253667   2.859   2.572   0.225 -2.5869 -0.7042  0.3900
10726TIP3   OH253668   0.052   5.428  13.697  0.1379  0.0956 -0.1688
10726TIP3    H153669   0.079   5.338  13.675 -0.0778 -0.1035  0.3605
10726TIP3    H253670   0.116   5.457  13.761  0.2679  0.3635 -0.4178
10727TIP3   OH253671   5.417   0.795   0.633  0.5620  0.3343  0.3926
10727TIP3    H153672   5.413   0.887   0.660  2.3219  0.8036 -0.7138
10727TIP3    H253673   5.329   0.762   0.647  0.3661  1.6002  2.7671
10728TIP3   OH253674   0.861   6.984   3.126 -0.2992  0.0716 -0.0598
10728TIP3    H153675   0.814   6.926   3.066 -1.0170 -0.4382  0.9646
10728TIP3    H253676   0.806   7.062   3.131  0.9913  1.1920 -1.9537
10729TIP3   OH253677   6.007   1.507   1.981 -0.3547 -0.0193  0.2806
10729TIP3    H153678   5.958   1.465   2.051  0.3418  1.6616  1.8484
10729TIP3    H253679   6.098   1.483   1.998 -0.4308 -3.3748 -2.7780
10730TIP3   OH253680   4.293   0.049  10.764 -0.2964  0.1785  0.1955
10730TIP3    H153681   4.281  -0.046  10.759  0.0447  0.1534 -0.2707
10730TIP3    H253682   4.291   0.078  10.673  0.9072  0.4433  0.2276
10731TIP3   OH253683   0.171   3.615  11.097 -0.7488  0.5755 -0.0453
10731TIP3    H153684   0.142   3.586  11.010  0.0388 -1.2339  0.2602
10731TIP3    H253685   0.260   3.581  11.105 -0.8651  0.5914  1.5425
10732TIP3   OH253686   3.911   3.383  13.962  0.1680  0.0782 -0.2929
10732TIP3    H153687   3.953   3.363  13.878  2.3891  1.5711  0.3548
10732TIP3    H253688   3.954   3.324  14.024 -1.9810 -1.5355 -0.2341
10733TIP3   OH253689   3.843   6.128   2.696  0.6170  0.2366  0.1587
10733TIP3    H153690   3.788   6.129   2.774 -0.7684 -1.6608 -0.7365
10733TIP3    H253691   3.793   6.177   2.631  1.4228  1.1525  0.2023
10734TIP3   OH253692   2.378   3.353   5.956  0.2968  0.3973 -0.2692
10734TIP3    H153693   2.318   3.320   5.890  0.2277 -0.2087  0.0918
10734TIP3    H253694   2.433   3.278   5.978 -0.5461  0.1991  1.3307
10735TIP3   OH253695   3.096   6.452  12.662 -0.2981  0.0037 -0.2633
10735TIP3    H153696   3.005   6.437  12.685  0.0312 -3.5651 -0.7748
10735TIP3    H253697   3.137   6.365  12.664  2.2728  0.9164 -3.4076
10736TIP3   OH253698   5.402   0.568   1.417  0.5245  0.0718  0.0238
10736TIP3    H153699   5.313   0.602   1.425  0.0425 -1.0475 -0.3540
10736TIP3    H253700   5.410   0.505   1.489  1.0861  0.3227  0.1851
10737TIP3   OH253701   5.117   0.184  14.579  0.2950 -0.2564 -0.3265
10737TIP3    H153702   5.157   0.125  14.515  2.4383  0.3766  0.3326
10737TIP3    H253703   5.099   0.128  14.655 -1.4092 -0.8222 -1.1125
10738TIP3   OH253704   2.235   4.411  11.804 -0.1308 -0.0533 -0.6144
10738TIP3    H153705   2.248   4.500  11.771  0.2597  0.9991  2.1075
10738TIP3    H253706   2.264   4.355  11.732  1.1808  2.0370 -1.8380
10739TIP3   OH253707   2.317   3.739  13.274 -0.3357  0.2978  0.0434
10739TIP3    H153708   2.316   3.667  13.337 -1.8230 -1.2066 -1.5974
10739TIP3    H253709   2.261   3.806  13.314 -0.1542 -0.0619  0.9202
10740TIP3   OH253710   5.971   4.256   3.811 -0.2014  0.3226  0.0111
10740TIP3    H153711   5.944   4.242   3.720 -0.8770  1.7373 -0.0262
10740TIP3    H253712   5.909   4.321   3.844  1.7795  1.9807  0.6115
10741TIP3   OH253713   4.438   3.800   1.998 -0.6871  0.9254  0.3999
10741TIP3    H153714   4.406   3.889   1.990  0.1307  1.1621 -0.4355
10741TIP3    H253715   4.503   3.791   1.928 -2.7464 -1.2334 -1.3971
10742TIP3   OH253716   3.936   6.497   2.233  0.0844  0.4298 -0.1092
10742TIP3    H153717   3.845   6.517   2.252 -0.2558  1.6522 -2.6169
10742TIP3    H253718   3.972   6.465   2.316 -3.0898 -2.0564  0.4921
10743TIP3   OH253719   0.873   4.891   5.707 -0.4551  0.6088  0.1578
10743TIP3    H153720   0.811   4.945   5.657  2.1362  2.1061 -1.6495
10743TIP3    H253721   0.878   4.809   5.659 -2.7079 -0.5196  1.6599
10744TIP3   OH253722   1.512   0.344   2.855  0.1425  0.1251  0.0452
10744TIP3    H153723   1.567   0.301   2.790 -0.3659 -2.2414  1.0548
10744TIP3    H253724   1.574   0.388   2.913  0.9869 -1.6494  0.5862
10745TIP3   OH253725   5.232   5.407   5.354  0.8913  0.1174 -0.0383
10745TIP3    H153726   5.224   5.364   5.268 -1.1129  0.2587  0.0279
10745TIP3    H253727   5.200   5.496   5.338 -1.2009 -0.3476  1.1667
10746TIP3   OH253728   3.218   3.780  11.597  0.2783 -0.3690  0.2543
10746TIP3    H153729   3.281   3.826  11.652  1.1998 -0.0219 -1.0347
10746TIP3    H253730   3.182   3.847  11.539 -1.5914 -0.4932  1.2153
10747TIP3   OH253731   6.252   1.705   2.989  0.0503  0.3277 -0.0715
10747TIP3    H153732   6.281   1.719   3.080 -0.6868  1.7476 -0.0133
10747TIP3    H253733   6.332   1.691   2.940  0.4448 -0.7258  0.8367
10748TIP3   OH253734   4.189   1.414   3.945 -0.0119  0.0453  0.1259
10748TIP3    H153735   4.170   1.405   4.039 -1.6767 -1.7782 -0.3189
10748TIP3    H253736   4.284   1.405   3.940 -0.0346 -1.6792  1.5164
10749TIP3   OH253737   5.487   6.855   4.451 -0.0866 -0.1672 -0.0775
10749TIP3    H153738   5.417   6.837   4.513  0.5866  1.1176  1.1319
10749TIP3    H253739   5.442   6.883   4.371 -0.9633 -1.7537 -0.1731
10750TIP3   OH253740   4.273   0.652   1.912 -0.6578  0.0215  0.3748
10750TIP3    H153741   4.231   0.675   1.995  0.9123 -0.5351  1.3728
10750TIP3    H253742   4.270   0.557   1.909  0.4000 -0.0310  0.4322
10751TIP3   OH253743   2.339   6.876   4.469  0.5335 -0.1356 -0.1090
10751TIP3    H153744   2.250   6.891   4.436  1.1838  0.9491 -1.4598
10751TIP3    H253745   2.335   6.789   4.509 -0.9926 -0.3544 -0.6548
10752TIP3   OH253746   1.261   2.582   4.739  0.1706 -0.3977  0.3732
10752TIP3    H153747   1.310   2.516   4.690  0.3823  0.1352 -0.1461
10752TIP3    H253748   1.247   2.653   4.676  1.2902  0.7275  1.3231
10753TIP3   OH253749   5.304   0.584   4.435  0.6575 -0.0650  0.3166
10753TIP3    H153750   5.395   0.555   4.435  0.7049  0.0761  0.7956
10753TIP3    H253751   5.305   0.666   4.483  0.6910  1.3229 -1.9202
10754TIP3   OH253752   1.566   0.134   2.597  0.3070 -0.2585  0.3510
10754TIP3    H153753   1.485   0.120   2.645 -0.5155  0.6085 -0.7314
10754TIP3    H253754   1.538   0.173   2.514  1.8110 -0.1963 -0.1527
10755TIP3   OH253755   6.104   1.693   4.745  0.6053 -0.5482  0.1398
10755TIP3    H153756   6.180   1.641   4.719  0.4922  0.2006 -1.8563
10755TIP3    H253757   6.141   1.777   4.771  0.4931 -0.2132 -0.7482
10756TIP3   OH253758   1.622   3.041   3.327  0.1088 -0.2788  0.3010
10756TIP3    H153759   1.562   3.101   3.371  0.9751 -0.1180  1.2918
10756TIP3    H253760   1.673   3.097   3.269 -0.2281 -0.3215 -0.0456
10757TIP3   OH253761   4.464   5.813   1.876 -0.2148 -0.3530 -0.3807
10757TIP3    H153762   4.511   5.887   1.837 -2.5149  1.8893  0.7900
10757TIP3    H253763   4.504   5.802   1.962  0.5494 -0.9261 -0.7998
10758TIP3   OH253764   1.403   2.110   4.166  0.2164 -0.8656 -0.0546
10758TIP3    H153765   1.367   2.176   4.225 -0.6446 -0.5883 -0.8702
10758TIP3    H253766   1.402   2.151   4.079 -0.6349 -2.0402 -0.6256
10759TIP3   OH253767   6.121   0.033   3.416 -0.0202  0.4468 -0.1875
10759TIP3    H153768   6.074   0.116   3.429  0.7339  1.3392 -2.5498
10759TIP3    H253769   6.055  -0.034   3.433 -0.1774  1.3364  3.7250
10760TIP3   OH253770   2.767   2.842  11.513 -0.1377 -0.0408  0.9126
10760TIP3    H153771   2.709   2.775  11.478  0.8504 -0.0096 -0.8757
10760TIP3    H253772   2.777   2.819  11.606 -0.8803 -1.5741  0.6414
10761TIP3   OH253773   2.223   0.024   4.260 -0.5119  0.1631  0.5880
10761TIP3    H153774   2.179  -0.025   4.329 -0.0207 -1.5602 -0.2694
10761TIP3    H253775   2.279  -0.040   4.217 -1.6124  0.9109 -2.1241
10762TIP3   OH253776   5.759   2.042  12.792  0.0679 -0.2302 -0.3116
10762TIP3    H153777   5.804   1.981  12.851 -0.5746 -0.4090  0.0032
10762TIP3    H253778   5.714   1.987  12.729 -0.2007 -0.0715 -0.2600
10763TIP3   OH253779   2.819   3.984   5.749 -0.1872 -0.0753 -0.3237
10763TIP3    H153780   2.755   4.021   5.688 -0.4559 -0.3640 -0.2173
10763TIP3    H253781   2.816   3.890   5.733  2.7737  0.1100 -2.8518
10764TIP3   OH253782   3.410   6.202   2.538 -0.0351 -0.3640  0.0961
10764TIP3    H153783   3.410   6.293   2.508  0.2387 -0.8624 -1.4907
10764TIP3    H253784   3.392   6.208   2.632  1.3476  1.4087  0.2999
10765TIP3   OH253785   4.048   2.595   0.407  0.3399 -0.3155 -0.1200
10765TIP3    H153786   4.043   2.670   0.348  0.7238 -1.0297 -1.0722
10765TIP3    H253787   4.139   2.596   0.439 -0.2521  0.9758  1.7109
10766TIP3   OH253788   5.110   5.627   0.275 -0.1543  0.0868  0.1722
10766TIP3    H153789   5.137   5.577   0.199 -0.3447 -1.4349  1.0697
10766TIP3    H253790   5.019   5.651   0.258  0.0246  0.4034 -0.3814
10767TIP3   OH253791   1.312   4.771   3.036  0.6083 -0.2985  0.1726
10767TIP3    H153792   1.303   4.767   2.941 -0.9736  0.1071  0.2695
10767TIP3    H253793   1.312   4.680   3.064  0.3372 -0.4052 -0.1687
10768TIP3   OH253794   2.339   6.645   3.065  0.1178  0.1861  0.2392
10768TIP3    H153795   2.373   6.653   3.154  1.2811 -1.1225 -0.0515
10768TIP3    H253796   2.417   6.645   3.010 -0.5056 -0.3322 -0.6679
10769TIP3   OH253797   5.545   4.828   4.630  0.2521  0.3994 -0.3719
10769TIP3    H153798   5.527   4.889   4.702  0.4988  1.8130 -1.4637
10769TIP3    H253799   5.546   4.742   4.672  2.9189  1.3202  1.8399
10770TIP3   OH253800   0.558   5.797   2.943  0.0199 -1.1495 -0.3043
10770TIP3    H153801   0.588   5.793   2.852 -0.0547 -3.0765 -0.2719
10770TIP3    H253802   0.469   5.763   2.941 -0.6844  0.5715  0.2412
10771TIP3   OH253803   2.218   5.577  11.393  0.1438  0.0323 -0.4586
10771TIP3    H153804   2.264   5.648  11.349 -1.3220  0.3794 -1.5090
10771TIP3    H253805   2.126   5.590  11.371 -0.4750 -0.7405  1.4020
10772TIP3   OH253806   4.356   4.881   9.676 -0.8498 -0.2537  0.2631
10772TIP3    H153807   4.378   4.939   9.603  0.8942 -0.8278  0.2832
10772TIP3    H253808   4.388   4.927   9.753 -1.1156 -0.4281  0.4771
10773TIP3   OH253809   1.397   1.611   1.221 -0.4978  0.4546 -0.4158
10773TIP3    H153810   1.328   1.556   1.185 -0.9406  0.1229  0.9114
10773TIP3    H253811   1.355   1.695   1.239 -0.5692  0.2557  0.3850
10774TIP3   OH253812   6.683   4.955   0.766 -0.1007  0.1567 -0.1016
10774TIP3    H153813   6.682   4.865   0.734  0.3641 -0.4386  1.4386
10774TIP3    H253814   6.769   4.989   0.739  0.9688 -0.8665  1.7370
10775TIP3   OH253815   4.120   1.030   5.901 -1.3623 -0.4164 -0.0003
10775TIP3    H153816   4.077   0.996   5.980  1.6250 -0.7726  1.5971
10775TIP3    H253817   4.096   0.967   5.832 -0.1810 -2.9371  1.7405
10776TIP3   OH253818   6.324   6.371   0.257 -0.3527  0.2102  0.0535
10776TIP3    H153819   6.292   6.289   0.222  0.2295 -0.2918  0.6543
10776TIP3    H253820   6.419   6.359   0.263 -0.1139  1.3696 -0.9763
10777TIP3   OH253821   0.665   6.724   3.333 -0.2139  0.1049 -0.1488
10777TIP3    H153822   0.660   6.761   3.421  1.6489 -1.6766  0.7794
10777TIP3    H253823   0.753   6.745   3.303 -1.1604  1.6485 -2.1332
10778TIP3   OH253824   0.335   0.982  10.123  0.3090  0.0148  0.3298
10778TIP3    H153825   0.369   1.072  10.125 -1.1206  0.5887  2.0894
10778TIP3    H253826   0.287   0.973  10.205 -3.0549 -0.9688 -1.5637
10779TIP3   OH253827   0.692   3.779   3.007 -0.0159 -0.3468 -0.3116
10779TIP3    H153828   0.763   3.840   2.986  1.4549 -1.3559  1.4577
10779TIP3    H253829   0.613   3.823   2.975  1.2014  1.5928 -0.8440
10780TIP3   OH253830   2.790   5.955   4.031 -0.1350 -0.6195 -0.6733
10780TIP3    H153831   2.772   6.005   4.110  3.2378  2.9903 -1.8563
10780TIP3    H253832   2.857   5.891   4.058  1.9507  1.4332 -0.6473
10781TIP3   OH253833   1.985   0.751   1.403 -0.0474  0.5593  0.9778
10781TIP3    H153834   2.028   0.789   1.326 -2.4064  0.3234 -0.5586
10781TIP3    H253835   2.057   0.731   1.463  1.8059  1.6326 -0.7540
10782TIP3   OH253836   4.601   4.033   3.976 -0.7471 -0.1255  0.1778
10782TIP3    H153837   4.537   3.962   3.974 -1.3245  0.3255  1.2873
10782TIP3    H253838   4.552   4.110   3.948 -0.2298 -0.0734 -0.6267
10783TIP3   OH253839   3.898   4.055   0.501  0.3953  0.0240 -0.1444
10783TIP3    H153840   3.955   4.107   0.558 -0.2183 -0.2471  0.7383
10783TIP3    H253841   3.957   4.018   0.436  1.1980 -0.0936  0.6344
10784TIP3   OH253842   3.554   5.102  13.356 -0.7791 -0.0250  0.1249
10784TIP3    H153843   3.477   5.158  13.361 -0.0911  0.9131  0.4757
10784TIP3    H253844   3.614   5.137  13.421 -0.3750 -1.2616  0.4501
10785TIP3   OH253845   0.696   4.869   2.774 -0.0285  0.5915 -0.1871
10785TIP3    H153846   0.613   4.907   2.804 -0.1616  0.5052 -0.4351
10785TIP3    H253847   0.738   4.940   2.724 -0.0671  0.5589 -0.2667
10786TIP3   OH253848   0.398   1.486   0.696 -0.1403 -0.2361 -0.3171
10786TIP3    H153849   0.357   1.549   0.755  1.3617  0.4414  0.0529
10786TIP3    H253850   0.324   1.437   0.659 -1.1985  0.0429  1.2803
10787TIP3   OH253851   6.092   3.941   9.838  0.3855 -0.3678  0.6949
10787TIP3    H153852   6.046   3.980   9.764 -1.8697 -1.8845  1.1880
10787TIP3    H253853   6.088   3.846   9.822 -0.9948 -0.8083  3.1244
10788TIP3   OH253854   1.549   4.897   1.592 -0.3752  0.0728 -0.8886
10788TIP3    H153855   1.566   4.990   1.578  0.8676  0.5790  2.9062
10788TIP3    H253856   1.614   4.853   1.538 -0.2474  1.3851 -1.8774
10789TIP3   OH253857   1.974   6.775  13.384  0.2126  0.2042  0.3436
10789TIP3    H153858   2.054   6.822  13.405  0.7769  0.0048 -1.2735
10789TIP3    H253859   1.980   6.756  13.291 -1.0343 -1.1211  0.4904
10790TIP3   OH253860   4.247   0.337   3.027  0.3155  0.1099  0.1594
10790TIP3    H153861   4.216   0.342   3.117  0.7022 -0.3860  0.3257
10790TIP3    H253862   4.170   0.354   2.974 -0.1044 -0.4578  0.5763
10791TIP3   OH253863   3.958   5.567   3.121 -0.5088 -0.2319  0.6201
10791TIP3    H153864   4.000   5.644   3.160  0.0467  0.8848 -1.9549
10791TIP3    H253865   4.022   5.497   3.130 -0.3690  0.0181  1.6204
10792TIP3   OH253866   3.692   2.291  11.036 -0.1704  0.5812  0.5474
10792TIP3    H153867   3.650   2.350  11.098  0.6225  1.5045  0.2353
10792TIP3    H253868   3.774   2.334  11.014 -1.2775  1.3580 -2.6988
10793TIP3   OH253869   3.658   2.257  13.462 -0.2276 -0.1220  0.2479
10793TIP3    H153870   3.736   2.218  13.422 -0.9202  0.1225 -1.4549
10793TIP3    H253871   3.604   2.182  13.489 -0.2172 -0.3169 -0.2637
10794TIP3   OH253872   2.513   5.120   5.028 -0.0738 -0.1740 -0.5475
10794TIP3    H153873   2.452   5.149   5.096 -0.0228  0.9445 -0.9752
10794TIP3    H253874   2.586   5.081   5.077 -0.5133 -0.3311  0.0003
10795TIP3   OH253875   0.181   7.024   5.330 -0.5497 -0.1136 -0.1741
10795TIP3    H153876   0.238   7.004   5.404  0.8282 -0.3775 -1.2727
10795TIP3    H253877   0.178   7.119   5.325  1.9460 -0.0224 -1.6317
10796TIP3   OH253878   2.514   5.515  13.570 -0.7208 -0.6576  0.1794
10796TIP3    H153879   2.487   5.465  13.493  1.0789 -1.8309  0.2504
10796TIP3    H253880   2.531   5.603  13.535 -0.1501 -1.1124 -0.7381
10797TIP3   OH253881   6.471   2.708   1.072  0.2031 -0.4634  0.3047
10797TIP3    H153882   6.382   2.720   1.036  0.9408  0.7077 -1.2774
10797TIP3    H253883   6.480   2.778   1.136  0.2647 -0.0801 -0.1208
10798TIP3   OH253884   3.190   6.194  12.025 -0.2425  0.5769  0.3844
10798TIP3    H153885   3.213   6.156  12.110 -0.7627  0.0962  0.3125
10798TIP3    H253886   3.272   6.194  11.976  0.0847  0.9497  0.9142
10799TIP3   OH253887   2.623   2.858   2.188  0.7568 -0.2726  0.0066
10799TIP3    H153888   2.636   2.834   2.280 -1.4120  0.3834  0.5441
10799TIP3    H253889   2.563   2.792   2.154 -0.2006  0.7156 -0.2907
10800TIP3   OH253890   4.458   1.600  14.817  0.6552  0.1828 -0.3619
10800TIP3    H153891   4.461   1.680  14.763  1.1833 -0.1141 -0.7884
10800TIP3    H253892   4.517   1.619  14.890  0.3995  0.3636 -0.1994
10801TIP3   OH253893   4.454   3.617   0.174  0.2446  0.5700  0.2068
10801TIP3    H153894   4.373   3.663   0.152 -0.0015  1.0654  1.9479
10801TIP3    H253895   4.519   3.687   0.184  0.1271  0.4908  1.8078
10802TIP3   OH253896   0.518   0.065   5.826 -0.4674  0.6588  0.2774
10802TIP3    H153897   0.424   0.079   5.840 -0.9305 -2.4773  1.0080
10802TIP3    H253898   0.558   0.146   5.857 -2.8764  1.8750  0.4972
10803TIP3   OH253899   0.359   5.194   2.594  0.0525  0.2403 -0.2970
10803TIP3    H153900   0.448   5.230   2.588 -1.3815  3.9574 -3.5305
10803TIP3    H253901   0.304   5.269   2.616 -2.6106 -1.3673 -0.9916
10804TIP3   OH253902   0.352   2.656  10.966  0.4490  0.0043  0.2318
10804TIP3    H153903   0.306   2.693  11.042 -1.2662  0.0614 -0.7861
10804TIP3    H253904   0.346   2.724  10.899  2.0142 -0.0149  0.0312
10805TIP3   OH253905   0.231   4.458   4.060  0.1080  0.5178 -0.5682
10805TIP3    H153906   0.314   4.416   4.083 -0.1044 -0.5514 -1.6359
10805TIP3    H253907   0.192   4.482   4.144  0.6190 -0.7361  0.0598
10806TIP3   OH253908   4.946   6.140   4.441 -0.1910  0.0936  0.3424
10806TIP3    H153909   4.894   6.157   4.363 -0.3744  0.8265  0.6202
10806TIP3    H253910   4.918   6.206   4.504 -0.3820 -0.7889  1.2004
10807TIP3   OH253911   4.737   2.882   1.216 -0.1392  0.8632  0.0044
10807TIP3    H153912   4.688   2.933   1.152 -0.4934  0.0475 -0.3908
10807TIP3    H253913   4.670   2.836   1.267  0.1907  0.0624 -0.2652
10808TIP3   OH253914   6.439   1.267   4.804 -0.2236 -0.4431 -0.0724
10808TIP3    H153915   6.492   1.325   4.749  1.2818 -1.4094  0.3014
10808TIP3    H253916   6.363   1.320   4.828  0.8502  1.2135 -0.1475
10809TIP3   OH253917   1.675   1.824  13.456  0.2780  0.1787 -0.0449
10809TIP3    H153918   1.698   1.916  13.468 -0.3120  0.4808 -1.1758
10809TIP3    H253919   1.752   1.785  13.415  0.4199  0.2325  0.1707
10810TIP3   OH253920   2.889   6.624   4.295 -0.3389  0.5670 -0.6891
10810TIP3    H153921   2.814   6.683   4.300 -0.1419  0.6923  2.0554
10810TIP3    H253922   2.926   6.625   4.383  1.9836 -0.6851 -1.5789
10811TIP3   OH253923   4.129   3.588  13.662 -0.3639  0.2022  0.5152
10811TIP3    H153924   4.203   3.611  13.606  0.6450 -0.9667  1.3121
10811TIP3    H253925   4.128   3.655  13.730 -1.7457  1.7736 -0.9500
10812TIP3   OH253926   1.673   0.456  14.214  0.2637  0.2097  0.4413
10812TIP3    H153927   1.646   0.494  14.298  0.0836  0.7779  0.1258
10812TIP3    H253928   1.698   0.531  14.160  1.2239 -0.2155  0.2785
10813TIP3   OH253929   6.412   3.905   2.818  0.0036  0.0424  0.3996
10813TIP3    H153930   6.370   3.834   2.866  1.8339 -0.7741  0.8833
10813TIP3    H253931   6.349   3.929   2.750 -0.5809 -2.1975  0.0853
10814TIP3   OH253932   4.907   7.154  14.419  0.0852  0.4936 -0.3020
10814TIP3    H153933   4.927   7.195  14.334 -1.7399  0.4819 -0.7869
10814TIP3    H253934   4.871   7.225  14.472 -1.4152 -0.0582 -0.5330
10815TIP3   OH253935   6.184   0.017   5.260  0.0050 -0.4479 -0.2803
10815TIP3    H153936   6.247   0.035   5.190 -0.6520  0.3193 -0.7057
10815TIP3    H253937   6.235   0.018   5.340  0.5163  0.3434 -0.6008
10816TIP3   OH253938   2.226   3.354  12.508  0.5090 -0.0899 -0.3493
10816TIP3    H153939   2.269   3.343  12.593 -0.0468 -0.9766 -0.1650
10816TIP3    H253940   2.296   3.378  12.448  0.8461  0.9424  0.4377
10817TIP3   OH253941   1.840   3.334  10.858 -0.1205 -0.0311  0.3054
10817TIP3    H153942   1.824   3.258  10.802 -0.0077 -0.5929  1.0333
10817TIP3    H253943   1.904   3.386  10.809  0.1732 -0.6482  0.0228
10818TIP3   OH253944   5.002   1.861   5.180  0.0586  0.2216 -0.0811
10818TIP3    H153945   5.058   1.794   5.142 -2.1340 -2.0954  0.5637
10818TIP3    H253946   4.944   1.814   5.241 -2.1382  2.5400 -0.1960
10819TIP3   OH253947   6.622   3.165   1.156  0.1885 -0.3187  0.1170
10819TIP3    H153948   6.597   3.118   1.235  0.4140  0.2973  0.5651
10819TIP3    H253949   6.717   3.153   1.149  0.6310  1.8410  1.4654
10820TIP3   OH253950   2.654   4.116  13.742 -0.4010  0.0317 -0.1735
10820TIP3    H153951   2.747   4.125  13.724 -0.7560  1.2269 -1.5454
10820TIP3    H253952   2.632   4.029  13.708  0.2637 -0.4187  0.5042
10821TIP3   OH253953   3.725   3.565   4.419  0.3952 -0.8717 -0.3742
10821TIP3    H153954   3.741   3.480   4.378 -1.1750 -0.3179 -2.2802
10821TIP3    H253955   3.654   3.604   4.368  0.8300  1.4664  0.6561
10822TIP3   OH253956   6.651   1.121   2.887  0.9856 -0.0653 -0.1233
10822TIP3    H153957   6.619   1.193   2.941  0.2172 -0.2494 -0.3256
10822TIP3    H253958   6.732   1.154   2.849  1.7125 -0.0338  1.3680
10823TIP3   OH253959   6.480   1.737  14.100 -0.5584  0.4342 -0.1028
10823TIP3    H153960   6.531   1.669  14.056  1.0529  0.3198  1.7640
10823TIP3    H253961   6.486   1.813  14.042 -0.9124 -0.4930 -1.3885
10824TIP3   OH253962   2.826   4.254   9.506  0.2600 -0.3941  0.5770
10824TIP3    H153963   2.845   4.260   9.412 -0.1791 -0.9928  0.4457
10824TIP3    H253964   2.783   4.336   9.527  0.1161 -0.3694  0.1929
10825TIP3   OH253965   3.627   5.015   0.168  0.5893 -0.6860  0.5897
10825TIP3    H153966   3.598   4.926   0.146 -0.1923 -0.6882  1.5595
10825TIP3    H253967   3.562   5.047   0.231  1.2334  0.3227  0.7686
10826TIP3   OH253968   4.627   2.965   9.659  0.5022  0.1226 -0.4844
10826TIP3    H153969   4.675   3.000   9.584  1.8482  1.4880  0.9422
10826TIP3    H253970   4.567   3.035   9.684 -0.6305 -0.6954 -0.8430
10827TIP3   OH253971   6.161   0.644   1.723  0.1108  0.2006  1.1126
10827TIP3    H153972   6.177   0.738   1.729 -0.5555  0.4004  0.0836
10827TIP3    H253973   6.094   0.636   1.655  1.6705 -1.1440 -0.3825
10828TIP3   OH253974   3.197   0.039  11.314  0.0783 -0.5665 -0.4839
10828TIP3    H153975   3.187   0.021  11.221  2.0614 -0.8204 -0.6905
10828TIP3    H253976   3.157  -0.037  11.357  1.3560 -1.7057 -1.2108
10829TIP3   OH253977   2.873   1.160   2.838  0.1674  0.6071  0.8831
10829TIP3    H153978   2.829   1.121   2.913  0.8485  1.9598  2.0168
10829TIP3    H253979   2.925   1.232   2.874 -2.3898  3.8145 -1.2226
10830TIP3   OH253980   5.050   7.124   4.975 -0.1337  0.2358 -0.4499
10830TIP3    H153981   4.982   7.087   5.030  1.0246  0.3029  1.1157
10830TIP3    H253982   5.004   7.180   4.913 -1.4617  0.6891  0.8972
10831TIP3   OH253983   2.719   5.690   4.225 -0.6861 -0.1919 -0.5986
10831TIP3    H153984   2.689   5.758   4.285 -2.2007 -1.2768 -0.0657
10831TIP3    H253985   2.699   5.608   4.270  0.4126 -1.0144 -1.5408
10832TIP3   OH253986   4.935   1.466   5.486 -0.6904  0.2302 -0.0525
10832TIP3    H153987   4.932   1.524   5.562 -1.3582  0.7400 -0.4574
10832TIP3    H253988   4.985   1.514   5.420 -0.4532 -0.0448 -0.0797
10833TIP3   OH253989   6.202   6.863   4.586 -0.1057  0.4499  0.5032
10833TIP3    H153990   6.157   6.925   4.644 -0.1766  1.2802 -0.3978
10833TIP3    H253991   6.254   6.808   4.644 -0.6728  0.8345  1.3981
10834TIP3   OH253992   6.274   4.771  14.331  0.2178 -0.3300 -0.8044
10834TIP3    H153993   6.353   4.720  14.349  0.3707 -0.1520 -0.9705
10834TIP3    H253994   6.299   4.861  14.348 -0.2192 -0.3617  0.0484
10835TIP3   OH253995   0.354   0.128   0.208  0.7782  0.0562  0.1497
10835TIP3    H153996   0.309   0.190   0.266 -0.4833  0.3816 -1.1081
10835TIP3    H253997   0.437   0.170   0.188 -0.5577  2.0537 -1.6974
10836TIP3   OH253998   4.006   1.730   3.474  0.2083  0.5194  0.1687
10836TIP3    H153999   3.977   1.706   3.562 -0.3740 -0.5590 -0.2919
10836TIP3    H254000   4.025   1.646   3.432 -0.6061  0.9455 -1.0896
10837TIP3   OH254001   4.430   0.166   4.024  0.0111  0.2847  0.0195
10837TIP3    H154002   4.513   0.178   4.069  0.3446  0.4800 -0.6300
10837TIP3    H254003   4.378   0.111   4.083  0.6351  0.0790  0.3848
10838TIP3   OH254004   6.712   6.993  14.891  0.2994 -0.1779 -0.1041
10838TIP3    H154005   6.768   6.969  14.965 -0.0288  0.2961  0.3073
10838TIP3    H254006   6.683   6.910  14.855  0.9450 -0.4224 -0.0741
10839TIP3   OH254007   3.316   6.361   1.963 -0.4708  0.0697 -0.7128
10839TIP3    H154008   3.225   6.366   1.993  0.0482 -0.2799  1.0716
10839TIP3    H254009   3.328   6.440   1.911 -1.6131  0.4717 -0.4078
10840TIP3   OH254010   1.118   6.113  12.115 -0.1862  0.3526 -0.5091
10840TIP3    H154011   1.035   6.111  12.163  0.0905  0.8337 -0.0045
10840TIP3    H254012   1.161   6.030  12.139  0.0552  0.6979  0.2711
10841TIP3   OH254013   2.063   5.565   1.512  0.3771  0.1566 -0.0353
10841TIP3    H154014   2.067   5.497   1.580  1.5345  1.0923  0.8741
10841TIP3    H254015   1.998   5.533   1.450  1.9505 -2.5297 -0.4421
10842TIP3   OH254016   3.363   0.940   2.685  0.1111 -0.3069 -0.2100
10842TIP3    H154017   3.318   0.985   2.756  2.9283  0.8918  0.9755
10842TIP3    H254018   3.385   1.008   2.622  0.8086 -0.7122 -0.4242
10843TIP3   OH254019   3.572   5.114  15.147  0.2413 -0.1235  0.2575
10843TIP3    H154020   3.562   5.105  15.052 -1.7283 -0.5233  0.4665
10843TIP3    H254021   3.517   5.045  15.183 -0.9063  1.4843  1.7206
10844TIP3   OH254022   6.903   0.109  13.600 -0.0606 -0.1600  0.2294
10844TIP3    H154023   6.829   0.143  13.549  0.4126 -0.4473 -0.6671
10844TIP3    H254024   6.863   0.064  13.673 -0.7392  1.4544  0.9096
10845TIP3   OH254025   7.040   5.303   0.032  0.0700 -0.3345  0.9663
10845TIP3    H154026   7.112   5.295  -0.031 -1.5358  1.4257 -1.2357
10845TIP3    H254027   7.073   5.259   0.111  2.8323 -1.1721 -0.5089
10846TIP3   OH254028   5.987   4.907   1.455  0.3777 -0.8678 -0.5355
10846TIP3    H154029   6.032   4.971   1.401 -2.4129  2.5273  0.7534
10846TIP3    H254030   5.936   4.854   1.394 -2.1941  2.4367 -1.5227
10847TIP3   OH254031   3.667   1.832   2.592 -0.3304  0.9641 -0.1577
10847TIP3    H154032   3.718   1.796   2.664  1.5362  0.6183 -1.6022
10847TIP3    H254033   3.640   1.755   2.541  0.4904  1.3337 -1.1809
10848TIP3   OH254034   7.112   4.496  14.739  0.1452 -0.0283 -0.4477
10848TIP3    H154035   7.168   4.434  14.786  1.1679  1.4477  0.3840
10848TIP3    H254036   7.023   4.470  14.761  0.4959 -1.9580 -1.1700
10849TIP3   OH254037   4.194   4.671  13.513 -0.0404  0.3365  0.4022
10849TIP3    H154038   4.274   4.649  13.559 -0.6942 -1.3528  0.8269
10849TIP3    H254039   4.180   4.764  13.531 -0.0745 -0.1392  3.3354
10850TIP3   OH254040   1.156   6.469   2.154 -0.1203  1.1312  0.0064
10850TIP3    H154041   1.140   6.408   2.226  0.2981 -1.0231 -1.6307
10850TIP3    H254042   1.249   6.490   2.161  0.5227 -1.0149 -1.2455
10851TIP3   OH254043   5.352   5.671   5.028  0.2269 -0.7282  1.1054
10851TIP3    H154044   5.349   5.737   4.959 -1.2342 -0.0676  1.7564
10851TIP3    H254045   5.421   5.611   5.000  1.5396  1.0003  0.4439
10852TIP3   OH254046   4.139   3.780   9.428  0.4437  0.1450  0.1822
10852TIP3    H154047   4.076   3.779   9.356 -0.4998 -1.8493  0.9666
10852TIP3    H254048   4.217   3.737   9.394 -0.0483 -0.9131  0.3630
10853TIP3   OH254049   1.342   3.782  14.769 -0.7759  0.0089 -0.6443
10853TIP3    H154050   1.325   3.851  14.705 -0.2654  0.6863 -0.0768
10853TIP3    H254051   1.362   3.830  14.850  0.5419 -0.7770 -0.4711
10854TIP3   OH254052   7.009   5.017   0.430  0.0430 -0.3188 -0.5174
10854TIP3    H154053   7.001   5.045   0.521 -0.5601 -1.4310 -0.2096
10854TIP3    H254054   7.051   4.931   0.436 -1.3196 -1.0466 -1.1876
10855TIP3   OH254055   2.871   1.186   1.952  0.1067 -0.8942 -0.3029
10855TIP3    H154056   2.904   1.238   2.026  1.0789 -0.2564 -1.1633
10855TIP3    H254057   2.857   1.249   1.882 -1.7158 -1.3595 -0.4084
10856TIP3   OH254058   6.331   3.981  11.868 -0.3540 -0.2179 -0.2262
10856TIP3    H154059   6.276   4.030  11.807  1.6253  1.6328 -0.6194
10856TIP3    H254060   6.349   4.042  11.939 -0.3704 -1.4534  0.8927
10857TIP3   OH254061   1.979   1.429  13.508 -0.8112  0.1907 -0.4784
10857TIP3    H154062   1.953   1.393  13.593  0.8265  2.0986  0.9168
10857TIP3    H254063   2.049   1.371  13.477 -0.2973  0.4016  0.2699
10858TIP3   OH254064   3.356   2.101  15.269  0.2610  0.7694  0.3362
10858TIP3    H154065   3.428   2.042  15.292 -0.7432 -0.5384  0.2816
10858TIP3    H254066   3.312   2.118  15.351  0.6547  1.6306  0.3802
10859TIP3   OH254067   2.000   2.781  12.443  0.4604 -0.2387 -0.2999
10859TIP3    H154068   1.994   2.743  12.356 -0.8751  0.3941 -0.5105
10859TIP3    H254069   2.013   2.874  12.428 -1.3646  0.1219  0.1206
10860TIP3   OH254070   1.060   0.008   4.625  0.0631  0.0058  0.0230
10860TIP3    H154071   1.090  -0.054   4.692  0.8263 -0.0662 -0.3798
10860TIP3    H254072   1.030  -0.047   4.553 -0.6509  0.0875  0.2440
10861TIP3   OH254073   4.896   4.079  13.881 -0.3122 -0.7304  0.1178
10861TIP3    H154074   4.942   4.127  13.950  0.8784  0.3459 -1.3574
10861TIP3    H254075   4.900   4.137  13.805 -1.3707 -1.9805 -0.9415
10862TIP3   OH254076   0.349   4.083  15.173  0.1934  0.5622 -0.2431
10862TIP3    H154077   0.294   4.020  15.127  0.1801  1.7469 -1.9286
10862TIP3    H254078   0.303   4.101  15.255  0.8466 -2.5729  0.9792
10863TIP3   OH254079   2.341   1.137  14.029  0.0680 -0.0147 -0.0245
10863TIP3    H154080   2.279   1.200  14.066  0.2515 -0.7189  1.5298
10863TIP3    H254081   2.415   1.137  14.090  0.0902 -1.6996 -0.0107
10864TIP3   OH254082   7.217   0.507  11.946  0.5512 -0.3118 -0.3709
10864TIP3    H154083   7.140   0.466  11.906  0.6769 -1.5126  0.5954
10864TIP3    H254084   7.287   0.443  11.936  1.6966  1.0825 -1.9789
10865TIP3   OH254085   3.425   5.199   5.336 -0.2932  0.1065 -0.3082
10865TIP3    H154086   3.514   5.202   5.301  1.0875 -1.5660  2.6074
10865TIP3    H254087   3.425   5.260   5.409 -0.6115 -1.7990  1.3911
10866TIP3   OH254088   1.408   7.008  12.886  0.6849 -0.0569 -0.5762
10866TIP3    H154089   1.419   7.053  12.969 -0.1815 -1.8343  0.5544
10866TIP3    H254090   1.401   6.915  12.909 -0.3375 -0.5311 -2.5558
10867TIP3   OH254091   4.353   6.167  14.736 -0.0284 -0.2310 -0.9080
10867TIP3    H154092   4.319   6.192  14.822  0.7823  0.5172 -0.7872
10867TIP3    H254093   4.345   6.247  14.683  3.8710  0.9037 -0.1298
10868TIP3   OH254094   6.627   6.773  11.281  0.2365  0.6186  0.1773
10868TIP3    H154095   6.711   6.739  11.250  0.3787  1.8403 -0.8471
10868TIP3    H254096   6.649   6.824  11.359  0.4406  0.9344 -0.0883
10869TIP3   OH254097   2.024   6.857  11.492  0.6077  0.8166 -0.0725
10869TIP3    H154098   1.979   6.927  11.444  0.3187  0.6818  0.0006
10869TIP3    H254099   2.080   6.904  11.555 -0.3764  0.9801  0.7035
10870TIP3   OH254100   5.913   3.529  12.576  0.2160 -0.4192 -0.1548
10870TIP3    H154101   5.915   3.579  12.658 -1.6609 -1.1257  0.3680
10870TIP3    H254102   5.828   3.549  12.538  0.5311 -1.1430 -1.2880
10871TIP3   OH254103   4.038   2.023  11.549  0.7878  0.1158  0.1882
10871TIP3    H154104   3.956   2.061  11.517  0.7224 -0.1711  0.0153
10871TIP3    H254105   4.064   1.961  11.481  1.4463  0.6189 -0.0244
10872TIP3   OH254106   0.757   5.858  15.152 -0.4336 -0.1087 -0.0054
10872TIP3    H154107   0.845   5.831  15.125 -0.6109  0.0973 -0.7942
10872TIP3    H254108   0.752   5.831  15.244  0.8561  0.8623  0.3930
10873TIP3   OH254109   5.971   4.142  11.520 -0.1589  0.9908 -0.7497
10873TIP3    H154110   6.025   4.210  11.480 -0.2598  1.1124 -0.6780
10873TIP3    H254111   5.919   4.188  11.585 -1.2107  1.0841 -1.6266
10874TIP3   OH254112   4.060   5.530   2.348  0.4401  0.7284  0.0007
10874TIP3    H154113   4.021   5.614   2.372  1.7731  1.0381  1.2039
10874TIP3    H254114   4.032   5.516   2.257 -0.9614  1.7721  0.2401
10875TIP3   OH254115   4.584   2.825  15.066 -0.0007 -0.1650  0.0554
10875TIP3    H154116   4.553   2.886  14.999 -0.6314 -0.7971 -0.2358
10875TIP3    H254117   4.504   2.788  15.103  0.3731 -0.5598  0.4679
10876TIP3   OH254118   7.003   0.243  11.547 -0.5430  0.0303 -0.2839
10876TIP3    H154119   6.922   0.202  11.577 -0.5496 -0.1004 -0.4760
10876TIP3    H254120   7.069   0.174  11.554 -0.5749 -0.0474 -0.7069
10877TIP3   OH254121   2.288   5.974  11.342 -0.1818  0.1691  0.2780
10877TIP3    H154122   2.254   5.903  11.396 -1.7206  0.1942 -0.5960
10877TIP3    H254123   2.219   5.990  11.277 -0.5523  3.3689  1.2544
10878TIP3   OH254124   1.313   2.142  12.727 -0.2091  0.0999  0.1063
10878TIP3    H154125   1.277   2.226  12.754  0.3215  0.5681 -0.6164
10878TIP3    H254126   1.322   2.093  12.809 -2.4506 -0.0525  0.3420
10879TIP3   OH254127   6.477   5.053   3.895 -0.6116 -0.1333 -0.1709
10879TIP3    H154128   6.527   5.134   3.888 -0.1304 -0.4078  0.0643
10879TIP3    H254129   6.407   5.062   3.831 -1.8974  1.4323  1.3557
10880TIP3   OH254130   4.094   2.814   0.259  0.0431  0.3241  0.1893
10880TIP3    H154131   4.068   2.841   0.170  3.4695  1.8739 -0.4998
10880TIP3    H254132   4.078   2.891   0.313 -0.3445 -0.0122  0.5607
10881TIP3   OH254133   1.321   6.055   1.499 -0.6547  0.1510 -0.2979
10881TIP3    H154134   1.329   6.144   1.465  1.6305  0.1578  0.0713
10881TIP3    H254135   1.366   6.058   1.584 -0.8255 -1.2859 -0.1328
10882TIP3   OH254136   1.528   1.053   1.617 -0.1039  0.1446 -0.3957
10882TIP3    H154137   1.475   1.011   1.685 -1.7517  0.8616 -1.1790
10882TIP3    H254138   1.599   0.991   1.600  0.4235 -0.0125  2.0123
10883TIP3   OH254139   5.858   6.204   4.963 -0.0149  0.3443  0.3332
10883TIP3    H154140   5.889   6.117   4.989 -1.2117 -0.8249 -1.9531
10883TIP3    H254141   5.921   6.232   4.896 -1.2094 -0.0423 -0.9895
10884TIP3   OH254142   5.932   6.660   1.283 -0.3569  0.2695  0.3882
10884TIP3    H154143   5.876   6.697   1.350 -0.3285 -0.3316  0.7555
10884TIP3    H254144   5.945   6.569   1.310 -1.2420 -0.3007 -1.0115
10885TIP3   OH254145   0.957   2.588  14.265  0.2707 -0.5285  0.4772
10885TIP3    H154146   1.029   2.544  14.220  1.2270  1.9878 -0.6216
10885TIP3    H254147   0.966   2.561  14.357  0.4397 -2.9674 -0.1958
10886TIP3   OH254148   2.719   6.769  13.493 -0.4992  0.3068 -0.0401
10886TIP3    H154149   2.738   6.676  13.510 -0.2433  0.1533 -1.1027
10886TIP3    H254150   2.785   6.816  13.544 -0.2082 -0.1109 -0.0213
10887TIP3   OH254151   2.765   2.066  11.755 -0.6650 -0.1170  0.1385
10887TIP3    H154152   2.805   2.007  11.691  2.0546 -0.6812  2.1994
10887TIP3    H254153   2.830   2.134  11.770 -0.8447 -0.4433  2.8493
10888TIP3   OH254154   5.645   1.183   1.654  0.2168 -0.0724  0.1480
10888TIP3    H154155   5.674   1.201   1.565 -1.3050 -1.0136 -0.5824
10888TIP3    H254156   5.724   1.156   1.700  1.1322  0.9985 -0.7370
10889TIP3   OH254157   4.855   3.092  11.878  0.1204  0.2296  1.0977
10889TIP3    H154158   4.935   3.091  11.825 -0.4372 -0.4140  0.2453
10889TIP3    H254159   4.827   3.001  11.882 -1.0139  0.5415  0.6911
10890TIP3   OH254160   4.579   1.320   0.058 -0.3244  0.0167  0.0498
10890TIP3    H154161   4.659   1.330   0.108  0.0446 -0.0686 -0.5154
10890TIP3    H254162   4.560   1.408   0.026 -0.2755 -0.0210 -0.0849
10891TIP3   OH254163   0.747   1.694   1.546  0.0628 -0.0236  0.2144
10891TIP3    H154164   0.764   1.655   1.632  0.2211  0.8957  0.6118
10891TIP3    H254165   0.802   1.644   1.486  1.5583  0.6413  0.9721
10892TIP3   OH254166   1.799   1.046   2.292 -0.5165 -0.1666  0.0842
10892TIP3    H154167   1.818   1.014   2.203 -0.2917  2.1593 -0.7807
10892TIP3    H254168   1.869   1.011   2.346 -1.1211 -2.3160 -0.4568
10893TIP3   OH254169   3.254   0.227   0.194  0.2015 -0.2857 -0.1486
10893TIP3    H154170   3.321   0.290   0.218  1.4919 -0.2221 -3.4608
10893TIP3    H254171   3.213   0.263   0.116 -3.3293 -0.6812  1.3176
10894TIP3   OH254172   6.268   6.416  13.277 -0.1041 -0.6084 -0.1978
10894TIP3    H154173   6.281   6.322  13.264  0.5855 -0.5341 -0.0997
10894TIP3    H254174   6.346   6.444  13.326 -0.8543 -0.2065  0.8014
10895TIP3   OH254175   5.075   5.825   4.140 -0.4137  0.1540  0.2120
10895TIP3    H154176   5.093   5.813   4.047 -1.4902 -0.3480  0.0585
10895TIP3    H254177   5.008   5.893   4.143 -1.0972 -0.5221  0.5572
10896TIP3   OH254178   6.002   1.061   0.097  0.2780  0.4095  0.1628
10896TIP3    H154179   6.026   0.985   0.150 -0.1419  0.0874 -0.1019
10896TIP3    H254180   6.085   1.096   0.067  0.6077  1.3541  2.0585
10897TIP3   OH254181   4.116   6.019   3.683  0.1442 -0.4825  0.1742
10897TIP3    H154182   4.039   5.986   3.730 -0.1221 -0.5832 -0.3344
10897TIP3    H254183   4.083   6.093   3.633  0.4951 -0.1869  0.3767
10898TIP3   OH254184   2.160   2.710   1.950  0.3543 -0.3657 -0.4353
10898TIP3    H154185   2.207   2.788   1.977 -0.1436 -0.7539  1.6984
10898TIP3    H254186   2.077   2.713   1.998  0.9122 -2.8786  0.8935
10899TIP3   OH254187   4.989   3.350  13.684  0.5357  0.0039  0.3300
10899TIP3    H154188   5.032   3.404  13.618  0.1994 -0.6195 -0.4120
10899TIP3    H254189   5.057   3.335  13.750  1.5474 -1.0783 -0.8931
10900TIP3   OH254190   2.835   4.392  11.673 -0.3185  0.1470  0.0157
10900TIP3    H154191   2.748   4.411  11.638 -0.5951 -0.5455  0.3145
10900TIP3    H254192   2.869   4.323  11.617 -0.4093 -0.3463  0.5560
10901TIP3   OH254193   6.796   0.906   2.699 -0.0844 -0.2473 -0.2329
10901TIP3    H154194   6.875   0.876   2.744 -0.0149  1.7683  1.1437
10901TIP3    H254195   6.770   0.985   2.747 -2.8654 -0.7512 -0.7113
10902TIP3   OH254196   3.574   4.009  15.057  0.0737 -1.3636 -0.5043
10902TIP3    H154197   3.600   3.996  15.148  0.8403  1.6065 -0.2147
10902TIP3    H254198   3.627   3.946  15.008  2.4841 -0.4279  0.7787
10903TIP3   OH254199   3.551   4.525   0.595  0.0669 -0.4300 -0.6520
10903TIP3    H154200   3.590   4.506   0.680 -0.5511 -1.5852 -0.6018
10903TIP3    H254201   3.614   4.491   0.532  0.5900  0.5519 -0.6697
10904TIP3   OH254202   0.724   6.368   5.151 -0.0310  0.5730  0.1341
10904TIP3    H154203   0.657   6.318   5.197  0.2963  0.3085  0.3297
10904TIP3    H254204   0.694   6.370   5.060 -2.0858  3.3811  0.7392
10905TIP3   OH254205   2.670   7.253   4.842 -0.2160 -0.3012  0.8870
10905TIP3    H154206   2.698   7.269   4.752 -0.4296  0.4130  0.9413
10905TIP3    H254207   2.636   7.163   4.841  1.1983 -0.8450  0.6153
10906TIP3   OH254208   1.247   4.699   1.380 -0.1529 -1.2251 -0.1297
10906TIP3    H154209   1.206   4.730   1.460  0.1707 -0.2745 -0.3156
10906TIP3    H254210   1.341   4.696   1.400  0.3376  1.9763 -1.3175
10907TIP3   OH254211   3.153   6.178  12.695  0.1148  0.4473  0.4151
10907TIP3    H154212   3.129   6.170  12.788  4.2139  0.8936  1.7615
10907TIP3    H254213   3.228   6.118  12.685 -1.9782 -1.9143 -3.5362
10908TIP3   OH254214   3.687   6.623  11.902 -0.2691  0.6015  0.1984
10908TIP3    H154215   3.694   6.528  11.916 -0.2362  0.7777  1.5680
10908TIP3    H254216   3.635   6.654  11.977  1.3410  1.8995  0.8378
10909TIP3   OH254217   0.447   4.067  14.776  0.3093 -0.0967  0.0427
10909TIP3    H154218   0.480   4.060  14.687 -1.8314  1.7812 -1.0010
10909TIP3    H254219   0.525   4.058  14.831  2.0944  1.1737 -2.1173
10910TIP3   OH254220   5.456   0.576   5.191 -0.1351 -0.5067  0.1099
10910TIP3    H154221   5.541   0.555   5.230 -0.7624 -2.0886  0.6711
10910TIP3    H254222   5.394   0.568   5.263 -1.0889 -1.8376 -0.8146
10911TIP3   OH254223   5.257   7.159   4.580 -0.1070  0.5467  0.0615
10911TIP3    H154224   5.311   7.170   4.502 -0.4934  1.6787 -0.0746
10911TIP3    H254225   5.223   7.247   4.597 -0.7532  0.1320  0.9773
10912TIP3   OH254226   0.381   6.980  13.538  0.5613  0.1507  0.2274
10912TIP3    H154227   0.310   7.036  13.508  1.0771  0.5736 -0.2322
10912TIP3    H254228   0.360   6.893  13.504  0.0183  0.1639  0.5152
10913TIP3   OH254229   4.974   5.084  14.626  0.2134  0.1842 -0.5519
10913TIP3    H154230   4.967   5.071  14.721 -1.0174  1.6884 -0.4005
10913TIP3    H254231   5.059   5.127  14.614  0.8950 -1.0393 -0.2826
10914TIP3   OH254232   4.711   2.001   0.405  0.0326 -0.0101 -0.4306
10914TIP3    H154233   4.785   2.060   0.386 -0.2853  0.6266  0.2723
10914TIP3    H254234   4.699   2.008   0.499 -0.6894 -0.4066 -0.4918
10915TIP3   OH254235   0.416   5.925   3.363 -0.6211  0.0582 -0.2108
10915TIP3    H154236   0.370   5.914   3.280 -1.7268  1.7547  0.1221
10915TIP3    H254237   0.460   5.841   3.377 -0.5923 -0.3520 -2.3721
10916TIP3   OH254238   4.745   2.788   4.538 -0.4718  0.0685 -0.3169
10916TIP3    H154239   4.769   2.730   4.611 -0.2976  0.2313 -0.2431
10916TIP3    H254240   4.667   2.748   4.500 -0.2321 -0.3302 -0.3953
10917TIP3   OH254241   4.897   6.466   3.134 -0.1590  0.3658  0.3839
10917TIP3    H154242   4.842   6.419   3.071  2.7670 -1.7014 -0.8514
10917TIP3    H254243   4.913   6.551   3.094 -0.0555 -0.1376 -0.6743
10918TIP3   OH254244   3.814   1.378   0.295  0.1237  0.0337  0.1289
10918TIP3    H154245   3.861   1.306   0.252 -0.7376 -0.4523 -0.0312
10918TIP3    H254246   3.876   1.413   0.358  1.1405  0.2444 -0.9582
10919TIP3   OH254247   6.193   7.045   3.206 -0.3582 -0.5681 -0.3018
10919TIP3    H154248   6.108   7.009   3.231 -0.1901 -0.4770  0.4520
10919TIP3    H254249   6.254   6.973   3.219 -0.1596 -0.3060  0.2895
10920TIP3   OH254250   5.024   6.412   5.203  0.2036 -0.3754 -0.4892
10920TIP3    H154251   5.041   6.501   5.171  0.1821 -0.5230 -0.9129
10920TIP3    H254252   4.949   6.422   5.262  0.2183 -0.1085 -0.5135
10921TIP3   OH254253   3.486   2.053   3.963 -0.4735  0.3252  0.1325
10921TIP3    H154254   3.420   2.104   3.915  0.7060  2.5913  0.7719
10921TIP3    H254255   3.441   2.023   4.041 -1.0670  0.8718  0.0095
10922TIP3   OH254256   6.155   6.754   1.897  0.3707 -0.1802 -0.7082
10922TIP3    H154257   6.170   6.660   1.909 -0.2155 -0.4176 -1.6812
10922TIP3    H254258   6.090   6.759   1.826 -2.1970  0.8311  1.5331
10923TIP3   OH254259   3.730   2.353  13.812  1.0420  0.5148 -0.3505
10923TIP3    H154260   3.697   2.435  13.850  2.9980  1.8037 -1.2832
10923TIP3    H254261   3.722   2.289  13.882  0.7205  1.8222  0.8510
10924TIP3   OH254262   5.972   0.515   3.378  0.1859 -0.3016  0.1147
10924TIP3    H154263   5.973   0.581   3.309  0.6472 -0.0079  0.3955
10924TIP3    H254264   6.060   0.519   3.416  0.4469 -1.5462 -0.3087
10925TIP3   OH254265   2.682   0.089   4.582 -0.1097 -0.5695 -0.1160
10925TIP3    H154266   2.716   0.063   4.496 -1.7124 -0.5359 -0.8037
10925TIP3    H254267   2.587   0.087   4.571 -0.3451  1.7605  0.9467
10926TIP3   OH254268   6.367   6.067  10.496 -0.5058 -0.2923  0.0112
10926TIP3    H154269   6.401   5.981  10.520  1.0102  0.6844  1.6164
10926TIP3    H254270   6.419   6.092  10.419  0.4916  0.0077  0.7623
10927TIP3   OH254271   3.281   6.820   0.065  0.1176  0.3360 -0.1657
10927TIP3    H154272   3.287   6.728   0.041 -1.5210  0.2425 -0.3112
10927TIP3    H254273   3.328   6.826   0.148  3.7705  0.1998 -2.0526
10928TIP3   OH254274   5.733   6.540  11.904  0.4999  0.2527 -0.3373
10928TIP3    H154275   5.784   6.557  11.824  2.6976 -1.6078  0.5531
10928TIP3    H254276   5.736   6.445  11.915 -3.4294 -0.0172 -0.2548
10929TIP3   OH254277   3.384   7.225   4.582 -0.3296  0.4283 -0.0749
10929TIP3    H154278   3.292   7.249   4.573 -0.5343  0.0582  0.9141
10929TIP3    H254279   3.430   7.283   4.521 -1.3462 -0.3781 -1.6841
10930TIP3   OH254280   4.281   2.955  13.581 -0.0254  0.2034  0.3964
10930TIP3    H154281   4.228   2.995  13.512  0.0218  0.5283  0.5446
10930TIP3    H254282   4.362   3.007  13.582  1.2388 -1.5745 -1.2786
10931TIP3   OH254283   7.055   6.178   4.058  1.0542  0.0091 -0.2227
10931TIP3    H154284   6.968   6.147   4.032  0.6896  0.9269 -0.1334
10931TIP3    H254285   7.082   6.117   4.127 -0.6324  1.1669  1.5947
10932TIP3   OH254286   2.915   3.104   1.026 -0.0177 -0.0049 -0.0906
10932TIP3    H154287   2.821   3.085   1.036  0.0944 -0.4356  0.1927
10932TIP3    H254288   2.957   3.018   1.034  0.4572  0.2839  0.6091
10933TIP3   OH254289   4.676   6.789   1.549  0.1218 -0.1127  0.1937
10933TIP3    H154290   4.748   6.737   1.512 -0.6473 -1.4402  0.4703
10933TIP3    H254291   4.603   6.727   1.553 -0.7006  0.8885  0.9913
10934TIP3   OH254292   6.324   3.974   5.062 -0.6002  0.3117  0.3339
10934TIP3    H154293   6.374   3.906   5.016 -0.7060 -1.0200  2.0634
10934TIP3    H254294   6.263   4.008   4.996 -0.1132 -0.8451 -0.7503
10935TIP3   OH254295   6.398   6.476  11.665  0.5778 -0.0385 -0.1322
10935TIP3    H154296   6.431   6.428  11.742 -1.4207 -1.7852 -0.2700
10935TIP3    H254297   6.324   6.423  11.634  1.3623  0.5372 -3.3359
10936TIP3   OH254298   3.452   6.842  12.373  0.1294  0.3154 -0.8827
10936TIP3    H154299   3.504   6.888  12.439  0.5778 -0.6571 -0.5446
10936TIP3    H254300   3.417   6.766  12.418  0.6930 -0.5394 -1.8290
10937TIP3   OH254301   5.086   1.484   4.936 -0.8067  0.1720 -0.2037
10937TIP3    H154302   5.157   1.420   4.942  0.5510  1.2919 -2.6302
10937TIP3    H254303   5.128   1.569   4.954 -1.3117  0.9244 -2.2714
10938TIP3   OH254304   4.329   5.745   5.106  0.0574  0.1814 -0.3638
10938TIP3    H154305   4.363   5.804   5.174 -1.3704 -1.1512  1.6149
10938TIP3    H254306   4.360   5.783   5.024  1.4738  2.1364  0.9807
10939TIP3   OH254307   0.119   1.696   1.060 -0.4077  0.6326  0.0367
10939TIP3    H154308   0.075   1.615   1.086 -1.8426  1.8311  1.5981
10939TIP3    H254309   0.053   1.744   1.010  1.3367 -0.2829 -3.3888
10940TIP3   OH254310   3.092   3.941   1.591  0.3459 -0.6809 -0.2163
10940TIP3    H154311   3.151   3.981   1.654  1.4512 -1.2208 -0.8926
10940TIP3    H254312   3.100   3.847   1.606 -1.7119 -0.7348  0.8942
10941TIP3   OH254313   1.674   1.008   3.095  0.2316 -0.2064  0.4915
10941TIP3    H154314   1.721   0.997   3.178  0.8769  1.7283  0.4394
10941TIP3    H254315   1.657   0.919   3.065  0.7668 -0.9496  2.2590
10942TIP3   OH254316   5.337   2.921  11.957  0.1646 -0.1302 -0.0393
10942TIP3    H154317   5.340   2.961  12.044  0.3951  0.8025 -0.4678
10942TIP3    H254318   5.244   2.898  11.945  0.2224 -0.7782  0.6667
10943TIP3   OH254319   0.824   5.911  12.388  0.0473  0.2644  0.5184
10943TIP3    H154320   0.822   5.927  12.483 -2.1216  0.6036  0.4594
10943TIP3    H254321   0.879   5.982  12.354 -1.6316  2.0048  1.2556
10944TIP3   OH254322   2.353   5.814   0.334  0.3383 -0.5196  0.4691
10944TIP3    H154323   2.307   5.749   0.387 -0.5373  0.7312  1.3197
10944TIP3    H254324   2.316   5.804   0.246  0.7962 -1.6761  0.3835
10945TIP3   OH254325   1.674   2.678   4.378  0.2134  0.0361  0.6343
10945TIP3    H154326   1.725   2.600   4.399 -0.9514 -0.8489  0.3139
10945TIP3    H254327   1.618   2.692   4.455  0.4485  0.5935  0.7108
10946TIP3   OH254328   3.704   4.504  15.187  0.8202  0.5010 -0.3159
10946TIP3    H154329   3.762   4.515  15.111  0.1411  0.2878 -0.8780
10946TIP3    H254330   3.658   4.422  15.169  1.3286 -0.0415  0.7897
10947TIP3   OH254331   4.545   4.347   3.653  0.0014  0.0420 -0.5120
10947TIP3    H154332   4.579   4.371   3.739 -0.3136 -1.2791  0.0023
10947TIP3    H254333   4.613   4.292   3.614 -0.7642 -1.2066 -0.1661
10948TIP3   OH254334   2.694   6.351  10.454  0.7497 -0.1844  0.2252
10948TIP3    H154335   2.636   6.415  10.496  0.7755 -0.5481  0.8126
10948TIP3    H254336   2.760   6.405  10.410  0.7198  0.1929  0.6376
10949TIP3   OH254337   2.811   4.936  12.061 -0.9791 -0.2784 -0.4408
10949TIP3    H154338   2.762   4.859  12.089 -0.4483 -0.4505  0.0219
10949TIP3    H254339   2.898   4.903  12.040 -0.1502  0.4556  1.5835
10950TIP3   OH254340   4.730   4.227   3.211  0.4328 -0.0888 -0.3036
10950TIP3    H154341   4.670   4.230   3.136  1.6343 -0.5089 -1.3060
10950TIP3    H254342   4.809   4.272   3.181 -0.3679  3.2378  1.9892
10951TIP3   OH254343   5.398   1.600   1.465 -0.9940 -1.0807  0.0191
10951TIP3    H154344   5.461   1.556   1.409 -0.3546 -1.4612  1.0068
10951TIP3    H254345   5.428   1.691   1.469 -1.5522 -0.8467 -0.9546
10952TIP3   OH254346   2.817   5.459   4.058 -0.0455  0.7018  0.1681
10952TIP3    H154347   2.740   5.429   4.010 -1.7573  0.5127  2.8337
10952TIP3    H254348   2.803   5.553   4.069 -0.6863  0.4466  1.8573
10953TIP3   OH254349   0.497   4.032   3.084  0.3710 -0.7255  0.7500
10953TIP3    H154350   0.567   4.080   3.040 -0.9186  0.1375 -0.4442
10953TIP3    H254351   0.491   4.071   3.171  0.7975 -0.2337  0.5605
10954TIP3   OH254352   2.970   6.636   2.154 -0.3004  0.6105  0.4853
10954TIP3    H154353   2.900   6.625   2.218  1.5343  0.9981  2.7136
10954TIP3    H254354   2.993   6.547   2.128  0.6704  0.2160  2.4858
10955TIP3   OH254355   3.773   5.431  14.421 -0.4765 -0.3944  0.0833
10955TIP3    H154356   3.785   5.518  14.384 -2.2767 -0.3233 -0.4392
10955TIP3    H254357   3.739   5.447  14.509  0.1683 -0.5695  0.3658
10956TIP3   OH254358   2.453   4.902   4.577  0.2315  0.5795  0.4968
10956TIP3    H154359   2.402   4.941   4.506  0.0618  0.9379  0.8142
10956TIP3    H254360   2.543   4.928   4.557  0.6079 -1.6920 -1.1610
10957TIP3   OH254361   4.656   3.528   5.254 -0.6626  0.7645  0.6186
10957TIP3    H154362   4.661   3.533   5.158  2.8196  0.1836  0.6367
10957TIP3    H254363   4.602   3.450   5.271  0.3614 -0.3646 -0.9719
10958TIP3   OH254364   5.461   7.152  13.352  0.2582 -0.2017 -0.1483
10958TIP3    H154365   5.386   7.183  13.403  0.5193  0.3272 -0.0753
10958TIP3    H254366   5.425   7.128  13.267  0.2529  1.7663 -0.7467
10959TIP3   OH254367   4.704   2.667   2.638 -0.0020 -0.2556  0.3247
10959TIP3    H154368   4.799   2.669   2.625 -0.0418  0.5287  0.1002
10959TIP3    H254369   4.669   2.638   2.554 -0.0402  0.9930 -0.1062
10960TIP3   OH254370   3.188   1.787  12.378 -0.6114 -0.1172  0.0306
10960TIP3    H154371   3.110   1.738  12.402 -0.2751 -1.5824 -1.6526
10960TIP3    H254372   3.259   1.745  12.427 -0.9509  2.0292  2.5764
10961TIP3   OH254373   1.297   1.155  10.017  0.4086  0.5364  0.0800
10961TIP3    H154374   1.289   1.080   9.957  1.2286  0.0822  0.5316
10961TIP3    H254375   1.383   1.192   9.998  0.5939  0.5015  0.8543
10962TIP3   OH254376   6.704   6.768   5.540  0.3669  0.1376  0.1610
10962TIP3    H154377   6.612   6.788   5.522  0.5209  1.9088  1.1827
10962TIP3    H254378   6.705   6.739   5.631  0.8897  0.5137  0.2729
10963TIP3   OH254379   6.878   1.583   0.013 -0.0087  0.6142  0.5231
10963TIP3    H154380   6.784   1.598   0.020  0.0618  0.7167  1.3384
10963TIP3    H254381   6.917   1.657   0.058  0.5524  1.9055 -1.9188
10964TIP3   OH254382   2.779   1.126  10.312 -0.1976  0.0120  0.6878
10964TIP3    H154383   2.744   1.156  10.395 -0.1612  0.8883  0.3950
10964TIP3    H254384   2.720   1.056  10.285 -0.4274 -0.0221  1.2613
10965TIP3   OH254385   3.267   6.001   0.993 -1.1062 -0.5027 -0.0101
10965TIP3    H154386   3.227   6.086   1.013 -4.5349 -1.6855 -1.0090
10965TIP3    H254387   3.250   5.948   1.071 -0.5624 -0.7705 -0.0718
10966TIP3   OH254388   5.566   7.032   1.699  0.6575 -0.3111 -0.2441
10966TIP3    H154389   5.613   6.980   1.634 -0.0785 -1.7725  0.3432
10966TIP3    H254390   5.593   6.995   1.783 -0.2246 -0.0503  0.1637
10967TIP3   OH254391   1.082   4.763   4.926 -0.2286  0.0556  0.3269
10967TIP3    H154392   1.033   4.682   4.912 -0.1925 -0.1852  1.5099
10967TIP3    H254393   1.053   4.821   4.856  1.5117 -1.7631 -2.0842
10968TIP3   OH254394   5.008   4.632   1.322  0.0498  0.5602  0.1220
10968TIP3    H154395   4.955   4.684   1.382  0.1751 -0.2918  0.9915
10968TIP3    H254396   4.975   4.655   1.235 -1.3232  0.5157  0.6027
10969TIP3   OH254397   0.124   6.342   5.317 -0.7359 -0.2345 -0.6097
10969TIP3    H154398   0.098   6.252   5.295 -1.2239 -0.4515  0.7451
10969TIP3    H254399   0.199   6.332   5.375 -0.6982  0.2434 -0.5723
10970TIP3   OH254400   3.250   3.057   4.514  0.1602 -0.0408 -0.7423
10970TIP3    H154401   3.195   3.132   4.490 -0.6516 -0.7866 -1.2803
10970TIP3    H254402   3.210   2.983   4.468  0.3468 -0.9864  0.5853
10971TIP3   OH254403   4.328   6.102  13.179 -0.7867  0.3593 -0.2217
10971TIP3    H154404   4.293   6.013  13.170 -0.7280  0.3122  0.0155
10971TIP3    H254405   4.417   6.090  13.214 -0.8545  0.5208  0.0073
10972TIP3   OH254406   3.672   3.864  10.335  0.3807 -0.5516 -0.1844
10972TIP3    H154407   3.625   3.926  10.279  0.7977 -0.8441 -0.8735
10972TIP3    H254408   3.683   3.910  10.419  0.6413  0.2867 -0.6696
10973TIP3   OH254409   0.137   1.432   3.636 -0.3678  0.3120  0.2833
10973TIP3    H154410   0.210   1.430   3.698  0.0935  0.8655 -0.2365
10973TIP3    H254411   0.145   1.351   3.587  0.2489  0.6416 -0.1675
10974TIP3   OH254412   0.696   2.846   0.442 -0.2057  0.2041 -0.3443
10974TIP3    H154413   0.687   2.840   0.538 -0.3326  0.3923 -0.3429
10974TIP3    H254414   0.678   2.758   0.411 -0.1599  0.1407 -0.1929
10975TIP3   OH254415   3.780   0.461  13.514  0.0683  0.2585  0.2131
10975TIP3    H154416   3.840   0.407  13.566 -0.6083 -0.6030  0.1291
10975TIP3    H254417   3.775   0.544  13.561 -0.5477 -0.5030  1.5545
10976TIP3   OH254418   1.381   6.551  11.653 -0.0075 -0.5088 -0.2029
10976TIP3    H154419   1.330   6.632  11.653  0.3850 -0.2602  0.3534
10976TIP3    H254420   1.378   6.520  11.743  3.2819  1.0909  0.6029
10977TIP3   OH254421   0.512   5.434  11.295 -0.1865 -0.2972 -0.5536
10977TIP3    H154422   0.507   5.384  11.377 -1.4801  2.2007  1.0042
10977TIP3    H254423   0.421   5.442  11.266  0.2648 -1.3804 -2.4836
10978TIP3   OH254424   3.057   1.335   2.977  0.1490  0.1487  0.6296
10978TIP3    H154425   3.070   1.308   3.068 -1.9115 -0.6229  0.7469
10978TIP3    H254426   3.145   1.356   2.945  1.2623 -2.1178  1.9915
10979TIP3   OH254427   2.621   6.427   9.575  0.1936 -0.0905  0.1268
10979TIP3    H154428   2.619   6.332   9.587  0.4210 -0.3245 -1.4404
10979TIP3    H254429   2.710   6.452   9.600 -0.1768 -0.1240  1.5290
10980TIP3   OH254430   0.042   5.856  14.209 -0.6327  0.2279  0.1721
10980TIP3    H154431   0.102   5.881  14.139 -1.3737 -1.1829 -1.0264
10980TIP3    H254432   0.089   5.788  14.257 -0.8257 -0.0986 -0.0937
10981TIP3   OH254433   0.270   3.477  15.202  0.4441 -0.3987  0.0159
10981TIP3    H154434   0.255   3.383  15.197  0.0826 -0.5848  2.7914
10981TIP3    H254435   0.299   3.502  15.114 -0.3033 -2.9147 -1.0310
10982TIP3   OH254436   0.099   5.911  12.955  0.4141 -0.3836 -0.0561
10982TIP3    H154437   0.100   5.994  13.003  0.8268 -0.1455 -0.4642
10982TIP3    H254438   0.177   5.865  12.987  1.2643  0.2053 -1.2199
10983TIP3   OH254439   6.679   1.754   0.930  0.2365  0.2093  0.0125
10983TIP3    H154440   6.657   1.680   0.987 -0.3909  0.9749  0.8081
10983TIP3    H254441   6.594   1.782   0.894  0.2815  1.2659  0.6681
10984TIP3   OH254442   3.066   3.991   9.293  0.1564 -0.0093  0.3013
10984TIP3    H154443   3.141   3.953   9.339  0.1399 -0.3780  0.0264
10984TIP3    H254444   2.995   3.929   9.306 -0.1244  0.3765  0.6229
10985TIP3   OH254445   0.854   7.227   0.027  0.8526 -0.0803  0.0631
10985TIP3    H154446   0.891   7.302   0.073  0.3586  0.2893 -0.1350
10985TIP3    H254447   0.841   7.258  -0.063  2.2272 -0.9267 -0.4720
10986TIP3   OH254448   1.398   4.895  12.501 -0.0007  0.7649 -0.3303
10986TIP3    H154449   1.477   4.849  12.473 -1.9412 -2.5193 -0.9540
10986TIP3    H254450   1.368   4.940  12.423 -0.1614 -0.2672 -0.8880
10987TIP3   OH254451   1.361   4.074   3.814 -0.2274 -0.5228  0.3840
10987TIP3    H154452   1.304   4.148   3.792 -1.6316 -1.0432  2.0317
10987TIP3    H254453   1.301   4.002   3.832  1.0313 -1.5293  0.6974
10988TIP3   OH254454   0.459   2.644  12.060  0.4658  0.1806  0.4259
10988TIP3    H154455   0.544   2.682  12.039 -0.4854  1.5596 -1.1954
10988TIP3    H254456   0.471   2.604  12.147  2.3349  1.6464  0.9110
10989TIP3   OH254457   6.423   2.298   3.339 -0.1146 -0.5425 -0.5392
10989TIP3    H154458   6.515   2.271   3.335 -0.3159 -1.2394 -0.5180
10989TIP3    H254459   6.373   2.216   3.334 -0.6969 -0.4584  2.5030
10990TIP3   OH254460   3.777   5.791   5.891 -0.2805  0.4044 -0.1061
10990TIP3    H154461   3.718   5.769   5.819 -0.5037 -1.1483  0.5220
10990TIP3    H254462   3.724   5.782   5.970  0.5334 -0.0248  0.4016
10991TIP3   OH254463   1.173   0.532  10.811 -0.3187 -0.1596  0.7776
10991TIP3    H154464   1.197   0.504  10.899  0.6225 -0.9867  0.2738
10991TIP3    H254465   1.098   0.591  10.824 -0.0650 -0.1100  2.1353
10992TIP3   OH254466   2.800   0.285   3.039 -0.3552 -0.0380 -0.7393
10992TIP3    H154467   2.713   0.293   3.001  0.3210  0.4553 -2.2754
10992TIP3    H254468   2.833   0.201   3.006 -0.2528 -0.2411 -0.1390
10993TIP3   OH254469   0.710   6.253   4.573 -0.0569 -0.1722 -0.7367
10993TIP3    H154470   0.778   6.186   4.584 -0.0399 -0.3109 -1.6081
10993TIP3    H254471   0.637   6.206   4.531 -1.5115 -0.5144  1.9295
10994TIP3   OH254472   1.695   3.656  11.326 -0.0831  0.7728  0.7230
10994TIP3    H154473   1.607   3.688  11.308 -0.9233 -0.5018  2.2478
10994TIP3    H254474   1.739   3.656  11.242 -1.6710  1.0971 -0.1443
10995TIP3   OH254475   4.411   5.999   5.613  0.1466  0.0788  0.3361
10995TIP3    H154476   4.342   6.000   5.678 -1.1762 -1.3943 -0.9684
10995TIP3    H254477   4.488   6.035   5.658 -1.1288  0.6092  2.1725
10996TIP3   OH254478   5.692   4.398  13.878  0.5199 -0.0776  0.1115
10996TIP3    H154479   5.781   4.371  13.898  0.3502 -2.3885 -1.7717
10996TIP3    H254480   5.676   4.363  13.790 -2.8661 -1.4427  1.1009
10997TIP3   OH254481   4.401   3.927   9.616  0.0174  0.2834  0.0090
10997TIP3    H154482   4.306   3.916   9.628 -0.0294 -0.5616 -1.0242
10997TIP3    H254483   4.436   3.838   9.619  0.5629  0.4301 -1.2880
10998TIP3   OH254484   4.087   4.517   2.619  0.3621  0.5373 -0.1795
10998TIP3    H154485   4.036   4.476   2.689  0.9153  0.6251  0.2869
10998TIP3    H254486   4.091   4.450   2.550 -0.1683  0.4416 -0.1243
10999TIP3   OH254487   0.932   4.118  10.695 -0.2770  0.2568  0.3174
10999TIP3    H154488   0.947   4.026  10.673 -0.1552  0.7099 -1.6500
10999TIP3    H254489   0.840   4.122  10.717 -0.6058 -0.1249 -0.9008
11000TIP3   OH254490   0.794   0.577  13.487  0.4214 -0.5187  0.0807
11000TIP3    H154491   0.740   0.639  13.536  3.0135  1.1702  0.9919
11000TIP3    H254492   0.817   0.510  13.552  2.2920  0.7090  0.7719
11001TIP3   OH254493   3.442   1.002   2.295  1.0345  0.2152 -0.1038
11001TIP3    H154494   3.458   1.084   2.341  2.1493  0.0462 -0.1557
11001TIP3    H254495   3.526   0.956   2.298  0.9948 -0.0442 -1.7996
11002TIP3   OH254496   5.540   6.670  11.038  0.0465 -0.4577  0.1116
11002TIP3    H154497   5.549   6.575  11.027 -0.1141 -0.5915  1.0752
11002TIP3    H254498   5.527   6.703  10.949 -1.4985 -1.5052 -0.0889
11003TIP3   OH254499   4.850   6.565  13.942  0.5224 -0.0088 -0.5570
11003TIP3    H154500   4.936   6.554  13.984  1.1308 -0.4304 -1.8444
11003TIP3    H254501   4.810   6.478  13.948 -0.9744  0.7668  2.3429
11004TIP3   OH254502   4.546   2.459   4.124  0.1108  0.4153  0.2982
11004TIP3    H154503   4.473   2.415   4.081  1.0849 -1.3913  0.4216
11004TIP3    H254504   4.592   2.504   4.054 -1.1856  1.7441  0.2459
11005TIP3   OH254505   4.033   1.414  14.134 -0.0751 -0.3632 -0.3582
11005TIP3    H154506   4.088   1.465  14.193 -0.7743  0.7295 -0.6288
11005TIP3    H254507   4.094   1.359  14.085  0.6630 -0.0049  0.1476
11006TIP3   OH254508   5.427   6.993   0.279 -0.1446  0.1415 -0.6126
11006TIP3    H154509   5.365   7.028   0.215  0.4198  1.6468 -0.3856
11006TIP3    H254510   5.399   7.029   0.363  0.2743 -0.2084 -0.3140
11007TIP3   OH254511   2.610   4.795   0.220  0.6527 -0.6278  0.3727
11007TIP3    H154512   2.669   4.864   0.189  1.8787 -1.2814  1.1769
11007TIP3    H254513   2.631   4.719   0.166  1.3898 -1.1984  1.4404
11008TIP3   OH254514   0.027   5.245   2.857  0.4076 -0.1397  0.1150
11008TIP3    H154515   0.031   5.315   2.923  1.5383  0.0426 -0.1290
11008TIP3    H254516  -0.022   5.175   2.900  0.1710  0.3990  0.7506
11009TIP3   OH254517   2.926   5.591   1.790 -0.1587 -0.5127 -0.2049
11009TIP3    H154518   2.898   5.675   1.825  0.8184  0.5651 -1.8743
11009TIP3    H254519   3.019   5.585   1.811  0.0468 -0.6254 -1.0727
11010TIP3   OH254520   4.496   2.294   5.354 -0.3717 -0.2244 -0.0980
11010TIP3    H154521   4.428   2.230   5.332  0.6521 -1.1632 -0.6197
11010TIP3    H254522   4.448   2.376   5.368 -1.7016 -1.0573  0.4467
11011TIP3   OH254523   4.576   0.778  11.962  0.3515 -0.4245 -0.1300
11011TIP3    H154524   4.552   0.807  11.874 -1.0147  0.6798  0.5672
11011TIP3    H254525   4.492   0.762  12.006  1.0209 -1.3985  0.8414
11012TIP3   OH254526   0.870   5.935   1.171 -0.4538  0.7133  0.1948
11012TIP3    H154527   0.869   6.007   1.234  0.3474  3.0890 -2.2714
11012TIP3    H254528   0.961   5.932   1.141 -1.0360  0.5821 -1.7180
11013TIP3   OH254529   3.298   0.680  11.379  0.6555  0.0245  0.1679
11013TIP3    H154530   3.370   0.719  11.330 -1.2231  0.4212 -2.4870
11013TIP3    H254531   3.232   0.749  11.382 -0.0749 -0.7052  1.5531
11014TIP3   OH254532   4.397   5.996   2.768 -0.0858 -0.1356  0.4392
11014TIP3    H154533   4.410   5.983   2.674 -0.2333  0.3455  0.3456
11014TIP3    H254534   4.471   6.051   2.794 -0.8342  0.9869  0.2956
11015TIP3   OH254535   0.187   1.534  11.996  0.0616  0.0655  0.0204
11015TIP3    H154536   0.246   1.609  11.995  1.0188 -0.6666  0.3752
11015TIP3    H254537   0.240   1.462  12.030 -1.2639 -0.4196  1.1662
11016TIP3   OH254538   2.794   1.357  14.808  0.0677  0.6804 -0.5794
11016TIP3    H154539   2.770   1.414  14.881  1.3386  1.1071 -0.4572
11016TIP3    H254540   2.811   1.272  14.848 -0.3191  0.6276 -0.5317
11017TIP3   OH254541   2.967   6.313  10.233 -0.0662 -0.8779  0.0285
11017TIP3    H154542   3.055   6.277  10.224 -0.2590 -1.3567  0.0540
11017TIP3    H254543   2.942   6.339  10.144 -0.6167 -2.4426 -0.3158
11018TIP3   OH254544   5.735   6.532  11.246  0.8640 -0.0297  0.6079
11018TIP3    H154545   5.644   6.554  11.227  1.1319  1.7064  1.1698
11018TIP3    H254546   5.745   6.442  11.214 -0.5347  0.3727 -1.1408
11019TIP3   OH254547   2.593   3.349   4.631 -0.2854 -0.0018  0.6254
11019TIP3    H154548   2.571   3.322   4.542 -0.9874  1.1416  0.4286
11019TIP3    H254549   2.686   3.332   4.639  0.8533  3.7256 -1.8439
11020TIP3   OH254550   6.694   2.257   4.621  0.8111 -0.3545 -0.4343
11020TIP3    H154551   6.760   2.206   4.572  0.2633 -2.2763  0.7039
11020TIP3    H254552   6.619   2.261   4.562  0.6366 -1.4787 -0.3236
11021TIP3   OH254553   2.575   6.631  11.736 -0.6506  0.2911 -0.3045
11021TIP3    H154554   2.587   6.555  11.679 -1.9716 -0.4635  0.3796
11021TIP3    H254555   2.508   6.683  11.692 -0.6127  0.4573 -0.1641
11022TIP3   OH254556   2.588   3.146  13.625 -0.1212 -0.3154 -0.2584
11022TIP3    H154557   2.566   3.237  13.607 -2.4574 -1.1859 -2.3830
11022TIP3    H254558   2.654   3.123  13.559  1.0501 -0.0077  0.7670
11023TIP3   OH254559   2.796   0.084  15.285 -0.2003 -0.9132 -0.1920
11023TIP3    H154560   2.731   0.106  15.219 -0.2281  1.3832  0.4940
11023TIP3    H254561   2.878   0.119  15.251  0.0971 -1.1501  0.2715
11024TIP3   OH254562   1.932   1.922   0.370 -0.8277  0.3996 -0.0512
11024TIP3    H154563   1.898   1.930   0.459 -1.2301  0.8347 -0.2406
11024TIP3    H254564   1.867   1.870   0.324 -0.2051 -0.5597  0.1173
11025TIP3   OH254565   0.025   5.756   2.672  0.0099 -0.6231  0.1916
11025TIP3    H154566  -0.043   5.799   2.620  0.0073 -1.7479 -0.7645
11025TIP3    H254567  -0.018   5.680   2.711  0.7640 -1.5243 -0.6752
11026TIP3   OH254568   5.715   1.552   4.458 -0.0345 -0.7420  0.3187
11026TIP3    H154569   5.768   1.546   4.379  0.1880 -0.5590  0.4541
11026TIP3    H254570   5.778   1.555   4.530 -0.2559 -1.7023  0.5566
11027TIP3   OH254571   6.615   4.850   3.984 -0.0623 -0.5188 -0.1096
11027TIP3    H154572   6.569   4.918   3.937 -0.2340 -1.0823 -0.7682
11027TIP3    H254573   6.548   4.785   4.006  0.0062 -0.2603  0.9418
11028TIP3   OH254574   7.177   5.525  11.067  0.4442  0.2672 -0.1603
11028TIP3    H154575   7.242   5.563  11.007  0.2730  1.5737  0.4477
11028TIP3    H254576   7.206   5.552  11.154 -1.5118  1.8954  0.0543
11029TIP3   OH254577   1.526   0.286   4.971  0.4915 -0.0483 -0.6629
11029TIP3    H154578   1.516   0.289   4.876 -0.5955  0.9816 -0.5506
11029TIP3    H254579   1.503   0.196   4.995  0.3796 -0.2043 -1.3325
11030TIP3   OH254580   6.735   4.298   4.000 -0.0850  0.2165  0.3053
11030TIP3    H154581   6.644   4.284   4.027  0.1692 -0.0646  1.0600
11030TIP3    H254582   6.746   4.242   3.923 -0.4409 -0.0500  0.4446
11031TIP3   OH254583   1.987   2.260   1.690 -0.5915 -0.6822 -0.2355
11031TIP3    H154584   2.000   2.197   1.618 -2.0570 -0.3959 -0.7724
11031TIP3    H254585   2.070   2.308   1.694 -0.0652 -1.5038 -0.9520
11032TIP3   OH254586   4.167   0.731   3.918  0.1402 -0.4125  0.4917
11032TIP3    H154587   4.226   0.686   3.978 -0.1382 -0.5958  0.6308
11032TIP3    H254588   4.082   0.688   3.931 -0.0100 -0.1913  0.2530
11033TIP3   OH254589   1.533   1.606   0.378 -1.1513  0.5870 -0.9154
11033TIP3    H154590   1.599   1.543   0.406 -1.2161  0.0518 -1.9171
11033TIP3    H254591   1.505   1.575   0.292 -1.5235  1.7223 -1.2284
11034TIP3   OH254592   1.117   4.851   5.211 -0.3909 -0.1420  0.5408
11034TIP3    H154593   1.080   4.764   5.223 -1.7910  0.1437 -1.2278
11034TIP3    H254594   1.117   4.864   5.116  1.9897  0.8892  0.6100
11035TIP3   OH254595   5.524   4.986   2.789  0.6366 -0.8544  0.2047
11035TIP3    H154596   5.573   4.910   2.758 -1.0229 -1.7894 -0.2496
11035TIP3    H254597   5.482   4.956   2.870 -0.2412 -0.5213 -0.1157
11036TIP3   OH254598   2.429   3.948  14.091 -0.3162  0.2094 -0.3274
11036TIP3    H154599   2.484   4.005  14.145  0.9607 -2.3266  1.2032
11036TIP3    H254600   2.374   3.901  14.154 -0.6373 -0.9790 -1.4507
11037TIP3   OH254601   5.919   4.959  11.802  0.3874 -0.0612 -0.0840
11037TIP3    H154602   5.853   5.024  11.778 -2.2968 -3.5691 -3.6217
11037TIP3    H254603   5.918   4.958  11.898 -3.4736  1.3720  0.0909
11038TIP3   OH254604   1.648   3.857   4.356  0.2895 -0.0204 -0.0862
11038TIP3    H154605   1.608   3.933   4.398  0.6724  0.1539 -0.0290
11038TIP3    H254606   1.722   3.835   4.412  0.6593  0.0626 -0.5314
11039TIP3   OH254607   2.215   6.840   2.435 -0.2279 -0.0721 -0.8166
11039TIP3    H154608   2.168   6.913   2.475  2.9950  1.0644  1.3069
11039TIP3    H254609   2.212   6.770   2.500  0.9205  0.0253 -0.6341
11040TIP3   OH254610   1.772   0.685   3.365 -0.1485  0.1249  0.0796
11040TIP3    H154611   1.753   0.601   3.408 -0.9298  0.2803  0.0668
11040TIP3    H254612   1.704   0.744   3.398 -2.1789 -0.2830 -2.9449
11041TIP3   OH254613   1.364   5.411   1.352 -0.4617  0.8206 -0.0328
11041TIP3    H154614   1.404   5.424   1.438  1.7260 -0.8864 -0.6961
11041TIP3    H254615   1.273   5.437   1.363  0.1262  2.1243  2.3691
11042TIP3   OH254616   1.729   2.414  11.538 -0.1267  0.3933 -0.2762
11042TIP3    H154617   1.812   2.396  11.494 -0.2927  0.2085 -0.5081
11042TIP3    H254618   1.662   2.403  11.471 -0.3920 -0.0289  0.0537
11043TIP3   OH254619   0.670   7.206   2.822 -0.1621  0.2166 -0.4308
11043TIP3    H154620   0.742   7.247   2.773 -0.9686  0.7134 -1.2217
11043TIP3    H254621   0.597   7.203   2.761 -0.5251 -1.2581  0.0142
11044TIP3   OH254622   2.530   4.414   3.526  0.0437 -0.0066 -0.7349
11044TIP3    H154623   2.451   4.441   3.571 -0.0384  0.9768 -1.4375
11044TIP3    H254624   2.576   4.358   3.589 -1.5484 -1.2197 -0.5935
11045TIP3   OH254625   6.706   2.296   0.172  0.4854  0.0411  0.2755
11045TIP3    H154626   6.718   2.301   0.077 -1.0828 -1.0510 -0.0262
11045TIP3    H254627   6.614   2.320   0.185 -0.1431 -2.5491  1.1837
11046TIP3   OH254628   1.149   1.170  12.752  0.1342 -0.0285 -0.5793
11046TIP3    H154629   1.076   1.170  12.690 -1.8179 -2.7442  1.4335
11046TIP3    H254630   1.134   1.249  12.805 -0.3731  0.3230 -1.2274
11047TIP3   OH254631   1.565   4.024   0.339 -0.1800  0.1991 -0.1766
11047TIP3    H154632   1.638   4.066   0.295  0.9857 -1.0985  0.4124
11047TIP3    H254633   1.603   3.991   0.421 -1.0781 -1.6547 -0.4537
11048TIP3   OH254634   1.143   6.123   3.651 -0.2044 -0.0189  0.1785
11048TIP3    H154635   1.134   6.066   3.574  2.8394 -1.2022  0.5613
11048TIP3    H254636   1.185   6.202   3.617  0.1270 -0.0833  0.4363
11049TIP3   OH254637   1.783   6.300   5.304  0.0898  0.4124  0.1896
11049TIP3    H154638   1.841   6.280   5.231  2.1165  2.0369  1.2338
11049TIP3    H254639   1.725   6.368   5.272 -0.6058 -0.4995 -0.5541
11050TIP3   OH254640   1.922   6.436   2.542  0.2829  0.5480 -0.5546
11050TIP3    H154641   1.928   6.529   2.520 -2.0503  1.2847  1.4623
11050TIP3    H254642   1.884   6.395   2.464  0.6604  1.3993 -1.1973
11051TIP3   OH254643   1.590   0.288   5.937  0.4521 -0.2750 -0.3835
11051TIP3    H154644   1.621   0.331   5.857 -0.9367 -0.9782 -1.3323
11051TIP3    H254645   1.640   0.206   5.941 -1.0308 -1.2925 -1.7761
11052TIP3   OH254646   5.252   3.311   4.608  0.3524 -0.2674  0.4305
11052TIP3    H154647   5.186   3.365   4.563 -1.7007 -1.2986  2.0231
11052TIP3    H254648   5.321   3.299   4.543 -1.8430 -0.5864 -2.0212
11053TIP3   OH254649   0.754   6.293   4.018  0.0150 -0.4387  0.1333
11053TIP3    H154650   0.715   6.273   3.933  0.2902  1.6215 -0.5301
11053TIP3    H254651   0.724   6.382   4.037  3.3306  0.7784  0.1908
11054TIP3   OH254652   1.242   0.472   3.324  0.0876 -0.1289  0.5146
11054TIP3    H154653   1.275   0.495   3.238  1.6276 -1.5496  0.6702
11054TIP3    H254654   1.232   0.376   3.321 -0.4178 -0.1307  1.7127
11055TIP3   OH254655   3.742   2.879  10.128 -0.7467  0.2008 -0.4695
11055TIP3    H154656   3.836   2.884  10.112 -0.1923  1.6437  2.4090
11055TIP3    H254657   3.713   2.970  10.130 -2.1050 -0.1991 -0.7258
11056TIP3   OH254658   1.195   3.433  10.400 -0.4768 -0.4373  0.1791
11056TIP3    H154659   1.275   3.423  10.451  0.4946  1.1538 -0.9464
11056TIP3    H254660   1.139   3.489  10.455  0.3820  0.8919 -0.2509
11057TIP3   OH254661   6.157   7.029   1.908  0.0185 -0.4658 -0.5787
11057TIP3    H154662   6.118   7.022   1.996 -0.2725  0.4579 -0.6238
11057TIP3    H254663   6.181   6.939   1.886 -1.6692 -1.0153 -0.3591
11058TIP3   OH254664   1.039   3.771   4.319 -0.5621  0.2888 -0.1825
11058TIP3    H154665   1.133   3.781   4.301 -0.2775  1.9364  1.8229
11058TIP3    H254666   0.997   3.828   4.254 -0.2293 -0.6102 -1.2229
11059TIP3   OH254667   4.721   1.048   3.603 -0.0527  0.3669 -1.0293
11059TIP3    H154668   4.802   1.099   3.603 -0.5979  1.2652 -0.3577
11059TIP3    H254669   4.665   1.091   3.669 -0.6153 -0.9634 -0.5883
11060TIP3   OH254670   1.921   6.622  11.624  0.7074  0.5698  0.3295
11060TIP3    H154671   1.990   6.564  11.656  0.6384  0.3465  0.0723
11060TIP3    H254672   1.967   6.700  11.594  0.8441  0.4356  0.1918
11061TIP3   OH254673   3.177   4.577  14.172 -0.3397 -0.0592  0.0041
11061TIP3    H154674   3.147   4.558  14.083  1.2747 -0.7118 -0.4383
11061TIP3    H254675   3.238   4.650  14.161  1.9643 -1.8307  0.1093
11062TIP3   OH254676   4.916   1.574   4.552  0.1835  0.7525 -0.3563
11062TIP3    H154677   4.922   1.562   4.457  0.3194  0.3351 -0.2968
11062TIP3    H254678   4.872   1.658   4.563 -1.5077 -0.0436 -0.7831
11063TIP3   OH254679   2.483   6.439  15.342  0.1917  0.1019  0.0219
11063TIP3    H154680   2.516   6.465  15.256  1.3938  1.2319  0.7919
11063TIP3    H254681   2.498   6.345  15.346 -1.0129 -0.1900 -1.4676
11064TIP3   OH254682   1.105   7.056   3.098 -0.1305 -0.0739 -0.1474
11064TIP3    H154683   1.157   6.976   3.085 -1.4445 -1.0136  0.1755
11064TIP3    H254684   1.014   7.027   3.088 -0.6692  1.2466  0.7255
11065TIP3   OH254685   3.197   0.720   2.602  0.6026 -1.0554 -0.2202
11065TIP3    H154686   3.235   0.805   2.622 -0.7522 -0.4534 -0.0582
11065TIP3    H254687   3.111   0.740   2.564  0.1042 -2.3409  0.1492
11066TIP3   OH254688   5.285   0.492  12.901 -0.8144 -0.5024 -0.5515
11066TIP3    H154689   5.276   0.562  12.965 -1.2454  0.7709 -1.9426
11066TIP3    H254690   5.217   0.429  12.924 -1.7916  0.5388 -0.4726
11067TIP3   OH254691   7.035   5.669  11.959  0.2748 -0.8761 -0.0414
11067TIP3    H154692   7.081   5.673  12.042  1.2452  1.7890 -0.5816
11067TIP3    H254693   7.082   5.731  11.903 -1.6589 -0.9464 -1.8729
11068TIP3   OH254694   5.945   2.618   4.563  0.2157 -0.0375  0.0978
11068TIP3    H154695   5.859   2.578   4.571  1.5485 -3.3254 -0.6345
11068TIP3    H254696   5.939   2.674   4.486 -0.9062 -1.2623 -0.7280
11069TIP3   OH254697   6.792   6.321  10.267  0.4980  0.6301  0.1374
11069TIP3    H154698   6.803   6.293  10.176 -2.8508 -1.3565  0.1689
11069TIP3    H254699   6.717   6.380  10.265 -1.5924 -1.7243  1.7888
11070TIP3   OH254700   0.309   5.142   4.771 -0.4549  0.2997  0.3818
11070TIP3    H154701   0.320   5.071   4.706  0.4235  1.4575 -0.7858
11070TIP3    H254702   0.262   5.210   4.723  0.9208  1.5062  0.6895
11071TIP3   OH254703   0.350   2.360  12.497  0.2479  0.1233 -0.5587
11071TIP3    H154704   0.269   2.331  12.539 -0.5860  0.1107 -2.0890
11071TIP3    H254705   0.343   2.455  12.495  0.0425  0.1020 -1.0906
11072TIP3   OH254706   2.889   0.883  13.553 -0.5870 -0.0920  0.3061
11072TIP3    H154707   2.798   0.871  13.578 -0.5036  0.3206  0.8173
11072TIP3    H254708   2.898   0.977  13.538 -0.2693 -0.1415  0.1622
11073TIP3   OH254709   6.289   7.230   1.112  0.0915 -0.1404  0.5303
11073TIP3    H154710   6.306   7.136   1.100  1.0904  0.0132  0.7129
11073TIP3    H254711   6.352   7.258   1.178  0.3414  0.8372 -0.1071
11074TIP3   OH254712   7.230   7.134  10.523  0.4999 -0.5668 -0.0253
11074TIP3    H154713   7.155   7.124  10.582 -0.2867  2.2626 -0.3846
11074TIP3    H254714   7.191   7.132  10.435  1.1984 -1.4937 -0.3196
11075TIP3   OH254715   4.158   5.678  11.266  0.2827 -0.1892  0.1556
11075TIP3    H154716   4.185   5.597  11.223  0.0368  0.2775 -0.9064
11075TIP3    H254717   4.230   5.699  11.325  1.3024 -0.0876 -1.0804
11076TIP3   OH254718   5.492   3.965   0.925  0.2423 -0.9722  0.1835
11076TIP3    H154719   5.508   3.938   0.834  1.0397 -1.1468  0.3706
11076TIP3    H254720   5.420   4.028   0.918  0.9390 -0.2335 -0.6958
11077TIP3   OH254721   3.460   5.080   1.506 -0.2813  0.7072  0.1327
11077TIP3    H154722   3.465   5.130   1.425 -0.9814 -2.0791 -1.7776
11077TIP3    H254723   3.380   5.028   1.497 -0.8739  0.9563  3.0613
11078TIP3   OH254724   4.874   0.358   1.177  0.3490 -0.3465 -0.4900
11078TIP3    H154725   4.896   0.438   1.223  1.4792 -0.1915 -1.2664
11078TIP3    H254726   4.915   0.367   1.091 -0.6490 -1.1685 -1.0898
11079TIP3   OH254727   0.370   5.951   2.032 -0.6786  0.5585 -0.0383
11079TIP3    H154728   0.299   5.919   2.088 -0.1948  0.1062  0.3369
11079TIP3    H254729   0.387   5.879   1.972 -0.6500  0.7324 -0.2383
11080TIP3   OH254730   5.640   1.650   3.346 -0.0858  0.3943 -0.2274
11080TIP3    H154731   5.578   1.699   3.399 -0.0252  1.4466 -1.0940
11080TIP3    H254732   5.603   1.562   3.339  0.8875 -0.4168  3.2073
11081TIP3   OH254733   6.549   6.499  10.571  0.1450  0.4356  1.1976
11081TIP3    H154734   6.472   6.556  10.573 -0.3689 -0.2669  2.9796
11081TIP3    H254735   6.541   6.444  10.648  1.8455 -0.4707  0.7875
11082TIP3   OH254736   2.981   1.802  11.020 -0.1510 -0.1845 -0.0357
11082TIP3    H154737   2.897   1.845  11.032 -1.2506 -1.5067 -2.2393
11082TIP3    H254738   2.959   1.712  10.996  1.9828 -1.2948  1.7731
11083TIP3   OH254739   1.289   5.438   2.436 -0.6595  0.1108 -0.1450
11083TIP3    H154740   1.346   5.463   2.509 -3.2738 -0.4382  2.2678
11083TIP3    H254741   1.304   5.505   2.370  0.9165  1.3734  1.4034
11084TIP3   OH254742   4.195   4.771  11.378 -0.5652  0.1704  0.3845
11084TIP3    H154743   4.139   4.693  11.374 -1.4092  0.7556  0.4639
11084TIP3    H254744   4.284   4.736  11.377 -0.8395 -0.7224 -2.1815
11085TIP3   OH254745   2.893   2.125   6.027  0.2899  0.0321  0.7546
11085TIP3    H154746   2.863   2.086   6.109 -0.3942 -0.4208  0.2992
11085TIP3    H254747   2.854   2.071   5.958 -0.0216  1.0271  0.1149
11086TIP3   OH254748   2.511   0.275  14.931  0.0576 -0.8305  0.0512
11086TIP3    H154749   2.600   0.310  14.927 -0.2914  0.1786  0.6814
11086TIP3    H254750   2.465   0.319  14.859 -0.1782 -0.6052  0.3377
11087TIP3   OH254751   2.136   6.415   0.329 -0.0810 -0.9835 -0.2144
11087TIP3    H154752   2.174   6.471   0.261  1.4242  0.3325  1.5968
11087TIP3    H254753   2.101   6.477   0.393 -0.7720 -2.1788  0.5995
11088TIP3   OH254754   4.645   5.877   1.415  0.3817 -0.1617  0.1699
11088TIP3    H154755   4.614   5.809   1.476  0.4119 -0.0899  0.2648
11088TIP3    H254756   4.703   5.931   1.468 -0.8081  0.8452  0.5022
11089TIP3   OH254757   6.899   5.923  13.703  1.3997  0.5470 -0.1814
11089TIP3    H154758   6.946   5.853  13.748  0.8841  1.1443  1.3291
11089TIP3    H254759   6.922   5.910  13.611  1.8186 -1.2136  0.1204
11090TIP3   OH254760   0.466   5.901  11.624  0.3377  0.3278 -0.0504
11090TIP3    H154761   0.429   5.856  11.700 -1.3668 -0.9190 -1.5292
11090TIP3    H254762   0.550   5.936  11.656  0.9910 -2.4520  1.6921
11091TIP3   OH254763   3.325   0.937   1.727  0.7086 -0.2773  0.1152
11091TIP3    H154764   3.369   1.022   1.716 -1.1758  0.5647 -1.5576
11091TIP3    H254765   3.247   0.958   1.779  0.8193 -1.2216  0.6743
11092TIP3   OH254766   3.286   1.355   5.226 -0.0478  0.3272  0.1378
11092TIP3    H154767   3.217   1.399   5.276  0.2402  1.0875 -0.1178
11092TIP3    H254768   3.270   1.382   5.135 -0.7333 -1.2526 -0.2427
11093TIP3   OH254769   1.581   5.181  14.975 -0.3811 -0.6048  0.3802
11093TIP3    H154770   1.521   5.255  14.979 -1.2533 -1.2824  0.1165
11093TIP3    H254771   1.667   5.220  14.965 -0.8053  0.3790  0.4959
11094TIP3   OH254772   4.238   6.181   0.480  0.0518 -0.0406 -0.0080
11094TIP3    H154773   4.277   6.266   0.460 -0.7655  0.3858  0.1926
11094TIP3    H254774   4.146   6.191   0.457 -0.2820 -0.5101  1.0894
11095TIP3   OH254775   2.346   6.163  13.112 -0.1748  0.1013 -0.1931
11095TIP3    H154776   2.330   6.198  13.024 -0.3098  0.8709  0.1284
11095TIP3    H254777   2.441   6.157  13.119 -0.1938 -1.5939 -1.0057
11096TIP3   OH254778   1.932   6.208   5.877  0.0189 -0.0158 -0.5206
11096TIP3    H154779   1.972   6.286   5.916 -0.9268  0.3456 -0.2281
11096TIP3    H254780   1.843   6.207   5.913 -0.5856 -0.1872 -1.9550
11097TIP3   OH254781   7.213   1.848   0.912 -0.4716  0.1352  0.0826
11097TIP3    H154782   7.189   1.933   0.877  3.8456  1.1640 -0.9844
11097TIP3    H254783   7.204   1.788   0.838  0.0574  0.4560 -0.2434
11098TIP3   OH254784   5.561   6.727   3.319 -0.2314  0.2115 -0.2872
11098TIP3    H154785   5.633   6.719   3.256 -0.6727 -0.2768 -0.7369
11098TIP3    H254786   5.525   6.814   3.303 -0.2391  0.1522 -0.5956
11099TIP3   OH254787   6.226   4.621   1.785  0.0710  0.2133  0.4797
11099TIP3    H154788   6.261   4.655   1.868 -1.6150  0.1554  1.2578
11099TIP3    H254789   6.171   4.692   1.752  0.7261  0.2341 -0.6135
11100TIP3   OH254790   7.213   6.219   0.901  0.4187 -0.1282 -0.8192
11100TIP3    H154791   7.261   6.137   0.912 -0.1219 -0.4134 -0.5322
11100TIP3    H254792   7.280   6.282   0.876  0.5720 -1.0668 -3.0166
11101TIP3   OH254793   0.150   2.827   0.174 -0.2397 -0.2922 -0.3274
11101TIP3    H154794   0.212   2.803   0.105 -0.5857 -0.4309 -0.5863
11101TIP3    H254795   0.103   2.902   0.139 -0.3945 -0.3443 -0.2306
11102TIP3   OH254796   4.833   3.623  10.976  0.5179  0.4260 -0.2704
11102TIP3    H154797   4.787   3.541  10.994  0.2107  0.6713  0.0767
11102TIP3    H254798   4.922   3.595  10.952  0.5970  0.0164  0.4501
11103TIP3   OH254799   4.505   3.941   2.565 -0.1756 -0.3237 -0.0200
11103TIP3    H154800   4.491   3.892   2.484  0.2096 -0.0770 -0.2399
11103TIP3    H254801   4.592   3.913   2.595 -1.0896 -1.8728  1.3494
11104TIP3   OH254802   1.788   6.187   3.772 -0.0370  0.0990 -0.3077
11104TIP3    H154803   1.703   6.227   3.794 -0.6727 -0.4684 -1.6199
11104TIP3    H254804   1.781   6.097   3.805  2.3986  1.4923  5.1518
11105TIP3   OH254805   2.466   4.977   2.803 -0.2018 -0.5371 -0.1080
11105TIP3    H154806   2.438   4.907   2.744 -2.0755  1.6085 -1.9540
11105TIP3    H254807   2.393   4.986   2.865  0.2719 -0.5530  0.4625
11106TIP3   OH254808   0.912   4.714  13.334 -0.1994 -0.5087 -0.4240
11106TIP3    H154809   0.909   4.806  13.308  0.5679 -0.6232 -0.9340
11106TIP3    H254810   0.973   4.712  13.408 -0.2839 -0.5914 -0.3572
11107TIP3   OH254811   1.166   4.288   2.499  0.1009  0.2446 -1.0314
11107TIP3    H154812   1.083   4.253   2.467  0.3435 -0.3543 -1.0075
11107TIP3    H254813   1.155   4.383   2.494 -1.3193  0.2502  0.8020
11108TIP3   OH254814   4.495   6.681  12.431  0.2951 -0.3882 -0.6018
11108TIP3    H154815   4.427   6.738  12.397  1.2556  3.1024  2.5735
11108TIP3    H254816   4.468   6.663  12.521  0.5649 -4.3815 -1.1459
11109TIP3   OH254817   5.587   0.256  10.138  0.0164 -0.3045 -0.6000
11109TIP3    H154818   5.671   0.236  10.180  0.6514  0.9281 -1.2322
11109TIP3    H254819   5.602   0.237  10.045 -0.4238 -0.1160 -0.7089
11110TIP3   OH254820   6.296   1.944   1.446  0.1911  0.7983  0.0154
11110TIP3    H154821   6.222   1.930   1.505  0.7635  0.4332  0.6561
11110TIP3    H254822   6.261   2.002   1.378 -1.0184 -0.2578 -0.3136
11111TIP3   OH254823   0.764   5.088  14.811 -0.5124 -0.0645 -0.4122
11111TIP3    H154824   0.761   5.103  14.716  1.3345 -2.1152 -0.8866
11111TIP3    H254825   0.708   5.156  14.848  0.2413  2.0383 -2.8315
11112TIP3   OH254826   2.295   2.426   0.520  0.3309  0.2446 -0.5049
11112TIP3    H154827   2.260   2.500   0.469 -3.0059  0.4374  1.7967
11112TIP3    H254828   2.260   2.349   0.476  1.7989  0.0981 -1.4751
11113TIP3   OH254829   4.830   5.406   0.301 -0.1211  0.0784  0.1287
11113TIP3    H154830   4.754   5.411   0.358 -0.2699  2.7495 -0.1949
11113TIP3    H254831   4.810   5.334   0.241 -3.0216  1.4575 -0.7512
11114TIP3   OH254832   0.177   4.323  11.370  0.9987  0.0329  0.3465
11114TIP3    H154833   0.146   4.378  11.298  0.7701 -1.9468 -1.1501
11114TIP3    H254834   0.097   4.299  11.418  0.8688 -0.4367 -0.0924
11115TIP3   OH254835   3.268   0.655   1.239  0.2269  0.4047 -0.3964
11115TIP3    H154836   3.331   0.690   1.302  1.2800 -0.7136 -0.7991
11115TIP3    H254837   3.321   0.606   1.176 -0.8920  0.7069 -1.6338
11116TIP3   OH254838   2.411   5.634   3.188 -0.1725 -0.2490 -0.2819
11116TIP3    H154839   2.384   5.544   3.207 -1.2055 -0.1495 -1.2060
11116TIP3    H254840   2.335   5.687   3.213 -0.7350  0.0775 -2.5035
11117TIP3   OH254841   4.140   1.988   2.613  0.0760 -0.2495  0.3559
11117TIP3    H154842   4.132   1.902   2.572  1.4110  0.2707 -1.0991
11117TIP3    H254843   4.070   2.040   2.571  3.2550  1.1772 -3.9705
11118TIP3   OH254844   6.324   2.652  10.117  0.0232 -0.0362 -0.2554
11118TIP3    H154845   6.389   2.685  10.055  0.6500  1.5970  1.1967
11118TIP3    H254846   6.328   2.712  10.191 -2.2033 -0.6890  0.4780
11119TIP3   OH254847   1.597   3.528  15.050 -0.4184 -0.1248  0.1242
11119TIP3    H154848   1.549   3.456  15.009  0.0134 -0.0071 -0.5954
11119TIP3    H254849   1.678   3.535  15.000 -0.7637  1.3314 -0.2840
11120TIP3   OH254850   4.015   1.917  14.261  0.1603 -0.3033 -0.3712
11120TIP3    H154851   3.920   1.905  14.266  0.0062  0.3724 -1.4258
11120TIP3    H254852   4.048   1.870  14.337 -1.0096 -0.6388 -0.0369
11121TIP3   OH254853   5.603   0.190   2.407  0.2846  0.2875 -0.0159
11121TIP3    H154854   5.631   0.276   2.438 -0.2931  0.7639 -0.7577
11121TIP3    H254855   5.575   0.206   2.317 -1.5037 -0.3069  0.3973
11122TIP3   OH254856   2.474   4.158   0.523  0.5268 -0.1105 -0.1248
11122TIP3    H154857   2.566   4.133   0.527  0.5172 -0.4476 -1.5073
11122TIP3    H254858   2.469   4.243   0.567  1.3818 -0.3753  0.4944
11123TIP3   OH254859   1.359   6.184   9.534 -0.0720  0.2591 -0.3215
11123TIP3    H154860   1.448   6.214   9.518  0.6108 -1.7927 -0.6078
11123TIP3    H254861   1.362   6.142   9.620 -0.4831 -0.8031 -0.8123
11124TIP3   OH254862   0.023   1.744   0.350 -0.5841 -0.1655  0.2872
11124TIP3    H154863  -0.070   1.723   0.345 -1.3410  2.8927 -0.7965
11124TIP3    H254864   0.033   1.792   0.432 -0.2903  0.6654 -0.2140
11125TIP3   OH254865   1.042   1.247  14.774  0.4631  0.2328  0.2602
11125TIP3    H154866   0.959   1.214  14.739  0.4521  0.0989  0.4089
11125TIP3    H254867   1.108   1.191  14.734  0.2871 -1.7566  2.5037
11126TIP3   OH254868   0.123   6.100  12.446  0.6741 -0.4452  0.2065
11126TIP3    H154869   0.191   6.150  12.399 -0.1081  1.0136  0.5505
11126TIP3    H254870   0.075   6.167  12.495  0.9686 -1.8345  2.4954
11127TIP3   OH254871   5.513   5.892   3.834 -0.2160 -0.5807  0.1113
11127TIP3    H154872   5.576   5.893   3.762  0.2606 -0.2338  0.5282
11127TIP3    H254873   5.440   5.838   3.801 -0.0024 -0.4368 -0.6224
11128TIP3   OH254874   0.208   6.007   3.564  0.2371  0.5277 -0.1135
11128TIP3    H154875   0.280   6.027   3.505 -1.8754  0.7002 -2.8365
11128TIP3    H254876   0.158   5.939   3.519 -1.6391  0.8266  1.3749
11129TIP3   OH254877   4.262   1.292   0.630  0.2428  0.3152  0.4125
11129TIP3    H154878   4.344   1.301   0.581  0.3086  1.7511  0.7364
11129TIP3    H254879   4.226   1.208   0.601  1.6166 -0.1446 -0.0457
11130TIP3   OH254880   5.038   1.896  10.114  0.4738 -0.8186 -0.2762
11130TIP3    H154881   5.058   1.959  10.044 -2.0151  0.2560 -0.1367
11130TIP3    H254882   5.073   1.813  10.081  2.4262  0.2746 -1.1949
11131TIP3   OH254883   5.917   2.289   1.803 -0.5346 -0.7298  0.0487
11131TIP3    H154884   5.831   2.309   1.767  0.7624  1.1320 -2.3234
11131TIP3    H254885   5.927   2.348   1.877 -0.7616  0.1043 -0.5748
11132TIP3   OH254886   3.286   0.892  11.091 -0.1573 -0.3731 -0.1691
11132TIP3    H154887   3.242   0.970  11.055  0.5432 -0.8801 -2.3008
11132TIP3    H254888   3.214   0.835  11.120 -0.7390  0.4176 -0.0295
11133TIP3   OH254889   5.080   1.888   4.400  0.3440  0.0224  0.3152
11133TIP3    H154890   5.070   1.981   4.419 -0.5000 -0.0381  0.1844
11133TIP3    H254891   5.145   1.857   4.464  0.6686  0.7072  0.3180
11134TIP3   OH254892   5.754   1.069  13.872 -0.0441  0.1128  0.0111
11134TIP3    H154893   5.765   1.007  13.944  0.9309  0.8651  0.5390
11134TIP3    H254894   5.660   1.086  13.869 -0.1810 -0.5143  0.6007
11135TIP3   OH254895   3.560   5.982   2.480  0.1337 -0.2771  0.0956
11135TIP3    H154896   3.475   6.019   2.503 -0.1061 -0.2344 -0.8107
11135TIP3    H254897   3.606   6.052   2.435  0.3356 -0.5439 -0.1207
11136TIP3   OH254898   5.884   1.597  15.069  0.0171  0.1795 -0.4556
11136TIP3    H154899   5.846   1.664  15.012 -1.2716 -0.4773 -0.4213
11136TIP3    H254900   5.861   1.625  15.158 -1.9169 -1.0462 -0.5047
11137TIP3   OH254901   4.961   5.414   2.147 -0.4926 -0.0278  0.5094
11137TIP3    H154902   4.908   5.493   2.135  0.0027  0.6614  2.4701
11137TIP3    H254903   5.043   5.433   2.101  0.2413  1.3097  2.2471
11138TIP3   OH254904   0.472   3.030   3.607  0.0276  0.1267  0.2096
11138TIP3    H154905   0.431   2.965   3.664  0.0057 -0.4694 -0.4757
11138TIP3    H254906   0.559   3.044   3.645  0.0339 -0.3057  0.3569
11139TIP3   OH254907   3.851   6.965   0.548  0.4151 -0.0185  0.3968
11139TIP3    H154908   3.936   6.925   0.565  1.2912  0.1985 -2.7813
11139TIP3    H254909   3.794   6.892   0.523  1.4659  0.2417 -3.4146
11140TIP3   OH254910   4.312   1.683  15.201 -0.0232  0.3786 -0.6322
11140TIP3    H154911   4.246   1.623  15.166 -0.2290 -0.0104  0.3702
11140TIP3    H254912   4.324   1.654  15.292  0.5887  1.2530 -0.4249
11141TIP3   OH254913   6.220   0.227  11.376  0.2759  0.0370 -0.1733
11141TIP3    H154914   6.243   0.243  11.284  2.1430 -2.7215 -0.2802
11141TIP3    H254915   6.166   0.149  11.374  0.5830 -0.2264  1.1035
11142TIP3   OH254916   2.943   4.613  10.803 -0.1737  0.1703 -0.0845
11142TIP3    H154917   2.979   4.570  10.881  1.8429  0.3555 -0.8497
11142TIP3    H254918   2.909   4.542  10.749  0.9094 -0.2523 -0.2326
11143TIP3   OH254919   2.787   2.678   4.989 -0.0891  0.0646  0.3972
11143TIP3    H154920   2.720   2.653   4.925 -1.8165  0.1689  2.0775
11143TIP3    H254921   2.739   2.722   5.059  1.9961  1.9181  0.8049
11144TIP3   OH254922   4.130   5.512  10.296 -0.3430 -0.3394  0.3165
11144TIP3    H154923   4.209   5.476  10.336 -0.6110 -1.7795 -0.3719
11144TIP3    H254924   4.151   5.517  10.202 -0.7846  0.0632  0.2314
11145TIP3   OH254925   4.697   5.569   0.622 -0.1382 -0.4004 -0.6566
11145TIP3    H154926   4.726   5.614   0.543  0.7026 -1.5108 -1.0044
11145TIP3    H254927   4.635   5.502   0.591  0.1465 -0.8005 -0.3749
11146TIP3   OH254928   5.772   6.392   5.275 -0.5103 -0.2390 -0.1627
11146TIP3    H154929   5.760   6.299   5.255  2.3133 -0.8005  0.3203
11146TIP3    H254930   5.706   6.411   5.341  0.7746 -2.7839  2.0370
11147TIP3   OH254931   4.035   1.976   3.835 -0.1344 -0.3391  0.0062
11147TIP3    H154932   3.969   1.907   3.842 -0.0542 -0.3800  0.4048
11147TIP3    H254933   4.053   1.984   3.741 -1.1393  0.0824 -0.1607
11148TIP3   OH254934   3.249   2.537  15.043  0.2214  0.1438 -0.1722
11148TIP3    H154935   3.272   2.454  15.003  1.0730  0.4220 -0.2805
11148TIP3    H254936   3.295   2.537  15.127 -0.8337 -0.0558  0.4115
11149TIP3   OH254937   3.013   2.029  12.465 -0.3948  0.0439 -0.0217
11149TIP3    H154938   3.081   2.073  12.414 -1.2045  1.4917  0.1090
11149TIP3    H254939   2.989   1.953  12.412  2.4003 -1.4459  0.6478
11150TIP3   OH254940   5.391   3.851   0.651 -0.1771 -0.1276  0.1046
11150TIP3    H154941   5.410   3.882   0.562 -1.7835 -1.3200 -0.6998
11150TIP3    H254942   5.383   3.756   0.642 -2.9162 -0.0650  0.9575
11151TIP3   OH254943   2.665   6.326   1.219 -0.3936 -0.4700 -0.2197
11151TIP3    H154944   2.687   6.275   1.142 -0.0316 -1.0465  0.2554
11151TIP3    H254945   2.719   6.405   1.212  1.6673 -1.7153  0.7620
11152TIP3   OH254946   4.199   0.769  14.726  0.2344 -0.1629 -0.0590
11152TIP3    H154947   4.201   0.857  14.766 -0.2526 -0.2869  0.2457
11152TIP3    H254948   4.139   0.719  14.781 -1.2950 -0.0556 -1.5593
11153TIP3   OH254949   5.232   6.050   2.631 -0.3669  0.0003  0.2577
11153TIP3    H154950   5.275   6.051   2.716 -0.0024 -0.4551  0.0796
11153TIP3    H254951   5.196   6.139   2.622  0.0779  0.2222  0.6317
11154TIP3   OH254952   2.205   5.046   2.919 -0.4343  0.4300 -0.0781
11154TIP3    H154953   2.158   5.092   2.988  0.0675 -0.7477  1.0901
11154TIP3    H254954   2.147   4.974   2.895 -0.9403  1.2612 -1.4509
11155TIP3   OH254955   5.616   2.429  10.203 -0.1247 -0.5130  0.3458
11155TIP3    H154956   5.591   2.519  10.218  0.2685 -0.3190 -0.1156
11155TIP3    H254957   5.543   2.391  10.154 -0.0268 -0.2774  0.0177
11156TIP3   OH254958   2.296   4.458   1.296 -0.0070 -0.0418  0.5029
11156TIP3    H154959   2.224   4.440   1.235 -0.4292  1.4012  0.5139
11156TIP3    H254960   2.374   4.460   1.241 -0.0751 -0.9210  0.3711
11157TIP3   OH254961   1.624   6.617  11.071  0.2251 -0.2503  0.1284
11157TIP3    H154962   1.549   6.558  11.071 -0.3950  0.5181  0.2125
11157TIP3    H254963   1.589   6.700  11.103  0.7668  0.5545 -1.3088
11158TIP3   OH254964   5.926   1.692   3.312  0.7969 -0.3500  0.2556
11158TIP3    H154965   5.833   1.676   3.293  0.7091  0.9333 -0.5100
11158TIP3    H254966   5.924   1.746   3.392  0.8389  0.2657 -0.1520
11159TIP3   OH254967   6.479   2.040   4.267 -0.7816  0.0790  0.9277
11159TIP3    H154968   6.419   2.096   4.218 -2.1502 -1.2590  1.0163
11159TIP3    H254969   6.447   2.045   4.357 -1.8006 -1.8687  0.7250
11160TIP3   OH254970   2.116   4.622  14.092 -0.2777  0.0285 -0.1350
11160TIP3    H154971   2.156   4.644  14.176  0.7974  1.7076 -1.0344
11160TIP3    H254972   2.173   4.556  14.054  2.5892  3.2557 -1.9473
11161TIP3   OH254973   1.747   0.550  14.482  0.0795 -0.4694 -0.0075
11161TIP3    H154974   1.757   0.644  14.497 -1.5492 -0.2301 -0.2670
11161TIP3    H254975   1.815   0.528  14.419  1.6085  0.1687  1.3613
11162TIP3   OH254976   3.555   4.891   0.852  0.0170 -0.1844 -0.4176
11162TIP3    H154977   3.634   4.837   0.852  0.0401 -0.1602 -0.9299
11162TIP3    H254978   3.511   4.870   0.934  1.3160  0.9353  0.6015
11163TIP3   OH254979   0.408   0.557   4.159  0.1531 -0.0862  0.4911
11163TIP3    H154980   0.412   0.643   4.119 -0.4536  0.8249  2.2847
11163TIP3    H254981   0.315   0.535   4.160  0.1671 -0.1358  1.2803
11164TIP3   OH254982   4.719   1.317  15.019 -0.3203  0.6131 -0.7467
11164TIP3    H154983   4.644   1.358  15.063 -1.6904  0.7104 -2.9734
11164TIP3    H254984   4.717   1.355  14.931  2.7442  1.0199 -0.7290
11165TIP3   OH254985   1.293   0.902   3.011 -0.6237  0.0091  0.1290
11165TIP3    H154986   1.307   0.971   2.946  0.5319 -1.0306 -0.7897
11165TIP3    H254987   1.239   0.837   2.965  0.8859 -1.1185 -0.1191
11166TIP3   OH254988   4.656   6.455  12.414  0.1506  0.1810  0.5299
11166TIP3    H154989   4.738   6.482  12.454  0.6036  0.8425 -0.8061
11166TIP3    H254990   4.610   6.536  12.393  0.2640 -0.1123 -0.9560
11167TIP3   OH254991   6.879   3.937  14.005  0.4966  0.4532  0.1839
11167TIP3    H154992   6.861   3.987  13.926  0.2027  0.2943  0.1494
11167TIP3    H254993   6.835   3.986  14.075 -1.6265 -0.8511 -0.1429
11168TIP3   OH254994   7.027   0.010  14.003  0.2185  0.0633  0.2471
11168TIP3    H154995   6.999  -0.056  13.939 -1.0023  0.7910 -0.0130
11168TIP3    H254996   7.016  -0.033  14.088 -0.1659 -0.2172  0.0617
11169TIP3   OH254997   5.184   5.022  15.012  0.0891 -0.0999 -0.4921
11169TIP3    H154998   5.229   5.088  14.960  0.8220  1.0733  1.4820
11169TIP3    H254999   5.137   4.968  14.949  1.9248  0.4403 -2.4006
11170TIP3   OH255000   1.515   7.243  11.845  0.0809 -0.0751 -0.5117
11170TIP3    H155001   1.427   7.221  11.874 -0.7963  1.5583 -1.7349
11170TIP3    H255002   1.528   7.193  11.765  0.4837 -0.7051 -0.0599
11171TIP3   OH255003   1.497   3.583   0.177 -0.2007 -0.2562  0.2597
11171TIP3    H155004   1.549   3.561   0.100  0.5089 -1.3090  1.0035
11171TIP3    H255005   1.479   3.499   0.219 -0.2804  0.3114  1.4135
11172TIP3   OH255006   1.325   6.346  12.055  0.2591  0.2442  0.6749
11172TIP3    H155007   1.263   6.274  12.046  0.7010 -0.0614  0.0218
11172TIP3    H255008   1.281   6.421  12.014 -0.1931  0.3431  1.3409
11173TIP3   OH255009   4.831   3.197  13.207 -0.6627  0.1492  0.6878
11173TIP3    H155010   4.756   3.245  13.243  0.5599  3.5306 -0.8620
11173TIP3    H255011   4.893   3.192  13.281 -0.8027  1.1073  0.8972
11174TIP3   OH255012   5.660   7.179  11.807  0.2979 -0.4693  0.0206
11174TIP3    H155013   5.619   7.099  11.839 -0.7557 -0.1095 -0.3461
11174TIP3    H255014   5.644   7.243  11.876 -0.2331 -0.1963 -0.3459
11175TIP3   OH255015   6.003   2.610  10.756 -0.1938  0.6495 -0.1125
11175TIP3    H155016   5.963   2.615  10.842 -0.2362  0.0232 -0.0913
11175TIP3    H255017   6.048   2.526  10.755  0.4719  0.9994 -0.4170
11176TIP3   OH255018   0.937   4.077  10.307  0.0888 -0.2920 -0.1374
11176TIP3    H155019   0.922   4.091  10.214 -3.4459  3.0820  0.6807
11176TIP3    H255020   0.887   3.998  10.328 -0.8693  0.1334 -0.7675
11177TIP3   OH255021   2.890   3.486   4.059 -0.8004 -0.4986  0.2357
11177TIP3    H155022   2.879   3.399   4.020 -0.2030  0.0550 -1.2547
11177TIP3    H255023   2.828   3.542   4.013  0.3548  0.3109 -0.4080
11178TIP3   OH255024   0.616   0.647   9.992 -0.1695  0.5988  0.5154
11178TIP3    H155025   0.537   0.701   9.994 -0.7650 -0.2839  1.4233
11178TIP3    H255026   0.589   0.567   9.948 -0.5777 -0.8570  3.2077
11179TIP3   OH255027   1.614   0.530  15.028 -0.0723  0.1623  0.3854
11179TIP3    H155028   1.584   0.611  15.070 -1.5528  0.4161 -1.0495
11179TIP3    H255029   1.619   0.552  14.935  2.2541 -0.6392  0.2580
11180TIP3   OH255030   2.684   2.426   0.501 -0.7272  0.4421  0.4777
11180TIP3    H155031   2.633   2.345   0.497 -0.7328  0.5024 -1.6568
11180TIP3    H255032   2.740   2.423   0.423  0.8967  1.4675  1.5403
11181TIP3   OH255033   6.768   5.616   2.323 -0.4192  0.3993  0.2067
11181TIP3    H155034   6.850   5.647   2.284 -0.0150 -1.7668 -0.8550
11181TIP3    H255035   6.701   5.633   2.257 -0.0405 -1.6413 -0.7844
11182TIP3   OH255036   5.260   4.593   1.439 -1.3129  0.3380 -0.4535
11182TIP3    H155037   5.181   4.591   1.385 -1.2781 -0.3469 -0.4925
11182TIP3    H255038   5.330   4.561   1.381 -0.9641  1.1237 -0.4798
11183TIP3   OH255039   4.989   6.825  12.862  0.1485 -0.4793  0.2344
11183TIP3    H155040   5.037   6.907  12.876  0.4585 -0.3751 -1.3046
11183TIP3    H255041   5.045   6.775  12.803  0.9037 -2.6559  2.6085
11184TIP3   OH255042   5.619   2.673   1.811 -0.4015 -0.3406  0.2119
11184TIP3    H155043   5.642   2.765   1.797 -1.2091 -0.5216 -3.0998
11184TIP3    H255044   5.545   2.675   1.871  0.5917  1.0024  1.4645
11185TIP3   OH255045   6.351   4.400  13.412 -0.1049  0.1126  0.4535
11185TIP3    H155046   6.421   4.428  13.354 -0.6420  1.9590  0.6343
11185TIP3    H255047   6.387   4.410  13.500  0.3616 -1.7098  0.4999
11186TIP3   OH255048   6.604   6.995  15.198 -0.5835  0.4303 -0.4283
11186TIP3    H155049   6.564   7.081  15.209  0.2136  0.6069  1.5261
11186TIP3    H255050   6.690   7.013  15.159  0.0126  0.6562  0.9402
11187TIP3   OH255051   7.057   3.603  10.382  0.4308  0.4669 -0.0880
11187TIP3    H155052   7.107   3.582  10.302  0.4428 -2.8009  0.6309
11187TIP3    H255053   7.123   3.633  10.444  1.1853 -1.4303  0.0810
11188TIP3   OH255054   0.166   1.133  12.313  0.0949  0.5157  0.7203
11188TIP3    H155055   0.222   1.056  12.316  1.3272  1.3844  0.9921
11188TIP3    H255056   0.119   1.133  12.396 -0.0722 -0.0438  0.6267
11189TIP3   OH255057   0.951   5.179   1.400  0.0729  0.1275 -0.0304
11189TIP3    H155058   0.911   5.112   1.344 -1.7749  0.5243  0.7275
11189TIP3    H255059   1.019   5.132   1.448  0.0203 -0.7755 -0.8021
11190TIP3   OH255060   3.325   4.335  13.253 -0.3922  0.3110 -0.1827
11190TIP3    H155061   3.303   4.297  13.338  1.9827 -0.6297  0.0874
11190TIP3    H255062   3.417   4.362  13.261 -0.5754  1.6780 -1.9493
11191TIP3   OH255063   3.709   2.197  14.050  0.0621  0.0220 -0.1723
11191TIP3    H155064   3.746   2.109  14.051 -0.2651 -0.1441  2.2099
11191TIP3    H255065   3.746   2.240  14.127 -2.1558  0.9106  0.4832
11192TIP3   OH255066   3.751   2.914  11.119  0.4914 -0.3183  0.3012
11192TIP3    H155067   3.687   2.874  11.177  0.8824 -1.2526  0.1031
11192TIP3    H255068   3.771   2.998  11.159  0.1155 -0.5835  1.0558
11193TIP3   OH255069   1.971   2.128   3.137 -0.1897  0.3739  0.1764
11193TIP3    H155070   2.014   2.183   3.203  0.1975 -0.3510  0.5481
11193TIP3    H255071   1.981   2.039   3.171  0.3650 -0.0610 -1.0564
11194TIP3   OH255072   1.618   7.019  13.710  0.2297  0.1270  0.4785
11194TIP3    H155073   1.628   6.988  13.799  0.3202  1.5646  1.0019
11194TIP3    H255074   1.619   7.115  13.718  0.1768  0.2803 -1.0499
11195TIP3   OH255075   0.251   3.707   0.254 -0.2513  0.2166 -0.2678
11195TIP3    H155076   0.337   3.666   0.265 -0.0221  0.5370 -0.8230
11195TIP3    H255077   0.254   3.747   0.167 -0.6051  1.0859  0.1046
11196TIP3   OH255078   6.547   4.537   3.677  0.1273 -0.4042 -0.4532
11196TIP3    H155079   6.529   4.631   3.675 -0.9137 -0.6092 -1.3151
11196TIP3    H255080   6.593   4.519   3.595  2.5864 -0.2686  0.7757
11197TIP3   OH255081   3.982   6.707  11.284 -0.4442  0.1404 -0.1718
11197TIP3    H155082   4.067   6.676  11.252 -0.1160 -0.6827  1.3848
11197TIP3    H255083   3.919   6.679  11.218  0.5297  1.1242 -1.5571
11198TIP3   OH255084   3.952   2.983   0.069 -0.7986  0.6833 -0.0510
11198TIP3    H155085   3.932   2.966   0.161 -0.0743 -3.5609 -0.4556
11198TIP3    H255086   4.008   3.061   0.070  0.5834 -0.1640  3.3414
11199TIP3   OH255087   1.859   3.759   0.785  0.3215 -0.5205  0.5848
11199TIP3    H155088   1.909   3.682   0.760 -0.1789 -0.4579 -0.6559
11199TIP3    H255089   1.923   3.830   0.785  0.0762 -0.2062 -2.1885
11200TIP3   OH255090   1.351   1.951   4.482  0.4555 -0.4639 -0.6005
11200TIP3    H155091   1.442   1.978   4.494  1.1435 -3.0773  0.8510
11200TIP3    H255092   1.300   2.028   4.507  2.2316  0.7613 -0.5123
11201TIP3   OH255093   1.819   4.650   0.080  0.2547 -0.0345  0.2140
11201TIP3    H155094   1.734   4.612   0.105  0.1062 -0.5867 -1.0530
11201TIP3    H255095   1.840   4.608  -0.004  2.4992 -1.0368  1.1861
11202TIP3   OH255096   4.654   5.873   4.796 -0.0574 -0.2355  0.5330
11202TIP3    H155097   4.720   5.942   4.779  0.0578 -0.4188  0.2180
11202TIP3    H255098   4.685   5.798   4.745  0.8123 -1.1400  2.3164
11203TIP3   OH255099   4.154   1.618  14.257  0.1093  0.0275 -0.1422
11203TIP3    H155100   4.142   1.696  14.204 -1.0861 -0.3023 -0.3943
11203TIP3    H255101   4.134   1.646  14.346  0.4499  0.1850 -0.1134
11204TIP3   OH255102   3.364   5.047   9.521  0.0466 -0.0268  0.3835
11204TIP3    H155103   3.294   4.983   9.533 -0.5847  0.1924 -1.7029
11204TIP3    H255104   3.319   5.130   9.504  0.8089  0.3708  0.2393
11205TIP3   OH255105   3.317   4.876   3.375  0.0947  0.2819 -0.0511
11205TIP3    H155106   3.401   4.898   3.335  0.2722  0.7178  0.5499
11205TIP3    H255107   3.338   4.809   3.440  0.0439  0.6553  0.3579
11206TIP3   OH255108   2.726   0.131   0.192  0.3059  0.6893 -0.1116
11206TIP3    H155109   2.747   0.114   0.100 -0.0482  0.5971 -0.1791
11206TIP3    H255110   2.794   0.085   0.241  1.0162  1.4823 -0.3324
11207TIP3   OH255111   3.964   3.481   2.350 -0.1545  0.5294 -0.3915
11207TIP3    H155112   4.006   3.436   2.423 -0.0572  0.2053 -0.6452
11207TIP3    H255113   3.988   3.429   2.273 -1.4555  0.0231 -0.4764
11208TIP3   OH255114   5.642   2.963   0.555  0.1935  0.3852  0.6127
11208TIP3    H155115   5.729   2.967   0.514 -0.6099 -0.6325 -1.3086
11208TIP3    H255116   5.612   3.054   0.556  1.0371  0.6697  0.7637
11209TIP3   OH255117   1.423   4.049   0.867  0.2547  0.0718  0.0826
11209TIP3    H155118   1.490   3.983   0.888  0.2690  0.8217  2.7575
11209TIP3    H255119   1.365   4.049   0.943 -0.6744  2.0160 -0.5737
11210TIP3   OH255120   2.788   4.983   0.961 -0.1816  0.2685  0.1650
11210TIP3    H155121   2.783   4.957   1.053  0.6540 -1.6125 -0.2516
11210TIP3    H255122   2.709   5.034   0.945 -0.1609  0.9313  1.9971
11211TIP3   OH255123   4.740   0.571   0.534  0.4511 -0.2407 -0.1931
11211TIP3    H155124   4.692   0.646   0.499  1.3234  1.0587  1.2665
11211TIP3    H255125   4.742   0.586   0.629  0.8426 -2.0093  0.1081
11212TIP3   OH255126   4.998   4.711   3.422  0.7113 -0.6125 -0.0607
11212TIP3    H155127   5.075   4.767   3.434 -0.4613  1.0001  0.1252
11212TIP3    H255128   4.998   4.653   3.498  0.7302  0.6164  0.8973
11213TIP3   OH255129   7.172   7.194   2.593  0.3173 -0.0410  0.4266
11213TIP3    H155130   7.184   7.248   2.671 -1.5504 -0.1649  0.8429
11213TIP3    H255131   7.259   7.155   2.577  1.3536  1.9247  0.9431
11214TIP3   OH255132   2.374   1.614  13.706  0.0718 -0.1838 -0.1801
11214TIP3    H155133   2.347   1.588  13.794  0.0396  0.5364  0.0260
11214TIP3    H255134   2.441   1.681  13.720  1.9916 -1.8915 -0.6815
11215TIP3   OH255135   4.920   0.312  14.189 -0.2247  0.2623  0.3014
11215TIP3    H155136   4.896   0.236  14.242  1.4897 -1.4292 -1.2038
11215TIP3    H255137   5.008   0.336  14.220  0.2393  0.0841 -0.8428
11216TIP3   OH255138   6.629   2.198   3.974  0.0450 -0.3761  0.3959
11216TIP3    H155139   6.595   2.207   4.063 -1.9652  1.2200 -0.4379
11216TIP3    H255140   6.687   2.273   3.962  0.4937 -0.7158  0.4260
11217TIP3   OH255141   6.813   1.459  13.805 -0.2399  0.5703 -0.0373
11217TIP3    H155142   6.755   1.454  13.729  3.0964 -0.4288 -2.8202
11217TIP3    H255143   6.855   1.545  13.796  0.0096  0.5452  0.8237
11218TIP3   OH255144   3.930   3.770   0.120 -0.0213  0.4150  0.1450
11218TIP3    H155145   3.935   3.685   0.164  0.3231  0.5123  0.2978
11218TIP3    H255146   3.842   3.773   0.083  0.0766 -0.1481 -0.1419
11219TIP3   OH255147   1.882   3.044   5.529  0.3347 -0.0281  0.5204
11219TIP3    H155148   1.876   3.064   5.622  0.5897 -0.0245  0.5394
11219TIP3    H255149   1.827   3.110   5.486  0.4662  0.1654  0.6463
11220TIP3   OH255150   0.753   2.299   1.013  0.6345  0.5669 -0.3574
11220TIP3    H155151   0.752   2.359   1.087  0.9641  0.0689  0.0571
11220TIP3    H255152   0.727   2.353   0.938  0.5719  1.1368  0.0677
11221TIP3   OH255153   2.952   1.189   0.130 -0.4173 -0.1867  0.4226
11221TIP3    H155154   2.900   1.241   0.190 -0.5028 -0.3571  0.4976
11221TIP3    H255155   3.037   1.233   0.126 -1.1039  1.0956 -1.0526
11222TIP3   OH255156   5.615   2.510  14.678  0.1950 -0.8051  0.2695
11222TIP3    H155157   5.704   2.516  14.713  0.0413  1.3214  0.4037
11222TIP3    H255158   5.617   2.433  14.622  2.4800 -0.1178 -0.7068
11223TIP3   OH255159   3.218   6.439   3.750  0.5465 -0.3463 -0.5367
11223TIP3    H155160   3.253   6.487   3.825  0.4532  0.0829 -0.7618
11223TIP3    H255161   3.262   6.476   3.674  2.1293 -2.1402 -0.5625
11224TIP3   OH255162   2.739   4.048  14.202 -0.1823  0.2961  0.1326
11224TIP3    H155163   2.655   4.089  14.222 -0.7138 -0.4848 -0.4310
11224TIP3    H255164   2.778   4.105  14.135 -1.3743 -0.6134 -1.4033
11225TIP3   OH255165   6.163   1.154   1.092 -0.5079  0.0280 -0.0908
11225TIP3    H155166   6.081   1.199   1.072 -0.8150 -0.7751 -0.6837
11225TIP3    H255167   6.166   1.152   1.188  0.0758  2.2715  0.0034
11226TIP3   OH255168   1.297   1.355   2.283  0.3673 -0.2480  0.2211
11226TIP3    H155169   1.378   1.390   2.247  0.7737 -0.0317  1.3172
11226TIP3    H255170   1.236   1.429   2.283  1.4198  0.7667  3.1497
11227TIP3   OH255171   5.763   5.058  11.293 -0.2918  0.3310 -0.4200
11227TIP3    H155172   5.736   5.015  11.374 -2.3014  1.7835 -0.2318
11227TIP3    H255173   5.777   5.149  11.317  0.7573  0.4436 -1.3948
11228TIP3   OH255174   1.182   3.785  12.784  0.4447  0.0913  0.2703
11228TIP3    H155175   1.095   3.788  12.746  0.5580 -0.1097 -0.0079
11228TIP3    H255176   1.189   3.696  12.820  0.8512 -0.1857 -0.4703
11229TIP3   OH255177   6.714   5.084   0.033 -0.1179  0.2870  0.1684
11229TIP3    H155178   6.671   5.015   0.084  1.0825  0.1506  1.0323
11229TIP3    H255179   6.655   5.159   0.040 -0.3674  0.0203  1.0819
11230TIP3   OH255180   5.501   1.140  14.447 -0.0928  0.3058  0.5665
11230TIP3    H155181   5.500   1.203  14.375  1.1130 -1.1710 -0.8367
11230TIP3    H255182   5.413   1.104  14.450  0.7262 -2.6791 -3.1785
11231TIP3   OH255183   6.607   5.475   4.860  0.0465  0.0671 -0.0693
11231TIP3    H155184   6.545   5.421   4.910 -0.0474  1.7542  1.7538
11231TIP3    H255185   6.686   5.422   4.855  0.0572 -0.1669  1.9417
11232TIP3   OH255186   0.058   6.813   3.821  0.0910 -0.1702 -0.2317
11232TIP3    H155187   0.010   6.853   3.748 -0.3173 -1.8462 -0.9464
11232TIP3    H255188   0.135   6.773   3.779 -0.9791 -2.5658 -0.0865
11233TIP3   OH255189   4.403   6.197   5.382  0.3958  0.5001 -0.1070
11233TIP3    H155190   4.456   6.194   5.462  0.9913  0.2776 -0.4987
11233TIP3    H255191   4.379   6.106   5.366  0.5068  0.5075 -0.3251
11234TIP3   OH255192   5.100   0.627   4.995 -0.1304  0.4522  0.3157
11234TIP3    H155193   5.163   0.558   5.010 -1.0306 -0.5302 -0.2933
11234TIP3    H255194   5.066   0.648   5.082  0.6523  0.6326  0.5830
11235TIP3   OH255195   7.196   1.097  12.858  0.1420 -0.4698 -0.1843
11235TIP3    H155196   7.271   1.091  12.918  0.1649 -0.1620 -0.1813
11235TIP3    H255197   7.233   1.132  12.777 -0.3651  1.7524  0.4926
11236TIP3   OH255198   7.227   5.422  12.262 -0.4436 -0.4848  0.2417
11236TIP3    H155199   7.229   5.482  12.336  1.9813  1.8720 -1.5391
11236TIP3    H255200   7.252   5.337  12.299  1.0603  0.6846  2.0557
11237TIP3   OH255201   3.882   4.460   1.637 -0.1037 -0.0479  0.0013
11237TIP3    H155202   3.868   4.425   1.725  0.1680  0.8342  0.4117
11237TIP3    H255203   3.816   4.417   1.583 -1.9175  1.1821  1.1238
11238TIP3   OH255204   6.986   2.087  13.894 -0.2770 -0.1096  0.1469
11238TIP3    H155205   6.905   2.105  13.847 -0.0511 -1.1335 -0.6472
11238TIP3    H255206   7.009   1.997  13.872  0.2804 -0.3553  1.5637
11239TIP3   OH255207   4.664   2.304   2.744 -0.0893  0.3739  0.6717
11239TIP3    H155208   4.688   2.247   2.671 -3.1580 -1.6769  1.0751
11239TIP3    H255209   4.669   2.393   2.709 -0.3414 -0.4890 -1.6739
11240TIP3   OH255210   2.707   2.846   5.203 -0.2158 -0.2617  0.4072
11240TIP3    H155211   2.692   2.937   5.227  2.2016  0.5582 -0.7904
11240TIP3    H255212   2.622   2.803   5.214 -1.6081  2.2890  0.2931
11241TIP3   OH255213   4.695   2.888  11.773 -0.0335  0.2095  0.3751
11241TIP3    H155214   4.624   2.866  11.712 -0.4180  1.4356  0.3506
11241TIP3    H255215   4.650   2.908  11.855  0.2460  1.3791  0.2524
11242TIP3   OH255216   4.203   0.294  13.822  0.4246 -0.3277 -0.1691
11242TIP3    H155217   4.285   0.301  13.773  1.0010 -0.4246  0.7467
11242TIP3    H255218   4.203   0.370  13.880  0.5371 -1.0330  0.7949
11243TIP3   OH255219   0.385   0.066   2.961 -0.0209  0.2762  0.1741
11243TIP3    H155220   0.387  -0.016   2.911  0.5195 -0.1416  0.8486
11243TIP3    H255221   0.310   0.113   2.927 -1.5604 -1.3693  1.0964
11244TIP3   OH255222   2.640   4.289   0.130  0.0712 -0.6516  0.3859
11244TIP3    H155223   2.693   4.276   0.209  0.3166  0.8869  0.5052
11244TIP3    H255224   2.686   4.240   0.062  1.3421  0.1709  0.6227
11245TIP3   OH255225   6.249   1.640   0.724  0.0501 -0.0272  0.3079
11245TIP3    H155226   6.171   1.691   0.704  0.2556  0.3042  0.3465
11245TIP3    H255227   6.286   1.619   0.638 -0.4486 -0.7592  0.2700
11246TIP3   OH255228   0.628   4.063  11.882 -0.2966  0.7073  0.1201
11246TIP3    H155229   0.563   4.048  11.950  0.5034  0.5535  0.8735
11246TIP3    H255230   0.624   4.157  11.864  1.6096  1.3921  2.6622
11247TIP3   OH255231   0.871   3.240  13.958  0.3740  0.4281 -0.3957
11247TIP3    H155232   0.926   3.318  13.947 -1.5421  1.6741 -1.9311
11247TIP3    H255233   0.782   3.271  13.937 -0.8020 -1.6712  1.1141
11248TIP3   OH255234   5.942   6.464   3.697  0.6895 -0.4493  0.2018
11248TIP3    H155235   6.027   6.507   3.692 -0.0800  1.0224 -0.5594
11248TIP3    H255236   5.953   6.383   3.647  1.9159 -0.7857  0.9728
11249TIP3   OH255237   6.867   6.287  10.009 -0.1489 -0.0929 -0.2412
11249TIP3    H155238   6.899   6.211   9.958  2.8670  1.0663 -0.3097
11249TIP3    H255239   6.853   6.355   9.943  1.2517  0.6294  0.1742
11250TIP3   OH255240   1.353   7.048   0.854  0.2193  0.1808  0.0217
11250TIP3    H155241   1.275   7.051   0.799  1.1057 -0.6437 -1.3241
11250TIP3    H255242   1.324   7.081   0.939 -1.2712  1.1645 -0.8297
11251TIP3   OH255243   2.762   2.061   0.582 -0.1621 -0.2911  0.3393
11251TIP3    H155244   2.855   2.041   0.584  0.0109  0.5556  1.7435
11251TIP3    H255245   2.724   1.993   0.526  1.4508  0.0783 -1.3073
11252TIP3   OH255246   5.325   2.566   1.931  0.0163  0.5830  0.3375
11252TIP3    H155247   5.315   2.593   2.022  2.6945  1.1201  0.5642
11252TIP3    H255248   5.389   2.495   1.933 -2.1102 -1.5065 -0.9036
11253TIP3   OH255249   4.302   6.985   2.362  0.5099 -0.4003 -0.1195
11253TIP3    H155250   4.321   6.911   2.419  0.9024  0.8794  1.4881
11253TIP3    H255251   4.225   7.026   2.401  1.3586  1.0634  0.0910
11254TIP3   OH255252   0.646   0.639  10.271 -0.1010  0.0468  0.1519
11254TIP3    H155253   0.588   0.565  10.289 -1.7127  0.9694 -0.9499
11254TIP3    H255254   0.667   0.631  10.178 -0.3465  0.9862  0.0036
11255TIP3   OH255255   5.614   0.437  14.993  0.1013  0.1397 -0.9505
11255TIP3    H155256   5.568   0.376  14.935 -1.6757  0.7379 -0.2327
11255TIP3    H255257   5.653   0.501  14.934  0.0931 -0.4204 -1.5846
11256TIP3   OH255258   4.757   4.682   1.095 -0.1386 -0.3875  0.2744
11256TIP3    H155259   4.781   4.768   1.127  0.4600 -0.5977  0.4015
11256TIP3    H255260   4.815   4.667   1.021 -0.0616 -0.7926  0.4156
11257TIP3   OH255261   6.544   3.076  14.823  0.2838 -0.1547 -0.3464
11257TIP3    H155262   6.482   3.149  14.830  1.9994  1.3214 -0.0395
11257TIP3    H255263   6.488   2.999  14.810 -1.5965  1.1445 -0.3508
11258TIP3   OH255264   1.599   5.948   4.734 -0.2416 -0.4458  0.0702
11258TIP3    H155265   1.559   5.946   4.647  0.0632  1.7787 -0.1900
11258TIP3    H255266   1.544   6.008   4.784  0.1496 -0.9477  1.1328
11259TIP3   OH255267   2.539   2.926   0.938 -0.1568 -0.2866 -0.1804
11259TIP3    H155268   2.533   2.831   0.937 -0.3485 -0.2722 -0.3879
11259TIP3    H255269   2.599   2.947   0.866 -0.1512 -0.2475 -0.1646
11260TIP3   OH255270   0.404   6.191  13.793 -0.2607  0.3875 -0.1624
11260TIP3    H155271   0.399   6.210  13.700  1.2755  0.6462 -0.2242
11260TIP3    H255272   0.339   6.123  13.808  0.9729 -1.2499 -1.8709
11261TIP3   OH255273   0.055   3.271   3.224  0.2750 -0.3585 -0.5596
11261TIP3    H155274   0.143   3.298   3.251 -0.8817  1.6772  1.5504
11261TIP3    H255275   0.029   3.206   3.290 -0.2015 -0.1236 -0.5099
11262TIP3   OH255276   5.256   1.791   9.414  0.2594 -0.4150 -0.4404
11262TIP3    H155277   5.278   1.798   9.322 -0.8336 -0.9831 -0.7702
11262TIP3    H255278   5.185   1.854   9.427  0.2483 -0.5017 -0.0541
11263TIP3   OH255279   1.907   4.909   1.516 -0.2096  0.2964  0.2531
11263TIP3    H155280   1.960   4.989   1.517 -0.6912  0.6330 -0.6448
11263TIP3    H255281   1.894   4.888   1.609  1.3017  0.3275  0.4978
11264TIP3   OH255282   2.838   7.049   1.546 -0.0754 -0.7547  0.0053
11264TIP3    H155283   2.781   7.028   1.472  1.3674  0.4668 -1.5317
11264TIP3    H255284   2.788   7.023   1.623 -2.6677  0.1503 -1.2521
11265TIP3   OH255285   6.448   3.362  12.110  0.4390  0.0437  0.6852
11265TIP3    H155286   6.382   3.307  12.068  0.8402 -1.3984  1.8338
11265TIP3    H255287   6.531   3.333  12.072  0.4280  2.4922 -1.4504
11266TIP3   OH255288   1.433   3.737   3.633 -0.1600 -0.1923  0.3790
11266TIP3    H155289   1.348   3.714   3.595  0.0623 -1.2201  0.4980
11266TIP3    H255290   1.436   3.690   3.716  0.0339  0.7882  0.9402
11267TIP3   OH255291   5.356   5.804  15.342 -0.5996 -0.2638  0.2046
11267TIP3    H155292   5.266   5.772  15.332 -0.3881 -0.9059  0.3427
11267TIP3    H255293   5.409   5.745  15.289 -0.2252 -0.0268  0.3082
11268TIP3   OH255294   1.075   0.974   2.303  0.0421 -0.2839  0.0786
11268TIP3    H155295   0.983   0.953   2.285  0.1588 -2.6775  1.8832
11268TIP3    H255296   1.090   0.942   2.392  2.1232  1.8993  0.6129
11269TIP3   OH255297   4.877   1.479   5.158  0.5836  0.4367  0.6760
11269TIP3    H155298   4.945   1.544   5.179 -0.6090  2.2758 -0.7592
11269TIP3    H255299   4.871   1.481   5.063 -2.0168  0.9829  0.7646
11270TIP3   OH255300   6.699   5.731   0.231  0.1987  0.1110  0.0533
11270TIP3    H155301   6.718   5.822   0.209 -0.4783 -0.1436 -1.7251
11270TIP3    H255302   6.767   5.681   0.185  0.7868 -0.3012  1.3069
11271TIP3   OH255303   2.974   2.241   3.271 -0.3776 -0.3081 -0.1886
11271TIP3    H155304   3.051   2.243   3.214 -0.4127 -1.3069 -0.2996
11271TIP3    H255305   3.004   2.280   3.353  0.3572 -0.9750 -0.1196
11272TIP3   OH255306   0.504   7.006   3.726  0.5035  0.0532 -0.5836
11272TIP3    H155307   0.489   6.977   3.816  1.9780 -0.2314 -0.3982
11272TIP3    H255308   0.578   7.067   3.732 -0.3992  1.2860 -1.4155
11273TIP3   OH255309   6.154   0.017   4.360 -0.3972 -0.4084  0.3601
11273TIP3    H155310   6.179   0.092   4.306 -0.2413  0.0274  1.0218
11273TIP3    H255311   6.223   0.010   4.426 -0.6256 -0.8767  0.5587
11274TIP3   OH255312   6.955   4.774   2.101 -0.7869  0.2639  0.8953
11274TIP3    H155313   6.939   4.809   2.189 -0.8517  2.0836  0.2008
11274TIP3    H255314   7.018   4.834   2.062  0.5072 -1.4479  0.2460
11275TIP3   OH255315   0.949   3.755  12.671  0.5342  0.6033 -0.3585
11275TIP3    H155316   0.883   3.688  12.691  2.2107 -0.7068  1.0147
11275TIP3    H255317   0.907   3.837  12.694 -0.5285 -0.2236  0.8059
11276TIP3   OH255318   6.616   3.170  11.083  0.4102 -0.2476 -0.0211
11276TIP3    H155319   6.600   3.113  11.158 -0.8244 -2.7182 -2.0326
11276TIP3    H255320   6.564   3.248  11.100 -2.1454 -1.9542  0.4447
11277TIP3   OH255321   1.470   6.863   0.348  0.0338  0.4805  0.2304
11277TIP3    H155322   1.407   6.812   0.297  0.2078  1.0309 -0.5622
11277TIP3    H255323   1.423   6.945   0.367 -0.2310  0.0660  1.4507
11278TIP3   OH255324   4.673   4.678  12.262  0.5577  0.8897  0.0939
11278TIP3    H155325   4.627   4.728  12.330 -1.0382  0.2494 -0.4610
11278TIP3    H255326   4.761   4.716  12.259  0.5825  1.1388  2.2940
11279TIP3   OH255327   6.289   0.119  13.307 -0.1007 -1.0175 -0.3599
11279TIP3    H155328   6.250   0.036  13.334 -1.3389  0.2771  2.1236
11279TIP3    H255329   6.216   0.180  13.304  1.2949  1.0883  2.7505
11280TIP3   OH255330   3.735   5.562  13.959  0.0650 -0.1086  0.0137
11280TIP3    H155331   3.650   5.554  13.915 -0.7847  1.5101  1.2493
11280TIP3    H255332   3.798   5.566  13.887 -0.8075 -1.8833 -0.9318
11281TIP3   OH255333   2.967   2.903   9.402  0.3446 -0.2039 -0.2120
11281TIP3    H155334   2.886   2.910   9.451  0.7129 -0.8768  0.5319
11281TIP3    H255335   2.942   2.917   9.311 -0.2714  1.5991  0.1990
11282TIP3   OH255336   3.070   3.145   5.099 -0.0696 -0.0985 -0.0260
11282TIP3    H155337   3.099   3.073   5.155 -0.7140 -0.0440  0.3831
11282TIP3    H255338   2.978   3.126   5.081 -0.4543  1.0068  0.6865
11283TIP3   OH255339   0.686   3.872   9.758 -0.3621 -0.3783  0.1730
11283TIP3    H155340   0.639   3.948   9.723 -0.4806  0.0646  1.2531
11283TIP3    H255341   0.765   3.866   9.704 -0.3786  0.4860  0.0400
11284TIP3   OH255342   1.551   6.787   1.793 -0.3100  0.1818 -0.1933
11284TIP3    H155343   1.640   6.756   1.776 -1.0958 -2.7265  0.3989
11284TIP3    H255344   1.509   6.791   1.707 -0.1025 -0.2191 -0.3147
11285TIP3   OH255345   5.846   0.029   5.970 -0.1497  0.1001 -0.5728
11285TIP3    H155346   5.829  -0.065   5.980 -0.7677  0.1580 -1.0002
11285TIP3    H255347   5.939   0.035   5.951  0.3180 -0.2763  1.3835
11286TIP3   OH255348   7.075   6.350  14.692  0.6095  0.2617  0.4707
11286TIP3    H155349   7.086   6.390  14.605 -0.0348  0.6347  0.5510
11286TIP3    H255350   7.079   6.423  14.753 -0.8037  0.2586  0.6016
11287TIP3   OH255351   6.845   6.296  11.169 -0.2809  0.0036  0.2369
11287TIP3    H155352   6.934   6.292  11.203 -0.6376  0.5647  1.2819
11287TIP3    H255353   6.840   6.225  11.105  0.7202 -0.4435  0.6434
11288TIP3   OH255354   7.172   1.057  14.253  0.6792  0.1533 -0.6458
11288TIP3    H155355   7.175   1.012  14.337  1.4993 -1.2176 -1.3757
11288TIP3    H255356   7.092   1.110  14.257  0.4958 -0.1839  0.8293
11289TIP3   OH255357   2.214   1.795  13.054 -0.2208 -0.5511  0.2338
11289TIP3    H155358   2.250   1.876  13.090  1.8826 -1.4142  0.1803
11289TIP3    H255359   2.270   1.726  13.089  0.1701 -1.6914 -2.3998
11290TIP3   OH255360   2.800   1.242  14.424 -0.3277 -0.6397  0.2909
11290TIP3    H155361   2.720   1.224  14.473 -0.1412 -0.8392  0.5211
11290TIP3    H255362   2.848   1.304  14.479 -0.6747  0.0942 -0.2061
11291TIP3   OH255363   5.860   0.535   2.047 -0.3704  0.5984 -0.2051
11291TIP3    H155364   5.933   0.519   1.988 -0.4292  0.6921 -0.3050
11291TIP3    H255365   5.823   0.618   2.016  1.5244  2.3444  1.9095
11292TIP3   OH255366   4.465   0.208   2.089 -0.1388  0.1343  0.8806
11292TIP3    H155367   4.436   0.136   2.144 -1.6032 -1.0542 -1.2873
11292TIP3    H255368   4.523   0.167   2.025  0.2710  1.1705  0.5711
11293TIP3   OH255369   3.681   4.389  12.560 -0.0436  0.2817 -0.6832
11293TIP3    H155370   3.589   4.381  12.533  0.1785 -0.3974 -1.2718
11293TIP3    H255371   3.682   4.356  12.651 -0.7581  2.3942  0.1476
11294TIP3   OH255372   6.711   2.940  10.920 -0.1137  0.3137  0.2574
11294TIP3    H155373   6.646   2.995  10.964  0.5824  0.0130  1.7466
11294TIP3    H255374   6.660   2.877  10.870 -1.0487 -0.4910  2.1203
11295TIP3   OH255375   1.201   5.625   0.164  0.3294 -0.4515  0.1227
11295TIP3    H155376   1.270   5.568   0.129 -0.0425  0.3098 -1.9798
11295TIP3    H255377   1.123   5.599   0.116 -0.5508 -0.3179  1.4513
11296TIP3   OH255378   2.523   4.036  12.653 -0.4187  0.2784 -0.6359
11296TIP3    H155379   2.619   4.046  12.653  0.0197 -2.8938 -0.1646
11296TIP3    H255380   2.499   4.031  12.745 -0.8215 -0.4387 -0.7743
11297TIP3   OH255381   1.996   2.221   0.845  0.0284  0.0815 -0.6830
11297TIP3    H155382   2.054   2.266   0.906  0.2643  0.7816 -1.4048
11297TIP3    H255383   1.909   2.254   0.865  0.4017  2.2936 -2.3913
11298TIP3   OH255384   0.723   4.702  13.035 -0.3199  0.0081 -0.5089
11298TIP3    H155385   0.722   4.739  13.124  0.3557  0.9536 -0.8868
11298TIP3    H255386   0.707   4.609  13.049 -0.0217  0.1044  0.6303
11299TIP3   OH255387   7.079   3.457   0.364  0.0569  0.4031 -0.2819
11299TIP3    H155388   6.998   3.493   0.401  0.0843  1.0605 -0.8188
11299TIP3    H255389   7.050   3.391   0.302 -0.0395  0.1690  0.0119
11300TIP3   OH255390   1.718   1.324   2.345  0.2082 -0.2846  0.0628
11300TIP3    H155391   1.800   1.316   2.395  0.6599  1.1218 -0.3933
11300TIP3    H255392   1.680   1.236   2.346  0.4627 -0.4220  2.4155
11301TIP3   OH255393   3.850   2.248   2.001 -0.2215  0.0466 -0.4487
11301TIP3    H155394   3.780   2.211   1.947 -0.4891 -0.1608  0.0353
11301TIP3    H255395   3.929   2.237   1.949 -0.5775  0.4711 -1.0934
11302TIP3   OH255396   5.639   7.055  14.603  0.0735 -0.4203  0.2349
11302TIP3    H155397   5.565   7.015  14.647  0.6652 -0.2321  1.4418
11302TIP3    H255398   5.642   7.013  14.517 -0.1041 -2.0291  0.9762
11303TIP3   OH255399   1.811   4.213   5.039  0.6315 -0.6454 -0.4161
11303TIP3    H155400   1.781   4.249   5.123  0.5582  1.1473 -1.1487
11303TIP3    H255401   1.906   4.225   5.041  0.5943 -0.2876 -0.7156
11304TIP3   OH255402   4.501   1.381   1.686  0.5207  0.0553  0.2860
11304TIP3    H155403   4.522   1.389   1.593  2.7379 -0.9514  0.6271
11304TIP3    H255404   4.525   1.292   1.709 -2.4827 -0.6092  1.3193
11305TIP3   OH255405   6.554   4.796  12.149 -0.6166  0.2665 -0.7319
11305TIP3    H155406   6.463   4.776  12.170 -0.3740  0.8734  1.0399
11305TIP3    H255407   6.598   4.800  12.233  1.2055 -0.6163 -1.6011
11306TIP3   OH255408   3.200   3.309  14.860 -0.3689  0.2897  0.5100
11306TIP3    H155409   3.216   3.403  14.857 -0.5744  0.3025 -0.2492
11306TIP3    H255410   3.197   3.281  14.769 -1.3763 -0.2664  0.6924
11307TIP3   OH255411   4.809   2.255  13.832 -0.4864  0.2426 -0.1223
11307TIP3    H155412   4.727   2.298  13.856 -0.1685  0.4919  0.5307
11307TIP3    H255413   4.794   2.162  13.853 -0.7399  0.2245 -0.3786
11308TIP3   OH255414   0.195   2.993   2.407 -0.0928 -0.2182  0.0503
11308TIP3    H155415   0.121   3.051   2.422 -1.4269 -1.8779  0.1255
11308TIP3    H255416   0.190   2.928   2.477  2.6231  0.7221  1.2531
11309TIP3   OH255417   6.015   1.724  13.832  0.5451  0.2456  0.4373
11309TIP3    H155418   6.100   1.685  13.854  0.1022 -0.8841  0.2018
11309TIP3    H255419   6.019   1.735  13.736  1.5929  3.0663  0.6887
11310TIP3   OH255420   6.280   4.001   4.773  0.1369 -0.1741 -0.4420
11310TIP3    H155421   6.320   4.087   4.757  0.6717 -0.4039 -0.3694
11310TIP3    H255422   6.320   3.944   4.706  0.0442 -0.4412 -0.2687
11311TIP3   OH255423   5.516   6.115   2.735 -0.8667 -0.5544 -0.4084
11311TIP3    H155424   5.549   6.057   2.804 -1.3984 -2.8469 -1.9658
11311TIP3    H255425   5.563   6.197   2.749  2.2770 -2.2596  0.1422
11312TIP3   OH255426   4.184   6.808   0.089 -0.1684 -0.6995 -0.7416
11312TIP3    H155427   4.240   6.882   0.112 -0.4694 -0.3043 -1.2593
11312TIP3    H255428   4.104   6.849   0.056 -1.4908 -1.1991  1.5907
11313TIP3   OH255429   2.394   0.281  13.595 -0.0759  0.2604  0.2819
11313TIP3    H155430   2.447   0.359  13.609 -0.5629  0.6833 -0.1942
11313TIP3    H255431   2.342   0.273  13.674  1.6907 -0.9779  1.3865
11314TIP3   OH255432   3.124   0.283   0.456 -0.3190 -0.1414 -0.4589
11314TIP3    H155433   3.145   0.365   0.501 -2.8942 -0.2983  1.2748
11314TIP3    H255434   3.116   0.307   0.364  1.0416  1.0875 -0.2940
11315TIP3   OH255435   3.728   6.978   2.627  0.1930  0.0871  0.1666
11315TIP3    H155436   3.698   6.942   2.710 -1.1596 -1.0370 -0.7665
11315TIP3    H255437   3.648   7.010   2.584  1.0717  2.2348  0.0000
11316TIP3   OH255438   3.242   4.491  15.158  0.4937  0.1355  0.2518
11316TIP3    H155439   3.273   4.491  15.068  0.9524  1.5766  0.3777
11316TIP3    H255440   3.190   4.411  15.166  0.5767 -0.0947 -1.2343
11317TIP3   OH255441   3.793   3.255   0.201 -0.3665 -0.0920 -0.4844
11317TIP3    H155442   3.717   3.304   0.169 -0.2204  1.1737  0.9809
11317TIP3    H255443   3.817   3.197   0.129 -1.8840  0.4677 -1.4753
11318TIP3   OH255444   2.512   5.902   2.433  0.1365 -0.0496  0.0881
11318TIP3    H155445   2.528   5.925   2.342 -1.4095  0.2875 -0.1236
11318TIP3    H255446   2.437   5.956   2.459  0.4848 -0.2107  1.5329
11319TIP3   OH255447   4.253   5.268   2.035 -0.0382  0.1009  0.3606
11319TIP3    H155448   4.189   5.259   2.106 -0.6715 -0.0197 -0.2185
11319TIP3    H255449   4.292   5.355   2.049 -1.5986  0.9533 -0.2917
11320TIP3   OH255450   6.202   2.812   0.484 -0.8137  0.4301  0.2432
11320TIP3    H155451   6.183   2.897   0.444 -0.2665 -0.2711 -1.5868
11320TIP3    H255452   6.118   2.783   0.520 -1.1535  1.4079  0.2703
11321TIP3   OH255453   5.361   1.063  10.332 -0.0200 -0.2847  0.2666
11321TIP3    H155454   5.426   1.067  10.263 -0.7118 -1.4222 -0.4807
11321TIP3    H255455   5.281   1.096  10.292 -0.3307 -0.5609  0.6511
11322TIP3   OH255456   7.164   6.260  14.338 -1.4852 -0.2892  0.4304
11322TIP3    H155457   7.244   6.309  14.355 -1.0287 -0.7689 -0.2820
11322TIP3    H255458   7.096   6.327  14.328 -1.5603  0.0913  2.7348
11323TIP3   OH255459   3.133   3.800   1.998  0.1992  0.0595  0.2687
11323TIP3    H155460   3.221   3.763   2.001  0.5422  0.8985  0.7668
11323TIP3    H255461   3.088   3.759   2.073 -0.0472 -0.8651 -0.3698
11324TIP3   OH255462   4.703   6.332  14.761 -0.0026  0.4256  0.1407
11324TIP3    H155463   4.646   6.395  14.716 -1.5371 -1.0957 -0.1190
11324TIP3    H255464   4.664   6.247  14.744 -0.7181 -0.2883  4.3242
11325TIP3   OH255465   6.081   0.306  13.312 -0.1188 -0.0595 -0.2313
11325TIP3    H155466   6.014   0.344  13.256  0.3069  0.1566 -0.6022
11325TIP3    H255467   6.145   0.376  13.323 -0.1472 -0.1314  0.4470
11326TIP3   OH255468   3.507   3.366  10.661 -0.0485  0.0933  0.0246
11326TIP3    H155469   3.418   3.369  10.695  0.4021  0.6904  1.1773
11326TIP3    H255470   3.523   3.454  10.629 -0.1939 -0.2631 -1.0954
11327TIP3   OH255471   3.532   0.600   1.729  0.2740  0.1908  0.4764
11327TIP3    H155472   3.624   0.597   1.702  0.6287  0.4661  1.6003
11327TIP3    H255473   3.526   0.675   1.788 -0.9374  0.8636 -0.4511
11328TIP3   OH255474   7.172   2.243   4.270  0.6894 -0.2190 -0.2511
11328TIP3    H155475   7.199   2.163   4.314  1.3572 -0.2652 -0.7192
11328TIP3    H255476   7.255   2.285   4.243  0.3465  0.5143 -0.2015
11329TIP3   OH255477   6.192   3.709   0.550 -0.4852 -0.2397  0.3784
11329TIP3    H155478   6.142   3.749   0.478 -0.6585 -0.0043  0.6278
11329TIP3    H255479   6.264   3.664   0.507  0.9811  2.1223  0.2087
11330TIP3   OH255480   5.225   3.698   4.446  0.4211 -0.2695  0.5960
11330TIP3    H155481   5.250   3.708   4.538 -0.1108  2.8277  0.5313
11330TIP3    H255482   5.284   3.758   4.399 -0.8646 -0.0111 -0.7520
11331TIP3   OH255483   3.861   6.372   5.304  0.3203  0.4142 -0.1217
11331TIP3    H155484   3.769   6.381   5.329 -0.8418 -0.1355 -3.6226
11331TIP3    H255485   3.898   6.459   5.320 -1.8198  1.7851 -1.9183
11332TIP3   OH255486   6.512   5.240   0.161  0.0941  0.7261 -0.1975
11332TIP3    H155487   6.546   5.241   0.251  1.1364 -0.3519 -0.5559
11332TIP3    H255488   6.450   5.313   0.158 -1.3918 -0.3445  1.9418
11333TIP3   OH255489   6.857   6.570  13.294 -0.2934 -0.0661  0.6208
11333TIP3    H155490   6.916   6.591  13.223 -1.4800 -2.7334 -1.3412
11333TIP3    H255491   6.819   6.654  13.320  2.4750  1.3860  0.3322
11334TIP3   OH255492   3.631   6.112   5.007 -0.2658 -0.5656 -0.0294
11334TIP3    H155493   3.680   6.190   5.035  0.3019 -0.8382 -0.2477
11334TIP3    H255494   3.559   6.106   5.070  0.1921 -0.3655  0.5293
11335TIP3   OH255495   7.016   6.893   5.511 -0.1664  0.6163 -0.5354
11335TIP3    H155496   7.027   6.960   5.444  1.1788  1.8916  0.8797
11335TIP3    H255497   7.102   6.886   5.552 -1.3086  1.1880  2.2142
11336TIP3   OH255498   1.619   1.058  13.878 -0.2681 -0.5137  0.0850
11336TIP3    H155499   1.701   1.010  13.867  0.0661 -0.2175  1.1857
11336TIP3    H255500   1.551   0.996  13.850  0.3565 -0.4244 -1.7911
11337TIP3   OH255501   2.591   3.925  10.802  0.1545 -0.1123 -0.4415
11337TIP3    H155502   2.518   3.953  10.746  0.4013 -0.1849 -0.8055
11337TIP3    H255503   2.610   4.000  10.858  0.2150  0.1255 -0.7814
11338TIP3   OH255504   2.239   3.387   1.614  0.0964 -0.1676 -0.6059
11338TIP3    H155505   2.267   3.479   1.620 -1.3797  0.2799 -0.0641
11338TIP3    H255506   2.202   3.368   1.700 -1.1872 -0.7254 -1.2637
11339TIP3   OH255507   3.597   7.079   4.650 -0.0771  0.1209  0.5079
11339TIP3    H155508   3.645   7.063   4.568  0.5667  3.5958  0.0842
11339TIP3    H255509   3.514   7.116   4.622  0.3610  1.8352  1.3842
11340TIP3   OH255510   5.264   7.128  10.141  0.6191  0.4188 -0.1045
11340TIP3    H155511   5.215   7.080  10.207 -0.9288  0.3859 -1.2080
11340TIP3    H255512   5.351   7.138  10.178 -0.0619  0.0096  1.7238
11341TIP3   OH255513   4.624   5.116  14.083  0.3869  0.5192  0.1563
11341TIP3    H155514   4.627   5.184  14.150 -0.5492  1.9300 -1.1445
11341TIP3    H255515   4.611   5.034  14.131  1.5841  1.2454  1.7685
11342TIP3   OH255516   1.402   4.273   5.115  0.0026 -0.1875 -0.3415
11342TIP3    H155517   1.310   4.299   5.121  0.5165  1.7703 -0.2603
11342TIP3    H255518   1.433   4.277   5.206  0.6340  1.1770 -0.5857
11343TIP3   OH255519   5.379   1.107   1.562 -0.1178 -0.2649  0.0716
11343TIP3    H155520   5.376   1.195   1.602  1.4800 -0.1504 -0.0232
11343TIP3    H255521   5.467   1.075   1.580 -0.3276 -1.4248 -0.8468
11344TIP3   OH255522   6.349   1.102  11.974  0.1003  0.2783 -0.0950
11344TIP3    H155523   6.253   1.111  11.975  0.0306 -0.0478 -1.4201
11344TIP3    H255524   6.365   1.021  12.022 -0.3466  0.0112 -0.3811
11345TIP3   OH255525   1.460   2.675   5.139 -0.1477 -0.2537  0.3311
11345TIP3    H155526   1.405   2.730   5.084  0.4924  0.7790  0.7059
11345TIP3    H255527   1.459   2.590   5.095 -0.8160  0.1578 -0.4792
11346TIP3   OH255528   4.635   3.225  12.764  0.3301 -0.6256 -0.3761
11346TIP3    H155529   4.564   3.268  12.812  0.6692 -0.2643 -0.1956
11346TIP3    H255530   4.670   3.160  12.824  3.6535  2.6834  1.6614
11347TIP3   OH255531   5.350   4.170  15.015 -0.4455 -0.2513 -0.3808
11347TIP3    H155532   5.397   4.143  15.094 -0.7589 -0.4258 -0.2504
11347TIP3    H255533   5.418   4.192  14.952 -0.1722  1.1171  0.3539
11348TIP3   OH255534   3.375   3.407   4.347 -0.2645  0.3744  0.1394
11348TIP3    H155535   3.329   3.416   4.263  0.5454  1.6106 -0.2023
11348TIP3    H255536   3.422   3.325   4.340 -1.7844 -0.5495  0.2019
11349TIP3   OH255537   0.681   0.578  12.104 -0.1851  0.6128 -0.8496
11349TIP3    H155538   0.607   0.561  12.045  0.8683 -0.3805 -1.9613
11349TIP3    H255539   0.669   0.516  12.176  0.0203 -0.2149 -1.4973
11350TIP3   OH255540   0.491   5.789   4.932 -0.3818  0.4955  0.3329
11350TIP3    H155541   0.546   5.794   5.010  0.8682  2.1995 -0.5904
11350TIP3    H255542   0.448   5.875   4.929 -3.1613 -0.7658  1.0163
11351TIP3   OH255543   4.208   6.707  10.882 -0.1016 -0.7595  0.2526
11351TIP3    H155544   4.165   6.762  10.949 -0.6893 -1.8840  0.8268
11351TIP3    H255545   4.178   6.744  10.799  0.5917  0.6285  0.5747
11352TIP3   OH255546   3.761   4.268  14.130 -0.5310  0.4725  0.4374
11352TIP3    H155547   3.692   4.329  14.101 -0.0434  1.3805  1.1196
11352TIP3    H255548   3.793   4.306  14.211  0.6864 -0.0118  0.2025
11353TIP3   OH255549   4.439   3.550   2.418  0.1637 -0.0129 -0.0569
11353TIP3    H155550   4.475   3.488   2.355 -0.4313  0.5903 -1.0232
11353TIP3    H255551   4.448   3.635   2.375  0.0224  0.4484  0.8033
11354TIP3   OH255552   1.580   7.199   5.576  0.1518 -0.1169  0.1941
11354TIP3    H155553   1.651   7.142   5.546  0.7896 -0.2171  1.8016
11354TIP3    H255554   1.508   7.139   5.595 -0.1440 -0.0838 -0.7675
11355TIP3   OH255555   3.396   0.221   4.392 -0.1297 -0.0030  0.4636
11355TIP3    H155556   3.471   0.205   4.334  0.2072 -0.2915  0.9718
11355TIP3    H255557   3.335   0.273   4.339 -0.8879 -2.2204 -0.9597
11356TIP3   OH255558   7.044   2.190   2.767 -0.5317 -0.1056 -0.1625
11356TIP3    H155559   6.988   2.139   2.826 -0.1976  0.2693  0.4940
11356TIP3    H255560   7.122   2.208   2.818 -0.0230 -0.1834 -0.8959
11357TIP3   OH255561   0.442   1.460  12.097 -0.7236 -0.3109  0.5199
11357TIP3    H155562   0.520   1.407  12.084 -0.7571 -0.7112  1.8190
11357TIP3    H255563   0.415   1.442  12.187 -1.2461  1.2348  0.7062
11358TIP3   OH255564   4.132   0.711   2.993  0.0776 -0.3018  0.2430
11358TIP3    H155565   4.099   0.704   3.082 -0.9144  0.8072 -0.0089
11358TIP3    H255566   4.163   0.801   2.986 -0.0863 -0.3039 -0.6063
11359TIP3   OH255567   6.723   1.968   0.472  0.2448 -0.2694  0.0677
11359TIP3    H155568   6.715   1.873   0.467  3.2820 -0.5924 -0.0151
11359TIP3    H255569   6.815   1.984   0.490 -0.0703  2.6965 -0.4524
11360TIP3   OH255570   4.955   6.007  14.365  0.3240 -0.2468 -0.1878
11360TIP3    H155571   5.003   5.953  14.428  1.0878  0.9124  0.2338
11360TIP3    H255572   4.957   5.956  14.284  1.6714 -0.5367  0.0067
11361TIP3   OH255573   6.834   1.919   1.655  0.1006 -1.1928 -0.4154
11361TIP3    H155574   6.743   1.946   1.651  0.0929 -1.3895 -2.2917
11361TIP3    H255575   6.883   1.992   1.616  0.8423 -0.8222  1.1144
11362TIP3   OH255576   4.881   2.615  10.977  0.1898  0.0376  0.1760
11362TIP3    H155577   4.972   2.644  10.986 -0.0119  1.3410 -1.5890
11362TIP3    H255578   4.831   2.696  10.964 -0.8998 -0.8051 -1.1322
11363TIP3   OH255579   1.266   5.901   4.136 -0.1436 -0.1660  0.1662
11363TIP3    H155580   1.329   5.968   4.108 -1.3803  0.0296 -2.4499
11363TIP3    H255581   1.203   5.949   4.190 -0.2010  0.4891 -0.4683
11364TIP3   OH255582   0.636   1.716   2.644  0.6060 -0.1797 -0.0453
11364TIP3    H155583   0.550   1.706   2.684  0.6057  1.2693  0.3339
11364TIP3    H255584   0.620   1.707   2.550  0.0714 -0.0534  0.0342
11365TIP3   OH255585   4.525   1.696   0.570  1.1332 -0.5296  0.3957
11365TIP3    H155586   4.587   1.623   0.569  0.8306 -0.7903  0.5117
11365TIP3    H255587   4.559   1.756   0.637  2.3237  0.2677 -0.8813
11366TIP3   OH255588   4.891   5.614  10.907 -0.7599 -0.2449  0.0545
11366TIP3    H155589   4.810   5.565  10.922 -0.3589 -0.8564  0.2447
11366TIP3    H255590   4.949   5.588  10.978  0.4728 -1.7136 -1.4224
11367TIP3   OH255591   7.087   5.894  15.050 -0.0609  0.4576 -0.0212
11367TIP3    H155592   7.022   5.892  14.980 -0.3750  0.4540  0.2610
11367TIP3    H255593   7.169   5.914  15.007 -0.2837  0.6396 -0.3657
11368TIP3   OH255594   5.481   0.229   5.478 -0.3324  0.1920  0.0464
11368TIP3    H155595   5.444   0.237   5.391  1.3888 -0.4468 -0.7900
11368TIP3    H255596   5.561   0.283   5.475 -1.0223  1.4233  1.7247
11369TIP3   OH255597   3.870   0.823  12.395 -0.5124 -0.1123  0.1315
11369TIP3    H155598   3.964   0.819  12.379 -0.5209 -0.1315  0.0856
11369TIP3    H255599   3.842   0.732  12.397 -0.4827 -0.1168  0.4288
11370TIP3   OH255600   3.792   6.652   5.782  0.3606 -0.2001 -0.0417
11370TIP3    H155601   3.838   6.673   5.700 -3.4825  1.8426 -1.9251
11370TIP3    H255602   3.796   6.733   5.833 -3.4084  1.2030 -1.6088
11371TIP3   OH255603   2.361   3.046  14.678 -0.2807  0.2066 -0.2287
11371TIP3    H155604   2.425   2.976  14.689  0.3468  0.7069 -0.5639
11371TIP3    H255605   2.282   3.015  14.721 -0.4057 -1.2163 -1.4351
11372TIP3   OH255606   5.791   6.249   4.278  0.1902  0.0596 -0.1067
11372TIP3    H155607   5.699   6.230   4.294  0.2439  0.9048  1.4095
11372TIP3    H255608   5.816   6.306   4.350  2.0900 -0.7178 -0.1009
11373TIP3   OH255609   6.687   5.413  14.351  0.0384 -0.0446 -0.4323
11373TIP3    H155610   6.617   5.435  14.413  0.7509 -1.3350  0.8844
11373TIP3    H255611   6.652   5.340  14.300  0.2421 -0.3905 -0.0820
11374TIP3   OH255612   0.913   5.502   0.652 -0.3102  0.0318  0.7165
11374TIP3    H155613   0.993   5.450   0.652 -0.2281  0.1087 -0.8887
11374TIP3    H255614   0.899   5.524   0.745  1.1268 -0.5635  1.1101
11375TIP3   OH255615   2.570   2.724   1.192 -0.4217 -0.2010 -0.0900
11375TIP3    H155616   2.663   2.717   1.170  0.4930  2.4042  2.3546
11375TIP3    H255617   2.525   2.683   1.118  2.5522  1.2445 -2.9556
11376TIP3   OH255618   4.377   1.877   3.457 -0.2236 -0.7542  0.8066
11376TIP3    H155619   4.379   1.900   3.364 -0.0677 -1.3623  0.6609
11376TIP3    H255620   4.349   1.958   3.500  1.7200  0.1623  0.4393
11377TIP3   OH255621   2.497   5.185   0.859 -0.1805  0.7404 -0.2295
11377TIP3    H155622   2.545   5.245   0.916  0.6143  0.0796 -0.1836
11377TIP3    H255623   2.405   5.207   0.873  0.0886  1.9226 -0.1908
11378TIP3   OH255624   5.484   1.665   0.758 -0.4250 -0.0953  0.0223
11378TIP3    H155625   5.487   1.571   0.741 -2.3935  0.1581 -2.4618
11378TIP3    H255626   5.467   1.673   0.851 -2.2455 -2.3032 -0.0437
11379TIP3   OH255627   1.143   6.367  13.339 -0.5388  0.3983 -0.6926
11379TIP3    H155628   1.199   6.295  13.368 -1.0297  0.6295  0.9948
11379TIP3    H255629   1.180   6.445  13.381 -0.2671  1.0839 -2.1456
11380TIP3   OH255630   1.450   6.450   3.753 -0.2942 -0.0484 -0.0525
11380TIP3    H155631   1.432   6.477   3.663 -2.2776  0.9192  0.5756
11380TIP3    H255632   1.376   6.483   3.804  1.3112  0.4119  2.1467
11381TIP3   OH255633   5.986   5.162   9.937  0.2317  0.0363 -0.0858
11381TIP3    H155634   6.039   5.121   9.869 -1.1947 -1.9234 -0.1085
11381TIP3    H255635   6.044   5.164  10.014  0.8704 -0.5920 -0.5359
11382TIP3   OH255636   4.745   4.521   3.343  0.4764 -0.6160 -0.7303
11382TIP3    H155637   4.822   4.578   3.348  0.0668 -0.1512  1.1707
11382TIP3    H255638   4.772   4.441   3.388 -0.3405 -0.1473  0.6845
11383TIP3   OH255639   1.101   5.676   3.532  0.4969 -0.1163  0.1783
11383TIP3    H155640   1.092   5.693   3.625 -0.5237 -0.1460  0.0916
11383TIP3    H255641   1.059   5.591   3.518  0.0227  0.2065 -0.4197
11384TIP3   OH255642   7.144   5.260   2.618  0.0956 -0.0178  0.3868
11384TIP3    H155643   7.211   5.240   2.683 -0.1434  0.2940  0.7353
11384TIP3    H255644   7.139   5.356   2.618  1.2886  0.0936 -1.3170
11385TIP3   OH255645   3.194   5.200  11.192  0.4592  0.2883  0.0964
11385TIP3    H155646   3.249   5.228  11.118  1.1697 -2.5613 -0.5661
11385TIP3    H255647   3.110   5.242  11.175  1.9262  3.8178  0.4893
11386TIP3   OH255648   3.058   7.125   1.363  0.6323 -0.2160  0.4436
11386TIP3    H155649   3.025   7.162   1.445 -1.4733 -0.6273 -0.1463
11386TIP3    H255650   3.058   7.030   1.379 -1.4173 -0.4300 -0.5168
11387TIP3   OH255651   6.374   0.049   4.532 -0.2984 -0.2240 -0.0372
11387TIP3    H155652   6.326   0.074   4.611  1.4224  0.9758  0.7029
11387TIP3    H255653   6.462   0.085   4.546  0.2975 -0.7649 -2.1197
11388TIP3   OH255654   4.862   3.447   5.403 -0.2455 -0.6869  0.2333
11388TIP3    H155655   4.937   3.479   5.353 -0.1440 -2.3101 -0.7246
11388TIP3    H255656   4.786   3.470   5.350 -0.4390  0.5824  1.0040
11389TIP3   OH255657   5.607   1.903  11.043  0.5318  0.1576  0.6364
11389TIP3    H155658   5.674   1.918  10.977 -0.5360 -0.0100 -0.5266
11389TIP3    H255659   5.531   1.952  11.013  0.0306  0.1410  1.7929
11390TIP3   OH255660   1.951   4.739   1.246 -1.3270  0.0926 -0.3362
11390TIP3    H155661   1.947   4.747   1.151 -0.6049 -0.3038 -0.4051
11390TIP3    H255662   1.923   4.649   1.264 -0.5075 -0.1581 -0.2573
11391TIP3   OH255663   2.294   4.420  14.044 -0.8215  0.0445 -0.0213
11391TIP3    H155664   2.373   4.386  14.002  0.1848  0.6746  1.2599
11391TIP3    H255665   2.245   4.343  14.071 -0.1234 -0.3818  0.0613
11392TIP3   OH255666   5.923   1.122   3.656  0.0768  0.6480 -0.2313
11392TIP3    H155667   5.844   1.128   3.603  0.1795 -0.6066 -0.5653
11392TIP3    H255668   5.965   1.041   3.628  1.6193  1.4019 -0.2403
11393TIP3   OH255669   3.138   6.685   5.060  0.2722 -0.3184  0.1200
11393TIP3    H155670   3.134   6.607   5.115  2.6972 -0.0529  0.7573
11393TIP3    H255671   3.142   6.651   4.970 -0.3145 -0.8628  0.2993
11394TIP3   OH255672   1.246   2.634   5.862  0.1295 -0.2020  0.2648
11394TIP3    H155673   1.286   2.716   5.892 -2.2364  0.2374  2.5826
11394TIP3    H255674   1.190   2.660   5.789  0.5858 -0.0507 -0.0372
11395TIP3   OH255675   6.346   2.667  12.359 -0.4562  0.2000  0.8380
11395TIP3    H155676   6.261   2.708  12.375 -1.7226 -1.9908  0.1731
11395TIP3    H255677   6.330   2.606  12.287  1.7660 -0.0803  0.5135
11396TIP3   OH255678   4.981   0.699   3.305 -0.1838 -0.3625 -0.3337
11396TIP3    H155679   4.953   0.783   3.343 -0.0796  0.9423 -2.9603
11396TIP3    H255680   5.075   0.696   3.321 -0.2708 -0.2531  0.2413
11397TIP3   OH255681   3.796   5.872   1.272  0.1546  0.0093 -0.2114
11397TIP3    H155682   3.768   5.899   1.360 -1.1157 -1.2888 -0.1721
11397TIP3    H255683   3.716   5.873   1.220  0.3387 -1.9477 -0.6138
11398TIP3   OH255684   4.080   5.866   0.491  0.5090  0.2806  0.0942
11398TIP3    H155685   4.080   5.919   0.411 -0.5771 -0.9025 -0.7357
11398TIP3    H255686   4.127   5.919   0.555  1.6056  1.1886 -1.3804
11399TIP3   OH255687   0.681   1.266  13.329 -0.2240 -0.4720 -0.1762
11399TIP3    H155688   0.664   1.309  13.413 -0.9888 -0.6493 -0.2355
11399TIP3    H255689   0.774   1.246  13.331  0.3638  1.8966 -0.4716
11400TIP3   OH255690   2.056   6.300   2.019  0.5388 -0.1370  0.2842
11400TIP3    H155691   2.096   6.217   1.995 -1.1604 -1.4005  1.5827
11400TIP3    H255692   2.103   6.328   2.097  0.0694 -0.7137  0.7790
11401TIP3   OH255693   1.319   4.499   0.859 -0.2297 -0.1452 -0.0145
11401TIP3    H155694   1.408   4.464   0.854 -0.6411 -1.2342  0.0104
11401TIP3    H255695   1.295   4.518   0.768 -0.2502 -0.5764 -0.1000
11402TIP3   OH255696   6.740   2.444  10.290  0.0435  0.3540 -0.3287
11402TIP3    H155697   6.780   2.523  10.252  2.0550 -0.9012 -0.9944
11402TIP3    H255698   6.650   2.444  10.257  0.2438  1.9525 -0.9641
11403TIP3   OH255699   0.421   6.764  11.990 -0.3951  0.0940 -0.0748
11403TIP3    H155700   0.463   6.679  11.973 -1.7369 -0.6030 -0.0208
11403TIP3    H255701   0.342   6.742  12.040 -0.5380  1.4224  0.3088
11404TIP3   OH255702   1.699   3.812  15.149  0.0184 -0.3640 -0.0767
11404TIP3    H155703   1.781   3.829  15.196 -2.2140  2.3140  3.2715
11404TIP3    H255704   1.649   3.756  15.207 -1.8119  0.8592 -0.3905
11405TIP3   OH255705   0.948   3.791   3.223  0.0259 -0.2255 -0.4855
11405TIP3    H155706   1.041   3.784   3.245  0.6328  1.0382 -2.3622
11405TIP3    H255707   0.934   3.725   3.155 -0.3193 -0.1303 -0.5090
11406TIP3   OH255708   5.586   0.970  13.178 -0.4413  0.7949 -0.4427
11406TIP3    H155709   5.523   1.028  13.135 -0.0826  1.7804  0.3093
11406TIP3    H255710   5.664   1.025  13.191 -0.0450  0.1042  0.1716
11407TIP3   OH255711   5.489   7.099   2.774 -0.1748 -0.3785 -0.5286
11407TIP3    H155712   5.484   7.194   2.779  1.5730 -0.2750 -0.3946
11407TIP3    H255713   5.545   7.081   2.699  2.0562 -1.1877  1.2229
11408TIP3   OH255714   2.871   2.509   4.163  0.2355  0.9636 -0.6626
11408TIP3    H155715   2.782   2.544   4.176  0.2358  0.3598  1.2723
11408TIP3    H255716   2.879   2.499   4.068 -1.6962  1.2126 -0.8940
11409TIP3   OH255717   3.954   0.836  11.632  0.1044  0.1665 -0.6117
11409TIP3    H155718   3.895   0.807  11.563  1.1041  0.2154 -1.5116
11409TIP3    H255719   3.901   0.833  11.712 -1.0706  0.1096 -1.3687
11410TIP3   OH255720   3.952   5.000  10.600  0.4424 -0.1754  0.1807
11410TIP3    H155721   3.979   4.987  10.690  0.6564  1.3809  0.3756
11410TIP3    H255722   3.890   4.929  10.582 -1.2821  0.6984  2.2567
11411TIP3   OH255723   5.482   0.676  10.982  0.5922 -0.0822  0.6240
11411TIP3    H155724   5.477   0.723  10.899  0.1277 -0.5814  0.3613
11411TIP3    H255725   5.444   0.737  11.046  1.7720  0.6573  0.6464
11412TIP3   OH255726   6.961   7.000   4.513 -0.2718  0.3513  0.4094
11412TIP3    H155727   6.925   6.963   4.594 -2.8166  0.3200 -0.6117
11412TIP3    H255728   6.943   7.094   4.519  0.6199  0.5270  0.3845
11413TIP3   OH255729   6.220   2.548   3.403  0.0715  0.7008  0.4775
11413TIP3    H155730   6.178   2.538   3.488 -0.6044  1.0510  0.1946
11413TIP3    H255731   6.312   2.528   3.418 -0.5096 -2.2706  0.7175
11414TIP3   OH255732   1.932   5.415  10.732 -0.3627  0.0615  0.9600
11414TIP3    H155733   1.915   5.498  10.688 -1.0550 -0.8010 -0.5060
11414TIP3    H255734   1.996   5.436  10.800  1.3004  1.3771 -0.8923
11415TIP3   OH255735   1.288   2.586  12.692  0.5244 -0.6422  0.3491
11415TIP3    H155736   1.342   2.525  12.641  0.7736 -1.2082  1.2717
11415TIP3    H255737   1.225   2.620  12.628  0.8283 -1.3306 -0.3447
11416TIP3   OH255738   1.842   2.745   3.971  0.0985  0.1237  0.3361
11416TIP3    H155739   1.849   2.765   4.064  1.1536 -1.4626  0.6325
11416TIP3    H255740   1.880   2.821   3.927  0.5755  0.4193  1.2481
11417TIP3   OH255741   5.831   3.161  13.069 -0.0119 -0.0219  0.0040
11417TIP3    H155742   5.788   3.205  12.995 -0.2459  0.8852  0.6547
11417TIP3    H255743   5.769   3.092  13.093 -1.0221  1.0963  0.7538
11418TIP3   OH255744   3.305   3.913   0.761 -0.1395 -0.4172  0.7108
11418TIP3    H155745   3.225   3.960   0.738 -0.3869 -0.9807  0.3838
11418TIP3    H255746   3.334   3.874   0.678  0.1211 -0.7481  0.9545
11419TIP3   OH255747   6.917   0.447   0.477  0.2605 -0.2089  0.3585
11419TIP3    H155748   6.969   0.484   0.406 -1.1635  0.0550 -0.5900
11419TIP3    H255749   6.916   0.516   0.544 -0.2725  0.4877 -0.3382
11420TIP3   OH255750   3.221   4.391  14.833  0.0650 -0.0643 -0.8294
11420TIP3    H155751   3.166   4.466  14.858 -0.0277 -0.6835  0.9318
11420TIP3    H255752   3.159   4.327  14.798 -0.4225 -0.8428  1.3435
11421TIP3   OH255753   5.623   0.224  14.049 -0.4128  0.5965 -0.2283
11421TIP3    H155754   5.534   0.207  14.017 -0.9262 -0.4954  1.6121
11421TIP3    H255755   5.642   0.313  14.022 -1.6444  0.4879 -1.5806
11422TIP3   OH255756   2.316   6.762  11.684  0.3402  0.1466  0.0825
11422TIP3    H155757   2.306   6.831  11.750  0.1147  0.1147  0.0834
11422TIP3    H255758   2.337   6.810  11.603 -0.2291  0.2540 -0.0102
11423TIP3   OH255759   5.396   4.522   4.266 -0.3197 -0.2155 -0.0721
11423TIP3    H155760   5.389   4.516   4.171  0.5479 -2.6644 -0.0392
11423TIP3    H255761   5.331   4.588   4.291 -0.0158  1.0550 -2.4038
11424TIP3   OH255762   0.133   4.763  12.636 -0.3911  0.0856 -0.5430
11424TIP3    H155763   0.038   4.763  12.646 -0.3044  0.2488  0.3667
11424TIP3    H255764   0.148   4.770  12.541 -1.2856 -2.0442 -0.8729
11425TIP3   OH255765   6.177   6.613  11.278 -0.2175  0.2699  0.4149
11425TIP3    H155766   6.156   6.590  11.187 -1.8114 -0.3363  0.8940
11425TIP3    H255767   6.270   6.593  11.287  1.0752  3.9247 -2.1482
11426TIP3   OH255768   5.562   4.245   3.520  0.2471  0.6365  0.2991
11426TIP3    H155769   5.599   4.332   3.536  1.0200  0.8553 -2.2179
11426TIP3    H255770   5.478   4.263   3.477  0.3222  0.1524 -0.0566
11427TIP3   OH255771   2.384   4.221  11.655 -0.1601  0.2182  0.3383
11427TIP3    H155772   2.451   4.190  11.594 -1.6327 -2.6437 -0.0025
11427TIP3    H255773   2.302   4.187  11.620 -1.2366 -0.4031  3.1933
11428TIP3   OH255774   3.621   2.346  14.998  0.1680 -0.5269 -0.0690
11428TIP3    H155775   3.694   2.322  15.056 -0.3016 -1.8144  0.0246
11428TIP3    H255776   3.652   2.324  14.910  0.7891  1.2015 -0.3086
11429TIP3   OH255777   5.412   1.927   3.867  0.1954 -0.7366  0.0764
11429TIP3    H155778   5.342   1.985   3.897  0.2606 -0.6630  0.0873
11429TIP3    H255779   5.414   1.856   3.932 -0.6759 -1.3840 -0.5845
11430TIP3   OH255780   5.219   0.076  14.944 -0.1359  0.2233 -0.6006
11430TIP3    H155781   5.133   0.100  14.907  0.4749 -1.1140 -3.1319
11430TIP3    H255782   5.282   0.127  14.894  0.6176  1.3726  1.3997
11431TIP3   OH255783   3.579   2.606   1.092 -0.0310  0.2681 -0.1969
11431TIP3    H155784   3.554   2.674   1.154  0.4479  1.5611 -1.3732
11431TIP3    H255785   3.547   2.638   1.008  0.7635 -0.6519 -0.8687
11432TIP3   OH255786   0.759   0.265   3.895 -0.3805 -0.0696 -0.2935
11432TIP3    H155787   0.825   0.301   3.836 -0.6987 -0.8300 -1.1431
11432TIP3    H255788   0.714   0.341   3.931 -1.2032  0.3984 -2.2214
11433TIP3   OH255789   1.206   2.500  15.103 -0.5985 -1.1384 -1.0940
11433TIP3    H155790   1.171   2.452  15.027 -1.1910 -1.9026 -0.3674
11433TIP3    H255791   1.170   2.453  15.178  0.7701 -0.9966 -0.3210
11434TIP3   OH255792   6.137   3.732   2.669  0.6806  0.5609  0.8739
11434TIP3    H155793   6.189   3.708   2.592  1.0719  1.9354  0.6925
11434TIP3    H255794   6.200   3.735   2.740  0.2155 -1.3518  1.4318
11435TIP3   OH255795   6.283   3.167   4.356 -0.0970 -0.0844  0.2860
11435TIP3    H155796   6.344   3.183   4.428  0.4315 -2.1810  0.3736
11435TIP3    H255797   6.203   3.138   4.400 -0.5387  0.8464  0.1012
11436TIP3   OH255798   5.982   5.477   4.732  0.1790 -0.0738 -0.6126
11436TIP3    H155799   5.990   5.382   4.738 -1.1111 -0.1502  0.7271
11436TIP3    H255800   6.007   5.508   4.819  0.3368  0.7857 -0.9605
11437TIP3   OH255801   6.555   1.254  13.216 -0.1648 -0.3413 -0.1975
11437TIP3    H155802   6.490   1.225  13.152 -1.4464 -0.1196  0.9524
11437TIP3    H255803   6.527   1.341  13.242 -0.5063 -0.9698  1.6927
11438TIP3   OH255804   2.459   7.088   0.532  0.0629  0.0218 -0.4304
11438TIP3    H155805   2.429   7.051   0.449  1.6745 -0.9564 -0.6081
11438TIP3    H255806   2.546   7.123   0.514  0.9095 -1.1554  1.0495
11439TIP3   OH255807   4.944   0.090  11.482 -0.2225  0.0827  0.2361
11439TIP3    H155808   4.951   0.156  11.413 -0.0645  0.4370  0.5908
11439TIP3    H255809   4.880   0.125  11.543 -1.4526 -0.8833 -0.4468
11440TIP3   OH255810   1.922   1.577  14.358 -0.5274  0.6080  0.0346
11440TIP3    H155811   2.016   1.565  14.345 -0.5651  0.3689 -0.0134
11440TIP3    H255812   1.916   1.644  14.426 -0.3206  0.2675  0.3901
11441TIP3   OH255813   6.100   2.125  11.187  0.0449  0.2368  0.2918
11441TIP3    H155814   6.100   2.148  11.280  1.8003  0.6291  0.2363
11441TIP3    H255815   6.034   2.056  11.179 -3.3407  3.1033  1.0147
11442TIP3   OH255816   6.969   3.700   4.064 -0.6872 -0.6005 -0.3129
11442TIP3    H155817   7.042   3.733   4.116 -0.0055 -1.5496 -0.6377
11442TIP3    H255818   7.008   3.678   3.980 -1.7274  0.6737 -1.1702
11443TIP3   OH255819   6.023   0.246   2.266 -0.2910  0.6108  0.0063
11443TIP3    H155820   6.021   0.342   2.266 -2.4879  0.6228  1.5815
11443TIP3    H255821   6.033   0.222   2.358 -1.3733 -0.6615 -0.1851
11444TIP3   OH255822   1.762   0.657   2.542 -0.9126  0.3512 -0.4452
11444TIP3    H155823   1.702   0.728   2.521 -1.3284  0.1065 -0.0930
11444TIP3    H255824   1.714   0.577   2.518 -0.5183  0.1787 -0.6759
11445TIP3   OH255825   1.349   6.829  10.854 -0.1139 -1.1060 -0.1520
11445TIP3    H155826   1.275   6.780  10.888 -1.5390  0.8210 -0.3333
11445TIP3    H255827   1.356   6.802  10.762 -0.8607 -1.0185 -0.2422
11446TIP3   OH255828   2.533   6.186   3.443 -0.0255  0.0542 -0.2334
11446TIP3    H155829   2.455   6.225   3.403 -0.2126  1.1605  1.1248
11446TIP3    H255830   2.518   6.091   3.437 -0.8463  0.2313 -1.1684
11447TIP3   OH255831   3.493   6.774   5.121  0.0061 -0.0104  0.0354
11447TIP3    H155832   3.483   6.815   5.035  1.6939 -0.4541 -0.4231
11447TIP3    H255833   3.427   6.816   5.176  0.4489  1.9721 -0.8660
11448TIP3   OH255834   1.206   4.772   3.393 -0.4753  0.0466  0.0991
11448TIP3    H155835   1.292   4.777   3.353 -0.5875  0.0876 -0.1379
11448TIP3    H255836   1.147   4.815   3.330 -0.2090  2.8114  1.5710
11449TIP3   OH255837   6.388   1.034  10.441 -0.1552 -0.2309 -0.2759
11449TIP3    H155838   6.332   1.111  10.433 -1.0719 -0.8941 -0.3579
11449TIP3    H255839   6.447   1.040  10.365 -1.8463 -0.8985 -1.7111
11450TIP3   OH255840   0.841   3.280  10.934  0.9384  0.0403  0.6343
11450TIP3    H155841   0.785   3.312  10.863  1.1754 -0.7561  0.0599
11450TIP3    H255842   0.836   3.346  11.002  0.8345  0.9094 -0.2030
11451TIP3   OH255843   0.502   2.232  13.203  0.3213 -0.4493 -0.1039
11451TIP3    H155844   0.567   2.281  13.152  0.7091 -0.6048  0.2418
11451TIP3    H255845   0.553   2.166  13.250  0.1021  0.3277  1.2769
11452TIP3   OH255846   0.345   1.349   4.142 -0.0516 -0.0740 -0.5399
11452TIP3    H155847   0.410   1.419   4.145  2.1675 -2.0086  0.4958
11452TIP3    H255848   0.351   1.308   4.228 -5.4639  1.8535  1.1480
11453TIP3   OH255849   3.181   2.971   5.319  0.5567  0.0381  0.3435
11453TIP3    H155850   3.110   2.964   5.383  0.4590 -2.5852  0.0674
11453TIP3    H255851   3.260   2.977   5.372  0.2407  2.4017  0.6514
11454TIP3   OH255852   5.750   1.748  13.796 -0.1258  0.3441 -0.0894
11454TIP3    H155853   5.844   1.763  13.784 -0.2627 -0.0281 -1.8685
11454TIP3    H255854   5.737   1.752  13.891  1.6488  0.5845  0.1737
11455TIP3   OH255855   4.167   1.122   3.043 -0.2072  0.3635 -0.1835
11455TIP3    H155856   4.079   1.086   3.060 -0.1438  0.7859  1.1404
11455TIP3    H255857   4.223   1.044   3.037 -0.5849  0.1108 -0.4891
11456TIP3   OH255858   2.800   5.021  10.142 -0.2989 -0.9782  0.2662
11456TIP3    H155859   2.764   5.086  10.082  1.3307 -0.1349  0.1478
11456TIP3    H255860   2.809   4.942  10.089 -0.3351 -0.6879 -0.1755
11457TIP3   OH255861   2.359   0.440  11.902  1.0668  0.0256  0.0884
11457TIP3    H155862   2.312   0.523  11.912  0.5756 -0.3609  1.2695
11457TIP3    H255863   2.429   0.459  11.841  0.9943  1.3318  0.3742
11458TIP3   OH255864   5.131   1.791  14.193  0.0830 -0.4807  0.1682
11458TIP3    H155865   5.089   1.876  14.175 -0.0541 -0.1820  1.7370
11458TIP3    H255866   5.067   1.726  14.163  1.1086 -0.1351 -3.1655
11459TIP3   OH255867   3.510   4.959   3.206  0.4799  0.8040 -0.3646
11459TIP3    H155868   3.519   4.889   3.141 -1.4506  0.1059  0.0413
11459TIP3    H255869   3.600   4.982   3.229  1.1870 -0.2287 -1.8899
11460TIP3   OH255870   3.114   3.495  15.207 -1.0997  0.1368 -0.2594
11460TIP3    H155871   3.018   3.493  15.202 -1.0726 -1.4955 -1.0132
11460TIP3    H255872   3.138   3.404  15.225  0.3732 -0.0004 -2.4919
11461TIP3   OH255873   2.925   0.847   3.866  0.1175  0.0493  0.3731
11461TIP3    H155874   2.834   0.867   3.886 -0.2103  0.1816 -1.1598
11461TIP3    H255875   2.925   0.755   3.840  0.5653 -0.1819  1.1577
11462TIP3   OH255876   0.138   2.165   5.386 -0.0022 -0.1218  0.3587
11462TIP3    H155877   0.090   2.083   5.394 -0.5033  0.2962  2.1648
11462TIP3    H255878   0.197   2.152   5.312  0.3242 -2.3214  0.9450
11463TIP3   OH255879   5.909   0.866   5.742 -0.0476  0.5750  0.5286
11463TIP3    H155880   5.823   0.897   5.715 -0.0255  1.4637  1.4108
11463TIP3    H255881   5.895   0.832   5.831  0.2225 -0.6357  0.1166
11464TIP3   OH255882   7.071   2.715   3.014 -0.3295  0.0182  0.1638
11464TIP3    H155883   7.072   2.803   2.976 -0.0169 -0.3827 -0.8095
11464TIP3    H255884   7.132   2.719   3.087  0.2346  0.4367 -0.3154
11465TIP3   OH255885   0.164   2.957   2.142  0.2096 -0.1805  0.6319
11465TIP3    H155886   0.130   3.033   2.095 -1.9912 -0.4330  1.6817
11465TIP3    H255887   0.192   2.991   2.227  1.6562 -0.1644  0.1789
11466TIP3   OH255888   2.390   3.246   4.768  0.3812  0.1683  0.0238
11466TIP3    H155889   2.456   3.288   4.713  0.0460  0.4841 -0.1471
11466TIP3    H255890   2.428   3.243   4.855  1.4226 -1.4260 -0.4317
11467TIP3   OH255891   5.981   6.241   4.084 -0.3712 -0.3591 -0.8146
11467TIP3    H155892   5.941   6.201   4.007 -0.9252  0.9026 -1.2109
11467TIP3    H255893   5.907   6.263   4.142 -0.1256  0.4305 -0.7858
11468TIP3   OH255894   6.595   2.447  14.745 -0.0429 -0.0067  0.0213
11468TIP3    H155895   6.641   2.473  14.825 -0.6584 -1.8767  1.0198
11468TIP3    H255896   6.503   2.469  14.762  0.2022  2.8054 -1.5906
11469TIP3   OH255897   2.713   6.227  15.157  0.3613  0.5876  0.2266
11469TIP3    H155898   2.628   6.260  15.128 -0.2431 -0.6217  0.5751
11469TIP3    H255899   2.760   6.306  15.185 -0.5758  1.2937 -0.1193
11470TIP3   OH255900   3.374   3.244   0.743 -0.8257 -0.6678 -0.0583
11470TIP3    H155901   3.330   3.239   0.828 -0.7261  0.6704  0.0973
11470TIP3    H255902   3.446   3.181   0.748 -0.4125 -0.1213  1.1093
11471TIP3   OH255903   2.008   2.075   1.400 -0.0289  0.2768  0.6347
11471TIP3    H155904   2.092   2.117   1.414  0.8142 -0.4712 -1.6823
11471TIP3    H255905   1.963   2.132   1.337 -1.4504  0.8619  2.1112
11472TIP3   OH255906   1.519   4.551   1.445 -0.2725 -0.0892 -0.8692
11472TIP3    H155907   1.584   4.619   1.429  0.3571 -0.7452 -1.1808
11472TIP3    H255908   1.522   4.496   1.366 -0.3641 -0.7983 -0.3925
11473TIP3   OH255909   2.935   6.163  14.637 -0.7609 -0.4258 -0.1150
11473TIP3    H155910   2.993   6.087  14.635 -0.2732 -0.1669  1.9811
11473TIP3    H255911   2.847   6.126  14.642 -0.4987 -0.8922  1.5057
11474TIP3   OH255912   3.894   2.740   5.906 -0.0176  0.6455  0.5206
11474TIP3    H155913   3.841   2.694   5.841  1.7604 -1.8693  0.7105
11474TIP3    H255914   3.835   2.753   5.980 -0.7843 -0.7120  0.1748
11475TIP3   OH255915   0.472   2.993   2.492 -0.3462 -0.3375 -0.2310
11475TIP3    H155916   0.384   2.955   2.495 -0.7846  0.6902  2.1481
11475TIP3    H255917   0.529   2.926   2.529 -0.2099 -0.7344 -1.1303
11476TIP3   OH255918   5.451   2.047  12.066 -0.2233 -0.2144  0.0849
11476TIP3    H155919   5.373   2.077  12.018  0.3663 -0.3246 -0.9629
11476TIP3    H255920   5.497   2.128  12.088 -1.2717 -0.0392  1.9046
11477TIP3   OH255921   2.558   7.033   5.616 -0.3093 -0.0220 -0.0583
11477TIP3    H155922   2.614   7.091   5.668 -1.5531 -1.1579  2.7514
11477TIP3    H255923   2.501   7.092   5.568  2.2793  1.1345 -1.9874
11478TIP3   OH255924   2.540   0.228   3.702 -0.0250  0.2865 -0.4835
11478TIP3    H155925   2.584   0.209   3.619 -1.1593 -0.5312 -0.9181
11478TIP3    H255926   2.531   0.142   3.744  2.3460  0.8711  1.4767
11479TIP3   OH255927   6.854   0.787  11.577 -0.1246 -0.1956  0.1866
11479TIP3    H155928   6.902   0.864  11.606 -0.4085  0.0545 -0.0034
11479TIP3    H255929   6.808   0.756  11.655 -0.4415  0.1467  0.1363
11480TIP3   OH255930   7.005   2.305   3.146 -0.2273 -0.1561 -0.2108
11480TIP3    H155931   6.973   2.357   3.220  0.7974  1.4000 -0.8222
11480TIP3    H255932   6.977   2.216   3.166  1.8420 -0.2359  3.2135
11481TIP3   OH255933   4.884   6.367   2.225 -0.5515  0.0942  0.2991
11481TIP3    H155934   4.902   6.402   2.313  0.1747 -0.0863  0.2343
11481TIP3    H255935   4.970   6.341   2.193 -0.8920 -0.3656 -0.2458
11482TIP3   OH255936   4.157   0.402  14.402 -0.1001 -0.8980 -0.0774
11482TIP3    H155937   4.212   0.329  14.428 -0.4695 -2.5293 -3.4184
11482TIP3    H255938   4.068   0.374  14.425 -0.1580 -1.1626 -0.6092
11483TIP3   OH255939   0.444   1.126  14.113 -0.8550 -0.1482  0.2074
11483TIP3    H155940   0.436   1.067  14.188  2.2845 -3.1322 -1.5206
11483TIP3    H255941   0.538   1.146  14.107 -1.2992  1.8670 -1.6595
11484TIP3   OH255942   0.184   2.379   4.464 -0.1656 -0.8878  0.5536
11484TIP3    H155943   0.157   2.387   4.373 -1.4214  0.1222  0.9825
11484TIP3    H255944   0.134   2.305   4.498 -0.3757 -0.7101  0.6389
11485TIP3   OH255945   3.016   1.922   1.284 -0.2006  0.3079 -0.4791
11485TIP3    H155946   3.052   1.835   1.299  2.1555  1.3683  0.5745
11485TIP3    H255947   2.977   1.947   1.368 -0.7880  0.3320 -0.7507
11486TIP3   OH255948   1.973   4.402   0.648  0.5287  0.1760  0.1560
11486TIP3    H155949   1.911   4.436   0.583 -0.7838 -1.2786  0.5935
11486TIP3    H255950   2.044   4.465   0.648 -1.0096  2.0101 -0.2714
11487TIP3   OH255951   5.307   2.590   3.604  0.3657  0.2780  0.7483
11487TIP3    H155952   5.215   2.579   3.581  0.8839  1.0951 -2.1007
11487TIP3    H255953   5.348   2.506   3.582  0.3306 -0.0685  1.9645
11488TIP3   OH255954   5.938   1.246   4.211  0.8627  0.3311  0.0492
11488TIP3    H155955   5.928   1.245   4.306  0.6372  0.4064  0.0267
11488TIP3    H255956   5.953   1.338   4.189  2.4226  0.1313  0.1635
11489TIP3   OH255957   1.786   0.328   2.619 -0.1785 -0.1652  0.1869
11489TIP3    H155958   1.744   0.242   2.629  0.2402 -0.4558 -0.4930
11489TIP3    H255959   1.876   0.308   2.596 -0.4919  0.4409 -1.7433
11490TIP3   OH255960   5.615   3.804  13.447  0.3017 -0.1713  0.1596
11490TIP3    H155961   5.672   3.871  13.410  1.6485 -1.6516 -0.5297
11490TIP3    H255962   5.529   3.821  13.408  0.0949  2.2917  1.4614
11491TIP3   OH255963   0.479   2.919  13.103 -0.6121  0.0057 -0.2277
11491TIP3    H155964   0.574   2.906  13.105 -0.7015 -0.6764 -0.2797
11491TIP3    H255965   0.468   3.012  13.083  0.0549  0.3094  0.7230
11492TIP3   OH255966   5.361   7.098   0.534 -0.2288 -0.3973  0.2844
11492TIP3    H155967   5.410   7.179   0.553 -2.6663  0.9612  1.2280
11492TIP3    H255968   5.357   7.053   0.618 -2.6135  0.7682  0.8995
11493TIP3   OH255969   1.764   6.561   1.740  0.0342 -0.0823  0.3371
11493TIP3    H155970   1.693   6.497   1.754 -0.4879  0.4152  0.0039
11493TIP3    H255971   1.844   6.509   1.745 -0.4302 -1.0547 -1.3690
11494TIP3   OH255972   6.787   0.451  11.686  0.1369 -0.1940  0.3084
11494TIP3    H155973   6.755   0.540  11.701  0.9915  0.0916  0.4868
11494TIP3    H255974   6.819   0.452  11.596  1.5485  0.1365  0.7815
11495TIP3   OH255975   6.330   4.088  10.887 -0.0918 -0.4153  0.2180
11495TIP3    H155976   6.258   4.048  10.937 -1.4984  1.0579 -0.5350
11495TIP3    H255977   6.409   4.049  10.924 -1.0656  0.2365  3.2412
11496TIP3   OH255978   0.806   1.317   2.284 -0.1294 -0.6712  0.3650
11496TIP3    H155979   0.865   1.315   2.209  1.4322  1.2165  1.4446
11496TIP3    H255980   0.720   1.338   2.247  0.4989 -0.3111 -0.9250
11497TIP3   OH255981   1.735   5.885   0.146  0.3753 -0.6119 -0.3695
11497TIP3    H155982   1.718   5.978   0.156 -0.2365 -0.7028 -0.5699
11497TIP3    H255983   1.697   5.861   0.062  1.5947 -0.7999 -0.8888
11498TIP3   OH255984   6.733   1.857  15.158 -0.0826  0.2313  0.1313
11498TIP3    H155985   6.684   1.935  15.132  1.0433  1.4963  1.5435
11498TIP3    H255986   6.825   1.882  15.146  0.2825 -1.5997 -1.2337
11499TIP3   OH255987   2.533   7.162   0.953 -0.5616 -0.2778 -0.0047
11499TIP3    H155988   2.542   7.067   0.940  2.6960 -0.0887  0.2088
11499TIP3    H255989   2.511   7.171   1.046 -1.0342 -0.8171 -0.0584
11500TIP3   OH255990   6.367   7.049  14.305 -1.2357  0.3851  0.1241
11500TIP3    H155991   6.286   7.062  14.353 -1.2655  0.5419  0.0320
11500TIP3    H255992   6.353   6.968  14.256 -0.7367 -0.4806  1.3530
11501TIP3   OH255993   2.595   7.162   1.239  0.4339 -0.2637 -0.1012
11501TIP3    H155994   2.678   7.205   1.257  0.0671  0.3800  0.0921
11501TIP3    H255995   2.612   7.069   1.253  0.5584  0.0531  2.1445
11502TIP3   OH255996   6.907   6.515   4.463  0.5190  0.2030 -0.1203
11502TIP3    H155997   6.916   6.434   4.413 -0.0563  0.5664 -0.8320
11502TIP3    H255998   6.924   6.585   4.399  1.5903  0.6442  0.6114
11503TIP3   OH255999   1.504   5.520   4.717  0.1868 -0.1351  0.7284
11503TIP3    H156000   1.468   5.571   4.790  0.8617  2.0728 -0.3679
11503TIP3    H256001   1.427   5.492   4.667 -0.2109  1.1676  0.5525
11504TIP3   OH256002   1.559   4.003   5.029  0.0825  0.5083 -0.4652
11504TIP3    H156003   1.543   3.910   5.014  2.3244  0.1318 -0.8201
11504TIP3    H256004   1.511   4.023   5.109  0.1622 -1.1161  0.0220
11505TIP3   OH256005   6.438   4.284  11.292 -0.0363 -0.3131  0.1681
11505TIP3    H156006   6.489   4.243  11.222  1.2343  0.4129  0.6484
11505TIP3    H256007   6.498   4.347  11.332 -0.9904 -0.1618  1.4114
11506TIP3   OH256008   4.607   1.377   1.422  0.6620 -0.1921 -0.2241
11506TIP3    H156009   4.604   1.407   1.332  2.3020  1.3008  0.1674
11506TIP3    H256010   4.700   1.381   1.446  0.4074 -1.5565  1.2206
11507TIP3   OH256011   6.323   3.815   9.670 -0.0025  0.1814 -0.8853
11507TIP3    H156012   6.354   3.892   9.717 -0.6114 -0.7606  1.2046
11507TIP3    H256013   6.234   3.800   9.705 -0.1648 -1.0450 -1.7528
11508TIP3   OH256014   3.969   4.834  14.763  0.2723 -0.7141 -0.6272
11508TIP3    H156015   3.989   4.918  14.804  1.1069 -0.6568 -1.1219
11508TIP3    H256016   3.884   4.809  14.800  0.2630  0.0831 -0.0711
11509TIP3   OH256017   1.330   5.302   3.803  0.3301  0.1040  0.0026
11509TIP3    H156018   1.265   5.371   3.821 -0.7726 -0.7358 -0.6991
11509TIP3    H256019   1.392   5.343   3.742 -0.0501  0.6275 -0.0407
11510TIP3   OH256020   2.705   6.395   2.748  0.5627 -0.2140  0.4454
11510TIP3    H156021   2.696   6.343   2.827 -0.2278  0.4443  0.8064
11510TIP3    H256022   2.795   6.382   2.720  0.2125 -2.3171  0.1236
11511TIP3   OH256023   5.867   0.528   5.702 -0.1950 -0.0029  0.2138
11511TIP3    H156024   5.911   0.455   5.658  0.0774 -0.2512  0.8947
11511TIP3    H256025   5.917   0.605   5.674  0.9248 -0.3214  1.2685
11512TIP3   OH256026   3.909   0.867   1.066 -0.0042  0.0341 -0.2282
11512TIP3    H156027   3.899   0.928   0.994 -0.7356  0.1956  0.0017
11512TIP3    H256028   3.823   0.827   1.076  0.1481 -0.1490  0.4111
11513TIP3   OH256029   4.853   5.621  12.137 -0.7066 -0.1982 -0.1012
11513TIP3    H156030   4.926   5.659  12.187 -1.7347 -1.0439  2.1788
11513TIP3    H256031   4.798   5.697  12.114 -0.8388  0.1131  1.1640
11514TIP3   OH256032   5.382   4.902  13.980 -0.5713 -0.4517  0.1632
11514TIP3    H156033   5.453   4.912  14.044  0.9840  0.3618 -1.6274
11514TIP3    H256034   5.415   4.837  13.918 -0.2747  1.7025 -2.0814
11515TIP3   OH256035   4.850   4.550   5.593  0.1608  0.0511  0.2452
11515TIP3    H156036   4.942   4.577   5.590  0.7262 -1.6479  1.4737
11515TIP3    H256037   4.837   4.502   5.511 -0.1386  1.6727 -0.7141
11516TIP3   OH256038   6.848   5.194   2.334  0.0938 -0.0307  0.0989
11516TIP3    H156039   6.887   5.176   2.248  0.5502 -0.0786  0.3134
11516TIP3    H256040   6.916   5.241   2.382  0.2784 -1.0094  0.8323
11517TIP3   OH256041   5.472   2.013   3.036  0.2223  0.1341 -0.1668
11517TIP3    H156042   5.498   2.105   3.038  1.2417 -0.1512  1.1072
11517TIP3    H256043   5.455   1.991   3.128 -1.8573 -0.4632 -0.6450
11518TIP3   OH256044   1.296   6.111   0.060  0.0478 -0.0127 -0.4324
11518TIP3    H156045   1.287   6.016   0.053  4.6902 -0.8822  1.5988
11518TIP3    H256046   1.215   6.140   0.102 -1.5755 -3.0154 -1.2486
11519TIP3   OH256047   0.292   0.220   4.007  0.1711  0.1254  0.1570
11519TIP3    H156048   0.259   0.284   4.069 -0.0441 -0.1572  0.3393
11519TIP3    H256049   0.242   0.140   4.026 -0.2422  0.1648 -0.6963
11520TIP3   OH256050   2.399   7.046  12.497 -0.3465  0.1169  0.6679
11520TIP3    H156051   2.324   7.002  12.537 -0.2878 -0.6032  0.0059
11520TIP3    H256052   2.377   7.139  12.501 -0.5738  0.0272  1.8828
11521TIP3   OH256053   2.626   4.559   5.507  0.2484  0.1970  0.0317
11521TIP3    H156054   2.632   4.482   5.563  0.1292 -0.3897 -0.7428
11521TIP3    H256055   2.537   4.591   5.520  0.2886  0.1903  0.3335
11522TIP3   OH256056   5.222   1.078  14.429 -0.2944  0.0287 -0.2796
11522TIP3    H156057   5.142   1.043  14.469  1.3366 -0.8313  2.5538
11522TIP3    H256058   5.208   1.172  14.425 -2.0429 -0.2371 -1.3941
11523TIP3   OH256059   2.906   6.220   4.710 -0.2916  0.1379 -0.7050
11523TIP3    H156060   2.855   6.297   4.688  1.5938  1.3956 -0.9548
11523TIP3    H256061   2.988   6.255   4.746  0.2872 -1.7599 -0.0497
11524TIP3   OH256062   6.473   4.213  11.978 -1.0109  0.3342 -0.4152
11524TIP3    H156063   6.529   4.177  11.909 -0.9215  0.0813 -0.2157
11524TIP3    H256064   6.531   4.220  12.054 -1.5645 -1.2582  0.2087
11525TIP3   OH256065   2.970   7.023  11.637 -0.0221  0.7210  0.1819
11525TIP3    H156066   2.986   6.967  11.713  0.4130  0.8704  0.1995
11525TIP3    H256067   3.049   7.015  11.584 -0.1148  1.0220 -0.0043
11526TIP3   OH256068   4.195   2.721   1.217  0.2926 -0.0215 -0.5463
11526TIP3    H156069   4.158   2.738   1.304  1.1076 -0.7326 -0.0426
11526TIP3    H256070   4.198   2.806   1.175  1.3395  0.5933  0.7141
11527TIP3   OH256071   5.891   3.335  12.324  0.0602 -0.3763 -0.6211
11527TIP3    H156072   5.953   3.372  12.385  0.7600 -1.2009 -0.8005
11527TIP3    H256073   5.891   3.395  12.249  0.6855 -0.3927 -0.6382
11528TIP3   OH256074   6.548   6.021  13.093 -0.2094 -0.2824  0.3306
11528TIP3    H156075   6.468   6.012  13.146 -0.6710 -2.3974 -0.6027
11528TIP3    H256076   6.616   5.982  13.147 -0.4893 -1.5436 -0.2015
11529TIP3   OH256077   6.580   4.098   4.646  0.4100  0.4860 -0.3967
11529TIP3    H156078   6.507   4.156   4.668  0.1552  0.2874 -0.7096
11529TIP3    H256079   6.624   4.143   4.573 -0.8315 -0.5467 -1.8355
11530TIP3   OH256080   5.825   0.883   3.878  0.3251  0.4841 -0.5322
11530TIP3    H156081   5.844   0.803   3.927 -0.5903  0.0782 -0.8212
11530TIP3    H256082   5.818   0.853   3.787  1.9767  1.2165 -0.9419
11531TIP3   OH256083   7.231   0.728  11.624 -0.3633  0.2467 -0.1088
11531TIP3    H156084   7.209   0.640  11.593  1.3532 -0.2846  0.0984
11531TIP3    H256085   7.299   0.714  11.690 -0.3532  1.7110  0.2238
11532TIP3   OH256086   6.058   3.953   4.918 -0.0824  0.3368  0.5724
11532TIP3    H156087   5.976   3.926   4.876  0.4923 -0.1571 -0.2411
11532TIP3    H256088   6.117   3.975   4.846  0.5704  0.5090  1.1464
11533TIP3   OH256089   2.986   1.002  14.248  0.8979 -0.0015 -0.0813
11533TIP3    H156090   2.947   1.031  14.166  0.7631  0.4192  0.1271
11533TIP3    H256091   3.008   1.083  14.294 -0.5792 -0.1917  1.0404
11534TIP3   OH256092   0.901   3.276   5.258 -0.5982  0.0714  0.1072
11534TIP3    H156093   0.917   3.204   5.320  0.5853  0.6161  0.4700
11534TIP3    H256094   0.900   3.233   5.172  0.3036 -0.3781  0.3041
11535TIP3   OH256095   5.692   2.511   4.598 -0.0912 -0.7013  0.2671
11535TIP3    H156096   5.668   2.515   4.691  1.2434 -1.4379  0.6677
11535TIP3    H256097   5.662   2.425   4.569  2.4836 -1.8957  0.9378
11536TIP3   OH256098   3.525   2.277  11.564  0.3001 -0.3584  0.7519
11536TIP3    H156099   3.608   2.243  11.597  0.8076 -1.2499 -1.3219
11536TIP3    H256100   3.466   2.272  11.640  1.9586 -0.2032  2.1202
11537TIP3   OH256101   3.456   2.691  12.129 -0.2663  0.1449 -0.3527
11537TIP3    H156102   3.362   2.687  12.143 -0.4369  1.3400 -1.0418
11537TIP3    H256103   3.471   2.777  12.088  1.0558 -0.2167 -0.6828
11538TIP3   OH256104   5.761   4.601   2.220 -0.0498 -0.3012 -0.4605
11538TIP3    H156105   5.810   4.682   2.204  0.7243 -1.2220 -3.3544
11538TIP3    H256106   5.777   4.582   2.313  0.8793  2.0960 -0.0399
11539TIP3   OH256107   5.973   0.739   4.540  0.6366  0.1623 -0.6159
11539TIP3    H156108   6.004   0.824   4.508  3.0019  0.3903  1.9168
11539TIP3    H256109   5.910   0.761   4.609 -0.0213 -0.2084 -1.0833
11540TIP3   OH256110   1.990   1.179   4.862  0.9732 -0.3465  0.2449
11540TIP3    H156111   1.983   1.181   4.958  0.5341  3.1302  0.2811
11540TIP3    H256112   1.904   1.150   4.832 -0.0295  1.6761  0.9650
11541TIP3   OH256113   2.518   4.540   2.782 -0.2073  0.0478 -0.0800
11541TIP3    H156114   2.581   4.521   2.851  1.1961 -0.2945 -1.4088
11541TIP3    H256115   2.542   4.627   2.751 -2.4421  1.3455  1.4995
11542TIP3   OH256116   7.144   2.727   4.100  0.2658 -0.6072  0.0531
11542TIP3    H156117   7.166   2.818   4.082 -1.3025  0.1296  1.6462
11542TIP3    H256118   7.138   2.721   4.196 -3.0179 -1.4958 -0.0894
11543TIP3   OH256119   0.984   1.132   1.583 -0.0756 -0.6070  0.4286
11543TIP3    H156120   0.980   1.076   1.661 -0.8187  0.7223  1.3782
11543TIP3    H256121   1.061   1.187   1.596  0.1325 -0.7776 -0.0647
11544TIP3   OH256122   6.565   0.324  15.305  0.1761  0.1807 -0.3917
11544TIP3    H156123   6.526   0.239  15.323 -0.1147  0.8042  2.2822
11544TIP3    H256124   6.490   0.384  15.299  0.4761  1.0327  2.7410
11545TIP3   OH256125   6.951   3.646  14.711 -0.0127  0.2570  0.2195
11545TIP3    H156126   6.892   3.700  14.659  1.0118  1.8849  0.6595
11545TIP3    H256127   7.038   3.662  14.673  0.3877 -0.6267  0.7358
11546TIP3   OH256128   6.577   0.297   1.524  0.0621  0.5546 -0.5871
11546TIP3    H156129   6.663   0.268   1.493  1.1912  2.9600  0.0386
11546TIP3    H256130   6.546   0.225   1.579  1.4493 -0.5692 -1.2134
11547TIP3   OH256131   1.943   7.124   1.737  0.6154  0.1426 -0.2104
11547TIP3    H156132   1.977   7.208   1.766  2.6340 -1.0778  1.2308
11547TIP3    H256133   1.859   7.115   1.783 -1.0693  2.4943 -2.5434
11548TIP3   OH256134   3.160   4.288   2.128  0.7298  0.1083  0.0309
11548TIP3    H156135   3.177   4.222   2.061  0.4395  2.5927 -2.7285
11548TIP3    H256136   3.246   4.325   2.147  0.5414  1.0720 -0.9036
11549TIP3   OH256137   7.106   1.756   0.057  0.1722  0.5515 -0.1867
11549TIP3    H156138   7.201   1.761   0.047 -0.0136  1.3168 -1.7373
11549TIP3    H256139   7.079   1.844   0.084 -0.3993  1.2795 -2.8916
11550TIP3   OH256140   3.243   6.024   9.957 -0.1022 -0.3344 -0.2956
11550TIP3    H156141   3.323   6.070   9.983 -0.0834 -0.1706 -0.6353
11550TIP3    H256142   3.271   5.968   9.884  0.2346 -2.1066  1.1119
11551TIP3   OH256143   1.567   2.464   2.382  0.2311 -0.1323  0.0817
11551TIP3    H156144   1.555   2.370   2.373  0.6960 -0.3324  1.3229
11551TIP3    H256145   1.478   2.499   2.391  0.0392 -0.4083 -0.6721
11552TIP3   OH256146   7.188   2.027  14.546  0.2839 -0.1352  0.3076
11552TIP3    H156147   7.173   2.036  14.452 -0.9544 -2.3470  0.2238
11552TIP3    H256148   7.248   2.098  14.568 -0.0857  0.9590 -1.9757
11553TIP3   OH256149   6.777   2.327   1.664 -0.1851  0.0882  0.2095
11553TIP3    H156150   6.790   2.314   1.570 -0.6613 -0.8515  0.2640
11553TIP3    H256151   6.739   2.415   1.670  1.2646  0.7774 -0.3387
11554TIP3   OH256152   4.946   0.903  13.568  0.2305 -0.9411 -0.3062
11554TIP3    H156153   4.912   0.986  13.537  0.6465 -0.3050  0.8481
11554TIP3    H256154   4.878   0.868  13.625  1.2815  0.1960  1.7746
11555TIP3   OH256155   5.014   4.517   2.359 -0.4602 -0.1695 -0.1309
11555TIP3    H156156   5.004   4.439   2.413  0.0846 -0.4771 -0.4702
11555TIP3    H256157   5.100   4.551   2.380  0.5426 -1.3149 -2.0868
11556TIP3   OH256158   6.447   1.366   1.156  0.0181  0.6880  0.2096
11556TIP3    H156159   6.357   1.390   1.177 -0.2558  1.2179 -1.4275
11556TIP3    H256160   6.456   1.275   1.186 -0.7276  0.9529  1.2798
11557TIP3   OH256161   2.656   0.975   3.637 -0.0930  0.5904  0.2664
11557TIP3    H156162   2.711   1.031   3.583 -2.0834  1.4107 -1.0585
11557TIP3    H256163   2.688   0.887   3.621  0.9443  1.0495 -0.2919
11558TIP3   OH256164   1.858   3.318   1.958  0.1201 -0.9188 -0.0216
11558TIP3    H156165   1.765   3.339   1.970  0.1975 -1.6217  2.4122
11558TIP3    H256166   1.860   3.258   1.883 -1.4825 -1.4449  0.3208
11559TIP3   OH256167   1.278   5.083  14.038 -0.1810 -0.0267 -0.2832
11559TIP3    H156168   1.229   5.010  14.077 -0.7198  0.1707 -0.5792
11559TIP3    H256169   1.214   5.154  14.031  0.4998  0.7039  0.6018
11560TIP3   OH256170   3.133   2.168   0.453 -0.3479  0.1522 -0.9344
11560TIP3    H156171   3.087   2.242   0.494  0.5673  0.3426 -0.2126
11560TIP3    H256172   3.141   2.192   0.361  1.4806  1.7850 -0.3974
11561TIP3   OH256173   1.583   2.821   3.131  0.0687  0.1974 -0.0055
11561TIP3    H156174   1.573   2.865   3.216 -1.4430  2.4437 -1.2475
11561TIP3    H256175   1.633   2.882   3.078 -0.3982 -0.4482 -1.2167
11562TIP3   OH256176   0.039   1.134   4.072 -0.2768 -0.0610 -0.1626
11562TIP3    H156177  -0.050   1.101   4.065 -0.1998 -0.2971 -0.0247
11562TIP3    H256178   0.029   1.229   4.083 -0.5461 -0.2003  0.8526
11563TIP3   OH256179   0.211   0.094  15.296  0.0878  0.2588 -0.4027
11563TIP3    H156180   0.252   0.088  15.382 -0.1897 -0.0959 -0.2915
11563TIP3    H256181   0.275   0.058  15.236  0.6142  1.2497 -0.4602
11564TIP3   OH256182   2.253   2.311   3.438 -0.3597 -0.0669 -0.4603
11564TIP3    H156183   2.163   2.329   3.411 -0.3086 -0.4231 -0.8893
11564TIP3    H256184   2.264   2.357   3.521 -1.4889 -1.4101  0.4814
11565TIP3   OH256185   2.577   4.586   0.812 -0.6608 -0.2560 -0.0752
11565TIP3    H156186   2.671   4.587   0.790 -0.7006 -1.8846 -0.4360
11565TIP3    H256187   2.553   4.678   0.815  0.6747  0.1838 -1.2443
11566TIP3   OH256188   1.420   6.157  14.592  0.7612 -0.2793  0.4368
11566TIP3    H156189   1.407   6.140  14.498  0.7445 -0.7476  0.5197
11566TIP3    H256190   1.452   6.074  14.627  1.2497  0.0348  0.7568
11567TIP3   OH256191   2.987   2.327  15.257  0.6502  0.0144  0.0315
11567TIP3    H156192   3.045   2.302  15.328 -0.0469 -0.9867  0.2692
11567TIP3    H256193   3.037   2.308  15.177  0.9755 -0.0343  0.2494
11568TIP3   OH256194   6.305   3.609   2.143 -0.2705 -0.3671 -0.2764
11568TIP3    H156195   6.384   3.559   2.124  1.2387  1.4536  0.9554
11568TIP3    H256196   6.314   3.689   2.091 -1.5531 -0.3233 -0.4663
11569TIP3   OH256197   4.525   3.017  10.653  0.1077  0.2681  0.5263
11569TIP3    H156198   4.533   3.051  10.743  0.7106  0.5119  0.3876
11569TIP3    H256199   4.593   3.064  10.604 -0.7457  0.7325 -0.2427
11570TIP3   OH256200   1.969   5.827   4.926  0.5030  0.2401  0.0865
11570TIP3    H156201   1.968   5.921   4.906  2.4003  0.2180 -0.2347
11570TIP3    H256202   1.904   5.789   4.866  0.3401  1.2268 -0.3713
11571TIP3   OH256203   5.227   1.482  12.076  0.3806  0.5474 -0.3114
11571TIP3    H156204   5.169   1.453  12.147  1.3005 -0.5339  0.0216
11571TIP3    H256205   5.168   1.522  12.012 -0.5658  0.7415  0.6590
11572TIP3   OH256206   5.353   3.646   0.020 -0.2039 -0.3535 -0.2653
11572TIP3    H156207   5.422   3.631  -0.044 -1.3560  1.1966 -1.9727
11572TIP3    H256208   5.292   3.572   0.006 -0.1280 -0.3702 -0.5254
11573TIP3   OH256209   6.310   6.887   2.374  0.5737  0.3271  0.5662
11573TIP3    H156210   6.235   6.870   2.431  0.6957  1.6093  1.1490
11573TIP3    H256211   6.387   6.876   2.430  0.7745  0.0092  0.2315
11574TIP3   OH256212   5.644   4.974  12.845 -0.2804  0.2909 -0.3597
11574TIP3    H156213   5.725   4.961  12.894 -0.7040  0.8323  0.4894
11574TIP3    H256214   5.629   5.068  12.847 -1.6930  0.0579  0.7277
11575TIP3   OH256215   3.380   5.176  12.066  0.1157 -0.4633 -0.0644
11575TIP3    H156216   3.325   5.254  12.078  1.9918  0.7818  1.0932
11575TIP3    H256217   3.353   5.116  12.136  0.9255  0.6104  1.2273
11576TIP3   OH256218   6.328   0.749  10.791 -0.1815 -0.4881  0.0755
11576TIP3    H156219   6.388   0.705  10.730  0.5807  1.9862 -1.0859
11576TIP3    H256220   6.241   0.724  10.760  0.2163 -0.3062 -1.2495
11577TIP3   OH256221   5.806   3.761   1.644  0.5731 -0.1814  0.0723
11577TIP3    H156222   5.797   3.766   1.549 -0.1536  1.0751  0.1917
11577TIP3    H256223   5.755   3.835   1.677 -0.5016 -1.5104  1.5245
11578TIP3   OH256224   4.408   0.417  14.764  0.0876 -0.4078 -0.1104
11578TIP3    H156225   4.429   0.506  14.793 -1.5383  1.2127 -3.3510
11578TIP3    H256226   4.467   0.402  14.691 -1.5670 -0.7456 -1.4375
11579TIP3   OH256227   2.462   5.896   1.484 -0.1960  0.0570  0.3860
11579TIP3    H156228   2.489   5.866   1.571  1.0852 -1.6017 -0.5292
11579TIP3    H256229   2.407   5.973   1.501  1.0460  0.5360  2.5896
11580TIP3   OH256230   3.490   5.536   1.169 -0.3086 -0.3183 -0.5189
11580TIP3    H156231   3.502   5.631   1.176 -0.3583 -0.2163 -1.7367
11580TIP3    H256232   3.564   5.506   1.117 -1.2699 -0.6889 -1.7165
11581TIP3   OH256233   6.677   2.249   2.713 -0.1303  0.0896  0.8578
11581TIP3    H156234   6.734   2.321   2.685 -1.2302  0.4909 -0.4655
11581TIP3    H256235   6.622   2.287   2.781 -1.0891  0.7101 -0.2214
11582TIP3   OH256236   1.635   6.580   2.782  0.0303  0.0520 -0.2652
11582TIP3    H156237   1.578   6.591   2.706 -0.7801 -1.3567  0.0802
11582TIP3    H256238   1.622   6.488   2.808  0.7816  0.3156  1.1671
11583TIP3   OH256239   3.638   6.709  14.120  0.3306 -0.8781 -0.2550
11583TIP3    H156240   3.638   6.680  14.211 -1.3982  0.3622  0.1917
11583TIP3    H256241   3.637   6.804  14.125  0.7180 -0.7854 -1.5822
11584TIP3   OH256242   1.316   1.157   2.915  0.1108  0.1029 -0.6119
11584TIP3    H156243   1.384   1.222   2.898  1.4383 -0.7194  1.2212
11584TIP3    H256244   1.284   1.178   3.002 -0.8339 -0.5154 -0.7960
11585TIP3   OH256245   4.985   0.352  10.343 -0.4014  0.3939 -0.0791
11585TIP3    H156246   5.037   0.311  10.274  1.5372  2.3025  0.1699
11585TIP3    H256247   5.047   0.406  10.391 -2.0395  0.4164  2.1573
11586TIP3   OH256248   0.638   2.798  13.873 -0.3137 -0.1710  0.8052
11586TIP3    H156249   0.593   2.748  13.940 -2.0839  0.5202  0.1953
11586TIP3    H256250   0.674   2.874  13.919  0.7166 -0.9698  1.3808
11587TIP3   OH256251   6.470   3.319  12.930 -0.1646  0.0789 -0.5164
11587TIP3    H156252   6.520   3.292  13.007 -0.8613 -1.8678 -0.7102
11587TIP3    H256253   6.501   3.261  12.860 -2.5626 -1.1164 -0.6693
11588TIP3   OH256254   3.756   4.880   2.056  0.4417 -0.5078 -0.1798
11588TIP3    H156255   3.737   4.792   2.086 -0.2942 -0.1447  0.4490
11588TIP3    H256256   3.747   4.876   1.960 -1.3262 -0.7214 -0.0388
11589TIP3   OH256257   6.888   0.219  14.263 -0.3180 -0.4611  0.0612
11589TIP3    H156258   6.814   0.167  14.231 -1.6668  0.4478  1.5077
11589TIP3    H256259   6.900   0.189  14.353 -0.1261  0.6447  0.4162
11590TIP3   OH256260   5.394   1.456   0.271 -0.1419 -0.0689  0.1522
11590TIP3    H156261   5.437   1.437   0.188  0.3166  0.0422  0.3611
11590TIP3    H256262   5.465   1.455   0.336 -0.5283 -0.3952  0.5800
11591TIP3   OH256263   1.006   4.139   9.760 -0.1334  0.1089 -0.0266
11591TIP3    H156264   1.052   4.212   9.718 -0.9513  0.5537 -0.1914
11591TIP3    H256265   1.029   4.062   9.707  1.5566  0.0341  0.7519
11592TIP3   OH256266   2.834   5.064  14.090  0.3706 -1.0294  0.0427
11592TIP3    H156267   2.819   5.103  14.177  2.4206 -0.0194 -0.0051
11592TIP3    H256268   2.749   5.070  14.047  0.1569  1.9986  0.6198
11593TIP3   OH256269   3.376   2.346  14.874  0.2033  0.0929  0.3400
11593TIP3    H156270   3.454   2.374  14.923 -0.6715 -0.9959  2.4842
11593TIP3    H256271   3.411   2.310  14.793  2.0979 -1.6795  1.8345
11594TIP3   OH256272   1.269   5.864  13.253 -0.0438 -0.0805 -0.3457
11594TIP3    H156273   1.230   5.863  13.341 -0.1780  2.6742 -0.2883
11594TIP3    H256274   1.360   5.838  13.267  0.2110  1.2827  0.8385
11595TIP3   OH256275   4.636   4.952  10.661  0.1084  0.2375 -0.4036
11595TIP3    H156276   4.727   4.973  10.680 -0.3838  2.0580  0.1346
11595TIP3    H256277   4.595   5.037  10.641 -1.4945 -0.5082 -0.4701
11596TIP3   OH256278   5.853   4.843  13.399  0.3428  0.5331  0.1930
11596TIP3    H156279   5.881   4.929  13.429 -0.9611  2.3654 -3.3076
11596TIP3    H256280   5.913   4.821  13.328 -0.6097 -0.4005 -0.3693
11597TIP3   OH256281   5.271   6.632  13.673 -0.2687 -0.0929  0.2501
11597TIP3    H156282   5.321   6.653  13.595 -2.0551  0.5484 -0.7973
11597TIP3    H256283   5.193   6.587  13.640 -1.4821  0.9288  1.5545
11598TIP3   OH256284   5.223   3.327  13.875 -0.4973  0.1232 -0.0734
11598TIP3    H156285   5.311   3.365  13.876 -0.9511  1.1964  0.8967
11598TIP3    H256286   5.206   3.304  13.967 -1.8519  1.4676  0.0543
11599TIP3   OH256287   6.243   1.548   2.368 -0.2357 -0.1336  0.2898
11599TIP3    H156288   6.189   1.574   2.443  1.5043 -1.2462  2.0577
11599TIP3    H256289   6.315   1.611   2.368  0.0716 -0.4803 -0.0754
11600TIP3   OH256290   0.889   3.699  11.175 -1.0361  0.3762  0.2147
11600TIP3    H156291   0.941   3.767  11.217  0.8358 -0.6950 -0.2700
11600TIP3    H256292   0.890   3.722  11.082 -0.0593 -0.4973 -0.0045
11601TIP3   OH256293   0.860   5.741  10.362  0.2175 -0.2903  0.3489
11601TIP3    H156294   0.915   5.801  10.312  0.9641  0.3882  1.9176
11601TIP3    H256295   0.880   5.655  10.326  0.4731  0.2098 -0.7348
11602TIP3   OH256296   1.085   4.119   1.335  0.1213  0.2342 -0.4851
11602TIP3    H156297   1.032   4.048   1.373  0.4120 -0.2031 -0.8785
11602TIP3    H256298   1.049   4.199   1.373  0.1672 -0.1630  0.4187
11603TIP3   OH256299   6.423   3.593  14.238  0.4588 -0.5517  0.0586
11603TIP3    H156300   6.405   3.584  14.332  0.2143 -1.6613 -0.0847
11603TIP3    H256301   6.484   3.667  14.233  0.6973 -0.6499  1.1186
11604TIP3   OH256302   3.113   6.765  13.116  0.3341  0.8468 -0.3242
11604TIP3    H156303   3.022   6.771  13.145  0.6416  0.5503  0.7405
11604TIP3    H256304   3.150   6.852  13.133  1.0706  0.1226  2.2054
11605TIP3   OH256305   1.528   5.672  14.497  0.7326  0.3005 -0.3743
11605TIP3    H156306   1.568   5.615  14.564 -0.5064  0.8344  0.8700
11605TIP3    H256307   1.443   5.631  14.480 -0.4772  2.0849  1.0457
11606TIP3   OH256308   3.310   4.794  14.773  0.0830 -0.1559  0.0277
11606TIP3    H156309   3.258   4.775  14.851 -0.2665 -1.9475 -0.5999
11606TIP3    H256310   3.246   4.822  14.708  0.0002 -1.3251 -0.4196
11607TIP3   OH256311   3.002   1.699   5.161 -0.2300  0.2579  0.8155
11607TIP3    H156312   2.979   1.608   5.144  1.1767  0.0853 -0.4266
11607TIP3    H256313   3.053   1.696   5.242  0.8092 -0.2541  0.1671
11608TIP3   OH256314   3.106   0.510  14.015 -0.1498  0.2555  0.2632
11608TIP3    H156315   3.018   0.478  14.031 -1.2233  2.5114 -0.6759
11608TIP3    H256316   3.117   0.583  14.076  0.3522  1.1235 -0.8284
11609TIP3   OH256317   6.120   4.703   2.929  0.5407  0.2841  0.0189
11609TIP3    H156318   6.138   4.613   2.903 -0.3350  0.9945 -3.5669
11609TIP3    H256319   6.135   4.755   2.850 -1.6546  2.9084  1.1546
11610TIP3   OH256320   3.392   3.212  13.263 -0.0757  0.2300 -0.6831
11610TIP3    H156321   3.352   3.291  13.300  0.9976  0.8407 -0.7951
11610TIP3    H256322   3.424   3.164  13.340  0.6231  0.6646 -0.6860
11611TIP3   OH256323   6.340   4.246  10.574 -0.3316 -0.3132 -0.7265
11611TIP3    H156324   6.425   4.215  10.604 -0.3329  0.5831  0.2667
11611TIP3    H256325   6.358   4.334  10.540 -0.9939  0.2631  0.3635
11612TIP3   OH256326   5.270   7.066   3.917  0.2243  0.6069 -0.6062
11612TIP3    H156327   5.282   7.046   3.824  0.1089 -0.3332 -0.4353
11612TIP3    H256328   5.263   6.980   3.958 -2.0189  1.0185 -0.0215
11613TIP3   OH256329   7.084   4.700   5.119  0.1655  0.2191  0.7305
11613TIP3    H156330   7.119   4.747   5.195  0.3575  0.8956  0.2299
11613TIP3    H256331   7.031   4.629   5.157  1.8975 -0.7286  1.5179
11614TIP3   OH256332   0.596   6.437   2.510 -0.0592  0.0397 -0.2787
11614TIP3    H156333   0.597   6.503   2.580 -0.0421  0.8151 -0.9921
11614TIP3    H256334   0.545   6.478   2.439  0.2145 -0.5917 -0.8496
11615TIP3   OH256335   1.440   0.668  11.369 -0.7803 -0.0772 -0.6261
11615TIP3    H156336   1.355   0.679  11.411 -0.4837  0.6889 -0.2028
11615TIP3    H256337   1.478   0.756  11.368  1.1568 -0.7640  1.6127
11616TIP3   OH256338   6.497   1.670   3.883 -0.2175 -0.4155  0.0174
11616TIP3    H156339   6.540   1.679   3.968  1.2173 -4.7947  0.0414
11616TIP3    H256340   6.407   1.699   3.898  0.2320 -0.2131  2.8091
11617TIP3   OH256341   0.488   1.878  12.625  0.2464 -0.4736 -0.6378
11617TIP3    H156342   0.439   1.935  12.567  0.5688 -0.8655 -1.3073
11617TIP3    H256343   0.450   1.893  12.712 -0.2349  0.1180 -0.9470
11618TIP3   OH256344   7.196   4.337   5.041 -0.7925 -0.1149 -0.2368
11618TIP3    H156345   7.119   4.281   5.057 -0.5652  0.0173  1.5997
11618TIP3    H256346   7.227   4.359   5.129  1.9132 -0.9030 -0.9139
11619TIP3   OH256347   0.579   1.395  11.446  0.2169 -0.4663 -0.1842
11619TIP3    H156348   0.654   1.376  11.389 -0.7680 -1.2665 -1.2759
11619TIP3    H256349   0.583   1.489  11.461  0.2625 -0.1331 -1.9957
11620TIP3   OH256350   2.223   1.383   2.350  0.3923  0.2073  0.7153
11620TIP3    H156351   2.309   1.346   2.369 -0.0519  0.0663  2.6220
11620TIP3    H256352   2.240   1.473   2.324  1.4320 -0.9110 -3.2045
11621TIP3   OH256353   5.967   4.079   0.448  0.0428 -0.3496 -0.1045
11621TIP3    H156354   5.915   4.152   0.482 -1.5990 -1.0946 -0.9606
11621TIP3    H256355   5.978   4.020   0.523 -0.0460 -0.0310  0.1602
11622TIP3   OH256356   6.397   0.768  15.131 -0.1000  0.3049  0.3496
11622TIP3    H156357   6.326   0.829  15.150  0.6841  1.2045  0.4526
11622TIP3    H256358   6.476   0.812  15.162  0.7606  0.2098 -1.5602
11623TIP3   OH256359   3.427   5.523  14.993  0.6680  0.4699 -0.4144
11623TIP3    H156360   3.393   5.596  15.044 -1.1704 -1.6351  1.6022
11623TIP3    H256361   3.359   5.505  14.928  0.9610  0.3611 -0.6918
11624TIP3   OH256362   3.655   2.341  13.127  0.6556 -1.0091  0.1562
11624TIP3    H156363   3.633   2.395  13.203 -0.6822  0.0510 -0.9297
11624TIP3    H256364   3.733   2.383  13.090  2.2967 -2.4616  1.7800
11625TIP3   OH256365   2.852   0.962   0.601  0.2027 -0.3516  0.4968
11625TIP3    H156366   2.849   0.946   0.695  0.4546  0.6673  0.6974
11625TIP3    H256367   2.944   0.946   0.577  0.0748 -0.8978  0.3654
11626TIP3   OH256368   6.469   1.666   5.463  1.0587 -0.4818  0.7152
11626TIP3    H156369   6.564   1.674   5.451  0.9609 -0.5751 -0.2184
11626TIP3    H256370   6.443   1.750   5.499  1.0873  0.8073 -1.9871
11627TIP3   OH256371   0.642   2.586  13.232  0.1718 -0.3668  0.4444
11627TIP3    H156372   0.687   2.520  13.179  1.4110  0.3563  0.5620
11627TIP3    H256373   0.660   2.561  13.323 -1.8280 -1.5222  0.5910
11628TIP3   OH256374   2.919   6.878  13.917 -0.5727  0.0473  0.8783
11628TIP3    H156375   2.921   6.965  13.877  0.8267  0.6471  2.1495
11628TIP3    H256376   3.007   6.844  13.902 -0.8695 -0.8338  1.0953
11629TIP3   OH256377   1.285   2.434  11.875  0.1476  0.1636 -0.7051
11629TIP3    H156378   1.278   2.345  11.841  0.9241 -0.5557  0.8972
11629TIP3    H256379   1.245   2.430  11.962  0.4232  1.3156 -0.5110
11630TIP3   OH256380   4.932   0.720   9.970 -0.3111  0.7000  0.2840
11630TIP3    H156381   4.952   0.712   9.877  0.9207  0.7874  0.5200
11630TIP3    H256382   4.998   0.666  10.013 -0.7402  0.8251  1.1142
11631TIP3   OH256383   0.270   1.721  12.276 -0.3192 -0.0496  0.0029
11631TIP3    H156384   0.185   1.752  12.246 -1.8743 -2.3387  1.7483
11631TIP3    H256385   0.280   1.634  12.238  1.0347 -0.0395  0.2588
11632TIP3   OH256386   5.864   4.210   3.557  0.5266  0.1563 -0.7405
11632TIP3    H156387   5.894   4.204   3.466  2.0848  0.6483 -0.2767
11632TIP3    H256388   5.768   4.216   3.549  0.7141  2.5527 -2.4975
11633TIP3   OH256389   0.296   2.254   9.894  0.2467  0.0601 -0.7771
11633TIP3    H156390   0.390   2.236   9.890 -0.3051 -3.7858 -0.6543
11633TIP3    H256391   0.269   2.225   9.982 -1.2054  0.0017 -1.2052
11634TIP3   OH256392   2.002   5.506  12.518  0.1126 -0.3679 -0.2683
11634TIP3    H156393   2.020   5.565  12.591  1.6138 -0.8136 -0.2575
11634TIP3    H256394   1.952   5.435  12.558 -2.3222  1.1544 -0.4058
11635TIP3   OH256395   2.989   5.246  13.856  0.0093  0.1170 -0.5634
11635TIP3    H156396   2.924   5.201  13.803  2.3630 -3.6956 -0.5609
11635TIP3    H256397   2.941   5.319  13.897 -3.6086 -1.1370 -2.2181
11636TIP3   OH256398   1.356   3.754   0.591  0.1594 -0.4096 -0.0190
11636TIP3    H156399   1.335   3.751   0.684 -1.8398  2.4221 -0.2480
11636TIP3    H256400   1.438   3.803   0.586 -0.7964  1.2908  0.2206
11637TIP3   OH256401   2.857   7.147  13.851  0.1562 -0.2469  0.0682
11637TIP3    H156402   2.894   7.171  13.936 -2.3415  0.0556  1.1415
11637TIP3    H256403   2.898   7.208  13.790 -1.9408  3.3924  1.9246
11638TIP3   OH256404   5.406   3.364   2.446 -0.4770  0.2653  0.4369
11638TIP3    H156405   5.435   3.275   2.463  0.6011  0.3614 -0.8037
11638TIP3    H256406   5.486   3.416   2.446 -0.8577  0.8852 -0.8888
11639TIP3   OH256407   1.886   5.721  13.976 -0.1355 -0.5014 -0.9868
11639TIP3    H156408   1.850   5.722  13.888 -1.6143  0.1158 -0.4056
11639TIP3    H256409   1.860   5.805  14.014  0.4152 -0.7855  0.0724
11640TIP3   OH256410   3.018   0.134  14.434  0.1035 -0.0467 -0.5938
11640TIP3    H156411   3.083   0.201  14.456 -0.6061  0.2898  0.5820
11640TIP3    H256412   2.937   0.182  14.423 -0.2350 -0.6170 -0.6133
11641TIP3   OH256413   0.919   1.728   3.043  0.0241  0.3826  0.4711
11641TIP3    H156414   1.003   1.688   3.021  0.8481  1.9805  0.5839
11641TIP3    H256415   0.927   1.753   3.135 -0.5452  0.6358  0.4584
11642TIP3   OH256416   4.535   1.223   5.694 -0.0292  0.1299  0.3088
11642TIP3    H156417   4.554   1.317   5.698 -0.3659  0.1461  1.7955
11642TIP3    H256418   4.544   1.193   5.784  0.0988 -1.2831 -0.1560
11643TIP3   OH256419   5.067   4.300  11.902 -0.1019 -0.5204  0.0460
11643TIP3    H156420   4.981   4.325  11.935  0.3526 -0.0737  0.9404
11643TIP3    H256421   5.083   4.359  11.828 -0.9137 -1.1808 -0.6701
11644TIP3   OH256422   5.255   0.590  13.439 -0.7134 -0.0365 -0.3250
11644TIP3    H156423   5.289   0.573  13.527 -2.7579  1.4684  0.8471
11644TIP3    H256424   5.331   0.621  13.389  0.4703 -0.8415  0.9129
11645TIP3   OH256425   5.515   1.814  14.930 -0.2901 -0.0256  0.0461
11645TIP3    H156426   5.478   1.868  14.860  1.7489  1.3964 -0.0335
11645TIP3    H256427   5.443   1.758  14.959 -1.6916  0.6833 -1.8922
11646TIP3   OH256428   3.705   3.353  14.270  0.5411 -0.0553  0.1478
11646TIP3    H156429   3.724   3.443  14.297 -0.5056  0.4665 -0.7679
11646TIP3    H256430   3.771   3.333  14.204  0.0015  0.5270 -0.5861
11647TIP3   OH256431   1.652   3.660   5.351 -0.1487  0.1552 -0.4081
11647TIP3    H156432   1.672   3.669   5.444  2.7723 -3.4248 -0.4800
11647TIP3    H256433   1.622   3.570   5.342 -0.4962  0.4610 -2.9666
11648TIP3   OH256434   0.017   2.808  12.794  0.7279 -0.1129 -0.3199
11648TIP3    H156435   0.093   2.867  12.797  1.4920 -1.1015  1.1369
11648TIP3    H256436   0.015   2.768  12.881 -1.5324 -0.0569 -0.2896
11649TIP3   OH256437   1.262   0.002   1.873  0.4530 -0.0316 -0.3062
11649TIP3    H156438   1.219  -0.019   1.790  0.8504 -0.3188 -0.4405
11649TIP3    H256439   1.281  -0.083   1.913  2.2402  0.0383 -0.9403
11650TIP3   OH256440   4.422   2.409   3.237  0.0367 -0.8298  0.0836
11650TIP3    H156441   4.418   2.429   3.143  0.4692  0.9891  0.4154
11650TIP3    H256442   4.514   2.391   3.254  0.1332 -0.1466  0.3276
11651TIP3   OH256443   3.673   1.430   2.648  0.0076 -0.2396  0.1276
11651TIP3    H156444   3.642   1.349   2.608 -3.1841  0.1317  1.5637
11651TIP3    H256445   3.629   1.433   2.733 -1.7999  4.0316 -0.7353
11652TIP3   OH256446   0.803   2.331   4.431  0.2100  0.2859  0.1556
11652TIP3    H156447   0.780   2.408   4.483  2.4041  0.4765  0.9574
11652TIP3    H256448   0.859   2.365   4.361  0.6563 -0.4812  0.1217
11653TIP3   OH256449   4.105   5.971   0.237  0.4508  0.1328  0.0951
11653TIP3    H156450   4.134   5.966   0.146 -0.3266 -2.4603 -0.0878
11653TIP3    H256451   4.051   6.049   0.241 -0.2130 -0.1745 -1.9146
11654TIP3   OH256452   0.885   7.172  11.692  0.3350  0.6283 -0.8920
11654TIP3    H156453   0.960   7.163  11.634  0.9581 -0.0323 -0.0176
11654TIP3    H256454   0.887   7.093  11.746 -1.5245  0.1352 -1.4492
11655TIP3   OH256455   2.532   0.998   1.968  0.9022  1.0002  0.3828
11655TIP3    H156456   2.505   1.065   2.032 -0.5961  1.4369 -0.6447
11655TIP3    H256457   2.621   0.975   1.994  0.3257  1.0749  2.6884
11656TIP3   OH256458   3.995   0.408  11.832  0.3081 -0.0053  0.2500
11656TIP3    H156459   3.965   0.352  11.761  1.4001  1.1900 -1.2285
11656TIP3    H256460   4.082   0.374  11.855  0.6107  0.5371 -0.0631
11657TIP3   OH256461   1.104   0.045   1.600  0.0665 -0.7885 -0.2093
11657TIP3    H156462   1.191   0.019   1.567  0.6744 -0.3646  0.9832
11657TIP3    H256463   1.070   0.103   1.532  1.8505  1.1473  0.4324
11658TIP3   OH256464   6.061   1.335  13.466 -0.4369 -0.3079  0.7259
11658TIP3    H156465   6.065   1.380  13.381  1.6299  0.3859  1.1302
11658TIP3    H256466   6.040   1.244  13.444  0.8672 -0.3306 -0.6510
11659TIP3   OH256467   1.726   1.670   3.640  0.5123  0.2020  0.4753
11659TIP3    H156468   1.709   1.617   3.562 -0.9842  2.0941 -0.5761
11659TIP3    H256469   1.820   1.688   3.637  0.2292  1.6069 -1.8718
11660TIP3   OH256470   4.613   6.169  14.425  0.2427  0.3427 -0.3577
11660TIP3    H156471   4.528   6.200  14.455  0.0616 -0.5054  0.0415
11660TIP3    H256472   4.615   6.189  14.331  0.7939  2.9863  0.1383
11661TIP3   OH256473   1.926   4.562  12.246 -0.4560  0.0441 -0.0992
11661TIP3    H156474   1.876   4.573  12.165 -0.3421  0.3811 -0.1289
11661TIP3    H256475   1.930   4.468  12.260  0.2366 -0.0688 -0.9484
11662TIP3   OH256476   2.532   1.155  11.092 -0.3509  0.3524  0.3167
11662TIP3    H156477   2.557   1.103  11.168 -1.0066  0.0952  0.3655
11662TIP3    H256478   2.613   1.197  11.063 -0.2247  1.0167  1.5806
11663TIP3   OH256479   6.898   2.438   2.728 -0.7257 -0.4269 -0.0172
11663TIP3    H156480   6.914   2.475   2.815  1.1761 -0.4565 -0.3141
11663TIP3    H256481   6.949   2.357   2.727 -0.4400 -0.2512 -1.2699
11664TIP3   OH256482   0.606   2.985   3.209  0.2788 -0.1178 -0.0712
11664TIP3    H156483   0.656   2.931   3.148  0.1954  1.0447 -1.2112
11664TIP3    H256484   0.515   2.959   3.195  0.3756 -1.0744  0.8454
11665TIP3   OH256485   1.023   6.105   2.148  0.5663 -0.0584  0.2819
11665TIP3    H156486   0.932   6.089   2.170  1.0058 -2.2436  0.7172
11665TIP3    H256487   1.038   6.055   2.067  1.0005  1.5502 -0.6836
11666TIP3   OH256488   3.491   0.109   0.697  0.0643 -0.7914  0.0543
11666TIP3    H156489   3.411   0.118   0.647 -0.4602 -0.0890  0.9818
11666TIP3    H256490   3.533   0.195   0.691 -0.4475 -0.4129  1.5134
11667TIP3   OH256491   4.443   2.476  14.856 -0.7756  0.1517  0.2976
11667TIP3    H156492   4.525   2.467  14.905  0.5670  0.9790 -1.6445
11667TIP3    H256493   4.387   2.406  14.888  0.5070 -0.1239  2.0419
11668TIP3   OH256494   2.405   1.105   4.535  0.7290 -0.0646  0.5849
11668TIP3    H156495   2.490   1.138   4.565  0.4540  0.6756  0.5825
11668TIP3    H256496   2.351   1.102   4.614  0.5179  0.2389  0.4536
11669TIP3   OH256497   2.964   6.841  11.853 -0.1138 -0.7854 -0.7929
11669TIP3    H156498   2.999   6.901  11.918  1.8872 -0.6854 -1.8995
11669TIP3    H256499   2.892   6.797  11.898  1.1375 -0.6798  1.4562
11670TIP3   OH256500   5.584   1.604  15.268 -0.4443  0.5171  0.3201
11670TIP3    H156501   5.626   1.567  15.345 -0.2006  1.2650  0.5516
11670TIP3    H256502   5.593   1.536  15.201  1.6245  0.8456  0.1971
11671TIP3   OH256503   0.725   2.555   1.407 -0.5082 -0.1320  0.1009
11671TIP3    H156504   0.749   2.508   1.487 -1.3191  1.7548  1.5200
11671TIP3    H256505   0.740   2.647   1.428 -0.6028  0.4201 -2.0002
11672TIP3   OH256506   2.029   2.029   5.077 -0.0738 -0.8948 -0.6710
11672TIP3    H156507   1.991   2.036   4.989  0.7198 -1.4548 -1.0624
11672TIP3    H256508   1.952   2.023   5.135 -0.6436  0.8214 -1.1739
11673TIP3   OH256509   2.637   1.489   3.385  0.2224  0.4723 -0.2451
11673TIP3    H156510   2.598   1.551   3.447  0.9817  0.3499  0.3857
11673TIP3    H256511   2.563   1.448   3.341 -0.3605  0.3372  0.8223
11674TIP3   OH256512   7.185   3.534  10.153  0.5917  0.3213  0.1717
11674TIP3    H156513   7.151   3.591  10.083 -0.4259  0.8847  1.0879
11674TIP3    H256514   7.191   3.448  10.113  0.3347  0.7022 -0.7076
11675TIP3   OH256515   1.615   1.733   0.656 -1.0802 -0.7574  0.5097
11675TIP3    H156516   1.553   1.737   0.728 -1.8256 -2.4286 -0.0010
11675TIP3    H256517   1.588   1.657   0.604 -0.3846  0.1904 -1.3619
11676TIP3   OH256518   7.252   5.269  14.039  0.1329  0.8531 -1.1167
11676TIP3    H156519   7.346   5.259  14.051 -0.3611 -1.9148  1.4137
11676TIP3    H256520   7.222   5.315  14.117 -0.7505  0.7984 -1.4119
11677TIP3   OH256521   1.829   1.486   4.260 -0.0480 -0.0137  0.0107
11677TIP3    H156522   1.881   1.435   4.322 -0.0386 -2.0140 -1.5107
11677TIP3    H256523   1.749   1.507   4.308  0.4415 -0.4807  1.0697
11678TIP3   OH256524   3.132   5.173  14.491 -0.1050  0.8893  0.1849
11678TIP3    H156525   3.189   5.136  14.559  0.5654  0.7745 -0.4194
11678TIP3    H256526   3.045   5.175  14.531  0.1079  0.0072  0.7417
11679TIP3   OH256527   4.566   3.262  13.294 -0.0042  0.4831  0.2124
11679TIP3    H156528   4.544   3.323  13.223  2.2775 -0.3231 -1.3078
11679TIP3    H256529   4.496   3.196  13.292 -0.1084  0.6052 -1.1763
11680TIP3   OH256530   2.182   3.720   0.157  0.2534  0.1881  0.2175
11680TIP3    H156531   2.255   3.678   0.112 -0.9298 -2.4932  0.5914
11680TIP3    H256532   2.210   3.811   0.170  3.7333 -0.8434  0.9113
11681TIP3   OH256533   1.611   3.884   2.910 -0.4588 -0.4673 -0.4527
11681TIP3    H156534   1.678   3.899   2.977  0.1078  0.0582 -1.1213
11681TIP3    H256535   1.531   3.864   2.959  0.5136 -2.6645  0.3839
11682TIP3   OH256536   0.558   0.963   5.200 -0.3446 -0.6867  0.3490
11682TIP3    H156537   0.482   0.994   5.152  0.9194  1.7148 -0.3152
11682TIP3    H256538   0.596   1.043   5.238  1.1424 -1.9489  1.6852
11683TIP3   OH256539   0.746   2.736  12.113  0.2588 -0.4752 -0.1144
11683TIP3    H156540   0.837   2.760  12.126  0.1925 -0.4959  0.4209
11683TIP3    H256541   0.697   2.793  12.172 -0.2646  0.8956 -1.7707
11684TIP3   OH256542   3.932   0.639   2.212  0.1724 -0.4054  0.2649
11684TIP3    H156543   3.859   0.697   2.235 -0.3827 -1.2244  0.6067
11684TIP3    H256544   3.922   0.564   2.270  0.0357 -1.5163 -1.1354
11685TIP3   OH256545   4.112   1.097  12.608  0.0763  0.4647  0.1927
11685TIP3    H156546   4.057   1.089  12.686 -1.3809 -1.3963 -0.9524
11685TIP3    H256547   4.066   1.159  12.553  0.0510  0.2449 -0.0330
11686TIP3   OH256548   0.175   4.953  11.493 -0.5861 -0.3220 -0.3897
11686TIP3    H156549   0.149   5.036  11.452 -0.5434  0.3044  0.8268
11686TIP3    H256550   0.092   4.909  11.512 -0.6706  0.1465  0.3710
11687TIP3   OH256551   3.355   5.930  11.659 -0.0506  0.4015  0.4244
11687TIP3    H156552   3.318   5.906  11.744 -0.6021  2.3743  0.7670
11687TIP3    H256553   3.356   6.025  11.659 -0.1352  0.4405 -1.8307
11688TIP3   OH256554   6.532   0.889   3.631 -0.2813 -0.0304  0.5991
11688TIP3    H156555   6.473   0.963   3.642 -0.4771 -0.3630  1.9247
11688TIP3    H256556   6.590   0.892   3.707  0.1166 -0.8680  0.3515
11689TIP3   OH256557   6.494   4.071   3.699  0.3204 -0.2515 -0.7263
11689TIP3    H156558   6.409   4.115   3.710  0.6516  0.4431 -0.8622
11689TIP3    H256559   6.491   4.036   3.610  0.9036  1.4467 -1.4525
11690TIP3   OH256560   4.037   2.678   2.818 -0.3624 -0.0342  0.2192
11690TIP3    H156561   3.998   2.763   2.838  0.1508  0.4644 -0.8066
11690TIP3    H256562   4.131   2.695   2.815 -0.1727 -0.8731  1.0371
11691TIP3   OH256563   3.288   2.352  13.807  0.2361  0.0526 -0.4113
11691TIP3    H156564   3.348   2.400  13.750 -0.8359  1.0097 -0.7515
11691TIP3    H256565   3.290   2.262  13.773  3.5607 -0.6782  1.2628
11692TIP3   OH256566   6.829   7.110   2.874 -0.0594  0.2382 -0.1475
11692TIP3    H156567   6.747   7.120   2.923 -0.7502  0.7663 -1.3717
11692TIP3    H256568   6.838   7.192   2.826  1.8857  0.7161  0.9598
11693TIP3   OH256569   2.041   0.666   3.477 -0.1403 -0.1940  0.2294
11693TIP3    H156570   2.104   0.716   3.426  1.5648 -1.3446  1.1155
11693TIP3    H256571   1.956   0.693   3.443  0.8777 -0.2680 -2.5944
11694TIP3   OH256572   5.418   6.466  15.189  0.1459  0.5335  0.0695
11694TIP3    H156573   5.411   6.541  15.250  1.6119  1.1771 -0.5075
11694TIP3    H256574   5.444   6.393  15.245 -0.4637  0.6549  0.5186
11695TIP3   OH256575   4.001   5.814  14.571  0.2547 -0.2894  0.1536
11695TIP3    H156576   4.004   5.718  14.575  1.8414 -0.3606 -1.4550
11695TIP3    H256577   4.073   5.842  14.627  0.3708 -0.0778 -0.1012
11696TIP3   OH256578   4.658   1.069  11.971  0.6677 -0.1880 -0.1691
11696TIP3    H156579   4.578   1.071  11.918 -0.2625 -0.3283  1.1815
11696TIP3    H256580   4.661   0.981  12.007  1.2220 -0.0637  0.1032
11697TIP3   OH256581   2.150   3.166  12.002 -0.1894  0.1342 -0.1416
11697TIP3    H156582   2.089   3.161  12.075  0.7705 -0.1700  0.6580
11697TIP3    H256583   2.224   3.112  12.028  0.9886  1.4832 -0.5446
11698TIP3   OH256584   2.722   0.073   5.105 -0.1363 -0.0183 -0.2550
11698TIP3    H156585   2.733   0.168   5.108 -2.2963  0.3967 -2.1207
11698TIP3    H256586   2.703   0.054   5.013 -0.0401 -2.2355  0.1145
11699TIP3   OH256587   2.264   1.168  14.372  0.2528 -0.2276  0.0158
11699TIP3    H156588   2.189   1.139  14.320  0.0858  1.7036 -0.8908
11699TIP3    H256589   2.231   1.242  14.423  1.2720 -0.0400  0.4218
11700TIP3   OH256590   2.976   2.162   4.601  0.1511  0.2405 -0.3035
11700TIP3    H156591   2.961   2.126   4.688  1.1813 -1.1223 -0.6603
11700TIP3    H256592   2.889   2.187   4.569 -0.1401  1.5983  1.4438
11701TIP3   OH256593   3.180   2.826  13.826 -0.0902  0.2126  0.0359
11701TIP3    H156594   3.236   2.780  13.888  0.7832  0.9754 -0.1747
11701TIP3    H256595   3.133   2.891  13.879 -1.7154 -1.2014  0.4282
11702TIP3   OH256596   6.019   0.192   4.095  0.0197  0.2333 -0.3053
11702TIP3    H156597   6.050   0.107   4.063  1.4351  1.1149 -1.3814
11702TIP3    H256598   6.098   0.238   4.123 -0.6958  1.3254 -0.0065
11703TIP3   OH256599   5.518   4.394  10.619 -0.3167  0.3569  0.2867
11703TIP3    H156600   5.568   4.312  10.615 -2.8116 -1.2590  0.3456
11703TIP3    H256601   5.552   4.438  10.697  0.5277 -0.9855  0.7175
11704TIP3   OH256602   4.603   5.917   4.451  0.5711  0.0211  0.0862
11704TIP3    H156603   4.523   5.874   4.479  0.5264 -1.2709 -1.8810
11704TIP3    H256604   4.673   5.859   4.482  0.6548  0.0824  0.0117
11705TIP3   OH256605   2.431   4.414  12.021  0.1389  0.0765  0.2036
11705TIP3    H156606   2.355   4.413  11.963  1.3171 -0.6366 -1.4024
11705TIP3    H256607   2.400   4.457  12.101 -1.5601  1.0557 -0.9285
11706TIP3   OH256608   5.704   0.109   5.066 -0.4004  0.2977 -0.2307
11706TIP3    H156609   5.728   0.050   5.137 -1.9207  1.4457  1.3602
11706TIP3    H256610   5.725   0.196   5.099 -0.5722  0.8335 -1.4629
11707TIP3   OH256611   5.240   6.049  15.287  0.3768  0.4264 -0.3324
11707TIP3    H156612   5.298   6.047  15.211 -1.4968 -1.7493 -1.8667
11707TIP3    H256613   5.265   5.972  15.339  0.2760  0.7080  0.1392
11708TIP3   OH256614   3.857   2.562   5.533 -0.2668 -0.5846 -0.3289
11708TIP3    H156615   3.946   2.559   5.566 -0.3917  1.2772  0.3172
11708TIP3    H256616   3.805   2.593   5.607 -0.8282  1.9401 -1.6430
11709TIP3   OH256617   4.253   2.397   3.547 -0.2014  0.2942 -0.0639
11709TIP3    H156618   4.181   2.410   3.484  0.6792  0.6386 -1.0224
11709TIP3    H256619   4.326   2.447   3.511  1.4813 -2.3903 -0.7300
11710TIP3   OH256620   5.854   3.949  12.819  0.0044 -0.3490 -0.1084
11710TIP3    H156621   5.792   4.020  12.833 -0.4138 -0.8810  0.9050
11710TIP3    H256622   5.880   3.957  12.728 -0.2865  0.8945 -0.1032
11711TIP3   OH256623   4.663   2.798  12.870 -0.2884 -0.0639 -0.0015
11711TIP3    H156624   4.589   2.844  12.830  0.3802  0.9848 -0.0734
11711TIP3    H256625   4.622   2.729  12.923 -1.2723 -0.0540 -0.7194
11712TIP3   OH256626   0.860   1.795  12.497  0.5188  0.1872 -0.1345
11712TIP3    H156627   0.836   1.856  12.427  1.9571  0.9784  0.0208
11712TIP3    H256628   0.955   1.805  12.506  0.5267 -0.7596  1.1371
11713TIP3   OH256629   0.121   0.326   1.414 -0.3033 -0.1070  0.1903
11713TIP3    H156630   0.035   0.368   1.418 -0.7931 -1.0566 -0.0752
11713TIP3    H256631   0.130   0.283   1.499  0.0014  0.1482  0.2904
11714TIP3   OH256632   5.640   2.734  12.060 -0.2218 -0.0636  0.4398
11714TIP3    H156633   5.588   2.784  12.124  0.0482  0.2333  0.4272
11714TIP3    H256634   5.584   2.729  11.983  0.5734  2.0905 -0.3460
11715TIP3   OH256635   3.410   5.529   2.337  0.1299 -0.5619 -0.2366
11715TIP3    H156636   3.431   5.575   2.419 -1.4078  0.5167 -0.3973
11715TIP3    H256637   3.377   5.598   2.279 -1.8766 -1.7839 -0.6299
11716TIP3   OH256638   3.003   5.390   5.307  0.5730 -0.5138  0.1657
11716TIP3    H156639   2.923   5.338   5.306 -1.1560  1.9451 -0.9155
11716TIP3    H256640   3.003   5.434   5.393 -0.3113  0.9016 -0.5154
11717TIP3   OH256641   7.089   6.777   0.613 -0.0311 -0.0233  0.1328
11717TIP3    H156642   7.156   6.717   0.580  2.3355  1.5137  1.8551
11717TIP3    H256643   7.063   6.827   0.535  0.3896 -1.0004 -0.6690
11718TIP3   OH256644   3.321   3.585   0.978  0.1718  0.2609 -0.0644
11718TIP3    H156645   3.327   3.675   0.947  1.9992  0.0009 -0.6019
11718TIP3    H256646   3.365   3.534   0.911 -1.1041 -1.1035  0.0806
11719TIP3   OH256647   4.951   5.978  12.374  0.1635  0.3647  0.3701
11719TIP3    H156648   5.000   6.053  12.410 -0.9394  1.0410  0.5080
11719TIP3    H256649   4.864   6.013  12.357 -0.7003 -1.1653  1.4191
11720TIP3   OH256650   1.966   5.799   3.376  0.1961 -0.0567 -0.3778
11720TIP3    H156651   1.930   5.873   3.328 -0.5270 -1.8295 -2.7970
11720TIP3    H256652   1.895   5.734   3.377  0.7355 -0.6978  1.8070
11721TIP3   OH256653   1.260   4.562   1.758  0.0677 -0.1915 -0.1263
11721TIP3    H156654   1.342   4.597   1.793  0.3541 -2.9472  2.3188
11721TIP3    H256655   1.288   4.494   1.697 -0.4176 -0.2234 -0.3148
11722TIP3   OH256656   0.544   7.138   5.098 -0.4251  0.1428  0.1140
11722TIP3    H156657   0.465   7.188   5.117 -0.6910  0.1853 -1.0007
11722TIP3    H256658   0.612   7.204   5.087 -0.3532  0.1394  0.5281
11723TIP3   OH256659   0.265   6.657  10.318 -0.4325  0.0165 -0.3046
11723TIP3    H156660   0.272   6.743  10.359  0.1217 -0.2089  0.0992
11723TIP3    H256661   0.232   6.600  10.388 -0.9461 -0.0674 -0.6155
11724TIP3   OH256662   2.788   6.143   4.998  0.0193 -0.1162  0.4041
11724TIP3    H156663   2.822   6.172   4.914 -1.3673  0.0435 -0.1304
11724TIP3    H256664   2.849   6.075   5.027  1.0329  0.4899 -0.2664
11725TIP3   OH256665   2.739   3.325   0.358 -0.1921 -0.4340  0.1118
11725TIP3    H156666   2.800   3.395   0.380 -0.9096  0.5317 -0.8524
11725TIP3    H256667   2.693   3.356   0.280  0.5160 -2.6372 -1.3005
11726TIP3   OH256668   5.532   0.412   1.160  0.3766 -0.4606 -0.4827
11726TIP3    H156669   5.502   0.347   1.224 -1.7245 -0.7861 -1.6922
11726TIP3    H256670   5.627   0.415   1.172  0.2328 -1.6718  1.5299
11727TIP3   OH256671   1.484   6.335   2.834  0.4926  0.2460  0.0644
11727TIP3    H156672   1.435   6.270   2.885 -0.1485 -1.9266 -3.0225
11727TIP3    H256673   1.573   6.301   2.831  0.1440 -0.6613 -1.6011
11728TIP3   OH256674   6.734   3.234  13.375  0.1015  0.3464  0.3761
11728TIP3    H156675   6.829   3.236  13.361 -0.2348 -0.3061 -2.5824
11728TIP3    H256676   6.706   3.325  13.363  0.2902  0.4940  0.9968
11729TIP3   OH256677   0.470   4.152   4.596 -0.6551  0.6111  0.3506
11729TIP3    H156678   0.520   4.070   4.591 -1.5800 -0.0446  1.3166
11729TIP3    H256679   0.419   4.143   4.676 -2.8536  0.9465 -0.9397
11730TIP3   OH256680   1.092   6.256  12.621  0.5603  0.4065  0.5744
11730TIP3    H156681   1.047   6.172  12.629  0.4798  0.5403  1.8774
11730TIP3    H256682   1.136   6.253  12.536 -1.7614  0.2179 -0.6937
11731TIP3   OH256683   0.844   5.857  12.840  0.6125 -0.2036  0.2282
11731TIP3    H156684   0.759   5.822  12.812  0.9127  0.2568 -1.3616
11731TIP3    H256685   0.909   5.798  12.801  1.0497 -0.0270  0.6695
11732TIP3   OH256686   2.626   4.718  14.797 -0.4238  0.5858  0.4726
11732TIP3    H156687   2.702   4.682  14.751 -0.9127  0.7528 -0.4980
11732TIP3    H256688   2.616   4.663  14.874 -0.2045 -0.3627 -0.1643
11733TIP3   OH256689   5.221   5.151   4.022  0.5612  0.2463 -0.2852
11733TIP3    H156690   5.198   5.149   3.929  0.3211 -0.7944 -0.2153
11733TIP3    H256691   5.166   5.083   4.062  0.4400  0.8773  0.6730
11734TIP3   OH256692   4.490   0.008  13.133 -0.2486 -0.7233  0.0573
11734TIP3    H156693   4.507  -0.024  13.044  1.2410 -2.2253  0.8178
11734TIP3    H256694   4.457  -0.069  13.180  0.5478 -0.3879  1.2045
11735TIP3   OH256695   5.690   2.539  15.239  0.0292  0.0989  0.4246
11735TIP3    H156696   5.600   2.512  15.258  0.1220 -1.9753 -1.5540
11735TIP3    H256697   5.743   2.490  15.302  0.0156 -2.8317 -1.6204
11736TIP3   OH256698   2.986   4.232   3.876 -0.1934  0.1581  0.2245
11736TIP3    H156699   3.040   4.302   3.840 -1.0184 -0.5207 -2.5346
11736TIP3    H256700   2.964   4.177   3.801 -2.6895 -0.9723  1.6476
11737TIP3   OH256701   3.565   6.858  12.910 -0.3485 -0.6459  0.1081
11737TIP3    H156702   3.549   6.765  12.895 -0.0923 -0.8349  0.9596
11737TIP3    H256703   3.490   6.887  12.963  0.3910 -0.7693  1.2715
11738TIP3   OH256704   0.015   0.887   3.330 -0.5025 -0.0042 -0.2916
11738TIP3    H156705   0.029   0.948   3.402  1.3712  0.1447 -0.7477
11738TIP3    H256706  -0.078   0.895   3.310 -0.6750  1.3050  0.8905
11739TIP3   OH256707   6.588   5.258  11.861 -0.1262 -0.5366 -0.3437
11739TIP3    H156708   6.562   5.168  11.840  0.6701 -0.3128 -2.6846
11739TIP3    H256709   6.507   5.309  11.857 -0.5242 -1.0808  0.6332
11740TIP3   OH256710   2.604   5.902   4.395 -0.0525  0.2878 -0.7784
11740TIP3    H156711   2.528   5.882   4.450  0.7038 -1.1024 -0.1783
11740TIP3    H256712   2.671   5.931   4.456  0.9890 -1.8284 -0.8009
11741TIP3   OH256713   2.964   6.777  14.932 -0.4416  0.1868 -0.6610
11741TIP3    H156714   3.027   6.848  14.923  1.2113 -0.2214  4.5912
11741TIP3    H256715   3.014   6.697  14.917 -0.6211 -0.0469 -0.0413
11742TIP3   OH256716   1.652   4.183   0.561 -0.3062 -0.1111 -0.0426
11742TIP3    H156717   1.614   4.239   0.494 -0.8776 -2.9623 -2.3161
11742TIP3    H256718   1.741   4.165   0.530  0.6339  1.1253  1.7498
11743TIP3   OH256719   3.609   1.062   4.636 -0.3151  0.3516 -0.1516
11743TIP3    H156720   3.701   1.073   4.614  0.7687 -1.9580  2.5584
11743TIP3    H256721   3.564   1.062   4.552  2.6622 -2.1797 -1.9788
11744TIP3   OH256722   0.847   0.451  15.125 -0.0321 -0.1664 -0.0596
11744TIP3    H156723   0.778   0.409  15.177  0.2469 -1.8541 -0.9602
11744TIP3    H256724   0.836   0.545  15.142 -1.3084 -0.5148  1.3168
11745TIP3   OH256725   3.101   2.630  11.726  0.1086  0.1986 -0.5226
11745TIP3    H156726   3.070   2.544  11.697  0.2307 -0.2404  0.6108
11745TIP3    H256727   3.061   2.692  11.665  0.1034 -0.6624 -1.4225
11746TIP3   OH256728   4.144   2.679   3.169  0.3120 -0.6978  0.5969
11746TIP3    H156729   4.095   2.752   3.130  0.2897 -1.0020  0.0389
11746TIP3    H256730   4.091   2.602   3.149  0.7077 -0.9560  0.5270
11747TIP3   OH256731   1.967   6.378  10.011 -0.1428 -0.6558 -0.2424
11747TIP3    H156732   1.955   6.471   9.990  3.7123  0.5925  1.9540
11747TIP3    H256733   1.939   6.371  10.102  1.9506 -0.9210  0.4288
11748TIP3   OH256734   1.179   4.793  10.837 -0.4278  0.0551  0.2715
11748TIP3    H156735   1.159   4.788  10.744  0.5124  1.7984 -0.0494
11748TIP3    H256736   1.270   4.765  10.844 -0.7209 -0.8164  0.7887
11749TIP3   OH256737   2.722   2.671   1.508 -0.2127  0.0325 -0.3443
11749TIP3    H156738   2.725   2.667   1.604  0.4138 -0.7158 -0.3877
11749TIP3    H256739   2.728   2.764   1.488 -0.7850  0.2359  0.3529
11750TIP3   OH256740   6.688   5.013   9.785  0.2108  0.4434 -0.0038
11750TIP3    H156741   6.672   5.009   9.691  0.2132 -0.2316  0.0207
11750TIP3    H256742   6.740   4.935   9.804  0.0504  0.4739  0.5845
11751TIP3   OH256743   0.711   1.202  14.150 -0.0226 -0.0215  0.0498
11751TIP3    H156744   0.665   1.226  14.231  0.1382 -0.3076  0.2288
11751TIP3    H256745   0.751   1.117  14.170 -0.8838 -0.6142 -0.6885
11752TIP3   OH256746   5.755   0.853  11.938  0.0271 -0.2989 -0.7357
11752TIP3    H156747   5.816   0.927  11.932  0.2869 -0.4437  0.0469
11752TIP3    H256748   5.699   0.863  11.861 -0.3553  1.0740 -0.3130
11753TIP3   OH256749   2.069   0.336  11.194 -0.7772 -0.4894  0.0163
11753TIP3    H156750   2.025   0.414  11.158 -0.2089  0.2036  0.7801
11753TIP3    H256751   2.141   0.320  11.135  1.4732  1.9428  1.8419
11754TIP3   OH256752   3.572   2.317  14.329  0.4863  0.3262  0.3418
11754TIP3    H156753   3.477   2.313  14.318  0.5301  1.0656 -0.3975
11754TIP3    H256754   3.600   2.225  14.330  0.0967  0.1006 -2.6016
11755TIP3   OH256755   5.606   1.133   5.190  0.0993  0.1323 -0.2319
11755TIP3    H156756   5.644   1.077   5.122  0.5363 -0.9599  0.8686
11755TIP3    H256757   5.512   1.118   5.182  0.2150 -0.9395  0.1531
11756TIP3   OH256758   2.476   1.430  15.248  0.0814  0.3967  0.2545
11756TIP3    H156759   2.451   1.410  15.338  0.2005 -2.3301 -0.2289
11756TIP3    H256760   2.415   1.380  15.194  2.1798 -0.9296 -1.0715
11757TIP3   OH256761   6.505   6.402   2.719  0.3514  0.7266 -0.4398
11757TIP3    H156762   6.427   6.398   2.775  0.5204  0.4945 -0.2208
11757TIP3    H256763   6.491   6.479   2.664  0.9379  1.9266  1.0408
11758TIP3   OH256764   4.550   1.197   2.109 -0.3839  0.3920 -0.2157
11758TIP3    H156765   4.539   1.250   2.188  0.1203  1.5406 -0.8882
11758TIP3    H256766   4.620   1.241   2.061  0.8503 -1.5447 -0.2763
11759TIP3   OH256767   0.434   5.667   4.214  0.0891  0.3607 -0.0673
11759TIP3    H156768   0.433   5.760   4.195  1.3240  0.3585 -0.2470
11759TIP3    H256769   0.499   5.657   4.284  0.1549 -0.3816 -0.2204
11760TIP3   OH256770   2.281   3.821   4.810  0.0152  0.3635  0.1114
11760TIP3    H156771   2.354   3.794   4.753 -1.1414 -1.6422 -0.5215
11760TIP3    H256772   2.321   3.832   4.896  1.4697  1.6284 -0.6752
11761TIP3   OH256773   6.310   5.306  14.370 -0.1086  0.2131 -0.3342
11761TIP3    H156774   6.371   5.344  14.433 -1.1783  0.7823  0.4078
11761TIP3    H256775   6.322   5.358  14.291  0.5991  0.0999 -0.3041
11762TIP3   OH256776   3.678   2.848  14.771 -0.3353 -0.3455 -0.0970
11762TIP3    H156777   3.691   2.881  14.682  2.7374 -1.4990 -0.2008
11762TIP3    H256778   3.655   2.756  14.759  1.0392 -0.7586  0.2610
11763TIP3   OH256779   4.099   4.315   2.448 -0.3656  0.4119  0.1594
11763TIP3    H156780   4.122   4.335   2.358  1.3702  0.7195  0.6339
11763TIP3    H256781   4.058   4.229   2.444  1.9334 -0.7462 -0.6823
11764TIP3   OH256782   2.838   4.958  11.493 -0.0746  0.2992 -0.5702
11764TIP3    H156783   2.753   4.988  11.460 -0.1006 -0.3170 -1.0940
11764TIP3    H256784   2.842   4.866  11.467 -0.1000 -0.2388  1.2021
11765TIP3   OH256785   2.233   4.001   0.530  0.3788  0.0891 -0.6078
11765TIP3    H156786   2.297   4.071   0.529 -0.3967  0.8738  1.1348
11765TIP3    H256787   2.167   4.028   0.594 -1.1276 -1.1903 -1.5225
11766TIP3   OH256788   5.881   4.558   4.766  0.2761  0.3877 -0.1249
11766TIP3    H156789   5.863   4.488   4.829  0.0346 -0.3904 -1.0367
11766TIP3    H256790   5.804   4.561   4.710  1.0626  0.0734 -1.2769
11767TIP3   OH256791   4.279   2.199   2.243 -0.0801  0.0680  0.1884
11767TIP3    H156792   4.280   2.249   2.161  2.5142  1.8712  1.1788
11767TIP3    H256793   4.235   2.257   2.305 -0.5476 -0.5935  0.4864
11768TIP3   OH256794   0.864   2.584   2.982  0.0329 -0.1751 -0.0766
11768TIP3    H156795   0.813   2.504   2.971 -1.0239  0.4974 -0.3099
11768TIP3    H256796   0.931   2.581   2.914 -2.3564  0.8803 -2.6670
11769TIP3   OH256797   0.780   0.358   0.777 -0.0245  0.0102  0.3416
11769TIP3    H156798   0.782   0.267   0.748 -0.9437  0.1350 -0.1649
11769TIP3    H256799   0.866   0.392   0.754  0.1367 -0.5846  0.0344
11770TIP3   OH256800   7.115   1.894  12.115 -0.4035 -0.1522 -0.1143
11770TIP3    H156801   7.160   1.822  12.071 -1.7176 -0.6655 -0.6422
11770TIP3    H256802   7.038   1.912  12.061 -0.1403  1.6212  0.0325
11771TIP3   OH256803   2.485   6.036   0.448 -0.0800  0.1811 -0.2655
11771TIP3    H156804   2.460   6.112   0.395  0.0640 -1.2599 -2.5464
11771TIP3    H256805   2.425   5.967   0.420 -1.2348 -0.2339  2.8670
11772TIP3   OH256806   3.113   5.281   2.282 -0.1611  0.2408  0.2458
11772TIP3    H156807   3.070   5.225   2.217 -1.9877 -0.1770  1.7326
11772TIP3    H256808   3.201   5.296   2.247 -1.0710  0.0413 -2.2924
11773TIP3   OH256809   2.006   0.796  10.842 -0.2946  0.9440  0.6877
11773TIP3    H156810   1.923   0.812  10.886 -0.7588  1.6682 -0.4164
11773TIP3    H256811   1.982   0.781  10.751  0.6137 -0.8119  0.6845
11774TIP3   OH256812   4.485   4.573  13.937 -0.0574 -0.5481 -0.1999
11774TIP3    H156813   4.447   4.563  14.024  0.4782  1.9892  0.3956
11774TIP3    H256814   4.414   4.547  13.877 -1.0813 -0.4971  0.9473
11775TIP3   OH256815   6.116   1.282   1.661  0.2852  0.6715 -0.0721
11775TIP3    H156816   6.032   1.311   1.695  0.0981  0.2226 -0.1492
11775TIP3    H256817   6.175   1.356   1.677 -0.2938  1.2894 -0.7089
11776TIP3   OH256818   0.988   3.197   4.100  0.4061  0.3866  0.2402
11776TIP3    H156819   1.082   3.189   4.080  0.0145  0.1023 -1.7121
11776TIP3    H256820   0.983   3.185   4.195  2.4822  1.8246  0.6198
11777TIP3   OH256821   1.830   0.848  12.894  0.0422  0.0707  0.2605
11777TIP3    H156822   1.924   0.846  12.911  0.3896  0.8116 -1.3615
11777TIP3    H256823   1.823   0.864  12.799 -1.6981  1.0929  0.5126
11778TIP3   OH256824   2.294   1.551  10.876 -0.1785 -0.4703  0.0691
11778TIP3    H156825   2.255   1.522  10.958 -0.9015 -0.4802 -0.2716
11778TIP3    H256826   2.270   1.644  10.870 -0.0963 -0.4594 -0.1101
11779TIP3   OH256827   5.459   2.003   3.310 -0.4052 -0.2160 -0.3262
11779TIP3    H156828   5.541   1.970   3.271 -0.6866 -0.0625 -1.0694
11779TIP3    H256829   5.487   2.074   3.367 -0.0728  0.3639 -1.1768
11780TIP3   OH256830   3.902   5.974  12.510  0.0149  0.4931 -0.4261
11780TIP3    H156831   3.996   5.984  12.527 -0.3318  0.7102  1.5938
11780TIP3    H256832   3.871   6.064  12.497 -0.2025  0.5962  0.7213
11781TIP3   OH256833   2.484   3.191  14.072  0.2140  0.1246  0.4719
11781TIP3    H156834   2.505   3.284  14.088  0.7040  0.1789 -0.3943
11781TIP3    H256835   2.445   3.190  13.984  2.4789 -0.7472 -0.6222
11782TIP3   OH256836   7.111   3.442  12.550  0.3235  0.3782 -0.1878
11782TIP3    H156837   7.081   3.377  12.614 -1.4453  2.1533  0.8995
11782TIP3    H256838   7.049   3.433  12.477 -1.3535  2.2412  0.9140
11783TIP3   OH256839   6.427   6.616   1.796 -0.5924  0.0437 -0.5128
11783TIP3    H156840   6.400   6.708   1.801 -2.0273 -0.3947  1.0582
11783TIP3    H256841   6.449   6.593   1.886  1.2203 -0.7833 -1.1162
11784TIP3   OH256842   6.144   0.505  14.794 -0.1638 -0.1973  0.5014
11784TIP3    H156843   6.225   0.469  14.758  0.1504 -0.0610  1.0599
11784TIP3    H256844   6.123   0.448  14.867 -0.5396 -0.1907  0.4000
11785TIP3   OH256845   1.057   6.342   4.285  0.0742  0.0479  0.2535
11785TIP3    H156846   1.077   6.340   4.378 -2.9387  1.2424  1.0533
11785TIP3    H256847   1.069   6.433   4.259  0.4874 -0.1950 -0.4184
11786TIP3   OH256848   3.601   0.726   4.832  0.2118  0.1091 -0.0218
11786TIP3    H156849   3.519   0.717   4.880  0.9402 -1.9231  0.9755
11786TIP3    H256850   3.591   0.671   4.755  1.0875 -1.3421  0.8438
11787TIP3   OH256851   0.786   0.232  11.241 -0.4890 -0.2632  0.2851
11787TIP3    H156852   0.873   0.259  11.209  0.6525 -0.9432  2.5971
11787TIP3    H256853   0.778   0.141  11.213 -1.1189  0.1920 -1.1273
11788TIP3   OH256854   2.643   2.538  14.983  0.0725  0.4200  0.1359
11788TIP3    H156855   2.619   2.447  14.999 -2.8169  0.9767 -0.4290
11788TIP3    H256856   2.687   2.566  15.063  0.8847 -1.3956  0.3785
11789TIP3   OH256857   3.013   3.429  13.060 -0.5551 -0.3851 -0.1383
11789TIP3    H156858   3.020   3.486  12.983 -0.6201  3.0296  2.1660
11789TIP3    H256859   3.085   3.367  13.050  2.2802  2.7566 -0.8754
11790TIP3   OH256860   4.860   5.887   0.817  0.4234 -1.0297 -0.1638
11790TIP3    H156861   4.804   5.961   0.841 -0.0562 -1.6733  0.7698
11790TIP3    H256862   4.943   5.927   0.794 -0.3194 -0.0695 -1.3149
11791TIP3   OH256863   2.023   3.178   0.669 -0.0231 -0.1415  0.0185
11791TIP3    H156864   1.957   3.207   0.605  0.1328 -1.9008 -0.9873
11791TIP3    H256865   1.972   3.151   0.745 -0.2519  1.3722  0.4312
11792TIP3   OH256866   6.219   1.195   0.028 -0.1813 -0.2385 -0.4733
11792TIP3    H156867   6.159   1.261  -0.005 -1.3306 -1.1080 -0.1771
11792TIP3    H256868   6.247   1.229   0.114 -1.2305 -0.4024 -0.0565
11793TIP3   OH256869   3.896   6.765   3.146 -0.3930  0.0423 -0.5197
11793TIP3    H156870   3.924   6.849   3.183 -0.8653 -0.4720  1.0729
11793TIP3    H256871   3.946   6.699   3.194 -0.8042 -0.6481 -1.0125
11794TIP3   OH256872   5.268   1.219   2.288  0.0269 -0.3199  0.5744
11794TIP3    H156873   5.312   1.253   2.366  0.3384  1.4458 -0.3141
11794TIP3    H256874   5.309   1.267   2.215 -2.9327  1.0256 -0.3510
11795TIP3   OH256875   2.860   3.501  11.788 -0.3977 -0.3909  0.1639
11795TIP3    H156876   2.936   3.449  11.760 -0.9671 -1.0646 -0.1491
11795TIP3    H256877   2.796   3.488  11.719 -1.4534 -1.2496  1.2546
11796TIP3   OH256878   1.460   2.552   2.862  0.4704  0.3617  0.1930
11796TIP3    H156879   1.512   2.477   2.889 -1.0077 -0.9334 -0.4111
11796TIP3    H256880   1.433   2.593   2.945  1.6090  0.5033  0.5193
11797TIP3   OH256881   4.398   5.817   4.853 -0.6178 -0.2882  0.0961
11797TIP3    H156882   4.355   5.881   4.796 -1.2354 -0.3236  0.5137
11797TIP3    H256883   4.492   5.827   4.833 -0.7595  0.2556 -0.3420
11798TIP3   OH256884   6.802   5.741   2.978  0.7693 -0.3023  0.5264
11798TIP3    H156885   6.799   5.662   2.925  0.3499 -0.6332  1.0384
11798TIP3    H256886   6.729   5.795   2.947  2.4406  0.9706 -1.4645
11799TIP3   OH256887   2.161   0.734   9.928  0.1327  0.0401  0.3466
11799TIP3    H156888   2.226   0.717   9.860 -0.6215 -0.6240 -0.2273
11799TIP3    H256889   2.080   0.752   9.881 -0.5501 -1.0313  1.0633
11800TIP3   OH256890   2.418   3.569   0.781  0.2800  0.0766 -0.0913
11800TIP3    H156891   2.364   3.498   0.747  2.7354 -1.0505 -1.9177
11800TIP3    H256892   2.395   3.645   0.726 -1.4032  0.4418  1.0221
11801TIP3   OH256893   5.407   2.202   2.211 -0.2456 -0.7936 -0.2309
11801TIP3    H156894   5.485   2.253   2.190 -0.4091 -0.1732  0.6277
11801TIP3    H256895   5.388   2.222   2.302 -1.0518 -1.4215 -0.2445
11802TIP3   OH256896   5.440   0.441  11.911  0.3679  0.2457 -0.3407
11802TIP3    H156897   5.515   0.467  11.964 -1.1729  1.9349  1.1427
11802TIP3    H256898   5.426   0.349  11.932  2.7581 -0.5367 -1.6879
11803TIP3   OH256899   4.671   3.105   5.301  0.0030 -0.1198  0.0720
11803TIP3    H156900   4.680   3.011   5.284  2.6456 -0.2287  1.5191
11803TIP3    H256901   4.741   3.145   5.250  0.1292  0.8568  0.9990
11804TIP3   OH256902   6.455   3.749   3.432 -0.4784 -0.7665 -0.1062
11804TIP3    H156903   6.499   3.713   3.509  1.4655  2.1179  0.2641
11804TIP3    H256904   6.386   3.804   3.467 -0.9036 -1.0247 -0.5246
11805TIP3   OH256905   2.597   2.421   1.057  0.2817 -0.4733  0.5208
11805TIP3    H156906   2.613   2.480   0.983  0.0226 -0.9206  0.0996
11805TIP3    H256907   2.670   2.359   1.055 -0.4142 -1.3089 -0.1994
11806TIP3   OH256908   4.929   1.765   9.273  0.1708 -0.6552  0.1264
11806TIP3    H156909   4.929   1.858   9.251 -0.7689 -0.4329  0.9802
11806TIP3    H256910   4.985   1.724   9.207 -2.7848 -0.0964 -3.0472
11807TIP3   OH256911   4.344   3.007  10.447 -0.4133 -0.3584 -0.1491
11807TIP3    H156912   4.401   3.029  10.520 -2.5928  3.6404  0.5960
11807TIP3    H256913   4.269   2.963  10.487 -0.2985 -0.8201 -0.4251
11808TIP3   OH256914   2.195   6.130   0.045 -0.5734  0.0359  0.0495
11808TIP3    H156915   2.156   6.055   0.090 -0.6215  0.3003  0.4528
11808TIP3    H256916   2.137   6.146  -0.029 -3.0655  2.3434  2.3122
11809TIP3   OH256917   1.322   5.848  12.876 -0.1145 -0.2710  0.0300
11809TIP3    H156918   1.284   5.916  12.932  0.5503 -1.4849  2.0898
11809TIP3    H256919   1.257   5.835  12.807 -1.1918  1.0274  0.7507
11810TIP3   OH256920   4.352   2.252  14.398  0.0235 -0.4363 -0.5868
11810TIP3    H156921   4.284   2.319  14.398  1.8870  1.6087 -0.5989
11810TIP3    H256922   4.326   2.190  14.330 -1.1162  1.0640 -1.5766
11811TIP3   OH256923   3.937   1.703  11.174 -0.4276  0.2811  0.0086
11811TIP3    H156924   4.004   1.635  11.183 -1.1888 -0.3149  1.6187
11811TIP3    H256925   3.864   1.658  11.131 -0.9317  0.0478  1.0761
11812TIP3   OH256926   3.314   1.863   3.802 -0.1276 -0.2353  0.4348
11812TIP3    H156927   3.289   1.771   3.807 -1.9657  0.1031 -1.2224
11812TIP3    H256928   3.301   1.887   3.710  5.6533  0.3222 -0.6484
11813TIP3   OH256929   4.518   6.970  11.500 -0.4464  0.2462  0.2592
11813TIP3    H156930   4.588   7.035  11.498 -0.1759 -0.0564 -0.5600
11813TIP3    H256931   4.442   7.017  11.533  0.1640  0.5514  1.2770
11814TIP3   OH256932   3.875   6.960   3.986 -0.0578 -0.1048 -0.1958
11814TIP3    H156933   3.828   6.908   3.921 -0.4518 -0.8618  0.6689
11814TIP3    H256934   3.817   7.035   4.003 -0.1320 -0.1108 -0.4184
11815TIP3   OH256935   5.490   1.501   4.230  0.2152 -0.3867  0.1851
11815TIP3    H156936   5.524   1.412   4.218  0.8155 -0.2641  0.9410
11815TIP3    H256937   5.548   1.541   4.294 -0.0002  0.5882 -0.2072
11816TIP3   OH256938   1.507   3.511  13.547  0.0757 -0.0834  0.0580
11816TIP3    H156939   1.571   3.538  13.614 -1.2529  1.0572  0.9116
11816TIP3    H256940   1.525   3.568  13.472  0.9482 -0.7183 -0.2310
11817TIP3   OH256941   1.251   4.472  12.298  0.3174 -0.3235 -0.0716
11817TIP3    H156942   1.306   4.420  12.240  0.0363  0.0278 -0.6557
11817TIP3    H256943   1.265   4.563  12.271 -0.2314 -0.2002  0.0386
11818TIP3   OH256944   4.504   6.461  11.383 -0.2829  0.4469  0.7766
11818TIP3    H156945   4.498   6.556  11.389 -2.5828  0.4537 -0.4922
11818TIP3    H256946   4.432   6.429  11.438  0.7552 -0.6094  1.5781
11819TIP3   OH256947   2.139   6.653   1.900 -0.3952 -0.3199 -0.2525
11819TIP3    H156948   2.081   6.580   1.879 -2.0813 -0.1899  3.2227
11819TIP3    H256949   2.212   6.614   1.947 -1.2251  0.1454  1.4813
11820TIP3   OH256950   2.936   4.647   5.725  0.1746 -0.3286 -0.4040
11820TIP3    H156951   3.013   4.608   5.765  1.1131 -0.5093 -2.2700
11820TIP3    H256952   2.863   4.590   5.751  1.1076 -1.8045 -0.9250
11821TIP3   OH256953   0.017   6.211  12.126  0.1085 -0.2471 -0.4336
11821TIP3    H156954  -0.016   6.298  12.147 -0.7975 -0.5743 -0.4436
11821TIP3    H256955   0.042   6.174  12.211  1.6087  0.4329 -0.5395
11822TIP3   OH256956   0.569   0.855  10.693 -0.3016  0.7472 -0.6578
11822TIP3    H156957   0.634   0.813  10.636  2.3777  2.8221  0.5865
11822TIP3    H256958   0.497   0.879  10.635  1.2566  0.6966 -2.7321
11823TIP3   OH256959   1.332   4.081  14.457  0.4601  0.2203  0.1126
11823TIP3    H156960   1.243   4.114  14.468  0.4756  1.3989 -2.4294
11823TIP3    H256961   1.321   3.990  14.430  0.0127  0.3954 -0.3039
11824TIP3   OH256962   5.923   4.803   3.566 -0.2413  0.2378  0.3213
11824TIP3    H156963   5.911   4.729   3.626  0.7817 -0.5106 -0.3646
11824TIP3    H256964   5.951   4.763   3.484  0.3326  1.3888 -0.0659
11825TIP3   OH256965   3.988   3.216   4.841 -0.2723 -0.0120  0.4782
11825TIP3    H156966   3.957   3.167   4.765 -0.2448  0.0631  0.4184
11825TIP3    H256967   4.082   3.198   4.844 -0.3780 -0.5282  0.8683
11826TIP3   OH256968   2.530   6.652   2.882 -0.4489  0.3817 -0.0565
11826TIP3    H156969   2.576   6.690   2.807  0.6023  2.4718  1.5168
11826TIP3    H256970   2.598   6.606   2.931 -1.2134 -1.3419 -0.5618
11827TIP3   OH256971   2.836   5.171  12.956  0.3234 -0.2342 -0.3049
11827TIP3    H156972   2.856   5.086  12.995  0.8563  0.5671  1.2665
11827TIP3    H256973   2.791   5.219  13.026  0.6931  1.0271 -0.9095
11828TIP3   OH256974   4.209   3.892   0.576  0.6215 -0.5892  0.3566
11828TIP3    H156975   4.139   3.955   0.588  2.0241  0.9308  0.9963
11828TIP3    H256976   4.243   3.909   0.489 -0.3983 -1.9997 -0.3539
11829TIP3   OH256977   5.762   6.023   0.631 -0.0073  0.1606 -0.5201
11829TIP3    H156978   5.698   6.029   0.560 -1.1202 -1.1074  0.3228
11829TIP3    H256979   5.844   5.999   0.588 -0.7636 -1.0040 -1.3486
11830TIP3   OH256980   3.776   3.633  14.813  0.0700 -0.5060 -0.8056
11830TIP3    H156981   3.743   3.669  14.895  2.1744 -1.8241  0.7302
11830TIP3    H256982   3.731   3.550  14.803 -1.3642  0.3613 -1.8930
11831TIP3   OH256983   0.560   5.748  14.631 -0.0146  0.2591  0.1471
11831TIP3    H156984   0.490   5.747  14.566 -0.5607  0.2049  0.7333
11831TIP3    H256985   0.632   5.700  14.589 -0.5767 -0.3201 -0.1736
11832TIP3   OH256986   4.326   3.550  12.772 -0.0971  0.1590 -0.1127
11832TIP3    H156987   4.320   3.465  12.816  1.1799  1.1943  2.2348
11832TIP3    H256988   4.247   3.597  12.801 -1.6997 -0.6862 -2.7308
11833TIP3   OH256989   1.556   1.688   4.986 -0.7640  0.3471 -0.0191
11833TIP3    H156990   1.626   1.717   5.046 -0.2980  0.5334 -0.6454
11833TIP3    H256991   1.529   1.767   4.940 -1.1814  0.2194  0.0051
11834TIP3   OH256992   1.450   3.571  12.992  0.1751 -0.2421 -0.1906
11834TIP3    H156993   1.473   3.633  13.061 -0.8528  0.4434 -0.4542
11834TIP3    H256994   1.476   3.615  12.911  0.2540 -0.5382 -0.3270
11835TIP3   OH256995   4.788   3.204   5.555  0.0617 -0.6212 -0.3058
11835TIP3    H156996   4.826   3.289   5.533 -1.0124 -0.0323  0.0538
11835TIP3    H256997   4.738   3.180   5.477 -1.4585  0.1497  0.3901
11836TIP3   OH256998   1.885   6.654   3.127  0.1299 -0.2426  0.0662
11836TIP3    H156999   1.813   6.716   3.133 -1.2121 -1.7857  0.6617
11836TIP3    H257000   1.843   6.568   3.135  2.1914 -1.1543  2.0426
11837TIP3   OH257001   0.791   0.420   9.694  0.0968 -0.1756 -0.7691
11837TIP3    H157002   0.852   0.392   9.625  0.9226 -3.9656  1.2186
11837TIP3    H257003   0.847   0.454   9.763 -0.5483  1.3119 -0.9396
11838TIP3   OH257004   4.028   0.903   2.761 -0.0898  0.8575 -0.4322
11838TIP3    H157005   4.083   0.858   2.697  0.7188  1.7989 -0.4391
11838TIP3    H257006   3.947   0.853   2.764  0.6350 -0.3661 -0.6995
11839TIP3   OH257007   2.136   2.740  13.124 -0.1117  0.3889 -0.1552
11839TIP3    H157008   2.068   2.728  13.191  0.3175  1.1820  0.4421
11839TIP3    H257009   2.214   2.701  13.164  0.1606  0.9232 -0.1655
11840TIP3   OH257010   1.444   7.142  13.122  0.7504  0.0117 -0.0207
11840TIP3    H157011   1.359   7.185  13.129  0.8887  0.3278 -0.2507
11840TIP3    H257012   1.434   7.061  13.173  0.1006 -0.2852 -0.5918
11841TIP3   OH257013   0.885   0.632   1.964  0.8927  0.2198  0.2139
11841TIP3    H157014   0.816   0.669   1.909 -1.1476 -1.1086  1.7707
11841TIP3    H257015   0.957   0.696   1.957 -1.6272  3.4397  1.1382
11842TIP3   OH257016   1.771   0.239   5.677 -0.3335  0.2818 -0.2233
11842TIP3    H157017   1.836   0.297   5.638  0.8959 -0.6796  0.3021
11842TIP3    H257018   1.814   0.153   5.679 -1.9447 -0.5928 -0.6538
11843TIP3   OH257019   0.238   2.952  12.816  0.0231 -0.8492  0.0165
11843TIP3    H157020   0.210   2.935  12.906 -1.8256 -0.7286 -0.4926
11843TIP3    H257021   0.219   3.044  12.802  0.0950 -0.9197 -0.5782
11844TIP3   OH257022   5.033   1.862   1.749  0.3307  0.1076  0.0533
11844TIP3    H157023   5.051   1.954   1.730 -0.4061  0.5555  1.4339
11844TIP3    H257024   5.120   1.823   1.760  0.6856  0.4095 -1.4355
11845TIP3   OH257025   3.656   4.174   2.018 -0.2553  0.5514 -0.3455
11845TIP3    H157026   3.690   4.118   2.088 -0.4566  0.2422 -0.4907
11845TIP3    H257027   3.730   4.189   1.960 -0.3218 -0.0126 -0.5925
11846TIP3   OH257028   5.164   1.169  11.193  0.0469 -0.0317 -0.5413
11846TIP3    H157029   5.226   1.158  11.121  1.4493 -1.4292  0.7962
11846TIP3    H257030   5.123   1.083  11.204 -0.5668  0.3131 -0.0246
11847TIP3   OH257031   5.170   2.790   2.373  0.9614 -0.1348  0.1615
11847TIP3    H157032   5.180   2.804   2.468 -1.1560  0.0789  0.4084
11847TIP3    H257033   5.203   2.871   2.334  0.0382  0.6299  0.8760
11848TIP3   OH257034   2.193   1.036  10.813  0.2193 -0.1693  0.0437
11848TIP3    H157035   2.138   0.958  10.820  0.9434 -0.6446  0.6206
11848TIP3    H257036   2.197   1.070  10.903  0.5535  0.0758 -0.0647
11849TIP3   OH257037   2.204   4.937   1.457  0.3583 -0.5952  0.0812
11849TIP3    H157038   2.172   5.027   1.463  2.4651  0.3599 -1.6924
11849TIP3    H257039   2.159   4.891   1.528 -0.7937  1.8348  1.0407
11850TIP3   OH257040   1.473   4.938  11.790  0.3583 -0.0080  1.3578
11850TIP3    H157041   1.444   4.965  11.877 -2.4325 -2.5484  1.3997
11850TIP3    H257042   1.519   4.855  11.806 -0.3615 -0.5988  0.4449
11851TIP3   OH257043   3.094   1.205   0.420 -0.4575 -0.8935 -0.0359
11851TIP3    H157044   3.113   1.177   0.330 -2.7029 -3.0922  0.0823
11851TIP3    H257045   3.019   1.264   0.411 -0.3888 -0.7455  0.3496
11852TIP3   OH257046   6.224   0.897  11.652 -0.0994  0.1203 -0.1300
11852TIP3    H157047   6.204   0.898  11.746 -3.2994  0.4650 -0.6987
11852TIP3    H257048   6.224   0.804  11.629 -2.3188  0.0915 -0.2432
11853TIP3   OH257049   0.219   2.932  15.162 -0.1725  0.7575  0.4323
11853TIP3    H157050   0.255   2.939  15.074 -1.0783  0.3623  0.0196
11853TIP3    H257051   0.209   2.838  15.177  0.4234  0.7975  1.1502
11854TIP3   OH257052   5.670   2.610  14.212  0.0231 -0.5659 -0.1330
11854TIP3    H157053   5.694   2.537  14.156  0.3221 -0.0792 -0.6475
11854TIP3    H257054   5.750   2.629  14.262  0.5055  0.5127 -1.2451
11855TIP3   OH257055   1.871   5.581  14.231  0.7477 -0.0230  0.0340
11855TIP3    H157056   1.853   5.642  14.160  1.4489 -0.1006 -0.2150
11855TIP3    H257057   1.904   5.636  14.302  1.7752 -0.1411 -0.3317
11856TIP3   OH257058   4.003   5.095  13.249  0.4907  0.6581 -0.6108
11856TIP3    H157059   4.061   5.059  13.316 -0.3359  1.0707  0.3407
11856TIP3    H257060   3.915   5.072  13.277  0.1427  0.3266 -1.8746
11857TIP3   OH257061   6.707   6.807   2.565 -0.0371 -0.7155  0.1627
11857TIP3    H157062   6.685   6.835   2.477 -1.4792 -0.2573  0.6470
11857TIP3    H257063   6.772   6.871   2.595 -1.1532  0.4305  0.2069
11858TIP3   OH257064   1.061   3.462  11.968 -0.1515 -0.4257 -0.1490
11858TIP3    H157065   1.110   3.403  12.025 -1.7899  0.4897  2.3844
11858TIP3    H257066   0.988   3.492  12.022 -2.0802  0.2200 -2.9011
11859TIP3   OH257067   2.442   1.744   4.672  0.2171 -0.0788  0.4064
11859TIP3    H157068   2.456   1.709   4.760 -1.3380  1.5185  1.3574
11859TIP3    H257069   2.354   1.782   4.675  0.7561  1.4556 -1.3458
11860TIP3   OH257070   4.266   1.379  12.377  0.6361  0.0399  0.4541
11860TIP3    H157071   4.270   1.285  12.361  0.2593  0.2185 -0.8055
11860TIP3    H257072   4.351   1.412  12.346  0.5292  0.1879  0.3168
11861TIP3   OH257073   3.866   6.675  12.806  0.9630 -0.3015 -0.3914
11861TIP3    H157074   3.890   6.584  12.820 -0.9419 -0.3721  4.5162
11861TIP3    H257075   3.782   6.672  12.760  0.1196 -1.2453  1.1174
11862TIP3   OH257076   1.670   6.309   9.399  0.2399 -0.1657 -0.5626
11862TIP3    H157077   1.757   6.343   9.378  0.5595 -0.4557  0.2461
11862TIP3    H257078   1.616   6.388   9.409 -0.1248 -0.0223 -3.1322
11863TIP3   OH257079   6.456   6.621   2.108 -0.5184 -0.6522  0.2049
11863TIP3    H157080   6.533   6.673   2.086 -0.1253 -1.4633 -0.3721
11863TIP3    H257081   6.462   6.609   2.203 -0.6644  0.4046  0.3656
11864TIP3   OH257082   6.718   6.591   2.723 -0.2265 -0.0606 -0.1769
11864TIP3    H157083   6.808   6.572   2.698 -0.7140 -1.1131 -1.2387
11864TIP3    H257084   6.684   6.644   2.651 -0.3536  0.6856  0.4139
11865TIP3   OH257085   0.698   5.720   0.529  0.1540  0.4080 -0.3289
11865TIP3    H157086   0.669   5.716   0.620 -0.0150  3.2041 -0.1538
11865TIP3    H257087   0.661   5.642   0.487  0.2709 -0.9471  1.9701
11866TIP3   OH257088   2.671   5.528   3.302 -0.2130  0.4452  0.1899
11866TIP3    H157089   2.603   5.521   3.235 -0.6670  0.6298  0.6198
11866TIP3    H257090   2.694   5.438   3.324  2.7005  0.2504 -2.9005
11867TIP3   OH257091   6.614   4.213  13.156 -0.5459 -0.0701 -0.0904
11867TIP3    H157092   6.686   4.276  13.151  0.3747 -1.0751 -0.1185
11867TIP3    H257093   6.572   4.216  13.070  0.5757 -0.6989 -0.6860
11868TIP3   OH257094   4.237   0.401   3.402  0.0443  0.4010  0.4160
11868TIP3    H157095   4.325   0.437   3.399  0.8621 -1.4654  0.3421
11868TIP3    H257096   4.211   0.407   3.494  0.1822  1.0795  0.4148
11869TIP3   OH257097   7.256   0.838  13.920  0.5196  0.2193  0.2167
11869TIP3    H157098   7.264   0.832  13.825  0.3390  2.6628 -0.0056
11869TIP3    H257099   7.330   0.892  13.947  1.1559 -1.2778  1.6335
11870TIP3   OH257100   2.127   4.080  14.466 -0.3091  0.0807 -0.2274
11870TIP3    H157101   2.208   4.030  14.465  0.0973  0.6127  1.8896
11870TIP3    H257102   2.059   4.015  14.488 -0.2604 -0.1170 -0.6545
11871TIP3   OH257103   0.032   0.295  13.042  0.1120  0.0095  0.5428
11871TIP3    H157104   0.058   0.387  13.046  0.0646  0.0363  0.2015
11871TIP3    H257105  -0.064   0.298  13.037  0.1302 -0.0510  0.1801
11872TIP3   OH257106   0.019   3.853  13.994  0.7030  0.3141  0.4052
11872TIP3    H157107   0.072   3.802  14.055  1.1442 -0.1769 -0.3868
11872TIP3    H257108   0.082   3.892  13.933  0.3269  1.3560  0.6526
11873TIP3   OH257109   2.489   4.223   4.291 -0.4716 -0.4495 -0.1627
11873TIP3    H157110   2.406   4.265   4.266 -0.1339 -0.0175 -0.5804
11873TIP3    H257111   2.463   4.148   4.344 -1.2970 -2.0284 -2.6146
11874TIP3   OH257112   1.750   1.352  14.073 -0.3662 -0.3356 -0.1771
11874TIP3    H157113   1.786   1.374  14.159 -1.5928  0.3474  0.1926
11874TIP3    H257114   1.706   1.432  14.045 -0.0812 -0.5892 -1.3986
11875TIP3   OH257115   3.980   1.215  12.365 -0.6423  0.5481  0.2812
11875TIP3    H157116   4.059   1.175  12.329 -1.4312 -2.5466  1.6071
11875TIP3    H257117   3.917   1.215  12.293 -0.6521 -0.8486  0.2655
11876TIP3   OH257118   2.408   2.966  13.513 -1.0916  0.4946  0.3255
11876TIP3    H157119   2.478   3.005  13.566 -1.4132  0.0500  1.1008
11876TIP3    H257120   2.395   2.879  13.550 -1.2481  0.1226 -0.5758
11877TIP3   OH257121   6.483   5.765   4.227 -0.3332  0.1780 -0.4305
11877TIP3    H157122   6.544   5.806   4.166 -0.2573 -1.3015 -1.3875
11877TIP3    H257123   6.442   5.839   4.273  0.0720  1.2999 -1.8015
11878TIP3   OH257124   5.981   4.776   0.985  0.0361  0.2545 -0.1599
11878TIP3    H157125   5.979   4.826   0.904 -0.0470  1.9480  0.8519
11878TIP3    H257126   5.936   4.694   0.963 -0.6584  0.9812 -1.6081
11879TIP3   OH257127   4.070   1.152  14.711 -0.2438  0.0653  0.0768
11879TIP3    H157128   4.087   1.112  14.625 -2.2646 -0.7475  0.0108
11879TIP3    H257129   4.103   1.088  14.774 -0.4144 -0.1735 -0.0732
11880TIP3   OH257130   6.828   6.550   5.280 -0.3252 -0.0875 -0.3421
11880TIP3    H157131   6.759   6.575   5.219 -0.1338 -0.1301 -0.5782
11880TIP3    H257132   6.836   6.455   5.269 -0.1668 -0.0699 -0.3848
11881TIP3   OH257133   6.106   3.982  11.709  0.2486 -0.0383 -1.1044
11881TIP3    H157134   6.029   3.935  11.741  1.1702 -0.3188  0.8745
11881TIP3    H257135   6.072   4.042  11.643 -1.4137 -1.2733 -1.4275
11882TIP3   OH257136   3.297   3.592  10.844 -0.3433 -0.9245  0.1257
11882TIP3    H157137   3.264   3.653  10.777 -0.1893  0.3776  1.2009
11882TIP3    H257138   3.355   3.644  10.898  1.0211 -2.4261  0.1852
11883TIP3   OH257139   0.736   2.842   2.145 -0.6226  0.0760 -0.3613
11883TIP3    H157140   0.643   2.856   2.127 -0.6706 -0.4185 -0.5118
11883TIP3    H257141   0.755   2.900   2.218 -0.8254  0.8711 -0.9244
11884TIP3   OH257142   5.750   4.048   1.089 -0.0484 -0.3404 -0.6475
11884TIP3    H157143   5.683   4.030   1.156  1.7407 -1.8910  0.8675
11884TIP3    H257144   5.781   4.136   1.109  0.2510 -0.6711  0.4118
11885TIP3   OH257145   5.671   0.488  14.003 -0.1967  0.3312 -0.3745
11885TIP3    H157146   5.743   0.549  13.987  1.1414 -1.1907 -0.4393
11885TIP3    H257147   5.658   0.490  14.098  2.1989 -1.7163  0.0978
11886TIP3   OH257148   7.120   6.953  14.187 -0.0135 -0.7292 -0.0906
11886TIP3    H157149   7.117   6.860  14.166 -0.1144 -0.7264 -0.0888
11886TIP3    H257150   7.209   6.968  14.218  0.9322 -0.2406 -2.7796
11887TIP3   OH257151   3.969   3.799  11.939  0.4136  0.6282 -0.2900
11887TIP3    H157152   3.996   3.728  11.997 -3.6634 -0.5066  0.5549
11887TIP3    H257153   3.962   3.759  11.852  1.2718  0.9059 -0.4970
11888TIP3   OH257154   3.401   5.401   9.963 -0.1298 -0.1226 -0.7321
11888TIP3    H157155   3.408   5.496   9.948  0.4367 -0.0787 -0.2555
11888TIP3    H257156   3.400   5.363   9.876 -0.2888  0.3217 -0.9279
11889TIP3   OH257157   5.388   5.323   4.212  0.1493  0.3550  0.2189
11889TIP3    H157158   5.369   5.416   4.197 -1.6947  0.4857  2.6099
11889TIP3    H257159   5.319   5.276   4.165 -1.0767  0.4339  1.8322
11890TIP3   OH257160   2.214   4.468   9.975  0.2326  0.4505 -0.1223
11890TIP3    H157161   2.280   4.404   9.948  1.0519  0.4722  1.6453
11890TIP3    H257162   2.152   4.471   9.903  1.4134 -0.6319 -1.2334
11891TIP3   OH257163   4.523   3.416  12.359 -0.4027  0.2655 -0.0750
11891TIP3    H157164   4.571   3.498  12.366  0.2822  0.1927 -2.7473
11891TIP3    H257165   4.580   3.351  12.398  0.1512  0.7022 -0.1515
11892TIP3   OH257166   7.041   5.316  10.844  0.4662  0.1009  0.0799
11892TIP3    H157167   7.054   5.292  10.752  1.6812 -0.4215  0.3617
11892TIP3    H257168   7.075   5.241  10.893  0.9775  0.8857  0.9564
11893TIP3   OH257169   4.296   1.043   0.275  0.0103 -0.0016 -0.3817
11893TIP3    H157170   4.302   1.012   0.365 -1.5656  1.5192  0.3035
11893TIP3    H257171   4.345   0.978   0.224  2.9090  0.2766  1.7909
11894TIP3   OH257172   6.617   4.460  11.398 -0.1148 -0.3334  0.1910
11894TIP3    H157173   6.688   4.512  11.362 -0.8396 -0.7314 -1.9913
11894TIP3    H257174   6.646   4.436  11.486  1.7955  0.6812 -0.1136
11895TIP3   OH257175   5.434   5.751  13.485 -0.3935 -0.6366 -0.4095
11895TIP3    H157176   5.429   5.666  13.441 -0.7526  0.5421 -2.8014
11895TIP3    H257177   5.416   5.815  13.416 -1.3027  1.3527  1.5508
11896TIP3   OH257178   5.777   4.461   2.969 -0.3824 -0.2317 -0.4705
11896TIP3    H157179   5.688   4.442   2.939  0.3125 -1.3350 -1.9446
11896TIP3    H257180   5.775   4.554   2.991 -2.0260 -0.3545  0.0351
11897TIP3   OH257181   3.911   1.142   0.077 -0.1241  1.1726 -0.6824
11897TIP3    H157182   3.953   1.067   0.036 -1.7449  0.3111 -0.8532
11897TIP3    H257183   3.923   1.213   0.015  0.5905  0.8172 -0.9669
11898TIP3   OH257184   6.663   4.412  12.338  0.0730  0.6637 -1.0663
11898TIP3    H157185   6.588   4.352  12.340  0.0287  0.6739  1.5961
11898TIP3    H257186   6.629   4.494  12.373  1.0305  1.0807 -1.0832
11899TIP3   OH257187   3.871   2.053   2.455  0.0623 -0.6519 -0.1902
11899TIP3    H157188   3.803   2.110   2.490  1.0899  0.3527  0.2301
11899TIP3    H257189   3.876   1.980   2.517  0.2060 -0.1046  0.4509
11900TIP3   OH257190   1.260   1.893   1.208 -0.0064  0.2362 -0.1557
11900TIP3    H157191   1.230   1.941   1.131 -1.4573 -0.3546  0.0027
11900TIP3    H257192   1.181   1.878   1.259  0.9022  0.4762  1.3940
11901TIP3   OH257193   2.111   0.101   2.762  0.3286  0.1166 -0.7286
11901TIP3    H157194   2.087   0.191   2.783 -0.0532  0.0496 -0.8704
11901TIP3    H257195   2.204   0.106   2.740  0.5259  0.3217  0.1446
11902TIP3   OH257196   2.926   5.067   0.714  0.2277  0.2128  0.3402
11902TIP3    H157197   2.850   5.061   0.657  0.9078 -0.6431 -0.5152
11902TIP3    H257198   2.900   5.023   0.795 -0.8981  1.8224  0.9038
11903TIP3   OH257199   0.237   4.467   3.353 -0.2275  0.0697  0.1130
11903TIP3    H157200   0.175   4.519   3.301  0.4129 -1.2973 -2.1489
11903TIP3    H257201   0.184   4.432   3.425 -1.9968 -0.5607 -1.4077
11904TIP3   OH257202   6.542   2.752  11.109  0.0366  0.3406  0.3021
11904TIP3    H157203   6.571   2.746  11.200 -4.4399 -0.4251  1.9570
11904TIP3    H257204   6.528   2.661  11.082 -0.5217  0.6238 -0.4090
11905TIP3   OH257205   0.515   6.708   1.273 -0.3534  0.0726 -0.4655
11905TIP3    H157206   0.604   6.675   1.276 -0.1853  0.4443 -1.2407
11905TIP3    H257207   0.476   6.681   1.356  0.6380  0.3669  0.1022
11906TIP3   OH257208   4.552   4.420  12.350 -0.1758 -0.1805 -0.0601
11906TIP3    H157209   4.614   4.490  12.327 -0.3945 -0.0981 -0.4035
11906TIP3    H257210   4.472   4.443  12.303  0.0176 -1.1206 -0.8969
11907TIP3   OH257211   2.132   3.503   1.292 -0.5253  0.2736 -0.2921
11907TIP3    H157212   2.217   3.473   1.259  0.4858  0.6342  1.8099
11907TIP3    H257213   2.079   3.424   1.299  1.3625 -0.8466  3.0801
11908TIP3   OH257214   0.487   6.929  10.123  0.6345 -0.0253  0.5460
11908TIP3    H157215   0.456   7.019  10.133 -2.0827 -0.6483 -1.2051
11908TIP3    H257216   0.529   6.909  10.207 -1.5547  1.8377  2.2053
11909TIP3   OH257217   6.884   4.522   4.707 -0.4085  0.1469  0.0599
11909TIP3    H157218   6.802   4.511   4.658 -0.6282 -0.3721  0.5317
11909TIP3    H257219   6.864   4.590   4.771 -0.0869  0.9078 -0.6241
11910TIP3   OH257220   0.898   6.493   1.556 -0.5543  0.0176 -0.1380
11910TIP3    H157221   0.830   6.557   1.538 -2.4851 -1.9536 -0.3797
11910TIP3    H257222   0.892   6.478   1.651 -1.3235 -0.9982 -0.3262
11911TIP3   OH257223   3.703   6.682   0.558  0.6196  0.7912  0.5733
11911TIP3    H157224   3.747   6.633   0.627 -0.7294 -1.7558 -0.2270
11911TIP3    H257225   3.738   6.646   0.477 -1.1789  0.2959 -0.0469
11912TIP3   OH257226   5.379   0.307  14.559 -0.0195  0.0230 -0.2964
11912TIP3    H157227   5.399   0.214  14.563 -0.2612 -0.1158 -1.6005
11912TIP3    H257228   5.307   0.319  14.621 -0.4738 -0.8095 -0.6430
11913TIP3   OH257229   1.625   3.471  15.327  0.1623  0.1765  0.6601
11913TIP3    H157230   1.593   3.513  15.247  1.7728  2.7538  1.2463
11913TIP3    H257231   1.655   3.385  15.299  1.1325  1.1908 -1.6576
11914TIP3   OH257232   6.010   5.567   3.175  0.2104 -0.1304  0.2344
11914TIP3    H157233   6.029   5.573   3.081 -0.9585  1.9802  0.0754
11914TIP3    H257234   6.071   5.500   3.207  0.7117 -0.8409 -1.9859
11915TIP3   OH257235   2.231   1.421  11.578 -0.6511  0.5381 -0.1032
11915TIP3    H157236   2.262   1.466  11.657  0.8715  0.3801 -0.5814
11915TIP3    H257237   2.310   1.388  11.536 -1.5202 -0.2758 -1.1738
11916TIP3   OH257238   4.089   1.131   1.850  0.5415 -0.0567 -0.1658
11916TIP3    H157239   4.132   1.098   1.929 -0.4309 -1.1799 -0.0833
11916TIP3    H257240   3.997   1.139   1.874  0.3338  0.2013 -1.0109
11917TIP3   OH257241   2.111   4.956   0.693 -0.3516  0.0937 -0.1998
11917TIP3    H157242   2.043   4.938   0.628 -1.5631  1.2487  0.6622
11917TIP3    H257243   2.118   5.051   0.694 -0.0553  0.0738  1.0368
11918TIP3   OH257244   4.158   1.187  10.535  0.1343  0.4274 -0.4760
11918TIP3    H157245   4.138   1.119  10.471  0.9095 -0.2070 -0.0649
11918TIP3    H257246   4.082   1.245  10.533 -0.0017  0.2365 -1.7211
11919TIP3   OH257247   2.257   6.552   0.113 -0.3634  0.1114  0.0105
11919TIP3    H157248   2.331   6.506   0.071 -1.4002  0.3595 -2.2639
11919TIP3    H257249   2.191   6.558   0.044 -3.3140 -1.6965  2.4397
11920TIP3   OH257250   4.470   5.356  11.848 -0.1308  0.0781 -0.2146
11920TIP3    H157251   4.405   5.306  11.898  0.3978  0.1921  0.6053
11920TIP3    H257252   4.439   5.353  11.758 -2.3213  1.7105  0.3909
11921TIP3   OH257253   4.984   3.421   3.115  0.0921 -0.6388  0.3658
11921TIP3    H157254   5.053   3.363   3.146  0.6582  0.0906  0.4806
11921TIP3    H257255   4.907   3.364   3.107  0.7391 -1.4984  0.0616
11922TIP3   OH257256   2.720   3.015  14.864 -0.1873  0.0589 -0.5346
11922TIP3    H157257   2.703   3.014  14.958  0.2048 -1.6402 -0.4468
11922TIP3    H257258   2.815   3.023  14.857  0.0379 -2.0976 -0.6774
11923TIP3   OH257259   1.861   3.214  10.414 -0.4553  0.4185  0.7473
11923TIP3    H157260   1.821   3.173  10.491  0.6937 -0.3942  0.9363
11923TIP3    H257261   1.950   3.179  10.412 -0.1421  1.2317 -0.3664
11924TIP3   OH257262   4.520   4.146  12.260 -0.2460 -0.0804 -0.1350
11924TIP3    H157263   4.474   4.107  12.335 -0.1259  0.5387  0.2709
11924TIP3    H257264   4.558   4.226  12.295  1.2065 -0.6103 -0.4576
11925TIP3   OH257265   1.715   3.593   1.963 -0.5895 -0.8000 -0.6757
11925TIP3    H157266   1.646   3.623   1.903 -0.9781 -0.0398  0.1313
11925TIP3    H257267   1.671   3.528   2.018 -1.2297  1.0176  1.0810
11926TIP3   OH257268   5.667   0.436   3.421 -0.1845  0.1045  0.4157
11926TIP3    H157269   5.702   0.489   3.350  2.1157 -0.7273  0.8455
11926TIP3    H257270   5.649   0.498   3.492  1.6983  0.4548  0.6298
11927TIP3   OH257271   3.338   1.356  14.427 -0.3655 -0.6550  0.1418
11927TIP3    H157272   3.385   1.272  14.431  0.2881 -0.2471  2.2077
11927TIP3    H257273   3.396   1.418  14.472 -0.9260  0.9028 -1.1700
11928TIP3   OH257274   3.530   1.621  15.078 -0.3426  0.1580 -0.1468
11928TIP3    H157275   3.611   1.623  15.130  0.1928 -2.4361 -0.7405
11928TIP3    H257276   3.504   1.713  15.071  0.8062  0.8296  2.7356
11929TIP3   OH257277   6.670   1.334   0.847  0.7681  0.0179  0.2402
11929TIP3    H157278   6.677   1.384   0.766 -2.2896  1.0712  0.4767
11929TIP3    H257279   6.679   1.243   0.821 -0.3553  0.3207 -1.3681
11930TIP3   OH257280   3.603   2.936   0.946 -0.3582  0.0500 -0.2517
11930TIP3    H157281   3.604   3.001   0.875 -0.6210  0.3268 -0.0041
11930TIP3    H257282   3.695   2.929   0.973 -0.3374  0.3570 -0.2424
11931TIP3   OH257283   0.850   4.531  10.870 -0.2291 -0.0258 -0.0517
11931TIP3    H157284   0.766   4.494  10.896 -0.3311 -0.3126 -0.7917
11931TIP3    H257285   0.879   4.479  10.796 -0.2169  1.1392 -0.9019
11932TIP3   OH257286   3.044   1.570   0.410  0.2578 -0.5802 -0.2629
11932TIP3    H157287   2.986   1.591   0.337  1.4785 -0.0574 -1.1147
11932TIP3    H257288   2.985   1.549   0.482 -0.9932  0.5259 -0.9195
11933TIP3   OH257289   4.330   3.245  14.243 -0.4363 -0.6629  0.5534
11933TIP3    H157290   4.304   3.297  14.166  1.4109  0.8345  0.8587
11933TIP3    H257291   4.402   3.191  14.212  0.2493 -0.1288  1.1895
11934TIP3   OH257292   1.999   0.346  14.666  0.0868  0.6134 -0.0405
11934TIP3    H157293   1.991   0.426  14.718 -0.3357 -0.8711  2.3573
11934TIP3    H257294   2.031   0.280  14.728 -1.2776 -1.4975 -1.4348
11935TIP3   OH257295   0.756   1.535   3.107 -0.1036  0.1858 -0.7482
11935TIP3    H157296   0.839   1.575   3.079  0.3144 -0.6031 -0.6575
11935TIP3    H257297   0.730   1.586   3.184  1.1450 -0.5948  0.2129
11936TIP3   OH257298   1.007   4.531   3.298 -0.3215  0.0598  0.2359
11936TIP3    H157299   1.031   4.496   3.384 -3.4044  0.0038  1.2035
11936TIP3    H257300   0.928   4.582   3.315 -1.6579 -0.8295 -2.7102
11937TIP3   OH257301   2.523   2.115   4.453  0.4903 -0.1474  0.1934
11937TIP3    H157302   2.438   2.071   4.451  2.2603 -3.9826 -0.4825
11937TIP3    H257303   2.546   2.119   4.545 -0.6867  1.7007  0.4562
11938TIP3   OH257304   0.503   7.023   0.977  0.6681  0.4827 -0.1263
11938TIP3    H157305   0.520   6.932   1.001  0.6884  0.2884 -0.8774
11938TIP3    H257306   0.408   7.032   0.986  0.6644  0.3857 -0.0606
11939TIP3   OH257307   6.663   3.228   1.932  0.3943 -0.6908 -0.3514
11939TIP3    H157308   6.678   3.163   1.863 -0.2378 -1.7173  0.4525
11939TIP3    H257309   6.605   3.292   1.892  2.0884  0.1585 -1.5973
11940TIP3   OH257310   2.320   3.249   1.007  0.3965 -0.2637  0.1858
11940TIP3    H157311   2.243   3.305   1.018 -0.0928 -1.0709  0.9851
11940TIP3    H257312   2.301   3.197   0.929  2.3981  3.0818 -2.8417
11941TIP3   OH257313   3.377   0.085  15.316  0.3697  0.0046  0.3073
11941TIP3    H157314   3.311   0.100  15.383  0.2393 -0.1197  0.2067
11941TIP3    H257315   3.333   0.031  15.250  0.1372  1.1199 -0.4625
11942TIP3   OH257316   0.643   3.568  15.336  0.6214  0.1633  0.0513
11942TIP3    H157317   0.738   3.579  15.343  0.8007 -0.7528 -0.6472
11942TIP3    H257318   0.632   3.473  15.323 -0.3181  0.3843 -0.8222
11943TIP3   OH257319   4.420   0.600   3.359  0.7306  0.3896 -0.1326
11943TIP3    H157320   4.512   0.626   3.371  1.0827 -1.2252  1.2475
11943TIP3    H257321   4.381   0.613   3.446 -0.5986  1.8690 -0.9244
11944TIP3   OH257322   2.227   2.145   5.893 -1.0302  1.1418  0.0140
11944TIP3    H157323   2.297   2.199   5.930  0.9390 -1.2445  0.0263
11944TIP3    H257324   2.199   2.193   5.815  2.2088  1.2142 -1.2851
11945TIP3   OH257325   0.647   1.444   0.080 -0.0883 -0.1805  0.0081
11945TIP3    H157326   0.566   1.395   0.067  1.3009 -2.4524 -0.6055
11945TIP3    H257327   0.713   1.395   0.031  2.0153  0.6388  1.8426
11946TIP3   OH257328   1.653   3.410  13.841  0.1525  0.4915  0.2109
11946TIP3    H157329   1.709   3.389  13.766  0.1360 -0.6968  0.5154
11946TIP3    H257330   1.566   3.381  13.816  0.0280  0.6511  0.4508
11947TIP3   OH257331   1.883   2.585   1.033  0.0005  1.0414 -0.2110
11947TIP3    H157332   1.864   2.679   1.034 -2.2191  0.6534 -0.5727
11947TIP3    H257333   1.918   2.566   1.120 -0.4995  2.0469  0.2223
11948TIP3   OH257334   5.250   3.390  13.326  0.1575 -0.2783  0.6686
11948TIP3    H157335   5.331   3.421  13.367 -0.0570  0.1034  0.8087
11948TIP3    H257336   5.197   3.468  13.314 -0.2510 -0.5429  0.7059
11949TIP3   OH257337   6.548   2.574  13.227  0.8865 -0.0231  0.0684
11949TIP3    H157338   6.593   2.582  13.143  0.6469 -0.7966 -0.1406
11949TIP3    H257339   6.552   2.662  13.265  1.0616  0.3132 -0.7159
11950TIP3   OH257340   5.467   2.476   3.921 -0.1780 -0.0757 -0.1742
11950TIP3    H157341   5.550   2.479   3.969 -1.4596 -0.6472  2.2120
11950TIP3    H257342   5.451   2.383   3.907 -1.0076 -0.0382  0.4866
11951TIP3   OH257343   0.581   5.937   1.178 -0.1544 -0.2070 -0.4971
11951TIP3    H157344   0.509   5.944   1.115 -0.4690  2.8332  0.0502
11951TIP3    H257345   0.659   5.956   1.127 -0.1434 -0.0981 -0.4404
11952TIP3   OH257346   3.313   1.617  11.128 -0.4784  0.5887 -0.6901
11952TIP3    H157347   3.332   1.672  11.052  1.4417  2.5659  1.0854
11952TIP3    H257348   3.388   1.629  11.186 -2.5222  0.3865  2.2138
11953TIP3   OH257349   0.239   0.229  12.772  0.3242  0.6112  0.1148
11953TIP3    H157350   0.312   0.258  12.718 -0.0727  0.0736 -0.7376
11953TIP3    H257351   0.270   0.237  12.862  0.8765  1.8621 -0.1682
11954TIP3   OH257352   3.066   3.407   1.447 -0.1262  0.0029  0.0452
11954TIP3    H157353   3.056   3.339   1.380 -0.7849 -1.4294  1.5361
11954TIP3    H257354   3.159   3.430   1.444  0.0345 -0.6913 -0.7314
11955TIP3   OH257355   1.505   1.445  10.838 -0.4460 -1.0791  0.2156
11955TIP3    H157356   1.431   1.396  10.873 -0.1267 -1.2696  0.6454
11955TIP3    H257357   1.578   1.382  10.840 -0.4812 -1.1699 -1.0514
11956TIP3   OH257358   6.370   1.014   5.778 -0.5449  0.0900  0.2865
11956TIP3    H157359   6.381   0.920   5.787 -1.0920 -0.0133 -0.0366
11956TIP3    H257360   6.289   1.024   5.726 -0.8545  0.7435  0.8754
11957TIP3   OH257361   4.052   6.607  14.992 -0.0291  0.0801 -0.0007
11957TIP3    H157362   4.146   6.617  15.009 -0.2256  0.7204  0.7348
11957TIP3    H257363   4.033   6.675  14.927  0.2904 -0.9904 -1.2690
11958TIP3   OH257364   6.498   7.003   3.486 -1.0026  0.2277  0.2286
11958TIP3    H157365   6.551   7.065   3.536 -0.2662 -0.5229  0.4137
11958TIP3    H257366   6.408   7.032   3.499 -0.7831  0.3928  1.5443
11959TIP3   OH257367   5.442   5.362  12.848 -0.4485  0.3731  0.4631
11959TIP3    H157368   5.403   5.345  12.762  0.4406 -1.0445  0.2942
11959TIP3    H257369   5.413   5.450  12.871 -1.0665  0.6114 -1.0910
11960TIP3   OH257370   4.538   7.224   5.091 -0.6707  0.2296  0.2623
11960TIP3    H157371   4.510   7.134   5.074  0.2626  0.0412 -0.3254
11960TIP3    H257372   4.467   7.262   5.143  0.4440 -1.9330  3.7042
11961TIP3   OH257373   5.096   5.067   0.548  0.0031 -1.4499 -0.5037
11961TIP3    H157374   5.064   5.120   0.620 -0.6210  0.9536 -2.4199
11961TIP3    H257375   5.191   5.075   0.552 -0.0509 -0.9183 -0.2287
11962TIP3   OH257376   3.661   0.116  14.740 -0.0369 -0.2784  0.5432
11962TIP3    H157377   3.626   0.029  14.756 -0.2015  0.0498  2.1675
11962TIP3    H257378   3.663   0.124  14.645  1.8840 -2.8181  0.2613
11963TIP3   OH257379   1.710   2.636  12.389 -0.3816 -0.5809  0.7649
11963TIP3    H157380   1.786   2.642  12.332 -0.2642 -2.2610  0.6901
11963TIP3    H257381   1.635   2.646  12.331 -0.2375 -0.5558  0.5835
11964TIP3   OH257382   2.256   4.140   5.181 -0.0582 -0.3420 -0.7445
11964TIP3    H157383   2.351   4.136   5.193 -0.0045  1.5795 -0.1237
11964TIP3    H257384   2.221   4.070   5.237  0.9335 -0.1192  0.1801
11965TIP3   OH257385   6.908   2.495   2.398 -0.2772  0.3305 -0.2219
11965TIP3    H157386   6.885   2.584   2.372  0.6522  0.2610 -1.3411
11965TIP3    H257387   6.941   2.504   2.488  0.2267  1.1848 -0.4833
11966TIP3   OH257388   3.838   2.504  11.273 -0.0332  0.0200 -0.5459
11966TIP3    H157389   3.761   2.542  11.230 -0.0303  0.2804 -0.3248
11966TIP3    H257390   3.822   2.517  11.367 -1.0919 -2.5361 -0.3005
11967TIP3   OH257391   4.712   5.403   4.450  0.0352 -0.4490  0.7433
11967TIP3    H157392   4.636   5.381   4.395 -0.1485 -1.4806  1.3817
11967TIP3    H257393   4.695   5.492   4.479 -0.1037 -0.0542 -0.4805
11968TIP3   OH257394   5.247   4.650  11.981 -0.0488  0.5554  0.7057
11968TIP3    H157395   5.160   4.627  11.947  0.0685 -0.4562  1.0572
11968TIP3    H257396   5.266   4.582  12.046 -0.2886  2.4107  2.8552
11969TIP3   OH257397   3.755   2.309   9.712 -0.3803  0.4072 -0.8007
11969TIP3    H157398   3.816   2.300   9.786  0.0593  1.4106 -1.0265
11969TIP3    H257399   3.749   2.221   9.675  0.7896  0.2566 -0.6625
11970TIP3   OH257400   2.215   1.486   1.920 -0.5310  0.4530 -0.1171
11970TIP3    H157401   2.248   1.398   1.903  0.0827  0.8262 -0.9449
11970TIP3    H257402   2.211   1.493   2.015 -2.0873 -1.0055 -0.0241
11971TIP3   OH257403   0.501   7.111   4.569  0.2412  1.0505 -0.1141
11971TIP3    H157404   0.485   7.156   4.486  0.2074 -1.7150 -1.7251
11971TIP3    H257405   0.574   7.053   4.551 -0.5597 -0.5101  1.3917
11972TIP3   OH257406   1.444   3.298   3.153  0.2395 -0.2293  0.0768
11972TIP3    H157407   1.503   3.364   3.117  1.5353 -0.5905  1.4529
11972TIP3    H257408   1.438   3.231   3.086 -0.1552  0.7084 -0.8577
11973TIP3   OH257409   2.652   4.332   4.642 -0.7515  0.0753  0.0619
11973TIP3    H157410   2.660   4.368   4.554  0.2775 -0.2178  0.0182
11973TIP3    H257411   2.580   4.381   4.682 -0.8029  0.6554 -0.7233
11974TIP3   OH257412   5.639   0.681   0.755 -0.1184 -0.0949 -0.6623
11974TIP3    H157413   5.586   0.654   0.830 -0.0998  0.9720 -0.2494
11974TIP3    H257414   5.575   0.716   0.693  0.1098  1.5893  0.0098
11975TIP3   OH257415   4.594   4.757   0.684  0.3476  0.0560  0.2154
11975TIP3    H157416   4.681   4.784   0.712 -1.1486  4.1067  1.8447
11975TIP3    H257417   4.554   4.721   0.763 -0.0644  0.1227  0.0389
11976TIP3   OH257418   1.316   0.730   2.567  0.0274 -0.1547  0.2652
11976TIP3    H157419   1.327   0.691   2.654  1.9908  0.6128  0.4254
11976TIP3    H257420   1.380   0.801   2.565 -0.7593  0.5541 -1.4240
11977TIP3   OH257421   2.614   1.089   0.580  0.2468  0.5048 -0.0764
11977TIP3    H157422   2.586   1.077   0.489  1.3768  0.4850 -0.4329
11977TIP3    H257423   2.690   1.032   0.590  0.8000  1.3352  0.5598
11978TIP3   OH257424   0.655   1.789   5.121  0.2353  0.2774  0.7601
11978TIP3    H157425   0.666   1.816   5.212  1.7469  3.1547 -0.1399
11978TIP3    H257426   0.740   1.807   5.080 -0.5139 -0.5606 -1.2974
11979TIP3   OH257427   1.430   2.701   0.451  0.0931 -0.2967 -0.3575
11979TIP3    H157428   1.470   2.750   0.523 -0.1720 -1.7291  0.8110
11979TIP3    H257429   1.425   2.611   0.483  0.0457 -1.0058 -2.2165
11980TIP3   OH257430   0.834   2.382   5.654 -0.2191 -0.4519 -0.0498
11980TIP3    H157431   0.829   2.306   5.712  1.2331 -0.8287 -0.3862
11980TIP3    H257432   0.891   2.443   5.700 -2.0498  0.8493  0.6197
11981TIP3   OH257433   5.273   4.015   1.770 -0.3738 -0.1495 -0.5465
11981TIP3    H157434   5.219   4.033   1.693  2.5580 -1.7651 -3.2300
11981TIP3    H257435   5.222   3.951   1.820 -1.8005 -0.1309 -1.9033
11982TIP3   OH257436   4.698   4.721  14.493 -0.2148 -0.5779 -0.1706
11982TIP3    H157437   4.610   4.729  14.456 -0.4922 -1.0950  0.3777
11982TIP3    H257438   4.685   4.694  14.583  0.5219 -1.1280 -0.2179
11983TIP3   OH257439   4.990   5.894   2.661 -0.1688  0.2044 -0.3984
11983TIP3    H157440   4.986   5.799   2.647  1.0814 -0.0551  0.8215
11983TIP3    H257441   5.082   5.911   2.679 -0.0586  1.9173 -2.2278
11984TIP3   OH257442   5.567   2.628  13.209 -0.1569  0.1303 -0.4663
11984TIP3    H157443   5.550   2.601  13.299 -0.0338  0.0960 -0.4535
11984TIP3    H257444   5.492   2.596  13.160  0.7622 -1.6763 -0.7453
11985TIP3   OH257445   3.878   0.810   3.417  0.1328 -0.1645  0.4616
11985TIP3    H157446   3.955   0.867   3.424  0.3740 -0.4503  0.1356
11985TIP3    H257447   3.805   0.867   3.442  0.5251 -0.0966  1.5334
11986TIP3   OH257448   0.646   1.906   9.854  0.6527  0.1921  0.0645
11986TIP3    H157449   0.701   1.908   9.932  0.3980 -0.0571  0.2528
11986TIP3    H257450   0.708   1.905   9.781  0.8973 -0.0046  0.2728
11987TIP3   OH257451   3.553   6.683  13.351 -0.0681 -0.6363 -0.0966
11987TIP3    H157452   3.636   6.670  13.304  0.7675 -0.6798  1.3479
11987TIP3    H257453   3.554   6.776  13.374 -1.4142 -0.1347 -1.8311
11988TIP3   OH257454   4.470   1.096   4.989  0.1371  0.0923 -0.0696
11988TIP3    H157455   4.421   1.027   5.034 -0.2622  2.9044  4.3544
11988TIP3    H257456   4.560   1.065   4.989 -0.1611 -0.8392  0.9919
11989TIP3   OH257457   3.237   1.032   1.316 -0.0268 -0.3214 -0.2844
11989TIP3    H157458   3.276   1.070   1.237 -0.2723  1.2335  0.2951
11989TIP3    H257459   3.300   0.967   1.345 -0.2653 -1.4458 -2.1376
11990TIP3   OH257460   5.923   1.972   0.327  0.3023 -0.9206 -0.7234
11990TIP3    H157461   5.916   2.021   0.245  2.6505  0.5562 -0.1252
11990TIP3    H257462   5.861   2.016   0.386  0.7752 -0.0643 -0.8478
11991TIP3   OH257463   4.480   6.680  14.959 -0.0178  0.0330  0.0806
11991TIP3    H157464   4.470   6.620  14.885  0.7574  0.9270 -0.7863
11991TIP3    H257465   4.561   6.652  15.002  0.8087  0.9488 -0.8322
11992TIP3   OH257466   4.967   6.595  15.298  0.4874 -0.0493  0.4422
11992TIP3    H157467   4.901   6.543  15.345  1.1595 -0.6613  0.7267
11992TIP3    H257468   4.985   6.668  15.357  1.0183 -0.5889  0.9640
11993TIP3   OH257469   3.472   2.263  14.635  0.3347 -0.4444  0.4472
11993TIP3    H157470   3.536   2.290  14.569 -0.9041 -0.2835 -0.7229
11993TIP3    H257471   3.419   2.197  14.591 -1.5632  0.8396  0.7282
11994TIP3   OH257472   5.683   0.205  11.896 -0.6239 -0.4268  0.2636
11994TIP3    H157473   5.601   0.231  11.854 -0.6378 -1.4966 -0.4130
11994TIP3    H257474   5.751   0.232  11.834 -0.6518 -2.1404 -0.5887
11995TIP3   OH257475   4.730   5.478  13.181  0.1189  0.1723 -0.0879
11995TIP3    H157476   4.642   5.513  13.196  0.5107  2.1357 -1.9068
11995TIP3    H257477   4.719   5.418  13.107  0.1286 -0.4619  0.4220
11996TIP3   OH257478   4.133   5.392   1.549  0.5113  0.0555  0.2327
11996TIP3    H157479   4.228   5.392   1.554  0.5134  1.0276  0.2401
11996TIP3    H257480   4.105   5.456   1.615 -0.1510 -0.2703  0.2811
11997TIP3   OH257481   5.938   4.015   1.923 -0.1674  0.2088 -0.0177
11997TIP3    H157482   5.943   4.104   1.958  1.2629 -0.4833  1.6218
11997TIP3    H257483   5.979   4.022   1.836  0.1249  1.1049  0.1774
11998TIP3   OH257484   3.711   1.609   3.354 -0.6495  0.2334  0.3185
11998TIP3    H157485   3.744   1.692   3.320 -0.3877 -1.0366 -2.8326
11998TIP3    H257486   3.789   1.563   3.385 -0.5880  0.4983  0.5647
11999TIP3   OH257487   2.083   6.876  12.118  0.5629  0.4361  0.3409
11999TIP3    H157488   2.047   6.902  12.033  1.6339  0.6804 -0.0479
11999TIP3    H257489   2.006   6.860  12.173 -0.1896 -1.0122 -1.0451
12000TIP3   OH257490   2.539   1.426  12.795  0.2098 -0.1937  0.0076
12000TIP3    H157491   2.580   1.484  12.860 -1.1753  0.4562  0.3448
12000TIP3    H257492   2.612   1.392  12.744  1.0957  2.1218 -0.4127
12001TIP3   OH257493   1.444   0.526  14.461 -0.1763  0.3433 -0.3700
12001TIP3    H157494   1.388   0.488  14.529 -0.2466 -0.6385 -0.9629
12001TIP3    H257495   1.504   0.583  14.509 -0.4499 -0.0660  0.4807
12002TIP3   OH257496   3.315   3.153  14.520 -0.3480  0.1973  0.0490
12002TIP3    H157497   3.291   3.241  14.549  0.6448  0.7649 -0.7730
12002TIP3    H257498   3.365   3.117  14.593  1.1185  1.1723 -0.4173
12003TIP3   OH257499   5.928   6.079   1.522 -0.1397  0.2828 -0.1356
12003TIP3    H157500   5.890   6.015   1.461 -0.4434  0.1814  0.1581
12003TIP3    H257501   5.905   6.164   1.483  0.3821  0.2148 -0.5967
12004TIP3   OH257502   1.216   0.031   5.158 -0.0207 -0.4534 -0.1176
12004TIP3    H157503   1.122   0.037   5.147 -0.2493 -1.4990  1.0138
12004TIP3    H257504   1.230   0.035   5.253  0.9933 -1.1044 -0.2158
12005TIP3   OH257505   1.870   6.227  14.070 -0.1320 -0.0371  0.4486
12005TIP3    H157506   1.869   6.159  14.138  4.8256 -2.0376 -1.0428
12005TIP3    H257507   1.803   6.198  14.007 -1.4809 -0.7563  2.1293
12006TIP3   OH257508   2.830   6.362   4.209  0.4675  0.0570  0.5959
12006TIP3    H157509   2.846   6.446   4.252 -1.2759  1.3840 -1.1229
12006TIP3    H257510   2.905   6.350   4.151  1.1916 -0.0897  1.5384
12007TIP3   OH257511   2.625   1.092  14.263 -0.3534 -0.1951 -0.2620
12007TIP3    H157512   2.575   1.172  14.282 -0.7827 -0.6333  0.5222
12007TIP3    H257513   2.713   1.110  14.297 -0.7524 -0.4591  0.9487
12008TIP3   OH257514   4.563   0.869  14.102 -0.3008 -0.6068 -0.0388
12008TIP3    H157515   4.573   0.781  14.066 -1.1655 -1.0333  0.7312
12008TIP3    H257516   4.473   0.893  14.080 -0.7785 -0.7901  1.6298
12009TIP3   OH257517   4.182   3.596  14.200 -0.6964  0.1177  0.2560
12009TIP3    H157518   4.213   3.505  14.199 -1.4531 -0.2127  2.2111
12009TIP3    H257519   4.257   3.646  14.232 -1.0532 -0.2124  1.6878
12010TIP3   OH257520   2.397   5.677  11.228  0.4445 -0.1344 -0.2581
12010TIP3    H157521   2.373   5.604  11.171  1.5615 -0.6521 -0.1023
12010TIP3    H257522   2.410   5.751  11.168  3.7011 -1.1750 -1.0513
12011TIP3   OH257523   6.045   6.319   2.171  0.7735 -0.0899  0.1589
12011TIP3    H157524   6.109   6.350   2.235  2.2508 -1.7808 -0.4039
12011TIP3    H257525   6.085   6.340   2.086  1.0349 -1.9214 -0.2091
12012TIP3   OH257526   2.236   0.438   2.080 -0.1463 -0.6706  0.1374
12012TIP3    H157527   2.322   0.456   2.041 -0.6908 -0.0733 -0.8258
12012TIP3    H257528   2.230   0.498   2.155  0.0397 -0.3074 -0.1399
12013TIP3   OH257529   2.172   1.933   4.784 -0.4936  0.5007  0.4555
12013TIP3    H157530   2.121   2.013   4.795 -0.6647  0.4959 -0.3074
12013TIP3    H257531   2.108   1.865   4.765 -0.1620  0.6332 -1.2485
12014TIP3   OH257532   2.301   4.762   4.232 -0.1007  0.2168  0.1919
12014TIP3    H157533   2.334   4.691   4.287 -0.6199 -1.9992 -2.1946
12014TIP3    H257534   2.380   4.803   4.197  0.1962  0.5565  1.2143
12015TIP3   OH257535   5.616   1.361  12.728 -0.3938 -0.5040 -0.2567
12015TIP3    H157536   5.696   1.413  12.719 -0.5771  0.1704  1.6147
12015TIP3    H257537   5.545   1.423  12.715 -0.6121 -0.2826  1.7115
12016TIP3   OH257538   2.585   5.032  12.931  0.2369  0.8372 -0.1274
12016TIP3    H157539   2.674   5.059  12.911  0.8350 -0.6952  0.3123
12016TIP3    H257540   2.530   5.084  12.873  1.2397  3.3078  0.9945
12017TIP3   OH257541   2.396   3.676   2.937  0.3336 -0.6247 -0.3386
12017TIP3    H157542   2.419   3.765   2.962  1.4134 -0.7539 -0.8191
12017TIP3    H257543   2.326   3.687   2.872 -1.9567 -0.2770  2.0553
12018TIP3   OH257544   1.384   0.384  12.979  0.1522  0.0438 -0.0217
12018TIP3    H157545   1.469   0.370  13.021  0.2253 -0.1496 -0.2370
12018TIP3    H257546   1.393   0.346  12.892 -0.7989 -1.7975  0.6507
12019TIP3   OH257547   4.181   0.809  12.260 -1.1737  0.2189  0.0921
12019TIP3    H157548   4.142   0.891  12.231 -0.7940  0.6167  0.6871
12019TIP3    H257549   4.219   0.829  12.345  0.2555 -0.1759 -0.4183
12020TIP3   OH257550   0.114   3.145  14.790 -0.1166 -0.1077  0.1813
12020TIP3    H157551   0.199   3.131  14.833  0.2424 -2.1957 -1.0419
12020TIP3    H257552   0.058   3.076  14.825 -0.8968  0.4227 -0.0218
12021TIP3   OH257553   4.961   5.532  11.149 -0.4441  0.0041  0.2714
12021TIP3    H157554   4.940   5.446  11.186 -2.5171  0.1556 -0.3959
12021TIP3    H257555   4.949   5.593  11.222  0.2036 -0.1900  0.5392
12022TIP3   OH257556   3.787   5.335   1.344  0.5188 -0.3523  0.2540
12022TIP3    H157557   3.816   5.426   1.344 -1.5267  0.3422  0.4230
12022TIP3    H257558   3.793   5.307   1.435 -0.7779  0.3059  0.5652
12023TIP3   OH257559   7.128   3.004  13.145 -0.3045  0.2855 -0.4088
12023TIP3    H157560   7.211   3.005  13.097 -0.8088  2.5333 -1.3575
12023TIP3    H257561   7.118   2.913  13.173  1.7574 -0.3548 -1.5175
12024TIP3   OH257562   4.398   7.005   3.461  0.3381 -0.1053 -0.0437
12024TIP3    H157563   4.424   7.055   3.539  0.7027 -0.2368 -0.0778
12024TIP3    H257564   4.435   6.917   3.476 -0.3758 -0.3897  0.0589
12025TIP3   OH257565   6.508   1.305  12.151 -0.7762  0.0639 -0.4949
12025TIP3    H157566   6.507   1.250  12.229  0.1626  1.9530  0.9291
12025TIP3    H257567   6.496   1.244  12.078  0.3011 -2.0193  0.9796
12026TIP3   OH257568   2.750   3.429   5.060 -0.0428  0.2892 -0.7532
12026TIP3    H157569   2.824   3.469   5.013 -0.7896 -1.0546 -3.2814
12026TIP3    H257570   2.770   3.336   5.061 -0.6011  0.1711  0.6767
12027TIP3   OH257571   0.865   0.608   5.765 -0.0326 -0.8722  0.2091
12027TIP3    H157572   0.847   0.681   5.706 -0.6127 -0.3709  0.9922
12027TIP3    H257573   0.959   0.593   5.757 -0.0340 -0.5492 -0.5304
12028TIP3   OH257574   5.456   0.384  13.845 -0.5061 -0.1301  0.1135
12028TIP3    H157575   5.411   0.463  13.816 -1.7383 -0.9834 -0.3951
12028TIP3    H257576   5.534   0.415  13.889 -1.2599  1.3883  0.4282
12029TIP3   OH257577   6.245   3.401   5.228  0.7105  0.2225 -0.3052
12029TIP3    H157578   6.213   3.482   5.266  0.1636 -0.1707  0.0874
12029TIP3    H257579   6.332   3.423   5.193 -1.1044  2.1681 -4.2467
12030TIP3   OH257580   4.749   3.906  14.838 -0.0820 -0.3763  0.0543
12030TIP3    H157581   4.817   3.883  14.775 -0.3108 -0.7841 -0.0481
12030TIP3    H257582   4.716   3.990  14.807  0.5228 -0.0677  0.2288
12031TIP3   OH257583   1.869   4.387   0.901  0.6183 -0.0907  0.4534
12031TIP3    H157584   1.792   4.440   0.882 -0.8631 -2.3799 -0.3215
12031TIP3    H257585   1.914   4.377   0.817  0.2595 -0.9946  0.3671
12032TIP3   OH257586   0.163   1.928   2.005  0.1003  0.2870  0.7852
12032TIP3    H157587   0.164   1.885   2.091 -2.8599 -0.9121  0.3456
12032TIP3    H257588   0.097   1.996   2.012 -0.6462 -0.2278 -0.6592
12033TIP3   OH257589   6.313   0.167   0.025  0.2326 -0.1428 -0.2373
12033TIP3    H157590   6.243   0.102   0.018  2.6189 -2.9400  0.0259
12033TIP3    H257591   6.320   0.205  -0.063  0.7595 -2.5271 -1.2910
12034TIP3   OH257592   4.689   2.833  10.928  0.1098 -0.5431 -0.4058
12034TIP3    H157593   4.595   2.843  10.918  0.0342  0.5571  1.0890
12034TIP3    H257594   4.724   2.848  10.840 -1.0015  0.5742 -0.6897
12035TIP3   OH257595   2.803   5.452   0.884 -0.0308  0.1946 -0.3307
12035TIP3    H157596   2.731   5.426   0.942 -0.0145  0.3320 -0.2475
12035TIP3    H257597   2.760   5.481   0.803 -0.0986  0.6990 -0.1209
12036TIP3   OH257598   5.604   4.606  11.741  0.0835 -0.2641 -0.1147
12036TIP3    H157599   5.632   4.516  11.727  1.1786 -0.4504  2.5080
12036TIP3    H257600   5.509   4.602  11.750  0.2126 -1.3745  1.0118
12037TIP3   OH257601   2.698   4.366   4.380 -0.1777 -0.1454  0.3359
12037TIP3    H157602   2.765   4.311   4.421  0.6003  1.1717  0.9017
12037TIP3    H257603   2.637   4.304   4.340  0.8437 -1.4020  0.6552
12038TIP3   OH257604   6.944   5.060   0.955  0.0820  0.2326  0.0684
12038TIP3    H157605   7.017   5.118   0.979 -0.5068  1.9159 -1.8899
12038TIP3    H257606   6.867   5.116   0.958 -0.7212 -0.7965 -0.5784
12039TIP3   OH257607   0.375   0.353  13.515 -0.2924 -0.0098 -0.0879
12039TIP3    H157608   0.444   0.335  13.451  0.2786 -1.2913  0.8402
12039TIP3    H257609   0.347   0.266  13.544 -0.4310  0.5423  1.5078
12040TIP3   OH257610   1.450   2.713   3.832 -0.3627 -0.5018  0.3426
12040TIP3    H157611   1.492   2.639   3.877  0.5276  0.1299  0.5753
12040TIP3    H257612   1.497   2.790   3.864 -1.5874  0.2218  0.4613
12041TIP3   OH257613   2.694   3.409  10.115  0.3953 -0.1069 -0.2068
12041TIP3    H157614   2.754   3.393  10.042 -1.6027  0.2641 -2.0361
12041TIP3    H257615   2.749   3.446  10.184  2.1049  1.1082 -2.1237
12042TIP3   OH257616   3.229   6.896   0.426 -0.2924  0.1913  0.3603
12042TIP3    H157617   3.256   6.883   0.517 -1.1521  0.4281  0.6606
12042TIP3    H257618   3.291   6.844   0.375 -0.9386 -1.4829  1.2218
12043TIP3   OH257619   5.068   6.491  14.051  0.0605  0.3532  0.2294
12043TIP3    H157620   5.099   6.439  14.126 -0.7630  1.6491  1.5263
12043TIP3    H257621   5.120   6.571  14.055 -1.3468  1.2700  0.6325
12044TIP3   OH257622   1.198   0.632  14.349  0.1954  0.1836 -0.6899
12044TIP3    H157623   1.148   0.556  14.319  0.3778 -0.9242  1.5698
12044TIP3    H257624   1.279   0.595  14.385  1.5358  1.7215 -1.9609
12045TIP3   OH257625   3.810   1.873   5.057 -0.3370 -0.1384 -0.2943
12045TIP3    H157626   3.898   1.880   5.020  0.4798 -0.9030  1.4451
12045TIP3    H257627   3.817   1.912   5.144 -1.0818 -2.4480  0.8676
12046TIP3   OH257628   3.750   4.283   3.106 -0.4906 -0.0935 -0.1352
12046TIP3    H157629   3.737   4.203   3.055 -0.3146 -1.5604  1.9891
12046TIP3    H257630   3.838   4.312   3.082 -0.3926 -0.7588 -0.6227
12047TIP3   OH257631   4.200   2.022  12.075 -0.0985 -0.6017 -0.0089
12047TIP3    H157632   4.174   1.945  12.126 -0.0176 -1.7547 -1.6336
12047TIP3    H257633   4.144   2.020  11.998 -0.3284  1.1996  0.0872
12048TIP3   OH257634   0.350   5.474   2.720  0.2492  0.3507 -0.1221
12048TIP3    H157635   0.311   5.483   2.807  1.3630  1.9679  0.2493
12048TIP3    H257636   0.442   5.452   2.737  0.4353  0.5010 -0.9027
12049TIP3   OH257637   3.361   2.768  14.036 -0.4354 -0.2852  0.3299
12049TIP3    H157638   3.368   2.781  14.130 -1.4541  2.0631  0.1688
12049TIP3    H257639   3.376   2.675  14.023  2.2504 -0.2771  2.5190
12050TIP3   OH257640   2.386   2.996  12.047  0.1416  0.1913  0.1554
12050TIP3    H157641   2.415   2.909  12.076  1.1500 -0.0998 -1.5792
12050TIP3    H257642   2.440   3.057  12.098  0.0278 -0.1997  0.7627
12051TIP3   OH257643   6.603   6.808  12.190  0.3218 -0.1982 -0.4207
12051TIP3    H157644   6.649   6.731  12.157  0.0763 -0.0942 -0.9973
12051TIP3    H257645   6.668   6.851  12.247  0.5900 -0.6114 -0.4084
12052TIP3   OH257646   0.047   4.331   2.174 -0.2856  0.2402 -0.7602
12052TIP3    H157647  -0.023   4.274   2.205 -0.3445  1.4041  1.4970
12052TIP3    H257648   0.007   4.418   2.168  0.7988  0.8293  0.1082
12053TIP3   OH257649   7.128   2.003  13.193 -0.1990 -0.9486  0.0272
12053TIP3    H157650   7.184   1.941  13.238  0.0633 -1.9307 -1.5600
12053TIP3    H257651   7.164   2.008  13.104 -0.9574  0.5348 -0.2290
12054TIP3   OH257652   5.937   4.993  14.445 -0.3615  0.2389 -0.5582
12054TIP3    H157653   5.962   4.906  14.413  0.1661  0.6144 -1.1878
12054TIP3    H257654   5.868   5.021  14.386 -1.3380 -0.2230  0.3462
12055TIP3   OH257655   5.491   3.996   3.052  0.3332 -0.1162 -0.0971
12055TIP3    H157656   5.505   3.982   2.958 -2.1411 -0.1735 -0.5341
12055TIP3    H257657   5.517   3.914   3.092 -0.6275 -0.9157 -1.0251
12056TIP3   OH257658   6.751   6.106  12.036 -0.0357 -0.0230 -0.1439
12056TIP3    H157659   6.750   6.072  12.125 -1.1608  1.6724  0.5359
12056TIP3    H257660   6.842   6.131  12.021 -0.2919  2.3245  1.6542
12057TIP3   OH257661   7.014   6.634   4.060  0.0616 -0.4829 -0.2065
12057TIP3    H157662   6.994   6.683   4.140  0.4574 -1.2628  0.3850
12057TIP3    H257663   7.032   6.545   4.090  0.8358 -0.6450 -1.1011
12058TIP3   OH257664   1.707   2.156   3.123 -0.2586  0.3122  0.2353
12058TIP3    H157665   1.683   2.185   3.211  0.4289 -0.1801  0.5943
12058TIP3    H257666   1.803   2.151   3.125 -0.3261 -2.1076  0.2692
12059TIP3   OH257667   6.388   4.281   5.030 -0.1293  0.4715 -0.4198
12059TIP3    H157668   6.390   4.188   5.053  0.5697  1.0964  2.3964
12059TIP3    H257669   6.459   4.290   4.966  2.2093 -0.4283  1.8335
12060TIP3   OH257670   4.693   3.730  14.490 -0.2626  0.0165  0.4898
12060TIP3    H157671   4.636   3.807  14.486 -0.3683 -0.1039 -0.9396
12060TIP3    H257672   4.655   3.669  14.428 -0.4797 -1.4403  1.9891
12061TIP3   OH257673   6.152   2.105   1.813 -0.2612  0.5025 -0.3817
12061TIP3    H157674   6.146   2.158   1.892 -0.4537  1.6380 -1.1254
12061TIP3    H257675   6.227   2.142   1.766  0.0884 -0.4104 -0.5535
12062TIP3   OH257676   3.236   2.155   9.944 -0.0463  0.6409 -0.3464
12062TIP3    H157677   3.176   2.221   9.979 -1.1031 -0.0860 -0.7600
12062TIP3    H257678   3.180   2.091   9.901  1.0279 -0.0633 -0.7488
12063TIP3   OH257679   4.341   2.503   2.589 -0.9696  0.2736  0.4099
12063TIP3    H157680   4.408   2.534   2.529 -0.8070  0.4953  0.7058
12063TIP3    H257681   4.317   2.580   2.640  0.5373 -0.3821  2.2266
12064TIP3   OH257682   2.953   3.076   0.746 -0.0280 -0.8283 -0.2305
12064TIP3    H157683   2.935   3.088   0.839  1.8232 -0.9727  0.1923
12064TIP3    H257684   2.895   3.005   0.718 -0.7431 -0.6419  0.7585
12065TIP3   OH257685   4.015   6.483  11.902  0.5299  0.2313 -0.0947
12065TIP3    H157686   3.927   6.456  11.927  1.3009 -0.7296  1.8052
12065TIP3    H257687   4.003   6.564  11.852 -1.3128  1.4654  2.1555
12066TIP3   OH257688   3.495   6.066   1.951  0.2284 -0.0988 -0.0869
12066TIP3    H157689   3.568   6.127   1.943  0.1753 -0.0893 -0.5192
12066TIP3    H257690   3.423   6.109   1.905 -0.0133 -0.1662  0.2280
12067TIP3   OH257691   0.250   6.742  14.555 -0.0018  0.2882 -0.1501
12067TIP3    H157692   0.276   6.831  14.579 -1.9774  0.3636  2.0768
12067TIP3    H257693   0.321   6.711  14.499  1.4047  2.7805  0.0881
12068TIP3   OH257694   0.028   1.254  13.915 -0.1985 -0.2949  0.1356
12068TIP3    H157695  -0.059   1.291  13.897 -0.5513 -1.5753 -0.9577
12068TIP3    H257696   0.074   1.260  13.832 -0.0043 -1.5757  0.1353
12069TIP3   OH257697   2.129   4.165   0.755  0.1143  0.0814 -0.2602
12069TIP3    H157698   2.108   4.255   0.729 -0.9343 -0.0453  0.1095
12069TIP3    H257699   2.044   4.123   0.766  0.5254 -0.3170  1.8364
12070TIP3   OH257700   1.904   3.746   2.525 -0.3581 -0.0690 -0.0699
12070TIP3    H157701   1.825   3.759   2.473 -0.7375 -0.7837  0.3136
12070TIP3    H257702   1.929   3.655   2.509 -0.1974 -0.1500  0.5981
12071TIP3   OH257703   3.746   1.049   1.763  0.5227  0.8044 -0.2123
12071TIP3    H157704   3.817   0.987   1.746  0.4651  0.8313 -0.5638
12071TIP3    H257705   3.778   1.103   1.835  0.4511  0.1673  0.3063
12072TIP3   OH257706   2.723   4.888   3.520  0.3425  0.3651  0.5491
12072TIP3    H157707   2.812   4.899   3.487 -0.3183  1.0288 -1.0905
12072TIP3    H257708   2.667   4.889   3.442 -1.3758  2.9206  1.6590
12073TIP3   OH257709   5.892   1.377  10.621 -0.3188  0.0964 -0.3289
12073TIP3    H157710   5.906   1.334  10.705 -0.8354  0.9724  0.2195
12073TIP3    H257711   5.917   1.312  10.556  0.2363 -0.5397  0.5043
12074TIP3   OH257712   5.357   7.101   1.101 -0.0620 -0.1953 -0.1294
12074TIP3    H157713   5.353   7.011   1.132  0.6092 -0.6972 -1.4172
12074TIP3    H257714   5.274   7.114   1.055 -0.5852  0.1876  0.8980
12075TIP3   OH257715   5.226   0.923   2.091 -0.3033 -0.5930 -0.1604
12075TIP3    H157716   5.204   1.001   2.040  0.7853 -0.6681 -0.7760
12075TIP3    H257717   5.321   0.915   2.083 -0.3171 -1.5933  0.4706
12076TIP3   OH257718   0.203   3.923  15.004 -0.1732 -0.0377  0.6497
12076TIP3    H157719   0.242   3.890  14.923  1.3502  0.9954  0.9160
12076TIP3    H257720   0.113   3.891  15.002 -0.1852 -0.0058 -1.4657
12077TIP3   OH257721   6.860   7.176   2.107  0.1602 -0.3033  0.1248
12077TIP3    H157722   6.893   7.141   2.024  2.8240 -2.0769  1.7854
12077TIP3    H257723   6.922   7.244   2.131  0.5945 -1.1837  1.5906
12078TIP3   OH257724   6.575   3.035  13.281  0.1351 -0.0616  0.0697
12078TIP3    H157725   6.638   3.106  13.295 -0.9149  0.5423  2.0852
12078TIP3    H257726   6.496   3.080  13.252  0.4775 -0.8038 -2.2574
12079TIP3   OH257727   6.443   0.186   2.132  0.2273 -0.3247  0.3232
12079TIP3    H157728   6.423   0.100   2.169  2.4712 -1.1171 -0.0874
12079TIP3    H257729   6.537   0.197   2.148  0.0744  1.8675 -0.0351
12080TIP3   OH257730   5.759   4.036  13.330  0.2025 -0.5724  0.5368
12080TIP3    H157731   5.806   4.088  13.265  0.3805 -0.8704  0.4232
12080TIP3    H257732   5.667   4.056  13.314  0.0698 -2.4128 -1.3910
12081TIP3   OH257733   6.916   1.936  11.960 -0.1261 -0.3724 -0.5475
12081TIP3    H157734   6.849   1.879  11.923 -0.3649 -1.3142  1.2175
12081TIP3    H257735   6.867   1.999  12.014  0.3212 -0.2396 -0.2858
12082TIP3   OH257736   5.257   0.653   3.319  0.5993  0.3173  0.1528
12082TIP3    H157737   5.339   0.692   3.348  1.0308  0.0790 -0.7340
12082TIP3    H257738   5.279   0.604   3.240 -0.2904 -0.2057  0.2060
12083TIP3   OH257739   1.485   2.400   1.465 -0.4171  0.8316  0.3755
12083TIP3    H157740   1.466   2.474   1.407  1.4498  1.4138  0.4515
12083TIP3    H257741   1.551   2.349   1.417 -1.1253 -0.3739  0.6578
12084TIP3   OH257742   2.637   1.691  13.788 -0.6631  0.0181  0.0685
12084TIP3    H157743   2.652   1.778  13.751 -3.1096  0.5223  0.1473
12084TIP3    H257744   2.705   1.682  13.855  0.1534  1.4999 -0.5029
12085TIP3   OH257745   6.573   2.251   2.143 -0.2469 -0.1973 -0.0592
12085TIP3    H157746   6.662   2.286   2.142 -0.5905  0.6933 -0.0425
12085TIP3    H257747   6.527   2.299   2.074 -0.0912 -2.3480 -1.7801
12086TIP3   OH257748   2.265   1.706   0.673 -0.4436 -0.6761  0.1429
12086TIP3    H157749   2.251   1.671   0.761  0.3826  2.1437  1.5194
12086TIP3    H257750   2.325   1.644   0.632 -1.4342 -2.4612  1.2184
12087TIP3   OH257751   6.647   2.028  12.329 -0.0321 -0.6274  0.8331
12087TIP3    H157752   6.629   1.945  12.285 -1.1528  0.9375 -1.9829
12087TIP3    H257753   6.702   2.005  12.403 -0.1793 -3.8418  0.0863
12088TIP3   OH257754   1.800   6.467  13.039 -0.8345  0.1513 -0.4689
12088TIP3    H157755   1.894   6.448  13.041 -0.5520  1.4303  2.1565
12088TIP3    H257756   1.758   6.384  13.062 -0.1221  0.3344  1.6740
12089TIP3   OH257757   1.389   2.095   5.613 -0.2091  0.0549  0.0889
12089TIP3    H157758   1.330   2.143   5.671 -0.4003 -1.2170  0.9972
12089TIP3    H257759   1.473   2.095   5.658 -0.4279 -1.1795  0.5474
12090TIP3   OH257760   7.062   4.332   4.690  0.1383 -0.1340 -0.3993
12090TIP3    H157761   6.997   4.296   4.750  1.1343 -3.5559 -1.1322
12090TIP3    H257762   7.022   4.412   4.656 -2.7326 -0.9458  0.7562
12091TIP3   OH257763   6.700   7.254   0.339 -0.1180  0.0236  0.3242
12091TIP3    H157764   6.607   7.233   0.351  0.0209  0.3268  2.2463
12091TIP3    H257765   6.703   7.299   0.255 -1.6423 -0.3760  0.0147
12092TIP3   OH257766   0.998   0.318  14.947  0.2339  0.6832  0.1963
12092TIP3    H157767   0.991   0.381  14.876  1.0287 -0.0335 -0.5484
12092TIP3    H257768   0.943   0.353  15.017 -1.2842  0.9437 -1.0902
12093TIP3   OH257769   1.708   6.619   4.798  0.8284  0.7285 -1.0403
12093TIP3    H157770   1.787   6.629   4.851 -0.2986 -1.3368  1.2407
12093TIP3    H257771   1.725   6.541   4.745 -0.4346 -1.2468  1.2459
12094TIP3   OH257772   6.070   7.123  15.121 -0.1161 -0.0285 -0.5279
12094TIP3    H157773   6.124   7.165  15.188 -1.4076 -0.6961  1.0002
12094TIP3    H257774   6.010   7.191  15.092 -0.3767 -0.0693 -0.0876
12095TIP3   OH257775   0.658   1.420  13.073  0.4150 -0.2432  0.1206
12095TIP3    H157776   0.648   1.351  13.139 -2.9168  0.2372  0.2923
12095TIP3    H257777   0.631   1.378  12.991  0.7385  0.2363 -0.2358
12096TIP3   OH257778   1.488   2.344   4.428  0.2811  0.3168 -0.4701
12096TIP3    H157779   1.558   2.380   4.482 -0.5925  1.5403 -0.1037
12096TIP3    H257780   1.515   2.361   4.338  0.3179  1.0696 -0.3195
12097TIP3   OH257781   6.188   2.867   0.100 -0.7217 -0.2840  0.1109
12097TIP3    H157782   6.093   2.866   0.084 -0.4579 -1.5558 -1.7701
12097TIP3    H257783   6.224   2.810   0.032  1.4706  0.6719  0.3811
12098TIP3   OH257784   1.662   2.194   0.006  0.4078  0.4276 -0.0989
12098TIP3    H157785   1.716   2.167   0.080 -0.2354  0.8029  0.5224
12098TIP3    H257786   1.716   2.176  -0.071  0.6048 -1.1442  0.3654
12099TIP3   OH257787   7.089   4.044   1.017  0.1111  0.0804 -0.0247
12099TIP3    H157788   7.044   4.053   0.933  1.4124  2.4147 -0.5664
12099TIP3    H257789   7.131   3.958   1.012 -2.4474 -1.2453 -0.3460
12100TIP3   OH257790   5.971   1.995   9.266  0.1164  0.1583  0.5206
12100TIP3    H157791   5.975   1.900   9.277 -0.5016  0.2887  2.1086
12100TIP3    H257792   6.044   2.028   9.319  0.5798  0.5589 -0.3515
12101TIP3   OH257793   0.347   0.721   3.124 -0.0797 -0.0750 -0.1749
12101TIP3    H157794   0.377   0.679   3.043 -0.8038 -0.2618 -0.3487
12101TIP3    H257795   0.420   0.779   3.148 -0.2421  0.7329 -1.5047
12102TIP3   OH257796   1.201   2.049   4.851  0.4785  0.5362  0.1814
12102TIP3    H157797   1.145   1.979   4.885  2.2578 -1.3891 -0.6321
12102TIP3    H257798   1.141   2.107   4.805 -0.9179 -1.4015 -0.5895
12103TIP3   OH257799   3.883   2.554  14.650  0.4211  0.1224  0.2407
12103TIP3    H157800   3.814   2.570  14.714  0.9321  1.9259  0.3886
12103TIP3    H257801   3.943   2.628  14.660  2.0935 -1.0804 -0.2736
12104TIP3   OH257802   6.124   5.631  14.379  0.0578  0.5488 -0.3168
12104TIP3    H157803   6.045   5.577  14.385 -1.6264  2.8975 -0.1011
12104TIP3    H257804   6.157   5.614  14.290 -1.4457  0.4866 -0.8959
12105TIP3   OH257805   0.779   2.101   4.605  0.0941  0.0800 -0.7548
12105TIP3    H157806   0.784   2.172   4.542 -0.7600  0.3951 -0.4754
12105TIP3    H257807   0.686   2.089   4.621  0.3135  0.5334  1.0496
12106TIP3   OH257808   3.126   3.183   1.899  0.3992  0.5922  0.4377
12106TIP3    H157809   3.100   3.145   1.815  2.0572  1.3612 -0.4843
12106TIP3    H257810   3.153   3.272   1.878  0.2592  1.0142  1.9111
12107TIP3   OH257811   7.187   2.904   1.839  0.2164  0.3240 -0.0986
12107TIP3    H157812   7.138   2.984   1.822  1.4399  0.9872 -0.6837
12107TIP3    H257813   7.145   2.838   1.784 -0.2018  0.8011 -0.3639
12108TIP3   OH257814   0.201   4.896   4.492  0.4965  0.3304  0.4260
12108TIP3    H157815   0.196   4.847   4.574  0.8791 -0.3631  0.0496
12108TIP3    H257816   0.124   4.868   4.442 -0.0503  1.1853  0.7701
12109TIP3   OH257817   1.780   4.660   3.702 -0.3704  0.3566 -0.1943
12109TIP3    H157818   1.724   4.592   3.664  1.3716 -0.2682 -1.8065
12109TIP3    H257819   1.836   4.614   3.764  0.8778  0.2606 -1.3579
12110TIP3   OH257820   2.033   6.030  14.555  0.3151  0.0056  0.1792
12110TIP3    H157821   2.050   6.124  14.564  0.4194 -0.0209  0.2617
12110TIP3    H257822   1.950   6.025  14.507  0.7364  0.1356 -0.5788
12111TIP3   OH257823   2.204   6.737   0.718 -0.6433 -0.2960  0.5243
12111TIP3    H157824   2.289   6.718   0.679 -0.2270 -0.2449  1.3878
12111TIP3    H257825   2.151   6.659   0.699 -0.2382 -0.5537  0.4525
12112TIP3   OH257826   1.047   6.270   0.097 -0.6967 -0.8159  0.0096
12112TIP3    H157827   1.086   6.356   0.082 -0.2314 -1.1462 -0.7538
12112TIP3    H257828   1.001   6.250   0.015 -0.3905 -1.5054  0.0005
12113TIP3   OH257829   6.311   2.355  14.718 -0.1710 -0.4695 -0.1042
12113TIP3    H157830   6.354   2.289  14.772 -0.2022  0.0822  0.6072
12113TIP3    H257831   6.224   2.364  14.756 -0.9602 -1.5919 -1.5395
12114TIP3   OH257832   1.579   6.171   3.216 -0.3341  0.0315 -0.3641
12114TIP3    H157833   1.519   6.161   3.142 -0.2419 -0.3689 -0.3881
12114TIP3    H257834   1.619   6.085   3.226  1.5103  0.7124 -1.4473
12115TIP3   OH257835   2.418   1.172   0.290 -0.2661 -0.0667  0.6416
12115TIP3    H157836   2.338   1.194   0.337 -0.8446 -1.3828  0.3057
12115TIP3    H257837   2.390   1.115   0.218  0.9264 -0.2811  0.3186
12116TIP3   OH257838   4.977   2.601   2.622 -0.1154  0.0343 -0.2849
12116TIP3    H157839   5.063   2.616   2.662 -0.3845  1.4150 -0.1921
12116TIP3    H257840   4.978   2.508   2.597  1.6439  0.1859 -0.8781
12117TIP3   OH257841   1.655   0.521  12.093 -0.1198 -0.0213  0.1227
12117TIP3    H157842   1.628   0.454  12.156  0.0090 -1.4240 -1.2643
12117TIP3    H257843   1.584   0.524  12.029  0.2513  0.5926 -0.2730
12118TIP3   OH257844   4.499   0.268  10.775  0.1877 -0.0375  0.0343
12118TIP3    H157845   4.563   0.213  10.820 -0.5048 -0.0582  1.0062
12118TIP3    H257846   4.442   0.207  10.729 -1.0113 -0.2035  1.6797
12119TIP3   OH257847   2.501   1.328   2.379 -0.8792  0.6750 -0.6250
12119TIP3    H157848   2.568   1.384   2.418 -2.6584  2.7497 -0.3492
12119TIP3    H257849   2.464   1.280   2.453 -0.9080  0.8948 -0.4949
12120TIP3   OH257850   0.863   4.384   1.046 -0.4998 -0.3487 -0.1640
12120TIP3    H157851   0.956   4.407   1.056 -0.5028 -0.6627  0.6697
12120TIP3    H257852   0.823   4.407   1.130 -1.7195  2.1250 -1.3067
12121TIP3   OH257853   2.766   4.535   4.173 -0.0673 -0.5643 -0.4297
12121TIP3    H157854   2.694   4.535   4.110  0.1332 -2.3539 -0.7092
12121TIP3    H257855   2.746   4.463   4.233  1.3503 -0.9280 -0.3517
12122TIP3   OH257856   7.254   0.101   4.769  0.2752 -0.0575  0.1744
12122TIP3    H157857   7.276   0.072   4.857  0.0461  0.2045  0.3208
12122TIP3    H257858   7.281   0.029   4.712 -0.1504 -0.4964  0.5180
12123TIP3   OH257859   2.601   2.148   4.726  0.1827  0.1847  0.3632
12123TIP3    H157860   2.547   2.224   4.750 -1.2502 -1.0670  1.2947
12123TIP3    H257861   2.685   2.163   4.770  0.1211  1.4738  0.0834
12124TIP3   OH257862   6.192   0.436   0.421  0.6081  0.2229  0.5448
12124TIP3    H157863   6.129   0.508   0.423 -0.5075 -0.7213  0.4549
12124TIP3    H257864   6.248   0.451   0.497 -1.5047 -0.4248  2.3228
12125TIP3   OH257865   7.149   2.561  14.387 -0.0852 -0.1754  0.9293
12125TIP3    H157866   7.151   2.595  14.297 -0.3243 -1.1413  0.5427
12125TIP3    H257867   7.070   2.599  14.425 -0.9557 -1.1282  0.1450
12126TIP3   OH257868   2.466   2.820   1.696 -0.2045  0.3852 -0.1261
12126TIP3    H157869   2.494   2.853   1.781  0.0259  0.8768 -0.3919
12126TIP3    H257870   2.474   2.895   1.637 -0.0345 -0.0419 -0.6543
12127TIP3   OH257871   5.674   6.941  14.935  0.1437 -0.2934 -0.0494
12127TIP3    H157872   5.733   6.955  15.009 -0.5664  1.0764  0.2888
12127TIP3    H257873   5.618   6.868  14.963  0.6028 -0.5183  0.2951
12128TIP3   OH257874   5.545   0.892   2.599 -0.8109 -0.0273  0.5268
12128TIP3    H157875   5.492   0.851   2.532 -1.2666 -1.4303  1.6915
12128TIP3    H257876   5.508   0.979   2.610 -2.0527 -0.5338  0.4292
12129TIP3   OH257877   5.717   5.806   2.033  0.1952 -0.3376 -0.0224
12129TIP3    H157878   5.622   5.797   2.039  0.2426 -1.3031 -0.4942
12129TIP3    H257879   5.731   5.892   1.995 -0.4689  0.0309  0.5391
12130TIP3   OH257880   3.457   6.308   0.450  0.2585  0.1340 -0.2486
12130TIP3    H157881   3.469   6.300   0.545 -3.2202 -3.1699  0.1964
12130TIP3    H257882   3.397   6.382   0.439 -0.5774 -0.4245  0.3811
12131TIP3   OH257883   2.731   5.147   3.117 -0.4511  0.3813  0.1320
12131TIP3    H157884   2.663   5.150   3.183  0.4415  1.0827  1.0553
12131TIP3    H257885   2.789   5.076   3.146 -1.8636 -1.7118 -1.7978
12132TIP3   OH257886   7.169   3.109   5.000 -0.8719 -0.7025 -0.2715
12132TIP3    H157887   7.190   3.022   5.034 -0.7276 -0.2216  0.9394
12132TIP3    H257888   7.226   3.168   5.049 -0.1221 -0.0075 -1.9005
12133TIP3   OH257889   2.575   3.962   1.557 -0.3649 -0.5668 -0.0899
12133TIP3    H157890   2.642   4.018   1.595 -0.0668 -0.6198 -0.5411
12133TIP3    H257891   2.615   3.875   1.553  0.0606 -0.3174 -1.6888
12134TIP3   OH257892   5.981   7.232   0.912 -0.5052  1.0690  0.2634
12134TIP3    H157893   5.895   7.272   0.905 -0.8370  0.0916 -2.8021
12134TIP3    H257894   6.042   7.303   0.894 -1.0545  0.7516 -4.0969
12135TIP3   OH257895   7.037   5.665   9.610 -0.0584 -0.3741 -0.5485
12135TIP3    H157896   7.009   5.729   9.675 -0.7191 -0.5015 -0.6987
12135TIP3    H257897   7.036   5.581   9.656  0.1316 -0.3687 -0.5363
12136TIP3   OH257898   2.381   6.438  13.847  0.0670  0.0643 -0.1192
12136TIP3    H157899   2.293   6.471  13.830 -0.4084 -1.5650 -1.0454
12136TIP3    H257900   2.375   6.394  13.931 -0.2498 -0.8222 -0.5972
12137TIP3   OH257901   3.520   6.948   1.498 -0.0478  0.0672 -0.1876
12137TIP3    H157902   3.509   6.949   1.403 -2.1737  1.7105 -0.0186
12137TIP3    H257903   3.474   6.869   1.527 -0.3794  0.1588 -0.4569
12138TIP3   OH257904   0.454   2.311  14.212  0.4278 -0.0315  0.3031
12138TIP3    H157905   0.478   2.324  14.120 -0.0870 -0.9234  0.0263
12138TIP3    H257906   0.468   2.217  14.227  2.3846  0.4163  1.6982
12139TIP3   OH257907   5.970   1.574   1.265 -0.0574  0.1343 -0.4853
12139TIP3    H157908   6.048   1.629   1.255  0.4311 -0.7059 -1.4692
12139TIP3    H257909   6.000   1.498   1.314 -0.1387 -0.4182 -1.2813
12140TIP3   OH257910   5.891   2.491   4.285  0.0909 -0.5936  0.2705
12140TIP3    H157911   5.798   2.481   4.262  0.2475  0.1088 -0.7239
12140TIP3    H257912   5.904   2.586   4.292  0.3218 -0.7199  2.2807
12141TIP3   OH257913   0.548   0.487  13.937  0.0772  0.2267 -0.5231
12141TIP3    H157914   0.605   0.455  13.867  0.7039 -1.7501  0.8264
12141TIP3    H257915   0.485   0.417  13.951  1.9597 -1.0512  3.0472
12142TIP3   OH257916   7.100   6.517   0.198 -0.2075 -0.0579  0.3687
12142TIP3    H157917   7.184   6.538   0.155 -0.6131 -1.2503 -1.1013
12142TIP3    H257918   7.071   6.600   0.234  1.9499  0.2589  1.5738
12143TIP3   OH257919   2.134   0.996   4.412  0.3535  0.5338 -0.4616
12143TIP3    H157920   2.204   1.054   4.442  2.2454 -1.9270  0.1115
12143TIP3    H257921   2.091   1.046   4.341  0.1469  3.6626  1.6513
12144TIP3   OH257922   6.432   1.513  11.964 -0.0372 -0.1178 -0.0430
12144TIP3    H157923   6.498   1.582  11.950 -0.8797  0.7738  0.2384
12144TIP3    H257924   6.477   1.448  12.018  0.1452  1.2757  1.5910
12145TIP3   OH257925   3.924   1.432   0.022  0.3381  0.1649  0.9463
12145TIP3    H157926   3.878   1.484   0.088 -1.8224  0.2391 -0.4988
12145TIP3    H257927   3.968   1.497  -0.033  0.5261  0.2227  1.1619
12146TIP3   OH257928   5.494   5.425   2.188  0.5076  0.5563  0.1002
12146TIP3    H157929   5.506   5.381   2.104  0.3899  1.6320 -0.4855
12146TIP3    H257930   5.582   5.429   2.225  0.7848  1.3198 -0.6097
12147TIP3   OH257931   2.183   2.838  13.726  0.3448  0.6813 -0.1538
12147TIP3    H157932   2.262   2.851  13.779  0.2558  3.3454 -0.5177
12147TIP3    H257933   2.216   2.810  13.640  1.0119  2.3586 -0.4881
12148TIP3   OH257934   5.526   3.459  10.361  0.1489  0.2233 -0.3834
12148TIP3    H157935   5.525   3.525  10.430 -0.8209  0.7519 -0.8873
12148TIP3    H257936   5.617   3.455  10.333  0.6720 -0.4128  1.3004
12149TIP3   OH257937   4.834   6.922  14.535  0.0596 -0.1619  0.3355
12149TIP3    H157938   4.782   6.989  14.580 -2.1921 -0.2860 -1.8654
12149TIP3    H257939   4.890   6.971  14.476 -0.6825 -0.1376 -0.3662
12150TIP3   OH257940   2.368   3.385  13.286 -0.2294  0.3575 -0.3567
12150TIP3    H157941   2.328   3.314  13.338  0.9330 -0.5444 -0.6599
12150TIP3    H257942   2.397   3.449  13.351 -3.0912  1.6144 -0.1525
12151TIP3   OH257943   3.441   1.038  10.900  0.0524  0.2336 -0.7486
12151TIP3    H157944   3.419   0.976  10.969  0.2607  0.9289 -0.0313
12151TIP3    H257945   3.510   1.093  10.938  1.3160 -0.3720 -2.0858
12152TIP3   OH257946   3.060   1.355   5.407 -0.2499  0.0484  0.4595
12152TIP3    H157947   3.024   1.273   5.373  0.1409 -0.0193  0.1965
12152TIP3    H257948   2.999   1.382   5.476 -1.0314  0.1784 -0.2776
12153TIP3   OH257949   0.420   4.916   0.054 -0.0814 -1.0447  0.1097
12153TIP3    H157950   0.482   4.983   0.026 -1.0739 -0.0363  0.2555
12153TIP3    H257951   0.366   4.900  -0.023  0.3611 -1.9318 -0.0239
12154TIP3   OH257952   4.299   4.340  10.257  0.3824  0.3560  0.1444
12154TIP3    H157953   4.310   4.245  10.249  0.3588  0.2993  0.7033
12154TIP3    H257954   4.368   4.367  10.318 -0.9464  0.3533  1.7441
12155TIP3   OH257955   2.224   0.858  10.554 -0.4937  0.2668  0.0791
12155TIP3    H157956   2.237   0.942  10.598  0.0135  1.0474 -1.4977
12155TIP3    H257957   2.272   0.795  10.608  0.7452  1.3116  0.2455
12156TIP3   OH257958   5.643   4.939  10.812  0.0830  0.3231 -0.0653
12156TIP3    H157959   5.722   4.985  10.837 -0.6348  0.3708  2.3358
12156TIP3    H257960   5.593   5.002  10.759  1.3455  0.4753 -1.1179
12157TIP3   OH257961   0.494   0.886   4.336  0.2441 -0.0253  0.1065
12157TIP3    H157962   0.411   0.933   4.334 -0.3629 -0.9660 -3.5247
12157TIP3    H257963   0.485   0.816   4.272  3.5039 -0.8106  0.2834
12158TIP3   OH257964   5.548   3.145   2.503  0.4076 -0.4475  0.3671
12158TIP3    H157965   5.642   3.137   2.490  0.3408 -1.6510  0.4539
12158TIP3    H257966   5.530   3.092   2.580 -0.5933 -1.9217 -0.8185
12159TIP3   OH257967   0.874   2.224   2.441  0.0115  0.0189  0.1945
12159TIP3    H157968   0.780   2.230   2.461 -0.0118  1.6827 -0.2794
12159TIP3    H257969   0.890   2.130   2.431 -2.5094 -0.2089 -3.7823
12160TIP3   OH257970   1.689   2.377  10.066  0.3601 -0.1744 -0.0755
12160TIP3    H157971   1.702   2.354   9.974  0.7860 -0.8879  0.1505
12160TIP3    H257972   1.751   2.321  10.113 -1.1653 -1.2155  0.7891
12161TIP3   OH257973   0.642   3.243   0.616 -0.5913 -0.3835  0.2888
12161TIP3    H157974   0.573   3.253   0.682 -0.1850  1.8059  0.4618
12161TIP3    H257975   0.601   3.268   0.534 -0.9766 -2.7034 -0.3054
12162TIP3   OH257976   4.187   5.618   0.004 -0.0407  0.4112  0.6211
12162TIP3    H157977   4.210   5.667  -0.076  0.9058  1.2614  1.3708
12162TIP3    H257978   4.180   5.527  -0.025  1.0671  0.5876 -0.3044
12163TIP3   OH257979   4.736   1.276   5.931 -0.4267  0.0661 -0.1405
12163TIP3    H157980   4.661   1.222   5.959 -0.0755  0.3014  1.3057
12163TIP3    H257981   4.770   1.230   5.854 -1.2869 -0.7398 -0.0648
12164TIP3   OH257982   5.927   2.550   2.430 -0.2035 -0.1122  0.7367
12164TIP3    H157983   5.974   2.486   2.484 -0.5292  0.7590  2.1146
12164TIP3    H257984   5.973   2.550   2.347 -0.4065 -2.3959  0.5553
12165TIP3   OH257985   5.040   6.152   1.357 -0.0509 -0.1556  0.3850
12165TIP3    H157986   5.103   6.111   1.298 -1.2274 -2.0563  0.3534
12165TIP3    H257987   5.093   6.191   1.426  1.2042 -0.8125 -0.1711
12166TIP3   OH257988   3.130   5.691   2.351  0.0567 -0.2305 -0.3770
12166TIP3    H157989   3.143   5.745   2.429 -0.2821 -1.6859  0.7149
12166TIP3    H257990   3.092   5.610   2.384 -3.1321  0.2818 -2.3688
12167TIP3   OH257991   5.422   5.784   1.984 -0.4175 -0.2076  0.3391
12167TIP3    H157992   5.398   5.747   1.899 -1.9617 -0.1894  0.7220
12167TIP3    H257993   5.354   5.751   2.044 -0.1314  0.8560  1.2772
12168TIP3   OH257994   4.215   5.486  13.121  0.2725 -0.4334  0.1825
12168TIP3    H157995   4.226   5.509  13.213  0.6818  0.5531 -0.0908
12168TIP3    H257996   4.121   5.470  13.111  0.0171  0.7674  0.4998
12169TIP3   OH257997   7.117   6.290  13.043  0.1369 -0.1540 -0.6554
12169TIP3    H157998   7.168   6.236  13.103  1.3008 -0.8663 -2.2225
12169TIP3    H257999   7.091   6.230  12.973 -0.9223  0.7135 -1.0377
12170TIP3   OH258000   2.717   6.111   3.681  0.6786  0.9793 -0.0136
12170TIP3    H158001   2.623   6.102   3.701  0.8705 -1.7102  0.0734
12170TIP3    H258002   2.724   6.197   3.639 -2.0497  0.7742 -1.1467
12171TIP3   OH258003   0.207   3.256   0.369 -0.3885 -0.2015 -0.4433
12171TIP3    H158004   0.226   3.322   0.303  0.3691  0.8875  0.8166
12171TIP3    H258005   0.237   3.174   0.329 -2.6089 -0.0743 -2.5772
12172TIP3   OH258006   1.429   7.192   4.029  0.5168  0.2479 -0.9459
12172TIP3    H158007   1.372   7.170   3.955 -0.2074 -0.3824 -0.2233
12172TIP3    H258008   1.483   7.265   3.998  0.2769 -0.0626 -2.1122
12173TIP3   OH258009   5.276   4.136   2.883  0.3433 -0.2742  0.1684
12173TIP3    H158010   5.255   4.190   2.806 -1.0543 -1.0154 -0.0055
12173TIP3    H258011   5.347   4.079   2.853  1.5500  1.1198  0.2232
12174TIP3   OH258012   2.082   0.924   1.677 -0.1060  0.6349 -0.5733
12174TIP3    H158013   2.162   0.927   1.624 -0.3510  0.7941 -0.9373
12174TIP3    H258014   2.113   0.903   1.765  0.6264  3.0125 -0.1773
12175TIP3   OH258015   4.176   2.134  14.212 -0.2273  0.5206 -0.2813
12175TIP3    H158016   4.170   2.126  14.117  0.6219  0.5194 -0.3339
12175TIP3    H258017   4.121   2.063  14.245  0.2942 -0.1161 -0.7719
12176TIP3   OH258018   7.201   5.343   4.117  0.2617 -0.3799  0.0877
12176TIP3    H158019   7.212   5.266   4.062 -0.7831  0.6996 -1.7281
12176TIP3    H258020   7.205   5.309   4.207 -0.2387 -2.5288 -0.6449
12177TIP3   OH258021   3.065   6.303   4.068  0.1133  0.1134 -0.5625
12177TIP3    H158022   3.121   6.379   4.052  2.9515 -1.5349  0.7961
12177TIP3    H258023   3.041   6.272   3.980  1.9354  0.5093 -1.2423
12178TIP3   OH258024   2.810   7.148  10.573 -0.1835  0.0908 -0.3426
12178TIP3    H158025   2.809   7.101  10.656 -0.2865 -0.3473 -0.5881
12178TIP3    H258026   2.854   7.089  10.512  0.8528  0.8456 -0.3543
12179TIP3   OH258027   1.865   7.148   0.647 -0.0312  0.3180  0.0136
12179TIP3    H158028   1.867   7.202   0.725 -1.3056 -0.5331  0.6585
12179TIP3    H258029   1.907   7.066   0.673 -0.5200  0.0051 -0.1676
12180TIP3   OH258030   4.284   2.645   4.214  0.1952  0.0872 -0.0474
12180TIP3    H158031   4.370   2.686   4.209  0.9796 -1.4262  0.4160
12180TIP3    H258032   4.292   2.566   4.160 -0.6322 -0.5128  0.6790
12181TIP3   OH258033   1.630   5.232  14.050  0.1085 -0.5347  0.4203
12181TIP3    H158034   1.661   5.228  14.140 -0.1781  1.1957  0.6378
12181TIP3    H258035   1.534   5.229  14.058  0.0758 -0.1444  0.2002
12182TIP3   OH258036   6.923   6.341  13.965 -0.1123  0.5865  0.4588
12182TIP3    H158037   6.844   6.350  13.912  1.0375  1.1954 -1.2350
12182TIP3    H258038   6.901   6.383  14.048 -1.4444  1.0786 -0.1155
12183TIP3   OH258039   2.291   4.628  11.228  0.0195 -0.0032 -0.0403
12183TIP3    H158040   2.367   4.618  11.285 -0.1994  1.2153  0.5065
12183TIP3    H258041   2.234   4.555  11.251  0.7357 -0.5644 -0.0015
12184TIP3   OH258042   5.197   1.004   2.671  0.2584  0.0663  0.2548
12184TIP3    H158043   5.170   0.977   2.583  2.2502 -0.9341 -0.1244
12184TIP3    H258044   5.270   1.065   2.656  0.7559 -0.2754  1.2003
12185TIP3   OH258045   3.781   5.350  14.091 -0.7350 -0.1528  0.0467
12185TIP3    H158046   3.802   5.437  14.058 -4.1617  0.4980 -0.8209
12185TIP3    H258047   3.817   5.348  14.179 -0.5446  2.1306  0.0756
12186TIP3   OH258048   5.392   7.011   0.796  0.0792 -0.4757  0.1714
12186TIP3    H158049   5.329   7.080   0.820 -0.2049 -0.5920 -0.2410
12186TIP3    H258050   5.469   7.030   0.851 -0.4009 -0.4836  0.8650
12187TIP3   OH258051   6.564   5.267   0.429 -0.1529 -0.5295 -0.2195
12187TIP3    H158052   6.638   5.215   0.398  0.4042  0.4284 -0.5381
12187TIP3    H258053   6.538   5.225   0.511 -0.7335 -2.2443 -1.2547
12188TIP3   OH258054   0.608   2.155   0.074  0.2432 -0.2494 -0.3255
12188TIP3    H158055   0.596   2.073   0.120 -1.0233 -0.8107 -1.5828
12188TIP3    H258056   0.639   2.217   0.141 -1.1254 -1.1135  1.1566
12189TIP3   OH258057   4.027   3.369  12.814  0.0144  0.5562  0.5697
12189TIP3    H158058   3.957   3.432  12.829  0.1339  0.9016 -0.2403
12189TIP3    H258059   3.987   3.284  12.831 -1.3967  0.5090 -2.2560
12190TIP3   OH258060   0.423   0.601  14.267  0.2830  0.4980 -0.6599
12190TIP3    H158061   0.388   0.513  14.280 -0.5600  1.0197  0.8859
12190TIP3    H258062   0.354   0.647  14.218 -0.3399  0.9466  0.6015
12191TIP3   OH258063   0.028   2.469  12.197 -0.8158 -0.6535 -0.1391
12191TIP3    H158064   0.025   2.506  12.285  2.0606 -0.7440  0.0845
12191TIP3    H258065   0.098   2.404  12.201  2.3735  2.1820 -3.4199
12192TIP3   OH258066   1.938   0.659   4.136  0.3122 -0.4267  0.1026
12192TIP3    H158067   2.015   0.707   4.106  1.3386 -1.7168  0.6109
12192TIP3    H258068   1.961   0.627   4.223 -1.2165  0.0747  0.7418
12193TIP3   OH258069   4.764   4.575  13.564 -0.5402 -0.4828  0.4282
12193TIP3    H158070   4.762   4.538  13.476 -2.2616  1.8756 -0.6353
12193TIP3    H258071   4.857   4.583  13.584  0.1166  2.1535 -2.7547
12194TIP3   OH258072   4.408   4.507  10.981 -0.2043  0.3488  0.3286
12194TIP3    H158073   4.402   4.412  10.974 -0.3855  0.4024 -0.2684
12194TIP3    H258074   4.318   4.538  10.968 -0.0092  0.6513 -0.3731
12195TIP3   OH258075   7.190   1.765  13.016  0.3945  0.5994 -0.1568
12195TIP3    H158076   7.170   1.727  13.102  1.2757 -1.1895 -0.6924
12195TIP3    H258077   7.285   1.773  13.015  0.4328  0.1888 -1.1128
12196TIP3   OH258078   0.701   5.538  10.672 -0.4956  0.1568  0.2951
12196TIP3    H158079   0.775   5.533  10.611 -0.5715 -0.4068  0.2447
12196TIP3    H258080   0.673   5.447  10.684 -0.2558  0.2109  1.4398
12197TIP3   OH258081   5.073   5.118  13.949  0.2824  0.0557  0.2573
12197TIP3    H158082   5.009   5.175  13.905 -0.3554 -0.5336  0.4166
12197TIP3    H258083   5.142   5.105  13.884  0.3098  0.7943  0.1252
12198TIP3   OH258084   6.237   1.017   2.775  0.6706  0.3676 -0.0299
12198TIP3    H158085   6.226   1.056   2.862  0.0167  0.0431  0.0413
12198TIP3    H258086   6.309   1.066   2.735  0.1942  1.3155  0.2475
12199TIP3   OH258087   6.438   3.733   0.668 -0.0549  0.0763 -0.2007
12199TIP3    H158088   6.344   3.721   0.653 -0.2323  1.8950 -0.8350
12199TIP3    H258089   6.456   3.684   0.748 -1.2232 -1.5043 -0.8483
12200TIP3   OH258090   1.184   0.005   3.821 -0.8030  0.0823 -0.3643
12200TIP3    H158091   1.209  -0.053   3.749  0.2081  0.5010 -0.3651
12200TIP3    H258092   1.189   0.093   3.783 -0.8955  0.2656  0.0426
12201TIP3   OH258093   1.358   5.512  14.062  0.1745  0.5247 -0.4198
12201TIP3    H158094   1.449   5.542  14.066 -0.2136  1.5858  1.0595
12201TIP3    H258095   1.355   5.437  14.121  0.1797  0.1775 -0.8516
12202TIP3   OH258096   3.783   4.910   3.270 -0.4620  0.3248 -0.2734
12202TIP3    H158097   3.857   4.964   3.299  0.2098 -1.7366  2.1915
12202TIP3    H258098   3.813   4.871   3.187  1.0540 -0.0734  0.4212
12203TIP3   OH258099   3.730   6.361  15.010  0.1424  0.7634  0.0956
12203TIP3    H158100   3.819   6.351  15.042 -0.9935 -0.5671  3.1767
12203TIP3    H258101   3.702   6.447  15.041 -0.8540 -0.3985  2.6452
12204TIP3   OH258102   2.487   2.497   3.585 -0.1217 -0.4444 -0.1829
12204TIP3    H158103   2.532   2.439   3.647  0.0842 -0.3186 -0.2141
12204TIP3    H258104   2.506   2.459   3.499 -1.9618 -1.7189 -0.0806
12205TIP3   OH258105   1.314   5.192   0.788  0.0085 -0.0588  0.1111
12205TIP3    H158106   1.242   5.135   0.816 -0.4427  0.0156 -0.8517
12205TIP3    H258107   1.366   5.138   0.729  0.2671  0.1450  0.1525
12206TIP3   OH258108   0.685   5.972   9.433  0.9703  0.0842  0.3607
12206TIP3    H158109   0.634   6.036   9.383  1.2112  0.3605  0.4589
12206TIP3    H258110   0.629   5.895   9.438 -0.0518  0.8560  1.6715
12207TIP3   OH258111   5.039   0.627  12.148 -0.0383 -0.0495 -0.2000
12207TIP3    H158112   4.943   0.620  12.148 -0.2431  1.7496 -2.2141
12207TIP3    H258113   5.067   0.560  12.085  0.1164 -0.9302  0.7697
12208TIP3   OH258114   2.566   1.788   1.118 -0.3517  0.3561  0.5110
12208TIP3    H158115   2.482   1.744   1.130 -0.0166 -0.5741 -0.4322
12208TIP3    H258116   2.570   1.806   1.024  0.5492  0.2907  0.5310
12209TIP3   OH258117   1.053   5.636   2.170 -0.3417 -0.3963  0.6092
12209TIP3    H158118   1.069   5.675   2.256  0.2538 -1.9865  1.2630
12209TIP3    H258119   1.099   5.693   2.109 -1.5264  1.2800  1.2003
12210TIP3   OH258120   5.833   6.029  10.414 -0.1159  0.1493 -0.6240
12210TIP3    H158121   5.819   6.112  10.460 -2.4318 -0.6446  0.2229
12210TIP3    H258122   5.747   6.005  10.380  0.3113 -2.3228 -0.1336
12211TIP3   OH258123   6.836   0.442   9.444 -0.4258 -0.2593  0.2547
12211TIP3    H158124   6.754   0.393   9.440 -0.0804 -1.0186  1.6624
12211TIP3    H258125   6.862   0.454   9.353 -1.4334 -1.1609 -0.1691
12212TIP3   OH258126   2.062   0.496   5.859  0.8424 -0.2066  0.4092
12212TIP3    H158127   1.998   0.449   5.805  1.8484  1.0556 -2.0556
12212TIP3    H258128   2.014   0.573   5.890  0.5130 -0.4562  0.5285
12213TIP3   OH258129   4.082   3.737   5.765 -0.3353 -0.0950  0.2711
12213TIP3    H158130   4.086   3.658   5.712 -0.8455  0.4684 -0.6463
12213TIP3    H258131   4.083   3.706   5.856  0.5766 -1.0780 -0.0643
12214TIP3   OH258132   2.556   4.283   3.102 -0.0198  0.1067  0.2099
12214TIP3    H158133   2.514   4.253   3.183 -0.1985 -0.5755 -0.1267
12214TIP3    H258134   2.483   4.316   3.048  0.2372  1.7204  0.8021
12215TIP3   OH258135   4.251   6.332  11.850 -0.0687  0.5305  0.0812
12215TIP3    H158136   4.266   6.299  11.938  0.8100  1.9444  0.4912
12215TIP3    H258137   4.178   6.393  11.859 -1.2269 -0.6971 -0.5464
12216TIP3   OH258138   6.494   4.658   1.941  0.0652  0.2318 -0.4097
12216TIP3    H158139   6.584   4.684   1.958 -0.1246  1.2433 -0.8629
12216TIP3    H258140   6.450   4.739   1.914 -0.1985 -0.8113 -3.4539
12217TIP3   OH258141   2.436   5.421  14.761 -0.3063  0.1464  0.0199
12217TIP3    H158142   2.390   5.377  14.833  2.0792 -1.9989  0.3453
12217TIP3    H258143   2.416   5.368  14.684  0.3821  0.0750 -0.1120
12218TIP3   OH258144   7.003   6.246   0.589 -0.3730 -0.1764  0.4105
12218TIP3    H158145   7.075   6.294   0.630 -0.3104  1.0396 -1.0356
12218TIP3    H258146   6.954   6.313   0.542 -0.3872 -1.4917 -1.5558
12219TIP3   OH258147   2.889   3.975  12.777  0.1890 -0.2812 -0.5023
12219TIP3    H158148   2.981   3.959  12.797  0.3918  0.5566 -0.7257
12219TIP3    H258149   2.841   3.933  12.849  0.8116  0.7594  0.5524
12220TIP3   OH258150   0.068   3.230  14.086  0.3663  0.5674 -0.0649
12220TIP3    H158151   0.153   3.187  14.094  0.5621  0.8708 -0.4918
12220TIP3    H258152   0.027   3.189  14.010 -0.2026 -0.1303  0.5970
12221TIP3   OH258153   5.809   4.309   0.517 -0.0843  0.4139 -0.2861
12221TIP3    H158154   5.734   4.297   0.574  0.2032 -3.2528 -0.4765
12221TIP3    H258155   5.771   4.332   0.432 -1.0729 -1.4452 -0.3925
12222TIP3   OH258156   3.856   1.923   5.331 -0.1255 -0.1573  0.5513
12222TIP3    H158157   3.765   1.932   5.359 -0.3685 -0.3273 -0.1770
12222TIP3    H258158   3.900   1.999   5.368 -0.6407  0.1297  0.5816
12223TIP3   OH258159   6.242   0.636  12.022 -0.7139 -0.3122 -0.0829
12223TIP3    H158160   6.280   0.556  11.984 -2.0592 -1.1320  0.2337
12223TIP3    H258161   6.301   0.658  12.094 -1.0551 -1.8198  0.6990
12224TIP3   OH258162   2.573   0.120  13.820  0.1046 -0.1488  0.2522
12224TIP3    H158163   2.520   0.053  13.775  0.9012 -0.6494  0.0291
12224TIP3    H258164   2.640   0.070  13.866  0.1054  0.4497  0.9144
12225TIP3   OH258165   0.899   3.328   0.714  0.2657 -0.1206 -0.4133
12225TIP3    H158166   0.808   3.315   0.689 -0.1032 -0.5020  1.0140
12225TIP3    H258167   0.923   3.249   0.762  1.1220  0.2698 -0.1644
12226TIP3   OH258168   6.893   7.019  15.122 -0.0722  0.1465  0.0927
12226TIP3    H158169   6.918   6.949  15.061 -0.9898 -0.8811  0.8569
12226TIP3    H258170   6.938   6.996  15.203 -0.5649  0.3305  0.4154
12227TIP3   OH258171   4.725   2.353   2.375 -0.0227  0.0574  0.3890
12227TIP3    H158172   4.771   2.367   2.293 -0.7597  2.5778  0.3135
12227TIP3    H258173   4.791   2.321   2.435  1.1158  0.5977 -0.5443
12228TIP3   OH258174   1.891   6.736  13.003 -0.3588  0.2016 -0.1502
12228TIP3    H158175   1.854   6.651  13.024 -1.0625 -0.2637 -2.9027
12228TIP3    H258176   1.828   6.799  13.040  0.0538 -0.4060  1.6977
12229TIP3   OH258177   5.785   0.249  11.434 -0.8485 -0.1411 -0.1850
12229TIP3    H158178   5.820   0.175  11.484  1.0203 -0.8670 -2.4188
12229TIP3    H258179   5.845   0.321  11.452  0.8056 -0.8321 -2.4251
12230TIP3   OH258180   6.312   4.858   1.903 -0.8649  0.0030  0.0152
12230TIP3    H158181   6.329   4.950   1.925 -2.0961 -0.2582  2.3887
12230TIP3    H258182   6.218   4.856   1.884 -1.5535 -1.1801  2.9924
12231TIP3   OH258183   4.445   0.169   1.237 -0.0238  0.6015 -0.1557
12231TIP3    H158184   4.534   0.136   1.248  0.2538  0.6608 -1.8427
12231TIP3    H258185   4.444   0.252   1.284  0.4827  0.1125  0.7561
12232TIP3   OH258186   2.441   6.693   3.308 -0.0127 -0.5593 -0.3581
12232TIP3    H158187   2.391   6.772   3.325  2.0476  0.8593 -0.5753
12232TIP3    H258188   2.422   6.636   3.383 -1.1014  0.3443  0.0711
12233TIP3   OH258189   0.471   6.524   4.553 -0.3853  0.2250 -0.1863
12233TIP3    H158190   0.508   6.440   4.579 -0.8545  0.3950  1.0899
12233TIP3    H258191   0.450   6.568   4.635  0.9295  2.1012 -0.7858
12234TIP3   OH258192   0.395   2.621   5.676  0.1138 -0.2381  0.0338
12234TIP3    H158193   0.405   2.690   5.610  0.3833 -0.3222 -0.0144
12234TIP3    H258194   0.313   2.642   5.720 -0.5077 -0.6667 -0.8953
12235TIP3   OH258195   2.636   3.599   2.406  0.0581  0.2163 -0.6779
12235TIP3    H158196   2.681   3.579   2.325 -0.0062  0.2253 -0.7158
12235TIP3    H258197   2.620   3.514   2.448 -0.5044  0.1603 -0.9917
12236TIP3   OH258198   2.405   0.922  13.869  0.4085 -0.1069 -0.2391
12236TIP3    H158199   2.499   0.912  13.884  0.0993 -1.3590  1.1663
12236TIP3    H258200   2.382   1.003  13.914  0.5983 -0.5373  0.6594
12237TIP3   OH258201   5.894   6.521  11.662 -0.5659  0.5690  0.1395
12237TIP3    H158202   5.900   6.426  11.657 -2.3662  0.4557 -0.4556
12237TIP3    H258203   5.906   6.551  11.572 -1.4442  0.7916  0.0883
12238TIP3   OH258204   5.900   3.837  11.812  0.7284 -0.4462 -0.2784
12238TIP3    H158205   5.949   3.830  11.894 -0.4043  1.9349  0.6897
12238TIP3    H258206   5.811   3.858  11.839  0.6862  2.1361 -2.1057
12239TIP3   OH258207   3.916   4.908   0.652  0.1659 -0.2805 -0.2706
12239TIP3    H158208   3.827   4.900   0.617 -0.0048  0.8362 -0.1465
12239TIP3    H258209   3.918   4.996   0.691  1.2246 -0.4211  0.0168
12240TIP3   OH258210   1.207   4.869   2.681  0.0267 -0.0924 -0.0472
12240TIP3    H158211   1.185   4.801   2.744 -0.5942 -0.6715 -0.8678
12240TIP3    H258212   1.238   4.822   2.604  0.0364  0.5680 -0.4595
12241TIP3   OH258213   0.409   4.748   0.233 -0.1872 -0.2996  0.0877
12241TIP3    H158214   0.329   4.700   0.213  0.7718 -0.9923 -2.3582
12241TIP3    H258215   0.432   4.792   0.152  2.4533 -0.9570  0.3872
12242TIP3   OH258216   3.771   3.430  12.854  0.3976  0.0311  0.6115
12242TIP3    H158217   3.797   3.409  12.943 -1.3141 -2.5909  0.5805
12242TIP3    H258218   3.686   3.473  12.862  1.3426  2.0982  0.3094
12243TIP3   OH258219   5.135   1.551   3.548  0.1596 -0.7481  0.1664
12243TIP3    H158220   5.095   1.628   3.589  1.7069  0.0164  0.3219
12243TIP3    H258221   5.179   1.506   3.620  1.9201 -0.0243 -0.3797
12244TIP3   OH258222   5.937   0.942   0.419 -0.1747  0.1818 -0.1314
12244TIP3    H158223   6.025   0.935   0.381  0.5381 -0.8314  1.5847
12244TIP3    H258224   5.880   0.898   0.355  0.7870 -0.3911 -0.6253
12245TIP3   OH258225   0.467   0.909   4.715 -0.0688  0.1927  0.0382
12245TIP3    H158226   0.528   0.868   4.777 -0.5393  0.4684  0.6905
12245TIP3    H258227   0.513   0.987   4.685  1.2209 -1.2163 -1.9062
12246TIP3   OH258228   6.841   5.681  12.814 -0.5804 -0.5796  0.1007
12246TIP3    H158229   6.823   5.608  12.756  2.1466 -0.3863 -1.1315
12246TIP3    H258230   6.843   5.643  12.902 -0.7743 -1.6435 -0.3476
12247TIP3   OH258231   7.183   0.139  13.353 -0.0261  0.0694 -0.3184
12247TIP3    H158232   7.127   0.188  13.293 -0.4701 -0.2011 -0.1296
12247TIP3    H258233   7.272   0.157  13.323 -0.2307  0.1885 -0.8612
12248TIP3   OH258234   4.329   3.750  11.399 -0.0749 -0.2260 -0.1066
12248TIP3    H158235   4.237   3.744  11.374 -0.1814 -1.0618  0.4694
12248TIP3    H258236   4.370   3.673  11.359 -0.0409 -1.0048  1.3493
12249TIP3   OH258237   0.143   2.075   2.352  0.2089  0.0181 -0.4404
12249TIP3    H158238   0.063   2.121   2.378 -0.3176 -0.6298 -0.9073
12249TIP3    H258239   0.194   2.142   2.305 -0.5059  0.1677 -1.0240
12250TIP3   OH258240   3.466   5.288  13.765  0.6279  0.3914  0.8679
12250TIP3    H158241   3.381   5.312  13.730  0.4072  0.3568  1.3744
12250TIP3    H258242   3.454   5.288  13.860  0.3269 -2.6521  0.9390
12251TIP3   OH258243   2.520   4.548   4.703 -0.1134  0.2474  0.0375
12251TIP3    H158244   2.591   4.612   4.700  1.6123 -1.6266 -1.7807
12251TIP3    H258245   2.442   4.600   4.724  1.8010  2.2862  2.6354
12252TIP3   OH258246   6.019   0.943   4.937  0.0588  0.1225 -0.1045
12252TIP3    H158247   6.043   0.985   4.855  0.7134 -0.6749 -0.3321
12252TIP3    H258248   6.078   0.981   5.002 -0.1712  0.4362 -0.0742
12253TIP3   OH258249   1.662   2.055  13.848 -0.4660 -0.0913 -0.2074
12253TIP3    H158250   1.680   2.031  13.757 -2.3761 -1.5179 -0.2814
12253TIP3    H258251   1.641   2.149  13.844 -1.7001 -0.3893 -1.4598
12254TIP3   OH258252   5.011   4.602  14.088 -0.5044  0.5179  0.1679
12254TIP3    H158253   5.083   4.639  14.038 -0.7940 -0.2227 -0.8325
12254TIP3    H258254   4.935   4.655  14.065 -1.3285 -1.6620 -2.7103
12255TIP3   OH258255   2.035   3.273  12.247 -0.0835 -0.2133  0.0245
12255TIP3    H158256   2.015   3.303  12.336 -1.4941 -0.9355 -0.0133
12255TIP3    H258257   1.971   3.317  12.191  1.6674  1.3359 -0.8911
12256TIP3   OH258258   1.143   3.544  14.597  0.4104 -0.0328 -0.0966
12256TIP3    H158259   1.075   3.487  14.635  1.3348 -0.5787  0.7732
12256TIP3    H258260   1.170   3.499  14.517  0.1913 -0.1235 -0.1222
12257TIP3   OH258261   4.987   3.354  14.940 -0.3680 -0.5163 -0.3196
12257TIP3    H158262   4.899   3.336  14.974  0.4735 -3.0608  0.6961
12257TIP3    H258263   5.030   3.400  15.012 -0.1545 -1.3808  0.1140
12258TIP3   OH258264   2.332   3.771   9.902 -0.3080  0.0681 -0.0556
12258TIP3    H158265   2.332   3.777   9.807 -2.7574 -1.3580 -0.2136
12258TIP3    H258266   2.403   3.711   9.923  2.7112  3.1159 -0.5999
12259TIP3   OH258267   3.076   1.835  14.592  0.4370  0.2432  0.7361
12259TIP3    H158268   3.076   1.792  14.506 -1.3477 -1.3870  1.4862
12259TIP3    H258269   3.148   1.794  14.640  0.0779 -0.3790  0.7395
12260TIP3   OH258270   4.656   3.319   4.515  0.1409 -0.2556 -0.0757
12260TIP3    H158271   4.634   3.259   4.587 -1.5719 -1.7191 -1.6990
12260TIP3    H258272   4.591   3.389   4.523 -0.0439 -0.4131 -0.1653
12261TIP3   OH258273   4.584   3.011   1.025 -0.2098  0.8219  0.0866
12261TIP3    H158274   4.518   3.062   1.072 -1.5430 -2.9632  2.8091
12261TIP3    H258275   4.536   2.935   0.991  2.3335 -0.9577  0.2043
12262TIP3   OH258276   3.082   0.450   9.741 -0.0255  0.1589 -0.0332
12262TIP3    H158277   3.117   0.419   9.658 -0.4141  0.8521 -0.4676
12262TIP3    H258278   3.150   0.507   9.777  1.0789 -1.8335  1.2052
12263TIP3   OH258279   5.037   7.027  11.997 -0.0734  0.6476  0.4829
12263TIP3    H158280   5.102   6.967  12.033  0.2182 -0.9225 -2.3823
12263TIP3    H258281   4.960   7.015  12.053  0.9466 -0.1090  1.7816
12264TIP3   OH258282   5.487   5.694  10.383 -0.2286 -0.5122 -0.1209
12264TIP3    H158283   5.468   5.718  10.474 -0.4642  2.1116 -0.7927
12264TIP3    H258284   5.580   5.711  10.372 -0.1542 -1.0244 -0.3264
12265TIP3   OH258285   0.153   1.875   4.954  0.4408 -0.0672  0.0020
12265TIP3    H158286   0.124   1.784   4.942  0.0880  0.2433 -1.7004
12265TIP3    H258287   0.245   1.868   4.977  0.6575 -0.8488 -1.0263
12266TIP3   OH258288   2.419   2.311   6.001 -0.0814  0.3712  0.4294
12266TIP3    H158289   2.501   2.351   6.030 -0.0158 -1.0436  2.3945
12266TIP3    H258290   2.360   2.320   6.076 -0.8314 -1.0041  0.0454
12267TIP3   OH258291   6.517   2.306  13.011 -0.3802 -0.5406 -0.7527
12267TIP3    H158292   6.443   2.282  13.067 -1.2251 -0.1219 -1.6735
12267TIP3    H258293   6.565   2.371  13.062 -0.3153 -1.2302  0.0884
12268TIP3   OH258294   2.982   2.948  15.091 -0.4827  0.2862 -0.6967
12268TIP3    H158295   3.070   2.916  15.072 -0.7610 -0.7841 -0.2695
12268TIP3    H258296   2.965   2.920  15.181 -2.1088 -1.5802 -1.5004
12269TIP3   OH258297   4.612   6.699   4.638 -0.3306  0.6089  0.4879
12269TIP3    H158298   4.615   6.669   4.729 -2.1332 -0.8419  0.1182
12269TIP3    H258299   4.687   6.758   4.630  0.6128 -0.2082  2.5587
12270TIP3   OH258300   3.643   3.699   1.334 -0.2257  0.0267 -0.1055
12270TIP3    H158301   3.551   3.689   1.311  0.2439 -1.9203 -1.4200
12270TIP3    H258302   3.643   3.710   1.429 -1.8784  1.9347 -0.2604
12271TIP3   OH258303   6.033   4.345   5.586 -0.2053  0.5038  0.6873
12271TIP3    H158304   5.972   4.273   5.593 -0.6813  0.8219 -0.0553
12271TIP3    H258305   6.080   4.329   5.504 -1.1861  1.6684 -0.1509
12272TIP3   OH258306   3.528   1.225   1.193  0.1504  0.5236 -0.0194
12272TIP3    H158307   3.456   1.179   1.150 -0.6398  0.9475  0.8012
12272TIP3    H258308   3.577   1.265   1.122  1.0927 -1.8680 -0.7950
12273TIP3   OH258309   1.361   5.996   0.477  0.7345 -0.2330 -0.2841
12273TIP3    H158310   1.343   5.933   0.547 -2.2287 -0.6767 -1.2984
12273TIP3    H258311   1.408   5.946   0.410 -0.5347 -1.0887 -0.5639
12274TIP3   OH258312   1.021   5.635   1.036 -1.0753 -0.4869 -0.1835
12274TIP3    H158313   1.116   5.632   1.049 -0.9841  0.4817 -0.5608
12274TIP3    H258314   0.985   5.597   1.116 -0.3663 -1.3396 -0.2474
12275TIP3   OH258315   5.339   2.216  11.373 -0.0585  0.3489  0.6205
12275TIP3    H158316   5.266   2.233  11.432 -0.2234 -0.5424  0.6909
12275TIP3    H258317   5.405   2.282  11.396 -0.2135  0.1561  1.6455
12276TIP3   OH258318   3.544   0.745   2.786  0.1107  0.0774 -0.0735
12276TIP3    H158319   3.511   0.663   2.823  0.8335 -0.3520 -0.3471
12276TIP3    H258320   3.466   0.793   2.761 -0.3522 -0.1822  0.8120
12277TIP3   OH258321   4.492   7.193  14.036  0.6876 -0.0368  0.1718
12277TIP3    H158322   4.398   7.208  14.026  0.1608 -1.4264  2.2713
12277TIP3    H258323   4.507   7.108  13.995  0.8087 -0.2871  0.7254
12278TIP3   OH258324   0.617   4.095  15.295 -0.3843  0.0419  0.4217
12278TIP3    H158325   0.532   4.052  15.286 -0.4854  0.5393 -1.6049
12278TIP3    H258326   0.680   4.023  15.303 -0.7768 -0.4355 -0.6139
12279TIP3   OH258327   4.375   3.140   3.390  0.3759 -0.1118  0.4336
12279TIP3    H158328   4.301   3.089   3.423  0.6971 -0.8864 -0.0208
12279TIP3    H258329   4.447   3.120   3.450  0.2303  0.6536  0.8854
12280TIP3   OH258330   6.129   0.211   1.322 -0.6496  0.0907  0.0781
12280TIP3    H158331   6.144   0.124   1.286 -1.0819 -0.8141  1.9783
12280TIP3    H258332   6.052   0.201   1.378 -0.8511  1.7677  0.1574
12281TIP3   OH258333   5.397   6.249  14.171  0.3244 -0.5317 -0.0856
12281TIP3    H158334   5.471   6.193  14.148 -0.7681 -1.7325 -0.8392
12281TIP3    H258335   5.436   6.333  14.193  1.8308 -0.8359 -1.4459
12282TIP3   OH258336   4.089   6.613   0.973 -0.9422  0.4541 -0.1291
12282TIP3    H158337   4.150   6.683   0.997 -2.3135  1.7882 -0.3388
12282TIP3    H258338   4.024   6.612   1.043 -0.9505 -0.6246 -0.1376
12283TIP3   OH258339   4.487   5.789   1.206 -0.0743 -0.5403 -0.1670
12283TIP3    H158340   4.476   5.842   1.127 -0.9576 -1.5508 -0.7572
12283TIP3    H258341   4.551   5.836   1.258  0.5097  0.1760 -1.4791
12284TIP3   OH258342   3.315   3.566   9.781 -0.8279  0.1431  0.1309
12284TIP3    H158343   3.351   3.614   9.707  0.6507  0.7566  1.2006
12284TIP3    H258344   3.369   3.487   9.786 -0.7834  0.2038  0.6672
12285TIP3   OH258345   3.953   6.978   1.678 -0.5056 -0.3920 -0.4202
12285TIP3    H158346   3.935   6.925   1.600 -0.8301 -1.8658  0.6113
12285TIP3    H258347   3.879   6.960   1.737  0.0676  0.1648  0.4937
12286TIP3   OH258348   2.819   2.140   2.680  0.5304 -1.0793 -0.3133
12286TIP3    H158349   2.735   2.109   2.715  0.0590 -0.8116 -1.1854
12286TIP3    H258350   2.808   2.138   2.585  1.6457 -1.3873 -0.4514
12287TIP3   OH258351   6.327   5.036  14.388  0.1843  0.3859  0.0390
12287TIP3    H158352   6.299   5.127  14.387  1.5626  0.9367 -3.3694
12287TIP3    H258353   6.419   5.040  14.415  0.4722  0.1418 -0.8651
12288TIP3   OH258354   2.687   4.001  11.867  0.1412  0.1643  0.1455
12288TIP3    H158355   2.674   3.933  11.801  0.8670  0.6017 -0.4537
12288TIP3    H258356   2.734   3.957  11.937 -0.6731 -0.3138  0.4139
12289TIP3   OH258357   3.322   0.021  14.288 -0.1292 -0.0464  0.4558
12289TIP3    H158358   3.275   0.104  14.279  1.1536  0.8341  1.3362
12289TIP3    H258359   3.258  -0.040  14.324 -1.1210  0.5335 -0.3037
12290TIP3   OH258360   1.028   0.044  10.476  0.9905 -0.7940  0.0618
12290TIP3    H158361   0.934   0.050  10.492  0.3177 -0.5381 -3.1637
12290TIP3    H258362   1.052  -0.045  10.502  0.5808 -0.0156  3.5660
12291TIP3   OH258363   3.228   3.086  11.339 -0.0812  0.1510 -0.2960
12291TIP3    H158364   3.211   2.995  11.314  0.0095 -0.0471  0.3280
12291TIP3    H258365   3.303   3.081  11.399  1.7748  0.9187 -2.3757
12292TIP3   OH258366   2.363   2.814   4.961  0.4424 -0.0542  0.4215
12292TIP3    H158367   2.306   2.889   4.975  0.1648  0.0264 -0.9773
12292TIP3    H258368   2.394   2.790   5.048 -1.2983  0.2340  1.1397
12293TIP3   OH258369   6.109   4.618  14.010 -0.2862 -0.5102 -0.6241
12293TIP3    H158370   6.084   4.549  13.948  1.2062 -0.0068 -1.8457
12293TIP3    H258371   6.054   4.693  13.986 -0.3381 -0.5924 -0.7610
12294TIP3   OH258372   0.023   6.947   1.946 -0.0257 -0.3347  0.2603
12294TIP3    H158373  -0.011   6.902   1.869  0.8448 -0.0755 -0.2839
12294TIP3    H258374   0.034   7.038   1.918  0.7255 -0.3308  0.5367
12295TIP3   OH258375   1.463   1.941  11.250 -0.1291 -0.3250 -0.7622
12295TIP3    H158376   1.539   1.913  11.199  0.2503  2.6082 -1.9645
12295TIP3    H258377   1.486   1.920  11.340  1.2568 -1.2411 -1.2947
12296TIP3   OH258378   2.349   6.728  14.472  0.0790 -0.5383  0.1746
12296TIP3    H158379   2.395   6.747  14.553 -0.7357  2.9395 -0.0218
12296TIP3    H258380   2.396   6.778  14.405 -1.6653  0.0098 -0.7118
12297TIP3   OH258381   5.035   5.390   2.422  0.5142  0.0387  0.1187
12297TIP3    H158382   5.021   5.352   2.335  0.4141 -0.5097  0.3644
12297TIP3    H258383   5.130   5.391   2.433  0.6171  1.6444 -0.6439
12298TIP3   OH258384   7.235   2.505   9.401  0.1149 -0.0898 -0.6880
12298TIP3    H158385   7.186   2.437   9.355  0.1240  0.8495 -2.1379
12298TIP3    H258386   7.168   2.555   9.448  0.1113 -1.0872  0.3979
12299TIP3   OH258387   4.146   4.377   6.021 -0.0680 -0.0396  0.0632
12299TIP3    H158388   4.238   4.386   6.045  0.3077 -1.1290 -0.8904
12299TIP3    H258389   4.135   4.284   6.001 -1.0796  0.2783 -1.0025
12300TIP3   OH258390   2.200   6.243  13.332  0.4974  0.1795 -0.3458
12300TIP3    H158391   2.260   6.227  13.260 -0.3897 -0.3106 -0.9968
12300TIP3    H258392   2.239   6.315  13.380  1.5638 -0.0829 -0.7897
12301TIP3   OH258393   6.411   1.262  11.755  0.3668  0.3008  0.3723
12301TIP3    H158394   6.403   1.200  11.827  0.6438 -0.5495 -0.3043
12301TIP3    H258395   6.461   1.335  11.791 -0.1285  0.2150  1.2357
12302TIP3   OH258396   7.065   4.327   1.692  0.2957  0.2654 -0.1629
12302TIP3    H158397   6.978   4.314   1.728  0.2013 -0.0817 -0.5128
12302TIP3    H258398   7.051   4.348   1.600  0.6781 -2.4697 -0.9125
12303TIP3   OH258399   0.989   2.789   2.130  0.3888 -0.1242  0.1259
12303TIP3    H158400   1.023   2.869   2.090 -1.8467 -0.5946 -3.0928
12303TIP3    H258401   0.894   2.802   2.133  0.1259 -1.8706  1.5206
12304TIP3   OH258402   0.216   0.302   3.130 -0.2663  0.6853 -0.7474
12304TIP3    H158403   0.144   0.240   3.123  2.2254 -2.3387 -2.1405
12304TIP3    H258404   0.195   0.356   3.206 -2.2303 -2.4413  1.1191
12305TIP3   OH258405   2.112   1.925   1.162 -0.8369 -0.1768 -0.4355
12305TIP3    H158406   2.036   1.980   1.181  0.1482  1.7182 -1.6903
12305TIP3    H258407   2.176   1.949   1.229 -1.1000 -1.3329  0.2548
12306TIP3   OH258408   1.381   2.339  13.244  0.3371  0.1608  0.0820
12306TIP3    H158409   1.472   2.346  13.274  0.5890 -1.7378 -0.1173
12306TIP3    H258410   1.383   2.270  13.179 -0.9923  1.2623 -1.1789
12307TIP3   OH258411   5.189   4.282   5.059  0.0692 -0.9966  0.0845
12307TIP3    H158412   5.250   4.278   4.985 -0.9394  2.9688 -1.2291
12307TIP3    H258413   5.246   4.294   5.136  1.0301 -0.7685 -0.6387
12308TIP3   OH258414   2.371   2.447   1.361 -0.1397 -0.2627 -0.3860
12308TIP3    H158415   2.451   2.398   1.381 -1.7196 -2.0650  2.2757
12308TIP3    H258416   2.387   2.535   1.396  1.1610 -0.1723 -1.1694
12309TIP3   OH258417   2.949   6.497   9.963  0.0998 -0.0918 -0.1850
12309TIP3    H158418   2.875   6.552   9.939 -0.4831  0.4387  2.4797
12309TIP3    H258419   3.026   6.549   9.940 -0.4322  1.7812  1.8700
12310TIP3   OH258420   6.154   3.530  10.533  0.2467 -0.0787 -0.6487
12310TIP3    H158421   6.097   3.496  10.602  0.1389  0.4833 -0.4548
12310TIP3    H258422   6.193   3.452  10.494 -1.5355 -0.5700 -1.5563
12311TIP3   OH258423   2.740   4.223   2.141 -0.1235  0.1698  0.2941
12311TIP3    H158424   2.796   4.283   2.092 -0.6530  0.4849  0.0683
12311TIP3    H258425   2.695   4.172   2.074  0.1551 -0.3324  0.4815
12312TIP3   OH258426   6.621   4.051   1.531 -0.5116  0.0592 -0.0386
12312TIP3    H158427   6.650   4.037   1.441  0.9277  1.5875  0.1408
12312TIP3    H258428   6.683   4.116   1.566 -2.1199  0.8401  1.4869
12313TIP3   OH258429   4.049   2.696  14.973 -0.2123  0.7029 -0.3451
12313TIP3    H158430   4.010   2.783  14.977  1.2981  1.3933  3.1947
12313TIP3    H258431   4.131   2.708  14.927 -0.6293  0.8447 -1.0624
12314TIP3   OH258432   5.639   0.750   5.369  0.4990 -0.0287  0.0294
12314TIP3    H158433   5.568   0.802   5.332  0.8638  0.5488  0.1203
12314TIP3    H258434   5.667   0.800   5.447 -0.5643 -1.4383  1.3802
12315TIP3   OH258435   3.095   4.216  10.068 -0.3603 -0.5130  0.2199
12315TIP3    H158436   3.014   4.240  10.022  0.0161  1.1178  0.3553
12315TIP3    H258437   3.159   4.280  10.038  0.4586 -0.7598  1.3802
12316TIP3   OH258438   2.217   5.008   2.473  0.2847 -0.1559 -0.4185
12316TIP3    H158439   2.142   5.000   2.532  1.2920  0.5535  1.0156
12316TIP3    H258440   2.237   5.102   2.472  3.8922 -0.6062  2.9418
12317TIP3   OH258441   6.441   0.684  14.683  0.6710 -0.6323  0.5140
12317TIP3    H158442   6.441   0.718  14.594 -1.1505  1.1532  1.1395
12317TIP3    H258443   6.398   0.598  14.676  1.2149 -0.8439 -0.4021
12318TIP3   OH258444   2.481   5.016   3.954 -0.9369  0.4285 -0.1953
12318TIP3    H158445   2.424   5.072   4.007 -0.7939  0.2263  0.1715
12318TIP3    H258446   2.562   5.011   4.004 -0.8203  0.1933 -0.4113
12319TIP3   OH258447   5.253   5.203  14.814  0.0418 -0.0313  0.1642
12319TIP3    H158448   5.349   5.204  14.815  0.0430 -0.1549  0.1621
12319TIP3    H258449   5.230   5.202  14.721  0.0261  1.3938  0.1293
12320TIP3   OH258450   7.211   0.450   3.558  0.2216 -0.7788 -0.3761
12320TIP3    H158451   7.193   0.526   3.503 -1.6101  0.4680  1.7543
12320TIP3    H258452   7.224   0.487   3.646  0.1380 -2.8718  0.5788
12321TIP3   OH258453   4.313   4.873   2.530  0.2038 -0.2457  0.2982
12321TIP3    H158454   4.283   4.960   2.556 -0.5176  0.1705 -1.7760
12321TIP3    H258455   4.390   4.889   2.476 -0.3824 -0.7979 -0.7513
12322TIP3   OH258456   2.199   6.467  14.762 -0.0852  0.3485 -0.4818
12322TIP3    H158457   2.251   6.539  14.797  0.2768 -0.1417  0.0055
12322TIP3    H258458   2.148   6.506  14.691 -0.2004  1.1757  0.0440
12323TIP3   OH258459   5.390   4.992   0.047 -0.0144  0.0884 -0.8019
12323TIP3    H158460   5.459   4.986  -0.019 -0.5422 -1.6901 -1.2562
12323TIP3    H258461   5.317   5.033   0.001  0.1438  0.3025 -0.8622
12324TIP3   OH258462   0.265   0.541  14.756  0.2105 -0.0812 -0.0677
12324TIP3    H158463   0.231   0.451  14.759 -1.1745  0.4383  0.5857
12324TIP3    H258464   0.245   0.572  14.668 -0.7833  0.1229  0.2228
12325TIP3   OH258465   5.784   1.092  10.385 -0.0972  0.0327 -0.4518
12325TIP3    H158466   5.776   1.005  10.424  1.0453  0.5254  0.9898
12325TIP3    H258467   5.695   1.126  10.385 -0.4328 -0.7958 -0.2060
12326TIP3   OH258468   5.430   3.089   5.719  0.3167 -0.0996  0.0792
12326TIP3    H158469   5.505   3.140   5.686 -1.2812  1.2899 -1.6392
12326TIP3    H258470   5.469   3.022   5.774  2.6656  2.2300  1.4995
12327TIP3   OH258471   5.852   5.416  12.655 -0.2460  0.5665  0.1023
12327TIP3    H158472   5.859   5.492  12.598  0.3667  1.1885  0.9806
12327TIP3    H258473   5.842   5.342  12.595 -2.0387  1.4288 -0.7360
12328TIP3   OH258474   1.816   3.696  12.542  0.1293  0.3158  0.0979
12328TIP3    H158475   1.760   3.757  12.495  1.4467  1.7028  0.2443
12328TIP3    H258476   1.901   3.702  12.497  0.3728 -1.1951  0.3001
12329TIP3   OH258477   1.847   3.055  12.107  0.0456  0.3018  0.5144
12329TIP3    H158478   1.893   3.083  12.028 -0.3372  0.3867  0.3188
12329TIP3    H258479   1.784   3.125  12.124  1.0755  0.9680  1.7053
12330TIP3   OH258480   2.339   6.840   9.417 -0.9183 -0.5141  0.1934
12330TIP3    H158481   2.369   6.905   9.481  0.1572 -1.1223  0.3320
12330TIP3    H258482   2.406   6.771   9.420 -1.4112 -1.0532 -0.8234
12331TIP3   OH258483   2.621   2.998  12.413 -0.5328  0.1091 -0.0672
12331TIP3    H158484   2.532   2.974  12.387  0.0276 -2.2846 -0.0419
12331TIP3    H258485   2.614   3.021  12.506 -1.1154 -0.1125 -0.0550
12332TIP3   OH258486   0.767   4.324  12.722 -0.0400  0.1541  0.0526
12332TIP3    H158487   0.696   4.261  12.713 -0.1244  0.1381  0.7332
12332TIP3    H258488   0.846   4.274  12.702  0.2959 -1.1995  3.8494
12333TIP3   OH258489   5.201   5.220  11.480  0.0193  0.3146  0.6976
12333TIP3    H158490   5.244   5.212  11.395 -0.6763  1.0360  0.2696
12333TIP3    H258491   5.272   5.224  11.543  0.5727  1.0408  0.0389
12334TIP3   OH258492   3.511   4.446   5.027 -0.1527  0.5344  0.2486
12334TIP3    H158493   3.584   4.408   5.075  0.0422  4.2576  3.3317
12334TIP3    H258494   3.542   4.454   4.937  2.2727 -0.1677  0.9588
12335TIP3   OH258495   5.331   3.421   3.656  0.3233  0.3641 -0.1223
12335TIP3    H158496   5.273   3.383   3.723  0.3470  1.7853  0.7411
12335TIP3    H258497   5.417   3.423   3.697  0.2118  1.8723  0.0996
12336TIP3   OH258498   1.700   2.610  12.729 -0.5088  0.2129 -0.0674
12336TIP3    H158499   1.765   2.661  12.777 -0.8215  1.3805 -0.8499
12336TIP3    H258500   1.631   2.672  12.707 -0.7059 -0.4342 -1.4103
12337TIP3   OH258501   1.817   4.570   9.518 -0.4396 -0.4215  0.1409
12337TIP3    H158502   1.826   4.657   9.557 -1.8631 -0.4239  0.5442
12337TIP3    H258503   1.829   4.510   9.592 -0.7686 -0.5039  0.1313
12338TIP3   OH258504   4.215   6.341  11.365 -0.1422 -0.5062 -0.0402
12338TIP3    H158505   4.170   6.335  11.449  1.0958 -0.5811  0.6393
12338TIP3    H258506   4.188   6.263  11.318 -0.5955 -0.6317  0.4220
12339TIP3   OH258507   4.873   0.484   4.479  0.6597 -0.0469 -0.1803
12339TIP3    H158508   4.838   0.533   4.404  1.3995 -0.9642 -1.1481
12339TIP3    H258509   4.878   0.549   4.549  1.9974  1.4214 -1.5478
12340TIP3   OH258510   2.289   6.483  12.581  0.6526 -0.2167  0.2518
12340TIP3    H158511   2.259   6.567  12.546  2.1536  0.3062  0.1456
12340TIP3    H258512   2.215   6.423  12.567  0.4654  0.4688 -1.9451
12341TIP3   OH258513   4.845   1.475   4.831 -0.2708  0.2763 -0.0897
12341TIP3    H158514   4.932   1.476   4.871 -0.8828  0.1738  1.3163
12341TIP3    H258515   4.859   1.506   4.741  1.3317 -0.6183 -0.1752
12342TIP3   OH258516   4.539   5.198   1.587 -0.0068  0.5241 -0.1420
12342TIP3    H158517   4.478   5.219   1.658  0.4582  1.3602  0.0236
12342TIP3    H258518   4.534   5.273   1.527  0.8438  0.6087 -0.1289
12343TIP3   OH258519   3.610   2.484  12.377 -0.3973  0.0324  0.5132
12343TIP3    H158520   3.566   2.527  12.450 -0.2450 -0.3633  0.8409
12343TIP3    H258521   3.695   2.529  12.371  0.1946 -0.9061  1.5340
12344TIP3   OH258522   0.275   3.925  13.022 -0.6013  0.2638  0.2431
12344TIP3    H158523   0.368   3.934  13.041 -0.4530 -1.0492  0.2226
12344TIP3    H258524   0.257   3.994  12.957 -0.2039  2.0781  1.9715
12345TIP3   OH258525   6.581   2.797  13.409  0.0640 -0.3580  0.7300
12345TIP3    H158526   6.519   2.804  13.482 -0.1502 -0.0318  0.5187
12345TIP3    H258527   6.579   2.883  13.368  0.0336 -0.6033  0.2185
12346TIP3   OH258528   3.160   1.867   3.260  0.4602  0.0403 -0.0220
12346TIP3    H158529   3.143   1.774   3.246 -0.3315  0.3501 -1.3727
12346TIP3    H258530   3.196   1.897   3.176 -1.5851  1.4263 -0.4721
12347TIP3   OH258531   6.355   3.406  14.049  0.3535  0.6166 -0.7160
12347TIP3    H158532   6.379   3.483  14.100  0.7530  0.1511 -0.1833
12347TIP3    H258533   6.269   3.427  14.013 -0.6983  0.3651  1.4467
12348TIP3   OH258534   3.388   7.213  13.820  0.1822 -0.4839 -0.3087
12348TIP3    H158535   3.432   7.207  13.905  0.8656  0.1167 -0.6042
12348TIP3    H258536   3.367   7.306  13.811  2.0229 -0.1412 -1.7021
12349TIP3   OH258537   4.043   1.907  11.302 -0.2021  0.2306  0.0035
12349TIP3    H158538   3.996   1.829  11.273 -1.8320  1.2995 -0.3953
12349TIP3    H258539   4.123   1.908  11.251 -0.3592 -0.9414 -0.2922
12350TIP3   OH258540   2.708   6.582   1.835  0.1461 -0.5682  0.4699
12350TIP3    H158541   2.732   6.491   1.852  0.0298 -0.9606 -1.2496
12350TIP3    H258542   2.616   6.578   1.808  0.2993 -0.0209 -0.1647
12351TIP3   OH258543   0.198   1.118  14.562  0.2516 -0.6007  0.3315
12351TIP3    H158544   0.195   1.186  14.495 -1.3591 -0.7113  0.2688
12351TIP3    H258545   0.289   1.089  14.562  0.3879 -0.2469 -1.4404
12352TIP3   OH258546   1.825   4.417  11.744  0.2643 -0.6303  0.0002
12352TIP3    H158547   1.853   4.499  11.704  0.8043 -0.1657  1.2713
12352TIP3    H258548   1.794   4.364  11.671 -3.4971  1.9550 -0.5844
12353TIP3   OH258549   1.354   6.731   4.555  0.4201  0.1995 -0.2998
12353TIP3    H158550   1.289   6.799   4.537  0.7269  0.4083 -0.6168
12353TIP3    H258551   1.303   6.649   4.552 -0.0425  0.4436  0.5811
12354TIP3   OH258552   3.310   4.542  11.494 -0.2681  0.5014  0.3151
12354TIP3    H158553   3.327   4.634  11.472  2.0299  0.4700  1.6698
12354TIP3    H258554   3.215   4.533  11.485 -0.5436  2.9563 -0.0461
12355TIP3   OH258555   5.312   1.657   2.653 -0.1747 -0.0503 -0.2789
12355TIP3    H158556   5.400   1.689   2.634  0.0589 -1.1954 -1.2176
12355TIP3    H258557   5.300   1.673   2.747  1.0994 -0.0731 -0.0997
12356TIP3   OH258558   4.084   1.106   9.720  0.2600  0.1032 -0.0670
12356TIP3    H158559   4.026   1.038   9.752 -0.4676  0.8981  0.3562
12356TIP3    H258560   4.029   1.185   9.717  0.9990  0.6083 -0.8128
12357TIP3   OH258561   6.745   4.316   4.277 -0.3789  0.5789 -0.6548
12357TIP3    H158562   6.785   4.334   4.192 -2.2396 -0.7615 -1.8992
12357TIP3    H258563   6.806   4.352   4.340  2.7170 -1.1520 -2.3904
12358TIP3   OH258564   1.934   3.666  11.676 -0.2945  0.0835  0.0002
12358TIP3    H158565   1.974   3.610  11.743  0.1795 -1.7825 -1.7591
12358TIP3    H258566   2.000   3.733  11.657  0.3567 -0.5521 -0.0013
12359TIP3   OH258567   3.646   5.665   3.665 -0.2301  0.0486  0.4692
12359TIP3    H158568   3.588   5.600   3.703 -0.1494 -0.2834  0.0326
12359TIP3    H258569   3.608   5.749   3.689 -0.3057 -0.1548  1.0841
12360TIP3   OH258570   3.899   5.599   1.328 -0.4244  0.7181  0.5014
12360TIP3    H158571   3.834   5.644   1.383  0.2820  1.0577  1.0825
12360TIP3    H258572   3.889   5.639   1.241  0.7090  2.6221  1.1705
12361TIP3   OH258573   7.226   6.712  12.319  0.1156  0.2638 -0.1086
12361TIP3    H158574   7.294   6.770  12.354 -0.0407  0.0158  0.6397
12361TIP3    H258575   7.163   6.771  12.277 -1.1467  0.9340  2.4637
12362TIP3   OH258576   5.928   4.884  13.789  0.0065 -0.0314  0.3202
12362TIP3    H158577   6.021   4.873  13.807 -0.0103  0.9548  1.0603
12362TIP3    H258578   5.922   4.968  13.745 -0.4907 -0.3106 -0.1565
12363TIP3   OH258579   0.668   3.749   2.023 -0.1519 -0.0952 -0.0108
12363TIP3    H158580   0.583   3.720   1.991 -0.3506 -0.3850  0.7709
12363TIP3    H258581   0.648   3.822   2.081  0.4204  2.6485 -3.0131
12364TIP3   OH258582   3.965   2.331  14.501  0.3809 -0.2846 -0.2924
12364TIP3    H158583   3.969   2.383  14.582  0.7942 -0.5028 -0.1731
12364TIP3    H258584   3.955   2.241  14.530 -0.2302 -0.2920 -0.5001
12365TIP3   OH258585   7.010   2.759   5.307  0.5435  0.0611 -0.1312
12365TIP3    H158586   7.007   2.719   5.394 -2.6509  1.9336  0.7444
12365TIP3    H258587   6.939   2.717   5.258 -0.0690  1.5741 -0.5973
12366TIP3   OH258588   4.018   6.964   1.141 -0.2400 -0.0336  0.9649
12366TIP3    H158589   3.943   6.905   1.140 -0.6585  0.4813  1.0751
12366TIP3    H258590   3.988   7.041   1.092  0.8406 -0.5518 -0.5546
12367TIP3   OH258591   6.762   5.645   4.680 -0.0452 -0.2201 -0.2155
12367TIP3    H158592   6.748   5.621   4.588  0.1285  0.7077 -0.5010
12367TIP3    H258593   6.728   5.571   4.730  0.1452 -0.8811 -1.0342
12368TIP3   OH258594   2.239   5.018   3.801 -0.2932 -0.1060 -0.4116
12368TIP3    H158595   2.328   4.984   3.799 -0.2676 -0.0170 -1.0973
12368TIP3    H258596   2.187   4.947   3.838  0.2269  0.2592  1.0735
12369TIP3   OH258597   6.252   1.378   2.820 -0.0714  0.2334 -0.1453
12369TIP3    H158598   6.202   1.459   2.818  3.2441  2.5279 -3.5773
12369TIP3    H258599   6.221   1.329   2.744  0.9432  0.3945 -0.6736
12370TIP3   OH258600   2.567   7.180  11.771 -0.0292  0.2255 -0.5228
12370TIP3    H158601   2.613   7.099  11.748 -0.6638 -0.3550  0.1756
12370TIP3    H258602   2.633   7.234  11.813 -0.0179 -0.7055  0.7133
12371TIP3   OH258603   1.624   0.010   3.291 -0.5490 -0.0894 -0.5758
12371TIP3    H158604   1.610   0.057   3.208  0.9543 -2.3809 -2.2416
12371TIP3    H258605   1.719   0.013   3.304 -0.6582 -0.7286  0.4980
12372TIP3   OH258606   0.695   1.704  15.162  0.2743  0.2105 -0.0682
12372TIP3    H158607   0.611   1.697  15.207  0.3096 -0.5600 -0.1051
12372TIP3    H258608   0.736   1.782  15.199  0.2840 -0.3869  1.2066
12373TIP3   OH258609   0.342   7.182  15.144  0.1206  0.0875 -0.0250
12373TIP3    H158610   0.338   7.206  15.051  2.0941  0.7717  0.0071
12373TIP3    H258611   0.315   7.090  15.146 -2.2996  0.7147 -0.9086
12374TIP3   OH258612   3.099   2.669   4.139  0.7814  0.0547  0.1160
12374TIP3    H158613   3.026   2.608   4.125  0.9943 -0.2578  0.3685
12374TIP3    H258614   3.172   2.614   4.166  1.4215  0.2504 -1.1318
12375TIP3   OH258615   3.067   4.332   9.621  0.2755  0.1563  0.0421
12375TIP3    H158616   2.984   4.285   9.617  0.6919 -0.8248  1.8807
12375TIP3    H258617   3.098   4.333   9.531 -0.8719 -1.0489 -0.4013
12376TIP3   OH258618   1.131   1.958  14.237 -0.2906  0.4239 -0.4189
12376TIP3    H158619   1.225   1.969  14.253 -0.2781 -0.3980  0.1537
12376TIP3    H258620   1.091   1.963  14.324 -1.0822  3.1707 -0.8560
12377TIP3   OH258621   4.258   3.229  10.114 -0.3772 -0.2549  0.7347
12377TIP3    H158622   4.304   3.146  10.128 -0.8368 -0.4726  0.9582
12377TIP3    H258623   4.313   3.276  10.051 -0.2180 -0.8075  0.4588
12378TIP3   OH258624   5.628   3.217  13.864  0.1142  0.0864  0.3880
12378TIP3    H158625   5.676   3.279  13.809 -0.4101 -0.7312 -1.0654
12378TIP3    H258626   5.692   3.188  13.929  1.0496  0.4160 -0.3514
12379TIP3   OH258627   2.931   4.306  13.031 -0.5679 -0.5370 -0.8045
12379TIP3    H158628   2.996   4.306  12.960  1.6367  2.0481  1.0233
12379TIP3    H258629   2.952   4.229  13.083  0.9668  0.1377 -0.3724
12380TIP3   OH258630   5.091   4.481   9.992  0.0465  0.0253 -0.1392
12380TIP3    H158631   5.063   4.446  10.077 -0.9043  0.2090 -0.3647
12380TIP3    H258632   5.155   4.549  10.014 -2.0990  1.9162  0.6066
12381TIP3   OH258633   7.050   7.013  11.740  0.0251 -0.2760  0.2341
12381TIP3    H158634   7.098   7.053  11.812 -0.7042 -0.6129  0.9265
12381TIP3    H258635   7.026   6.926  11.773  0.3270 -0.7142 -0.6962
12382TIP3   OH258636   1.543   4.228   1.485 -0.4526 -0.1700 -0.0065
12382TIP3    H158637   1.635   4.214   1.464 -0.5220 -1.2650  0.3756
12382TIP3    H258638   1.499   4.148   1.457 -1.1117 -0.1359  0.8864
12383TIP3   OH258639   5.338   0.458   3.585  0.2019 -0.3492  0.1823
12383TIP3    H158640   5.287   0.382   3.612 -0.5012  0.2012  0.4210
12383TIP3    H258641   5.286   0.499   3.516  1.9525 -1.7083 -2.0819
12384TIP3   OH258642   0.124   0.300  11.486 -0.1731 -0.2941  0.1297
12384TIP3    H158643   0.180   0.332  11.414 -0.3450  0.3659  0.2778
12384TIP3    H258644   0.080   0.224  11.449  0.1255 -0.2684 -0.3012
12385TIP3   OH258645   4.515   6.619  13.758  0.1241  0.1633 -0.2684
12385TIP3    H158646   4.540   6.529  13.740 -0.2686  0.2416 -1.2678
12385TIP3    H258647   4.588   6.672  13.724  1.2654  0.1788  2.0404
12386TIP3   OH258648   2.162   0.956   1.931 -0.3278 -0.6649  0.1840
12386TIP3    H158649   2.216   0.961   2.009  1.4534  1.5495 -1.0829
12386TIP3    H258650   2.079   0.997   1.956 -0.3038 -1.2316  1.2513
12387TIP3   OH258651   3.518   1.067   0.506  0.1756 -0.0117  0.1136
12387TIP3    H158652   3.496   1.066   0.599 -0.6552 -0.4263 -0.0761
12387TIP3    H258653   3.550   1.156   0.489 -0.4869  0.3327  0.6177
12388TIP3   OH258654   4.923   0.090   0.980 -0.2337  0.0926 -0.2114
12388TIP3    H158655   4.862   0.057   0.913  0.7398 -1.6935 -0.2861
12388TIP3    H258656   4.913   0.185   0.976 -2.5929 -0.0963 -0.6056
12389TIP3   OH258657   1.885   6.185   4.530  0.0618 -0.2619 -0.0320
12389TIP3    H158658   1.964   6.166   4.480 -0.1939 -1.6151  0.0409
12389TIP3    H258659   1.817   6.198   4.464  0.3008  0.7697 -0.0905
12390TIP3   OH258660   5.407   2.640   0.494  0.0926  0.5741  0.0786
12390TIP3    H158661   5.442   2.694   0.423  0.4915  0.8582  0.4848
12390TIP3    H258662   5.344   2.582   0.451  0.6008  0.4845 -0.5701
12391TIP3   OH258663   3.238   0.093  13.187  0.1159  0.2359 -0.7542
12391TIP3    H158664   3.209   0.181  13.162 -2.4290  0.2033  1.5294
12391TIP3    H258665   3.193   0.035  13.126  0.9190  0.4658 -1.5715
12392TIP3   OH258666   0.207   0.591  11.099  0.4538 -0.0945 -0.0783
12392TIP3    H158667   0.185   0.638  11.180  0.3334  1.3086 -0.8958
12392TIP3    H258668   0.291   0.627  11.072  0.9510 -1.2406 -0.0861
12393TIP3   OH258669   0.270   6.511   3.189 -0.5131  0.2967 -0.2935
12393TIP3    H158670   0.341   6.575   3.184 -0.4629  0.4204  1.5768
12393TIP3    H258671   0.314   6.426   3.189 -0.1604  0.3892  2.5883
12394TIP3   OH258672   5.977   5.772   4.031  0.3760  0.2172 -0.5348
12394TIP3    H158673   6.035   5.810   4.097 -0.7117  1.0854 -0.0341
12394TIP3    H258674   5.952   5.845   3.975  0.7019 -0.3740 -1.4708
12395TIP3   OH258675   3.786   1.625  14.690 -0.2501  0.2555  0.3038
12395TIP3    H158676   3.820   1.646  14.776 -0.7634 -1.0854  0.8587
12395TIP3    H258677   3.819   1.537  14.671  1.0037  1.0418 -1.4947
12396TIP3   OH258678   2.911   5.217   3.881  0.4441 -0.2437 -0.6688
12396TIP3    H158679   2.863   5.194   3.801 -0.2556  0.6461 -0.5226
12396TIP3    H258680   2.843   5.247   3.942  1.1669  0.9929 -0.4296
12397TIP3   OH258681   2.387   6.843   3.725  0.7350 -0.1748 -0.4184
12397TIP3    H158682   2.332   6.806   3.795 -1.2858  0.4439 -1.6167
12397TIP3    H258683   2.449   6.899   3.771  0.6266 -1.1503  1.0103
12398TIP3   OH258684   5.993   4.723  14.434 -0.0284 -0.3909  0.0064
12398TIP3    H158685   5.950   4.680  14.508 -0.9947 -0.9518 -0.8677
12398TIP3    H258686   6.087   4.714  14.453 -0.2533 -1.0942  0.8450
12399TIP3   OH258687   1.311   2.720   2.707 -0.0928  0.5309  0.0943
12399TIP3    H158688   1.223   2.702   2.740 -0.2509 -0.4273 -0.7807
12399TIP3    H258689   1.370   2.670   2.764 -0.4219 -1.8026 -1.4373
12400TIP3   OH258690   3.444   4.584  13.022  0.6671  0.1662  0.0297
12400TIP3    H158691   3.495   4.664  13.036 -0.0018  0.4003  1.3272
12400TIP3    H258692   3.437   4.545  13.109 -0.6286 -0.3163 -0.2720
12401TIP3   OH258693   3.340   0.773  11.656 -0.1965  0.4427  0.2109
12401TIP3    H158694   3.304   0.691  11.622 -0.4257 -0.2837  2.1009
12401TIP3    H258695   3.435   0.762  11.652 -0.2253 -0.3896  1.4969
12402TIP3   OH258696   3.195   4.747   3.689 -0.3192  0.4707  0.3017
12402TIP3    H158697   3.143   4.714   3.616 -0.2805 -0.4422  0.6744
12402TIP3    H258698   3.284   4.717   3.670 -0.1919  0.7837  0.4009
12403TIP3   OH258699   5.599   5.681  12.218  0.1479 -0.0123  0.0566
12403TIP3    H158700   5.676   5.709  12.268 -0.2156  0.8597  0.1328
12403TIP3    H258701   5.529   5.675  12.282  0.1610 -0.9033  0.0046
12404TIP3   OH258702   6.079   3.356  12.692  0.1976  0.0189  0.4871
12404TIP3    H158703   6.053   3.423  12.628 -1.6407  0.0486  1.2082
12404TIP3    H258704   6.108   3.283  12.638 -3.1263 -0.7010 -0.5868
12405TIP3   OH258705   0.669   4.934   3.263 -0.9796  0.8084 -0.3704
12405TIP3    H158706   0.625   4.950   3.180 -1.3794 -2.8692 -1.0263
12405TIP3    H258707   0.609   4.968   3.330 -2.2880  0.7173 -1.4664
12406TIP3   OH258708   7.109   3.106  11.481 -0.1220 -0.1947  0.2648
12406TIP3    H158709   7.029   3.069  11.444  0.3473 -0.6249 -0.3551
12406TIP3    H258710   7.094   3.200  11.484 -0.0164 -0.0842 -1.4955
12407TIP3   OH258711   1.031   1.533  12.089  0.8293 -0.1156 -0.5022
12407TIP3    H158712   0.939   1.558  12.100  0.7583 -0.6930  0.4069
12407TIP3    H258713   1.080   1.613  12.104  0.6322 -0.4708  2.7099
12408TIP3   OH258714   5.870   7.117  10.045  0.1925 -0.3134  0.3809
12408TIP3    H158715   5.855   7.096  10.138  0.8739 -0.8949  0.3710
12408TIP3    H258716   5.846   7.037   9.999  0.5228 -0.2640  0.1207
12409TIP3   OH258717   3.529   5.559  13.744 -0.4937  0.3746  0.1853
12409TIP3    H158718   3.534   5.464  13.753 -2.0178  0.1886 -0.6014
12409TIP3    H258719   3.591   5.581  13.675  1.1662  0.1960  1.5569
12410TIP3   OH258720   4.417   6.714  11.409  0.3313 -0.0204 -0.1692
12410TIP3    H158721   4.344   6.685  11.464 -0.2698  1.8945  0.1351
12410TIP3    H258722   4.434   6.804  11.437  1.2518  0.3758 -1.8365
12411TIP3   OH258723   3.711   6.787   1.627  0.6389 -0.1079  0.4275
12411TIP3    H158724   3.680   6.860   1.574 -0.3951 -0.0006  1.1497
12411TIP3    H258725   3.799   6.769   1.593  0.3055  0.4418 -0.7918
12412TIP3   OH258726   5.729   3.897   2.103  0.0807 -0.2517  0.3086
12412TIP3    H158727   5.704   3.981   2.064  1.6460  0.0307 -0.1674
12412TIP3    H258728   5.822   3.888   2.082  0.3593 -1.3070  1.8236
12413TIP3   OH258729   2.897   6.666  13.733  0.4039  0.1534  0.4358
12413TIP3    H158730   2.918   6.747  13.686  1.4032  0.0167  0.6264
12413TIP3    H258731   2.828   6.691  13.794  0.3113  0.7308  0.1020
12414TIP3   OH258732   7.169   0.738   4.451 -0.7288 -0.0473  0.3433
12414TIP3    H158733   7.200   0.795   4.381 -1.4664  0.4994  0.4597
12414TIP3    H258734   7.077   0.761   4.463 -1.2525 -1.7509 -0.1007
12415TIP3   OH258735   4.077   0.632  14.926 -0.3617 -0.3539 -0.2545
12415TIP3    H158736   4.100   0.611  15.017  1.2690  0.5102 -0.4350
12415TIP3    H258737   3.985   0.607  14.918 -0.3946 -0.8977  1.4913
12416TIP3   OH258738   6.709   6.263  11.396  0.2423 -0.3900  0.6362
12416TIP3    H158739   6.736   6.279  11.306 -0.3055  1.0711  0.7032
12416TIP3    H258740   6.776   6.204  11.431  0.5364 -0.8620 -0.6657
12417TIP3   OH258741   2.878   0.691  14.347  0.3861 -0.1617 -0.1863
12417TIP3    H158742   2.893   0.682  14.441  0.7374 -1.6846 -0.3660
12417TIP3    H258743   2.808   0.756  14.340  0.1786 -0.2228  1.1283
12418TIP3   OH258744   5.393   1.511   5.213  0.5554  0.0634 -0.6470
12418TIP3    H158745   5.414   1.573   5.142  1.1122  0.0994 -0.4527
12418TIP3    H258746   5.453   1.535   5.284 -1.1039  1.1159  0.4764
12419TIP3   OH258747   5.696   3.598   5.015 -0.6888  0.5085  0.0252
12419TIP3    H158748   5.746   3.522   4.988 -1.4139  0.6408 -1.8413
12419TIP3    H258749   5.753   3.645   5.076  0.7361 -0.2397 -0.6958
12420TIP3   OH258750   3.491   5.342  14.472 -0.5423 -0.2211  0.3318
12420TIP3    H158751   3.451   5.417  14.516 -2.9948 -0.8848 -0.5884
12420TIP3    H258752   3.526   5.379  14.391 -1.5593  0.0014 -0.0237
12421TIP3   OH258753   4.956   4.304   2.518 -0.5042  0.6409  1.0234
12421TIP3    H158754   4.876   4.315   2.570 -0.5686 -0.7372  1.2741
12421TIP3    H258755   4.941   4.222   2.470  1.5270 -0.7667  2.6043
12422TIP3   OH258756   3.512   1.140   3.655 -0.0173 -0.3862  0.3404
12422TIP3    H158757   3.487   1.050   3.675 -0.2253 -0.2824  0.5652
12422TIP3    H258758   3.547   1.174   3.738 -0.7585  0.0075  0.5043
12423TIP3   OH258759   4.145   5.980   5.302  0.6509 -0.0489  0.0486
12423TIP3    H158760   4.108   5.894   5.279  0.7871 -0.4332  1.1818
12423TIP3    H258761   4.240   5.963   5.310  0.7610  0.3623 -0.3777
12424TIP3   OH258762   0.773   5.357   1.320  0.2043  0.4206  0.6073
12424TIP3    H158763   0.844   5.301   1.350 -0.6704 -0.4756  1.0635
12424TIP3    H258764   0.817   5.428   1.271  1.3405 -0.5822  0.1232
12425TIP3   OH258765   5.709   0.961   0.131  0.3344 -0.7977  0.1572
12425TIP3    H158766   5.728   0.899   0.201 -0.8370 -1.4390 -0.0727
12425TIP3    H258767   5.793   1.003   0.113  1.2185 -2.4538  0.1853
12426TIP3   OH258768   1.383   4.357   1.237  0.3513 -0.2240  0.4990
12426TIP3    H158769   1.441   4.389   1.168  1.2739  0.7531  1.6761
12426TIP3    H258770   1.430   4.285   1.277  0.4388  0.1064  0.9950
12427TIP3   OH258771   2.806   1.462  13.396  0.2156  0.2248 -0.1934
12427TIP3    H158772   2.883   1.513  13.370  1.1825 -0.8126  0.5579
12427TIP3    H258773   2.798   1.477  13.490 -0.6595  0.5107 -0.3041
12428TIP3   OH258774   4.230   4.368   2.223 -0.6465  0.8668 -0.0520
12428TIP3    H158775   4.241   4.461   2.206 -0.6647  1.0266  0.7635
12428TIP3    H258776   4.314   4.329   2.201  0.4009  1.5249  2.4315
12429TIP3   OH258777   2.399   0.434   3.811 -0.0454  0.3287 -0.0980
12429TIP3    H158778   2.435   0.375   3.745 -2.8140  1.4153 -2.8365
12429TIP3    H258779   2.439   0.519   3.793 -0.2217  0.4636  0.1278
12430TIP3   OH258780   3.386   5.343  14.052 -0.1386 -0.0305  0.3039
12430TIP3    H158781   3.297   5.371  14.072 -0.3688  0.0015 -0.6853
12430TIP3    H258782   3.439   5.378  14.123 -0.6721  1.4708  0.0133
12431TIP3   OH258783   0.616   5.333   3.118  0.0376 -0.0787  0.1761
12431TIP3    H158784   0.618   5.314   3.212 -0.8875 -0.5552  0.1116
12431TIP3    H258785   0.643   5.425   3.112 -1.9361  0.6302  1.1354
12432TIP3   OH258786   2.812   5.272  13.220 -0.3350  0.3512 -0.1371
12432TIP3    H158787   2.791   5.365  13.219 -1.5274  0.1050  0.6450
12432TIP3    H258788   2.878   5.263  13.289 -1.7725  0.3311  1.2900
12433TIP3   OH258789   4.547   3.712  12.726  0.4014  0.1196  0.1110
12433TIP3    H158790   4.517   3.802  12.735 -0.4501 -0.0804 -0.5372
12433TIP3    H258791   4.470   3.659  12.747  0.9179 -0.4681  0.5764
12434TIP3   OH258792   0.592   1.370   3.330 -0.0736  0.4529 -0.2959
12434TIP3    H158793   0.521   1.433   3.339  0.0736  1.0311 -2.5865
12434TIP3    H258794   0.624   1.382   3.241  0.9041 -1.9041 -0.3428
12435TIP3   OH258795   2.054   3.863   3.236  0.7461  0.1450 -0.7800
12435TIP3    H158796   2.137   3.814   3.241  0.4944 -0.3893 -1.6846
12435TIP3    H258797   2.041   3.879   3.143 -2.0366 -3.1227 -1.1645
12436TIP3   OH258798   5.836   1.378   1.810  0.3590  0.0461 -0.0381
12436TIP3    H158799   5.842   1.282   1.813  0.3638  0.0652  0.6170
12436TIP3    H258800   5.906   1.409   1.868 -1.3576  0.3870  1.9679
12437TIP3   OH258801   1.792   0.249  14.477 -0.0191 -0.1680 -0.3793
12437TIP3    H158802   1.846   0.293  14.542  1.6454 -3.1888  0.4705
12437TIP3    H258803   1.837   0.266  14.394  0.3903  0.0608 -0.1154
12438TIP3   OH258804   3.009   2.041  15.036 -0.0724  0.1814  0.5960
12438TIP3    H158805   2.962   2.035  15.120 -3.5721 -0.4458 -1.2019
12438TIP3    H258806   3.034   2.133  15.029 -1.3931  0.6582  1.5588
12439TIP3   OH258807   3.443   7.162   3.678 -0.4008 -0.1535 -0.6907
12439TIP3    H158808   3.440   7.183   3.585 -2.0212  0.7572 -0.4595
12439TIP3    H258809   3.382   7.223   3.719  0.0989 -0.6946  0.9542
12440TIP3   OH258810   3.878   3.313  13.118 -0.9169 -0.2630 -1.1200
12440TIP3    H158811   3.839   3.237  13.161  0.1487 -1.6638 -2.5593
12440TIP3    H258812   3.967   3.316  13.151 -1.3765  1.3616  0.1280
12441TIP3   OH258813   0.735   4.035   4.598  0.4959  0.5283 -0.1071
12441TIP3    H158814   0.770   4.115   4.557 -0.1285  0.4579 -0.8063
12441TIP3    H258815   0.782   3.964   4.555 -1.9517  0.3025 -2.6840
12442TIP3   OH258816   5.820   1.447   3.656  0.0902 -0.3554 -0.0853
12442TIP3    H158817   5.854   1.403   3.734  0.6041 -0.1256 -0.1772
12442TIP3    H258818   5.726   1.430   3.658  0.0657 -0.1434  0.7165
12443TIP3   OH258819   2.812   5.435  13.960 -0.3477 -0.0248  0.8923
12443TIP3    H158820   2.744   5.409  13.899 -0.5995  3.1637 -0.3614
12443TIP3    H258821   2.766   5.450  14.043 -1.2181  1.8490  0.1218
12444TIP3   OH258822   4.565   6.879   2.575  0.2117 -0.3782 -0.1588
12444TIP3    H158823   4.470   6.866   2.582  0.3230 -1.6236 -0.6456
12444TIP3    H258824   4.588   6.843   2.489  1.4514 -2.4381  0.9382
12445TIP3   OH258825   1.198   2.000  13.145  0.5943 -0.0304  0.1281
12445TIP3    H158826   1.272   2.042  13.100 -0.7649  1.9387 -0.3887
12445TIP3    H258827   1.133   1.988  13.077 -0.9967  1.7747  1.2431
12446TIP3   OH258828   4.932   2.039  11.413 -0.9648  0.5746 -0.2177
12446TIP3    H158829   4.933   1.969  11.347 -0.1935  2.2667 -2.0743
12446TIP3    H258830   5.000   2.014  11.475 -0.4636 -0.1582 -1.0373
12447TIP3   OH258831   1.935   4.445   4.172  0.1542 -0.6189 -0.1578
12447TIP3    H158832   1.984   4.413   4.096  0.5383  0.7059 -0.4979
12447TIP3    H258833   1.848   4.406   4.163 -0.4016  0.8971 -2.3084
12448TIP3   OH258834   2.342   3.895  14.499  0.0066 -0.0639 -1.0138
12448TIP3    H158835   2.400   3.837  14.549 -0.1193  1.1556  0.6184
12448TIP3    H258836   2.325   3.847  14.418 -0.7289 -2.6708  0.5475
12449TIP3   OH258837   4.132   3.953  12.779  0.2967  0.0945  0.2510
12449TIP3    H158838   4.213   3.995  12.751 -0.2675  1.6758  0.8754
12449TIP3    H258839   4.067   3.983  12.715  0.2289 -1.4606 -0.4705
12450TIP3   OH258840   4.235   6.676   2.092 -0.6345  0.6074 -0.5511
12450TIP3    H158841   4.219   6.688   2.185 -0.8955  0.1590 -0.5363
12450TIP3    H258842   4.320   6.716   2.077 -0.3174  0.1527 -0.0024
12451TIP3   OH258843   4.013   0.002  10.487  0.3571  0.7813  0.1886
12451TIP3    H158844   3.949   0.031  10.422  0.1026  0.1885  0.1678
12451TIP3    H258845   3.980  -0.082  10.517  1.3270  0.2829 -0.1000
12452TIP3   OH258846   1.160   1.215  12.247  0.0346  0.7731  0.3053
12452TIP3    H158847   1.204   1.142  12.290 -0.1435  0.7545  0.4553
12452TIP3    H258848   1.150   1.186  12.156 -0.2245  0.5224  0.4106
12453TIP3   OH258849   2.553   4.851  11.114  0.1003 -0.0418 -0.0070
12453TIP3    H158850   2.488   4.853  11.045 -0.1138 -0.0137  0.1941
12453TIP3    H258851   2.626   4.802  11.077  0.8698  1.7640 -1.0337
12454TIP3   OH258852   6.076   0.161   2.537  0.1378 -0.4315 -0.1339
12454TIP3    H158853   6.167   0.187   2.525  0.0014 -0.4955 -1.3977
12454TIP3    H258854   6.075   0.068   2.514 -0.4734 -0.1371 -1.3453
12455TIP3   OH258855   5.546   0.868  14.262 -0.3719 -0.5864  0.2109
12455TIP3    H158856   5.505   0.834  14.341 -0.4495 -2.4102 -0.5613
12455TIP3    H258857   5.489   0.940  14.234 -1.3519 -1.1177  0.7904
12456TIP3   OH258858   6.864   6.079   2.596 -0.1047  0.3773 -0.0155
12456TIP3    H158859   6.883   6.173   2.591 -0.9191  0.7591  2.5595
12456TIP3    H258860   6.774   6.075   2.630  1.1571 -1.2295  3.5990
12457TIP3   OH258861   2.022   2.058   2.444  0.0581  0.3109  0.5676
12457TIP3    H158862   1.930   2.030   2.450 -0.0907  0.7230  0.2525
12457TIP3    H258863   2.072   1.985   2.480 -0.4864  0.6634  2.1547
12458TIP3   OH258864   5.296   0.441   5.031 -0.3124  0.2714  0.1367
12458TIP3    H158865   5.277   0.388   5.109 -1.1644  1.1795  0.5810
12458TIP3    H258866   5.369   0.497   5.057  0.6330 -0.6924 -0.3549
12459TIP3   OH258867   6.057   3.902   2.144 -0.6139  0.2245 -0.5594
12459TIP3    H158868   6.113   3.835   2.105 -0.0708  0.7517 -0.7047
12459TIP3    H258869   6.007   3.937   2.071 -1.6780 -0.7457 -0.3149
12460TIP3   OH258870   4.007   1.940   2.247 -0.3774 -0.1970  0.4595
12460TIP3    H158871   3.961   2.000   2.307 -0.4191 -1.5166  1.8196
12460TIP3    H258872   4.067   1.892   2.303 -0.5611 -1.6348 -0.5188
12461TIP3   OH258873   3.450   1.324  11.299  0.4856  0.2192 -0.1513
12461TIP3    H158874   3.531   1.370  11.281  0.4419 -0.0701 -1.1311
12461TIP3    H258875   3.405   1.378  11.365  0.9920  0.9175 -0.3762
12462TIP3   OH258876   0.342   3.450  13.175  0.6976  0.1988  0.0140
12462TIP3    H158877   0.316   3.523  13.118 -0.2859 -0.0025  0.1813
12462TIP3    H258878   0.420   3.482  13.221  0.3123  1.1364  0.0457
12463TIP3   OH258879   5.870   3.821  10.845  0.6259  0.1897 -0.2997
12463TIP3    H158880   5.818   3.817  10.925  1.5037 -2.2895  0.2406
12463TIP3    H258881   5.819   3.772  10.781  0.1460  1.7738 -1.1673
12464TIP3   OH258882   3.814   6.601   4.908 -0.8051  0.4064  0.0966
12464TIP3    H158883   3.795   6.673   4.848  0.6057  0.7982  0.0879
12464TIP3    H258884   3.909   6.594   4.908 -0.7467  0.5003  2.3868
12465TIP3   OH258885   6.041   2.762  15.140 -0.2992 -0.2307 -0.2444
12465TIP3    H158886   6.091   2.700  15.193  0.5830  1.7268  1.3879
12465TIP3    H258887   5.959   2.772  15.188 -0.2635  0.1539 -0.2614
12466TIP3   OH258888   5.259   0.213   9.794  0.2578 -0.0525  0.2734
12466TIP3    H158889   5.256   0.185   9.702 -2.4723 -0.2163  0.3148
12466TIP3    H258890   5.333   0.165   9.831  0.7685 -0.8114 -1.6045
12467TIP3   OH258891   4.837   6.598   0.393 -0.1348 -0.2725 -0.1734
12467TIP3    H158892   4.933   6.602   0.400 -0.2902  1.3380  2.2244
12467TIP3    H258893   4.809   6.689   0.391 -1.6809 -0.6455  1.3949
12468TIP3   OH258894   4.971   5.005  12.487  0.8634  0.3131 -0.1543
12468TIP3    H158895   5.062   5.034  12.497  0.8583  0.1493  0.4007
12468TIP3    H258896   4.974   4.910  12.499  0.3927  0.4891  1.6504
12469TIP3   OH258897   5.775   1.525  12.414  0.3503 -0.1459 -0.3466
12469TIP3    H158898   5.816   1.467  12.349 -0.8187 -1.5688  0.1335
12469TIP3    H258899   5.699   1.561  12.369  0.8168  0.6918 -0.4894
12470TIP3   OH258900   1.197   6.822   4.264  0.3926  0.5977 -0.2520
12470TIP3    H158901   1.153   6.879   4.327  1.7949  2.5834 -0.9907
12470TIP3    H258902   1.288   6.851   4.264  0.8941 -0.7976 -1.6376
12471TIP3   OH258903   1.856   1.964   0.922 -0.2820 -0.0463  0.2727
12471TIP3    H158904   1.881   1.881   0.880 -0.3817  1.1256 -2.2461
12471TIP3    H258905   1.916   2.029   0.884 -0.8978  1.2254  1.4052
12472TIP3   OH258906   2.480   1.199   2.142  0.1014 -0.8618 -0.0530
12472TIP3    H158907   2.477   1.242   2.228 -0.3832 -1.7342  0.3707
12472TIP3    H258908   2.505   1.270   2.082  0.8227 -0.3221  0.8480
12473TIP3   OH258909   5.788   5.831  11.287 -0.2072 -0.0104  0.1079
12473TIP3    H158910   5.806   5.894  11.357 -0.6123  1.0348 -0.7051
12473TIP3    H258911   5.807   5.879  11.207  1.3318 -1.5425 -0.5004
12474TIP3   OH258912   4.053   5.883   3.079  0.3267  0.2055  0.2207
12474TIP3    H158913   4.135   5.853   3.039 -0.0458 -0.3080 -0.1672
12474TIP3    H258914   4.064   5.978   3.087  1.3794  0.0387  1.1397
12475TIP3   OH258915   5.607   6.834   4.120  0.7418 -0.6694  0.5495
12475TIP3    H158916   5.569   6.786   4.046  0.3136  0.0928  0.2655
12475TIP3    H258917   5.543   6.824   4.190 -1.6439  3.1098 -0.7840
12476TIP3   OH258918   2.186   7.045   2.204  0.9052  0.0004 -0.8429
12476TIP3    H158919   2.113   7.024   2.144  1.1540 -1.0014 -0.8141
12476TIP3    H258920   2.195   6.967   2.258 -2.5024  2.4162  3.9636
12477TIP3   OH258921   1.584   7.228   4.272 -0.2960  0.7464  0.2726
12477TIP3    H158922   1.572   7.164   4.201  1.4968  0.1193  0.4813
12477TIP3    H258923   1.520   7.296   4.254 -1.0668 -0.2553 -0.9619
12478TIP3   OH258924   7.198   2.139  12.205 -0.0614 -0.2029  0.0852
12478TIP3    H158925   7.150   2.057  12.191  0.4245 -0.2768 -1.3142
12478TIP3    H258926   7.224   2.167  12.117 -0.5616  1.6833  0.4930
12479TIP3   OH258927   3.775   2.707   0.221 -0.1091 -0.0024 -0.0882
12479TIP3    H158928   3.803   2.794   0.251  0.2993 -0.3028  0.4157
12479TIP3    H258929   3.768   2.656   0.302  1.0844 -0.8555 -0.4964
12480TIP3   OH258930   6.011   2.699  10.448  0.1657  0.3253  0.3705
12480TIP3    H158931   5.957   2.621  10.435  0.7136 -0.0461  0.2795
12480TIP3    H258932   6.020   2.706  10.543  0.9443 -0.3108  0.3531
12481TIP3   OH258933   4.079   4.023   1.595  0.0765 -0.0692 -0.3262
12481TIP3    H158934   4.025   4.042   1.518  0.4281 -0.1094 -0.5855
12481TIP3    H258935   4.017   3.989   1.660 -0.3773  0.8306 -0.2642
12482TIP3   OH258936   1.324   0.479   0.075  0.3095 -0.4591 -0.2756
12482TIP3    H158937   1.420   0.480   0.068  0.2762  0.4233 -0.7045
12482TIP3    H258938   1.295   0.542   0.010 -0.4730  0.8704  1.3064
12483TIP3   OH258939   6.357   1.020   3.969 -0.4324 -0.1306 -0.4387
12483TIP3    H158940   6.272   1.042   4.007 -0.3312 -1.4553  0.6333
12483TIP3    H258941   6.358   1.065   3.885 -1.3962  1.4561  0.3578
12484TIP3   OH258942   6.956   4.654  12.788  0.8727  1.0677  0.0290
12484TIP3    H158943   7.011   4.627  12.862  1.4458  0.1541 -0.7111
12484TIP3    H258944   7.019   4.676  12.719  0.3292  1.2250 -0.4207
12485TIP3   OH258945   5.308   5.943  13.262  0.0209 -0.0935 -0.3019
12485TIP3    H158946   5.397   5.972  13.244 -0.4652  1.0352 -0.9742
12485TIP3    H258947   5.268   6.015  13.310 -0.7255 -0.2994 -0.5930
12486TIP3   OH258948   5.739   0.154  15.306 -0.1725 -0.1710 -0.3806
12486TIP3    H158949   5.693   0.221  15.358 -0.3163  0.6527 -1.5292
12486TIP3    H258950   5.678   0.081  15.302 -0.6251  0.1963 -0.3266
12487TIP3   OH258951   0.305   7.044  10.958 -0.5459 -0.3292  0.4390
12487TIP3    H158952   0.269   7.127  10.992  1.3767  1.7618 -2.2137
12487TIP3    H258953   0.260   7.031  10.875  0.3764 -1.0201  0.0353
12488TIP3   OH258954   1.403   0.613   1.950  0.6378 -0.1918 -0.3217
12488TIP3    H158955   1.382   0.702   1.977 -1.2269 -0.7996  0.4405
12488TIP3    H258956   1.464   0.623   1.877  1.2159  1.6600  0.3580
12489TIP3   OH258957   5.495   3.790   2.236  0.4399 -0.4320  0.0068
12489TIP3    H158958   5.496   3.838   2.318 -0.1766  0.7845 -0.6621
12489TIP3    H258959   5.567   3.828   2.185  0.9877 -1.3553  0.0770
12490TIP3   OH258960   2.123   1.332   2.656  0.2495  0.1872 -0.1187
12490TIP3    H158961   2.138   1.334   2.562 -1.4770  0.3326 -0.4217
12490TIP3    H258962   2.068   1.255   2.670 -0.2371  0.6566  0.6327
12491TIP3   OH258963   4.371   2.693  14.546  0.3074 -0.6536  0.4385
12491TIP3    H158964   4.353   2.617  14.491 -0.1005 -0.0851 -0.2248
12491TIP3    H258965   4.316   2.762  14.511 -1.5152 -0.7854  2.8057
12492TIP3   OH258966   1.203   2.696   0.800 -0.1548  0.1024 -0.3321
12492TIP3    H158967   1.176   2.788   0.796 -1.0146 -0.1254 -0.0265
12492TIP3    H258968   1.123   2.646   0.785  0.3993 -0.6048 -1.0214
12493TIP3   OH258969   5.706   4.507   1.762 -0.4898 -0.0401  0.4517
12493TIP3    H158970   5.766   4.559   1.710  1.4136 -0.6683  1.8705
12493TIP3    H258971   5.621   4.547   1.750  0.1852  0.8283 -1.7414
12494TIP3   OH258972   6.670   5.751  14.360 -0.1494  0.3878  0.6198
12494TIP3    H158973   6.704   5.826  14.408 -0.4333  0.9681 -0.0620
12494TIP3    H258974   6.600   5.717  14.416  0.3388  0.2950  1.1826
12495TIP3   OH258975   6.019   2.327  13.668  0.3618 -0.2325 -0.0528
12495TIP3    H158976   6.028   2.423  13.663  0.4436 -0.1816  0.9255
12495TIP3    H258977   6.084   2.300  13.733  0.2043 -0.9324 -0.1798
12496TIP3   OH258978   3.707   4.367  12.193 -0.0854 -0.0725 -0.2410
12496TIP3    H158979   3.767   4.306  12.236  1.4138  1.2949 -0.3082
12496TIP3    H258980   3.736   4.454  12.222 -1.8004  0.6567 -0.5925
12497TIP3   OH258981   2.032   2.904  10.840 -0.2141  0.1350 -0.1235
12497TIP3    H158982   2.108   2.904  10.782 -1.3235 -0.4883 -1.6683
12497TIP3    H258983   2.004   2.813  10.843  0.0942  0.0573  1.8571
12498TIP3   OH258984   5.288   1.720   1.747  0.0192 -0.2910  0.2021
12498TIP3    H158985   5.258   1.659   1.815  1.9738 -0.7376  0.7101
12498TIP3    H258986   5.279   1.671   1.666  0.4311 -0.8354  0.4759
12499TIP3   OH258987   0.807   3.122   5.025  0.5723  0.0721  0.1603
12499TIP3    H158988   0.853   3.174   4.959  1.6254 -1.6911 -0.5597
12499TIP3    H258989   0.729   3.090   4.979  1.0077 -0.6779 -0.0769
12500TIP3   OH258990   0.300   3.909  11.096  0.4916  0.7089 -0.1431
12500TIP3    H158991   0.230   3.946  11.150  0.0381 -0.6692  0.2405
12500TIP3    H258992   0.344   3.846  11.153  0.1460 -0.6158 -1.2872
12501TIP3   OH258993   6.836   2.760  11.967 -0.1307  0.2217 -0.3074
12501TIP3    H158994   6.787   2.702  11.909 -0.2667  0.3096 -0.2825
12501TIP3    H258995   6.866   2.831  11.910  1.5970 -0.7717 -0.7298
12502TIP3   OH258996   2.696   4.252   9.748  0.1301  0.2522  0.0348
12502TIP3    H158997   2.758   4.243   9.676  1.1874  3.6382  0.3823
12502TIP3    H258998   2.610   4.253   9.705  0.5184 -0.7095 -0.8217
12503TIP3   OH258999   3.384   2.804   4.360  0.4948  0.4095  0.0170
12503TIP3    H159000   3.384   2.734   4.294 -0.1657 -0.4894  0.9389
12503TIP3    H259001   3.435   2.874   4.320 -0.4072  0.1530 -1.7239
12504TIP3   OH259002   2.661   4.744  12.153  0.0895  0.1914 -0.2458
12504TIP3    H159003   2.589   4.711  12.100 -0.1075 -0.4130  0.3751
12504TIP3    H259004   2.665   4.684  12.228 -0.1754  1.4763  0.8446
12505TIP3   OH259005   6.396   3.670  14.875  0.1122  0.6144 -0.2671
12505TIP3    H159006   6.470   3.722  14.843  2.6510 -3.6512 -2.2372
12505TIP3    H259007   6.343   3.654  14.797 -1.3523  1.2723  0.5604
12506TIP3   OH259008   0.947   4.079  13.984 -0.7778  0.0884 -0.0137
12506TIP3    H159009   0.987   4.009  13.933  1.9242  0.6402  1.1253
12506TIP3    H259010   0.965   4.158  13.934  0.6655  0.4722  1.0427
12507TIP3   OH259011   0.098   2.846   1.094  0.5208  0.2454  0.2719
12507TIP3    H159012   0.065   2.779   1.034 -0.3510  2.4229 -1.8260
12507TIP3    H259013   0.035   2.847   1.166  2.2119 -3.2213  2.0501
12508TIP3   OH259014   1.391   0.339  14.239 -0.1177 -0.0589  0.2510
12508TIP3    H159015   1.394   0.361  14.332 -0.7582 -1.2006  0.5682
12508TIP3    H259016   1.479   0.358  14.207  0.2453 -0.0774  1.2020
12509TIP3   OH259017   4.181   4.643  12.524 -0.8823  0.1778  0.0043
12509TIP3    H159018   4.199   4.689  12.441 -1.1994  1.1090  0.4318
12509TIP3    H259019   4.086   4.635  12.527 -0.8421 -0.2705  0.0609
12510TIP3   OH259020   4.295   4.606   2.118  0.0243  0.1156  0.1156
12510TIP3    H159021   4.230   4.666   2.153 -1.9792 -1.0246 -1.3785
12510TIP3    H259022   4.289   4.617   2.023  2.0185 -0.0734 -0.0792
12511TIP3   OH259023   3.786   3.396  10.802 -0.3525  0.6532  0.1182
12511TIP3    H159024   3.788   3.477  10.751 -1.5773 -0.5808 -2.0611
12511TIP3    H259025   3.793   3.327  10.736 -1.2859 -1.0516  1.7187
12512TIP3   OH259026   0.827   4.669  15.095  0.2200 -0.2891  0.4471
12512TIP3    H159027   0.871   4.589  15.124  0.8242  0.1999  0.8928
12512TIP3    H259028   0.785   4.644  15.013 -0.0541 -1.2112  0.8553
12513TIP3   OH259029   3.426   3.806  14.164 -0.3724 -0.3251 -0.0178
12513TIP3    H159030   3.369   3.854  14.223  0.5069  0.2813  0.3654
12513TIP3    H259031   3.515   3.828  14.193  0.0663 -1.7081 -0.2069
12514TIP3   OH259032   0.064   0.322  13.521 -0.7622  0.0521 -0.2559
12514TIP3    H159033   0.121   0.277  13.459  3.0637  0.9242  2.3092
12514TIP3    H259034   0.034   0.400  13.474  1.1322  0.1490 -1.3888
12515TIP3   OH259035   6.234   3.875  14.245 -0.7789 -0.4329  0.3329
12515TIP3    H159036   6.258   3.864  14.337 -1.6644  1.8033  0.9141
12515TIP3    H259037   6.151   3.829  14.236 -0.5323 -0.9253  0.5702
12516TIP3   OH259038   4.039   3.912  10.497 -0.2746 -1.1657 -0.0042
12516TIP3    H159039   4.025   4.006  10.486  0.0659 -1.1330 -0.1718
12516TIP3    H259040   4.052   3.878  10.408  3.2800 -0.7670  0.1971
12517TIP3   OH259041   4.783   6.464  12.037  0.3207 -0.1800  0.4226
12517TIP3    H159042   4.759   6.443  11.947  0.9435 -0.7350  0.3769
12517TIP3    H259043   4.862   6.518  12.029  0.2805 -0.0914  0.6242
12518TIP3   OH259044   6.111   6.682  13.945  0.3191 -0.1580  0.2175
12518TIP3    H159045   6.072   6.728  13.871  0.5635 -1.4220 -0.7390
12518TIP3    H259046   6.205   6.699  13.937  0.2558  0.4609  0.7819
12519TIP3   OH259047   0.645   5.552   2.426 -0.6249 -0.4157  0.6601
12519TIP3    H159048   0.682   5.573   2.340  0.8843 -1.8025  0.9318
12519TIP3    H259049   0.715   5.572   2.488 -1.3017 -0.5090  1.4728
12520TIP3   OH259050   1.733   7.207  14.445  0.2360  0.0510 -0.3418
12520TIP3    H159051   1.648   7.182  14.410  0.3644 -2.2204  0.7770
12520TIP3    H259052   1.728   7.302  14.456 -1.3812  0.2336 -2.1964
12521TIP3   OH259053   4.329   5.619   0.717 -0.0584  0.5841 -0.1771
12521TIP3    H159054   4.399   5.665   0.670 -0.4096  0.2941 -0.9990
12521TIP3    H259055   4.255   5.680   0.713 -0.1033  0.5362 -0.0469
12522TIP3   OH259056   4.337   4.874   0.580 -0.0603  0.2899  0.0466
12522TIP3    H159057   4.335   4.969   0.568  0.0613  0.4962  1.4064
12522TIP3    H259058   4.425   4.857   0.614 -0.6415 -0.0539  1.4528
12523TIP3   OH259059   6.485   6.514  14.309  0.1906 -0.7615 -0.1349
12523TIP3    H159060   6.484   6.436  14.363 -0.8527 -0.9530 -0.3962
12523TIP3    H259061   6.462   6.483  14.221  0.1266 -0.2193 -0.3183
12524TIP3   OH259062   2.764   6.938   4.547 -0.6745  0.0055  0.2295
12524TIP3    H159063   2.858   6.954   4.543 -1.0813  3.2375  0.9388
12524TIP3    H259064   2.750   6.861   4.491  2.1400  0.5060 -1.3439
12525TIP3   OH259065   4.660   2.840   5.239  0.0628  0.0321  0.6060
12525TIP3    H159066   4.657   2.771   5.305  0.4739 -2.0433 -1.4317
12525TIP3    H259067   4.593   2.816   5.175 -0.2713  1.9395  0.1648
12526TIP3   OH259068   3.511   1.915  14.969 -0.5097  0.2783 -0.0823
12526TIP3    H159069   3.537   1.941  14.881 -0.9657  0.7016 -0.0961
12526TIP3    H259070   3.418   1.938  14.974 -0.4391  0.4370  0.5738
12527TIP3   OH259071   2.513   1.919   3.468 -0.6496  0.1462  0.2740
12527TIP3    H159072   2.501   1.908   3.562 -0.7099  0.6566  0.3309
12527TIP3    H259073   2.558   2.003   3.460 -0.8081  0.1911 -0.1617
12528TIP3   OH259074   6.100   1.201   3.998  0.1028  0.5251  0.0990
12528TIP3    H159075   6.184   1.241   4.021  0.4587 -1.0741  1.8320
12528TIP3    H259076   6.051   1.197   4.080 -1.0589  0.0577 -0.5873
12529TIP3   OH259077   4.953   3.891   2.209 -0.0293 -0.5948  0.1191
12529TIP3    H159078   5.048   3.887   2.224  0.0877 -0.0599 -0.4601
12529TIP3    H259079   4.934   3.812   2.159  0.6062  0.7135 -2.3161
12530TIP3   OH259080   2.420   4.905   0.429 -0.0433 -0.4550  0.4812
12530TIP3    H159081   2.451   4.840   0.366 -1.0676 -1.1014  0.6186
12530TIP3    H259082   2.379   4.853   0.499  3.3927  0.0165  3.1322
12531TIP3   OH259083   4.807   0.403  15.257  0.6538 -0.4712 -0.1569
12531TIP3    H159084   4.718   0.384  15.286  0.7061  1.4412  1.4437
12531TIP3    H259085   4.863   0.360  15.321  0.8495 -0.0894 -0.0709
12532TIP3   OH259086   2.476   4.515  15.199 -0.3761  0.0149 -0.1825
12532TIP3    H159087   2.412   4.564  15.251 -1.3852 -0.7542 -0.6519
12532TIP3    H259088   2.476   4.428  15.239  0.2924 -0.0305 -0.2713
12533TIP3   OH259089   1.755   3.269   5.140  0.3433  0.2080 -0.6159
12533TIP3    H159090   1.718   3.353   5.112  1.6492  0.9100 -0.3252
12533TIP3    H259091   1.758   3.276   5.235 -3.2863 -1.8226 -0.1671
12534TIP3   OH259092   5.646   0.356   5.187  0.2951 -0.1442  0.2369
12534TIP3    H159093   5.642   0.368   5.282  1.0864 -0.9629  0.3829
12534TIP3    H259094   5.583   0.287   5.169  1.4552 -1.2818  0.4164
12535TIP3   OH259095   3.593   2.722  13.558 -0.2021  0.1407 -0.0301
12535TIP3    H159096   3.498   2.733  13.560 -0.1304  1.2278 -1.3283
12535TIP3    H259097   3.628   2.805  13.592  0.2993 -0.0674 -0.0197
12536TIP3   OH259098   1.229   2.698   4.068  0.1531  0.2276 -0.4529
12536TIP3    H159099   1.296   2.654   4.121 -0.6831 -0.1300  0.3442
12536TIP3    H259100   1.185   2.757   4.129 -1.8557 -1.3196 -0.3196
12537TIP3   OH259101   2.600   1.172  14.593 -0.1488 -0.0140  0.0582
12537TIP3    H159102   2.522   1.206  14.548  0.0575 -0.0641 -0.3491
12537TIP3    H259103   2.568   1.139  14.676 -0.2565  1.8624  0.8140
12538TIP3   OH259104   3.793   2.990   2.627  0.3510  0.0536 -0.2798
12538TIP3    H159105   3.772   2.923   2.691  1.1574  0.7587  0.7563
12538TIP3    H259106   3.884   3.013   2.645  0.2502  1.0519 -0.9558
12539TIP3   OH259107   0.386   5.797   1.770  0.4806 -0.9081  0.6303
12539TIP3    H159108   0.477   5.822   1.759  0.6237 -1.7600 -0.2501
12539TIP3    H259109   0.387   5.701   1.777 -0.4773 -1.1195 -1.2919
12540TIP3   OH259110   5.554   7.182  11.534  0.1790  0.2398 -0.0970
12540TIP3    H159111   5.461   7.202  11.542 -0.0627 -0.5322 -0.8275
12540TIP3    H259112   5.585   7.169  11.623 -0.1493  1.6008  0.2444
12541TIP3   OH259113   5.981   1.868  14.665  0.0842 -0.1977  0.3090
12541TIP3    H159114   6.003   1.777  14.684 -1.2248 -0.2277  1.8516
12541TIP3    H259115   6.046   1.919  14.713 -0.8254 -0.3312  1.7651
12542TIP3   OH259116   0.451   0.697  11.004 -0.3945 -0.2965 -0.1293
12542TIP3    H159117   0.419   0.759  10.939 -1.0164 -0.1695  0.2826
12542TIP3    H259118   0.462   0.615  10.955  1.5098  0.3816 -0.9238
12543TIP3   OH259119   3.848   6.634   0.324  0.5570  0.6292  0.5969
12543TIP3    H159120   3.844   6.726   0.298  1.0665 -0.0973 -2.4300
12543TIP3    H259121   3.901   6.592   0.256 -1.6993 -2.3316  0.4446
12544TIP3   OH259122   0.690   1.296  13.620 -0.3066  0.0024  0.1350
12544TIP3    H159123   0.673   1.350  13.697  1.2915  0.2050  0.3796
12544TIP3    H259124   0.664   1.208  13.647 -0.3489  0.1752  0.6835
12545TIP3   OH259125   3.232   3.896   1.082 -0.4929  0.2027  0.0961
12545TIP3    H159126   3.248   3.989   1.068 -0.3537 -0.0001 -1.3359
12545TIP3    H259127   3.178   3.892   1.161 -0.0079  1.4440  0.5106
12546TIP3   OH259128   1.193   2.820  15.119 -0.1396  0.6547 -0.4464
12546TIP3    H159129   1.147   2.902  15.136 -0.9750  0.5490 -1.9898
12546TIP3    H259130   1.135   2.753  15.155  0.9306  0.7308  1.5685
12547TIP3   OH259131   3.213   5.825   1.830 -0.1728  0.1099 -0.4424
12547TIP3    H159132   3.210   5.918   1.851 -1.8528  0.0809 -0.3817
12547TIP3    H259133   3.182   5.781   1.910  0.6914 -0.5288 -0.4351
12548TIP3   OH259134   7.091   2.366   9.980  0.3543 -0.3432 -0.4818
12548TIP3    H159135   7.120   2.276   9.990 -2.1669 -1.1063  0.7315
12548TIP3    H259136   7.023   2.362   9.913  0.3850  0.7223 -0.6040
12549TIP3   OH259137   1.841   5.811  11.133 -0.3727  0.0347 -0.1959
12549TIP3    H159138   1.755   5.770  11.144  0.5224 -1.8094  0.5121
12549TIP3    H259139   1.824   5.905  11.138 -2.1879 -0.3064  1.2620
12550TIP3   OH259140   1.006   5.325   0.009  0.5108 -0.0491  0.2006
12550TIP3    H159141   0.968   5.406  -0.025  2.7395  0.2792 -1.7831
12550TIP3    H259142   1.036   5.349   0.097 -0.1109  0.8587  0.1847
12551TIP3   OH259143   1.929   2.544   4.356  0.1913  0.1109  0.1796
12551TIP3    H159144   1.985   2.478   4.314  0.2590  0.1454  0.2153
12551TIP3    H259145   1.946   2.534   4.449  0.5132  0.4564  0.1608
12552TIP3   OH259146   2.762   3.060  14.084  0.2907 -0.4901 -0.5279
12552TIP3    H159147   2.671   3.085  14.070  0.5583 -0.2358 -1.9924
12552TIP3    H259148   2.760   3.005  14.163 -1.1034 -0.4204 -0.4845
12553TIP3   OH259149   6.457   4.782   3.611 -0.1664 -1.4859  0.2860
12553TIP3    H159150   6.450   4.836   3.533  2.4929  0.4216  1.2117
12553TIP3    H259151   6.382   4.808   3.666 -0.2172 -0.4542 -0.2626
12554TIP3   OH259152   1.174   0.236  11.399  0.1397 -0.6908  0.1763
12554TIP3    H159153   1.267   0.237  11.377  0.3348  1.5119  0.8603
12554TIP3    H259154   1.167   0.288  11.479 -1.9038  0.9295 -0.9348
12555TIP3   OH259155   6.626   5.238  14.133  0.2364  0.2758  0.4678
12555TIP3    H159156   6.582   5.284  14.061  1.4948  0.4653 -0.1925
12555TIP3    H259157   6.607   5.145  14.116 -0.2803  0.3779  0.4470
12556TIP3   OH259158   1.226   1.440  14.168 -0.3338  0.4273 -0.1144
12556TIP3    H159159   1.273   1.411  14.245  0.6811  1.2527 -0.3895
12556TIP3    H259160   1.247   1.376  14.100  0.2393  0.6792 -0.1782
12557TIP3   OH259161   3.772   1.695  12.977 -0.1307  0.1898  0.0883
12557TIP3    H159162   3.793   1.603  12.993 -2.0352 -0.3375 -0.2581
12557TIP3    H259163   3.851   1.731  12.936 -0.4087 -2.1083 -2.7541
12558TIP3   OH259164   4.923   0.137   4.423  0.1159  0.3308 -0.3679
12558TIP3    H159165   4.937   0.109   4.514  2.6494  2.6503  0.0731
12558TIP3    H259166   4.922   0.233   4.428  0.8616  0.5250 -2.8515
12559TIP3   OH259167   2.546   5.678  14.044  0.7351  0.3128  0.4044
12559TIP3    H159168   2.558   5.587  14.071  0.3656  0.1415 -0.0021
12559TIP3    H259169   2.494   5.673  13.964 -0.9458  0.9443  1.3835
12560TIP3   OH259170   4.557   7.108  12.746  0.1347  0.0734  0.2045
12560TIP3    H159171   4.578   7.143  12.659 -0.3402  0.0977  0.0959
12560TIP3    H259172   4.501   7.032  12.728 -1.4833  1.1399  0.5265
12561TIP3   OH259173   6.901   6.741  14.452  0.3460  0.5202 -0.0687
12561TIP3    H159174   6.862   6.694  14.379 -0.0745  1.4817 -0.4755
12561TIP3    H259175   6.838   6.810  14.473 -0.3428 -0.7126  2.2720
12562TIP3   OH259176   7.040   0.899  13.430 -0.0508  0.0823 -0.2679
12562TIP3    H159177   7.080   0.861  13.351 -0.8872  0.2548 -0.7867
12562TIP3    H259178   6.975   0.834  13.457  1.7845 -1.0742  1.6528
12563TIP3   OH259179   6.733   5.749   4.106 -0.3624  0.2682 -0.0816
12563TIP3    H159180   6.729   5.702   4.023 -1.1880 -0.9853  0.6327
12563TIP3    H259181   6.826   5.761   4.123 -0.1820  1.4378 -1.6457
12564TIP3   OH259182   2.478   6.184   1.997  0.3795 -0.5816 -0.3885
12564TIP3    H159183   2.554   6.234   2.025 -0.2331 -0.5104  1.2447
12564TIP3    H259184   2.480   6.104   2.050  0.1447 -1.2987 -1.4170
12565TIP3   OH259185   5.770   1.431   1.559  0.8803 -0.0899 -0.3776
12565TIP3    H159186   5.800   1.418   1.648 -1.8261 -0.0714  0.6388
12565TIP3    H259187   5.770   1.527   1.547 -1.7258  0.1293  0.8227
12566TIP3   OH259188   6.364   6.637   0.515 -0.6542 -1.1570 -1.0322
12566TIP3    H159189   6.276   6.599   0.518 -1.1864  0.0471  1.3141
12566TIP3    H259190   6.365   6.699   0.588  2.0991 -0.9994 -1.1239
12567TIP3   OH259191   5.841   2.641  13.332 -0.5226  0.4756  0.8916
12567TIP3    H159192   5.758   2.641  13.283  1.1679 -2.8694 -2.4353
12567TIP3    H259193   5.884   2.722  13.306 -0.5821 -0.2480 -1.7050
12568TIP3   OH259194   0.478   6.680   0.989 -0.5010  0.2696  0.0775
12568TIP3    H159195   0.466   6.634   1.072 -0.7923 -2.3471 -1.3279
12568TIP3    H259196   0.394   6.723   0.974 -1.1881 -1.0099  0.1379
12569TIP3   OH259197   0.275   6.834  12.570  0.6195  0.5308 -0.2240
12569TIP3    H159198   0.317   6.882  12.641  2.6170 -0.7069 -0.4784
12569TIP3    H259199   0.255   6.748  12.607 -1.5188  0.9678 -0.2126
12570TIP3   OH259200   2.897   3.096   2.424  0.0853 -0.0441  0.1300
12570TIP3    H159201   2.831   3.165   2.422  0.1530  0.0161 -0.1064
12570TIP3    H259202   2.872   3.038   2.351 -0.6361 -0.8869  1.0229
12571TIP3   OH259203   5.496   3.369  13.472  0.2582  0.0985  0.0725
12571TIP3    H159204   5.489   3.303  13.540  0.3470 -1.0115 -0.9621
12571TIP3    H259205   5.580   3.351  13.429  0.4105  1.0519 -0.0740
12572TIP3   OH259206   5.237   1.031  12.536 -0.0450 -0.9472  0.8641
12572TIP3    H159207   5.313   1.089  12.531 -0.1220 -0.6804  2.2388
12572TIP3    H259208   5.190   1.045  12.455  0.2191  0.5250  0.9400
12573TIP3   OH259209   2.847   6.640   3.704 -0.2165  0.4938  0.2496
12573TIP3    H159210   2.882   6.724   3.674 -0.9811  0.9517  0.6038
12573TIP3    H259211   2.859   6.641   3.799 -0.4777  0.3282  0.2879
12574TIP3   OH259212   6.720   1.312   3.711 -0.2117 -0.3015 -0.2611
12574TIP3    H159213   6.677   1.392   3.681  1.9526  0.5739 -1.2161
12574TIP3    H259214   6.783   1.342   3.777  0.5111 -1.2385 -0.5122
12575TIP3   OH259215   3.153   0.569   0.178 -0.5145 -0.1300 -0.5838
12575TIP3    H159216   3.139   0.520   0.096  0.1465 -0.6635 -0.3904
12575TIP3    H259217   3.193   0.651   0.150  1.5461 -1.0996 -0.6919
12576TIP3   OH259218   5.875   6.663   0.994  0.7010  0.3047  0.5215
12576TIP3    H159219   5.913   6.688   1.078 -2.1509 -0.0323  2.0375
12576TIP3    H259220   5.867   6.568   0.998  2.0295  0.0954 -0.8768
12577TIP3   OH259221   2.034   5.163  11.748  0.3149 -0.1002 -0.1425
12577TIP3    H159222   2.050   5.244  11.700 -0.5455  0.6973  0.8565
12577TIP3    H259223   2.111   5.153  11.804  0.1695  0.3546  0.1473
12578TIP3   OH259224   6.691   4.870  13.342 -0.0813  0.6334 -0.1369
12578TIP3    H159225   6.629   4.853  13.271 -0.0632  1.1078 -0.2649
12578TIP3    H259226   6.741   4.946  13.313  0.7638  0.0790 -0.1592
12579TIP3   OH259227   6.958   5.668  10.002 -0.1307 -0.3052  0.1779
12579TIP3    H159228   6.976   5.749   9.954  1.0337 -0.5366  0.1985
12579TIP3    H259229   6.939   5.603   9.934  0.4403 -0.3701  0.0749
12580TIP3   OH259230   1.322   6.617  15.021  0.4322 -0.1353  0.3932
12580TIP3    H159231   1.385   6.544  15.028  0.0175 -0.6807 -1.1159
12580TIP3    H259232   1.349   6.664  14.942 -0.1108  0.5514  0.6130
12581TIP3   OH259233   4.285   4.297   3.202 -0.3001  0.2979 -0.9018
12581TIP3    H159234   4.375   4.312   3.228  0.7352 -2.9713 -2.0859
12581TIP3    H259235   4.245   4.253   3.278 -0.4730  0.4086 -0.9266
12582TIP3   OH259236   1.542   3.920   5.384  0.1281 -0.2524  0.1300
12582TIP3    H159237   1.617   3.975   5.407 -0.7164  0.2957  1.7115
12582TIP3    H259238   1.580   3.843   5.342  1.3561  1.4715 -2.1432
12583TIP3   OH259239   5.645   6.013  11.971 -0.1214  0.0222 -0.3299
12583TIP3    H159240   5.679   6.012  12.060 -1.0614 -1.5761  0.0523
12583TIP3    H259241   5.659   5.924  11.939 -1.7039 -0.0139 -1.0055
12584TIP3   OH259242   7.238   5.564  15.302 -0.3388  0.0722 -0.1191
12584TIP3    H159243   7.198   5.484  15.336  0.4654 -0.4502 -0.3871
12584TIP3    H259244   7.291   5.535  15.229  1.0021  0.6602  0.5867
12585TIP3   OH259245   0.356   0.297  13.034  0.0906 -0.5319 -0.2584
12585TIP3    H159246   0.409   0.252  13.099  0.0886 -0.5063 -0.2387
12585TIP3    H259247   0.361   0.390  13.059  0.2785 -0.4935 -0.4287
12586TIP3   OH259248   5.381   2.659  14.726  0.4681  0.2141 -0.2780
12586TIP3    H159249   5.463   2.617  14.701  1.3616  2.3445 -1.1571
12586TIP3    H259250   5.367   2.632  14.817  3.0128  1.0694  0.4532
12587TIP3   OH259251   7.187   5.520  12.690  0.0108 -0.2234 -0.1316
12587TIP3    H159252   7.195   5.431  12.727 -0.1694  0.1043  0.7232
12587TIP3    H259253   7.194   5.578  12.766  1.4692  0.5720 -0.8178
12588TIP3   OH259254   1.300   0.612  12.750 -0.2692  0.5783  0.1963
12588TIP3    H159255   1.382   0.564  12.756 -1.0628 -0.8867 -0.0589
12588TIP3    H259256   1.324   0.704  12.763  1.5192  0.2994 -0.8751
12589TIP3   OH259257   5.766   6.303   5.687 -0.3149 -0.2929 -0.1161
12589TIP3    H159258   5.727   6.263   5.609  1.0419 -0.4138 -0.7717
12589TIP3    H259259   5.860   6.289   5.676  0.2073  2.6975 -0.1751
12590TIP3   OH259260   0.535   1.985   4.466 -0.0332 -0.4270  0.1637
12590TIP3    H159261   0.509   2.045   4.536 -1.0853 -0.9617  0.2618
12590TIP3    H259262   0.532   1.899   4.506 -1.0929 -0.7873 -0.6414
12591TIP3   OH259263   3.261   4.342   4.009 -0.0303  0.9280  0.1986
12591TIP3    H159264   3.229   4.428   3.983  0.0639  0.7228 -0.6340
12591TIP3    H259265   3.261   4.343   4.104 -1.8260  1.1890  0.2242
12592TIP3   OH259266   5.161   1.801   2.041 -0.3723  0.2042 -0.2763
12592TIP3    H159267   5.222   1.871   2.019  1.2615 -0.8902  0.4987
12592TIP3    H259268   5.202   1.721   2.007 -2.7605 -0.3121 -2.2345
12593TIP3   OH259269   0.864   6.671  15.098  0.0759 -0.1297  0.4366
12593TIP3    H159270   0.847   6.580  15.073 -0.3711  0.0182  0.1915
12593TIP3    H259271   0.959   6.675  15.109 -0.0660 -1.1403  2.5263
12594TIP3   OH259272   5.732   5.065   9.851  0.0064 -0.0083 -0.0331
12594TIP3    H159273   5.685   4.984   9.872 -0.0949 -0.0988 -0.5921
12594TIP3    H259274   5.817   5.055   9.895  0.5273 -1.0229 -1.2044
12595TIP3   OH259275   6.314   0.617   2.720 -0.0081 -0.2363 -0.1313
12595TIP3    H159276   6.365   0.695   2.700 -0.0425 -0.2736 -0.3758
12595TIP3    H259277   6.227   0.649   2.740 -0.7584 -0.3444 -2.7774
12596TIP3   OH259278   2.015   6.860  10.890 -0.2919  0.4022 -0.1756
12596TIP3    H159279   1.966   6.854  10.807 -0.6453 -1.5112  0.1334
12596TIP3    H259280   2.093   6.910  10.868 -0.1011 -0.5461 -1.8375
12597TIP3   OH259281   1.821   4.195   1.459 -0.3331  0.4773 -0.4413
12597TIP3    H159282   1.902   4.170   1.413 -0.3168  0.3092 -0.3243
12597TIP3    H259283   1.835   4.164   1.549 -1.1078 -0.8444 -0.7561
12598TIP3   OH259284   7.163   7.099   3.291  0.0536  0.1112  0.0902
12598TIP3    H159285   7.218   7.133   3.362  1.1733 -0.0325 -0.6773
12598TIP3    H259286   7.196   7.010   3.276 -0.0099  0.2242 -0.7586
12599TIP3   OH259287   1.711   2.174  13.224 -0.2533 -0.1524 -0.6183
12599TIP3    H159288   1.797   2.177  13.182  0.4154 -0.4627  0.6718
12599TIP3    H259289   1.723   2.223  13.305 -0.4547 -2.6911  1.0315
12600TIP3   OH259290   2.670   1.892   3.697  0.3998 -0.2173 -0.2855
12600TIP3    H159291   2.665   1.889   3.792  1.7300  0.2823 -0.1903
12600TIP3    H259292   2.735   1.825   3.674 -1.5001 -1.9228 -1.0263
12601TIP3   OH259293   1.505   2.926  14.214  0.2662 -0.4836 -0.1095
12601TIP3    H159294   1.457   2.854  14.255  1.0276 -1.5428 -1.0059
12601TIP3    H259295   1.500   2.908  14.120 -0.8750  1.5308 -0.4804
12602TIP3   OH259296   5.426   5.070   1.828 -0.0048 -0.2439 -0.2487
12602TIP3    H159297   5.335   5.047   1.808  0.0574  0.0082 -0.8431
12602TIP3    H259298   5.478   5.006   1.779  0.1464 -1.6204  1.5981
12603TIP3   OH259299   0.729   4.923   0.841 -0.5025  0.0233 -0.5553
12603TIP3    H159300   0.740   4.883   0.755 -2.4864 -2.6641  0.3084
12603TIP3    H259301   0.635   4.937   0.850 -0.2447  1.1551  0.8465
12604TIP3   OH259302   4.329   7.163  15.024 -0.7775  0.3302 -0.0759
12604TIP3    H159303   4.309   7.257  15.020  1.1937  0.7550 -1.0135
12604TIP3    H259304   4.316   7.140  15.116 -2.6222  1.1700 -0.0765
12605TIP3   OH259305   0.169   3.214  12.858  0.3153 -0.0822 -0.2516
12605TIP3    H159306   0.140   3.273  12.789 -0.9822 -1.5218 -1.0070
12605TIP3    H259307   0.117   3.239  12.934  0.3758  0.2826 -0.3270
12606TIP3   OH259308   4.489   0.205   3.301  0.3373 -0.5005 -0.5240
12606TIP3    H159309   4.437   0.259   3.241  2.5090  1.2583 -0.9960
12606TIP3    H259310   4.532   0.269   3.359 -1.0223 -2.0822  2.4609
12607TIP3   OH259311   3.665   1.848  13.426 -0.2293 -0.0615 -0.0635
12607TIP3    H159312   3.758   1.838  13.408 -0.1890 -0.0865  0.1464
12607TIP3    H259313   3.622   1.836  13.342 -0.1282 -1.2799  0.0375
12608TIP3   OH259314   1.852   1.186   2.980 -0.4868  0.5868 -0.1893
12608TIP3    H159315   1.850   1.261   3.040 -1.3355  1.3333 -1.1107
12608TIP3    H259316   1.795   1.121   3.020  0.6194  0.2289  0.8516
12609TIP3   OH259317   5.767   0.780   2.235  0.1506  0.1338 -0.6942
12609TIP3    H159318   5.845   0.789   2.179  0.1625  1.2587 -0.5065
12609TIP3    H259319   5.696   0.763   2.173  0.6735 -1.8809 -0.8038
12610TIP3   OH259320   2.639   7.254   3.529  0.2443 -0.3772  0.0240
12610TIP3    H159321   2.730   7.247   3.558  0.6531  0.1145 -1.0848
12610TIP3    H259322   2.613   7.163   3.510  1.3524 -0.3305 -2.0585
12611TIP3   OH259323   5.119   3.189   4.084 -0.2583 -0.0024 -0.3142
12611TIP3    H159324   5.048   3.146   4.037 -1.1111  2.5424 -1.5649
12611TIP3    H259325   5.076   3.232   4.158  0.4808 -0.7774  0.5963
12612TIP3   OH259326   6.724   3.252   5.076 -0.2727  0.5955 -0.2718
12612TIP3    H159327   6.786   3.239   5.148 -0.0612  0.1229 -0.5398
12612TIP3    H259328   6.773   3.230   4.997 -0.2973  1.7523 -0.6383
12613TIP3   OH259329   6.593   0.558   2.532 -0.0046  0.0893 -0.4053
12613TIP3    H159330   6.677   0.588   2.496  0.0220 -1.3698 -1.6699
12613TIP3    H259331   6.547   0.639   2.556  1.7057  0.9172  0.2189
12614TIP3   OH259332   5.483   2.777   4.242 -0.3334 -0.1267 -0.0259
12614TIP3    H159333   5.496   2.815   4.155 -1.7150  1.2761  0.3318
12614TIP3    H259334   5.389   2.760   4.247 -0.8187  2.5153  2.1892
12615TIP3   OH259335   1.254   4.423   0.592  0.5799  0.3793 -0.1558
12615TIP3    H159336   1.184   4.362   0.615 -0.3116  1.5225  0.2622
12615TIP3    H259337   1.248   4.432   0.497 -1.1745  1.9641  0.0487
12616TIP3   OH259338   6.897   6.510   3.521  0.4339 -0.3139  0.2718
12616TIP3    H159339   6.977   6.529   3.472 -0.5424 -0.1829 -1.3537
12616TIP3    H259340   6.846   6.590   3.516  0.1394 -0.4300  1.2059
12617TIP3   OH259341   4.257   2.848   5.199 -0.1040 -0.1361  0.0102
12617TIP3    H159342   4.186   2.869   5.259 -1.1152  0.8943 -1.4862
12617TIP3    H259343   4.257   2.752   5.195 -0.8772 -0.1726  0.6347
12618TIP3   OH259344   2.953   1.753  10.684 -0.5281  0.3043  0.0163
12618TIP3    H159345   3.025   1.691  10.669 -0.2818  0.4430  0.5944
12618TIP3    H259346   2.996   1.838  10.691 -0.6988  0.3352  0.7839
12619TIP3   OH259347   2.208   3.010   5.058  0.3057  0.5103 -0.1078
12619TIP3    H159348   2.165   3.079   5.009 -0.3040 -0.3298 -0.7828
12619TIP3    H259349   2.140   2.973   5.114  0.2823 -0.4116 -0.7227
12620TIP3   OH259350   0.202   6.282  14.568  0.2541  0.1321 -0.5340
12620TIP3    H159351   0.194   6.283  14.663  0.4398 -0.0621 -0.5162
12620TIP3    H259352   0.206   6.190  14.545 -1.7862  0.1012 -0.9009
12621TIP3   OH259353   6.459   6.074   4.889  0.3225  0.2944  0.5157
12621TIP3    H159354   6.392   6.141   4.907  0.0322  0.1310  0.0527
12621TIP3    H259355   6.433   6.036   4.805 -0.3060 -1.3728  1.4348
12622TIP3   OH259356   0.122   5.166  13.692 -0.1705  0.1540 -0.0357
12622TIP3    H159357   0.077   5.102  13.746 -1.4239  0.4871 -0.6431
12622TIP3    H259358   0.211   5.132  13.683 -0.6028 -1.1049  0.2651
12623TIP3   OH259359   4.508   2.216   2.457 -0.2336  0.3394 -0.2014
12623TIP3    H159360   4.591   2.253   2.426 -0.7852  0.4475 -1.5897
12623TIP3    H259361   4.445   2.236   2.388 -0.5218 -3.3915 -1.2022
12624TIP3   OH259362   6.427   2.356   3.836 -0.4519 -0.0569 -0.2793
12624TIP3    H159363   6.478   2.308   3.902 -1.1233 -1.7675 -0.9486
12624TIP3    H259364   6.493   2.393   3.777  0.0560 -1.9761 -0.9621
12625TIP3   OH259365   4.048   3.144  11.771 -0.3645 -0.4713 -0.1806
12625TIP3    H159366   4.071   3.136  11.864  0.3383  0.9966 -0.2083
12625TIP3    H259367   3.952   3.143  11.770 -0.3902 -2.3778  0.3505
12626TIP3   OH259368   5.240   7.069   3.615 -0.1838  0.2322  0.1289
12626TIP3    H159369   5.324   7.024   3.619 -0.4139 -0.2940 -0.7512
12626TIP3    H259370   5.261   7.160   3.637  0.5165 -0.0014  0.4798
12627TIP3   OH259371   2.208   3.232  11.086  0.0736  0.4386  0.8821
12627TIP3    H159372   2.278   3.181  11.127  1.4188  2.6604  1.5737
12627TIP3    H259373   2.224   3.221  10.992 -0.0724 -0.8805  0.9928
12628TIP3   OH259374   5.623   5.395  15.256 -0.3844  0.5106  0.3869
12628TIP3    H159375   5.684   5.464  15.281  0.3020  0.2720 -0.5942
12628TIP3    H259376   5.547   5.410  15.312 -0.3761  2.2358 -0.0060
12629TIP3   OH259377   3.657   3.992   2.252  0.1436  0.0736 -0.0536
12629TIP3    H159378   3.654   3.904   2.216  3.5843 -0.9896  1.8203
12629TIP3    H259379   3.634   3.981   2.344  0.8612  1.0554  0.2664
12630TIP3   OH259380   4.790   5.900   2.901  0.2864 -0.0191  0.3329
12630TIP3    H159381   4.732   5.975   2.911 -0.8054 -0.7595 -0.2193
12630TIP3    H259382   4.865   5.934   2.853  0.2582  0.9272  0.9390
12631TIP3   OH259383   6.856   0.594   3.302 -0.8492  0.5720  0.0661
12631TIP3    H159384   6.947   0.618   3.318 -0.7702  0.3423 -0.0374
12631TIP3    H259385   6.816   0.595   3.389 -0.6229  0.1595  0.1778
12632TIP3   OH259386   5.161   2.933   9.960 -0.0503  0.1349 -0.0568
12632TIP3    H159387   5.253   2.906   9.959 -0.2097 -0.4046 -0.4397
12632TIP3    H259388   5.163   3.021   9.997  0.4355 -0.5802  1.7458
12633TIP3   OH259389   3.993   0.950   0.305 -0.1786 -1.0364  0.3538
12633TIP3    H159390   4.038   0.871   0.336 -1.5083 -1.3289  1.6492
12633TIP3    H259391   4.028   1.020   0.361 -0.7730 -1.1427  0.8720
12634TIP3   OH259392   1.574   5.739   3.643  0.1370 -0.0497 -0.2131
12634TIP3    H159393   1.560   5.710   3.733  1.3091  0.7335  0.2470
12634TIP3    H259394   1.496   5.710   3.596  0.2450 -1.9492  0.6791
12635TIP3   OH259395   4.029   4.780   2.497 -0.9395  0.2773  0.1734
12635TIP3    H159396   4.041   4.692   2.534 -3.0146 -0.4047 -0.6181
12635TIP3    H259397   4.105   4.829   2.527 -0.6412 -1.2739  2.1779
12636TIP3   OH259398   5.955   3.055   9.814  0.0037 -0.0583  0.3353
12636TIP3    H159399   5.969   3.078   9.906 -1.1694 -0.6877  0.6959
12636TIP3    H259400   5.894   3.122   9.782 -0.9882 -0.8475  0.5279
12637TIP3   OH259401   5.752   6.417  15.000 -0.4488 -0.2622  0.2768
12637TIP3    H159402   5.707   6.433  14.917 -1.4459  1.0520  1.0372
12637TIP3    H259403   5.800   6.497  15.017  0.3127 -0.7876  0.6483
12638TIP3   OH259404   5.579   0.734  13.056 -0.0530  0.5201  0.5982
12638TIP3    H159405   5.576   0.808  13.116 -0.8763  1.5689 -0.6946
12638TIP3    H259406   5.550   0.769  12.972  1.5336 -0.7968 -0.5580
12639TIP3   OH259407   0.767   2.512   1.148 -0.5490  0.2729  0.2248
12639TIP3    H159408   0.763   2.536   1.241 -2.2262 -0.3146  0.3520
12639TIP3    H259409   0.690   2.555   1.110  0.2140  0.6341 -0.9433
12640TIP3   OH259410   0.441   2.640  11.757 -0.0585  0.6153 -0.4031
12640TIP3    H159411   0.428   2.611  11.847 -2.3122  0.3731 -0.7362
12640TIP3    H259412   0.474   2.729  11.764  1.3021  0.0570  0.6393
12641TIP3   OH259413   2.910   5.026  14.619 -0.3948 -0.6011  0.2566
12641TIP3    H159414   2.858   4.970  14.561 -1.4791  1.1365 -0.5598
12641TIP3    H259415   2.845   5.074  14.670  0.4533  0.4146  0.4130
12642TIP3   OH259416   1.333   0.139   3.465 -0.1553 -0.1704 -0.0888
12642TIP3    H159417   1.286   0.114   3.386  2.0013 -0.7289 -1.2759
12642TIP3    H259418   1.387   0.063   3.486  0.3418  0.4792  1.1247
12643TIP3   OH259419   3.144   2.741  13.337 -0.3995  0.3857 -0.6267
12643TIP3    H159420   3.137   2.815  13.277 -0.6466 -0.1225 -1.2280
12643TIP3    H259421   3.202   2.680  13.293 -1.0540 -0.2507 -0.6175
12644TIP3   OH259422   7.131   7.097   1.574 -0.0280 -0.0575 -0.1493
12644TIP3    H159423   7.180   7.115   1.654 -0.3735 -2.5371  0.7163
12644TIP3    H259424   7.184   7.134   1.504  1.0735  0.7827  1.0877
12645TIP3   OH259425   4.406   0.498  13.697  0.0199 -0.3259  0.1627
12645TIP3    H159426   4.431   0.408  13.718  1.6746  0.0226 -0.1397
12645TIP3    H259427   4.435   0.549  13.772  0.7512  0.1698 -0.4402
12646TIP3   OH259428   5.817   2.269   5.621  0.0180  0.2090  0.4124
12646TIP3    H159429   5.876   2.257   5.547  0.6841 -1.1835  1.1391
12646TIP3    H259430   5.743   2.317   5.584  1.0135  0.8902 -0.7992
12647TIP3   OH259431   3.153   6.559  14.914  0.5915 -0.1155  0.1005
12647TIP3    H159432   3.163   6.552  15.009 -1.6921 -0.0659  0.3805
12647TIP3    H259433   3.217   6.626  14.889  2.0909 -0.9787  1.3800
12648TIP3   OH259434   4.336   0.983   3.233  0.5762 -0.4067 -0.6848
12648TIP3    H159435   4.400   0.944   3.293 -0.2563  0.3835  0.7797
12648TIP3    H259436   4.389   1.032   3.170  1.4328  0.3134  0.5544
12649TIP3   OH259437   6.458   0.012   1.322 -0.0350  0.2206  0.2326
12649TIP3    H159438   6.539   0.048   1.288  1.2359 -1.1605  1.6070
12649TIP3    H259439   6.477  -0.009   1.413 -0.7888 -3.2166 -0.2337
12650TIP3   OH259440   4.640   0.067   1.539 -0.4821 -0.3003 -0.2270
12650TIP3    H159441   4.611  -0.023   1.527 -0.8348 -0.3639  1.0253
12650TIP3    H259442   4.680   0.090   1.455 -0.5013 -1.5727 -0.6089
12651TIP3   OH259443   6.336   3.019  12.423  0.1654 -0.1237  0.2523
12651TIP3    H159444   6.395   3.093  12.409 -0.1918  0.1480  0.1636
12651TIP3    H259445   6.248   3.057  12.417 -0.0171 -0.4737  0.6478
12652TIP3   OH259446   0.507   6.166   3.394 -0.6276 -0.2663  0.2220
12652TIP3    H159447   0.588   6.156   3.444  0.4661  3.5144 -0.4434
12652TIP3    H259448   0.474   6.077   3.383  2.5903 -1.8323  1.8720
12653TIP3   OH259449   5.866   5.201   5.072  0.4628 -1.0510  0.1262
12653TIP3    H159450   5.921   5.279   5.077  0.1012 -0.8440  1.7142
12653TIP3    H259451   5.782   5.233   5.038  0.8855 -1.1093 -0.9861
12654TIP3   OH259452   6.142   5.611   4.342 -0.6559 -0.5139 -0.0650
12654TIP3    H159453   6.203   5.650   4.405 -1.9091  0.8506  0.3649
12654TIP3    H259454   6.198   5.574   4.274  0.6840 -0.7000  1.0951
12655TIP3   OH259455   6.696   7.205  10.231  0.1455 -0.1293 -0.2003
12655TIP3    H159456   6.720   7.283  10.182 -1.7876  2.0218  1.9839
12655TIP3    H259457   6.605   7.188  10.206  0.0347 -0.6958  0.5331
12656TIP3   OH259458   3.191   2.732   4.916  0.1416 -0.2922 -0.6714
12656TIP3    H159459   3.280   2.739   4.883  0.5216  0.8687  0.5358
12656TIP3    H259460   3.146   2.677   4.851  1.9504 -1.7088 -0.8054
12657TIP3   OH259461   2.742   2.490   1.988 -0.1867  0.3651 -0.3043
12657TIP3    H159462   2.825   2.472   2.031 -0.1017  0.0312 -0.6036
12657TIP3    H259463   2.755   2.575   1.945 -0.2264  0.6347  0.2000
12658TIP3   OH259464   4.767   4.191  10.299  0.1561  0.4087 -0.2697
12658TIP3    H159465   4.683   4.164  10.264 -0.5657  1.1653  0.8352
12658TIP3    H259466   4.791   4.122  10.360 -0.1679  0.6952  0.1870
12659TIP3   OH259467   2.117   5.664  12.752 -0.3673  0.5294  0.0942
12659TIP3    H159468   2.036   5.716  12.750 -2.3568 -2.3072 -2.4195
12659TIP3    H259469   2.097   5.591  12.810  0.2693 -0.2851 -0.6737
12660TIP3   OH259470   2.648   2.531  14.178 -0.2525 -0.1159 -0.0207
12660TIP3    H159471   2.697   2.501  14.255  0.2127  0.7396  0.0313
12660TIP3    H259472   2.644   2.454  14.121  0.7260 -0.3475  0.2023
12661TIP3   OH259473   6.287   0.071   0.857 -0.5734  0.6982  0.3401
12661TIP3    H159474   6.297   0.029   0.942 -0.3824  0.1878  0.0669
12661TIP3    H259475   6.288   0.165   0.877  0.1445  0.5955  0.8268
12662TIP3   OH259476   0.833   5.469   2.227 -0.3895 -0.6047 -0.5601
12662TIP3    H159477   0.821   5.447   2.135 -1.5879  1.4121 -0.9448
12662TIP3    H259478   0.906   5.531   2.229 -0.9502  0.0684 -0.2974
12663TIP3   OH259479   1.546   5.793   4.261  0.5812  0.2524  0.5964
12663TIP3    H159480   1.496   5.827   4.187  0.8526  0.1562  0.3661
12663TIP3    H259481   1.626   5.757   4.222  2.4502  3.3578  1.2120
12664TIP3   OH259482   5.987   4.358   3.121  0.4010 -0.6427  0.3656
12664TIP3    H159483   5.950   4.290   3.178 -0.5158 -1.1292 -0.7597
12664TIP3    H259484   5.912   4.391   3.072  0.8505  1.1606  0.8388
12665TIP3   OH259485   1.648   5.427  13.837 -0.1599  0.0607 -0.6899
12665TIP3    H159486   1.558   5.408  13.811 -0.4207  0.5205 -0.1655
12665TIP3    H259487   1.659   5.383  13.921  0.4274 -0.7935 -1.1984
12666TIP3   OH259488   6.460   6.163   2.482 -0.3436  0.5149 -0.2821
12666TIP3    H159489   6.463   6.138   2.389  0.9316  1.8597 -0.6373
12666TIP3    H259490   6.537   6.217   2.495  0.5089 -1.0920  2.0373
12667TIP3   OH259491   5.829   2.902   3.634  0.0784  0.5090  0.0711
12667TIP3    H159492   5.781   2.984   3.630  1.6381  1.4989  0.7317
12667TIP3    H259493   5.807   2.865   3.719  0.4807  0.9831  0.3912
12668TIP3   OH259494   4.988   5.117   1.076 -0.6884  0.3475  0.4790
12668TIP3    H159495   5.072   5.074   1.088 -0.9784  0.4142  3.4756
12668TIP3    H259496   4.991   5.193   1.134 -2.4839  0.8431 -0.0067
12669TIP3   OH259497   6.016   0.660   2.701  0.0688  0.0448 -0.1030
12669TIP3    H159498   6.042   0.710   2.623  0.1660  0.4303  0.1727
12669TIP3    H259499   6.009   0.570   2.670 -1.9279  0.4570 -1.0649
12670TIP3   OH259500   2.710   3.270   1.377  0.0247  0.7022  0.3113
12670TIP3    H159501   2.680   3.257   1.467 -0.9892  1.5389  0.1164
12670TIP3    H259502   2.654   3.213   1.325  0.0672  0.8215  0.1349
12671TIP3   OH259503   0.017   0.866   4.208  0.5428 -0.3825  0.1488
12671TIP3    H159504  -0.037   0.927   4.157  1.3847 -0.0119 -0.3188
12671TIP3    H259505   0.044   0.800   4.144  2.2787  0.5275 -0.1114
12672TIP3   OH259506   0.459   3.571   2.168 -1.0182  0.0944  0.0659
12672TIP3    H159507   0.419   3.658   2.177 -0.3235  0.2832  1.9242
12672TIP3    H259508   0.541   3.587   2.122 -0.4533  0.6093  1.2001
12673TIP3   OH259509   4.004   0.391  10.649 -0.0473 -0.2586 -0.2835
12673TIP3    H159510   4.037   0.306  10.622 -2.3807 -0.8681 -1.4639
12673TIP3    H259511   3.958   0.375  10.732  0.2939  0.0390 -0.0336
12674TIP3   OH259512   0.388   5.029   4.068  0.0675  0.0953  0.7052
12674TIP3    H159513   0.422   5.086   4.137  2.0674  1.0943 -0.9735
12674TIP3    H259514   0.466   4.993   4.026 -1.0812 -3.5289  1.2612
12675TIP3   OH259515   3.881   0.881  14.929 -0.1178 -0.5949  0.7760
12675TIP3    H159516   3.970   0.859  14.901 -0.3084 -1.1823  0.6145
12675TIP3    H259517   3.834   0.798  14.925 -1.5425  0.2099 -2.2804
12676TIP3   OH259518   6.363   4.206   2.120 -0.2829  0.3464  0.1300
12676TIP3    H159519   6.398   4.294   2.103 -0.5622  0.9296  2.3276
12676TIP3    H259520   6.336   4.174   2.033 -2.2976  3.3382 -0.5119
12677TIP3   OH259521   0.485   5.760   9.511 -0.5164 -0.5334 -0.0363
12677TIP3    H159522   0.398   5.789   9.539 -1.0026 -2.5778  0.7187
12677TIP3    H259523   0.508   5.691   9.573  0.9397 -1.1797 -1.2449
12678TIP3   OH259524   5.803   4.569  15.072 -0.3739 -0.1559  0.0979
12678TIP3    H159525   5.836   4.658  15.073 -1.5570  0.3585 -1.6396
12678TIP3    H259526   5.857   4.523  15.008  0.2553 -0.7207  1.0117
12679TIP3   OH259527   2.454   7.077   4.287  0.6956 -0.3925  0.5267
12679TIP3    H159528   2.475   7.024   4.209 -0.0096 -0.7589  0.5801
12679TIP3    H259529   2.414   7.015   4.347  0.0128  0.1776  0.6591
12680TIP3   OH259530   1.482   0.048  12.532 -0.7970  0.0949 -0.5598
12680TIP3    H159531   1.407   0.007  12.576  0.4120 -2.9449 -1.0794
12680TIP3    H259532   1.467   0.033  12.439  0.6159 -0.9793 -0.6518
12681TIP3   OH259533   3.835   5.897  10.628 -0.1223  0.4324  0.2871
12681TIP3    H159534   3.875   5.840  10.562  1.6255  2.9219 -0.9829
12681TIP3    H259535   3.804   5.973  10.579 -2.1148  0.7665  1.9266
12682TIP3   OH259536   2.890   3.285  12.681  0.2771  0.3461  0.1427
12682TIP3    H159537   2.817   3.321  12.731 -1.2248 -0.9391 -1.0061
12682TIP3    H259538   2.915   3.205  12.729  1.3366  1.0596  0.8298
12683TIP3   OH259539   2.397   4.302  12.551 -0.4393  0.3094 -0.0730
12683TIP3    H159540   2.387   4.326  12.643 -1.8315  0.7607 -0.3175
12683TIP3    H259541   2.418   4.209  12.552 -0.3274  0.3401  0.7023
12684TIP3   OH259542   5.793   2.848   9.732 -0.6204  0.0287  0.1400
12684TIP3    H159543   5.857   2.913   9.761 -1.5050  1.1878 -0.4000
12684TIP3    H259544   5.845   2.773   9.703  0.5958  1.4757 -1.6419
12685TIP3   OH259545   6.232   1.549   1.554 -0.0849  0.2692 -0.0373
12685TIP3    H159546   6.307   1.587   1.600  0.3926  0.2406 -0.7689
12685TIP3    H259547   6.178   1.624   1.531 -1.8757  0.1040  3.1015
12686TIP3   OH259548   3.525   3.177   4.338 -0.1810 -0.7796  0.3110
12686TIP3    H159549   3.477   3.145   4.414 -0.5414 -1.1604 -0.0683
12686TIP3    H259550   3.533   3.100   4.281  0.3300 -0.5682  0.0879
12687TIP3   OH259551   6.808   0.939   1.383 -0.1868 -0.4074  0.6693
12687TIP3    H159552   6.714   0.925   1.395 -0.1582 -1.8869 -0.5169
12687TIP3    H259553   6.813   1.004   1.313 -0.2925  1.3093  2.1811
12688TIP3   OH259554   5.594   4.329   1.138 -0.3507  0.2005 -0.2320
12688TIP3    H159555   5.639   4.381   1.072 -0.4415 -0.5886 -0.9381
12688TIP3    H259556   5.577   4.245   1.095 -0.6334 -0.2445  0.7167
12689TIP3   OH259557   3.373   0.905   0.343 -0.4582  0.4376  0.2172
12689TIP3    H159558   3.430   0.948   0.407 -0.1545 -1.3563  1.1947
12689TIP3    H259559   3.386   0.956   0.262  2.4428  0.1836  0.4201
12690TIP3   OH259560   4.893   7.076  13.397 -0.5153  0.1358 -0.0785
12690TIP3    H159561   4.844   7.157  13.379  2.1726  1.7270 -0.8791
12690TIP3    H259562   4.926   7.049  13.311  1.8834  0.4951  0.6538
12691TIP3   OH259563   4.388   7.203   4.221 -0.4709 -0.1280  0.0774
12691TIP3    H159564   4.476   7.189   4.258  0.4188 -0.3038 -1.9729
12691TIP3    H259565   4.333   7.220   4.298  1.2676 -0.3642  1.4649
12692TIP3   OH259566   6.370   1.724   2.668  0.3892 -0.3902  0.0437
12692TIP3    H159567   6.405   1.654   2.722  0.0581 -0.6110 -0.0286
12692TIP3    H259568   6.424   1.723   2.589 -0.8220 -1.8136 -0.7965
12693TIP3   OH259569   0.517   6.578   4.284 -0.0593  0.2126  0.4049
12693TIP3    H159570   0.513   6.494   4.239 -1.0521  0.3844  0.1524
12693TIP3    H259571   0.518   6.555   4.377  0.3650 -0.0973  0.3244
12694TIP3   OH259572   6.961   4.580   0.609  0.0666  0.2919 -0.2781
12694TIP3    H159573   6.884   4.538   0.648  0.1425  0.6603  0.2823
12694TIP3    H259574   7.035   4.530   0.642  0.3675  2.3103  2.4787
12695TIP3   OH259575   6.041   4.933   0.765  0.5965 -0.2493 -0.2572
12695TIP3    H159576   6.075   5.012   0.723  1.9100 -0.7675 -0.1931
12695TIP3    H259577   6.070   4.862   0.708 -0.7291 -0.6919 -0.4141
12696TIP3   OH259578   2.454   3.723   3.630 -0.1337 -0.3962 -0.0003
12696TIP3    H159579   2.486   3.707   3.542 -2.1157 -0.9074 -0.6623
12696TIP3    H259580   2.466   3.640   3.676  0.1152 -0.3793 -0.0338
12697TIP3   OH259581   1.350   4.671   1.095 -0.6465 -0.1097  0.5042
12697TIP3    H159582   1.314   4.604   1.037  0.3360 -0.7153  0.5731
12697TIP3    H259583   1.309   4.654   1.179 -0.0804 -0.9150  0.6310
12698TIP3   OH259584   3.897   0.362  12.071  0.4070  0.1952  0.6007
12698TIP3    H159585   3.854   0.423  12.132  2.7753  0.9141  1.6793
12698TIP3    H259586   3.932   0.419  12.002  1.2869 -0.1035  0.7876
12699TIP3   OH259587   0.095   1.945  13.536  0.0395  0.5895 -0.3874
12699TIP3    H159588   0.188   1.938  13.557 -0.1843  1.3849  0.9387
12699TIP3    H259589   0.078   2.039  13.528 -1.1495  0.6553  1.9695
12700TIP3   OH259590   4.441   5.062   2.808  0.0376 -0.2735 -1.1576
12700TIP3    H159591   4.378   5.074   2.737 -0.9576 -2.3567 -0.7268
12700TIP3    H259592   4.449   4.967   2.816 -0.3131 -0.1459  1.8363
12701TIP3   OH259593   3.864   2.649  13.098 -0.0399 -0.1823 -0.2338
12701TIP3    H159594   3.793   2.683  13.153  0.5896 -0.2447  0.6441
12701TIP3    H259595   3.854   2.695  13.015 -0.3742  0.7258  0.2931
12702TIP3   OH259596   0.204   0.742  14.162 -0.1004 -0.1389  0.2941
12702TIP3    H159597   0.185   0.832  14.133 -1.5227 -0.2389  0.8199
12702TIP3    H259598   0.205   0.691  14.081  0.1170  0.2473  0.0467
12703TIP3   OH259599   0.115   5.471   3.952  0.3463  0.0871 -0.0430
12703TIP3    H159600   0.129   5.398   3.893 -0.1477  0.6272 -0.8483
12703TIP3    H259601   0.047   5.441   4.012 -0.7673  0.3042 -1.1561
12704TIP3   OH259602   3.110   1.313   4.414 -0.5112  0.3560 -0.1935
12704TIP3    H159603   3.138   1.314   4.505 -2.6959 -0.8953  0.5610
12704TIP3    H259604   3.016   1.330   4.417 -1.1261 -2.1063 -1.9500
12705TIP3   OH259605   2.307   4.389   4.173 -0.4680 -0.5280 -0.6239
12705TIP3    H159606   2.368   4.394   4.100 -1.7805  0.7875 -1.6935
12705TIP3    H259607   2.335   4.458   4.233 -0.8493  0.0006 -1.0583
12706TIP3   OH259608   2.808   0.923  14.523 -0.2115 -0.0972  0.5321
12706TIP3    H159609   2.744   0.863  14.561 -0.0530 -0.9288 -0.4861
12706TIP3    H259610   2.764   1.009  14.526 -1.8928 -0.8259 -1.2182
12707TIP3   OH259611   0.557   2.972   2.914 -0.0318  0.1922  0.0931
12707TIP3    H159612   0.472   2.931   2.928  0.5069 -1.0601 -0.1979
12707TIP3    H259613   0.541   3.040   2.849 -0.7065 -0.4210 -0.3911
12708TIP3   OH259614   3.598   2.317  12.142 -0.2517 -0.2577  0.1575
12708TIP3    H159615   3.651   2.336  12.219  0.4124  1.1715 -0.6065
12708TIP3    H259616   3.635   2.236  12.107  0.3016 -0.2011  0.5978
12709TIP3   OH259617   0.995   0.062  13.394  0.0979 -0.0256  0.3871
12709TIP3    H159618   0.998  -0.034  13.386 -1.0902 -0.1666  1.2902
12709TIP3    H259619   1.084   0.090  13.378  0.5234 -1.3205  0.3619
12710TIP3   OH259620   3.665   2.193  12.406  0.0715 -0.1807  0.8996
12710TIP3    H159621   3.619   2.275  12.419  0.2747 -0.1813  1.7146
12710TIP3    H259622   3.596   2.127  12.395 -0.0908  0.0855  0.3444
12711TIP3   OH259623   6.309   4.220  14.206  0.3096 -0.0704 -0.1247
12711TIP3    H159624   6.238   4.284  14.199 -0.7106 -0.8880  1.7512
12711TIP3    H259625   6.272   4.140  14.169  1.3768  0.2270 -1.9368
12712TIP3   OH259626   1.067   4.362   4.758 -0.6859 -0.5406  0.2094
12712TIP3    H159627   1.076   4.328   4.669  1.0505 -0.5384  0.3535
12712TIP3    H259628   1.004   4.303   4.800 -0.5034 -1.3542 -0.6241
12713TIP3   OH259629   5.167   6.084   3.948  0.3096 -0.6299 -0.0896
12713TIP3    H159630   5.099   6.062   4.011  1.2756 -2.5078  0.3564
12713TIP3    H259631   5.126   6.069   3.863 -0.5956  0.7038  0.0714
12714TIP3   OH259632   2.024   3.817   4.697 -0.2943 -0.0776  0.4991
12714TIP3    H159633   2.009   3.819   4.603  0.4582  2.8393  0.3494
12714TIP3    H259634   2.117   3.800   4.707 -0.7874 -3.1093  0.9115
12715TIP3   OH259635   3.393   5.650   3.202  0.1280 -0.1385  0.0050
12715TIP3    H159636   3.477   5.612   3.177 -0.5677 -0.7211 -1.5298
12715TIP3    H259637   3.407   5.744   3.198  0.5413 -0.2341 -0.8299
12716TIP3   OH259638   5.774   2.331  13.398 -0.0109  0.4244  0.4479
12716TIP3    H159639   5.694   2.383  13.390 -0.3679  0.0493  1.3757
12716TIP3    H259640   5.788   2.323  13.493 -0.9252 -2.5310  0.4542
12717TIP3   OH259641   1.547   3.063  12.021  0.0156  0.3346  0.0396
12717TIP3    H159642   1.530   3.149  11.982 -1.5707  0.0387  0.0174
12717TIP3    H259643   1.480   3.006  11.983  1.4722 -1.0915 -0.4903
12718TIP3   OH259644   0.019   3.605  13.205  0.2679  0.7850 -0.8783
12718TIP3    H159645  -0.006   3.698  13.202  1.2288  1.0821 -0.2365
12718TIP3    H259646   0.113   3.606  13.191  0.4051 -0.0254 -0.1043
12719TIP3   OH259647   6.373   1.368   0.807 -0.0092 -0.0676  0.3254
12719TIP3    H159648   6.468   1.359   0.793 -0.1612  0.5513 -1.4298
12719TIP3    H259649   6.364   1.450   0.855  0.3780 -0.4968  1.1462
12720TIP3   OH259650   1.077   5.905   4.793  0.1944  0.1700 -0.0082
12720TIP3    H159651   1.129   5.844   4.739  1.1335 -0.4884  1.5652
12720TIP3    H259652   1.007   5.851   4.829 -0.1830  0.5147 -0.2145
12721TIP3   OH259653   0.775   6.878   1.073 -0.7383  0.3461 -0.1156
12721TIP3    H159654   0.846   6.934   1.043 -0.5462  0.2855  0.2349
12721TIP3    H259655   0.778   6.882   1.168 -4.0984  4.0878  0.1089
12722TIP3   OH259656   4.621   4.846   3.216 -0.5798 -0.3140 -0.1207
12722TIP3    H159657   4.687   4.781   3.191  0.3523  1.2094 -1.9019
12722TIP3    H259658   4.545   4.826   3.162  0.5814  1.4712 -2.6501
12723TIP3   OH259659   4.148   3.981   3.170 -0.0594 -0.9127 -0.2922
12723TIP3    H159660   4.232   3.957   3.210 -0.8682 -2.3136  0.6429
12723TIP3    H259661   4.130   4.069   3.203  1.2370 -0.4107 -0.8588
12724TIP3   OH259662   6.943   3.791   4.897 -1.0691 -0.7668 -0.2415
12724TIP3    H159663   6.967   3.802   4.989  2.2655 -1.9909 -0.8570
12724TIP3    H259664   6.900   3.706   4.894  1.5740 -2.1996 -0.1633
12725TIP3   OH259665   6.954   4.509  14.064 -0.0190 -0.4219 -0.4327
12725TIP3    H159666   7.010   4.432  14.064  0.0654 -0.3714  0.2858
12725TIP3    H259667   6.932   4.524  13.972  0.6144 -0.8272 -0.6508
12726TIP3   OH259668   2.245   2.205   1.468  0.3147  0.0288 -0.0527
12726TIP3    H159669   2.279   2.282   1.422 -1.6523 -0.2463 -2.2290
12726TIP3    H259670   2.320   2.147   1.479  1.2461  0.9558 -1.2666
12727TIP3   OH259671   2.971   4.327   0.705  0.2985 -0.2269  0.0868
12727TIP3    H159672   3.000   4.301   0.618  0.3232  0.6989 -0.1937
12727TIP3    H259673   2.913   4.256   0.733 -0.1613 -0.2753 -0.9221
12728TIP3   OH259674   6.784   4.496   2.820  0.2589 -0.0081  0.2833
12728TIP3    H159675   6.870   4.537   2.828  0.4797 -0.6999  1.7764
12728TIP3    H259676   6.779   4.436   2.894  0.0232 -2.8355 -1.8614
12729TIP3   OH259677   6.542   2.170   0.991 -0.6735 -0.6485 -0.7290
12729TIP3    H159678   6.551   2.265   0.985 -1.5466 -0.5265 -0.2649
12729TIP3    H259679   6.573   2.137   0.907  1.5163 -0.1119 -0.2091
12730TIP3   OH259680   4.533   0.233  14.212 -0.1628  0.3748  0.1558
12730TIP3    H159681   4.615   0.274  14.186  0.2745 -0.3666  0.3274
12730TIP3    H259682   4.560   0.152  14.256 -1.0103 -0.2666 -0.4806
12731TIP3   OH259683   3.699   1.608  12.206 -0.6783 -0.2525  0.0382
12731TIP3    H159684   3.768   1.655  12.159 -1.3148  0.1701 -0.4920
12731TIP3    H259685   3.682   1.531  12.152 -1.1888  0.0710 -0.2773
12732TIP3   OH259686   5.341   1.645   0.039 -0.1832  0.0048  0.1514
12732TIP3    H159687   5.403   1.596  -0.015 -0.3915  0.2624 -0.3294
12732TIP3    H259688   5.271   1.670  -0.022  0.8201  2.5396 -0.0723
12733TIP3   OH259689   4.024   3.053   2.314 -0.1779 -0.0276 -0.1297
12733TIP3    H159690   4.070   2.972   2.338 -0.2909 -0.2846 -0.7759
12733TIP3    H259691   3.944   3.024   2.271 -0.3475  0.4329 -0.1330
12734TIP3   OH259692   6.841   7.016   0.154 -1.0367 -0.2913  0.1048
12734TIP3    H159693   6.762   6.963   0.145 -0.5595 -0.7894 -1.6385
12734TIP3    H259694   6.836   7.052   0.242 -3.0914 -0.4880  0.1185
12735TIP3   OH259695   4.742   1.408   2.673 -0.0156 -0.2073 -0.5824
12735TIP3    H159696   4.647   1.414   2.673  0.0282  1.0837 -1.8551
12735TIP3    H259697   4.760   1.320   2.638 -0.7194 -0.8354  0.5898
12736TIP3   OH259698   6.269   4.905   4.023  0.6628  0.8384  0.0206
12736TIP3    H159699   6.340   4.955   3.984  0.5935  0.4271 -0.6491
12736TIP3    H259700   6.292   4.899   4.116  1.6009  0.5472 -0.2231
12737TIP3   OH259701   1.434   3.440   1.405  0.1142  0.5235  0.3938
12737TIP3    H159702   1.404   3.447   1.314 -0.0566  0.6441  0.4600
12737TIP3    H259703   1.360   3.404   1.453  0.2607  0.3047  0.4555
12738TIP3   OH259704   3.996   4.328   4.212 -0.2817 -0.6888  0.4908
12738TIP3    H159705   4.019   4.292   4.298 -2.3740 -0.8567  1.0395
12738TIP3    H259706   3.916   4.282   4.187 -1.2223  1.2380 -0.2931
12739TIP3   OH259707   3.900   4.562  11.744 -1.2664 -0.3014  0.1728
12739TIP3    H159708   3.843   4.637  11.726 -0.2452  0.9762  1.9484
12739TIP3    H259709   3.932   4.578  11.833  0.9500 -1.5792 -0.3376
12740TIP3   OH259710   5.927   3.333  11.088 -0.3386  0.0287 -0.6059
12740TIP3    H159711   5.929   3.257  11.029 -1.4695  0.3796 -1.1247
12740TIP3    H259712   5.989   3.311  11.157  0.1144 -0.9240 -1.2902
12741TIP3   OH259713   4.486   4.000  15.137  0.3319 -0.0732 -0.6810
12741TIP3    H159714   4.560   3.988  15.195  0.6829 -0.6523 -1.2486
12741TIP3    H259715   4.510   4.076  15.082  0.1887  0.1945 -0.3772
12742TIP3   OH259716   2.377   4.287   0.043  0.4223  0.3754  0.2019
12742TIP3    H159717   2.467   4.288   0.077  0.5178  0.1894 -0.0457
12742TIP3    H259718   2.386   4.262  -0.048  0.0920  0.0875  0.2476
12743TIP3   OH259719   2.067   4.619   4.591 -0.2392  0.1546  0.2438
12743TIP3    H159720   2.089   4.526   4.599 -1.7554 -0.1724  1.0368
12743TIP3    H259721   2.109   4.660   4.667  0.5374  0.1563 -0.1756
12744TIP3   OH259722   1.188   6.523   3.815 -0.1190 -0.9579  0.6141
12744TIP3    H159723   1.112   6.537   3.759  1.5293 -0.0237 -1.5364
12744TIP3    H259724   1.169   6.573   3.894 -1.3495  0.0208 -0.2615
12745TIP3   OH259725   0.806   2.616   2.310 -0.5598  0.8392  0.5516
12745TIP3    H159726   0.812   2.541   2.252  1.3942  1.9649 -0.8249
12745TIP3    H259727   0.769   2.686   2.256  0.2614  1.6110  0.9523
12746TIP3   OH259728   3.213   2.957  13.167 -0.2206 -0.1041 -0.0320
12746TIP3    H159729   3.307   2.953  13.186 -0.4765 -0.1998  1.3417
12746TIP3    H259730   3.203   2.912  13.084  1.1228  1.1118 -0.9075
12747TIP3   OH259731   6.899   3.343  10.998 -0.2063  0.0969  0.3115
12747TIP3    H159732   6.948   3.262  11.009 -0.8728 -0.0096  3.2729
12747TIP3    H259733   6.913   3.367  10.906  2.3401 -1.8335  0.0752
12748TIP3   OH259734   5.748   2.110   6.067  0.3913  0.7926 -0.1148
12748TIP3    H159735   5.761   2.198   6.101 -0.9714  1.0076 -0.0777
12748TIP3    H259736   5.813   2.101   5.998  3.8317  0.0576  2.8946
12749TIP3   OH259737   3.100   0.335  12.492  0.5187  0.0298  0.7098
12749TIP3    H159738   3.136   0.275  12.557 -0.5982  1.6275  2.9424
12749TIP3    H259739   3.005   0.329  12.505  0.3541  1.6556  0.4426
12750TIP3   OH259740   1.343   1.385  10.315 -0.5122 -0.6864  0.1115
12750TIP3    H159741   1.377   1.400  10.403 -1.1226  0.3305  0.1838
12750TIP3    H259742   1.393   1.446  10.260 -0.3070 -1.1413 -0.2083
12751TIP3   OH259743   0.515   6.548  12.343  0.0315 -0.3067  0.5046
12751TIP3    H159744   0.431   6.553  12.298  0.1493  0.3562  0.3410
12751TIP3    H259745   0.552   6.636  12.334  0.3922 -0.3709  1.2419
12752TIP3   OH259746   0.780   4.595   5.230  0.4463  0.3200 -0.3077
12752TIP3    H159747   0.755   4.687   5.236 -1.0381  0.0269 -1.4473
12752TIP3    H259748   0.876   4.597   5.224  0.8808  1.5160  3.8433
12753TIP3   OH259749   3.490   5.801   1.227  0.5907 -0.1676 -0.2979
12753TIP3    H159750   3.529   5.843   1.304  0.5547  2.5254 -1.6154
12753TIP3    H259751   3.396   5.807   1.241  0.5801  0.5905 -0.6643
12754TIP3   OH259752   6.624   4.152   2.648 -0.0809  0.5444  0.0898
12754TIP3    H159753   6.616   4.213   2.575  1.2407  0.3243 -0.2614
12754TIP3    H259754   6.709   4.111   2.635  1.6089  2.6061  3.3398
12755TIP3   OH259755   5.825   4.094   0.211  0.3037 -0.2783  0.4440
12755TIP3    H159756   5.858   4.054   0.291 -1.3456 -3.3035 -0.2273
12755TIP3    H259757   5.772   4.168   0.240  0.6635 -0.6254  2.0465
12756TIP3   OH259758   1.748   4.188  13.006  0.2268 -0.1635  0.2494
12756TIP3    H159759   1.833   4.215  12.972 -0.0928  0.2237 -0.2581
12756TIP3    H259760   1.743   4.094  12.987  0.5640 -0.1988  0.3345
12757TIP3   OH259761   2.266   2.351   4.560 -0.3574 -0.4532 -0.7311
12757TIP3    H159762   2.317   2.412   4.613 -1.8661  1.1952 -1.0644
12757TIP3    H259763   2.330   2.288   4.527  1.1873  0.6448  0.0587
12758TIP3   OH259764   5.206   4.476   0.191  0.0811  0.0108 -0.2824
12758TIP3    H159765   5.293   4.473   0.151 -0.4411 -0.8484 -1.4122
12758TIP3    H259766   5.189   4.569   0.203  0.7678  0.2361 -0.9442
12759TIP3   OH259767   1.091   5.907  14.513 -0.0405  0.3241  0.1368
12759TIP3    H159768   1.068   5.959  14.436 -0.4469  0.6996  0.5056
12759TIP3    H259769   1.028   5.836  14.513 -1.3082  1.3940  1.1881
12760TIP3   OH259770   4.453   1.084  12.362  0.2077  0.0687 -0.2462
12760TIP3    H159771   4.498   1.142  12.301 -1.6426  1.2772 -0.5268
12760TIP3    H259772   4.522   1.024  12.393  1.7506  1.1441 -1.4329
12761TIP3   OH259773   6.937   4.686   0.051  0.3941 -0.1566  0.6845
12761TIP3    H159774   6.919   4.596   0.078 -1.3887 -0.1428 -0.3188
12761TIP3    H259775   6.867   4.707  -0.011  1.7091  1.3727 -0.3641
12762TIP3   OH259776   1.962   6.340   3.296  0.8851  0.1045 -0.8160
12762TIP3    H159777   1.888   6.357   3.238  1.1752 -0.9982 -1.5408
12762TIP3    H259778   2.031   6.397   3.264  1.1649 -0.7761 -1.8218
12763TIP3   OH259779   1.926   2.211   5.448 -1.0111  0.9202  0.2679
12763TIP3    H159780   1.871   2.170   5.381 -2.1857 -0.1867  1.8385
12763TIP3    H259781   1.999   2.149   5.461 -0.9224  1.0088  0.1935
12764TIP3   OH259782   3.378   4.108   9.398  0.5429 -0.3046  0.4396
12764TIP3    H159783   3.404   4.113   9.490 -2.7384  2.7471  1.4380
12764TIP3    H259784   3.343   4.019   9.388  0.1025 -0.4094  2.4560
12765TIP3   OH259785   5.527   3.383  10.643  0.3962  0.9405 -0.4134
12765TIP3    H159786   5.484   3.346  10.566 -0.2019 -1.3846  0.9297
12765TIP3    H259787   5.615   3.346  10.641  0.8660  2.0530 -0.7410
12766TIP3   OH259788   2.389   2.389  11.421  0.6506  0.3177  0.3769
12766TIP3    H159789   2.428   2.373  11.507  0.0566 -0.6767  0.4750
12766TIP3    H259790   2.320   2.323  11.413 -1.4080  2.3562  0.4483
12767TIP3   OH259791   4.762   2.468   0.416  0.3609  0.0074  0.7042
12767TIP3    H159792   4.821   2.529   0.461  1.5727  0.0493 -0.8258
12767TIP3    H259793   4.820   2.414   0.362 -0.8684 -1.1893  0.5054
12768TIP3   OH259794   4.523   5.306   3.323 -0.1271 -0.1923  0.1355
12768TIP3    H159795   4.530   5.224   3.275  3.9887 -0.1786  0.4139
12768TIP3    H259796   4.474   5.284   3.403 -1.5790 -1.6090 -1.0656
12769TIP3   OH259797   1.194   1.153   2.106 -0.3064 -0.2336 -0.5118
12769TIP3    H159798   1.180   1.230   2.160 -0.4693  0.0670 -0.9766
12769TIP3    H259799   1.182   1.079   2.166 -1.6499  0.0620 -0.3735
12770TIP3   OH259800   2.764   1.218   4.278 -0.0169  0.1734  0.3578
12770TIP3    H159801   2.813   1.246   4.201  0.1358 -0.6655  0.1413
12770TIP3    H259802   2.772   1.291   4.339 -0.7356  1.1511 -0.6740
12771TIP3   OH259803   6.688   4.704  14.744  0.0414  0.0000  0.4308
12771TIP3    H159804   6.716   4.704  14.652  0.2541  1.1197  0.4883
12771TIP3    H259805   6.665   4.613  14.761  1.8019 -0.6071 -0.1784
12772TIP3   OH259806   5.478   4.715   3.143  0.0566 -0.4326  0.9680
12772TIP3    H159807   5.528   4.692   3.222 -0.8941 -1.8709  1.1983
12772TIP3    H259808   5.393   4.673   3.156 -0.7686  0.8806  0.0049
12773TIP3   OH259809   4.955   0.448  10.769  0.0264 -0.3350  0.2331
12773TIP3    H159810   5.024   0.470  10.707  0.0539 -0.6195  0.1618
12773TIP3    H259811   4.874   0.465  10.721  0.0451 -1.1780 -0.1105
12774TIP3   OH259812   5.345   3.974   3.536 -0.0892  0.3112 -0.1975
12774TIP3    H159813   5.310   3.952   3.623  1.6089 -0.6511  0.2934
12774TIP3    H259814   5.327   3.896   3.483 -1.5306  1.0682 -0.8851
12775TIP3   OH259815   0.994   6.167   4.036  0.3249 -0.0258 -0.0011
12775TIP3    H159816   0.924   6.231   4.043  0.0735 -0.4330  1.5074
12775TIP3    H259817   1.073   6.219   4.023  0.1204  0.6166  1.1775
12776TIP3   OH259818   2.579   3.027  10.064 -0.0050  0.3006 -0.2961
12776TIP3    H159819   2.654   3.041  10.007  0.0942  0.3834 -0.1480
12776TIP3    H259820   2.528   3.108  10.057 -1.0431 -0.4514 -1.7992
12777TIP3   OH259821   1.799   1.689  11.939 -0.2501 -0.1811 -0.0434
12777TIP3    H159822   1.765   1.600  11.928 -2.0620  0.3629  0.8132
12777TIP3    H259823   1.882   1.677  11.984 -0.0640 -1.4792 -0.6727
12778TIP3   OH259824   2.435   0.129  10.826 -0.5644  0.2090 -0.4316
12778TIP3    H159825   2.437   0.182  10.746  0.2945  0.7277 -0.0867
12778TIP3    H259826   2.440   0.038  10.795 -0.6958  0.3883 -0.9804
12779TIP3   OH259827   6.300   2.956  11.076 -0.2589  0.2137 -0.3400
12779TIP3    H159828   6.390   2.948  11.107 -0.3874 -0.9072 -0.2263
12779TIP3    H259829   6.291   3.049  11.054  1.2478  0.1505 -1.3664
12780TIP3   OH259830   6.852   2.775   0.778  0.0400 -0.2317 -0.6105
12780TIP3    H159831   6.877   2.825   0.856 -0.7945 -1.1410  0.2611
12780TIP3    H259832   6.932   2.773   0.726 -0.1802  3.0844 -1.3396
12781TIP3   OH259833   6.444   6.637   2.595  0.0781  0.0591 -0.6312
12781TIP3    H159834   6.350   6.654   2.601  0.4429  1.7283  1.8232
12781TIP3    H259835   6.485   6.719   2.621  2.2149 -1.0202 -0.3614
12782TIP3   OH259836   5.453   3.570   4.922 -0.5146 -0.0244  0.2051
12782TIP3    H159837   5.413   3.518   4.992 -1.0543  0.6105  0.3845
12782TIP3    H259838   5.546   3.572   4.944 -0.2818 -1.9150 -0.4749
12783TIP3   OH259839   3.936   5.910   2.149  0.4704 -0.2357  0.1028
12783TIP3    H159840   4.011   5.855   2.126  0.0061 -1.0840  0.5744
12783TIP3    H259841   3.957   5.944   2.235  0.7149  0.2638 -0.1493
12784TIP3   OH259842   1.516   4.399  13.690  0.0443 -0.7816 -0.2348
12784TIP3    H159843   1.586   4.456  13.659  0.2981  0.0408  1.7016
12784TIP3    H259844   1.474   4.367  13.610  1.4893  0.1163 -1.4098
12785TIP3   OH259845   5.264   3.935  10.566 -0.4275 -0.0161  0.0748
12785TIP3    H159846   5.261   3.853  10.517  0.2725  1.2102 -2.1403
12785TIP3    H259847   5.173   3.964  10.570 -0.5122 -0.2159 -0.3508
12786TIP3   OH259848   5.848   5.149   0.051 -0.4610  0.4518 -0.5736
12786TIP3    H159849   5.772   5.110   0.006 -0.5389  2.0897 -1.9383
12786TIP3    H259850   5.833   5.243   0.046  1.7844  0.8214 -1.0648
12787TIP3   OH259851   3.689   0.106  10.625  0.7956  0.3715  0.0151
12787TIP3    H159852   3.602   0.118  10.662  0.8749 -0.0944  0.3487
12787TIP3    H259853   3.687   0.157  10.544  1.2801  3.1778  1.6119
12788TIP3   OH259854   6.103   1.312   1.320  0.0072  0.1806 -0.3617
12788TIP3    H159855   6.014   1.284   1.343  0.2379 -0.9073 -0.7014
12788TIP3    H259856   6.147   1.325   1.404  0.0705 -1.1621 -0.1593
12789TIP3   OH259857   3.487   4.900  11.346 -0.2555  0.5936  0.2846
12789TIP3    H159858   3.441   4.918  11.428 -0.3318 -1.5518  0.7698
12789TIP3    H259859   3.432   4.836  11.301  1.2716 -0.5456 -0.0259
12790TIP3   OH259860   4.882   5.257   4.618 -0.0720  0.0424  0.0526
12790TIP3    H159861   4.810   5.297   4.569 -1.4687 -2.3226 -0.0133
12790TIP3    H259862   4.851   5.168   4.636  2.7620 -0.9977  0.2415
12791TIP3   OH259863   1.697   6.626   1.005 -0.5703  0.0257 -0.2603
12791TIP3    H159864   1.792   6.627   0.998 -0.5348  0.9643  0.1680
12791TIP3    H259865   1.666   6.624   0.915 -0.1354  1.0217 -0.4531
12792TIP3   OH259866   6.234   2.472   2.194  0.1603 -0.0353  0.4560
12792TIP3    H159867   6.270   2.438   2.276  0.9015 -0.6903 -0.1260
12792TIP3    H259868   6.216   2.564   2.212  1.3234  0.0902  1.0331
12793TIP3   OH259869   6.480   6.879   2.766  0.1564  0.0949 -0.1791
12793TIP3    H159870   6.393   6.879   2.807 -0.7438  1.5795 -1.9293
12793TIP3    H259871   6.540   6.858   2.838 -1.4264  1.4218  1.6619
12794TIP3   OH259872   5.812   4.859   2.566 -0.0861 -0.6465 -0.1782
12794TIP3    H159873   5.770   4.930   2.517 -0.6466 -0.2963  0.7800
12794TIP3    H259874   5.744   4.829   2.627  1.0751  0.0773  1.5643
12795TIP3   OH259875   1.654   0.433   4.573 -0.2848 -0.3856  0.5129
12795TIP3    H159876   1.676   0.520   4.540 -0.1325 -0.6380 -0.0700
12795TIP3    H259877   1.596   0.396   4.506 -0.5825 -0.6231  0.8972
12796TIP3   OH259878   1.059   0.003  11.338  0.0347  0.0522  1.0474
12796TIP3    H159879   1.103   0.083  11.364  1.9869 -0.5613 -0.1481
12796TIP3    H259880   0.966   0.018  11.359  0.6090  1.8706  2.5241
12797TIP3   OH259881   1.526   6.021   0.819  0.0342  0.0773  0.7329
12797TIP3    H159882   1.603   6.042   0.765 -1.1226  2.0755 -0.2625
12797TIP3    H259883   1.462   6.088   0.796 -1.6115 -0.8341  2.4046
12798TIP3   OH259884   6.124   6.018  10.590  0.6257 -0.1584  0.4103
12798TIP3    H159885   6.211   6.045  10.559  0.1955 -0.6983 -1.4054
12798TIP3    H259886   6.096   6.090  10.647  0.8592  1.7444 -1.7000
12799TIP3   OH259887   4.133   6.247   2.118  0.0884  0.0383  0.2333
12799TIP3    H159888   4.042   6.254   2.147  0.3920 -0.6668  1.4112
12799TIP3    H259889   4.141   6.159   2.082  0.1630  0.3087 -0.4331
12800TIP3   OH259890   1.908   7.145   4.812 -0.1421 -0.4894  0.3355
12800TIP3    H159891   1.864   7.077   4.864 -0.5147 -1.3372 -1.0441
12800TIP3    H259892   1.838   7.184   4.760  0.5585 -1.2106 -1.1909
12801TIP3   OH259893   1.752   5.887  10.695  0.9446  0.1763  0.0978
12801TIP3    H159894   1.744   5.894  10.791  3.0423  0.9054  0.2789
12801TIP3    H259895   1.809   5.960  10.671  1.0213 -0.4254 -1.6341
12802TIP3   OH259896   6.882   2.798  10.383 -0.1617 -0.3233 -0.7777
12802TIP3    H159897   6.944   2.748  10.435 -1.9621 -1.4940  0.3779
12802TIP3    H259898   6.850   2.866  10.442 -1.5569 -1.1039 -0.5920
12803TIP3   OH259899   2.393   6.455   9.736  0.3446 -0.3445  0.2682
12803TIP3    H159900   2.414   6.527   9.796 -1.7403  0.2860  0.3214
12803TIP3    H259901   2.461   6.461   9.668 -0.1924  2.2104 -0.1617
12804TIP3   OH259902   6.840   5.570   3.517  0.7883 -0.3376 -0.3899
12804TIP3    H159903   6.769   5.633   3.504  0.0443 -1.0726  0.0250
12804TIP3    H259904   6.880   5.596   3.600  0.2708 -0.6004 -0.0533
12805TIP3   OH259905   5.125   4.042  10.302 -0.1831  0.2400  0.1543
12805TIP3    H159906   5.096   3.979  10.369  0.0835  2.2463  2.2762
12805TIP3    H259907   5.220   4.039  10.305 -0.0933  2.3772  2.0490
12806TIP3   OH259908   6.529   2.878   2.113  0.5107  0.7269  0.0673
12806TIP3    H159909   6.490   2.815   2.173 -0.0326 -0.9366 -1.9437
12806TIP3    H259910   6.500   2.963   2.147 -1.1717 -0.2302  1.1939
12807TIP3   OH259911   4.161   0.090  10.184  0.9994  0.9090 -0.1691
12807TIP3    H159912   4.083   0.112  10.132  1.4277  0.5091 -1.0077
12807TIP3    H259913   4.133   0.020  10.242  0.7591  0.7017 -0.5364
12808TIP3   OH259914   1.733   4.800   4.384  0.1517 -0.2992 -0.5994
12808TIP3    H159915   1.810   4.743   4.379  0.0224 -0.7333  1.5614
12808TIP3    H259916   1.659   4.742   4.368  0.1962 -0.0388 -1.8462
12809TIP3   OH259917   2.734   3.530  11.544  0.0478 -0.3637  0.1150
12809TIP3    H159918   2.799   3.543  11.474 -0.1033 -1.5858 -0.2846
12809TIP3    H259919   2.691   3.448  11.521 -0.0314 -0.7834  1.6340
12810TIP3   OH259920   0.544   0.949  14.890  0.6364  0.0825 -0.2005
12810TIP3    H159921   0.547   0.855  14.907 -0.1220 -0.2467 -1.7077
12810TIP3    H259922   0.631   0.981  14.916  0.3673 -0.7369  1.8264
12811TIP3   OH259923   6.534   4.273  14.354  0.6953  0.3480  0.9878
12811TIP3    H159924   6.456   4.268  14.298  1.5909  0.0935 -0.2771
12811TIP3    H259925   6.606   4.293  14.294  2.1521 -2.5658  1.5871
12812TIP3   OH259926   2.752   0.338   3.988 -0.7300  0.1275  0.1967
12812TIP3    H159927   2.688   0.404   4.018 -1.1541 -0.1836 -0.0150
12812TIP3    H259928   2.831   0.389   3.969 -0.1055  0.2558  2.7301
12813TIP3   OH259929   6.727   1.358  10.039  0.0589  0.0235 -0.2885
12813TIP3    H159930   6.683   1.276  10.015  0.7380  0.3528 -2.9942
12813TIP3    H259931   6.655   1.416  10.066 -0.4522 -1.3187  1.4411
12814TIP3   OH259932   5.969   3.185   9.444  0.4111  0.1060 -0.3415
12814TIP3    H159933   5.885   3.145   9.466 -0.4521  1.7992 -0.3531
12814TIP3    H259934   5.949   3.245   9.372  1.5738  0.7091 -0.1929
12815TIP3   OH259935   1.596   2.368   4.139 -0.4870  0.1503  0.4889
12815TIP3    H159936   1.612   2.423   4.062  0.1125 -0.2373  0.3226
12815TIP3    H259937   1.607   2.279   4.106 -0.4535 -0.0261  0.9750
12816TIP3   OH259938   0.701   2.103   4.282 -0.4482  0.4059  0.1243
12816TIP3    H159939   0.757   2.162   4.332 -1.2566  1.8499 -0.6104
12816TIP3    H259940   0.650   2.057   4.350  1.0041 -0.3531  0.7534
12817TIP3   OH259941   3.399   1.010   1.092  0.1747  0.0481 -0.8498
12817TIP3    H159942   3.385   1.005   0.997  0.2785  1.8286 -0.9955
12817TIP3    H259943   3.459   0.939   1.112 -0.0531 -0.5088 -2.0831
12818TIP3   OH259944   4.505   4.252  14.967  0.3943  0.1843 -0.2579
12818TIP3    H159945   4.574   4.283  15.026 -1.0971  1.1477  1.0628
12818TIP3    H259946   4.440   4.322  14.967 -1.1434 -1.1844 -0.5268
12819TIP3   OH259947   1.643   3.779  11.841 -0.6188  0.0448  0.6024
12819TIP3    H159948   1.587   3.774  11.918  0.2275  0.6033  1.2715
12819TIP3    H259949   1.608   3.713  11.781 -2.1755  0.5838  0.8680
12820TIP3   OH259950   6.527   7.169  12.467  0.0323 -0.2263  0.3007
12820TIP3    H159951   6.617   7.195  12.489  0.1885  0.6351 -1.1741
12820TIP3    H259952   6.508   7.217  12.386 -2.0573  0.2393  1.0054
12821TIP3   OH259953   1.362   2.954  11.832  0.0033  0.3951  0.1851
12821TIP3    H159954   1.335   3.035  11.788  3.6300  1.7301  0.0811
12821TIP3    H259955   1.403   2.902  11.763  2.0410  0.6921  1.1106
12822TIP3   OH259956   1.355   2.971   2.585 -0.6211  0.0755 -0.3206
12822TIP3    H159957   1.358   2.888   2.632  1.7739  0.8942  1.1678
12822TIP3    H259958   1.277   3.015   2.619 -0.1147 -0.2369  1.3104
12823TIP3   OH259959   4.367   2.912   2.877 -0.5436  0.4198 -0.3785
12823TIP3    H159960   4.434   2.897   2.810  0.6731 -2.5475  1.2703
12823TIP3    H259961   4.384   3.001   2.908  1.7781  0.2620 -0.9652
12824TIP3   OH259962   6.833   4.568   1.813  0.0112  0.5225 -0.1812
12824TIP3    H159963   6.900   4.636   1.803  1.0812 -0.6069 -0.9618
12824TIP3    H259964   6.784   4.570   1.730  0.4567 -0.0637 -0.4684
12825TIP3   OH259965   3.386   5.725  14.682 -0.0480  0.0817  0.3080
12825TIP3    H159966   3.450   5.663  14.717 -1.5548 -0.7102  1.7851
12825TIP3    H259967   3.366   5.691  14.595 -0.2488 -1.0698  0.7826
12826TIP3   OH259968   1.039   0.412  13.879  0.2491  0.5381 -0.8131
12826TIP3    H159969   1.126   0.412  13.918  0.0425  0.2931 -0.3459
12826TIP3    H259970   0.989   0.473  13.933 -0.6192 -1.3635  0.6588
12827TIP3   OH259971   1.102   6.948  12.565  0.1920 -0.1178  0.0226
12827TIP3    H159972   1.117   6.985  12.652  1.9680 -0.3936 -0.1299
12827TIP3    H259973   1.120   6.855  12.576  1.4926  0.0099 -0.8588
12828TIP3   OH259974   2.981   4.882   5.099  0.2412 -0.4668  0.0955
12828TIP3    H159975   3.050   4.942   5.070 -0.1760 -0.2404 -0.4565
12828TIP3    H259976   3.028   4.811   5.142  1.0101 -1.2703 -1.9179
12829TIP3   OH259977   2.853   0.201  12.950 -0.4253 -0.1103 -0.0092
12829TIP3    H159978   2.886   0.169  12.866  0.6241 -0.1959  0.4178
12829TIP3    H259979   2.765   0.164  12.957 -1.0511  0.9850 -1.6617
12830TIP3   OH259980   4.496   3.012   5.512  0.0222 -0.3414  0.1157
12830TIP3    H159981   4.555   2.970   5.574  0.3818  2.5065  1.8598
12830TIP3    H259982   4.554   3.059   5.452 -0.4047 -1.1402 -0.9582
12831TIP3   OH259983   5.316   1.408  10.528 -0.3451 -0.4704  0.2283
12831TIP3    H159984   5.280   1.441  10.446  0.3021 -2.8385 -1.1047
12831TIP3    H259985   5.239   1.391  10.583 -0.7854  1.0793  0.1322
12832TIP3   OH259986   2.683   3.450  14.012  0.3232 -0.1914  0.3986
12832TIP3    H159987   2.754   3.504  13.979  0.7694 -1.6416 -1.1906
12832TIP3    H259988   2.725   3.371  14.045 -0.5055 -2.1780 -2.7683
12833TIP3   OH259989   0.304   1.968   2.566 -0.4068  0.2157  0.3195
12833TIP3    H159990   0.370   2.037   2.576 -0.9851  0.7682  0.3750
12833TIP3    H259991   0.244   2.002   2.499  0.7311 -1.3486 -1.6217
12834TIP3   OH259992   5.788   6.017  12.231 -0.1063  0.4157 -0.2126
12834TIP3    H159993   5.853   5.955  12.264 -1.1021 -0.9870 -0.8244
12834TIP3    H259994   5.838   6.098  12.216  1.8844 -1.0699 -2.2370
12835TIP3   OH259995   7.028   5.073   3.791  0.5763 -0.5772  0.2617
12835TIP3    H159996   6.986   5.156   3.770  0.3274 -0.9596 -0.8481
12835TIP3    H259997   6.957   5.008   3.782  1.0017 -1.0261  0.1164
12836TIP3   OH259998   0.832   2.366  10.649  0.3377 -0.7093 -0.1517
12836TIP3    H159999   0.866   2.454  10.636 -0.1388 -0.7467 -1.9212
12836TIP3    H260000   0.908   2.309  10.637  0.4195 -0.5962 -0.1741
12837TIP3   OH260001   1.852   0.194   4.033  0.5128  0.1337  0.7670
12837TIP3    H160002   1.818   0.151   4.111  1.1545  0.2222  1.0993
12837TIP3    H260003   1.899   0.126   3.985 -0.6778 -0.1557 -0.0413
12838TIP3   OH260004   1.718   2.448   4.861 -0.2290  0.2528  0.1444
12838TIP3    H160005   1.639   2.461   4.914 -2.6882  1.1575 -3.4410
12838TIP3    H260006   1.769   2.527   4.876 -1.5839  1.1857  0.0471
12839TIP3   OH260007   6.059   5.177   4.485  0.3804 -0.1534 -0.1653
12839TIP3    H160008   6.011   5.155   4.565 -0.2654 -2.0060 -0.9830
12839TIP3    H260009   6.030   5.265   4.463  1.0453  0.6467  1.9474
12840TIP3   OH260010   2.124   2.960   3.056  0.1638  0.2475  0.8031
12840TIP3    H160011   2.137   2.886   3.115  0.2333  0.2518  0.7928
12840TIP3    H260012   2.082   3.027   3.110 -0.6038 -0.0768  0.6203
12841TIP3   OH260013   2.469   6.508  15.043 -0.2658 -0.3619  0.4810
12841TIP3    H160014   2.425   6.593  15.047  1.7843  0.7537  0.6881
12841TIP3    H260015   2.537   6.519  14.977  1.7536 -0.9281  2.3415
12842TIP3   OH260016   3.844   5.285   0.375  0.0843  0.0247  0.6203
12842TIP3    H160017   3.928   5.287   0.419 -0.0069  3.5234  0.9159
12842TIP3    H260018   3.864   5.261   0.285  1.5076  1.2914  0.5732
12843TIP3   OH260019   0.644   2.920  14.718 -0.0376  0.1816 -0.1137
12843TIP3    H160020   0.730   2.952  14.747  0.3372 -1.9710  1.4171
12843TIP3    H260021   0.605   2.882  14.797 -2.9109  2.0242 -0.5113
12844TIP3   OH260022   6.757   2.664  10.122  0.0243  0.2047 -0.4508
12844TIP3    H160023   6.771   2.693  10.031  0.0184  0.1870 -0.4572
12844TIP3    H260024   6.784   2.738  10.175  0.1245  0.1774 -0.4645
12845TIP3   OH260025   1.117   1.350   4.067 -0.1962  0.2301  0.0457
12845TIP3    H160026   1.050   1.377   4.004  0.7252  0.0385 -1.0640
12845TIP3    H260027   1.104   1.407   4.142 -1.8227 -0.0493  0.0157
12846TIP3   OH260028   2.925   6.271   3.456  0.3942  0.8780 -0.2885
12846TIP3    H160029   2.858   6.252   3.390  0.5185  1.9808 -0.7359
12846TIP3    H260030   2.878   6.318   3.525  0.3047 -0.1013  0.3407
12847TIP3   OH260031   6.630   2.681  11.356  0.5903 -0.0546  0.5115
12847TIP3    H160032   6.574   2.605  11.374  0.1839 -0.2389 -1.3049
12847TIP3    H260033   6.703   2.672  11.417 -0.6056 -0.6148  1.9209
12848TIP3   OH260034   2.228   1.529   4.442  0.1937  0.3057 -0.5020
12848TIP3    H160035   2.296   1.472   4.477  0.5411  0.4051 -1.0036
12848TIP3    H260036   2.263   1.560   4.358 -0.5129  0.2667 -0.8203
12849TIP3   OH260037   3.388   5.555   0.803  0.0651 -0.7570 -0.1551
12849TIP3    H160038   3.420   5.514   0.723 -0.4866 -1.6230  0.0468
12849TIP3    H260039   3.389   5.649   0.785 -0.3738 -0.9555 -1.3048
12850TIP3   OH260040   0.647   5.954  11.960  0.1015 -0.4189  0.0890
12850TIP3    H160041   0.581   6.024  11.963  0.0891 -0.4393  0.3160
12850TIP3    H260042   0.638   5.916  11.873 -0.4696 -0.6884  0.2584
12851TIP3   OH260043   3.063   7.074  12.529 -0.1200  0.7071  0.3146
12851TIP3    H160044   3.109   7.141  12.478 -0.6905  0.7303 -0.1798
12851TIP3    H260045   2.988   7.050  12.474 -0.3407  0.2138  0.8297
12852TIP3   OH260046   6.492   0.446   4.774  0.3283  0.3852  0.0484
12852TIP3    H160047   6.463   0.434   4.684  1.0835 -0.4006 -0.1014
12852TIP3    H260048   6.500   0.357   4.809  0.6867  0.6549  0.6819
12853TIP3   OH260049   5.213   5.411  10.651  0.1809  0.7542 -0.1553
12853TIP3    H160050   5.166   5.383  10.729 -1.8451 -2.8851 -2.4647
12853TIP3    H260051   5.302   5.378  10.663  0.1739  1.1022  0.9607
12854TIP3   OH260052   5.533   6.937  15.318 -0.1272  0.0739 -0.2254
12854TIP3    H160053   5.442   6.961  15.334 -0.0256 -0.2413  0.8990
12854TIP3    H260054   5.567   7.008  15.264 -0.8850  0.4818 -0.1826
12855TIP3   OH260055   2.486   6.347  13.596 -0.5724 -0.4471  0.4056
12855TIP3    H160056   2.420   6.405  13.559 -0.5446 -0.7680 -0.1498
12855TIP3    H260057   2.459   6.335  13.687 -0.4097  0.6905  0.6250
12856TIP3   OH260058   2.448   2.145   3.749 -0.2951  0.4762  0.5587
12856TIP3    H160059   2.499   2.113   3.824  0.0994  1.4796  0.7313
12856TIP3    H260060   2.512   2.189   3.694 -0.8352  1.0255  0.3614
12857TIP3   OH260061   0.297   1.496   1.739 -0.2188 -0.0652 -0.0230
12857TIP3    H160062   0.253   1.570   1.783 -2.4431 -0.3915 -1.5265
12857TIP3    H260063   0.352   1.537   1.672  1.8587  0.3455  1.8113
12858TIP3   OH260064   4.479   1.506   1.922 -0.3270 -0.5486 -0.4218
12858TIP3    H160065   4.496   1.484   1.831 -0.1210 -1.2625 -0.2185
12858TIP3    H260066   4.395   1.462   1.942 -0.5583 -0.0893 -0.3727
12859TIP3   OH260067   5.993   4.283   1.990  0.2982 -0.1719 -0.0632
12859TIP3    H160068   6.032   4.320   1.911 -0.2635 -0.4600 -0.4821
12859TIP3    H260069   5.903   4.315   1.990  1.0119  2.0870  1.9125
12860TIP3   OH260070   6.462   2.725   3.147 -0.6963 -0.0146  0.1932
12860TIP3    H160071   6.406   2.661   3.103 -0.8904 -0.6098  1.2869
12860TIP3    H260072   6.402   2.781   3.196 -0.3910 -0.1570  0.7352
12861TIP3   OH260073   1.825   5.330  14.750 -0.1775 -0.5236 -0.1420
12861TIP3    H160074   1.894   5.358  14.689  0.6836 -0.3618  0.8806
12861TIP3    H260075   1.871   5.314  14.832 -1.1031 -2.1407  0.0951
12862TIP3   OH260076   1.862   2.151  10.133 -0.2491 -0.1440  0.1758
12862TIP3    H160077   1.808   2.074  10.118 -2.7321  1.1103  1.9256
12862TIP3    H260078   1.948   2.116  10.156 -0.1299 -2.2173 -2.9274
12863TIP3   OH260079   5.929   0.678   4.033  0.3978  0.0111  0.1102
12863TIP3    H160080   5.893   0.661   4.120 -0.0059  0.4378  0.0323
12863TIP3    H260081   6.015   0.717   4.050 -0.6634  2.4443  0.4192
12864TIP3   OH260082   5.113   4.305   4.554 -0.6695 -0.4106  0.6810
12864TIP3    H160083   5.116   4.210   4.546 -0.5076 -0.3098 -0.7344
12864TIP3    H260084   5.205   4.333   4.545 -0.9187 -0.0103 -1.0614
12865TIP3   OH260085   4.634   5.440   1.374 -0.2628 -0.2228 -0.7992
12865TIP3    H160086   4.592   5.466   1.291  0.1220 -2.0900 -1.6416
12865TIP3    H260087   4.707   5.385   1.347  1.8231  1.6170  0.7072
12866TIP3   OH260088   1.126   3.173  11.288  0.6507 -0.1319 -0.0040
12866TIP3    H160089   1.045   3.122  11.297  0.6632 -0.4143 -1.2435
12866TIP3    H260090   1.152   3.193  11.377  0.1878 -1.5830  0.4753
12867TIP3   OH260091   7.051   0.283   4.215  0.2814  0.4199 -0.4128
12867TIP3    H160092   7.073   0.372   4.186 -0.8450  1.2617  1.1469
12867TIP3    H260093   7.093   0.274   4.300 -1.4742  0.3421  0.4811
12868TIP3   OH260094   6.561   4.628  12.469 -0.3459  0.0670  0.4780
12868TIP3    H160095   6.502   4.702  12.482  0.5581  0.9953 -0.4967
12868TIP3    H260096   6.592   4.606  12.556 -1.0091  0.5080  0.8323
12869TIP3   OH260097   5.643   6.110   9.408  0.1738  0.1635 -0.1414
12869TIP3    H160098   5.661   6.119   9.314 -1.4684 -0.1759 -0.5290
12869TIP3    H260099   5.715   6.155   9.451  1.3159 -0.2493 -1.5535
12870TIP3   OH260100   6.173   4.663   3.930 -0.5313 -0.1253  0.0369
12870TIP3    H160101   6.215   4.642   3.846 -0.8499 -1.5498  0.2049
12870TIP3    H260102   6.195   4.755   3.946  1.2355 -0.4029 -0.6158
12871TIP3   OH260103   1.921   7.231   5.140 -0.1064 -0.2230 -0.6230
12871TIP3    H160104   1.826   7.233   5.152 -0.0458  1.3049 -0.1520
12871TIP3    H260105   1.943   7.138   5.136 -1.2172 -0.7879  2.7446
12872TIP3   OH260106   2.486   2.374   4.834  0.3288 -0.3632  0.2984
12872TIP3    H160107   2.521   2.461   4.816  0.9055 -1.0704 -2.3870
12872TIP3    H260108   2.401   2.390   4.876  0.8752  1.4441  0.7850
12873TIP3   OH260109   3.125   5.010  15.170 -0.3357 -0.1829 -0.6784
12873TIP3    H160110   3.193   4.943  15.173 -0.6325 -0.5163 -1.2858
12873TIP3    H260111   3.139   5.062  15.250  0.8204 -0.0572 -0.9434
12874TIP3   OH260112   0.978   3.361   1.535  0.1263 -0.2347 -0.1910
12874TIP3    H160113   0.939   3.294   1.481 -1.5562 -0.3363  1.0511
12874TIP3    H260114   0.942   3.443   1.502  1.1722 -0.0245 -0.8773
12875TIP3   OH260115   6.684   3.041   1.743  0.0100  0.2513  0.1960
12875TIP3    H160116   6.612   2.996   1.700 -1.1984  2.1188  0.1611
12875TIP3    H260117   6.734   2.972   1.787 -1.5811 -1.1127 -0.0849
12876TIP3   OH260118   1.926   2.772  12.171 -0.1733  0.1076  0.1921
12876TIP3    H160119   1.865   2.842  12.147  1.1826  1.4980  0.5977
12876TIP3    H260120   1.995   2.777  12.106 -1.0209 -2.2557 -0.9815
12877TIP3   OH260121   1.924   2.169  10.735  0.0425 -0.0164 -0.9831
12877TIP3    H160122   1.954   2.188  10.824  0.6256  0.0799 -1.1983
12877TIP3    H260123   1.994   2.115  10.697 -0.2531 -0.1485 -1.3492
12878TIP3   OH260124   3.213   1.635  11.982  0.0250 -0.0612 -0.5629
12878TIP3    H160125   3.239   1.562  12.037 -0.6532  1.5926  2.1687
12878TIP3    H260126   3.294   1.685  11.968 -0.0028  0.2171  0.1673
12879TIP3   OH260127   5.434   1.155   0.018 -0.3831  0.2451  0.1857
12879TIP3    H160128   5.374   1.155  -0.057  0.2784  0.1381 -0.3493
12879TIP3    H260129   5.379   1.183   0.091 -0.8769  1.0465 -0.4627
12880TIP3   OH260130   6.974   1.479  14.772  0.1624  0.8365  0.0546
12880TIP3    H160131   6.948   1.543  14.837 -0.0442  2.0109 -1.1305
12880TIP3    H260132   7.068   1.493  14.760  0.4426 -0.1947  0.9446
12881TIP3   OH260133   1.110   0.583   1.259  0.5372 -0.0974  0.6121
12881TIP3    H160134   1.088   0.647   1.327  0.1499 -0.9862  1.3568
12881TIP3    H260135   1.044   0.515   1.269  0.9612 -0.6283 -0.1325
12882TIP3   OH260136   4.792   4.458  14.947  0.7059 -0.2558 -0.1210
12882TIP3    H160137   4.769   4.423  15.033 -0.4675 -0.7644 -0.6208
12882TIP3    H260138   4.849   4.392  14.908 -1.8474 -1.9588 -1.2335
12883TIP3   OH260139   1.259   1.370   4.651 -0.3292 -0.1408  0.6519
12883TIP3    H160140   1.277   1.296   4.709 -1.0166 -0.7398  0.1071
12883TIP3    H260141   1.281   1.338   4.564 -1.6904 -0.0873  0.2691
12884TIP3   OH260142   1.732   5.089   1.114  0.2949 -0.3122  0.3144
12884TIP3    H160143   1.665   5.020   1.110  0.0411 -0.0458 -0.1848
12884TIP3    H260144   1.814   5.042   1.128 -0.0837 -0.5842  1.6893
12885TIP3   OH260145   2.503   2.790  14.957 -0.2660 -0.2152  0.7480
12885TIP3    H160146   2.563   2.716  14.973 -0.8091 -0.6315  0.8871
12885TIP3    H260147   2.561   2.866  14.948  0.3082 -0.6619  0.5524
12886TIP3   OH260148   0.054   1.100   0.373  0.5152 -0.0602  0.5215
12886TIP3    H160149  -0.026   1.106   0.321  1.8255  1.0689 -1.5199
12886TIP3    H260150   0.042   1.164   0.442 -0.1303  0.5180 -0.1082
12887TIP3   OH260151   1.119   1.510   3.013 -0.3038  0.0293 -0.4172
12887TIP3    H160152   1.154   1.488   3.099  1.9407 -0.0211 -1.2839
12887TIP3    H260153   1.072   1.431   2.985  1.4786 -1.0612 -0.4596
12888TIP3   OH260154   7.156   0.619   0.311 -0.2189 -0.3081 -0.4908
12888TIP3    H160155   7.077   0.669   0.292  0.1229  0.3034 -0.3119
12888TIP3    H260156   7.209   0.676   0.366  1.4536  0.3120 -2.5773
12889TIP3   OH260157   1.312   5.486  12.633  0.1554  0.8412  0.2012
12889TIP3    H160158   1.254   5.521  12.700 -0.2086  0.0671  0.3015
12889TIP3    H260159   1.253   5.455  12.564  0.4865  0.8374 -0.0829
12890TIP3   OH260160   1.365   4.369   3.393 -0.4253 -0.1386 -0.3690
12890TIP3    H160161   1.294   4.305   3.383  1.2540 -2.1730  0.0769
12890TIP3    H260162   1.340   4.420   3.471  0.0114 -2.8634  1.6832
12891TIP3   OH260163   3.951   4.705   1.772 -0.0927  0.2194  0.0579
12891TIP3    H160164   4.030   4.721   1.721  0.2928  0.3105  0.6783
12891TIP3    H260165   3.925   4.616   1.748 -0.2070  0.4431 -0.6773
12892TIP3   OH260166   5.415   0.023   4.291  0.3753  0.2168  0.5615
12892TIP3    H160167   5.397   0.117   4.301 -0.3903  0.3469 -1.3803
12892TIP3    H260168   5.328  -0.017   4.285  0.7013 -0.5202  0.6694
12893TIP3   OH260169   3.529   3.314   2.570  0.1802 -0.1897  0.1896
12893TIP3    H160170   3.622   3.326   2.589 -0.1855  0.9926  1.4318
12893TIP3    H260171   3.485   3.385   2.618 -1.5802 -2.1769  1.7482
12894TIP3   OH260172   5.866   6.859  15.147  0.2609  0.3971  0.1621
12894TIP3    H160173   5.955   6.864  15.182  0.5567 -1.4031 -0.2440
12894TIP3    H260174   5.810   6.880  15.221  1.0060  1.4995  0.4360
12895TIP3   OH260175   3.029   1.548   1.011  0.5339 -0.4977  0.0473
12895TIP3    H160176   2.972   1.485   0.967  0.5604 -0.2312 -0.3816
12895TIP3    H260177   3.103   1.559   0.951 -0.2270  1.1402 -0.6615
12896TIP3   OH260178   5.032   6.969   2.855  0.5311  0.1764  0.4491
12896TIP3    H160179   5.054   6.918   2.933  0.3792 -1.6367 -0.6398
12896TIP3    H260180   4.987   7.046   2.889  1.8332  0.2034  2.2305
12897TIP3   OH260181   4.738   0.362  13.980  0.1540  0.1431 -0.3523
12897TIP3    H160182   4.816   0.353  14.035  0.7045 -0.0060 -1.1396
12897TIP3    H260183   4.709   0.272  13.966 -0.6609  0.2408  0.6270
12898TIP3   OH260184   5.506   4.269   3.148 -0.8095 -0.1581  0.4935
12898TIP3    H160185   5.589   4.233   3.116 -0.3858  1.5546 -0.4350
12898TIP3    H260186   5.466   4.309   3.071 -1.4755  0.9215  1.3821
12899TIP3   OH260187   5.649   5.572   5.100 -0.0835 -0.4487 -0.0559
12899TIP3    H160188   5.668   5.632   5.028  0.9056 -0.9976 -0.2705
12899TIP3    H260189   5.593   5.622   5.159  0.5638  0.6205 -0.3280
12900TIP3   OH260190   4.272   1.929  11.110 -0.4338  0.0930 -0.8778
12900TIP3    H160191   4.307   1.894  11.028  0.9798 -1.4788  0.3164
12900TIP3    H260192   4.340   1.910  11.175 -2.3919 -0.7022  1.0842
12901TIP3   OH260193   4.328   3.667  14.742  0.4173 -0.6240  0.0193
12901TIP3    H160194   4.299   3.711  14.822  1.4976 -0.0147  0.0869
12901TIP3    H260195   4.422   3.654  14.753  0.1558 -3.0901  0.0446
12902TIP3   OH260196   0.307   3.800  14.385 -0.5333  0.4271  0.6127
12902TIP3    H160197   0.401   3.821  14.382 -0.5047  0.4310  1.3475
12902TIP3    H260198   0.294   3.765  14.473 -0.8120 -1.5583 -0.1864
12903TIP3   OH260199   6.773   5.086   4.090  0.0104  0.0355 -0.0181
12903TIP3    H160200   6.720   5.012   4.060  0.9330 -1.3265  1.5047
12903TIP3    H260201   6.838   5.046   4.149  0.6329  2.0502  0.7388
12904TIP3   OH260202   6.886   4.369   2.008 -0.1693 -0.4039  0.0419
12904TIP3    H160203   6.813   4.334   2.060 -1.3519  2.0165  0.1832
12904TIP3    H260204   6.846   4.435   1.952  1.9435  1.4472  0.5269
12905TIP3   OH260205   6.810   5.463   4.243 -0.4378 -0.0601  0.1105
12905TIP3    H160206   6.901   5.470   4.271 -0.1711  0.2691 -0.7957
12905TIP3    H260207   6.800   5.532   4.178 -1.1281 -0.5755 -0.3422
12906TIP3   OH260208   6.387   3.737   4.674 -1.0883 -0.1006 -0.5106
12906TIP3    H160209   6.319   3.748   4.607  0.2665 -2.2998 -2.3421
12906TIP3    H260210   6.411   3.645   4.670  0.5306  0.1536  1.6167
12907TIP3   OH260211   4.021   4.970   4.396 -0.4793  0.1072 -0.2804
12907TIP3    H160212   4.016   4.957   4.491 -2.0078  1.6253 -0.1095
12907TIP3    H260213   3.930   4.971   4.367 -0.0325 -0.3318 -1.7863
12908TIP3   OH260214   5.394   4.181   1.957 -0.8900 -0.4022 -0.2587
12908TIP3    H160215   5.324   4.235   1.994 -0.6277  0.7641 -1.3939
12908TIP3    H260216   5.350   4.125   1.893 -1.1605 -1.5808  0.9122
12909TIP3   OH260217   0.624   5.692   3.419 -0.0066 -0.2881  0.1893
12909TIP3    H160218   0.681   5.618   3.401  1.5167  0.7425  0.5801
12909TIP3    H260219   0.659   5.730   3.499 -0.4852  1.1088 -0.2381
12910TIP3   OH260220   0.117   3.126   1.033  0.1911 -0.3287 -0.2657
12910TIP3    H160221   0.166   3.057   0.988  1.1688  0.0573  0.1563
12910TIP3    H260222   0.153   3.207   0.998  0.1065 -0.0355  0.3111
12911TIP3   OH260223   1.091   2.112   4.311 -0.3298 -0.4341 -0.4301
12911TIP3    H160224   1.091   2.188   4.252 -0.4950 -0.1251 -0.0379
12911TIP3    H260225   1.144   2.140   4.386 -1.5498 -0.1925  0.3619
12912TIP3   OH260226   2.248   2.136   1.848  0.2891  0.1373 -0.5721
12912TIP3    H160227   2.329   2.130   1.798  0.4825 -0.3020 -0.2221
12912TIP3    H260228   2.183   2.168   1.786  1.0825  2.1088 -0.4572
12913TIP3   OH260229   1.462   2.229  14.892  0.3756 -0.0200 -0.0479
12913TIP3    H160230   1.538   2.284  14.876  1.5799 -0.7656  2.5659
12913TIP3    H260231   1.455   2.175  14.813  1.3946  1.3418 -1.1156
12914TIP3   OH260232   6.107   3.259   2.230 -0.2434  0.3819  0.0848
12914TIP3    H160233   6.070   3.172   2.242  0.8000 -0.1563 -0.4343
12914TIP3    H260234   6.110   3.271   2.135 -1.7608  1.6173  0.1589
12915TIP3   OH260235   3.962   1.197  13.581 -0.5871  0.4003  0.0488
12915TIP3    H160236   4.039   1.247  13.608 -1.0470  1.6582 -0.8922
12915TIP3    H260237   3.891   1.232  13.636 -0.6384 -0.2430  0.4005
12916TIP3   OH260238   0.185   5.351   4.682 -1.0632  0.3968  0.2159
12916TIP3    H160239   0.266   5.399   4.664 -0.3446 -0.6784  0.4550
12916TIP3    H260240   0.115   5.416   4.671 -0.3317  0.9118 -1.8918
12917TIP3   OH260241   0.079   0.353  15.023 -0.6687 -0.2608  0.2611
12917TIP3    H160242   0.169   0.361  15.056  0.6634  1.5073 -3.2128
12917TIP3    H260243   0.080   0.275  14.967 -0.3345  1.2363 -1.9805
12918TIP3   OH260244   0.107   2.253   3.449  0.0870  0.2118 -0.1157
12918TIP3    H160245   0.176   2.311   3.483 -1.1200  2.7462 -1.6532
12918TIP3    H260246   0.124   2.249   3.355 -2.7690  2.4402 -0.8612
12919TIP3   OH260247   0.778   6.401  15.251  0.4372 -0.3709  0.5539
12919TIP3    H160248   0.685   6.379  15.250  0.1057  0.9295 -1.1935
12919TIP3    H260249   0.815   6.355  15.175  0.8106  0.6965  0.0738
12920TIP3   OH260250   6.739   5.580  13.962  0.2739 -0.0606 -0.1168
12920TIP3    H160251   6.674   5.511  13.953  0.4227  0.0625 -2.9790
12920TIP3    H260252   6.804   5.544  14.023 -1.8244 -0.6113  1.9279
12921TIP3   OH260253   3.547   6.373   2.879  0.0957  0.4429  0.2294
12921TIP3    H160254   3.463   6.330   2.867  0.3125 -0.5698  2.0544
12921TIP3    H260255   3.525   6.462   2.906 -0.3884  0.2719  0.4058
12922TIP3   OH260256   6.026   3.504  13.017 -0.1734 -0.1325 -0.2795
12922TIP3    H160257   6.031   3.411  12.999 -0.5062 -0.5131  1.4322
12922TIP3    H260258   6.018   3.510  13.112 -2.5256  1.5463 -0.4880
12923TIP3   OH260259   1.609   1.959   4.285 -0.1133 -0.8023  0.2963
12923TIP3    H160260   1.551   2.013   4.232 -0.2306 -0.9787  0.2456
12923TIP3    H260261   1.575   1.870   4.275  0.2280 -0.9205  0.1837
12924TIP3   OH260262   6.898   1.624   0.839  0.6164  0.4310  0.0230
12924TIP3    H160263   6.878   1.581   0.757  0.0149 -1.1032  0.9290
12924TIP3    H260264   6.813   1.643   0.878  0.8746 -0.2469  0.9608
12925TIP3   OH260265   4.102   2.519   3.962 -0.1478  0.1587 -0.8451
12925TIP3    H160266   4.067   2.453   3.903 -2.7124  0.4675  0.1648
12925TIP3    H260267   4.025   2.569   3.990  1.3496  1.9092  0.4498
12926TIP3   OH260268   3.158   3.787   4.712  0.2413 -0.5343 -0.3147
12926TIP3    H160269   3.241   3.793   4.666  0.4782 -0.8321  0.0714
12926TIP3    H260270   3.098   3.747   4.649  0.7801 -1.7136 -0.0930
12927TIP3   OH260271   7.116   4.096  15.115  0.1277  0.2331  0.1921
12927TIP3    H160272   7.138   4.004  15.132 -1.1754 -0.1361 -0.0095
12927TIP3    H260273   7.191   4.129  15.065  1.0043 -0.4751  0.9889
12928TIP3   OH260274   3.103   5.136   2.548  0.3055  0.2602  0.1544
12928TIP3    H160275   3.135   5.133   2.457 -1.3026  0.9491 -0.4706
12928TIP3    H260276   3.096   5.044   2.574 -1.4630 -0.0730 -1.2858
12929TIP3   OH260277   6.082   0.719   2.440  0.6265  0.0102  0.4464
12929TIP3    H160278   6.137   0.649   2.406  1.4530  1.2341 -0.8519
12929TIP3    H260279   5.997   0.706   2.398  1.0759  0.3720 -0.5868
12930TIP3   OH260280   6.493   6.290  13.059 -0.0411  0.1806  0.4899
12930TIP3    H160281   6.532   6.299  13.146 -2.1444 -0.2334  1.5662
12930TIP3    H260282   6.482   6.195  13.048 -0.3130  0.2621  0.0444
12931TIP3   OH260283   2.808   6.864  12.947 -0.0942 -0.4351 -0.4114
12931TIP3    H160284   2.736   6.927  12.944 -0.9262 -1.3688 -0.8137
12931TIP3    H260285   2.839   6.868  13.038  0.0015  0.6799 -0.4824
12932TIP3   OH260286   4.706   5.512  11.777 -0.3289 -0.1784 -0.8162
12932TIP3    H160287   4.629   5.458  11.794  0.3071 -0.7237  0.4036
12932TIP3    H260288   4.766   5.493  11.849  0.2489  1.5385 -0.7899
12933TIP3   OH260289   4.998   2.640  14.527  0.0620 -0.3497  0.1170
12933TIP3    H160290   4.919   2.608  14.483 -1.2326  2.7867 -0.0412
12933TIP3    H260291   4.966   2.676  14.610  1.4972  0.0583  0.5134
12934TIP3   OH260292   4.378   6.084   2.478  0.4274 -0.2669  0.0761
12934TIP3    H160293   4.439   6.132   2.534  1.4409  0.4665 -1.5842
12934TIP3    H260294   4.293   6.125   2.496  1.1378  1.6488 -0.6953
12935TIP3   OH260295   5.200   0.265  13.644 -0.1200 -0.4118  0.7998
12935TIP3    H160296   5.112   0.295  13.668 -0.8754 -1.3001 -0.7156
12935TIP3    H260297   5.227   0.209  13.717 -0.1075  1.1272  2.0344
12936TIP3   OH260298   1.968   0.428   3.962  0.3349  0.6099  0.2027
12936TIP3    H160299   1.938   0.356   4.019 -0.2460  0.6556 -0.0314
12936TIP3    H260300   1.929   0.506   4.000  2.3562  1.0612  1.4535
12937TIP3   OH260301   2.357   1.582  13.139  0.6902 -0.0911 -0.8480
12937TIP3    H160302   2.446   1.612  13.156  0.5219 -0.3414  0.6291
12937TIP3    H260303   2.317   1.574  13.226 -0.9068  0.4033 -1.4943
12938TIP3   OH260304   0.887   5.266   2.423 -0.3406  0.0280  0.0411
12938TIP3    H160305   0.970   5.282   2.468 -0.3033 -0.0402 -0.0035
12938TIP3    H260306   0.880   5.337   2.359  1.4044 -1.8824 -2.4495
12939TIP3   OH260307   3.260   1.345  12.875 -0.5675 -0.5491  0.2412
12939TIP3    H160308   3.336   1.289  12.892  0.0605  0.4536  0.8395
12939TIP3    H260309   3.241   1.331  12.783  0.8709 -0.1940 -0.1368
12940TIP3   OH260310   1.203   3.685   2.891 -0.3716  0.4346  0.0940
12940TIP3    H160311   1.215   3.777   2.917  0.1954 -0.2804  2.6180
12940TIP3    H260312   1.112   3.666   2.910  0.1695 -0.2369  2.2905
12941TIP3   OH260313   7.088   5.383  13.221  0.2614  0.3766  0.4184
12941TIP3    H160314   7.030   5.375  13.297 -0.8400 -0.9716 -0.5082
12941TIP3    H260315   7.118   5.294  13.205  1.5749  0.8696  0.0794
12942TIP3   OH260316   6.338   2.002  14.515  0.4850 -0.7601  0.3525
12942TIP3    H160317   6.428   1.978  14.537 -0.0184 -2.4676  0.6962
12942TIP3    H260318   6.330   1.982  14.422  0.5830 -0.1688  0.2130
12943TIP3   OH260319   4.182   6.973  10.444 -0.0838 -0.6693 -0.3849
12943TIP3    H160320   4.208   7.055  10.402  1.2713 -0.1638  1.3220
12943TIP3    H260321   4.229   6.905  10.395 -0.8582 -0.4086 -1.5233
12944TIP3   OH260322   5.068   2.355   9.896 -0.1664 -0.5848  0.0974
12944TIP3    H160323   4.984   2.309   9.904 -1.2109  0.9958 -1.2034
12944TIP3    H260324   5.133   2.293   9.931 -1.8915 -1.7226  1.4326
12945TIP3   OH260325   1.864   4.118   1.732  0.0137  0.0959  0.0932
12945TIP3    H160326   1.948   4.116   1.778  0.1312 -0.3745 -0.1404
12945TIP3    H260327   1.800   4.095   1.799  0.1213 -0.0064  0.1618
12946TIP3   OH260328   3.569   2.203   3.194  0.8457  0.3989  0.7168
12946TIP3    H160329   3.540   2.260   3.265 -1.9335 -0.7559  0.6123
12946TIP3    H260330   3.522   2.234   3.117  1.9770  0.1132 -0.1221
12947TIP3   OH260331   5.088   6.400  13.408  0.3351 -0.0517  0.2800
12947TIP3    H160332   5.105   6.334  13.476 -0.8850 -0.3979  0.2832
12947TIP3    H260333   5.009   6.446  13.438 -0.4388 -0.4417 -1.0411
12948TIP3   OH260334   7.197   3.498  14.297  0.3029  0.4909 -1.0865
12948TIP3    H160335   7.129   3.474  14.235 -1.3319  1.0094  0.4281
12948TIP3    H260336   7.227   3.585  14.268  0.5396  0.1400 -1.9137
12949TIP3   OH260337   2.939   2.392   0.222  0.4108  0.1394  0.1869
12949TIP3    H160338   3.018   2.352   0.185  0.9322  0.7171  0.6673
12949TIP3    H260339   2.868   2.334   0.194  1.1611 -1.1967  0.9495
12950TIP3   OH260340   5.922   2.589   3.392  0.4021  0.3812 -0.4269
12950TIP3    H160341   5.897   2.675   3.358  0.5682  0.2389 -0.9235
12950TIP3    H260342   6.006   2.571   3.350 -0.6345 -0.9826 -2.0553
12951TIP3   OH260343   0.882   5.659   1.473 -0.1410  0.0422  0.5368
12951TIP3    H160344   0.841   5.652   1.387 -1.0566  0.0087  0.9727
12951TIP3    H260345   0.837   5.731   1.516  0.9709  0.7070  0.6426
12952TIP3   OH260346   1.250   4.109   1.116  0.1434 -0.5264  0.4001
12952TIP3    H160347   1.203   4.104   1.199  1.8969  2.6534  1.7535
12952TIP3    H260348   1.230   4.196   1.082  2.5282 -0.2382 -0.4854
12953TIP3   OH260349   0.132   2.747   4.425 -0.5438 -0.2662  0.2719
12953TIP3    H160350   0.116   2.660   4.387  0.9166 -0.7127  0.6032
12953TIP3    H260351   0.063   2.802   4.389 -1.0245 -1.3829 -0.5847
12954TIP3   OH260352   4.300   4.316   3.537 -0.3250 -0.4042  0.0810
12954TIP3    H160353   4.357   4.271   3.599 -1.5978 -1.2959  0.6370
12954TIP3    H260354   4.279   4.399   3.581 -0.4184 -0.5973  0.4053
12955TIP3   OH260355   3.956   7.088   5.085 -0.2000  0.1668 -0.4240
12955TIP3    H160356   3.964   7.103   5.179 -1.9358  0.3595 -0.2745
12955TIP3    H260357   4.045   7.068   5.056  0.6742  1.7308  0.9687
12956TIP3   OH260358   4.735   2.750   0.306 -0.0415 -0.3582 -0.0782
12956TIP3    H160359   4.744   2.687   0.378  0.5283  0.1037  0.2623
12956TIP3    H260360   4.789   2.824   0.333 -0.4097  0.1198 -0.6506
12957TIP3   OH260361   5.568   6.850   4.783  0.6597 -0.3499  0.0184
12957TIP3    H160362   5.637   6.843   4.717 -0.2094  1.3128 -1.1668
12957TIP3    H260363   5.574   6.941   4.814  0.1401 -0.7027  1.1945
12958TIP3   OH260364   1.296   1.970  12.051 -0.1233  0.5370  0.1699
12958TIP3    H160365   1.387   1.958  12.081 -0.3907 -1.0619  0.4535
12958TIP3    H260366   1.249   2.000  12.128 -0.3054 -1.0919  0.7291
12959TIP3   OH260367   1.020   2.018   1.564 -0.1951  0.1642  0.3238
12959TIP3    H160368   1.011   2.105   1.604  0.2793 -0.5282  2.0127
12959TIP3    H260369   0.931   1.983   1.563 -0.1123 -0.1691  1.7167
12960TIP3   OH260370   2.378   4.190  10.845 -0.0425  0.3912  0.0936
12960TIP3    H160371   2.429   4.194  10.926 -0.3077 -0.0470  0.2890
12960TIP3    H260372   2.289   4.212  10.871 -0.5836 -1.8187  0.3581
12961TIP3   OH260373   1.596   6.212   1.669 -0.1156  0.4964 -0.2250
12961TIP3    H160374   1.612   6.162   1.749 -0.7361  1.6135  0.6301
12961TIP3    H260375   1.606   6.148   1.598 -1.1765 -0.9229  0.8306
12962TIP3   OH260376   0.120   6.725  15.298 -0.5591 -0.6508 -0.0703
12962TIP3    H160377   0.060   6.769  15.359 -1.1156 -0.7840 -0.5206
12962TIP3    H260378   0.182   6.679  15.355 -0.2975  0.2605  0.4086
12963TIP3   OH260379   6.668   2.313  12.299  0.3641 -0.7345 -0.3680
12963TIP3    H160380   6.623   2.229  12.291 -0.9983  0.0292 -1.1480
12963TIP3    H260381   6.663   2.335  12.392 -1.6042 -0.3141 -0.5401
12964TIP3   OH260382   2.765   3.296  13.378  0.3439  0.0836  0.2686
12964TIP3    H160383   2.719   3.353  13.440  0.5364  1.6920 -0.9972
12964TIP3    H260384   2.858   3.309  13.399  0.3625 -0.3673  0.4706
12965TIP3   OH260385   0.766   6.879  14.596  0.4218  0.0741  0.0723
12965TIP3    H160386   0.779   6.962  14.642  2.7198 -1.3961  2.3544
12965TIP3    H260387   0.804   6.893  14.509  1.5779  1.1831  0.7178
12966TIP3   OH260388   4.465   1.428  15.061  0.0882 -0.1949 -0.4396
12966TIP3    H160389   4.486   1.506  15.112 -0.0286  0.1825 -0.9643
12966TIP3    H260390   4.389   1.453  15.009 -2.0764 -1.7035  1.8120
12967TIP3   OH260391   4.892   1.253   3.267 -0.0174  0.1954 -0.5566
12967TIP3    H160392   4.928   1.332   3.227  2.0061 -0.1002  0.5608
12967TIP3    H260393   4.906   1.185   3.201 -1.4755  0.6462 -1.3898
12968TIP3   OH260394   6.767   3.798   2.418  0.3212 -0.3302 -0.2615
12968TIP3    H160395   6.857   3.797   2.451  0.2292  0.8141  0.0768
12968TIP3    H260396   6.724   3.868   2.468 -0.0835  0.8289 -2.1454
12969TIP3   OH260397   2.730   0.142   1.718 -0.5511  0.0450  0.0909
12969TIP3    H160398   2.804   0.198   1.694 -0.9012  0.9145  0.9801
12969TIP3    H260399   2.754   0.055   1.685  1.9464 -0.2497  2.3284
12970TIP3   OH260400   6.295   3.761   2.431  0.7311 -0.0826  0.0926
12970TIP3    H160401   6.327   3.715   2.353 -3.4984  0.4327 -2.2321
12970TIP3    H260402   6.282   3.851   2.401 -3.0953 -0.3480  0.5184
12971TIP3   OH260403   7.186   0.879  15.196 -0.4551  0.2049  0.1674
12971TIP3    H160404   7.243   0.824  15.249  1.7852  2.1929 -0.0411
12971TIP3    H260405   7.125   0.817  15.154  1.4798 -2.0217  0.4428
12972TIP3   OH260406   4.539   2.455   1.128 -0.0874 -0.4675  0.0770
12972TIP3    H160407   4.515   2.376   1.080 -1.5613  0.7300 -1.2515
12972TIP3    H260408   4.631   2.443   1.150  0.9142 -0.7996 -3.6945
12973TIP3   OH260409   6.888   5.541   0.084 -0.2599 -0.0391 -0.0027
12973TIP3    H160410   6.898   5.448   0.063 -0.2273  0.0066 -0.1938
12973TIP3    H260411   6.933   5.586   0.013 -1.1384  0.1501 -0.4588
12974TIP3   OH260412   3.720   0.684   0.854  0.8722  0.2443 -0.1915
12974TIP3    H160413   3.666   0.608   0.832  0.1816  1.0582 -1.4726
12974TIP3    H260414   3.659   0.758   0.851  1.7386  0.9825 -0.0495
12975TIP3   OH260415   7.142   4.193  10.195 -0.1637 -0.3937 -0.0860
12975TIP3    H160416   7.073   4.214  10.258  0.7641  0.2789  0.7578
12975TIP3    H260417   7.100   4.199  10.110 -1.6941 -2.2015  0.4627
12976TIP3   OH260418   6.978   7.182   0.741 -0.2244 -0.2007 -0.3291
12976TIP3    H160419   7.066   7.191   0.703  0.2193  1.6094  0.9590
12976TIP3    H260420   6.921   7.230   0.680 -0.1945 -0.6864 -0.7462
12977TIP3   OH260421   5.000   2.795   4.283  0.1454  0.5683  0.1586
12977TIP3    H160422   5.030   2.845   4.359  0.3561  0.7142 -0.0199
12977TIP3    H260423   5.071   2.734   4.265  0.9722  1.8366 -1.1127
12978TIP3   OH260424   5.159   1.170   4.585 -0.6519  0.5018 -0.7347
12978TIP3    H160425   5.098   1.219   4.530 -0.7039 -0.3196 -1.4099
12978TIP3    H260426   5.132   1.079   4.577 -0.4214  0.3164  0.3512
12979TIP3   OH260427   3.652   5.576   3.139 -0.1673 -0.5358  0.8024
12979TIP3    H160428   3.615   5.499   3.096  1.3764 -0.3920 -0.9021
12979TIP3    H260429   3.746   5.563   3.137  0.1925  1.6901 -0.1901
12980TIP3   OH260430   0.262   5.293   1.498 -0.3080 -0.2660 -0.2214
12980TIP3    H160431   0.289   5.209   1.461  0.5001  0.2597 -0.8573
12980TIP3    H260432   0.289   5.289   1.590  0.8245 -0.2422 -0.5398
12981TIP3   OH260433   6.795   0.304  15.160 -0.3123 -0.3238 -0.2989
12981TIP3    H160434   6.786   0.386  15.112  0.8198  0.2281  0.4031
12981TIP3    H260435   6.717   0.300  15.215  0.7999  1.5626  1.5373
12982TIP3   OH260436   3.974   1.203   2.194  0.1862 -0.2062  0.4057
12982TIP3    H160437   3.935   1.144   2.259 -0.7062 -1.0058 -0.8073
12982TIP3    H260438   4.055   1.159   2.168  1.0934  0.6356  1.7137
12983TIP3   OH260439   6.771   4.760   5.589  0.2021 -0.7792  0.3762
12983TIP3    H160440   6.783   4.762   5.684 -1.2221 -2.0379  0.6144
12983TIP3    H260441   6.845   4.811   5.555  0.2277  0.4858  2.1819
12984TIP3   OH260442   1.627   4.772  14.310 -0.1145  0.5897  0.1188
12984TIP3    H160443   1.557   4.805  14.366 -0.1917 -2.6584  2.1851
12984TIP3    H260444   1.707   4.790  14.359  0.0123 -0.3736  0.2714
12985TIP3   OH260445   3.496   1.681   1.707  0.4327  0.4282 -0.2085
12985TIP3    H160446   3.449   1.724   1.779  2.4794  1.2627  0.6981
12985TIP3    H260447   3.588   1.701   1.723  1.0256 -0.0410 -2.6330
12986TIP3   OH260448   5.042   6.594   1.755 -0.1837 -0.3085 -0.1935
12986TIP3    H160449   5.003   6.680   1.744  0.1666  0.0403  1.0331
12986TIP3    H260450   4.976   6.533   1.724 -0.7668  0.3669 -0.3068
12987TIP3   OH260451   3.790   4.312   5.438 -0.1477 -0.1864  0.4397
12987TIP3    H160452   3.844   4.287   5.513 -1.1875  0.8676  1.5707
12987TIP3    H260453   3.701   4.288   5.462 -0.3268 -1.1532 -1.0723
12988TIP3   OH260454   0.922   0.019   2.633  0.1206  0.2893  0.2696
12988TIP3    H160455   0.962  -0.026   2.559  0.3534  0.2356  0.4257
12988TIP3    H260456   0.978  -0.003   2.708 -0.4526 -0.1559  0.5834
12989TIP3   OH260457   0.709   3.981   1.545  0.2510 -0.0370 -0.0801
12989TIP3    H160458   0.648   4.052   1.563  0.3643 -0.1185  0.6413
12989TIP3    H260459   0.750   3.962   1.629  1.2754  0.0066 -0.5513
12990TIP3   OH260460   2.553   5.829   1.749 -0.5230  0.0142 -0.2484
12990TIP3    H160461   2.585   5.800   1.834 -0.4534 -1.2765 -0.6986
12990TIP3    H260462   2.614   5.792   1.685 -1.2467 -0.0505 -0.9311
12991TIP3   OH260463   0.337   7.236  14.004 -0.4327 -0.7124 -0.2375
12991TIP3    H160464   0.430   7.215  13.994 -1.1248 -3.7945 -1.2442
12991TIP3    H260465   0.330   7.328  13.978  2.3087 -0.3865 -0.1131
12992TIP3   OH260466   4.382   4.199   3.980  0.0334 -0.2877  0.3586
12992TIP3    H160467   4.378   4.201   4.075  0.4213  2.4662  0.4025
12992TIP3    H260468   4.295   4.169   3.952 -0.2832 -0.5212  1.5627
12993TIP3   OH260469   2.810   1.446   4.476  0.3064  0.1649 -0.2731
12993TIP3    H160470   2.800   1.406   4.562  0.2335  0.1767 -0.2763
12993TIP3    H260471   2.726   1.487   4.458  0.4355  0.4629 -0.1970
12994TIP3   OH260472   0.324   6.802   4.445 -0.7386 -0.2162 -0.3416
12994TIP3    H160473   0.390   6.788   4.377 -0.1121 -0.2403  0.2503
12994TIP3    H260474   0.343   6.733   4.509 -1.2789 -0.1567 -0.1188
12995TIP3   OH260475   4.461   1.808   2.320 -0.2051  0.1436  0.2576
12995TIP3    H160476   4.513   1.855   2.385  2.0127 -2.7863  0.7722
12995TIP3    H260477   4.513   1.812   2.240 -0.5561 -0.4884 -0.0073
12996TIP3   OH260478   6.864   2.736   3.196  0.0742 -0.1887  0.3263
12996TIP3    H160479   6.862   2.658   3.250 -1.1233  0.6045  1.5096
12996TIP3    H260480   6.950   2.735   3.154  0.8601 -1.0795  1.8805
12997TIP3   OH260481   2.632   3.793  15.152 -0.3175 -0.0103  0.2839
12997TIP3    H160482   2.605   3.860  15.089  0.6374  0.3274  0.2123
12997TIP3    H260483   2.557   3.733  15.157 -0.5353  0.1201 -0.9454
12998TIP3   OH260484   5.907   1.787   1.434  0.0958 -0.2221  0.4886
12998TIP3    H160485   5.913   1.718   1.368  0.5560 -1.1030  1.4326
12998TIP3    H260486   5.822   1.773   1.476 -0.6792  0.9827 -0.5730
12999TIP3   OH260487   3.967   4.805   9.776  0.2629  0.2188  0.9025
12999TIP3    H160488   3.892   4.789   9.717  0.9709 -0.5294  0.1746
12999TIP3    H260489   3.932   4.863   9.843 -0.6967  0.7441 -0.0072
13000TIP3   OH260490   2.813   3.192   4.548 -0.5898 -0.7210 -0.1677
13000TIP3    H160491   2.890   3.175   4.494 -0.8406  1.1228 -1.1724
13000TIP3    H260492   2.785   3.105   4.577  0.4719 -1.6249 -1.7066
13001TIP3   OH260493   2.269   7.147  14.900  0.7510 -0.3439  0.4906
13001TIP3    H160494   2.215   7.069  14.904  1.3414 -0.7324  1.4578
13001TIP3    H260495   2.358   7.114  14.886  0.6343  0.3435 -2.3673
13002TIP3   OH260496   6.633   4.028  14.479  0.1114  0.3613  0.0432
13002TIP3    H160497   6.664   4.065  14.562 -1.2589 -0.9651  1.1937
13002TIP3    H260498   6.589   4.102  14.436  2.5637  1.6097 -0.5056
13003TIP3   OH260499   2.730   3.543   2.158 -0.6634 -0.1613 -0.6230
13003TIP3    H160500   2.790   3.536   2.084 -1.6665  1.0054 -1.5861
13003TIP3    H260501   2.646   3.565   2.118 -1.3409 -0.0564  0.8249
13004TIP3   OH260502   5.700   1.107   0.678  0.8472 -0.0421 -0.3635
13004TIP3    H160503   5.743   1.151   0.605  1.0613 -1.6954 -1.2646
13004TIP3    H260504   5.768   1.051   0.716 -0.1148 -1.7630 -1.0489
13005TIP3   OH260505   4.103   2.425  11.574 -0.2648 -0.1719  0.1112
13005TIP3    H160506   4.193   2.416  11.606  0.0677 -2.1396 -1.2217
13005TIP3    H260507   4.112   2.435  11.480 -1.4588 -1.8547 -0.2215
13006TIP3   OH260508   3.734   1.586  11.514 -0.2566  0.6777 -0.2399
13006TIP3    H160509   3.797   1.552  11.450 -0.2441  2.9336 -1.5407
13006TIP3    H260510   3.788   1.632  11.579 -0.3037 -1.2381  1.2352
13007TIP3   OH260511   0.375   2.642   0.383 -0.3895 -0.2166 -0.0228
13007TIP3    H160512   0.409   2.719   0.429  0.1399  0.6729 -1.7882
13007TIP3    H260513   0.315   2.678   0.317 -1.8497 -1.4997  0.5507
13008TIP3   OH260514   4.768   2.486  13.191 -0.2031 -0.0185  0.0801
13008TIP3    H160515   4.847   2.537  13.207 -1.0361  1.2567  0.3044
13008TIP3    H260516   4.697   2.540  13.227 -1.4128 -0.1239 -1.9759
13009TIP3   OH260517   0.893   3.938  11.924 -0.0366  0.0913  0.2511
13009TIP3    H160518   0.834   4.013  11.926  0.6099  0.7846 -2.6968
13009TIP3    H260519   0.972   3.968  11.968 -1.0405 -0.1679  2.3683
13010TIP3   OH260520   4.156   6.056  14.395  0.5944  0.3039 -0.1814
13010TIP3    H160521   4.120   6.058  14.483 -0.5734 -0.4494 -0.6174
13010TIP3    H260522   4.097   5.998  14.346  1.4033  0.4468 -1.3707
13011TIP3   OH260523   1.653   2.184   4.899 -0.3304  0.1842  0.2013
13011TIP3    H160524   1.689   2.273   4.898 -0.0612  0.1323  1.8655
13011TIP3    H260525   1.558   2.197   4.892 -0.3172  0.6353  0.7384
13012TIP3   OH260526   4.137   5.685   0.942 -0.7282  0.5719 -0.3904
13012TIP3    H160527   4.132   5.740   0.864  1.1163  2.5582  0.7762
13012TIP3    H260528   4.110   5.742   1.014  1.1560  0.0043  0.8556
13013TIP3   OH260529   2.932   3.897   4.218 -0.0416  0.8034  0.1405
13013TIP3    H160530   3.014   3.946   4.214 -0.3727  1.4180  0.8303
13013TIP3    H260531   2.879   3.933   4.147  0.6122 -0.2140 -0.8885
13014TIP3   OH260532   5.530   1.878   1.505 -0.1739  0.1089 -0.0912
13014TIP3    H160533   5.479   1.918   1.434 -1.2546  1.0493  1.1635
13014TIP3    H260534   5.490   1.911   1.585 -0.7701 -3.0196  1.0708
13015TIP3   OH260535   5.584   3.959   3.860 -0.6105 -0.0813 -0.2705
13015TIP3    H160536   5.534   4.040   3.865  1.1925  1.1039 -0.9038
13015TIP3    H260537   5.622   3.949   3.948  0.1442  0.4278 -0.5289
13016TIP3   OH260538   3.509   3.632   2.889  0.1872 -0.0776  0.1734
13016TIP3    H160539   3.466   3.708   2.929  0.1039  0.1202 -0.2942
13016TIP3    H260540   3.506   3.565   2.958 -0.2650  0.1522  0.3820
13017TIP3   OH260541   5.942   4.867   3.053 -0.6066 -0.0613 -0.0299
13017TIP3    H160542   5.914   4.864   3.144 -1.1482 -2.8293 -0.1916
13017TIP3    H260543   6.001   4.792   3.043 -0.3802  0.2955 -1.9005
13018TIP3   OH260544   6.880   6.521  15.067  0.5323 -0.4779  0.5579
13018TIP3    H160545   6.796   6.476  15.078  0.3637 -0.0102  1.3039
13018TIP3    H260546   6.939   6.477  15.128  0.5696 -0.1882  0.7333
13019TIP3   OH260547   6.219   2.579   3.040  0.1583  0.3360  0.4841
13019TIP3    H160548   6.175   2.500   3.072  0.0236  0.4793  0.6530
13019TIP3    H260549   6.154   2.649   3.050 -0.2588  0.2026 -1.0959
13020TIP3   OH260550   0.596   7.251  13.954 -0.0896  0.0489 -0.0529
13020TIP3    H160551   0.621   7.210  13.871  1.2416  0.6393  0.0393
13020TIP3    H260552   0.668   7.309  13.975  0.0295 -0.7482  1.9779
13021TIP3   OH260553   4.474   1.370   4.245 -0.0032 -0.1308  0.5450
13021TIP3    H160554   4.489   1.464   4.230  1.3997 -0.1524  1.5655
13021TIP3    H260555   4.421   1.342   4.171 -0.3927  1.4604  0.1763
13022TIP3   OH260556   4.344   2.844  14.152 -0.0999 -0.2335 -0.3182
13022TIP3    H160557   4.363   2.907  14.082  0.2438  0.4125  0.3381
13022TIP3    H260558   4.420   2.850  14.210  0.3364 -1.8875 -0.6862
13023TIP3   OH260559   6.069   2.265  14.261  0.6856 -0.1038 -0.3478
13023TIP3    H160560   6.046   2.178  14.228 -2.0004  0.0803  0.8257
13023TIP3    H260561   6.155   2.253  14.302  0.5620 -2.0791 -0.5711
13024TIP3   OH260562   3.083   3.655   4.172 -0.4350  0.5383 -0.8456
13024TIP3    H160563   3.018   3.711   4.215  0.2217  1.0732 -0.5210
13024TIP3    H260564   3.035   3.613   4.101 -2.1333 -1.9112  1.5146
13025TIP3   OH260565   2.713   4.850  15.115 -0.0205 -0.6192  0.1202
13025TIP3    H160566   2.642   4.875  15.175  0.2212 -0.6163  0.4051
13025TIP3    H260567   2.676   4.779  15.063 -0.0988 -0.8944  0.5433
13026TIP3   OH260568   2.496   0.149  12.458  0.2547 -0.0215 -0.5966
13026TIP3    H160569   2.437   0.221  12.436 -1.4604 -1.4803 -0.9419
13026TIP3    H260570   2.490   0.089  12.383  1.3912 -0.7043 -0.1688
13027TIP3   OH260571   5.816   0.743  15.063  0.2767  0.7213 -0.2620
13027TIP3    H160572   5.797   0.709  14.976  0.3893  0.9221 -0.3628
13027TIP3    H260573   5.907   0.772  15.059  0.9312 -1.0430  0.4737
13028TIP3   OH260574   3.276   6.528   0.420 -0.0888  0.1282  0.3442
13028TIP3    H160575   3.199   6.539   0.476  0.4126  1.1109  0.8742
13028TIP3    H260576   3.327   6.608   0.435 -0.1488  0.6317 -1.8673
13029TIP3   OH260577   2.624   3.818   4.204  0.1459 -0.4016  0.1465
13029TIP3    H160578   2.702   3.843   4.154 -0.8994  0.2455 -1.2061
13029TIP3    H260579   2.612   3.890   4.266 -0.2586  0.2632 -0.6928
13030TIP3   OH260580   3.203   5.829  12.725 -0.5609 -0.2912 -0.6639
13030TIP3    H160581   3.223   5.737  12.740 -0.5670  0.0644  2.1214
13030TIP3    H260582   3.288   5.872  12.721 -0.5713 -0.1001  0.7856
13031TIP3   OH260583   4.005   1.484   1.872 -0.2167  0.0953 -0.0237
13031TIP3    H160584   4.061   1.547   1.827 -0.8353  0.4341 -0.3325
13031TIP3    H260585   4.066   1.423   1.914  0.4051 -0.6171 -1.8371
13032TIP3   OH260586   1.672   3.671  12.788 -0.1515  0.5655 -0.7613
13032TIP3    H160587   1.680   3.648  12.695  0.5300 -0.2233 -0.5120
13032TIP3    H260588   1.746   3.628  12.830 -0.4116  0.9855  0.1444
13033TIP3   OH260589   1.147   2.265   0.766  0.3037  0.3537 -0.3735
13033TIP3    H160590   1.228   2.237   0.809 -0.3516  0.5060  0.9905
13033TIP3    H260591   1.123   2.191   0.710  0.7724 -0.1591  0.0909
13034TIP3   OH260592   2.343   4.644  12.154 -0.6217 -0.5473 -0.5981
13034TIP3    H160593   2.306   4.611  12.236 -0.9201  0.5313 -0.2818
13034TIP3    H260594   2.274   4.699  12.118  1.4402  3.7989  1.3452
13035TIP3   OH260595   0.121   2.320   0.602 -0.1592 -0.1139  0.0633
13035TIP3    H160596   0.037   2.364   0.591 -0.9352 -1.8470 -1.5795
13035TIP3    H260597   0.102   2.248   0.662  0.6739  0.6550  1.3005
13036TIP3   OH260598   4.265   6.747  13.703 -0.2140 -0.5466 -0.2260
13036TIP3    H160599   4.351   6.707  13.712 -1.1318 -2.4226  1.0141
13036TIP3    H260600   4.230   6.710  13.621 -1.2239 -2.8476  1.1192
13037TIP3   OH260601   5.271   5.666  14.068 -0.6763 -0.3364 -0.5688
13037TIP3    H160602   5.244   5.575  14.053 -0.7265 -0.5253  0.5928
13037TIP3    H260603   5.191   5.711  14.096 -0.5915  0.0141 -0.8746
13038TIP3   OH260604   4.690   6.355  10.512 -0.2107  0.1114  0.3140
13038TIP3    H160605   4.642   6.273  10.525  0.1799  0.0458  1.4951
13038TIP3    H260606   4.741   6.342  10.432 -1.8873  0.0659 -0.8045
13039TIP3   OH260607   4.770   0.655   4.257 -0.1301  0.1886 -0.3516
13039TIP3    H160608   4.805   0.742   4.235 -0.9168 -0.1194 -3.2130
13039TIP3    H260609   4.683   0.673   4.294 -0.6232  0.6491 -1.6672
13040TIP3   OH260610   3.238   3.784   4.371 -0.4148  0.3398 -0.1876
13040TIP3    H160611   3.254   3.715   4.307  1.6695 -0.1371  0.7583
13040TIP3    H260612   3.320   3.790   4.421 -1.7975  0.9492  2.1709
13041TIP3   OH260613   6.447   6.179  12.073 -0.0136 -0.1814 -0.2559
13041TIP3    H160614   6.417   6.203  12.160  1.8255  2.7320 -0.2728
13041TIP3    H260615   6.534   6.141  12.087  0.7618  1.2909 -0.8060
13042TIP3   OH260616   4.610   6.644  12.800  0.2252  0.2136 -0.0757
13042TIP3    H160617   4.666   6.676  12.872  0.5079 -1.5109  0.5038
13042TIP3    H260618   4.671   6.624  12.729  0.3975 -1.6368  0.5450
13043TIP3   OH260619   1.321   2.870  10.630  0.0709  0.4263  0.0322
13043TIP3    H160620   1.378   2.928  10.680  1.0703  0.0764 -0.6705
13043TIP3    H260621   1.233   2.886  10.665  0.5375  1.2840  0.8416
13044TIP3   OH260622   6.913   3.148   2.060 -0.0074  0.0169 -0.2343
13044TIP3    H160623   6.825   3.175   2.035  0.7135  1.8787 -0.8881
13044TIP3    H260624   6.901   3.059   2.095 -1.9467 -0.2521 -1.4148
13045TIP3   OH260625   3.771   6.702   2.416 -0.6972  0.0967 -0.6386
13045TIP3    H160626   3.861   6.718   2.445 -1.1020  1.3691  0.0323
13045TIP3    H260627   3.721   6.694   2.498 -1.3119  0.2070 -0.9962
13046TIP3   OH260628   4.426   1.082   5.466  0.2760 -0.2856 -0.1566
13046TIP3    H160629   4.451   1.142   5.536 -1.1294  1.9268 -1.4181
13046TIP3    H260630   4.365   1.021   5.507 -0.1685  0.6827  0.6604
13047TIP3   OH260631   4.880   6.824   4.043  0.6840  0.0929 -0.2560
13047TIP3    H160632   4.942   6.768   3.995  0.0686 -0.7166 -0.1183
13047TIP3    H260633   4.918   6.912   4.036  1.5526 -0.2981 -0.6643
13048TIP3   OH260634   1.244   0.468  14.057  0.3365 -0.1718  1.1018
13048TIP3    H160635   1.297   0.547  14.057  0.0099  0.0625 -0.0780
13048TIP3    H260636   1.293   0.406  14.112  1.6822  0.1262  0.2844
13049TIP3   OH260637   3.950   1.413   3.394  0.6808  0.1850  0.5681
13049TIP3    H160638   4.012   1.376   3.331  0.0458 -1.3827  0.8136
13049TIP3    H260639   3.876   1.353   3.393 -0.3295  1.3603  1.1715
13050TIP3   OH260640   4.557   2.004   1.347  0.3800  0.0359 -0.2253
13050TIP3    H160641   4.540   1.934   1.410  1.4847  0.1779  0.2520
13050TIP3    H260642   4.477   2.008   1.293  0.3144 -1.6392 -0.3120
13051TIP3   OH260643   2.688   1.451   5.808 -0.0646 -0.3591 -0.0051
13051TIP3    H160644   2.641   1.437   5.891 -1.2886 -0.0686 -0.6195
13051TIP3    H260645   2.716   1.543   5.812 -0.1238 -0.3444  0.0870
13052TIP3   OH260646   2.913   0.888   5.032 -0.1278  0.3330  0.3930
13052TIP3    H160647   2.893   0.880   5.125 -0.6025  2.8854  0.5635
13052TIP3    H260648   3.001   0.852   5.023 -1.2689 -3.0419  1.1513
13053TIP3   OH260649   0.054   1.868   5.319  0.1445  0.7545  0.3853
13053TIP3    H160650  -0.003   1.794   5.344 -0.9837  1.4274 -0.1218
13053TIP3    H260651   0.007   1.911   5.248  1.4803  1.1336 -0.3031
13054TIP3   OH260652   2.188   4.152   1.035 -0.1193 -0.6242 -0.3689
13054TIP3    H160653   2.151   4.239   1.049 -1.3897 -1.3431  1.1958
13054TIP3    H260654   2.198   4.145   0.940 -1.0197  0.8142 -0.6082
13055TIP3   OH260655   7.128   1.897  13.762  0.0312 -0.1101 -0.0737
13055TIP3    H160656   7.066   1.867  13.696 -0.3016 -0.9949  0.6241
13055TIP3    H260657   7.187   1.957  13.715 -1.2336  0.6126 -0.7798
13056TIP3   OH260658   0.254   3.800  13.294  0.9510  0.2804  0.1219
13056TIP3    H160659   0.245   3.894  13.307 -0.9911 -0.0608  1.9222
13056TIP3    H260660   0.257   3.788  13.200 -2.0255  2.0008 -0.3320
13057TIP3   OH260661   0.012   2.631   0.910  0.4139 -0.4547  0.1361
13057TIP3    H160662   0.076   2.645   0.841  1.3263 -0.7689  0.9035
13057TIP3    H260663  -0.059   2.583   0.867  1.0739 -0.8561 -0.5306
13058TIP3   OH260664   5.832   1.168   4.780 -0.4217 -0.3712 -0.0385
13058TIP3    H160665   5.911   1.196   4.735  0.7916 -0.7191  1.7885
13058TIP3    H260666   5.764   1.229   4.751  1.0915  1.5589  0.3286
13059TIP3   OH260667   6.731   2.714   2.040  0.2141  0.2553  0.1474
13059TIP3    H160668   6.659   2.774   2.059 -0.0346  0.2004 -0.5919
13059TIP3    H260669   6.701   2.629   2.072 -0.2827  0.1225 -0.6479
13060TIP3   OH260670   4.767   1.581   2.220 -0.3076  0.1886  0.0476
13060TIP3    H160671   4.794   1.614   2.305  0.9866  1.6906 -0.8919
13060TIP3    H260672   4.704   1.646   2.188 -2.9154 -1.7470  0.9391
13061TIP3   OH260673   2.003   1.867  12.536  0.0172 -0.4751 -0.4675
13061TIP3    H160674   1.965   1.911  12.460 -1.2243 -0.9730 -0.1557
13061TIP3    H260675   1.947   1.791  12.550  0.5331 -0.6646  0.6462
13062TIP3   OH260676   6.199   3.688  11.163 -0.5246  0.3990 -0.5142
13062TIP3    H160677   6.111   3.687  11.202  0.5812  1.5411  2.2365
13062TIP3    H260678   6.246   3.618  11.207  0.4828  1.0192 -0.5821
13063TIP3   OH260679   6.521   5.797   3.309 -0.6539 -0.0921  0.4228
13063TIP3    H160680   6.476   5.741   3.245 -0.1071 -1.0073  0.8221
13063TIP3    H260681   6.601   5.824   3.264  0.3436 -1.7323  1.0965
13064TIP3   OH260682   3.263   0.205  13.462 -1.1952 -0.5956  0.3787
13064TIP3    H160683   3.234   0.294  13.442  0.9388 -0.2108 -1.4367
13064TIP3    H260684   3.272   0.162  13.377  2.2190 -0.9851  0.7718
13065TIP3   OH260685   5.310   4.506  15.157  0.4314 -0.2318 -0.3872
13065TIP3    H160686   5.403   4.525  15.150  0.2668  0.7931 -0.0485
13065TIP3    H260687   5.270   4.590  15.182 -0.7101 -0.3944 -1.5455
13066TIP3   OH260688   0.353   7.184   2.177  0.8679 -0.4425 -0.7422
13066TIP3    H160689   0.416   7.127   2.133  0.1954 -1.8818  0.0966
13066TIP3    H260690   0.393   7.205   2.261  0.2964 -1.3206 -0.2279
13067TIP3   OH260691   0.180   5.121   4.270 -0.0337 -0.4211  0.3465
13067TIP3    H160692   0.216   5.083   4.349 -2.0684 -0.4481  1.3198
13067TIP3    H260693   0.183   5.050   4.205 -0.4912 -1.1375  1.0910
13068TIP3   OH260694   0.274   4.531  12.066 -0.0920 -0.3980 -0.4209
13068TIP3    H160695   0.305   4.536  12.157 -1.1692 -1.2198  0.0121
13068TIP3    H260696   0.340   4.579  12.016 -0.9261  2.6123  1.1246
13069TIP3   OH260697   1.382   1.673   2.156  0.5400  0.1168 -0.6142
13069TIP3    H160698   1.431   1.592   2.165  1.5638  0.7413 -0.3624
13069TIP3    H260699   1.394   1.719   2.239  0.4567  0.7748 -0.9498
13070TIP3   OH260700   1.210   1.154  13.422 -0.1768 -0.2134  0.7814
13070TIP3    H160701   1.192   1.104  13.502  1.0047  1.3339  2.0677
13070TIP3    H260702   1.243   1.238  13.453 -1.0268  0.9786 -1.3390
13071TIP3   OH260703   0.068   7.182   2.152 -0.1086  0.5193  0.2103
13071TIP3    H160704   0.161   7.198   2.165 -0.1508  1.6333 -0.7791
13071TIP3    H260705   0.052   7.203   2.060 -1.4744  1.0146  0.5426
13072TIP3   OH260706   2.403   3.243   9.966 -0.1881  0.4033  0.1514
13072TIP3    H160707   2.389   3.321   9.912 -0.9031 -0.8541 -1.5663
13072TIP3    H260708   2.422   3.173   9.903 -0.4572 -1.0156  1.5845
13073TIP3   OH260709   5.502   6.799  12.229 -0.3257 -0.0944 -0.7744
13073TIP3    H160710   5.493   6.791  12.324  1.3448  2.6872 -0.2633
13073TIP3    H260711   5.551   6.720  12.203  0.0725 -0.4119  0.8221
13074TIP3   OH260712   6.600   1.110  13.612  0.2763 -0.1975  0.6481
13074TIP3    H160713   6.637   1.085  13.528 -2.4195  0.0006 -0.7090
13074TIP3    H260714   6.559   1.030  13.645 -1.0978  0.3526  0.3529
13075TIP3   OH260715   6.607   0.689   0.107  0.0536 -0.9094  0.0444
13075TIP3    H160716   6.626   0.748   0.034  1.9506 -0.1594  1.0618
13075TIP3    H260717   6.521   0.653   0.087  0.3678 -0.5129 -2.4023
13076TIP3   OH260718   5.773   3.547   2.964 -0.8336  0.2762 -0.8117
13076TIP3    H160719   5.837   3.522   2.898 -1.5500  0.5765 -1.6515
13076TIP3    H260720   5.765   3.471   3.021 -0.1461  0.0353 -1.0361
13077TIP3   OH260721   3.696   3.982  14.790  0.0394  0.7401 -0.3954
13077TIP3    H160722   3.721   4.029  14.711 -0.7140 -0.3634 -1.3148
13077TIP3    H260723   3.600   3.982  14.789 -0.0160  1.7278  1.1525
13078TIP3   OH260724   2.042   5.466   5.618 -0.7540  0.0260  0.2955
13078TIP3    H160725   2.115   5.526   5.635 -0.4605 -0.0031 -0.7528
13078TIP3    H260726   2.074   5.380   5.647 -0.2895 -0.0196 -0.3283
13079TIP3   OH260727   2.922   0.580  10.293 -0.3946 -0.0445  0.2482
13079TIP3    H160728   2.878   0.495  10.292 -1.6762  0.5797 -1.8528
13079TIP3    H260729   2.967   0.585  10.209 -0.0815  1.2412  0.4691
13080TIP3   OH260730   1.941   4.001  11.655 -0.0223  0.5717 -0.5448
13080TIP3    H160731   1.888   4.080  11.656  0.8671  1.1939 -1.0962
13080TIP3    H260732   1.896   3.942  11.594 -0.9597  0.4376  0.2515
13081TIP3   OH260733   6.543   4.692   2.473 -0.3792 -0.4281  0.8105
13081TIP3    H160734   6.603   4.753   2.517  1.3800 -1.4558 -0.0444
13081TIP3    H260735   6.547   4.612   2.526 -2.1943 -0.0558  1.5778
13082TIP3   OH260736   3.627   2.635  10.138  0.4482  0.0515  0.6647
13082TIP3    H160737   3.673   2.718  10.149 -1.3139  1.0865  0.6418
13082TIP3    H260738   3.686   2.569  10.175  2.3390  1.1561 -0.2620
13083TIP3   OH260739   6.363   0.224  13.623  0.9498 -0.0821 -0.0652
13083TIP3    H160740   6.343   0.257  13.535 -2.7591 -0.1404  0.5824
13083TIP3    H260741   6.283   0.179  13.650  2.8230 -2.2379  2.4422
13084TIP3   OH260742   7.162   0.368  14.737  0.1308 -0.1240 -0.3745
13084TIP3    H160743   7.141   0.387  14.828 -0.4303 -1.3882 -0.2179
13084TIP3    H260744   7.078   0.348  14.696  0.5574 -1.2818 -0.7329
13085TIP3   OH260745   6.772   2.811   1.257 -0.5725  0.0357 -0.3873
13085TIP3    H160746   6.861   2.839   1.275 -0.7270  0.3655 -0.1228
13085TIP3    H260747   6.780   2.722   1.223 -0.2188 -0.2495  0.4468
13086TIP3   OH260748   5.475   0.214   1.316  0.0906 -0.2634 -0.4302
13086TIP3    H160749   5.431   0.130   1.323 -2.6297  1.0116 -0.8536
13086TIP3    H260750   5.434   0.269   1.383  0.0932  1.3974 -1.7232
13087TIP3   OH260751   6.827   0.214   2.275 -0.1432  0.5123  0.2080
13087TIP3    H160752   6.848   0.123   2.253  1.4299  0.4099  1.9449
13087TIP3    H260753   6.905   0.248   2.318 -1.5654  1.9219  1.8549
13088TIP3   OH260754   4.806   2.405   1.265 -0.5483  0.3291 -0.3687
13088TIP3    H160755   4.886   2.410   1.213 -0.6567 -0.4781 -0.6160
13088TIP3    H260756   4.804   2.316   1.299 -0.5829  0.7839  0.8651
13089TIP3   OH260757   0.064   6.924   2.724 -0.1243 -0.1181 -0.2408
13089TIP3    H160758   0.103   6.926   2.637 -1.1063 -1.4582 -0.7439
13089TIP3    H260759   0.031   7.013   2.737 -0.4387 -0.0394 -1.4562
13090TIP3   OH260760   1.925   1.799   4.680  0.6461 -0.7040  0.3467
13090TIP3    H160761   1.937   1.750   4.600  2.0220  0.8286 -0.4403
13090TIP3    H260762   1.832   1.824   4.679  0.9094  0.4039 -1.4787
13091TIP3   OH260763   6.627   3.850   2.673  0.1982 -0.1435  0.6985
13091TIP3    H160764   6.670   3.922   2.719 -0.3458 -0.2194  1.3453
13091TIP3    H260765   6.534   3.864   2.688 -0.0266  0.0898 -0.7921
13092TIP3   OH260766   5.229   2.409   4.411  0.0324  0.2369  0.8086
13092TIP3    H160767   5.258   2.500   4.407  0.0709  0.2124  0.5265
13092TIP3    H260768   5.239   2.384   4.503  3.6452 -0.6636  0.3230
13093TIP3   OH260769   3.261   5.063   4.168 -0.1657 -0.2271 -0.1658
13093TIP3    H160770   3.227   5.035   4.083 -1.3868 -0.4342  0.3578
13093TIP3    H260771   3.184   5.097   4.214  0.5097  0.0542  0.7874
13094TIP3   OH260772   3.909   3.960   1.834  0.4234 -0.2895 -0.0938
13094TIP3    H160773   3.836   3.901   1.856  1.1467 -1.0272  0.3785
13094TIP3    H260774   3.981   3.929   1.888  1.4767 -0.3990 -1.5170
13095TIP3   OH260775   0.775   4.204   3.820 -0.4061  0.0468 -0.0291
13095TIP3    H160776   0.862   4.234   3.845 -0.7774  1.2642 -0.1636
13095TIP3    H260777   0.715   4.270   3.853 -1.2569 -0.5702 -0.2883
13096TIP3   OH260778   0.601   1.382   3.960  0.2585 -0.0275 -0.2223
13096TIP3    H160779   0.619   1.386   4.053  0.0162  0.6144 -0.2042
13096TIP3    H260780   0.507   1.364   3.954 -0.3149  2.7022 -0.3387
13097TIP3   OH260781   4.438   2.088  12.213  0.6414 -0.3776  0.1108
13097TIP3    H160782   4.370   2.071  12.148 -0.2008 -1.2628  1.1773
13097TIP3    H260783   4.520   2.082  12.165  0.0295 -0.7798 -0.9108
13098TIP3   OH260784   3.791   1.549   0.940  0.2422  0.0270  0.4364
13098TIP3    H160785   3.860   1.523   1.002 -0.0888  1.5500  1.5083
13098TIP3    H260786   3.719   1.580   0.996 -0.5881  0.2040 -0.6965
13099TIP3   OH260787   4.838   0.198   4.691 -0.5076  0.2485 -0.1726
13099TIP3    H160788   4.862   0.269   4.749 -1.9974 -0.4059  1.3201
13099TIP3    H260789   4.862   0.118   4.738  0.5414 -0.2978 -1.5377
13100TIP3   OH260790   2.102   6.509   3.096 -0.3679  0.7126  0.2512
13100TIP3    H160791   2.187   6.550   3.079 -0.6480  1.0839 -0.2871
13100TIP3    H260792   2.047   6.580   3.130 -1.2368  1.1380 -1.8881
13101TIP3   OH260793   5.847   2.208   2.284 -0.3521  0.2077  0.1132
13101TIP3    H160794   5.754   2.232   2.284 -0.3017  0.6425  2.6342
13101TIP3    H260795   5.878   2.232   2.371  1.9992 -0.4926 -0.4674
13102TIP3   OH260796   1.722   3.081   4.235 -0.2517 -0.1134 -0.1714
13102TIP3    H160797   1.645   3.025   4.218 -1.0601  0.9290 -0.0532
13102TIP3    H260798   1.725   3.140   4.160 -0.0963  0.4279  0.2598
13103TIP3   OH260799   2.457   4.810   5.185 -0.0569 -0.1326  0.1254
13103TIP3    H160800   2.476   4.902   5.205  0.7674 -0.5958  1.5884
13103TIP3    H260801   2.365   4.811   5.157  0.4787  1.3887 -1.8312
13104TIP3   OH260802   4.699   6.784   1.203 -0.3417 -0.3427 -0.7131
13104TIP3    H160803   4.733   6.696   1.188  0.4772 -0.7336  2.6156
13104TIP3    H260804   4.772   6.832   1.243 -1.7929  0.7254  0.8163
13105TIP3   OH260805   1.178   2.739   0.323  0.0567  0.2180 -0.1508
13105TIP3    H160806   1.256   2.732   0.379 -0.4471 -0.1279  0.5265
13105TIP3    H260807   1.115   2.787   0.377 -0.4747 -0.2165 -0.3808
13106TIP3   OH260808   2.257   1.607  13.971 -0.6027 -0.4618  0.0086
13106TIP3    H160809   2.207   1.687  13.984  0.5996  0.1346  1.2270
13106TIP3    H260810   2.311   1.599  14.050  0.7188 -1.4258 -0.9354
13107TIP3   OH260811   3.513   1.532   4.111 -0.3612 -0.6017 -0.0898
13107TIP3    H160812   3.535   1.612   4.064 -2.0648 -0.7842 -1.2954
13107TIP3    H260813   3.450   1.561   4.178  1.5844 -0.4417  1.7914
13108TIP3   OH260814   3.375   2.899   2.780  0.0925 -0.0961 -0.0293
13108TIP3    H160815   3.454   2.867   2.737  1.1618  0.4224  1.4847
13108TIP3    H260816   3.346   2.825   2.835  0.1301  0.0805  0.2279
13109TIP3   OH260817   4.234   1.319   4.977 -0.8846 -0.1392  0.1823
13109TIP3    H160818   4.161   1.332   5.037 -2.8896 -2.4574 -1.5561
13109TIP3    H260819   4.202   1.350   4.892  0.4125 -0.5864 -0.5002
13110TIP3   OH260820   4.348   2.195   5.041 -0.2004 -0.0393  0.6658
13110TIP3    H160821   4.277   2.179   4.978  0.6649  1.2638 -0.6852
13110TIP3    H260822   4.323   2.143   5.117 -0.4651 -3.0999 -1.3085
13111TIP3   OH260823   2.279   6.335   1.760  0.3978  0.5941  0.3113
13111TIP3    H160824   2.358   6.344   1.813  0.0284 -0.0872  0.9962
13111TIP3    H260825   2.270   6.241   1.745 -1.5553  0.3850  2.2518
13112TIP3   OH260826   7.247   0.928   1.778 -0.2899 -0.1139  0.0801
13112TIP3    H160827   7.156   0.901   1.764  0.2397 -1.2974 -1.4668
13112TIP3    H260828   7.274   0.965   1.694  0.1809  1.8442  1.0386
13113TIP3   OH260829   5.035   5.780  12.235 -0.3929 -0.3855 -0.5210
13113TIP3    H160830   5.095   5.828  12.178  0.6350  0.2729  1.0435
13113TIP3    H260831   4.995   5.848  12.291 -0.0346 -1.1678  0.7329
13114TIP3   OH260832   2.112   0.749   4.828  0.1297  0.0762 -0.3865
13114TIP3    H160833   2.026   0.716   4.854 -1.6571  4.0246 -0.6718
13114TIP3    H260834   2.116   0.732   4.733 -1.8204  2.5656 -1.0085
13115TIP3   OH260835   4.479   0.695  14.812  0.2485  0.1251 -0.0950
13115TIP3    H160836   4.533   0.774  14.814  1.4866 -0.6273 -1.7130
13115TIP3    H260837   4.395   0.724  14.778  0.0849  1.0401  1.0062
13116TIP3   OH260838   1.056   6.137   3.220 -0.2203 -0.2452  0.4101
13116TIP3    H160839   0.983   6.095   3.267  0.2357  0.6407  1.9517
13116TIP3    H260840   1.123   6.151   3.287  1.6356 -1.5428 -1.0785
13117TIP3   OH260841   3.154   5.045  13.162  0.4545  0.3084 -0.2671
13117TIP3    H160842   3.132   5.134  13.190 -1.4254  0.1080 -0.9619
13117TIP3    H260843   3.139   4.991  13.239 -0.1635  0.3745 -0.3329
13118TIP3   OH260844   2.581   1.886   2.376 -0.2686 -0.1018  0.1616
13118TIP3    H160845   2.649   1.824   2.351 -0.9351 -1.1189  0.8127
13118TIP3    H260846   2.626   1.970   2.382  0.9326 -0.7529  0.5982
13119TIP3   OH260847   0.325   4.432   5.078  0.1450  0.1307  0.2135
13119TIP3    H160848   0.250   4.491   5.088  0.8031  1.4647 -1.9362
13119TIP3    H260849   0.377   4.472   5.007  1.3595 -2.3139 -0.3719
13120TIP3   OH260850   0.381   5.968   1.018  0.5639 -0.0760 -0.0658
13120TIP3    H160851   0.370   6.063   1.022 -1.1769 -0.2825  3.4328
13120TIP3    H260852   0.291   5.933   1.021  1.0248 -1.9598 -3.0513
13121TIP3   OH260853   4.082   6.858  12.763  0.6336 -0.2496 -0.6746
13121TIP3    H160854   4.104   6.890  12.675  1.1483  0.6196 -0.2508
13121TIP3    H260855   4.049   6.769  12.749  2.2833 -0.7609 -1.5906
13122TIP3   OH260856   6.442   2.366  11.987  0.1649  0.1525  0.0219
13122TIP3    H160857   6.535   2.356  11.970 -0.3996 -1.4990 -2.5768
13122TIP3    H260858   6.416   2.285  12.030 -0.2999  0.0862 -0.3795
13123TIP3   OH260859   4.120   4.962  15.289  0.2050  0.1563  0.1364
13123TIP3    H160860   4.099   4.881  15.334 -1.1078  1.2227  1.5190
13123TIP3    H260861   4.214   4.976  15.306  0.5183 -1.1773 -0.3753
13124TIP3   OH260862   2.068   1.614   4.858  0.2322 -0.4572  0.4507
13124TIP3    H160863   2.023   1.678   4.803  0.1423 -1.3499 -0.5459
13124TIP3    H260864   2.011   1.537   4.857  0.7314 -0.8405  0.9486
13125TIP3   OH260865   1.389   1.699   4.727 -0.1899 -0.6586  0.0780
13125TIP3    H160866   1.322   1.653   4.676 -1.2902 -1.7689  2.3826
13125TIP3    H260867   1.340   1.762   4.779  0.6387 -0.9080  1.1883
13126TIP3   OH260868   6.960   4.272   1.175 -0.1471  0.6166 -0.0142
13126TIP3    H160869   6.865   4.271   1.162  0.1377  0.4077 -2.7893
13126TIP3    H260870   6.988   4.183   1.157  0.3594 -0.3233  4.3206
13127TIP3   OH260871   6.246   3.642   2.918 -0.2949  0.1506 -0.4040
13127TIP3    H160872   6.325   3.627   2.969  0.1080 -0.6764 -1.2343
13127TIP3    H260873   6.199   3.558   2.923 -0.7602  0.4003 -0.5259
13128TIP3   OH260874   1.269   1.195  11.554  0.1060 -0.6116  0.0247
13128TIP3    H160875   1.179   1.171  11.530 -0.7022  2.8496 -0.9310
13128TIP3    H260876   1.324   1.148  11.492 -1.3778  0.4066 -2.1996
13129TIP3   OH260877   5.484   6.891  10.137 -0.4730  0.0221 -0.1511
13129TIP3    H160878   5.482   6.853  10.050  1.6290  0.4003 -0.3973
13129TIP3    H260879   5.395   6.926  10.150 -1.0604 -0.8134 -1.7594
13130TIP3   OH260880   1.517   5.317  14.462  0.5065  0.3608 -0.4036
13130TIP3    H160881   1.472   5.301  14.544  1.2504 -1.2496 -0.2785
13130TIP3    H260882   1.609   5.295  14.480  0.3103 -2.5389 -2.2786
13131TIP3   OH260883   0.193   0.214   4.999 -0.5585  0.0566  0.5405
13131TIP3    H160884   0.125   0.247   5.058 -0.6319  0.3088  0.3162
13131TIP3    H260885   0.244   0.291   4.975 -1.4297  0.2342 -0.8967
13132TIP3   OH260886   3.854   0.585   1.954 -0.3108  0.0969 -0.3312
13132TIP3    H160887   3.760   0.602   1.960 -0.4439 -0.6573 -0.1483
13132TIP3    H260888   3.889   0.608   2.040 -0.5172 -0.7017 -0.0270
13133TIP3   OH260889   6.286   6.848  11.374  0.2737 -0.1773 -0.3657
13133TIP3    H160890   6.209   6.869  11.428  0.2236  1.8481 -1.1415
13133TIP3    H260891   6.255   6.778  11.316 -0.7350  0.0393 -0.1146
13134TIP3   OH260892   3.506   4.605  11.878  0.1428 -0.1431 -0.2028
13134TIP3    H160893   3.529   4.666  11.807  0.7199 -0.3992 -0.2391
13134TIP3    H260894   3.441   4.547  11.839 -1.5489  1.3410  0.2502
13135TIP3   OH260895   1.087   5.727  11.388  0.3018  0.0313 -0.3156
13135TIP3    H160896   1.153   5.679  11.437 -0.4227 -0.7358 -0.0699
13135TIP3    H260897   1.092   5.691  11.300  0.2273 -0.0158 -0.3012
13136TIP3   OH260898   2.268   1.989   3.865  0.5278 -0.7789  0.0762
13136TIP3    H160899   2.339   1.929   3.885 -0.0180 -1.7529 -0.8157
13136TIP3    H260900   2.305   2.051   3.802  1.4779  0.6822  1.9846
13137TIP3   OH260901   2.088   4.500   5.509  0.2210  0.0362  0.1134
13137TIP3    H160902   2.173   4.489   5.465  0.7457  1.0575  0.8344
13137TIP3    H260903   2.068   4.593   5.500  0.2920  0.2570  1.9156
13138TIP3   OH260904   4.635   3.706   4.903  0.1102 -0.2698 -0.0347
13138TIP3    H160905   4.624   3.612   4.918 -1.0688  0.2575  2.8434
13138TIP3    H260906   4.548   3.743   4.917  0.8753  1.4263  0.4086
13139TIP3   OH260907   4.240   3.928   2.667 -0.2717  0.3209  0.6830
13139TIP3    H160908   4.238   3.907   2.761  1.2371 -3.3573  0.0812
13139TIP3    H260909   4.333   3.924   2.645 -0.5901  1.3651 -0.9883
13140TIP3   OH260910   1.845   5.596  14.959 -0.4352 -0.2162  0.6508
13140TIP3    H160911   1.912   5.542  14.915 -1.0380 -0.3487 -0.1281
13140TIP3    H260912   1.895   5.663  15.006  0.2744 -0.7355  0.6503
13141TIP3   OH260913   2.340   5.553  10.411 -0.4438  0.1633 -0.3465
13141TIP3    H160914   2.402   5.493  10.452 -2.1912 -1.6670 -0.2401
13141TIP3    H260915   2.395   5.621  10.371  1.6545 -1.7867 -0.9455
13142TIP3   OH260916   5.309   0.617  14.885  0.8568  0.0294 -0.4986
13142TIP3    H160917   5.380   0.677  14.862  0.8426 -0.4628 -1.8907
13142TIP3    H260918   5.322   0.542  14.828 -1.8537  0.7070 -2.1684
13143TIP3   OH260919   2.573   6.812  12.143 -0.1919 -0.3138 -0.3907
13143TIP3    H160920   2.592   6.899  12.179 -0.5561 -0.5631  0.4237
13143TIP3    H260921   2.600   6.752  12.212 -2.6390 -0.7483  0.2704
13144TIP3   OH260922   1.278   1.804   2.638  0.1147  0.2592 -0.4410
13144TIP3    H160923   1.189   1.797   2.671  0.7601  0.5683  1.4546
13144TIP3    H260924   1.333   1.763   2.705  1.3866 -0.2495 -1.7306
13145TIP3   OH260925   6.139   1.289   3.679 -0.2570 -0.5909 -0.3975
13145TIP3    H160926   6.126   1.303   3.773  2.1151  1.4418 -0.2707
13145TIP3    H260927   6.056   1.253   3.648 -1.5392 -0.0945  2.2317
13146TIP3   OH260928   4.159   3.110   0.693  0.2593 -0.2194  0.1436
13146TIP3    H160929   4.121   3.075   0.773  0.9525  0.9064  1.0089
13146TIP3    H260930   4.250   3.080   0.694  0.0005 -1.0686 -0.7724
13147TIP3   OH260931   3.501   7.084  14.487  0.4478 -0.3018  0.2735
13147TIP3    H160932   3.469   7.132  14.411  1.6663 -0.6947 -0.5232
13147TIP3    H260933   3.422   7.061  14.536 -0.3763 -0.0826 -0.9041
13148TIP3   OH260934   4.768   0.381   4.207 -0.0147  0.6369  0.2496
13148TIP3    H160935   4.782   0.476   4.198  0.8273  0.4688 -0.2414
13148TIP3    H260936   4.673   0.372   4.214 -0.0260  1.7555  3.0287
13149TIP3   OH260937   6.215   1.733  13.115 -0.2266  0.7579  0.1973
13149TIP3    H160938   6.140   1.789  13.134  1.4968  3.1953  0.4086
13149TIP3    H260939   6.208   1.712  13.022 -0.4377  2.1667 -0.1190
13150TIP3   OH260940   2.966   0.756  12.019 -0.3902 -0.2173  0.0783
13150TIP3    H160941   2.944   0.830  11.962  1.6090 -0.2297 -0.7845
13150TIP3    H260942   2.974   0.795  12.106  3.0659  1.1958 -0.7121
13151TIP3   OH260943   4.331   0.787   0.685  0.2730  0.2535  0.2741
13151TIP3    H160944   4.259   0.819   0.740 -0.3796  0.2221 -0.5446
13151TIP3    H260945   4.363   0.709   0.730 -0.7005 -0.1656  0.2714
13152TIP3   OH260946   4.291   6.456   3.357 -0.2069  0.1297 -0.8034
13152TIP3    H160947   4.278   6.361   3.350 -2.9489  0.4168 -0.5455
13152TIP3    H260948   4.231   6.494   3.293 -1.3190  1.7562  1.0998
13153TIP3   OH260949   4.911   6.390   4.643  0.7098 -0.1412  0.0889
13153TIP3    H160950   4.957   6.367   4.724 -0.4921  0.1288  0.8649
13153TIP3    H260951   4.834   6.438   4.672  1.5023  2.1544 -1.3235
13154TIP3   OH260952   6.327   6.171   3.402 -0.0173  0.0715 -0.5424
13154TIP3    H160953   6.414   6.199   3.374  0.9325 -0.4564  1.5951
13154TIP3    H260954   6.325   6.191   3.496 -1.7487 -1.0206 -0.2991
13155TIP3   OH260955   5.035   3.536   1.279 -0.2610 -0.0578 -0.0259
13155TIP3    H160956   5.128   3.553   1.296  0.0816 -2.1774  0.5538
13155TIP3    H260957   5.019   3.571   1.191  1.1159  0.2591 -0.1653
13156TIP3   OH260958   1.432   0.059  15.209 -0.3975  0.3201  0.8413
13156TIP3    H160959   1.422   0.056  15.114  0.6494  0.5227  0.7070
13156TIP3    H260960   1.445   0.152  15.229 -1.2502  0.3595  1.2678
13157TIP3   OH260961   2.561   1.322  13.954 -0.2136 -0.2692 -0.8080
13157TIP3    H160962   2.561   1.398  14.012 -0.8343 -0.3569 -0.6948
13157TIP3    H260963   2.569   1.360  13.866 -2.5069  0.0765 -0.9295
13158TIP3   OH260964   3.301   1.856   0.156  0.0757  0.0445  0.0532
13158TIP3    H160965   3.350   1.783   0.192 -0.8108 -0.4346  0.3254
13158TIP3    H260966   3.347   1.934   0.187  1.4240 -0.3839 -0.7993
13159TIP3   OH260967   0.241   3.398   5.629 -0.0542 -0.4539  0.3386
13159TIP3    H160968   0.179   3.335   5.592 -1.8754  1.2505  0.2862
13159TIP3    H260969   0.186   3.467   5.664  1.8473  1.0430  0.5369
13160TIP3   OH260970   3.479   2.302   2.897 -0.2622 -0.0293 -0.3319
13160TIP3    H160971   3.532   2.224   2.911  0.5843  0.5154 -0.3720
13160TIP3    H260972   3.529   2.373   2.939 -2.0584  0.1709  1.6368
13161TIP3   OH260973   6.547   6.799  10.477  0.0351  0.0271 -0.6415
13161TIP3    H160974   6.635   6.807  10.512 -0.3565 -0.5709  0.5690
13161TIP3    H260975   6.554   6.731  10.410  0.5517  0.2015 -0.7663
13162TIP3   OH260976   6.778   2.984  13.874  0.1796  0.3218 -0.8734
13162TIP3    H160977   6.856   3.004  13.925 -0.4530  1.4459 -0.2972
13162TIP3    H260978   6.777   3.050  13.805  0.4765 -0.5568 -1.7351
13163TIP3   OH260979   6.646   7.175  13.363  0.0673 -0.0042 -0.3505
13163TIP3    H160980   6.675   7.250  13.311  0.1523  0.5447  0.4730
13163TIP3    H260981   6.551   7.170  13.347 -0.0114  0.5449 -0.0727
13164TIP3   OH260982   1.370   2.209   9.308 -0.2090 -0.4902  0.2490
13164TIP3    H160983   1.461   2.218   9.281  0.9712 -2.1900  3.1820
13164TIP3    H260984   1.355   2.282   9.367 -1.2091  0.4974 -1.1767
13165TIP3   OH260985   3.831   5.057  15.211 -0.4315 -0.8512  0.3974
13165TIP3    H160986   3.738   5.074  15.194  0.1618  1.8142 -0.7674
13165TIP3    H260987   3.841   4.963  15.197 -1.9589 -0.5677 -5.3849
13166TIP3   OH260988   4.381   3.458   4.988 -0.0158 -0.3365  0.6724
13166TIP3    H160989   4.332   3.401   5.048 -0.0124 -2.7622 -1.4522
13166TIP3    H260990   4.327   3.462   4.909  1.4031  0.1397 -0.3108
13167TIP3   OH260991   5.195   0.455   3.906 -0.6507  0.6649 -0.3510
13167TIP3    H160992   5.187   0.418   3.819 -0.3139 -1.1001  0.3241
13167TIP3    H260993   5.229   0.383   3.960  2.9844  2.7077  0.4791
13168TIP3   OH260994   2.593   5.550   6.042 -0.2044 -0.0189  0.1298
13168TIP3    H160995   2.570   5.491   5.970 -1.2172  1.5970 -0.9527
13168TIP3    H260996   2.660   5.607   6.006 -0.1670  0.3153  0.7166
13169TIP3   OH260997   7.155   1.209  14.497  0.1391  0.1341  0.2262
13169TIP3    H160998   7.143   1.249  14.411 -0.0507  0.3985  0.3743
13169TIP3    H260999   7.125   1.119  14.487 -1.7144  0.6781  0.5086
13170TIP3   OH261000   5.628   0.930   4.474 -0.6185 -0.0768 -0.8153
13170TIP3    H161001   5.639   0.928   4.569  1.3307 -0.4118 -1.0271
13170TIP3    H261002   5.533   0.943   4.462 -0.9518 -0.3697  1.1479
13171TIP3   OH261003   2.916   4.913  12.577  0.0230 -0.3404 -0.2033
13171TIP3    H161004   2.955   4.925  12.491 -0.7226 -2.1294 -0.8207
13171TIP3    H261005   2.920   4.819  12.593 -1.5298 -0.2646  0.9002
13172TIP3   OH261006   6.455   3.129   5.084 -0.0137  0.3020 -0.7923
13172TIP3    H161007   6.534   3.181   5.100  0.1202  0.5358 -2.1015
13172TIP3    H261008   6.476   3.076   5.007 -0.7321 -0.4875 -0.4614
13173TIP3   OH261009   4.675   2.826   3.596 -0.4371  0.9345 -0.1841
13173TIP3    H161010   4.734   2.820   3.671  1.8197 -0.6688 -1.9363
13173TIP3    H261011   4.733   2.836   3.521 -2.6134  2.6809 -1.7669
13174TIP3   OH261012   2.380   1.400   9.419  0.1418  0.0922 -0.2547
13174TIP3    H161013   2.415   1.487   9.438  0.1045 -0.1514  0.9915
13174TIP3    H261014   2.453   1.352   9.380  0.1096  0.7253 -1.1313
13175TIP3   OH261015   0.105   4.169   2.422 -0.4183  0.3151  0.2931
13175TIP3    H161016   0.103   4.250   2.473  1.2080  0.7613 -0.3133
13175TIP3    H261017   0.082   4.196   2.333  2.8225  0.6577 -0.5357
13176TIP3   OH261018   4.101   6.166   5.039 -0.1602  0.3492  0.7565
13176TIP3    H161019   4.183   6.209   5.064  0.7833 -1.9523  1.9382
13176TIP3    H261020   4.046   6.173   5.116 -0.2869  0.1171  0.6880
13177TIP3   OH261021   2.426   0.001   3.832  0.2013 -0.3758  0.4783
13177TIP3    H161022   2.386   0.035   3.752  0.8388  0.9467  0.6955
13177TIP3    H261023   2.365  -0.066   3.864  0.1965 -1.3269 -1.3969
13178TIP3   OH261024   5.401   2.642   4.517  0.4379 -0.2040  0.1089
13178TIP3    H161025   5.376   2.727   4.480 -0.3248 -0.6570 -0.4587
13178TIP3    H261026   5.430   2.662   4.606  2.2301  0.9065 -0.6742
13179TIP3   OH261027   1.025   7.081  13.817 -0.2215 -0.2213 -0.3955
13179TIP3    H161028   1.048   7.166  13.779 -1.8082  0.8187  0.8359
13179TIP3    H261029   1.099   7.059  13.873 -0.1242  0.7468 -0.1201
13180TIP3   OH261030   2.274   3.073   3.474 -0.1055 -0.2435  0.3682
13180TIP3    H161031   2.291   2.986   3.511 -1.6724 -0.5156  0.5197
13180TIP3    H261032   2.347   3.088   3.414  2.0073 -0.1884  2.8059
13181TIP3   OH261033   0.562   5.187   4.652  0.4568 -0.1759 -0.9241
13181TIP3    H161034   0.488   5.202   4.711  1.2523 -0.8349  0.2673
13181TIP3    H261035   0.529   5.214   4.566 -1.8244 -2.2292 -0.8066
13182TIP3   OH261036   5.496   6.780   2.147  0.1675 -0.0660  0.9063
13182TIP3    H161037   5.472   6.825   2.228  1.4249  0.3714  1.0476
13182TIP3    H261038   5.428   6.713   2.136 -0.8480  0.8367  1.5168
13183TIP3   OH261039   0.536   4.892  11.521 -0.7937  0.3162  0.3051
13183TIP3    H161040   0.571   4.969  11.567 -0.3530 -0.9428  2.1843
13183TIP3    H261041   0.594   4.879  11.447  0.5415  0.4432  1.2931
13184TIP3   OH261042   1.855   1.488  10.752  0.9165 -0.0587 -0.0785
13184TIP3    H161043   1.880   1.397  10.736 -0.5172 -0.2943 -1.1180
13184TIP3    H261044   1.778   1.482  10.808 -0.6860  0.3698 -2.1098
13185TIP3   OH261045   5.112   5.438   1.418 -0.3916  0.2563 -0.5525
13185TIP3    H161046   5.127   5.526   1.450  0.9816  0.3100 -1.2925
13185TIP3    H261047   5.107   5.447   1.323 -2.8913 -0.1144 -0.5433
13186TIP3   OH261048   4.833   1.639   4.240  0.2598 -0.8374  0.4603
13186TIP3    H161049   4.858   1.724   4.203 -1.4570 -1.6777 -3.1620
13186TIP3    H261050   4.762   1.660   4.301 -0.8870  0.3722 -1.1605
13187TIP3   OH261051   4.064   2.441  10.694 -0.0602 -0.1345 -0.0167
13187TIP3    H161052   4.073   2.506  10.624 -1.3122  0.6941  0.5627
13187TIP3    H261053   4.145   2.390  10.689 -0.0937 -0.0934 -2.0482
13188TIP3   OH261054   2.466   2.525   1.627 -0.0475  0.5148  0.1197
13188TIP3    H161055   2.452   2.610   1.669 -0.6618  1.3239 -1.6264
13188TIP3    H261056   2.543   2.538   1.572  0.4932 -0.4022  0.6401
13189TIP3   OH261057   0.381   0.084  13.336  0.1589  0.1050  0.1688
13189TIP3    H161058   0.436   0.048  13.406  1.9516 -0.2744 -1.3751
13189TIP3    H261059   0.333   0.009  13.303 -0.3453  0.2014  0.6655
13190TIP3   OH261060   0.572   6.645   5.001 -0.8163  0.3387  0.1898
13190TIP3    H161061   0.551   6.553   5.018 -0.3621  0.1277 -0.3605
13190TIP3    H261062   0.563   6.688   5.086  1.4844 -0.6835  1.0124
13191TIP3   OH261063   2.901   5.300   4.749  0.1229 -0.2622  0.0229
13191TIP3    H161064   2.951   5.223   4.722 -0.4105 -0.7934  0.5458
13191TIP3    H261065   2.957   5.374   4.725  0.2903 -0.7699 -1.2316
13192TIP3   OH261066   1.747   6.149   0.590  0.2151 -0.1641  0.5584
13192TIP3    H161067   1.828   6.188   0.624  1.4435 -0.1438 -2.0977
13192TIP3    H261068   1.772   6.059   0.567 -0.2496  0.0953 -1.0575
13193TIP3   OH261069   5.444   6.542  11.862 -0.3085 -0.5915 -0.3742
13193TIP3    H161070   5.517   6.588  11.905  0.1854 -1.2846 -0.4593
13193TIP3    H261071   5.366   6.587  11.893  0.1822  0.6791 -0.8851
13194TIP3   OH261072   5.465   6.224   4.803  0.4610  0.3440 -0.4857
13194TIP3    H161073   5.543   6.269   4.769  0.9097  1.4764  1.8414
13194TIP3    H261074   5.500   6.158   4.863 -0.3465 -0.5491 -0.9731
13195TIP3   OH261075   1.004   2.489  11.235 -0.5686  0.3504  0.4363
13195TIP3    H161076   0.918   2.457  11.263 -1.3761  1.0359 -1.1848
13195TIP3    H261077   0.985   2.553  11.167  1.1521  1.9911  1.3969
13196TIP3   OH261078   6.227   4.263  15.015  0.0300  0.5429  0.5299
13196TIP3    H161079   6.205   4.171  15.001 -0.7608  0.9906 -1.4558
13196TIP3    H261080   6.147   4.301  15.052  0.3476  0.4684  1.3237
13197TIP3   OH261081   0.039   3.171  12.048 -0.8148 -0.4278  0.0784
13197TIP3    H161082   0.071   3.080  12.051 -0.8801 -0.4589 -0.2085
13197TIP3    H261083   0.018   3.191  12.139  0.3517 -0.2930  0.3360
13198TIP3   OH261084   0.305   4.975  13.958 -0.2941  0.5275  0.4772
13198TIP3    H161085   0.230   4.929  13.919 -0.2754 -0.5288  1.6363
13198TIP3    H261086   0.297   4.959  14.052  1.2437  0.6231  0.6473
13199TIP3   OH261087   1.781   6.097  11.334  0.2813 -0.2724  0.4060
13199TIP3    H161088   1.788   6.143  11.251  0.6123 -0.1943  0.4735
13199TIP3    H261089   1.694   6.119  11.367  0.5372  0.5157  0.5621
13200TIP3   OH261090   0.056   0.651   2.641 -0.3702  0.5880  0.2439
13200TIP3    H161091   0.123   0.583   2.634 -0.5613  0.2911  1.2174
13200TIP3    H261092   0.088   0.710   2.709 -1.7875 -0.3793  1.7995
13201TIP3   OH261093   1.499   0.353   5.285  1.1203 -0.0449  0.2922
13201TIP3    H161094   1.464   0.435   5.319  3.8885  2.3898 -2.0941
13201TIP3    H261095   1.461   0.346   5.197 -0.0447 -2.0918  0.8987
13202TIP3   OH261096   1.371   5.586  11.184 -0.0511  0.4552  0.2273
13202TIP3    H161097   1.407   5.616  11.100  2.8723 -0.9210  0.8820
13202TIP3    H261098   1.386   5.491  11.184 -3.0102 -0.1175  0.9897
13203TIP3   OH261099   6.071   0.249   0.676 -0.8479 -0.3082 -0.6416
13203TIP3    H161100   6.064   0.324   0.735  1.3212 -0.6738  0.1734
13203TIP3    H261101   6.036   0.175   0.726 -2.7495  0.0395 -1.3541
13204TIP3   OH261102   3.518   2.193  12.965 -0.4408  0.0225 -0.2632
13204TIP3    H161103   3.443   2.162  13.015  1.1098 -1.9333  0.9961
13204TIP3    H261104   3.562   2.255  13.023  0.2477 -0.7126  0.0191
13205TIP3   OH261105   3.610   7.064  10.526 -0.0028  0.3517 -0.2425
13205TIP3    H161106   3.555   7.126  10.574 -0.5390 -1.1504  1.1616
13205TIP3    H261107   3.638   7.112  10.448 -0.5620  2.2745  0.6853
13206TIP3   OH261108   3.788   4.153  10.361 -0.1331  0.4645 -0.1335
13206TIP3    H161109   3.756   4.089  10.425 -2.1767  0.7312 -0.8246
13206TIP3    H261110   3.876   4.175  10.391 -0.6095 -0.2672  1.9384
13207TIP3   OH261111   6.536   1.826  13.356 -0.1226  0.3156 -0.2165
13207TIP3    H161112   6.583   1.751  13.394  0.6297 -0.4089 -2.4228
13207TIP3    H261113   6.590   1.901  13.378 -0.0591  0.0351  0.6671
13208TIP3   OH261114   2.551   6.296  11.322  0.3360 -0.7535 -0.3829
13208TIP3    H161115   2.578   6.214  11.282  0.2913 -1.1521  0.3708
13208TIP3    H261116   2.470   6.274  11.370 -0.9558  0.2520 -2.0034
13209TIP3   OH261117   0.974   1.279   2.925 -0.0475  0.3608 -1.2163
13209TIP3    H161118   1.032   1.210   2.892  1.8131  1.4469 -0.4044
13209TIP3    H261119   0.925   1.238   2.996  0.5610 -0.3091 -1.1786
13210TIP3   OH261120   1.137   4.430   1.325  0.1939 -0.4397 -0.2200
13210TIP3    H161121   1.213   4.400   1.275 -0.3946 -0.3300 -1.1978
13210TIP3    H261122   1.158   4.521   1.346  0.9370 -0.8050  0.7313
13211TIP3   OH261123   5.067   0.690   4.360 -0.1302  0.5493  0.4992
13211TIP3    H161124   5.150   0.653   4.390  0.3088  0.9237 -0.2333
13211TIP3    H261125   5.042   0.636   4.285 -0.0036  1.1061  0.0551
13212TIP3   OH261126   4.406   7.224   0.023  0.5157  0.6026  0.0235
13212TIP3    H161127   4.336   7.275   0.063  2.6614  2.0289  2.3276
13212TIP3    H261128   4.476   7.287   0.008  1.6141 -0.8805 -1.4679
13213TIP3   OH261129   5.635   7.068   5.481 -0.3195 -0.6881  0.1635
13213TIP3    H161130   5.583   6.999   5.522 -2.4121  0.1675 -0.9285
13213TIP3    H261131   5.572   7.119   5.431  1.6010  0.4029 -1.2596
13214TIP3   OH261132   0.747   0.729   4.521  0.4561 -0.2027  0.1368
13214TIP3    H161133   0.676   0.715   4.584  2.0847  1.5327  2.5435
13214TIP3    H261134   0.826   0.698   4.566  1.6664  0.8889 -1.1472
13215TIP3   OH261135   2.842   4.634   3.683  0.0245  0.1928  0.5597
13215TIP3    H161136   2.847   4.629   3.588  0.4310  1.2237  0.5113
13215TIP3    H261137   2.838   4.728   3.702 -4.5104  0.0443  1.3823
13216TIP3   OH261138   3.105   2.921   2.785  0.3470 -0.5731 -0.2538
13216TIP3    H161139   3.087   2.830   2.760  0.0851 -0.3090 -1.0800
13216TIP3    H261140   3.200   2.929   2.779  0.5365 -1.2283  1.4308
13217TIP3   OH261141   0.416   1.600   4.816  0.1065  0.0491  0.0382
13217TIP3    H161142   0.335   1.548   4.810 -0.2779  0.3921  1.8138
13217TIP3    H261143   0.480   1.540   4.854 -0.0014  0.4845  0.9284
13218TIP3   OH261144   7.190   1.935  11.234 -0.2974  0.0149 -0.5261
13218TIP3    H161145   7.263   1.994  11.254 -0.4185 -0.1633  0.4498
13218TIP3    H261146   7.221   1.848  11.257 -1.0947  0.0301  0.6951
13219TIP3   OH261147   4.295   6.622  11.747 -0.5657  0.1078  0.0059
13219TIP3    H161148   4.345   6.542  11.737 -1.1113 -0.2101 -0.2281
13219TIP3    H261149   4.253   6.635  11.662 -0.2665  0.7879 -0.0469
13220TIP3   OH261150   6.846   0.531  11.434  0.6109  0.2449 -0.4990
13220TIP3    H161151   6.860   0.511  11.342  1.2741  0.1188 -0.3774
13220TIP3    H261152   6.871   0.623  11.442  1.5653 -0.0290 -0.2443
13221TIP3   OH261153   0.442   4.353   5.325 -0.7164 -0.6694 -0.5979
13221TIP3    H161154   0.535   4.372   5.340 -0.7592  0.5626 -1.7340
13221TIP3    H261155   0.421   4.398   5.244 -2.9558  1.1746  0.8972
13222TIP3   OH261156   1.376   3.530   2.765  0.9648  0.2009 -0.2591
13222TIP3    H161157   1.342   3.568   2.846  1.4835  0.1066  0.0103
13222TIP3    H261158   1.364   3.598   2.699 -0.5917 -0.1715 -0.3838
13223TIP3   OH261159   3.814   0.757   3.104 -0.1229 -0.6645 -0.5851
13223TIP3    H161160   3.854   0.723   3.024 -1.3642  0.7474 -1.8634
13223TIP3    H261161   3.887   0.780   3.160  0.7766 -1.3142 -1.4609
13224TIP3   OH261162   4.866   2.001  13.133 -0.3977  0.7361  0.0235
13224TIP3    H161163   4.916   2.047  13.065 -0.6589  1.3843  0.2659
13224TIP3    H261164   4.775   2.014  13.108 -0.5422  1.9290  1.0875
13225TIP3   OH261165   2.816   1.985  14.611  0.0045 -0.5657  0.1908
13225TIP3    H161166   2.757   1.913  14.635 -0.6083 -0.2286 -0.2777
13225TIP3    H261167   2.903   1.946  14.613 -0.2483 -1.1327  0.6639
13226TIP3   OH261168   1.042   0.594   0.893  0.0092  0.5592 -0.5757
13226TIP3    H161169   1.088   0.654   0.951 -0.4330 -0.5321  0.9896
13226TIP3    H261170   0.951   0.625   0.892 -0.1511  0.1224 -0.0268
13227TIP3   OH261171   1.473   0.160  12.252 -0.5106 -0.1937  0.7753
13227TIP3    H161172   1.404   0.161  12.186 -0.8095 -0.2495  1.0886
13227TIP3    H261173   1.553   0.143  12.201 -0.8249 -0.9425  0.5066
13228TIP3   OH261174   1.334   3.149   3.359  0.1268  0.0896 -0.0336
13228TIP3    H161175   1.252   3.191   3.387  0.0194  0.2996 -0.6464
13228TIP3    H261176   1.366   3.205   3.288  1.0629  0.2859  0.5338
13229TIP3   OH261177   3.663   3.769   1.641 -0.1029 -0.4292 -0.2960
13229TIP3    H161178   3.571   3.795   1.650  0.4066  0.9021  2.2231
13229TIP3    H261179   3.688   3.741   1.729  2.2471  0.5775 -0.5607
13230TIP3   OH261180   1.058   1.667  13.325 -0.3461  0.1189  0.2516
13230TIP3    H161181   1.011   1.605  13.269 -0.5889  0.5032  0.0258
13230TIP3    H261182   1.063   1.624  13.410  1.2898 -1.1154 -0.3989
13231TIP3   OH261183   0.125   2.190   3.184 -0.0026  0.2811  0.2290
13231TIP3    H161184   0.127   2.095   3.191 -4.1543 -0.0372  0.0019
13231TIP3    H261185   0.092   2.208   3.096  1.5063  2.0334 -0.0512
13232TIP3   OH261186   4.581   4.973   3.733 -0.1116 -1.1844 -0.3635
13232TIP3    H161187   4.610   4.882   3.729 -0.5822 -1.3169 -0.9307
13232TIP3    H261188   4.579   5.002   3.641  0.0405 -0.6019 -0.1877
13233TIP3   OH261189   1.534   1.985  13.254  0.1330  0.3887 -0.4026
13233TIP3    H161190   1.558   1.924  13.324 -0.6647  2.1959  1.5446
13233TIP3    H261191   1.601   2.052  13.257 -1.1543  1.7026  0.2608
13234TIP3   OH261192   2.330   4.243   4.721  0.1850  0.5774 -0.9090
13234TIP3    H161193   2.280   4.317   4.688  2.3134  1.6660 -1.8675
13234TIP3    H261194   2.308   4.171   4.662 -0.8578  0.7745 -0.7927
13235TIP3   OH261195   6.245   6.817   2.893  0.2899  0.6113 -0.2861
13235TIP3    H161196   6.185   6.886   2.920  1.3412  1.3652  0.1875
13235TIP3    H261197   6.254   6.762   2.971 -0.6794 -0.1889 -0.7131
13236TIP3   OH261198   1.805   0.011   0.885 -0.4445 -0.6537 -0.1957
13236TIP3    H161199   1.758   0.053   0.957 -0.3824 -0.6529 -0.1554
13236TIP3    H261200   1.851  -0.062   0.926  0.6276  0.1086 -0.0023
13237TIP3   OH261201   3.085   3.519   2.634  0.5977  0.2076 -0.0165
13237TIP3    H161202   3.076   3.571   2.553 -0.7098 -0.1646 -0.1365
13237TIP3    H261203   3.081   3.428   2.604  1.6798  0.0310  0.3248
13238TIP3   OH261204   0.181   0.537   3.282 -0.0051 -0.1078  0.2372
13238TIP3    H161205   0.234   0.590   3.222  1.1895 -3.3706 -1.8753
13238TIP3    H261206   0.221   0.551   3.368  3.3091 -0.9931 -0.9726
13239TIP3   OH261207   5.919   1.233   4.483  0.3190 -0.1153  0.2467
13239TIP3    H161208   5.931   1.138   4.488  1.4789  0.0171  0.1071
13239TIP3    H261209   5.828   1.246   4.510  0.0256 -1.2932 -0.0906
13240TIP3   OH261210   2.823   1.556  12.547 -0.0368  0.2056  0.2435
13240TIP3    H161211   2.836   1.532  12.639  1.3088  0.7554  0.2159
13240TIP3    H261212   2.909   1.584  12.517 -0.2462 -0.8401 -1.4545
13241TIP3   OH261213   3.229   6.500   2.238  0.2753 -0.4123  0.1857
13241TIP3    H161214   3.249   6.586   2.203 -0.0185 -0.7159 -0.7688
13241TIP3    H261215   3.288   6.490   2.313  1.2983  0.0558 -0.5324
13242TIP3   OH261216   0.390   4.415   1.709 -0.1579 -0.5764 -0.2473
13242TIP3    H161217   0.368   4.496   1.663  0.3996 -0.6693 -0.6901
13242TIP3    H261218   0.440   4.443   1.785  0.2722 -0.5179 -0.5492
13243TIP3   OH261219   2.528   5.310  11.483 -0.4325 -0.1939 -0.1954
13243TIP3    H161220   2.495   5.399  11.493 -0.6038 -0.0696 -1.6611
13243TIP3    H261221   2.617   5.313  11.517 -0.6167  0.4055  0.2424
13244TIP3   OH261222   7.157   1.237   3.275  0.4714  0.7655 -0.2970
13244TIP3    H161223   7.103   1.251   3.197 -1.3084 -0.4926  0.6331
13244TIP3    H261224   7.123   1.156   3.313  2.4460  0.4296  0.8601
13245TIP3   OH261225   0.304   3.377   3.248  0.4013  0.2098  0.1571
13245TIP3    H161226   0.343   3.343   3.167 -0.6519  0.2223 -0.3822
13245TIP3    H261227   0.364   3.446   3.276  1.2129 -0.3578 -0.1552
13246TIP3   OH261228   1.734   2.953  11.774  0.3951  0.2681  0.2189
13246TIP3    H161229   1.695   2.978  11.857  1.4746 -0.9046  1.1231
13246TIP3    H261230   1.674   2.887  11.738 -0.1096  0.8293  0.0064
13247TIP3   OH261231   5.415   4.775   2.520  0.3977 -0.5133  0.1353
13247TIP3    H161232   5.485   4.777   2.584  0.2598  1.5416  0.3036
13247TIP3    H261233   5.340   4.737   2.566  0.4637  0.4117  1.0255
13248TIP3   OH261234   2.167   6.639  12.345 -0.4269  0.7945  0.0636
13248TIP3    H161235   2.130   6.727  12.346  0.4152  1.1746  1.7620
13248TIP3    H261236   2.203   6.629  12.257  0.0297  2.4063  0.0413
13249TIP3   OH261237   5.496   3.498   4.657  0.6319 -0.2526  0.0818
13249TIP3    H161238   5.417   3.444   4.661  0.1359  0.5150  1.4196
13249TIP3    H261239   5.486   3.560   4.729  2.3302  0.0462  0.1070
13250TIP3   OH261240   1.917   0.030   1.216 -0.4710 -0.6974  0.0231
13250TIP3    H161241   1.994   0.034   1.272  0.9786 -1.3669 -1.8178
13250TIP3    H261242   1.945   0.069   1.134 -2.6698  0.6957 -0.1404
13251TIP3   OH261243   4.916   2.739  11.791 -0.0736  0.3334 -0.5870
13251TIP3    H161244   4.898   2.663  11.735  1.5776  0.9641 -2.0915
13251TIP3    H261245   4.846   2.801  11.771 -0.8770 -0.3930 -0.0876
13252TIP3   OH261246   5.000   3.066   2.358 -0.2759 -0.0066 -0.3543
13252TIP3    H161247   5.082   3.037   2.397 -1.5889 -0.0741  2.5770
13252TIP3    H261248   5.005   3.162   2.361  0.1238  0.0083 -1.2133
13253TIP3   OH261249   4.932   3.512   3.867  0.0881  0.0521  0.4430
13253TIP3    H161250   4.949   3.532   3.775  1.3341  0.8163  0.8224
13253TIP3    H261251   4.865   3.443   3.864 -0.7024  0.8340 -1.0019
13254TIP3   OH261252   5.046   3.692   3.041  0.2135 -0.1591  0.0438
13254TIP3    H161253   5.044   3.602   3.072 -3.4807 -0.1083  0.3992
13254TIP3    H261254   4.971   3.699   2.983  1.7613  2.1405 -1.9031
13255TIP3   OH261255   2.802   4.306   3.307  0.2147  0.2549  0.0440
13255TIP3    H161256   2.794   4.214   3.334 -0.0941  0.4434  0.6311
13255TIP3    H261257   2.743   4.314   3.232 -0.1054  0.0699  0.2694
13256TIP3   OH261258   4.420   3.080   0.703  0.2542  0.3143 -0.0701
13256TIP3    H161259   4.503   3.062   0.660  0.2670  0.6686 -0.2015
13256TIP3    H261260   4.429   3.042   0.791 -0.1349 -1.2506 -0.6824
13257TIP3   OH261261   1.439   0.837  13.800  0.3456 -0.0636 -0.3888
13257TIP3    H161262   1.532   0.816  13.809  0.6667  1.1557 -0.5627
13257TIP3    H261263   1.425   0.843  13.705  0.0419 -0.4132 -0.3688
13258TIP3   OH261264   6.542   0.477   1.821  0.0337  0.0996  0.0024
13258TIP3    H161265   6.463   0.439   1.860  0.2474 -1.0510 -0.6170
13258TIP3    H261266   6.612   0.416   1.845  0.8574  1.3702  0.9822
13259TIP3   OH261267   4.851   2.749  14.733  0.0971 -0.0725  0.1003
13259TIP3    H161268   4.842   2.680  14.799 -0.3097 -0.2508 -0.1367
13259TIP3    H261269   4.814   2.827  14.774  0.0047 -0.1415  0.1498
13260TIP3   OH261270   6.174   6.601   3.506  0.1866  0.4479  0.3178
13260TIP3    H161271   6.154   6.515   3.468  1.9536 -0.8794  2.1715
13260TIP3    H261272   6.103   6.658   3.476  1.3204 -0.3861 -4.8048
13261TIP3   OH261273   1.606   6.996  12.311 -0.0376 -0.0761  0.2232
13261TIP3    H161274   1.571   6.912  12.279  0.4032 -0.8948  1.7715
13261TIP3    H261275   1.529   7.050  12.327 -0.4019 -0.6287  0.3622
13262TIP3   OH261276   4.645   7.047   1.441  0.3149 -0.0026 -0.0949
13262TIP3    H161277   4.636   6.952   1.445  0.2269 -0.0194 -0.6670
13262TIP3    H261278   4.615   7.070   1.354  0.1078  0.5788  0.1268
13263TIP3   OH261279   2.401   4.365  12.828  0.5929 -0.2134  0.0981
13263TIP3    H161280   2.362   4.385  12.913 -0.0924  0.0588 -0.2819
13263TIP3    H261281   2.495   4.363  12.846  0.5241  0.8083  0.6683
13264TIP3   OH261282   0.557   6.619  15.120  0.4238 -0.1790  0.2593
13264TIP3    H161283   0.576   6.583  15.033  0.5976 -0.3137  0.3507
13264TIP3    H261284   0.485   6.565  15.154  0.9588 -0.7178  0.5647
13265TIP3   OH261285   4.753   2.566   1.499 -0.1825 -0.4755 -0.1025
13265TIP3    H161286   4.791   2.512   1.430 -0.8071  0.8331 -1.5372
13265TIP3    H261287   4.658   2.558   1.486 -0.2822  0.8445 -0.2746
13266TIP3   OH261288   7.049   3.750  14.151 -0.0883  0.6812  0.7629
13266TIP3    H161289   7.136   3.780  14.126  0.6736 -1.8578  0.0979
13266TIP3    H261290   6.990   3.799  14.094  1.2355 -0.7715 -2.0431
13267TIP3   OH261291   2.406   5.489   9.982 -0.8181  0.6128  0.1523
13267TIP3    H161292   2.440   5.478   9.893 -0.1581  0.3203  0.4364
13267TIP3    H261293   2.454   5.425  10.035 -2.1624 -0.1561  0.4822
13268TIP3   OH261294   1.014   6.925  12.101 -0.1849 -0.2867 -0.0518
13268TIP3    H161295   1.102   6.888  12.098 -0.1534 -0.2941  0.7830
13268TIP3    H261296   0.977   6.892  12.183 -0.9901 -0.3345 -0.4275
13269TIP3   OH261297   1.913   3.520  12.922 -0.0380 -0.6269 -0.1323
13269TIP3    H161298   1.961   3.441  12.896  0.4892 -1.4398  2.9843
13269TIP3    H261299   1.848   3.489  12.986 -1.4835  1.1712 -0.6454
13270TIP3   OH261300   3.531   3.856   0.922  0.3714  0.1661 -0.1087
13270TIP3    H161301   3.456   3.887   0.872 -0.9734 -2.1726  0.3018
13270TIP3    H261302   3.512   3.882   1.012  0.2881 -0.0079 -0.0758
13271TIP3   OH261303   6.752   4.928   1.316 -0.0516 -0.2768  0.6614
13271TIP3    H161304   6.807   4.860   1.354 -1.0533 -1.5008  0.0154
13271TIP3    H261305   6.717   4.889   1.236 -0.4234  1.1191  0.1110
13272TIP3   OH261306   2.864   3.432  13.638 -0.3490  0.0304 -0.0056
13272TIP3    H161307   2.879   3.340  13.659  0.2697 -0.4351 -2.1791
13272TIP3    H261308   2.770   3.438  13.620 -0.1316 -0.6256 -1.5598
13273TIP3   OH261309   1.931   1.559  14.739  0.1863  0.3480 -0.7341
13273TIP3    H161310   1.843   1.588  14.765  0.8887  1.2940  0.7151
13273TIP3    H261311   1.959   1.622  14.673 -0.7187 -0.7458 -2.2229
13274TIP3   OH261312   3.465   3.942   9.939  0.2882  0.1718  0.1690
13274TIP3    H161313   3.434   4.033   9.936  0.1924  0.1215 -1.3219
13274TIP3    H261314   3.558   3.948   9.920  0.1081 -0.0896 -0.8753
13275TIP3   OH261315   0.838   0.625  14.459  0.1761 -0.0476  0.0673
13275TIP3    H161316   0.869   0.702  14.411 -1.5584  0.4643 -0.2859
13275TIP3    H261317   0.856   0.552  14.400 -1.6873  0.5423 -1.3510
13276TIP3   OH261318   6.311   3.768  11.655  0.2559 -0.3160 -0.0683
13276TIP3    H161319   6.328   3.745  11.747 -0.1697 -0.2720  0.0227
13276TIP3    H261320   6.281   3.859  11.659  0.4068 -0.2560 -0.2725
13277TIP3   OH261321   6.833   3.818   6.044 -0.0158  0.3041 -0.0127
13277TIP3    H161322   6.842   3.723   6.044  0.1471  0.2692  1.9257
13277TIP3    H261323   6.923   3.850   6.044 -0.0075  0.3689  1.5096
13278TIP3   OH261324   6.965   4.891   4.173 -0.4510 -0.5037 -0.7139
13278TIP3    H161325   6.962   4.796   4.164 -1.4486 -0.4499 -1.0724
13278TIP3    H261326   6.939   4.908   4.264  1.6417 -0.6407 -0.0241
13279TIP3   OH261327   1.501   2.805   2.430 -0.7830  0.4678  0.0881
13279TIP3    H161328   1.441   2.775   2.362  0.8721 -0.2388 -1.1253
13279TIP3    H261329   1.457   2.880   2.470 -1.4314  1.4810 -2.3647
13280TIP3   OH261330   7.239   0.269   2.252 -0.3853  0.6493 -0.1814
13280TIP3    H161331   7.162   0.293   2.303 -0.3587 -0.0449  0.1904
13280TIP3    H261332   7.207   0.208   2.186 -0.5266  1.9761 -1.3942
13281TIP3   OH261333   6.291   1.796   4.301  0.0247 -0.3388  0.2073
13281TIP3    H161334   6.261   1.875   4.257  0.4430  0.5905  1.5176
13281TIP3    H261335   6.215   1.767   4.353  0.1176 -0.3397  0.3437
13282TIP3   OH261336   2.487   6.189   5.581 -0.0772 -0.0079  0.2078
13282TIP3    H161337   2.444   6.104   5.595  1.2459 -0.7325  0.0550
13282TIP3    H261338   2.420   6.254   5.603 -1.3589 -1.0824 -0.4123
13283TIP3   OH261339   3.901   4.769  13.517 -0.0557 -0.5559  0.2607
13283TIP3    H161340   3.929   4.760  13.425  0.5383  0.9225  0.2664
13283TIP3    H261341   3.886   4.679  13.546 -0.4679 -1.0495 -1.3489
13284TIP3   OH261342   1.493   1.189  12.855  0.0048  0.6591  0.7683
13284TIP3    H161343   1.481   1.229  12.769  2.0726  0.1317  0.1755
13284TIP3    H261344   1.410   1.205  12.901 -1.5476  0.0689 -1.6482
13285TIP3   OH261345   6.481   6.116  13.371  0.0697 -0.3723 -0.0584
13285TIP3    H161346   6.521   6.039  13.412  0.9152  1.8619  3.7431
13285TIP3    H261347   6.556   6.171  13.346 -0.4927  1.1101  1.3764
13286TIP3   OH261348   2.620   0.450   4.639 -0.2092  0.1802  0.0720
13286TIP3    H161349   2.658   0.415   4.719 -0.4269 -0.7701 -0.2297
13286TIP3    H261350   2.581   0.533   4.665  0.3508  0.2274  0.7898
13287TIP3   OH261351   4.755   4.629   3.064  0.3776 -0.5407 -0.0458
13287TIP3    H161352   4.719   4.579   3.137 -0.7747 -2.5354 -1.8541
13287TIP3    H261353   4.701   4.604   2.989  1.7752  1.0725 -1.6914
13288TIP3   OH261354   6.391   2.320  15.056  0.3458  0.0948 -1.1283
13288TIP3    H161355   6.336   2.324  15.135  0.7339  0.8231 -0.8915
13288TIP3    H261356   6.386   2.407  15.018  0.9451  0.0250 -1.3796
13289TIP3   OH261357   0.394   4.321   3.017  0.0032  0.1644 -0.0490
13289TIP3    H161358   0.386   4.403   2.969 -0.7153  0.0521 -0.1278
13289TIP3    H261359   0.428   4.259   2.953  0.1065  0.2852 -0.1125
13290TIP3   OH261360   4.964   4.208   1.255 -0.2064  0.2872  0.3789
13290TIP3    H161361   5.018   4.263   1.198 -0.2890 -0.6183 -0.6142
13290TIP3    H261362   4.875   4.243   1.245  0.2155  2.2056  2.5332
13291TIP3   OH261363   4.516   6.779   0.545  0.0411 -0.3608  0.4371
13291TIP3    H161364   4.559   6.791   0.461  0.8160 -0.1698  0.8580
13291TIP3    H261365   4.585   6.750   0.604 -0.8129 -2.2812  0.6067
13292TIP3   OH261366   2.846   0.908  11.518  0.3648 -0.3071 -0.4438
13292TIP3    H161367   2.755   0.935  11.532  0.4292 -1.2084  2.5209
13292TIP3    H261368   2.841   0.837  11.454 -1.1477 -0.8938  0.2708
13293TIP3   OH261369   5.008   3.275   2.814 -0.5060 -0.1772  0.3531
13293TIP3    H161370   5.068   3.282   2.740  0.4877 -0.3924  1.1087
13293TIP3    H261371   4.973   3.364   2.825  2.7473  1.0866  2.3248
13294TIP3   OH261372   2.560   5.263  14.489  0.1142  0.0133  0.0955
13294TIP3    H161373   2.502   5.337  14.472  0.4107  0.4497  0.9122
13294TIP3    H261374   2.514   5.187  14.455  0.0235  0.6353 -1.2112
13295TIP3   OH261375   0.906   2.816   3.354  0.0153 -0.2363  0.1214
13295TIP3    H161376   0.881   2.738   3.403 -1.1271 -0.4112 -0.7057
13295TIP3    H261377   0.868   2.889   3.404 -1.0493 -0.4049 -0.4293
13296TIP3   OH261378   5.076   6.920   2.587 -0.0490  0.0618 -0.2151
13296TIP3    H161379   5.060   6.937   2.680  0.7425  1.3017 -0.2837
13296TIP3    H261380   5.169   6.899   2.582 -0.0012  0.3888 -0.7756
13297TIP3   OH261381   4.261   0.127  13.136 -0.0352 -0.1165 -0.4719
13297TIP3    H161382   4.354   0.103  13.140 -0.3801 -1.6951 -1.1842
13297TIP3    H261383   4.215   0.043  13.134 -1.4669  0.6457 -0.6464
13298TIP3   OH261384   3.027   5.832  12.031 -0.2086  0.4912  0.4791
13298TIP3    H161385   3.117   5.824  12.061 -0.2045  0.8778  0.5708
13298TIP3    H261386   2.983   5.754  12.065  0.0760  0.3330  0.4853
13299TIP3   OH261387   7.087   6.773   2.848 -0.1113  0.3910 -0.1126
13299TIP3    H161388   7.054   6.822   2.923  0.4301 -0.6668  0.8546
13299TIP3    H261389   7.172   6.812   2.829  0.7225 -0.6568  1.2160
13300TIP3   OH261390   5.489   1.031  11.830  0.6769  0.0939  0.3840
13300TIP3    H161391   5.465   1.026  11.738 -0.9729 -1.1911  0.8449
13300TIP3    H261392   5.477   1.123  11.853  0.1680  0.2392 -0.4356
13301TIP3   OH261393   2.469   1.951   4.869  0.8042 -0.3401  0.0338
13301TIP3    H161394   2.508   2.033   4.839  0.2626 -0.4817 -1.1006
13301TIP3    H261395   2.399   1.933   4.806 -1.9400  0.5301  2.6141
13302TIP3   OH261396   3.501   5.982   0.647  0.4778 -0.0980 -0.2415
13302TIP3    H161397   3.451   5.931   0.710  1.4639  0.4315  1.0206
13302TIP3    H261398   3.439   6.002   0.577 -0.0546 -2.6559 -0.6200
13303TIP3   OH261399   5.311   1.410  13.815 -0.0377 -0.1365 -0.3971
13303TIP3    H161400   5.358   1.487  13.847  0.7930 -0.9078  0.2988
13303TIP3    H261401   5.264   1.441  13.737 -1.0270  1.4489  0.7854
13304TIP3   OH261402   3.137   6.996   0.821 -0.3409 -0.1019  0.0531
13304TIP3    H161403   3.141   6.902   0.837 -0.2271 -0.6772 -2.7999
13304TIP3    H261404   3.218   7.017   0.775 -1.4947  0.8200 -1.6946
13305TIP3   OH261405   2.018   4.168   0.273  0.1922 -0.4687  0.3817
13305TIP3    H161406   2.065   4.118   0.206 -0.6093  1.2495 -1.5829
13305TIP3    H261407   2.081   4.236   0.300  0.9490 -1.8416  2.3705
13306TIP3   OH261408   2.865   0.877  13.030  0.1463  0.0155  0.0035
13306TIP3    H161409   2.885   0.947  13.093  0.9348  0.4289 -0.6817
13306TIP3    H261410   2.895   0.797  13.073  0.1601  0.2269  0.3905
13307TIP3   OH261411   6.524   7.001   9.905 -0.4063  0.3414 -0.1962
13307TIP3    H161412   6.550   6.940   9.973 -1.1799 -0.8997 -0.9663
13307TIP3    H261413   6.542   6.955   9.823  2.7603  2.6896 -1.0021
13308TIP3   OH261414   2.081   3.542  13.570 -0.0872  0.1589 -0.2476
13308TIP3    H161415   2.113   3.458  13.603  0.6243 -0.1346 -1.5955
13308TIP3    H261416   2.011   3.566  13.630 -0.0641 -1.2208  0.3789
13309TIP3   OH261417   1.197   6.171  15.036  0.2485 -0.7328  0.1358
13309TIP3    H161418   1.250   6.209  15.106 -0.8671  1.1344  0.0384
13309TIP3    H261419   1.260   6.128  14.978  1.4328 -0.2842  1.0602
13310TIP3   OH261420   0.575   2.681   2.962  0.1053 -0.0363  0.2764
13310TIP3    H161421   0.637   2.754   2.971  0.1840 -0.1814  0.9399
13310TIP3    H261422   0.621   2.606   3.000 -0.9522  0.1166  1.9302
13311TIP3   OH261423   0.498   4.422   1.970  0.0553  0.1582 -0.5041
13311TIP3    H161424   0.441   4.495   1.993  1.9602  1.2878  1.0004
13311TIP3    H261425   0.457   4.345   2.010  0.1499  1.1328  1.5653
13312TIP3   OH261426   1.320   1.990  12.501  0.1450  0.1235 -0.1774
13312TIP3    H161427   1.415   1.983  12.507  0.2294  1.3931  0.2677
13312TIP3    H261428   1.294   2.042  12.577 -1.1642 -1.9866  0.9226
13313TIP3   OH261429   1.451   2.113   4.711 -0.4929 -0.1204  0.2121
13313TIP3    H161430   1.408   2.155   4.636  0.9508 -1.0420 -1.1801
13313TIP3    H261431   1.381   2.062   4.752 -1.2169 -0.0033 -0.8177
13314TIP3   OH261432   0.003   4.253   3.855 -0.2946 -0.3360 -0.0424
13314TIP3    H161433  -0.013   4.292   3.941  3.6018 -1.3864  1.4125
13314TIP3    H261434   0.001   4.326   3.794  0.6695  1.1659  1.6205
13315TIP3   OH261435   4.676   5.193  13.814 -0.2572 -0.6432  0.0075
13315TIP3    H161436   4.771   5.209  13.808 -0.4194  0.3441 -0.1386
13315TIP3    H261437   4.664   5.156  13.902  0.2418 -0.5771  0.1114
13316TIP3   OH261438   6.513   0.820   2.634  0.2884 -0.2147 -0.3416
13316TIP3    H161439   6.597   0.861   2.656 -0.5080  0.0425  2.6179
13316TIP3    H261440   6.474   0.879   2.569  1.6439  0.5468 -0.5074
13317TIP3   OH261441   2.754   6.163  12.669  0.4160  0.1059  0.4594
13317TIP3    H161442   2.779   6.095  12.731 -0.1044  0.0634  0.6249
13317TIP3    H261443   2.794   6.243  12.703  1.0023 -0.1037  0.2815
13318TIP3   OH261444   3.158   3.716   3.410 -0.6113 -0.3052  0.6838
13318TIP3    H161445   3.247   3.695   3.383 -0.7363  1.5251 -1.4347
13318TIP3    H261446   3.169   3.788   3.473 -0.5270 -1.8391  2.5034
13319TIP3   OH261447   0.725   2.491  13.992 -0.5060 -0.0994  0.0965
13319TIP3    H161448   0.691   2.485  13.902  1.0645  1.3595 -0.6590
13319TIP3    H261449   0.662   2.546  14.038 -0.5793  0.3311 -0.5140
13320TIP3   OH261450   0.856   7.226  12.520  0.0646 -0.5858  0.4190
13320TIP3    H161451   0.871   7.295  12.455  1.2477 -0.4292  0.8319
13320TIP3    H261452   0.790   7.263  12.579  0.4204  0.0472  0.4291
13321TIP3   OH261453   5.386   2.417  10.086  0.3785  0.0542  0.7259
13321TIP3    H161454   5.384   2.478  10.012  0.8870 -0.5826  0.1717
13321TIP3    H261455   5.301   2.428  10.129  0.5182  1.2637  0.7415
13322TIP3   OH261456   6.000   4.722   2.461  0.5192 -0.0587 -0.2902
13322TIP3    H161457   6.040   4.686   2.540 -1.3053  0.1928  0.8316
13322TIP3    H261458   5.927   4.775   2.494 -2.2977 -2.4156 -2.1731
13323TIP3   OH261459   2.417   4.530   2.133  0.1834 -0.1476  0.0731
13323TIP3    H161460   2.356   4.473   2.087 -0.8903  1.0197 -0.0331
13323TIP3    H261461   2.437   4.600   2.070 -1.6537  1.7168  1.3991
13324TIP3   OH261462   0.852   3.801   4.493  0.4909 -0.3530  0.4881
13324TIP3    H161463   0.822   3.713   4.518  0.3526 -0.1915  0.8911
13324TIP3    H261464   0.919   3.785   4.427  0.0239 -0.7432  0.0945
13325TIP3   OH261465   6.842   1.407  12.790  0.4038 -0.2453  0.0510
13325TIP3    H161466   6.812   1.320  12.815  0.5431  0.1385  1.6731
13325TIP3    H261467   6.931   1.394  12.758 -0.2430 -0.9351 -1.5380
13326TIP3   OH261468   1.661   6.264   3.453  0.1889 -0.1025  0.4053
13326TIP3    H161469   1.660   6.203   3.527  1.8836 -1.3244 -0.5194
13326TIP3    H261470   1.644   6.209   3.376 -0.3867  0.9552 -0.2512
13327TIP3   OH261471   4.223   4.761   9.879 -0.4799 -0.1398  0.0719
13327TIP3    H161472   4.274   4.820   9.822 -0.8278 -0.0955 -0.1939
13327TIP3    H261473   4.139   4.752   9.835 -0.7321 -0.1502  0.5546
13328TIP3   OH261474   0.507   2.169   0.871 -0.3213 -0.2514  0.8357
13328TIP3    H161475   0.468   2.254   0.853  2.6591  1.8449  3.1679
13328TIP3    H261476   0.571   2.187   0.940 -0.8814 -4.7687  2.8647
13329TIP3   OH261477   2.867   4.429   1.075  0.3193 -0.1416 -0.6584
13329TIP3    H161478   2.773   4.411   1.079 -0.0282  1.5660 -0.1427
13329TIP3    H261479   2.908   4.357   1.122 -0.8429 -0.2949  0.1478
13330TIP3   OH261480   6.064   1.380   4.761  0.2739  0.0172  0.2946
13330TIP3    H161481   6.149   1.402   4.721 -0.3093  1.3501 -0.2868
13330TIP3    H261482   6.005   1.449   4.729 -1.3579 -1.6530 -0.4361
13331TIP3   OH261483   1.740   4.540   1.669 -0.1418 -0.0316 -0.7979
13331TIP3    H161484   1.676   4.545   1.598 -0.8259  3.1907 -0.1312
13331TIP3    H261485   1.694   4.497   1.741 -0.4044 -0.7403 -1.3858
13332TIP3   OH261486   3.699   1.099  11.005  0.2182  0.0070  0.1063
13332TIP3    H161487   3.757   1.029  11.035 -1.8049 -0.5333  3.2297
13332TIP3    H261488   3.712   1.170  11.068 -1.7282  0.2524  0.3002
13333TIP3   OH261489   3.735   3.832   3.636  0.2395  0.4978 -0.4208
13333TIP3    H161490   3.643   3.854   3.619 -0.8897 -1.2142  2.6289
13333TIP3    H261491   3.772   3.815   3.549 -2.4227  0.8591 -1.7272
13334TIP3   OH261492   3.601   5.936   1.460 -0.1403  0.6602  0.1275
13334TIP3    H161493   3.626   5.922   1.551 -0.5167 -1.0363  0.0019
13334TIP3    H261494   3.601   6.032   1.449  2.3860  0.8685  1.1908
13335TIP3   OH261495   5.615   1.927   0.829 -0.1769 -0.0288 -0.1924
13335TIP3    H161496   5.546   1.963   0.885  0.6164 -0.2745  0.9886
13335TIP3    H261497   5.635   1.842   0.868  1.8890  0.7131  0.5082
13336TIP3   OH261498   4.557   1.830   4.999 -0.5672  0.2290 -0.7264
13336TIP3    H161499   4.517   1.761   4.946 -1.0885 -0.7273  0.8374
13336TIP3    H261500   4.650   1.823   4.982 -0.6936 -0.3068 -1.2204
13337TIP3   OH261501   2.225   4.039   4.539 -0.3700  0.4153  0.0283
13337TIP3    H161502   2.152   4.039   4.600  0.3226  1.1630  0.8978
13337TIP3    H261503   2.189   4.075   4.458 -1.0751  0.3254  0.2942
13338TIP3   OH261504   1.250   2.371  12.862 -0.4921 -0.4202 -0.1167
13338TIP3    H161505   1.332   2.400  12.902 -1.0813  0.3016  0.5840
13338TIP3    H261506   1.215   2.449  12.819 -0.5573 -0.8586 -0.8923
13339TIP3   OH261507   3.646   0.339   3.786  0.3779  0.2991 -0.0600
13339TIP3    H161508   3.708   0.326   3.714  1.1410 -1.3857  0.8565
13339TIP3    H261509   3.609   0.252   3.802  0.1945  0.6469  1.5492
13340TIP3   OH261510   5.300   5.067  10.264 -0.5075  0.4162  0.9340
13340TIP3    H161511   5.358   4.992  10.276 -0.9763  0.1243  1.4067
13340TIP3    H261512   5.338   5.136  10.319 -0.3646  0.3612  0.9037
13341TIP3   OH261513   4.835   2.580   4.682 -0.0308 -0.0943  0.5705
13341TIP3    H161514   4.906   2.516   4.678 -0.2821 -0.3147 -2.1201
13341TIP3    H261515   4.756   2.527   4.695  0.0827  0.0323  1.9981
13342TIP3   OH261516   2.789   3.123   9.693 -0.1797 -0.4821  0.3656
13342TIP3    H161517   2.841   3.159   9.621 -2.2090  1.0557 -0.4282
13342TIP3    H261518   2.748   3.045   9.655 -0.3174 -0.3492  0.2409
13343TIP3   OH261519   0.811   6.658   4.852 -0.2426  0.0506  0.5454
13343TIP3    H161520   0.730   6.637   4.899 -0.7007  0.8665  0.1587
13343TIP3    H261521   0.846   6.574   4.823 -0.8537 -0.3237  0.8862
13344TIP3   OH261522   5.186   5.658   1.528 -0.1700 -0.2066 -0.3524
13344TIP3    H161523   5.216   5.669   1.618 -1.0597  0.1165 -0.0824
13344TIP3    H261524   5.203   5.742   1.486  0.4304 -0.4211 -0.5511
13345TIP3   OH261525   5.388   5.818   0.792 -0.4344 -0.1430 -0.1197
13345TIP3    H161526   5.479   5.790   0.798 -0.2558  0.5104  0.3159
13345TIP3    H261527   5.352   5.769   0.718  1.4923  2.9668 -3.4080
13346TIP3   OH261528   5.731   1.176  15.110 -0.1256  0.5442 -0.3610
13346TIP3    H161529   5.705   1.267  15.092 -3.2932 -0.6033 -2.4453
13346TIP3    H261530   5.787   1.152  15.037  1.2618  0.9402  0.5324
13347TIP3   OH261531   3.235   7.012   2.802 -0.1914  0.2395  0.4210
13347TIP3    H161532   3.296   7.069   2.755 -0.7159  1.0305  0.6796
13347TIP3    H261533   3.291   6.951   2.849  0.3937 -2.0242 -2.8293
13348TIP3   OH261534   1.188   4.181  14.851 -0.0179 -0.4718 -0.3647
13348TIP3    H161535   1.157   4.250  14.793  0.4234 -0.2989 -0.3949
13348TIP3    H261536   1.122   4.177  14.921  0.4133  0.5849  0.1091
13349TIP3   OH261537   5.257   4.773   0.867 -0.0639 -0.4987  0.0808
13349TIP3    H161538   5.272   4.787   0.774 -0.0597  0.5873  0.2348
13349TIP3    H261539   5.285   4.855   0.908 -2.1211 -0.1209  0.8208
13350TIP3   OH261540   3.551   5.810   0.280 -0.5031  0.6086 -0.4718
13350TIP3    H161541   3.466   5.775   0.308  0.4021 -1.6270 -0.2908
13350TIP3    H261542   3.529   5.874   0.212 -2.4223  1.8608  1.2211
13351TIP3   OH261543   2.948   6.936   0.517 -0.0340  1.1059  0.2331
13351TIP3    H161544   3.013   6.916   0.450 -1.3388 -0.9611 -0.5397
13351TIP3    H261545   2.973   6.881   0.591 -0.3853  0.9548  0.2437
13352TIP3   OH261546   7.233   3.752  11.209  0.7616  0.1421 -0.3309
13352TIP3    H161547   7.223   3.823  11.146 -0.3386  0.2929  0.0024
13352TIP3    H261548   7.313   3.706  11.180  0.7698  0.7342 -1.2996
13353TIP3   OH261549   1.201   6.264   0.439  0.3025  1.0395  0.1056
13353TIP3    H161550   1.227   6.346   0.397  2.5525  0.1240 -0.4178
13353TIP3    H261551   1.276   6.206   0.428 -0.3895 -0.4204  2.3363
13354TIP3   OH261552   4.540   2.163  13.377 -0.1177  0.0113 -0.5785
13354TIP3    H161553   4.476   2.218  13.332 -1.0524 -0.4711  0.1092
13354TIP3    H261554   4.613   2.222  13.397 -1.4910  1.3044  1.0108
13355TIP3   OH261555   1.927   6.882  15.286 -0.2134 -0.2003  0.2669
13355TIP3    H161556   1.846   6.863  15.333 -0.4644 -0.1132 -0.1252
13355TIP3    H261557   1.904   6.953  15.226 -0.2609 -1.2230 -0.9562
13356TIP3   OH261558   3.401   4.851   1.069 -0.0721  0.3176  0.1611
13356TIP3    H161559   3.469   4.842   1.135  0.6886  1.0418 -0.5023
13356TIP3    H261560   3.322   4.818   1.111  0.2009  1.5744  1.7355
13357TIP3   OH261561   3.055   4.434   4.945 -0.2729 -0.3027  0.1771
13357TIP3    H161562   3.000   4.361   4.918 -0.0872  0.0488 -1.1904
13357TIP3    H261563   3.107   4.399   5.018 -1.7602 -0.8498  1.0333
13358TIP3   OH261564   6.351   1.956   1.107 -0.5779  0.4074 -0.4326
13358TIP3    H161565   6.353   1.946   1.012 -1.2139  1.1309 -0.5365
13358TIP3    H261566   6.442   1.948   1.134 -0.4102  0.0602 -1.0908
13359TIP3   OH261567   3.481   0.451   2.050 -0.0029  0.1050  0.5065
13359TIP3    H161568   3.517   0.409   1.972  0.0534  0.1358  0.5156
13359TIP3    H261569   3.393   0.479   2.024  0.2140  0.5930  0.2839
13360TIP3   OH261570   0.042   2.481   2.283  0.0820 -0.3063 -0.2890
13360TIP3    H161571  -0.002   2.567   2.279  2.1877  0.8089 -0.9467
13360TIP3    H261572  -0.010   2.431   2.345 -3.0347  0.3419 -2.1388
13361TIP3   OH261573   2.390   3.943   3.006  0.2631 -0.0455 -0.5775
13361TIP3    H161574   2.333   4.006   3.051 -0.7398 -0.3694 -1.3444
13361TIP3    H261575   2.421   3.990   2.929  0.6499 -0.0307 -0.4127
13362TIP3   OH261576   1.319   0.162   2.089  0.2585 -0.1569 -0.0841
13362TIP3    H161577   1.250   0.132   2.030 -0.2723 -2.3642  1.5192
13362TIP3    H261578   1.321   0.257   2.078 -0.3628 -0.4046 -2.9619
13363TIP3   OH261579   4.219   0.359   1.005 -0.0854 -0.0943  0.3810
13363TIP3    H161580   4.222   0.294   0.935 -1.8256  0.6970 -0.4831
13363TIP3    H261581   4.223   0.444   0.960  0.0395  0.4265  1.3385
13364TIP3   OH261582   1.210   2.171   0.421  0.2970  0.1046 -0.3322
13364TIP3    H161583   1.183   2.119   0.497 -0.1134  0.5968 -0.1371
13364TIP3    H261584   1.131   2.180   0.369  1.1842 -2.9935 -2.5472
13365TIP3   OH261585   1.647   3.254   4.031 -0.7169  0.5420  0.6464
13365TIP3    H161586   1.615   3.214   3.950 -0.6943 -0.8619  1.3151
13365TIP3    H261587   1.689   3.335   4.002  0.1038 -0.3706 -0.8594
13366TIP3   OH261588   1.033   7.000  11.853 -0.1028 -0.2289 -0.1580
13366TIP3    H161589   1.026   6.978  11.946 -1.2470  0.4577 -0.0582
13366TIP3    H261590   0.966   6.946  11.811 -0.1708  0.0775 -0.4498
13367TIP3   OH261591   3.184   2.829   3.920 -0.0384 -0.8753 -0.2156
13367TIP3    H161592   3.161   2.772   3.993  1.1890  0.3571  1.1812
13367TIP3    H261593   3.103   2.875   3.899 -1.0728 -3.0487 -1.3993
13368TIP3   OH261594   3.972   2.511   0.762  0.9197 -0.0632  0.5558
13368TIP3    H161595   3.908   2.441   0.754  1.6674 -0.7756  0.7205
13368TIP3    H261596   4.056   2.470   0.742  1.3181  0.8896  0.1785
13369TIP3   OH261597   0.066   6.695   4.163  0.3203 -0.1213  0.2131
13369TIP3    H161598   0.013   6.716   4.239  1.2222  0.7052  0.6321
13369TIP3    H261599   0.120   6.621   4.191 -0.5497 -0.9453 -0.2042
13370TIP3   OH261600   2.543   3.937   2.355  0.4267  0.1080  0.1842
13370TIP3    H161601   2.471   3.991   2.323 -0.8108 -1.3169  0.4402
13370TIP3    H261602   2.606   3.935   2.282 -1.8601 -2.2548 -1.9602
13371TIP3   OH261603   1.275   0.842  11.712 -0.0392 -0.5901 -0.2270
13371TIP3    H161604   1.238   0.829  11.625 -1.3251  1.2465 -0.0333
13371TIP3    H261605   1.338   0.913  11.701  0.5324 -1.0217  0.1804
13372TIP3   OH261606   4.496   2.619  13.756 -0.0572 -0.0505  0.3100
13372TIP3    H161607   4.412   2.637  13.714  0.6439  0.3905 -0.9406
13372TIP3    H261608   4.477   2.622  13.850 -1.5781 -0.6588  0.0510
13373TIP3   OH261609   2.984   1.676   2.875  0.2930 -0.3547  0.3866
13373TIP3    H161610   2.982   1.754   2.931 -0.7098 -0.0792 -0.0140
13373TIP3    H261611   3.027   1.609   2.929  0.4973  0.2617  1.0048
13374TIP3   OH261612   0.630   6.882  15.298 -0.4717 -0.1217  0.1053
13374TIP3    H161613   0.563   6.918  15.240 -0.2428  1.4561  0.7791
13374TIP3    H261614   0.590   6.882  15.385 -0.1593 -0.6903  0.2535
13375TIP3   OH261615   2.700   6.521   3.403  0.0343  0.2544 -0.3119
13375TIP3    H161616   2.753   6.576   3.345  0.5451 -0.3987 -0.4801
13375TIP3    H261617   2.635   6.581   3.440  0.0481  0.8037 -1.1286
13376TIP3   OH261618   3.292   2.417   1.769  0.1305 -0.0061 -0.1662
13376TIP3    H161619   3.335   2.333   1.759  0.4083  0.0728  0.2947
13376TIP3    H261620   3.292   2.455   1.681  0.6522 -0.1786 -0.2460
13377TIP3   OH261621   7.218   2.249  13.940  0.3644  0.3451  0.0299
13377TIP3    H161622   7.139   2.198  13.921  1.0508 -1.1025  0.8915
13377TIP3    H261623   7.290   2.187  13.925  1.2134  1.0120  1.2738
13378TIP3   OH261624   0.845   4.612  14.458  0.2792  0.0469 -0.0415
13378TIP3    H161625   0.907   4.605  14.530  0.4605  0.0786 -0.1956
13378TIP3    H261626   0.831   4.522  14.430 -0.7160 -0.0906  0.8196
13379TIP3   OH261627   1.527   1.097  14.764  0.3063  0.3067  0.1614
13379TIP3    H161628   1.546   1.021  14.708 -0.4082 -0.1582  0.5225
13379TIP3    H261629   1.486   1.059  14.842 -0.0291  1.0663  0.3642
13380TIP3   OH261630   3.535   4.670   1.948  0.0563  0.3071  0.1408
13380TIP3    H161631   3.566   4.663   2.039  0.9771 -1.7385 -0.2584
13380TIP3    H261632   3.583   4.601   1.902 -0.7246  1.0187 -1.8226
13381TIP3   OH261633   4.877   3.673   1.758 -0.1849  0.2485 -0.4209
13381TIP3    H161634   4.924   3.747   1.718  1.3697 -0.2343  0.4294
13381TIP3    H261635   4.873   3.607   1.689 -1.3940  1.0234 -1.1202
13382TIP3   OH261636   6.185   6.557   4.509 -0.0982 -0.4325  0.2468
13382TIP3    H161637   6.219   6.484   4.457  0.2752  0.1027 -0.2669
13382TIP3    H261638   6.237   6.632   4.482 -0.1674 -0.0621  1.1091
13383TIP3   OH261639   5.087   4.490   3.599  0.0708 -0.5342 -0.2679
13383TIP3    H161640   5.173   4.530   3.612 -0.1821 -0.0977  0.0746
13383TIP3    H261641   5.083   4.419   3.663 -0.0399 -0.2013  0.0985
13384TIP3   OH261642   4.203   3.705   0.115 -0.5229 -0.5184  0.8644
13384TIP3    H161643   4.127   3.762   0.109 -0.6983 -0.9007 -1.7947
13384TIP3    H261644   4.167   3.616   0.114 -0.0666 -0.7023 -0.1859
13385TIP3   OH261645   4.106   1.002   3.399 -0.2565  0.0314  0.0252
13385TIP3    H161646   4.165   0.998   3.475 -0.5176  0.4906  0.2543
13385TIP3    H261647   4.164   0.992   3.323 -0.1546 -2.1620  0.3071
13386TIP3   OH261648   2.410   6.168   0.697 -0.0999  0.9241 -0.0666
13386TIP3    H161649   2.351   6.242   0.713  0.6865  1.3876  0.8138
13386TIP3    H261650   2.414   6.161   0.601  0.3966  2.5430 -0.1989
13387TIP3   OH261651   5.341   6.828   2.573  0.2294  0.2866  0.0141
13387TIP3    H161652   5.383   6.900   2.527 -0.0890  0.2179 -0.3994
13387TIP3    H261653   5.412   6.771   2.601  0.6245  1.6695  1.9389
13388TIP3   OH261654   3.896   6.055   1.030 -0.8838 -0.3838  0.0866
13388TIP3    H161655   3.807   6.025   1.010 -0.5654 -0.1110 -1.9266
13388TIP3    H261656   3.949   5.976   1.030 -1.3110 -0.7490  2.7868
13389TIP3   OH261657   1.251   1.769   0.592 -0.2773 -0.2534 -0.0233
13389TIP3    H161658   1.238   1.787   0.499 -1.3958  0.2828  0.2160
13389TIP3    H261659   1.310   1.693   0.594  1.3406  0.9152 -1.1172
13390TIP3   OH261660   5.820   1.599  13.224 -0.4566  0.1079 -0.4654
13390TIP3    H161661   5.752   1.596  13.292  1.0582  0.7713  1.1719
13390TIP3    H261662   5.863   1.684  13.237  0.4972 -0.1651 -1.6581
13391TIP3   OH261663   2.545   2.192   0.473 -0.3534 -0.0012 -0.0363
13391TIP3    H161664   2.589   2.136   0.537 -4.2259 -1.1566  1.9111
13391TIP3    H261665   2.557   2.147   0.389 -0.1485 -1.7076  0.8611
13392TIP3   OH261666   2.628   5.850   3.822 -0.0840  0.2569  0.0581
13392TIP3    H161667   2.658   5.892   3.903 -0.1975 -2.5551  1.6837
13392TIP3    H261668   2.678   5.894   3.753  4.4353 -0.9746  2.1787
13393TIP3   OH261669   4.249   4.228  11.672 -0.9368 -0.1251  0.1886
13393TIP3    H161670   4.260   4.294  11.740  1.9185  0.5339 -0.7889
13393TIP3    H261671   4.274   4.146  11.714  3.9363  0.6624 -0.5950
13394TIP3   OH261672   3.397   1.456  12.100 -0.2278 -0.0806 -0.1516
13394TIP3    H161673   3.476   1.483  12.054 -1.6987 -1.0039 -3.4952
13394TIP3    H261674   3.407   1.361  12.111 -0.7843 -0.1776 -0.4450
13395TIP3   OH261675   5.186   1.758   5.509 -0.4102  0.0261  0.5222
13395TIP3    H161676   5.274   1.774   5.474 -0.7418 -2.4041 -1.7807
13395TIP3    H261677   5.196   1.680   5.564 -1.0413  0.0453  0.6668
13396TIP3   OH261678   1.954   3.229   2.225  0.2712 -0.0174  0.4541
13396TIP3    H161679   1.906   3.148   2.241  0.6288 -0.3633 -0.1877
13396TIP3    H261680   1.941   3.248   2.132 -0.0072  0.8009  0.6457
13397TIP3   OH261681   3.599   3.115   3.829  0.1456 -0.1498  0.1743
13397TIP3    H161682   3.575   3.029   3.794  1.0291 -0.8885  1.2938
13397TIP3    H261683   3.617   3.098   3.922 -0.5387  1.4196  0.6266
13398TIP3   OH261684   5.924   3.725  13.675 -0.5222  0.2809  0.6043
13398TIP3    H161685   5.948   3.813  13.647 -1.4194  0.4320  0.2733
13398TIP3    H261686   5.943   3.724  13.769  2.1113 -0.0935  0.1302
13399TIP3   OH261687   2.082   3.270   3.097 -0.5534 -1.2716  0.4873
13399TIP3    H161688   2.098   3.260   3.003  2.0959 -0.4247  0.7515
13399TIP3    H261689   2.008   3.330   3.103  0.7357  0.5980 -1.1101
13400TIP3   OH261690   4.893   1.206   1.998 -0.3815 -0.3254  0.3930
13400TIP3    H161691   4.833   1.281   2.001  1.1248  0.8778  1.8358
13400TIP3    H261692   4.840   1.132   2.027 -1.6250  0.3502 -0.0674
13401TIP3   OH261693   4.752   2.395  12.675  0.3487 -0.3997 -0.0532
13401TIP3    H161694   4.776   2.448  12.751 -0.3073  2.0007 -1.4268
13401TIP3    H261695   4.833   2.353  12.648  1.2484  1.1222  0.1911
13402TIP3   OH261696   3.860   5.166   0.120 -0.1495  0.2646 -0.1252
13402TIP3    H161697   3.782   5.115   0.141 -0.0852  0.3682  0.3870
13402TIP3    H261698   3.890   5.130   0.037 -1.9001  1.5958 -1.3994
13403TIP3   OH261699   5.434   4.782   1.849 -0.8752  0.3781 -0.3043
13403TIP3    H161700   5.340   4.766   1.860 -1.5529  3.3120 -1.0028
13403TIP3    H261701   5.450   4.764   1.757 -0.4548 -1.1500  0.0345
13404TIP3   OH261702   1.180   0.858   0.171  0.2859  0.2338 -0.2950
13404TIP3    H161703   1.244   0.862   0.100  0.0947 -2.0001 -0.6813
13404TIP3    H261704   1.104   0.814   0.132  0.0315 -0.6914  1.1590
13405TIP3   OH261705   4.193   0.044   0.455 -0.5427  0.4276 -0.4128
13405TIP3    H161706   4.105   0.007   0.452 -0.0745 -0.9148  1.0016
13405TIP3    H261707   4.199   0.087   0.541  0.5560 -0.5779  0.0479
13406TIP3   OH261708   5.418   0.550  15.165 -0.1952 -0.1210  0.0974
13406TIP3    H161709   5.478   0.624  15.165 -0.1674 -0.0594 -2.3136
13406TIP3    H261710   5.442   0.499  15.088 -2.2452 -0.9039 -0.1044
13407TIP3   OH261711   5.129   4.769   0.522  0.1996  0.4122  0.5392
13407TIP3    H161712   5.191   4.830   0.562  0.5038  0.3920  0.0983
13407TIP3    H261713   5.074   4.824   0.466  1.0160  0.1658 -0.5147
13408TIP3   OH261714   0.722   5.038  11.967 -0.3307  1.0234  0.3004
13408TIP3    H161715   0.767   5.122  11.958 -0.6757  1.4765  2.3182
13408TIP3    H261716   0.664   5.050  12.042 -0.0171 -1.1792  0.9688
13409TIP3   OH261717   0.605   5.283  14.210  0.4445 -0.3019 -0.4273
13409TIP3    H161718   0.697   5.312  14.206 -0.1031  1.5637 -0.4868
13409TIP3    H261719   0.591   5.240  14.126  1.2267 -0.4694 -0.4870
13410TIP3   OH261720   5.464   5.202   9.871  0.5198  0.3129  0.1726
13410TIP3    H161721   5.518   5.163   9.940  1.4789  1.8864  0.3381
13410TIP3    H261722   5.395   5.249   9.919 -0.2660 -0.6124 -0.0157
13411TIP3   OH261723   0.265   4.440  13.232  0.4374  0.6286 -0.4401
13411TIP3    H161724   0.251   4.513  13.171  0.5052  0.3489 -0.7922
13411TIP3    H261725   0.198   4.453  13.299 -0.8992 -0.1147 -1.5654
13412TIP3   OH261726   1.405   3.297  13.753  0.5006  0.2277 -0.4130
13412TIP3    H161727   1.350   3.226  13.719  0.2410  0.6599 -0.9118
13412TIP3    H261728   1.381   3.373  13.700  0.6379  0.7358  0.2481
13413TIP3   OH261729   3.347   5.723  15.152  0.2455 -0.5515  0.5017
13413TIP3    H161730   3.269   5.757  15.196  0.2290 -0.5665  0.4843
13413TIP3    H261731   3.354   5.774  15.072  0.3878 -0.3891  0.6157
13414TIP3   OH261732   5.705   2.918   2.329  0.0189  0.3930 -0.1557
13414TIP3    H161733   5.744   2.946   2.246 -0.6414 -0.1471 -0.6528
13414TIP3    H261734   5.780   2.910   2.389  0.7726 -1.1740 -1.2465
13415TIP3   OH261735   1.057   1.141   4.411  0.0397  0.1354 -0.0199
13415TIP3    H161736   1.007   1.221   4.393  0.9980  0.4860 -1.2435
13415TIP3    H261737   1.004   1.071   4.373 -2.0570 -0.2446  3.1693
13416TIP3   OH261738   4.136   3.865  11.003 -0.2300 -0.1737  0.7400
13416TIP3    H161739   4.154   3.956  11.026  0.9169 -0.1016 -0.3250
13416TIP3    H261740   4.099   3.870  10.915  0.4263 -0.7583  0.4176
13417TIP3   OH261741   6.370   2.677  13.821  0.1837  0.4270 -0.3683
13417TIP3    H161742   6.417   2.619  13.761  0.9255  1.3844 -0.7272
13417TIP3    H261743   6.439   2.720  13.872 -0.2482  2.2342 -1.2463
13418TIP3   OH261744   0.001   5.750   9.471 -0.6144 -0.0553 -0.2149
13418TIP3    H161745  -0.066   5.744   9.540  0.2881  0.1567  0.6970
13418TIP3    H261746   0.044   5.665   9.473  1.3960  0.9060  1.5796
13419TIP3   OH261747   6.603   4.851   1.033  0.6898 -0.3967 -0.0631
13419TIP3    H161748   6.541   4.793   0.989 -1.1134  0.4977  1.1793
13419TIP3    H261749   6.625   4.917   0.968 -0.3877 -0.2154 -0.2564
13420TIP3   OH261750   0.192   3.232   3.657  0.1239  0.0238 -0.3605
13420TIP3    H161751   0.177   3.184   3.739 -0.0774  0.8921  0.1141
13420TIP3    H261752   0.283   3.260   3.661  1.2613 -2.9187 -2.0359
13421TIP3   OH261753   7.009   6.543  13.062 -1.2126  0.1625  0.1333
13421TIP3    H161754   7.049   6.457  13.048 -0.2475  0.7008 -0.5216
13421TIP3    H261755   6.917   6.530  13.037 -0.7810 -0.3561 -1.3141
13422TIP3   OH261756   4.018   2.710  12.121  0.6352  0.9923 -1.0595
13422TIP3    H161757   3.969   2.630  12.100 -0.3518  1.4296 -0.4983
13422TIP3    H261758   4.037   2.749  12.036  1.8436 -0.2295 -1.3875
13423TIP3   OH261759   1.324   6.165   4.199 -0.6602  0.1218 -0.0263
13423TIP3    H161760   1.239   6.206   4.216  0.0551  1.0586  1.3965
13423TIP3    H261761   1.386   6.211   4.255  0.7302 -0.8670 -0.6731
13424TIP3   OH261762   2.988   1.620   3.932 -0.0620  0.1058 -0.7018
13424TIP3    H161763   3.054   1.615   3.862 -0.0304 -0.3519 -0.6428
13424TIP3    H261764   2.987   1.532   3.970 -1.1529 -0.0723 -1.1100
13425TIP3   OH261765   0.506   1.336   5.114  0.0092  0.0118  0.5325
13425TIP3    H161766   0.458   1.257   5.088 -0.3689  0.5969 -0.6117
13425TIP3    H261767   0.582   1.303   5.163 -0.6502 -1.0056  0.9095
13426TIP3   OH261768   1.824   0.079   4.343  0.2216  0.2704 -0.1905
13426TIP3    H161769   1.807   0.137   4.418  0.0879  0.9357 -0.7279
13426TIP3    H261770   1.736   0.056   4.312  0.2477  1.6976 -1.4297
13427TIP3   OH261771   1.418   3.151   4.449  0.0915  0.0399 -0.3216
13427TIP3    H161772   1.439   3.155   4.356  0.6865  0.4814 -0.1788
13427TIP3    H261773   1.348   3.086   4.456  1.2689 -1.3335 -0.8558
13428TIP3   OH261774   0.971   2.231   1.969 -0.5353  0.4777  0.4856
13428TIP3    H161775   0.898   2.177   1.938  0.8856 -1.0644 -0.3023
13428TIP3    H261776   1.027   2.242   1.892 -0.4298  2.5420  0.8109
13429TIP3   OH261777   3.005   6.893  13.587  0.5739 -0.0760  0.5144
13429TIP3    H161778   3.090   6.850  13.583  0.6489  0.1344 -0.3168
13429TIP3    H261779   3.017   6.974  13.538 -0.6975 -1.0958 -1.5886
13430TIP3   OH261780   3.231   2.439   2.947 -0.0302  1.0154  0.6390
13430TIP3    H161781   3.309   2.394   2.915 -0.7735  0.5539 -0.5817
13430TIP3    H261782   3.234   2.426   3.042  1.2733  0.8603  0.5993
13431TIP3   OH261783   1.354   5.790  14.911 -0.0864  0.2167  0.5367
13431TIP3    H161784   1.365   5.717  14.972  1.5832  0.1063  0.1458
13431TIP3    H261785   1.325   5.862  14.966  2.3738  0.4077  1.7068
13432TIP3   OH261786   4.729   0.763   5.421  0.2384  0.1962 -0.0902
13432TIP3    H161787   4.644   0.755   5.465 -0.1185  0.8901 -0.6185
13432TIP3    H261788   4.780   0.688   5.452 -0.5237 -0.1567  0.3357
13433TIP3   OH261789   6.061   4.867   1.719 -0.2444  0.2159 -0.2555
13433TIP3    H161790   6.039   4.884   1.627  0.6914  0.4709 -0.4457
13433TIP3    H261791   6.020   4.939   1.767 -0.8131  0.0318 -0.4589
13434TIP3   OH261792   6.888   5.055  15.071 -0.0707 -0.4346  0.5988
13434TIP3    H161793   6.955   4.989  15.089  0.8685  0.1621 -0.5132
13434TIP3    H261794   6.934   5.139  15.077  0.5301 -0.0826 -4.2891
13435TIP3   OH261795   3.740   0.846  10.313  0.0584 -0.2347  0.7010
13435TIP3    H161796   3.724   0.858  10.219  2.0719 -0.6250  0.2591
13435TIP3    H261797   3.795   0.921  10.338  0.4759 -0.7313  1.2997
13436TIP3   OH261798   0.645   1.584   0.400  0.0553 -0.1690  0.1142
13436TIP3    H161799   0.682   1.498   0.419 -2.1925 -1.0198  0.9095
13436TIP3    H261800   0.641   1.628   0.485 -1.5163 -0.4497  0.2172
13437TIP3   OH261801   6.426   6.713   4.095 -0.4029  0.1893 -0.0403
13437TIP3    H161802   6.411   6.638   4.152 -2.2805  0.1138 -0.5754
13437TIP3    H261803   6.458   6.675   4.013 -0.1988  0.0826  0.0874
13438TIP3   OH261804   2.929   5.977   3.594  0.2346  0.3493 -1.2122
13438TIP3    H161805   2.919   5.944   3.505 -1.1632  1.6160 -1.5578
13438TIP3    H261806   2.844   6.015   3.616  0.9560  1.2887  0.1466
13439TIP3   OH261807   5.035   4.329   3.332 -0.6402  0.4615 -0.1854
13439TIP3    H161808   5.058   4.245   3.371  0.5668  0.4764 -0.8078
13439TIP3    H261809   5.044   4.392   3.403  0.8633  0.3933 -0.2748
13440TIP3   OH261810   0.588   6.604   4.004 -0.7236  0.0735 -0.1887
13440TIP3    H161811   0.614   6.685   3.960  0.0362  0.8773  1.6659
13440TIP3    H261812   0.586   6.626   4.097  1.8596 -2.5984  0.6707
13441TIP3   OH261813   1.356   5.358  12.908 -0.1119 -0.0290  0.5483
13441TIP3    H161814   1.372   5.324  12.820 -0.6868  0.6208  0.1781
13441TIP3    H261815   1.416   5.431  12.917  0.5404 -0.6084  1.0273
13442TIP3   OH261816   0.530   5.761   2.223 -0.1767 -0.0896  0.6707
13442TIP3    H161817   0.571   5.819   2.159 -2.6070  0.2585 -0.7077
13442TIP3    H261818   0.486   5.820   2.284 -0.8031 -0.4407  0.5676
13443TIP3   OH261819   5.143   1.504   1.481  0.1657  0.0514  0.3235
13443TIP3    H161820   5.198   1.458   1.544  1.2906  1.0644  0.1236
13443TIP3    H261821   5.202   1.566   1.438 -1.4218  2.3750  1.2607
13444TIP3   OH261822   6.207   3.193  11.002  0.0484  0.5600  0.3854
13444TIP3    H161823   6.138   3.258  10.988 -0.0403  0.3265 -0.2881
13444TIP3    H261824   6.288   3.245  11.006 -0.1074  0.7840  0.6575
13445TIP3   OH261825   6.293   6.477   1.590 -0.3104  0.0105  0.2101
13445TIP3    H161826   6.345   6.542   1.637 -1.4098  2.5472 -1.8207
13445TIP3    H261827   6.240   6.434   1.658 -0.8142  2.4798  1.4789
13446TIP3   OH261828   2.416   5.894   0.715 -0.2534  0.5431 -0.4640
13446TIP3    H161829   2.414   5.989   0.707  1.1405  0.4797 -1.9620
13446TIP3    H261830   2.508   5.871   0.702 -0.1281 -0.8568  2.1876
13447TIP3   OH261831   3.967   3.162   2.773 -0.1088 -0.8495 -0.3207
13447TIP3    H161832   3.989   3.083   2.823  0.7983 -1.7346 -2.0130
13447TIP3    H261833   4.031   3.227   2.802  0.0706 -1.1776  0.0327
13448TIP3   OH261834   6.402   1.731   4.557  0.5203 -0.5831 -0.2507
13448TIP3    H161835   6.481   1.780   4.577  0.3267 -0.4005  0.0671
13448TIP3    H261836   6.368   1.770   4.477  1.1303 -1.1186 -0.7857
13449TIP3   OH261837   1.564   2.613  13.070  0.2451 -0.4605 -0.3826
13449TIP3    H161838   1.468   2.615  13.069  0.2305 -1.0428 -0.2511
13449TIP3    H261839   1.589   2.650  12.985 -0.1340 -2.0110 -1.1962
13450TIP3   OH261840   1.413   3.182  14.192  0.0682 -0.4174  0.2233
13450TIP3    H161841   1.325   3.154  14.218  0.4500 -1.4528  0.4540
13450TIP3    H261842   1.461   3.100  14.179  1.0366  0.1395  0.2256
13451TIP3   OH261843   1.103   1.740   1.506 -0.1707  0.0224 -0.2158
13451TIP3    H161844   1.076   1.832   1.510  1.6231  0.6035  3.5352
13451TIP3    H261845   1.198   1.743   1.514  0.0556 -2.1618 -1.4493
13452TIP3   OH261846   3.853   0.165   0.029  0.2992  0.6947  0.4547
13452TIP3    H161847   3.784   0.099   0.022  1.1752 -0.3654  1.4601
13452TIP3    H261848   3.899   0.143   0.110  3.2108  0.0135 -1.2513
13453TIP3   OH261849   4.843   5.294   4.049  0.3817  0.0157 -0.4153
13453TIP3    H161850   4.779   5.353   4.011 -0.5856 -1.2244 -0.8041
13453TIP3    H261851   4.928   5.334   4.031 -0.0732 -0.0382 -3.0754
13454TIP3   OH261852   3.861   5.394   2.921 -0.3403 -0.4817 -0.2913
13454TIP3    H161853   3.894   5.480   2.946 -0.5221 -0.5884  0.3401
13454TIP3    H261854   3.938   5.348   2.887  0.1739 -0.7095  1.1044
13455TIP3   OH261855   5.346   6.167   0.512  0.2438 -0.5370 -0.1200
13455TIP3    H161856   5.381   6.190   0.598 -2.1040  0.6319  0.6067
13455TIP3    H261857   5.316   6.077   0.522 -0.4756 -0.2417  0.4680
13456TIP3   OH261858   2.605   6.411   0.725 -0.1043 -0.5909 -0.3264
13456TIP3    H161859   2.519   6.423   0.764  0.0781 -0.2647 -0.0187
13456TIP3    H261860   2.587   6.394   0.632 -0.5499 -1.6230 -0.0610
13457TIP3   OH261861   1.322   5.990  13.735 -0.2215  0.2938 -0.0241
13457TIP3    H161862   1.403   5.939  13.730 -0.0493  0.5540  0.1036
13457TIP3    H261863   1.346   6.076  13.699 -0.4215  0.3959  0.0874
13458TIP3   OH261864   7.051   3.660   0.147 -0.1161 -0.3763 -0.1444
13458TIP3    H161865   7.066   3.566   0.150  0.7335 -0.3032 -1.5143
13458TIP3    H261866   7.009   3.680   0.231  0.1132 -1.8906  0.3599
13459TIP3   OH261867   4.456   6.971   0.191 -0.1619  0.0698 -0.4634
13459TIP3    H161868   4.469   7.021   0.110  1.2761  0.2655 -0.1332
13459TIP3    H261869   4.443   7.038   0.258  4.1265  0.3011  0.4279
13460TIP3   OH261870   6.342   5.375  11.854 -0.0365 -0.8294 -0.3863
13460TIP3    H161871   6.325   5.427  11.933  2.2206 -3.1439  1.8098
13460TIP3    H261872   6.269   5.314  11.850 -1.0391  0.3805 -1.1317
13461TIP3   OH261873   0.657   0.765   2.238 -0.7850  0.0789 -0.3117
13461TIP3    H161874   0.727   0.821   2.205 -0.0686 -0.5353  0.1413
13461TIP3    H261875   0.618   0.727   2.160 -0.7544  0.5903 -0.5786
13462TIP3   OH261876   4.064   1.380   5.251 -0.9097  0.4188  0.7380
13462TIP3    H161877   4.082   1.422   5.336  1.0569  0.2069  0.4642
13462TIP3    H261878   4.128   1.309   5.245  0.9125  2.1015 -2.0849
13463TIP3   OH261879   3.087   2.584   1.875 -0.4721  0.3244  0.3665
13463TIP3    H161880   3.144   2.525   1.825 -0.8071 -0.1584  0.5447
13463TIP3    H261881   3.051   2.643   1.809 -2.0134 -1.1909 -0.2423
13464TIP3   OH261882   7.251   5.305  12.836 -0.2681 -0.0628 -0.3564
13464TIP3    H161883   7.258   5.362  12.912 -0.2907  1.1829 -1.2487
13464TIP3    H261884   7.270   5.217  12.869  1.8365  0.7256  0.6928
13465TIP3   OH261885   5.207   5.190  14.537  0.6716 -0.1395 -0.3178
13465TIP3    H161886   5.184   5.277  14.506  0.9802  1.0381  2.4500
13465TIP3    H261887   5.265   5.154  14.469  0.3243  1.6747 -1.6376
13466TIP3   OH261888   6.768   0.965   5.857  0.1095  0.4003  0.5617
13466TIP3    H161889   6.690   1.020   5.865 -0.1692  0.1346 -0.2237
13466TIP3    H261890   6.839   1.018   5.892 -0.0785  1.4245 -0.5577
13467TIP3   OH261891   2.874   1.583   4.845 -0.1812 -0.1914 -0.2959
13467TIP3    H161892   2.816   1.655   4.869  0.1360 -0.1260  0.2952
13467TIP3    H261893   2.853   1.514   4.908 -0.0350 -0.3787 -0.4533
13468TIP3   OH261894   4.206   0.149  14.460  0.2845  0.1575 -0.1106
13468TIP3    H161895   4.250   0.097  14.527 -2.1232  0.1615  1.5772
13468TIP3    H261896   4.137   0.091  14.426 -0.2535  1.0904 -0.6549
13469TIP3   OH261897   3.106   5.080  14.224 -0.4814 -0.3643  0.9917
13469TIP3    H161898   3.114   5.080  14.319 -0.5994 -0.5564  1.0010
13469TIP3    H261899   3.012   5.082  14.207 -0.5143  2.8931  0.8766
13470TIP3   OH261900   4.147   5.858  14.113  0.1337 -0.4564 -0.5006
13470TIP3    H161901   4.109   5.773  14.136  1.0101 -0.8632 -0.5238
13470TIP3    H261902   4.101   5.884  14.033 -1.7602  0.1848  0.7213
13471TIP3   OH261903   5.482   5.647  11.687 -0.4855 -0.4947 -0.5996
13471TIP3    H161904   5.387   5.640  11.691 -0.6260 -0.6019 -2.9887
13471TIP3    H261905   5.510   5.570  11.639  1.1009 -1.7085  2.0265
13472TIP3   OH261906   0.563   6.710  13.812 -0.2629 -0.1694  0.4279
13472TIP3    H161907   0.513   6.792  13.807 -1.3771 -0.8545 -0.1581
13472TIP3    H261908   0.576   6.685  13.720 -2.3985 -2.0609  0.5490
13473TIP3   OH261909   3.804   6.419  12.924  0.3066  0.9929 -0.0497
13473TIP3    H161910   3.723   6.451  12.964 -0.5934  0.1045 -1.0916
13473TIP3    H261911   3.775   6.372  12.846  1.7567 -0.1892  0.0751
13474TIP3   OH261912   3.477   1.200  13.008 -0.2359 -0.3903  0.5157
13474TIP3    H161913   3.430   1.121  13.035 -0.3902 -0.3772  0.2899
13474TIP3    H261914   3.570   1.178  13.018 -0.2800 -0.5783  0.5155
13475TIP3   OH261915   6.829   5.478   1.700  0.3317 -0.0130 -0.2089
13475TIP3    H161916   6.903   5.526   1.664  0.3905 -1.7402 -2.6164
13475TIP3    H261917   6.853   5.386   1.692 -2.4367 -0.7047 -2.1773
13476TIP3   OH261918   1.535   0.129   3.058 -0.1974  0.0077  0.4588
13476TIP3    H161919   1.494   0.199   3.008  0.2152 -0.7998 -1.0658
13476TIP3    H261920   1.503   0.048   3.017  0.6474 -0.6680  1.0908
13477TIP3   OH261921   4.445   6.726   3.449  0.8447 -0.1449  0.7563
13477TIP3    H161922   4.510   6.672   3.405  0.0065 -1.8451  1.5207
13477TIP3    H261923   4.370   6.668   3.464  0.3591  0.8658  2.6893
13478TIP3   OH261924   3.197   4.601   2.246  0.1581  0.3924  0.2000
13478TIP3    H161925   3.245   4.561   2.318  1.0662  0.4524 -0.3554
13478TIP3    H261926   3.137   4.662   2.288  0.4964  0.2414  0.9150
13479TIP3   OH261927   5.294   1.473  14.994 -0.0590 -0.2420  0.5437
13479TIP3    H161928   5.320   1.492  15.084 -0.5698  0.9789  0.4515
13479TIP3    H261929   5.234   1.544  14.971  1.6457  0.6742 -1.4471
13480TIP3   OH261930   6.956   5.946   0.595 -0.3473 -0.2961 -0.1243
13480TIP3    H161931   6.993   6.034   0.590  0.7720 -0.6753  1.0373
13480TIP3    H261932   7.018   5.890   0.548 -1.0138 -0.4832 -0.7961
13481TIP3   OH261933   5.109   3.658   0.423  0.7319 -0.2944  0.1529
13481TIP3    H161934   5.102   3.753   0.431  0.4611 -0.4066  1.5356
13481TIP3    H261935   5.193   3.636   0.462  1.9891 -0.4237 -2.4492
13482TIP3   OH261936   3.797   1.918   1.865 -0.6106 -0.7086  0.5624
13482TIP3    H161937   3.780   2.008   1.837 -0.2152 -0.6727  0.4307
13482TIP3    H261938   3.799   1.922   1.960  3.2681  0.1857  0.5901
13483TIP3   OH261939   1.875   3.745   0.362  0.6101 -0.0334 -0.1917
13483TIP3    H161940   1.796   3.709   0.402  1.4022 -3.6696 -1.4187
13483TIP3    H261941   1.865   3.727   0.268  2.0600  1.1869 -0.6256
13484TIP3   OH261942   6.232   1.296  11.276 -0.1140  0.0514 -0.9334
13484TIP3    H161943   6.150   1.295  11.324 -0.2266  1.9206 -1.0167
13484TIP3    H261944   6.211   1.259  11.190 -0.7471  0.0495 -0.7787
13485TIP3   OH261945   2.922   3.693  12.503  0.8539  0.2580  1.0445
13485TIP3    H161946   2.972   3.773  12.485 -1.7221  1.7167 -0.3112
13485TIP3    H261947   2.837   3.709  12.462  0.8017 -3.9951 -1.0822
13486TIP3   OH261948   5.885   4.638   1.614 -0.2158 -0.0712  0.4517
13486TIP3    H161949   5.924   4.696   1.679 -1.5604  1.3180  0.0840
13486TIP3    H261950   5.865   4.694   1.540 -0.2904 -1.2911 -0.4849
13487TIP3   OH261951   1.684   3.474  11.890 -0.3008 -0.2111 -0.1674
13487TIP3    H161952   1.616   3.409  11.873  1.7417 -2.0746 -1.7368
13487TIP3    H261953   1.723   3.492  11.804  1.1360  0.8771  0.6557
13488TIP3   OH261954   6.957   2.422  13.156 -0.1336 -0.3377  0.6258
13488TIP3    H161955   6.902   2.468  13.221 -0.0381 -1.5995  1.6416
13488TIP3    H261956   7.027   2.383  13.208  0.0966 -1.1601 -0.2857
13489TIP3   OH261957   0.590   0.344  13.339 -0.0369  0.2963  0.0991
13489TIP3    H161958   0.680   0.342  13.372  0.3388 -0.3064 -0.9249
13489TIP3    H261959   0.591   0.285  13.263 -1.6755 -1.0542  1.0519
13490TIP3   OH261960   3.169   1.221   1.677 -0.0005 -0.1874  0.2020
13490TIP3    H161961   3.102   1.154   1.659 -0.5840  0.0169  1.4962
13490TIP3    H261962   3.250   1.182   1.646 -0.2017 -1.8412  1.5519
13491TIP3   OH261963   0.328   3.460  11.494 -0.0158  0.1922 -0.1334
13491TIP3    H161964   0.323   3.548  11.456  1.5202 -0.1819 -1.2805
13491TIP3    H261965   0.341   3.475  11.587  2.4616  1.2936 -0.5612
13492TIP3   OH261966   4.367   1.727   0.135 -0.0612  0.2015 -0.1072
13492TIP3    H161967   4.461   1.744   0.134 -0.1300  0.5630 -0.3102
13492TIP3    H261968   4.352   1.683   0.219  0.2415  0.4024  0.0522
13493TIP3   OH261969   7.049   4.330  10.980  0.0649 -0.5373  0.4424
13493TIP3    H161970   7.029   4.419  11.010  1.1664 -0.0896 -0.0978
13493TIP3    H261971   7.129   4.307  11.027  2.1428  0.3656 -2.3496
13494TIP3   OH261972   1.312   5.305   1.024  0.7572 -0.2431  0.2524
13494TIP3    H161973   1.304   5.252   0.945 -0.0214  0.1482  0.0533
13494TIP3    H261974   1.398   5.283   1.060  0.7593 -1.0613 -0.2348
13495TIP3   OH261975   4.820   6.831   0.941 -0.2145 -0.2061 -0.4176
13495TIP3    H161976   4.872   6.753   0.926  0.8626  0.3402  0.3487
13495TIP3    H261977   4.753   6.805   1.003  0.4103 -0.4180  0.1730
13496TIP3   OH261978   5.366   0.847   4.768 -0.3805 -0.4553  0.1732
13496TIP3    H161979   5.370   0.753   4.753  2.2452 -0.1315 -1.8896
13496TIP3    H261980   5.416   0.860   4.849  0.3732 -0.7387 -0.2383
13497TIP3   OH261981   2.003   3.363   3.693 -0.1459 -0.0068  0.3125
13497TIP3    H161982   1.937   3.411   3.742  0.1897  1.5184 -0.6399
13497TIP3    H261983   1.955   3.326   3.618  0.1617  1.8386 -0.8634
13498TIP3   OH261984   6.978   4.814   1.675 -0.0678 -0.1649  0.4157
13498TIP3    H161985   7.048   4.753   1.652 -0.4248 -0.6514  0.6020
13498TIP3    H261986   6.986   4.884   1.610  0.2193 -0.5105  0.0668
13499TIP3   OH261987   2.180   5.034   0.377  0.5523 -0.4430  0.3152
13499TIP3    H161988   2.132   4.952   0.389 -0.2162 -0.4541 -2.1891
13499TIP3    H261989   2.272   5.009   0.382  0.3282 -1.5622 -0.8367
13500TIP3   OH261990   1.644   1.848  12.458 -0.1557 -0.0752 -0.2090
13500TIP3    H161991   1.600   1.806  12.531 -1.1193  1.7912  0.3579
13500TIP3    H261992   1.642   1.941  12.479  4.3326  0.1909 -0.0086
13501TIP3   OH261993   0.045   2.882   5.610  0.1552  0.0230  0.0495
13501TIP3    H161994   0.112   2.842   5.666 -0.4165  0.4055  1.0314
13501TIP3    H261995  -0.037   2.865   5.656 -0.0722  2.8379  0.8624
13502TIP3   OH261996   2.137   3.175  10.353 -0.1640 -0.4355  0.0117
13502TIP3    H161997   2.207   3.217  10.303 -0.6541 -1.1270 -1.3324
13502TIP3    H261998   2.171   3.168  10.442  0.5870  1.2313 -0.1106
13503TIP3   OH261999   3.786   4.138  10.859 -0.5626 -0.3036 -0.2259
13503TIP3    H162000   3.817   4.209  10.803  0.2732  1.0444  1.8002
13503TIP3    H262001   3.866   4.100  10.896 -1.1043  0.5461  1.9635
13504TIP3   OH262002   5.591   1.785   4.310  0.5062 -0.0128  0.1519
13504TIP3    H162003   5.629   1.712   4.359  0.5386  1.6496  2.7908
13504TIP3    H262004   5.666   1.840   4.287  0.1311  2.2630  3.6549
13505TIP3   OH262005   6.872   2.760  11.664 -0.2344 -0.3275 -0.0645
13505TIP3    H162006   6.800   2.711  11.704  0.5201 -1.6447 -0.2619
13505TIP3    H262007   6.885   2.718  11.579  0.5258  0.1308 -0.1807
13506TIP3   OH262008   6.969   0.823   0.933  0.0947 -0.7915 -0.3212
13506TIP3    H162009   6.876   0.824   0.955 -0.0141 -2.4016 -0.5765
13506TIP3    H262010   6.996   0.733   0.950  1.8347 -0.1370  0.6045
13507TIP3   OH262011   6.175   0.803  14.574 -0.5809  0.0832 -0.3160
13507TIP3    H162012   6.107   0.736  14.580  1.0000 -1.6295 -0.8141
13507TIP3    H262013   6.169   0.835  14.484 -2.7061  2.2307  0.4630
13508TIP3   OH262014   1.811   5.123   5.113 -0.7665  0.3824  0.1742
13508TIP3    H162015   1.785   5.128   5.021  1.3681  1.8724 -0.4270
13508TIP3    H262016   1.838   5.032   5.126 -3.1150 -0.4139  0.0113
13509TIP3   OH262017   1.141   1.106   0.328 -0.4054  0.3692  0.0233
13509TIP3    H162018   1.053   1.126   0.296 -0.9272 -2.2864 -0.4690
13509TIP3    H262019   1.161   1.020   0.291  1.3517 -0.2644  2.2076
13510TIP3   OH262020   1.543   2.269  14.595  0.0019  0.2329  0.2417
13510TIP3    H162021   1.563   2.186  14.552 -0.4458  0.3695 -0.2312
13510TIP3    H262022   1.614   2.327  14.568 -0.2677  0.3137 -0.3067
13511TIP3   OH262023   5.148   1.112   3.766  0.2315 -0.2719  0.2249
13511TIP3    H162024   5.079   1.059   3.727  0.6727 -1.4061  0.9686
13511TIP3    H262025   5.163   1.074   3.852  0.9633  0.7028  0.5466
13512TIP3   OH262026   0.330   6.473   2.426 -0.0603  0.4064  0.2268
13512TIP3    H162027   0.255   6.514   2.383 -0.1757  1.4372  1.3622
13512TIP3    H262028   0.306   6.470   2.519  1.1943  0.5079  0.5797
13513TIP3   OH262029   0.007   6.683  11.920 -0.3672  0.0794 -0.6122
13513TIP3    H162030   0.065   6.759  11.912  1.4640 -1.1067  0.7729
13513TIP3    H262031  -0.081   6.719  11.907  0.3745  2.5384  0.5979
13514TIP3   OH262032   5.030   1.981  12.486 -0.2629 -0.6114 -0.3248
13514TIP3    H162033   5.047   2.005  12.395 -0.3545  0.2379 -0.1323
13514TIP3    H262034   4.937   1.996  12.498 -0.0159  0.5671  0.2580
13515TIP3   OH262035   5.070   5.874  14.060  0.2620 -0.1604  0.2872
13515TIP3    H162036   5.145   5.907  14.109  0.3453 -1.5187  1.1053
13515TIP3    H262037   5.074   5.920  13.976  0.3185  1.9720  1.3818
13516TIP3   OH262038   1.728   0.121  10.891 -0.0669 -0.0273 -0.1016
13516TIP3    H162039   1.813   0.091  10.861 -0.4665 -1.2702 -0.0592
13516TIP3    H262040   1.728   0.104  10.985  0.0787  1.1017  0.1151
13517TIP3   OH262041   4.425   5.915   5.341  0.3654 -0.1861  0.6033
13517TIP3    H162042   4.427   5.909   5.437  0.5344  2.3742  0.8249
13517TIP3    H262043   4.508   5.877   5.312  0.1710 -1.2910  1.4079
13518TIP3   OH262044   3.015   1.152  15.189 -0.3942  0.5389  0.0860
13518TIP3    H162045   3.085   1.186  15.244 -0.4351  1.9128 -0.6577
13518TIP3    H262046   2.996   1.223  15.127 -0.0771 -1.0630 -1.9631
13519TIP3   OH262047   1.955   0.992  15.076  0.5080 -0.3055 -0.4220
13519TIP3    H162048   2.050   0.992  15.086  0.2944 -0.9111  2.4119
13519TIP3    H262049   1.932   0.900  15.064  0.1640 -0.3464  0.5281
13520TIP3   OH262050   7.021   3.492   2.987 -0.6520  0.1050  0.4876
13520TIP3    H162051   6.967   3.521   3.061 -0.5771  0.8406  0.2610
13520TIP3    H262052   6.977   3.527   2.910  0.3562  1.0724  0.3252
13521TIP3   OH262053   1.787   1.863  10.119 -0.0799 -0.3354  0.4006
13521TIP3    H162054   1.811   1.779  10.080 -1.2078 -0.4644 -0.0492
13521TIP3    H262055   1.794   1.849  10.214  0.4809 -0.6978  0.3080
13522TIP3   OH262056   4.855   2.758  12.250  0.3047 -0.4576 -0.0121
13522TIP3    H162057   4.841   2.851  12.268  0.5255  0.2683 -3.0108
13522TIP3    H262058   4.920   2.731  12.314  0.7712  1.6576  0.4921
13523TIP3   OH262059   0.481   6.198  10.195 -0.1589  0.0754 -0.0139
13523TIP3    H162060   0.455   6.274  10.142  0.8363 -0.2516 -0.9977
13523TIP3    H262061   0.406   6.138  10.189 -0.2860  0.2849 -0.5837
13524TIP3   OH262062   7.146   3.969   3.840  0.3263 -0.4125 -0.0825
13524TIP3    H162063   7.120   3.994   3.929  0.9046 -1.9778  0.5628
13524TIP3    H262064   7.200   4.043   3.810  2.5822 -1.0498  2.0288
13525TIP3   OH262065   6.012   2.277   3.508 -0.2754  0.5454  0.3573
13525TIP3    H162066   6.098   2.239   3.525  0.7618  2.3594 -0.5105
13525TIP3    H262067   5.994   2.257   3.417 -0.4224  0.8091  0.3267
13526TIP3   OH262068   1.080   6.913  15.198 -0.0964 -0.6197 -0.0755
13526TIP3    H162069   1.026   6.858  15.255  0.1786 -1.3225 -0.4948
13526TIP3    H262070   1.126   6.971  15.259 -0.7029 -0.5627  0.3398
13527TIP3   OH262071   2.194   3.136  15.343  0.8733  0.3384 -0.0894
13527TIP3    H162072   2.135   3.076  15.298  1.4008  0.3792 -0.8548
13527TIP3    H262073   2.165   3.135  15.434  0.5395 -0.6589 -0.1983
13528TIP3   OH262074   3.174   6.173  14.133  0.1604 -0.5488 -0.5643
13528TIP3    H162075   3.101   6.123  14.097 -0.0688  0.2072 -1.1651
13528TIP3    H262076   3.203   6.122  14.209 -0.6962 -1.0863 -0.5911
13529TIP3   OH262077   6.546   2.886  13.657 -0.3138 -0.3519  0.3227
13529TIP3    H162078   6.593   2.970  13.657 -1.0624  0.1524 -2.0600
13529TIP3    H262079   6.455   2.909  13.678 -0.7327 -0.3706 -1.3432
13530TIP3   OH262080   4.160   5.166   1.363  0.6870  1.0265  0.4651
13530TIP3    H162081   4.067   5.156   1.339  0.8872 -1.4155  0.4358
13530TIP3    H262082   4.167   5.256   1.395 -1.9657  0.9083  1.6540
13531TIP3   OH262083   5.729   0.640  14.459 -0.3156  0.7563 -0.5753
13531TIP3    H162084   5.798   0.628  14.524  0.1994  1.4924 -0.9730
13531TIP3    H262085   5.666   0.699  14.501 -0.9161 -0.2254 -0.0645
13532TIP3   OH262086   3.135   0.241   3.203 -0.2301  0.1693  0.4984
13532TIP3    H162087   3.180   0.184   3.140 -0.6296  1.0382 -0.6057
13532TIP3    H262088   3.110   0.183   3.275  0.5555 -0.7773  0.0221
13533TIP3   OH262089   1.814   3.236   3.502  0.1555 -0.4412 -0.1537
13533TIP3    H162090   1.897   3.217   3.456  0.0656 -2.0254  0.2668
13533TIP3    H262091   1.759   3.275   3.435  0.9088 -0.3168 -0.7203
13534TIP3   OH262092   5.599   4.197   4.216 -0.2743  0.0194 -0.1485
13534TIP3    H162093   5.525   4.182   4.157 -0.6301  0.8375  0.0843
13534TIP3    H262094   5.656   4.257   4.168  0.3109 -0.6995 -0.3760
13535TIP3   OH262095   3.795   3.863   2.867 -0.0001 -0.7512 -0.3119
13535TIP3    H162096   3.788   3.773   2.899 -0.4811 -1.4367 -2.2087
13535TIP3    H262097   3.813   3.854   2.773 -2.4192  1.1080 -1.0713
13536TIP3   OH262098   5.180   2.713  12.367  0.4639  0.2429 -0.0385
13536TIP3    H162099   5.192   2.671  12.282 -2.8909  1.1360 -1.0995
13536TIP3    H262100   5.183   2.807  12.348 -3.1161  0.5270  0.1440
13537TIP3   OH262101   0.108   4.582   1.813  0.0163  0.9226  0.2980
13537TIP3    H162102   0.113   4.488   1.833  1.3063  1.0939  0.8927
13537TIP3    H262103   0.091   4.624   1.898 -1.2137  1.1993 -0.0653
13538TIP3   OH262104   5.252   0.958  12.806 -0.3778  0.3937 -0.0098
13538TIP3    H162105   5.223   1.005  12.727  0.7162  2.0741  0.5311
13538TIP3    H262106   5.177   0.903  12.829 -0.0661 -1.7349 -3.3181
13539TIP3   OH262107   5.531   4.648   1.588  0.0292 -0.4881 -0.2927
13539TIP3    H162108   5.523   4.728   1.537  0.8027 -0.2066  0.0138
13539TIP3    H262109   5.556   4.581   1.523 -1.3052 -0.6588 -0.6702
13540TIP3   OH262110   5.906   4.626   4.028  0.0849 -0.2034  0.0569
13540TIP3    H162111   5.864   4.710   4.013 -0.0358 -0.3269 -0.3032
13540TIP3    H262112   6.000   4.643   4.020  0.1368  0.1594  1.2730
13541TIP3   OH262113   2.784   1.923   3.003 -0.4693  1.1364 -0.3429
13541TIP3    H162114   2.709   1.881   2.962  0.1738 -0.2238 -0.1982
13541TIP3    H262115   2.778   1.900   3.096 -0.1983  1.5094 -0.2289
13542TIP3   OH262116   0.422   0.826   4.068  0.0045  0.4192  0.0722
13542TIP3    H162117   0.469   0.868   3.996  0.1480 -1.1464 -0.7966
13542TIP3    H262118   0.336   0.866   4.068  0.7093  1.9987  0.4713
13543TIP3   OH262119   3.001   0.880   3.449 -0.1534 -0.4646  0.0676
13543TIP3    H162120   2.948   0.928   3.385  0.6207 -2.4945 -2.2242
13543TIP3    H262121   2.962   0.793   3.452  2.1571 -1.6039 -0.6789
13544TIP3   OH262122   5.960   2.889  10.267 -0.4501  0.4654  0.2283
13544TIP3    H162123   5.869   2.863  10.256  0.1441 -1.2501 -1.1975
13544TIP3    H262124   5.995   2.829  10.333 -0.1855  0.6787  0.2861
13545TIP3   OH262125   5.258   4.068   4.833 -0.7101  0.7632  0.0158
13545TIP3    H162126   5.286   4.000   4.895 -2.2418 -0.3573 -0.4331
13545TIP3    H262127   5.162   4.070   4.843 -0.7153  2.7674 -0.1143
13546TIP3   OH262128   5.331   6.388   2.870 -0.7563  0.3768  0.1889
13546TIP3    H162129   5.256   6.330   2.855 -1.3130  1.3014 -0.7856
13546TIP3    H262130   5.358   6.369   2.959 -1.0863 -1.1708 -0.0038
13547TIP3   OH262131   7.061   3.153   1.828 -0.1449 -0.4891 -0.4957
13547TIP3    H162132   7.000   3.165   1.900 -1.4884 -1.2549 -1.4565
13547TIP3    H262133   7.030   3.211   1.759  0.0776 -1.0397 -1.0746
13548TIP3   OH262134   1.380   5.071   0.423 -0.1923  0.0229  0.1732
13548TIP3    H162135   1.440   5.089   0.351 -0.0258 -2.4776 -0.3864
13548TIP3    H262136   1.311   5.136   0.414  0.9593  1.1442 -0.8922
13549TIP3   OH262137   1.453   0.342   3.645 -0.5244  0.2592  0.8351
13549TIP3    H162138   1.474   0.289   3.722  1.5318 -0.8375 -0.4113
13549TIP3    H262139   1.432   0.278   3.577 -1.6689  1.1976  0.2543
13550TIP3   OH262140   4.293   2.186   1.533 -0.4703  0.1216 -0.0438
13550TIP3    H162141   4.375   2.156   1.573  0.3027  0.2714 -1.4407
13550TIP3    H262142   4.232   2.114   1.548  0.6029 -1.0467 -1.0282
13551TIP3   OH262143   1.188   4.276  13.571 -0.1662  0.5378  0.2569
13551TIP3    H162144   1.283   4.282  13.563 -0.2248  0.7236 -0.3136
13551TIP3    H262145   1.155   4.275  13.481 -0.6033 -1.4539  0.4012
13552TIP3   OH262146   6.703   6.950  14.477 -0.5794 -0.2237 -0.4334
13552TIP3    H162147   6.610   6.967  14.487 -0.6256 -1.0140  0.6519
13552TIP3    H262148   6.735   7.023  14.425 -1.3796  1.3616  1.1918
13553TIP3   OH262149   2.385   4.913  12.254  0.8960 -0.1164 -1.0804
13553TIP3    H162150   2.415   4.822  12.254 -0.5957 -0.6389 -1.3560
13553TIP3    H262151   2.400   4.944  12.164  2.0706  0.1624 -0.8025
13554TIP3   OH262152   5.388   0.330   1.565 -0.1745  0.2939 -0.1657
13554TIP3    H162153   5.409   0.304   1.655  1.2610 -0.7445 -0.7659
13554TIP3    H262154   5.292   0.331   1.562 -0.2410 -0.0322  1.2754
13555TIP3   OH262155   4.596   0.055  15.041  0.1214  0.0818 -0.5259
13555TIP3    H162156   4.539   0.093  14.974 -1.9466 -0.7692  0.6523
13555TIP3    H262157   4.570  -0.036  15.047 -1.4097  0.5629  2.9067
13556TIP3   OH262158   0.841   0.186  12.341 -0.4023  0.7993 -0.5535
13556TIP3    H162159   0.800   0.268  12.368  2.4438  2.8955 -2.1703
13556TIP3    H262160   0.776   0.144  12.285 -2.9837  0.4908  2.3907
13557TIP3   OH262161   5.272   2.145   5.428 -0.2538  0.5610  0.2023
13557TIP3    H162162   5.211   2.076   5.456 -1.4905  0.8863 -1.5449
13557TIP3    H262163   5.228   2.227   5.449  2.0584  1.0351  4.1705
13558TIP3   OH262164   6.478   3.042  10.234 -0.5206  0.0486  0.4118
13558TIP3    H162165   6.542   2.973  10.252  0.9705  0.0518 -3.8170
13558TIP3    H262166   6.399   2.996  10.208  0.0723 -0.1573 -1.1499
13559TIP3   OH262167   1.397   2.881   1.369 -0.0668  0.4407  0.4406
13559TIP3    H162168   1.476   2.916   1.329 -0.7619  1.8793  0.2584
13559TIP3    H262169   1.330   2.947   1.351 -1.2509 -0.6265  0.8099
13560TIP3   OH262170   4.734   4.124   9.706 -0.1258 -0.6636 -0.0666
13560TIP3    H162171   4.640   4.143   9.712 -0.2522 -1.4756  0.6821
13560TIP3    H262172   4.773   4.173   9.779 -0.0159 -0.6569 -0.1290
13561TIP3   OH262173   2.367   0.858   0.299  0.0574 -0.2465  0.1171
13561TIP3    H162174   2.460   0.857   0.277 -0.1817 -0.4714 -0.9438
13561TIP3    H262175   2.328   0.919   0.236 -0.8607 -1.9587 -1.0715
13562TIP3   OH262176   3.744   4.126  11.177  0.0406 -0.2481  0.2911
13562TIP3    H162177   3.689   4.152  11.251 -0.6646  0.0647 -0.3351
13562TIP3    H262178   3.692   4.061  11.130  0.9689 -1.3228  0.7096
13563TIP3   OH262179   3.312   2.164   5.288  0.1353 -0.6560  0.4309
13563TIP3    H162180   3.332   2.180   5.380 -0.9233 -0.6174  0.6719
13563TIP3    H262181   3.294   2.251   5.252 -1.2024 -0.8243  0.6404
13564TIP3   OH262182   0.542   2.661   4.764 -0.0586  0.1107 -0.3369
13564TIP3    H162183   0.480   2.645   4.693  0.0984 -1.7587 -0.1049
13564TIP3    H262184   0.497   2.723   4.821 -2.7243 -2.7252  0.9340
13565TIP3   OH262185   0.948   3.475   2.575 -0.3276 -0.4690 -0.2087
13565TIP3    H162186   0.938   3.569   2.588 -0.4285 -0.5337  0.1702
13565TIP3    H262187   1.030   3.466   2.526 -0.1976 -0.2018 -0.0395
13566TIP3   OH262188   6.999   4.081  13.170 -0.3589 -0.0601  0.2921
13566TIP3    H162189   7.072   4.022  13.155  0.3878  0.7534  0.5998
13566TIP3    H262190   7.001   4.099  13.264 -0.4118  0.6467  0.1667
13567TIP3   OH262191   3.815   5.014   2.357 -0.2176 -0.9677 -0.3112
13567TIP3    H162192   3.760   5.019   2.435 -2.6263  1.0400 -1.9814
13567TIP3    H262193   3.857   4.928   2.363 -2.2809 -1.9419  1.9062
13568TIP3   OH262194   1.618   3.722   9.828 -0.1323  0.1676 -0.1548
13568TIP3    H162195   1.653   3.769   9.752 -0.7233  1.7302  0.4928
13568TIP3    H262196   1.527   3.752   9.834 -0.0290  0.2403  1.2933
13569TIP3   OH262197   2.577   3.060  11.244 -0.1635  0.4721 -0.3763
13569TIP3    H162198   2.672   3.061  11.254 -0.2008  2.3683  0.2269
13569TIP3    H262199   2.554   2.968  11.242  1.7025 -0.0273 -0.6915
13570TIP3   OH262200   7.235   6.850   4.400  0.0677  0.1115 -0.3392
13570TIP3    H162201   7.311   6.905   4.419  0.4553  0.2660 -2.0963
13570TIP3    H262202   7.168   6.912   4.371 -0.0110 -0.2019 -0.8407
13571TIP3   OH262203   4.422   6.550   4.258  0.0188  0.6602  0.0686
13571TIP3    H162204   4.390   6.610   4.326  1.1591  3.2553 -1.5040
13571TIP3    H262205   4.391   6.589   4.176 -0.3474 -1.7401 -1.0044
13572TIP3   OH262206   6.938   0.905  11.912  0.0060  0.9742  0.0659
13572TIP3    H162207   6.991   0.938  11.839  0.7144 -0.4522 -0.1106
13572TIP3    H262208   7.000   0.855  11.965 -0.8950  0.3863  0.5883
13573TIP3   OH262209   3.637   1.816   2.999 -0.5930 -0.1423  0.5171
13573TIP3    H162210   3.628   1.747   2.933 -2.2646  0.5706 -0.0547
13573TIP3    H262211   3.701   1.782   3.062 -0.0053 -1.4160 -0.7300
13574TIP3   OH262212   4.814   0.788   0.024 -0.8049  0.3660  0.0063
13574TIP3    H162213   4.814   0.707   0.076 -2.4414  0.1312 -0.3038
13574TIP3    H262214   4.801   0.759  -0.066  0.4295  0.8789 -0.3576
13575TIP3   OH262215   0.240   0.076   5.810 -0.3087  0.7142  0.4225
13575TIP3    H162216   0.184   0.146   5.841 -2.4127 -0.2527 -0.9765
13575TIP3    H262217   0.180   0.010   5.776  1.6696 -0.6232 -0.6914
13576TIP3   OH262218   5.976   0.311   0.941 -0.0821  0.4060 -0.6383
13576TIP3    H162219   5.968   0.360   1.022  1.2335  1.7301 -1.2568
13576TIP3    H262220   5.904   0.248   0.943  0.6190 -0.4431  2.0966
13577TIP3   OH262221   0.933   0.652  14.840  0.6024  0.0948 -0.5374
13577TIP3    H162222   0.937   0.717  14.910  0.6223 -1.8200  1.3352
13577TIP3    H262223   0.850   0.670  14.795 -0.0487  0.5700  0.8076
13578TIP3   OH262224   3.781   3.619   3.006 -0.0238  0.1603  0.1746
13578TIP3    H162225   3.807   3.705   3.039  1.6610 -0.0097 -0.5918
13578TIP3    H262226   3.686   3.625   2.996  0.1909  2.4601 -1.2751
13579TIP3   OH262227   2.830   2.646   2.314 -0.0379  0.3041  0.5338
13579TIP3    H162228   2.896   2.588   2.351 -0.4564 -0.7912 -0.3792
13579TIP3    H262229   2.857   2.657   2.223 -0.5675  0.6556  0.4155
13580TIP3   OH262230   6.342   0.534   4.104 -0.0302 -0.1850 -0.4081
13580TIP3    H162231   6.271   0.486   4.146 -0.0132 -2.8582 -3.1581
13580TIP3    H262232   6.328   0.522   4.010  2.2615  1.9536 -1.1481
13581TIP3   OH262233   1.072   5.376   2.580  0.0957  0.0715  0.5641
13581TIP3    H162234   1.100   5.393   2.671 -0.1672 -1.1103  0.8809
13581TIP3    H262235   1.154   5.371   2.531  0.2245  1.1574  0.6377
13582TIP3   OH262236   1.591   4.236   3.701  0.3236  0.0539 -0.4111
13582TIP3    H162237   1.535   4.249   3.777 -0.1240 -2.2515 -0.2715
13582TIP3    H262238   1.602   4.141   3.696 -1.0641 -0.0421 -4.2229
13583TIP3   OH262239   2.342   6.018   2.243  0.4254  0.4902 -0.1224
13583TIP3    H162240   2.328   5.962   2.167  0.5562  0.4932 -0.1489
13583TIP3    H262241   2.254   6.032   2.279  0.5910 -1.7116  1.3226
13584TIP3   OH262242   0.981   5.173  12.951 -0.5808 -0.0771 -0.6319
13584TIP3    H162243   1.020   5.121  13.021  0.6009  1.0612 -0.4108
13584TIP3    H262244   1.016   5.135  12.870  1.8666  1.5295 -0.4094
13585TIP3   OH262245   2.043   2.514  14.498 -0.4422 -0.1804 -0.3234
13585TIP3    H162246   2.088   2.591  14.532  0.0482 -1.7342  2.9095
13585TIP3    H262247   2.084   2.497  14.413  2.6349  0.5353  0.9086
13586TIP3   OH262248   0.643   3.374   4.919 -0.8201  0.3956 -0.5768
13586TIP3    H162249   0.691   3.376   5.001 -0.0661 -0.1258 -0.9913
13586TIP3    H262250   0.558   3.413   4.939  0.1221  2.2739 -0.0574
13587TIP3   OH262251   6.434   3.521   5.092 -0.6376 -0.5347 -0.1979
13587TIP3    H162252   6.524   3.543   5.069 -1.0005 -0.2431 -1.3605
13587TIP3    H262253   6.385   3.603   5.083 -1.2011 -0.8922 -0.4839
13588TIP3   OH262254   4.371   1.725   1.230  0.9317 -0.4309  0.3313
13588TIP3    H162255   4.414   1.676   1.160 -0.3443 -1.0337 -0.0457
13588TIP3    H262256   4.378   1.817   1.203  1.2556 -0.5837 -0.1123
13589TIP3   OH262257   4.654   1.951   2.979 -0.6944  0.2058  0.3764
13589TIP3    H162258   4.593   2.024   2.989  0.3489  1.2846 -0.6870
13589TIP3    H262259   4.639   1.896   3.055 -2.8605  0.5164  0.2182
13590TIP3   OH262260   1.469   5.504   2.665  0.4918 -0.0211  0.1001
13590TIP3    H162261   1.538   5.487   2.601  0.8128 -1.5259  0.8143
13590TIP3    H262262   1.481   5.596   2.690  0.7440  0.4108 -1.5125
13591TIP3   OH262263   5.832   0.143   5.705 -0.4372  0.6654  0.1213
13591TIP3    H162264   5.760   0.203   5.686  0.6697  2.7499  1.9924
13591TIP3    H262265   5.806   0.100   5.786 -0.1566  0.4089  0.0757
13592TIP3   OH262266   0.300   0.484   1.251 -0.0950  0.0254 -0.2973
13592TIP3    H162267   0.227   0.436   1.289  0.6092 -0.6258  0.2654
13592TIP3    H262268   0.265   0.522   1.170 -0.5654 -1.7662 -0.9770
13593TIP3   OH262269   0.115   1.994   4.713 -0.1826 -0.2696  0.1951
13593TIP3    H162270   0.020   2.005   4.709 -0.3009 -1.2619  0.1062
13593TIP3    H262271   0.132   1.950   4.796  0.1015 -0.9854 -0.2318
13594TIP3   OH262272   2.294   4.688   0.613 -0.3492 -0.1634 -0.0005
13594TIP3    H162273   2.214   4.672   0.662 -0.1451  1.6130  0.9810
13594TIP3    H262274   2.353   4.730   0.675  0.7407  0.0809 -1.1500
13595TIP3   OH262275   6.666   1.089   9.932  0.4491 -0.0154  0.6564
13595TIP3    H162276   6.756   1.121   9.919  0.9686 -1.3257  0.8530
13595TIP3    H262277   6.677   1.008   9.982 -0.8539 -0.1796  0.6939
13596TIP3   OH262278   2.103   6.846   3.693  0.4879 -0.0919  0.1402
13596TIP3    H162279   2.055   6.779   3.742  1.3813  1.5126  3.5143
13596TIP3    H262280   2.035   6.890   3.642 -0.7844 -1.0805  0.8824
13597TIP3   OH262281   0.968   1.250  15.037 -0.1979 -0.2171 -0.8689
13597TIP3    H162282   0.987   1.249  14.943  0.4289 -0.8912 -0.7406
13597TIP3    H262283   0.983   1.340  15.063 -0.0005 -0.1067 -1.3445
13598TIP3   OH262284   0.896   4.270  12.385 -0.0168  0.1513 -0.2244
13598TIP3    H162285   0.974   4.296  12.434  0.4010  0.0848 -0.8367
13598TIP3    H262286   0.890   4.175  12.397 -0.6188  0.2924  0.6894
13599TIP3   OH262287   6.555   1.303   5.569  0.4140  0.0524 -0.0942
13599TIP3    H162288   6.630   1.344   5.612  0.2205  0.7523 -0.4094
13599TIP3    H262289   6.584   1.214   5.548  0.6251 -0.1949  1.1712
13600TIP3   OH262290   0.584   1.094   3.378  0.0359  0.0264  0.0163
13600TIP3    H162291   0.602   1.187   3.366  0.7770 -0.0241  0.6577
13600TIP3    H262292   0.500   1.091   3.424 -0.8323  0.3169 -1.4818
13601TIP3   OH262293   4.694   3.928   2.282 -0.5245  0.2259  0.6988
13601TIP3    H162294   4.694   4.023   2.291  0.8816  0.2606  0.5876
13601TIP3    H262295   4.785   3.905   2.262 -0.7039 -1.2000  1.3369
13602TIP3   OH262296   6.361   7.144   2.286 -0.7317  0.4898 -0.5512
13602TIP3    H162297   6.327   7.054   2.293  0.5281 -0.2700 -2.8654
13602TIP3    H262298   6.456   7.133   2.278 -0.2033  2.2956  2.0758
13603TIP3   OH262299   6.925   5.926   5.614  0.1928 -0.4581  0.4160
13603TIP3    H162300   6.933   5.833   5.633  0.3392 -0.3621  0.8558
13603TIP3    H262301   6.859   5.932   5.545  1.5129 -1.0254 -0.9333
13604TIP3   OH262302   2.216   1.745  15.113  0.0435  0.2281  0.2543
13604TIP3    H162303   2.237   1.723  15.022 -1.3795 -1.7344  0.3283
13604TIP3    H262304   2.124   1.771  15.111 -0.3621 -1.0186  1.2602
13605TIP3   OH262305   5.882   0.205  13.450  0.0645 -0.3475 -0.2160
13605TIP3    H162306   5.922   0.135  13.501  0.6382  1.0336  1.3254
13605TIP3    H262307   5.949   0.231  13.387  1.1165  0.9119  1.3312
13606TIP3   OH262308   2.933   1.420   4.185  0.0841  0.0508  0.5685
13606TIP3    H162309   3.021   1.395   4.158 -0.3032 -0.8473  0.0821
13606TIP3    H262310   2.945   1.470   4.266  1.0751  0.4424  0.1863
13607TIP3   OH262311   1.999   4.597   3.897  0.1341 -0.0564 -0.2019
13607TIP3    H162312   2.051   4.523   3.926  2.0455  1.1112 -0.4431
13607TIP3    H262313   2.062   4.669   3.890 -0.9290  0.7271 -3.3883
13608TIP3   OH262314   6.061   3.038   4.123 -0.4977 -0.3268 -0.4611
13608TIP3    H162315   6.107   2.973   4.071  0.7052  1.3940 -1.6830
13608TIP3    H262316   6.120   3.057   4.196 -1.1587 -1.0762  0.2876
13609TIP3   OH262317   2.634   1.178   1.536 -0.3307 -0.5994 -0.1714
13609TIP3    H162318   2.601   1.162   1.624 -0.1722  0.5466  0.1078
13609TIP3    H262319   2.679   1.097   1.512 -0.7612 -1.0793  0.6192
13610TIP3   OH262320   7.246   3.095   2.686 -0.0694  0.4909 -0.7179
13610TIP3    H162321   7.229   3.010   2.644  0.7411  0.6100 -1.2993
13610TIP3    H262322   7.198   3.090   2.769  1.4191 -1.2723  0.1108
13611TIP3   OH262323   2.296   4.732   5.777  0.1856  0.1952  0.2987
13611TIP3    H162324   2.363   4.799   5.795 -0.6466  2.1810 -3.0922
13611TIP3    H262325   2.221   4.782   5.744 -1.1082 -2.2956 -0.7653
13612TIP3   OH262326   5.527   0.953   3.553 -0.3695 -0.0479  0.3683
13612TIP3    H162327   5.558   1.041   3.532  1.4027 -0.8631 -0.6450
13612TIP3    H262328   5.514   0.954   3.647 -0.3933  1.2914  0.3779
13613TIP3   OH262329   1.720   4.215   4.101 -0.0957  0.1066  0.1831
13613TIP3    H162330   1.664   4.280   4.058  2.1344  0.9644 -1.5703
13613TIP3    H262331   1.751   4.159   4.030  0.5675 -0.8975  1.2353
13614TIP3   OH262332   4.928   5.941  12.892 -0.1902  0.0391  0.6154
13614TIP3    H162333   5.020   5.917  12.881 -0.9193 -2.7497 -0.2454
13614TIP3    H262334   4.916   6.019  12.838  1.6411  0.4362  0.7342
13615TIP3   OH262335   7.075   0.655   3.032 -0.4966 -0.6779  0.6440
13615TIP3    H162336   7.103   0.696   2.950  1.2002 -0.5954  1.2283
13615TIP3    H262337   7.094   0.721   3.099 -1.3653 -0.9489  1.1653
13616TIP3   OH262338   6.190   5.686   3.492  0.2144  0.1638  0.0851
13616TIP3    H162339   6.190   5.756   3.426  1.8016 -0.5662 -0.7639
13616TIP3    H262340   6.106   5.695   3.537 -0.1550  1.8154 -0.8355
13617TIP3   OH262341   6.044   0.189   0.253  0.3777  0.5668 -0.4530
13617TIP3    H162342   5.999   0.105   0.240 -0.5283  0.5459  2.1532
13617TIP3    H262343   5.973   0.251   0.271  0.9496  2.1882 -3.3048
13618TIP3   OH262344   6.827   6.394   0.418  0.1189  0.1409 -0.1871
13618TIP3    H162345   6.736   6.390   0.449  0.8399 -1.3380  1.9225
13618TIP3    H262346   6.855   6.483   0.439 -0.0083 -0.2500  1.7861
13619TIP3   OH262347   1.184   2.040   0.996  0.7414 -0.4556  0.0855
13619TIP3    H162348   1.170   2.069   0.906 -1.9602  0.4491  0.6951
13619TIP3    H262349   1.204   2.121   1.044 -0.8565 -0.4483  0.7778
13620TIP3   OH262350   5.708   0.551  15.227  0.4951 -0.0595  0.1965
13620TIP3    H162351   5.766   0.616  15.188  1.3247 -0.8903  0.0046
13620TIP3    H262352   5.700   0.482  15.160 -1.6941  0.5601 -0.2836
13621TIP3   OH262353   6.876   3.821   1.806  0.1067 -0.9365  0.2510
13621TIP3    H162354   6.937   3.851   1.873  1.8435 -1.5652 -0.9528
13621TIP3    H262355   6.906   3.865   1.726 -1.0104 -1.3005 -0.3829
13622TIP3   OH262356   3.073   0.109   0.922 -0.1256  0.4092 -0.3290
13622TIP3    H162357   3.058   0.182   0.861  0.4296  2.4625  1.8254
13622TIP3    H262358   3.149   0.136   0.973 -0.8642 -0.9303  1.5989
13623TIP3   OH262359   7.055   5.895   3.260  0.2786  0.4086  0.5935
13623TIP3    H162360   7.138   5.855   3.286 -0.2186 -0.2692  1.1889
13623TIP3    H262361   7.079   5.967   3.202  1.2612  0.0165  0.5116
13624TIP3   OH262362   5.527   5.226  11.898 -0.0964  0.3463 -0.4147
13624TIP3    H162363   5.470   5.274  11.959  0.0086 -0.2691  0.1812
13624TIP3    H262364   5.604   5.281  11.889 -0.2603  0.6050 -0.2553
13625TIP3   OH262365   0.355   6.267   0.929 -0.4072  0.6781  0.5386
13625TIP3    H162366   0.426   6.285   0.867  0.8766 -0.7428  1.5504
13625TIP3    H262367   0.288   6.222   0.876  1.1143 -1.4669  0.3360
13626TIP3   OH262368   3.984   2.552  13.380 -0.1796  0.1584 -0.1001
13626TIP3    H162369   3.911   2.533  13.439 -1.3516  4.4336  0.1675
13626TIP3    H262370   3.945   2.554  13.293 -0.0252  0.7751 -0.1603
13627TIP3   OH262371   4.950   3.539   0.207 -0.3822  0.1962  0.2412
13627TIP3    H162372   5.030   3.514   0.162 -0.3406  1.1744 -0.2690
13627TIP3    H262373   4.979   3.593   0.280 -0.5188 -0.3951  0.7407
13628TIP3   OH262374   4.475   1.300   2.673 -0.1205  0.2491 -0.0021
13628TIP3    H162375   4.446   1.229   2.615  1.0493  0.6578 -1.1460
13628TIP3    H262376   4.435   1.281   2.757 -0.1643 -1.5554 -0.3979
13629TIP3   OH262377   3.745   2.462   3.331 -0.0278  0.3437  0.7146
13629TIP3    H162378   3.655   2.432   3.331  0.3263 -0.8043 -0.3605
13629TIP3    H262379   3.784   2.421   3.408 -0.3053  0.5019  0.9424
13630TIP3   OH262380   0.850   0.484  10.949 -0.2507 -0.4168  0.1957
13630TIP3    H162381   0.773   0.506  11.002 -0.7804 -0.4833 -0.5267
13630TIP3    H262382   0.875   0.396  10.978 -0.8100 -0.6353  0.0199
13631TIP3   OH262383   2.504   0.375   5.104  0.8069  0.2548  0.3305
13631TIP3    H162384   2.497   0.374   5.009 -1.8033  1.2260  0.4403
13631TIP3    H262385   2.414   0.361   5.135  1.4555  0.7844  2.6548
13632TIP3   OH262386   5.876   2.392  12.163  0.1869  0.5794 -0.4421
13632TIP3    H162387   5.859   2.485  12.148 -1.2716  0.5520  0.9052
13632TIP3    H262388   5.806   2.346  12.117 -1.3918  0.3288  2.0472
13633TIP3   OH262389   6.604   4.820   4.897  0.0309 -0.4192  0.4147
13633TIP3    H162390   6.612   4.904   4.943  0.6611 -1.1186  1.6621
13633TIP3    H262391   6.561   4.762   4.960  1.5765 -1.6161  0.4503
13634TIP3   OH262392   6.510   1.654  11.349 -0.8566  0.2256 -0.0257
13634TIP3    H162393   6.594   1.694  11.372 -0.6443 -0.1962 -0.0630
13634TIP3    H262394   6.531   1.562  11.333 -1.2606  0.1971 -0.4041
13635TIP3   OH262395   6.993   2.982   2.529  0.4642  0.6014  0.2291
13635TIP3    H162396   6.981   2.892   2.499  0.7642 -0.2305  2.4023
13635TIP3    H262397   6.917   3.030   2.495  1.7016  0.3001 -3.3860
13636TIP3   OH262398   3.382   2.678  14.811 -0.2787 -0.1769 -0.6766
13636TIP3    H162399   3.334   2.609  14.765 -1.3483 -0.3893  0.7074
13636TIP3    H262400   3.347   2.677  14.900  1.4839  0.4666  0.0650
13637TIP3   OH262401   0.533   2.538   3.535  0.5472 -0.0267 -0.0443
13637TIP3    H162402   0.536   2.633   3.520  0.5109  0.3118  1.8920
13637TIP3    H262403   0.586   2.524   3.613  0.0136 -1.5335  0.0862
13638TIP3   OH262404   6.411   3.452  14.536 -0.3045 -0.1057  0.1994
13638TIP3    H162405   6.387   3.540  14.563  1.3596  1.0063 -1.6766
13638TIP3    H262406   6.348   3.395  14.581  0.1461  1.7523  3.5504
13639TIP3   OH262407   4.275   5.812  12.398 -0.0081  0.0237  0.1740
13639TIP3    H162408   4.195   5.827  12.348 -0.4084 -0.1792  0.7426
13639TIP3    H262409   4.300   5.722  12.377  0.4679  0.3212 -0.5524
13640TIP3   OH262410   2.792   0.604   0.515 -0.2965 -0.1316  0.2078
13640TIP3    H162411   2.731   0.677   0.505  1.1398  0.9534 -1.0184
13640TIP3    H262412   2.807   0.573   0.426  1.1609 -0.1787  0.4467
13641TIP3   OH262413   0.595   2.069   2.939 -0.0827  0.4290 -0.0205
13641TIP3    H162414   0.526   2.099   2.998  1.1048 -0.8311  2.1332
13641TIP3    H262415   0.612   1.979   2.966  1.5643  0.2993 -1.3156
13642TIP3   OH262416   3.863   7.223   4.145  0.1396 -0.3184 -0.0597
13642TIP3    H162417   3.958   7.228   4.154  0.3374  1.1485 -2.2742
13642TIP3    H262418   3.838   7.147   4.198  2.4738 -0.5165  0.8682
13643TIP3   OH262419   2.433   4.787   3.698 -1.3423  0.3077  0.1987
13643TIP3    H162420   2.493   4.811   3.627  0.5373  0.0436  1.6118
13643TIP3    H262421   2.346   4.791   3.659 -0.3318 -0.6424 -2.3368
13644TIP3   OH262422   3.655   3.074  15.323  0.3645 -0.3306  0.5620
13644TIP3    H162423   3.610   3.008  15.375 -1.6042  0.4387 -0.1016
13644TIP3    H262424   3.587   3.135  15.296  1.9438  1.3943  0.2409
13645TIP3   OH262425   4.278   5.384   2.459 -0.1310  0.0017  0.3637
13645TIP3    H162426   4.349   5.424   2.510 -1.6099  0.0131  2.5379
13645TIP3    H262427   4.237   5.458   2.413 -0.4423  0.4209  1.2968
13646TIP3   OH262428   4.883   4.682  14.847  0.1459 -0.1039 -0.6926
13646TIP3    H162429   4.929   4.641  14.774 -0.0101  0.7948 -1.2995
13646TIP3    H262430   4.846   4.608  14.895 -0.1095 -0.6851 -1.7494
13647TIP3   OH262431   5.574   6.541  12.132 -0.1964  0.0528 -0.0215
13647TIP3    H162432   5.639   6.540  12.061 -0.8344  0.6539 -0.6257
13647TIP3    H262433   5.602   6.471  12.191 -0.3493 -1.3085 -1.5062
13648TIP3   OH262434   2.532   0.383  13.951 -0.0690  0.2567  0.2830
13648TIP3    H162435   2.448   0.400  13.908  0.3682  0.8754 -0.3438
13648TIP3    H262436   2.570   0.311  13.902 -0.0023  0.3156  0.2492
13649TIP3   OH262437   3.576   2.123   2.096  0.4116  0.1392 -0.8006
13649TIP3    H162438   3.585   2.194   2.159 -0.6562 -0.2723 -0.1504
13649TIP3    H262439   3.645   2.061   2.120 -0.2465 -0.2121  0.2646
13650TIP3   OH262440   4.131   3.870   1.967 -0.3066 -0.2820 -0.0951
13650TIP3    H162441   4.208   3.918   1.997  0.5241 -2.4943  1.5045
13650TIP3    H262442   4.164   3.815   1.896 -0.8463  0.1128 -0.6612
13651TIP3   OH262443   4.029   6.996   2.758  0.2164  0.4956 -0.0449
13651TIP3    H162444   3.948   6.974   2.804 -0.3460  0.0403 -1.2093
13651TIP3    H262445   4.077   7.051   2.819 -0.1407 -0.7168  1.3872
13652TIP3   OH262446   2.021   6.050  14.272 -0.7066 -0.6816 -0.4319
13652TIP3    H162447   2.053   6.010  14.352 -1.9999  0.3831  0.6630
13652TIP3    H262448   2.098   6.056  14.216  0.0810 -2.0866  0.4294
13653TIP3   OH262449   3.858   1.504   3.639  0.0229  0.3298 -0.0839
13653TIP3    H162450   3.897   1.464   3.562 -1.7559  1.8268 -1.8811
13653TIP3    H262451   3.932   1.528   3.695  1.2562 -2.6974 -0.2785
13654TIP3   OH262452   1.763   4.377   2.064 -0.2416 -0.2237  0.2461
13654TIP3    H162453   1.781   4.296   2.017  0.2171  0.1907 -0.3142
13654TIP3    H262454   1.763   4.352   2.156  0.4366 -0.7685  0.1130
13655TIP3   OH262455   0.644   3.685   3.588 -0.0327  0.3264  0.0408
13655TIP3    H162456   0.610   3.643   3.667 -2.6654  0.1033 -1.1084
13655TIP3    H262457   0.648   3.778   3.610 -0.8570  0.2779  0.4142
13656TIP3   OH262458   2.526   5.857  12.582 -0.4598  0.0567 -0.5459
13656TIP3    H162459   2.520   5.947  12.550  1.1275  0.6475  0.6424
13656TIP3    H262460   2.460   5.851  12.651  0.4213  0.8255  0.3978
13657TIP3   OH262461   4.891   0.204   3.802 -0.5884 -0.0131  0.1545
13657TIP3    H162462   4.842   0.130   3.768  0.4141  0.0651 -1.5708
13657TIP3    H262463   4.892   0.192   3.897  0.0434 -2.5314 -0.1182
13658TIP3   OH262464   3.375   6.232  14.969 -0.1584  0.7226  0.0709
13658TIP3    H162465   3.400   6.290  14.896 -0.7233  0.9032  0.0140
13658TIP3    H262466   3.319   6.166  14.929 -1.0757  1.2500  0.4641
13659TIP3   OH262467   0.313   4.573   2.893 -0.1722  0.5919 -0.0326
13659TIP3    H162468   0.288   4.665   2.897  1.0033  0.9509 -0.4839
13659TIP3    H262469   0.231   4.526   2.879 -0.6641  1.6606 -0.9131
13660TIP3   OH262470   0.154   0.425   4.138 -0.0941 -0.0647 -0.3638
13660TIP3    H162471   0.073   0.463   4.171 -0.2029  0.5698 -1.3201
13660TIP3    H262472   0.193   0.382   4.214 -0.5422  0.9666  0.4801
13661TIP3   OH262473   1.840   5.904   5.658  0.8164  0.2376 -0.8773
13661TIP3    H162474   1.865   5.825   5.610  2.6304  0.2073  0.0489
13661TIP3    H262475   1.746   5.913   5.641  1.2122 -0.1966 -3.7480
13662TIP3   OH262476   2.881   5.326   4.336  0.1757  0.6065 -0.1272
13662TIP3    H162477   2.869   5.346   4.243  0.5888 -0.5307 -0.4511
13662TIP3    H262478   2.803   5.361   4.379 -1.0649 -0.6981 -1.2162
13663TIP3   OH262479   2.063   0.210   2.077 -0.3718 -0.3475 -0.1206
13663TIP3    H162480   1.995   0.249   2.131  1.2119 -0.1687  1.8826
13663TIP3    H262481   2.134   0.273   2.078 -0.1909 -0.4451 -2.3145
13664TIP3   OH262482   3.028   5.722   1.365 -0.1773 -0.5518  0.1010
13664TIP3    H162483   3.005   5.678   1.283 -2.6764  0.3819  0.2198
13664TIP3    H262484   2.997   5.663   1.433  0.0056 -0.3868  0.3264
13665TIP3   OH262485   5.199   5.448  13.003 -0.2108  0.2409 -0.1729
13665TIP3    H162486   5.123   5.499  12.976  0.3588  0.5923 -1.1778
13665TIP3    H262487   5.186   5.432  13.096 -1.5299  0.2578 -0.3374
13666TIP3   OH262488   0.673   2.374   4.887 -0.2156 -0.1684  0.0420
13666TIP3    H162489   0.676   2.343   4.977 -1.2030 -1.8523 -0.4418
13666TIP3    H262490   0.619   2.452   4.889 -1.2615 -0.8941  0.7569
13667TIP3   OH262491   1.150   1.180   2.559 -0.4993  0.2398 -0.1237
13667TIP3    H162492   1.095   1.147   2.629  1.1938 -0.6855  0.8235
13667TIP3    H262493   1.095   1.174   2.480 -1.7190 -0.6552  0.7633
13668TIP3   OH262494   2.424   1.412   1.173  0.2848 -0.1101 -0.2053
13668TIP3    H162495   2.337   1.444   1.197  0.4039  1.4136 -1.5682
13668TIP3    H262496   2.407   1.335   1.119 -0.1734 -0.3784  0.3153
13669TIP3   OH262497   4.271   1.192   5.239 -0.7126  0.4963  0.7850
13669TIP3    H162498   4.229   1.114   5.202  0.0973  0.3063  0.2430
13669TIP3    H262499   4.315   1.160   5.318  0.2047  0.2438  0.1885
13670TIP3   OH262500   6.730   0.352   3.579 -0.1547  0.4587 -0.0925
13670TIP3    H162501   6.739   0.441   3.614  0.5688 -0.2917  1.7568
13670TIP3    H262502   6.818   0.315   3.586 -0.6067 -0.6555 -0.1326
13671TIP3   OH262503   1.264   2.775   2.255 -0.0457  0.0106  0.2600
13671TIP3    H162504   1.244   2.868   2.249  2.6700  0.5941 -1.8136
13671TIP3    H262505   1.185   2.735   2.293 -1.6730  2.9689  0.2448
13672TIP3   OH262506   2.197   1.257   3.807 -0.8648 -0.1144 -0.3719
13672TIP3    H162507   2.206   1.347   3.774 -2.7684  0.7553  1.2991
13672TIP3    H262508   2.164   1.208   3.731 -1.6763  1.0370 -0.8007
13673TIP3   OH262509   5.488   6.451  13.478  0.9354  0.0914  0.0221
13673TIP3    H162510   5.428   6.464  13.404 -0.8517  0.7730  1.5249
13673TIP3    H262511   5.527   6.537  13.493  1.3036 -0.0485 -0.1311
13674TIP3   OH262512   2.670   1.092   0.113 -0.1899 -0.2043 -0.7097
13674TIP3    H162513   2.723   1.126   0.185 -0.6949 -0.6890 -0.0991
13674TIP3    H262514   2.656   1.168   0.056 -0.0068  0.2442 -0.1679
13675TIP3   OH262515   2.514   0.144  14.435 -0.3168 -0.4984  0.1393
13675TIP3    H162516   2.451   0.085  14.475  1.7750 -1.3055  2.4530
13675TIP3    H262517   2.594   0.092  14.424  0.8225  1.2084 -0.1348
13676TIP3   OH262518   0.310   0.279  11.699  0.2961 -0.2075 -0.4219
13676TIP3    H162519   0.374   0.234  11.643  2.0361  1.7513 -0.1384
13676TIP3    H262520   0.240   0.304  11.639  1.0865 -0.0568 -1.3110
13677TIP3   OH262521   2.578   0.826   2.287 -0.1058 -0.1071  0.5868
13677TIP3    H162522   2.651   0.799   2.344  0.4501 -0.6699 -0.3686
13677TIP3    H262523   2.549   0.910   2.323  2.8527  1.5905 -0.6401
13678TIP3   OH262524   0.629   7.130   3.359  0.5830  0.4447 -0.3446
13678TIP3    H162525   0.599   7.215   3.392  0.4771  0.5651 -0.7422
13678TIP3    H262526   0.632   7.141   3.264 -0.0986 -0.2205 -0.4529
13679TIP3   OH262527   3.915   2.382   0.230 -0.4376  0.1650 -0.2646
13679TIP3    H162528   3.843   2.418   0.178  1.0589  1.3998 -1.5700
13679TIP3    H262529   3.923   2.441   0.304 -1.1495 -0.3441  0.2356
13680TIP3   OH262530   2.590   5.866   5.159 -0.9863 -0.1591 -0.9140
13680TIP3    H162531   2.538   5.943   5.183 -0.2958 -0.1774  0.8173
13680TIP3    H262532   2.679   5.901   5.150 -0.8195 -0.5974 -0.9742
13681TIP3   OH262533   3.293   0.342   4.635  0.2604  0.0669  0.0646
13681TIP3    H162534   3.305   0.313   4.544  0.0124  0.8223 -0.2191
13681TIP3    H262535   3.354   0.288   4.686 -0.9759 -1.7257 -0.2810
13682TIP3   OH262536   2.752   6.848  14.740  0.4918 -0.4674  0.2622
13682TIP3    H162537   2.819   6.844  14.810 -0.3852 -0.2824  1.1337
13682TIP3    H262538   2.722   6.939  14.741  0.3761 -0.4962 -0.2813
13683TIP3   OH262539   2.664   5.491   4.719 -0.0873  0.2191  0.0240
13683TIP3    H162540   2.725   5.418   4.726 -1.0697 -0.8508 -1.6464
13683TIP3    H262541   2.702   5.560   4.773  1.3651 -1.1943  0.9008
13684TIP3   OH262542   0.492   5.260   2.244  0.0827  0.1987  0.3965
13684TIP3    H162543   0.550   5.263   2.320 -1.2301 -0.0476  1.4511
13684TIP3    H262544   0.500   5.170   2.212 -2.0530 -0.8581  2.5120
13685TIP3   OH262545   1.696   5.376  12.668 -0.0983 -0.1705 -0.2210
13685TIP3    H162546   1.708   5.438  12.740 -2.3509 -1.6254  1.5261
13685TIP3    H262547   1.651   5.427  12.601  1.3019  0.9867 -0.3426
13686TIP3   OH262548   4.770   3.300   3.815 -0.7170  0.8058 -0.9071
13686TIP3    H162549   4.742   3.284   3.725 -0.9174  1.0962 -0.8969
13686TIP3    H262550   4.818   3.220   3.840 -0.6100  0.7494 -1.2885
13687TIP3   OH262551   6.881   4.694   1.329 -0.3319  0.6461  0.1837
13687TIP3    H162552   6.970   4.659   1.329  0.3804  2.3739  0.2752
13687TIP3    H262553   6.835   4.641   1.264  1.0038  0.2969 -0.5144
13688TIP3   OH262554   4.106   4.715   0.593 -0.6822 -0.7054 -0.5457
13688TIP3    H162555   4.190   4.748   0.561  0.5979 -1.2908  1.9591
13688TIP3    H262556   4.054   4.794   0.609 -0.1651 -0.2696 -0.9719
13689TIP3   OH262557   1.507   7.248   2.034 -0.2049  0.1655  0.2543
13689TIP3    H162558   1.465   7.164   2.016  0.3785  0.1078 -0.8921
13689TIP3    H262559   1.434   7.306   2.058 -0.8147 -0.2401 -0.5468
13690TIP3   OH262560   6.651   1.177   2.182  0.9022 -0.2582  0.4150
13690TIP3    H162561   6.726   1.207   2.233  1.5537 -1.5006  0.2030
13690TIP3    H262562   6.674   1.089   2.154 -0.4035 -0.4482 -0.1266
13691TIP3   OH262563   3.809   2.052   4.520 -0.2050  0.5127 -0.1437
13691TIP3    H162564   3.764   1.970   4.499  0.7538  0.3567 -1.7282
13691TIP3    H262565   3.853   2.077   4.439 -0.2446  2.4644  0.3906
13692TIP3   OH262566   5.523   1.465   3.092  0.4813 -0.2000  0.4622
13692TIP3    H162567   5.457   1.423   3.147  0.2248  0.3674  0.6002
13692TIP3    H262568   5.607   1.440   3.131  0.3266 -0.4142  0.6598
13693TIP3   OH262569   4.422   6.553   1.261 -0.0872 -0.4538  0.0982
13693TIP3    H162570   4.367   6.580   1.335 -1.2456 -0.8591 -0.5927
13693TIP3    H262571   4.497   6.510   1.301 -0.7636 -0.7893  1.0324
13694TIP3   OH262572   2.689   6.125   4.223  0.2710  0.0783  0.1775
13694TIP3    H162573   2.731   6.209   4.206 -0.2690  0.9768  2.9256
13694TIP3    H262574   2.720   6.099   4.310 -2.2399 -0.8376  0.8769
13695TIP3   OH262575   1.077   2.107   5.357 -0.4961 -0.1225  0.0391
13695TIP3    H162576   1.151   2.162   5.332 -1.1124  0.5448 -0.3564
13695TIP3    H262577   1.015   2.116   5.285 -1.7565  0.8183  1.1822
13696TIP3   OH262578   0.402   0.468   2.997 -0.1829  0.2275  0.1463
13696TIP3    H162579   0.337   0.404   3.025  0.1911 -1.1704 -1.9022
13696TIP3    H262580   0.486   0.426   3.015  0.0647 -0.0000 -1.3584
13697TIP3   OH262581   1.422   6.969   2.387 -0.2755  0.1395  0.7129
13697TIP3    H162582   1.387   7.052   2.356 -0.7045 -0.4127 -0.3053
13697TIP3    H262583   1.506   6.961   2.344 -1.3234 -1.1227 -1.2257
13698TIP3   OH262584   1.608   2.910   3.902 -0.4178  0.7194  0.2047
13698TIP3    H162585   1.599   2.986   3.844 -0.8020 -0.1807 -0.9655
13698TIP3    H262586   1.697   2.879   3.887 -1.5280 -1.5363 -2.6023
13699TIP3   OH262587   5.290   5.269  14.052  0.5211 -0.5016 -0.0550
13699TIP3    H162588   5.198   5.278  14.078  0.4200 -0.3829 -0.4327
13699TIP3    H262589   5.286   5.244  13.959  0.8593 -1.2210  0.1192
13700TIP3   OH262590   3.623   5.764   0.542  0.4504 -0.0189 -0.3187
13700TIP3    H162591   3.600   5.756   0.449 -0.2234 -0.3173 -0.1377
13700TIP3    H262592   3.558   5.825   0.577 -1.6107 -2.5753  0.6846
13701TIP3   OH262593   5.924   1.707   0.705  0.1465 -0.0254  0.0576
13701TIP3    H162594   5.848   1.739   0.656  0.4131  0.3504 -0.1185
13701TIP3    H262595   5.892   1.631   0.752 -0.2886  0.0100 -0.1757
13702TIP3   OH262596   2.166   5.229  13.572 -0.3157  0.1731 -0.8867
13702TIP3    H162597   2.155   5.310  13.521 -3.9083 -0.3705 -1.2608
13702TIP3    H262598   2.193   5.164  13.507 -1.1750  0.2808 -1.3618
13703TIP3   OH262599   1.118   1.477  10.863  0.1277 -0.2785  0.4611
13703TIP3    H162600   1.200   1.524  10.877  0.9443 -1.8769  1.2909
13703TIP3    H262601   1.071   1.531  10.799  0.6885  1.9962  1.8266
13704TIP3   OH262602   1.292   1.140   4.121  0.0255 -0.2498 -0.4049
13704TIP3    H162603   1.310   1.098   4.037  0.4037  1.2658 -1.1172
13704TIP3    H262604   1.240   1.217   4.098  1.1390  0.8357  0.6034
13705TIP3   OH262605   2.581   0.054  15.082  0.4677  0.2550 -0.4261
13705TIP3    H162606   2.548   0.122  15.023  1.4082  0.5991 -0.5735
13705TIP3    H262607   2.564  -0.028  15.035 -2.2991  0.1944  0.5177
13706TIP3   OH262608   6.911   3.409  12.374  0.0053 -0.2840 -0.0093
13706TIP3    H162609   6.882   3.471  12.307  1.2145  0.5115  0.1595
13706TIP3    H262610   6.865   3.328  12.354  1.1139 -0.4015 -2.4703
13707TIP3   OH262611   3.846   5.683  14.333 -0.3510 -0.6913 -0.2317
13707TIP3    H162612   3.789   5.745  14.287 -0.2293 -0.6054 -0.2684
13707TIP3    H262613   3.916   5.738  14.369  0.6463 -1.0083 -1.6352
13708TIP3   OH262614   2.873   4.131  11.540  0.0360  0.4957 -0.1679
13708TIP3    H162615   2.878   4.069  11.613 -0.8439 -0.6750 -1.0552
13708TIP3    H262616   2.950   4.111  11.487 -0.2432  0.1497 -0.4496
13709TIP3   OH262617   7.099   5.541   1.619 -0.2522 -0.1492 -0.2181
13709TIP3    H162618   7.145   5.458   1.607 -0.8424 -0.6517  0.8411
13709TIP3    H262619   7.169   5.607   1.624  0.3065 -0.7724  0.4072
13710TIP3   OH262620   4.792   1.534  13.117  0.0295  0.6275 -0.0637
13710TIP3    H162621   4.881   1.506  13.142 -1.1199 -1.1463  2.5407
13710TIP3    H262622   4.782   1.620  13.158  0.5616  0.8893 -0.4687
13711TIP3   OH262623   5.344   0.467   9.765  0.3340  0.1847  0.0482
13711TIP3    H162624   5.312   0.377   9.773 -0.1541  0.3613  0.0977
13711TIP3    H262625   5.280   0.511   9.708  0.2866  0.6389  0.4460
13712TIP3   OH262626   5.840   1.714  14.273  0.5373 -0.2323 -0.1209
13712TIP3    H162627   5.878   1.801  14.266  0.6896 -0.1849  1.1124
13712TIP3    H262628   5.903   1.664  14.325  0.7928 -1.2949 -1.3866
13713TIP3   OH262629   1.867   0.257   4.570  0.2252 -0.2829 -0.0945
13713TIP3    H162630   1.809   0.328   4.543  0.4797 -0.7353 -2.0317
13713TIP3    H262631   1.945   0.300   4.605  1.0577  0.5185 -2.6908
13714TIP3   OH262632   3.442   6.605   3.815 -0.1742 -0.4409  0.1690
13714TIP3    H162633   3.532   6.592   3.844  0.0624  1.0839  0.2147
13714TIP3    H262634   3.448   6.673   3.748 -1.1540 -1.2794 -0.8095
13715TIP3   OH262635   6.918   0.977   1.892  0.0740  0.6569 -0.1852
13715TIP3    H162636   6.912   0.888   1.858 -1.1093  0.0766  1.4516
13715TIP3    H262637   6.875   1.031   1.825 -2.1437 -0.4419  0.2607
13716TIP3   OH262638   5.980   2.829   2.508 -0.0234 -0.2416  0.9498
13716TIP3    H162639   5.970   2.734   2.503 -1.5807 -0.0353 -0.2522
13716TIP3    H262640   6.033   2.842   2.587  2.0821 -2.2041 -0.0109
13717TIP3   OH262641   5.180   4.938   4.653  0.1775  0.3093 -0.6671
13717TIP3    H162642   5.198   5.027   4.624 -1.3581  0.7520 -0.3320
13717TIP3    H262643   5.216   4.882   4.583  2.2409  1.0964 -0.3129
13718TIP3   OH262644   1.925   0.675   5.022 -0.9054 -0.2267 -0.7857
13718TIP3    H162645   1.884   0.741   5.079 -1.1043 -0.9856 -0.0172
13718TIP3    H262646   1.874   0.596   5.038  1.5918 -1.5695  1.2019
13719TIP3   OH262647   7.002   0.909   3.219 -0.0102 -0.9674  0.0615
13719TIP3    H162648   6.960   0.969   3.157 -1.0029 -1.7227 -0.0251
13719TIP3    H262649   6.933   0.885   3.280  0.7333 -0.9365  0.9316
13720TIP3   OH262650   0.116   6.614   2.241 -0.4525  0.1679 -0.1686
13720TIP3    H162651   0.101   6.702   2.205 -2.4703  0.0124  0.1719
13720TIP3    H262652   0.140   6.561   2.165  1.8168  1.1824 -0.2326
13721TIP3   OH262653   1.686   6.054   2.884 -0.0694 -0.4919 -0.6825
13721TIP3    H162654   1.743   6.008   2.945 -1.3030 -3.5181 -1.6519
13721TIP3    H262655   1.740   6.127   2.853  3.2401 -2.9163 -1.2331
13722TIP3   OH262656   6.117   4.398   4.755 -0.4225  0.2231 -0.1597
13722TIP3    H162657   6.057   4.466   4.725 -0.5247  0.2519  0.1051
13722TIP3    H262658   6.166   4.440   4.826 -0.7311 -0.0843  0.2424
13723TIP3   OH262659   3.028   0.737  12.517 -0.1436  0.0603  0.8358
13723TIP3    H162660   3.044   0.784  12.599  0.0047  1.5401 -0.0033
13723TIP3    H262661   2.945   0.771  12.486  0.2105  0.1380 -0.0471
13724TIP3   OH262662   1.565   0.513  13.923 -0.0922  0.2232 -0.6328
13724TIP3    H162663   1.657   0.535  13.911  0.1824 -0.8385 -0.6313
13724TIP3    H262664   1.563   0.417  13.916 -1.2402  0.2591 -0.9244
13725TIP3   OH262665   0.070   0.403   0.754 -0.0125 -0.1742 -0.2742
13725TIP3    H162666   0.106   0.491   0.747 -0.0195 -0.0596  1.0002
13725TIP3    H262667   0.002   0.410   0.821 -1.0261 -0.8328 -1.1939
13726TIP3   OH262668   2.030   6.229  12.939 -0.4247 -0.8491  0.0259
13726TIP3    H162669   1.971   6.194  12.873 -1.0272 -1.2570  0.7722
13726TIP3    H262670   2.116   6.230  12.896 -0.7683 -1.3219 -0.6833
13727TIP3   OH262671   4.850   6.073   4.752  0.1690 -0.6528 -0.1958
13727TIP3    H162672   4.941   6.044   4.752 -0.1529 -1.7908 -1.8337
13727TIP3    H262673   4.853   6.161   4.791  1.7394 -1.2399  1.1166
13728TIP3   OH262674   5.927   0.534   5.309 -0.4083 -0.1413  0.4980
13728TIP3    H162675   6.020   0.512   5.307 -0.9192 -2.6672  1.3723
13728TIP3    H262676   5.921   0.607   5.370  1.2293  1.7740 -1.4396
13729TIP3   OH262677   2.269   6.452   0.989 -1.1217 -0.2577 -0.3472
13729TIP3    H162678   2.347   6.467   1.042 -1.3931  0.0350 -0.0267
13729TIP3    H262679   2.289   6.374   0.938 -1.3858 -1.3977  1.2184
13730TIP3   OH262680   2.646   6.407   5.512 -0.6071  0.3925 -0.3396
13730TIP3    H162681   2.724   6.366   5.475  0.5727  1.6466  0.6108
13730TIP3    H262682   2.586   6.335   5.529  0.7870 -0.7655 -0.0905
13731TIP3   OH262683   0.178   3.194  14.523  0.3979 -0.4565 -0.3412
13731TIP3    H162684   0.157   3.182  14.616  1.3700  2.0474  0.2778
13731TIP3    H262685   0.093   3.189  14.478 -0.2795 -0.1919  0.8690
13732TIP3   OH262686   6.576   3.700   1.576  0.0143 -0.2392 -0.0878
13732TIP3    H162687   6.653   3.732   1.530  0.8996 -1.2895  0.6208
13732TIP3    H262688   6.533   3.641   1.513  0.4451 -0.5720 -0.0721
13733TIP3   OH262689   1.516   6.878  14.308  0.3079  0.3503  0.1830
13733TIP3    H162690   1.459   6.865  14.383  0.9899 -0.6578  0.5406
13733TIP3    H262691   1.467   6.937  14.251 -1.3929 -1.0157  0.1607
13734TIP3   OH262692   4.062   3.816  10.234 -0.1758 -0.1841 -0.0017
13734TIP3    H162693   4.037   3.788  10.146 -0.0180 -0.2792 -0.0149
13734TIP3    H262694   4.127   3.753  10.263 -0.1646 -0.1040  0.1512
13735TIP3   OH262695   0.968   3.329   4.961 -0.2171 -0.8839  0.1404
13735TIP3    H162696   0.985   3.333   4.867  0.1321 -0.5764  0.2153
13735TIP3    H262697   1.047   3.289   4.998 -0.2621 -0.8004  0.3303
13736TIP3   OH262698   5.760   3.594   2.649  0.8045  0.4186 -0.6695
13736TIP3    H162699   5.818   3.561   2.718 -0.0889  0.5847  0.1871
13736TIP3    H262700   5.708   3.661   2.692  0.4122  0.7131 -1.5858
13737TIP3   OH262701   4.332   1.521   0.778 -0.2139 -0.1128 -0.0249
13737TIP3    H162702   4.284   1.458   0.724  2.7905 -0.6279 -2.3408
13737TIP3    H262703   4.327   1.603   0.730 -1.3045  0.6584  1.3193
13738TIP3   OH262704   3.087   4.006   0.607  0.0119  0.6330  0.2187
13738TIP3    H162705   3.046   3.940   0.552 -0.9837  0.2553  1.3523
13738TIP3    H262706   3.014   4.043   0.657  0.9248  0.6208  1.6146
13739TIP3   OH262707   4.803   4.100   2.684  0.5330 -0.2526  0.0826
13739TIP3    H162708   4.869   4.118   2.750  1.2553 -1.6734 -0.2050
13739TIP3    H262709   4.770   4.186   2.659  1.1753  0.3886  1.3303
13740TIP3   OH262710   0.718   6.871   3.901  0.4558 -0.0641  0.5340
13740TIP3    H162711   0.749   6.790   3.859 -0.4424  0.3061 -0.9160
13740TIP3    H262712   0.789   6.895   3.961  1.1213 -1.4521  0.3513
13741TIP3   OH262713   4.478   0.135   2.958  0.5045  0.2405  0.2470
13741TIP3    H162714   4.513   0.208   3.010  1.2448  0.0046  0.0839
13741TIP3    H262715   4.403   0.174   2.912  1.4838  1.1925 -0.6147
13742TIP3   OH262716   0.094   6.942   4.054  0.5001  0.1629  0.5716
13742TIP3    H162717   0.113   6.904   3.968  0.7779  0.2862  0.5785
13742TIP3    H262718   0.070   6.867   4.108 -3.5392  0.3685 -0.5744
13743TIP3   OH262719   2.172   1.405   5.708  0.0387 -0.6776  0.1406
13743TIP3    H162720   2.262   1.375   5.693  0.0020 -1.1200  0.7425
13743TIP3    H262721   2.118   1.343   5.659  0.1411  0.9347 -2.1356
13744TIP3   OH262722   3.293   3.521   1.434 -0.3841 -0.4011  0.2340
13744TIP3    H162723   3.376   3.482   1.461  0.2651 -0.6261 -1.8979
13744TIP3    H262724   3.314   3.613   1.418 -0.7232 -0.2899  0.4352
13745TIP3   OH262725   3.368   2.067   5.905  0.1053 -0.0368  0.0621
13745TIP3    H162726   3.296   2.058   5.842  0.0579 -1.1713  0.2703
13745TIP3    H262727   3.326   2.096   5.986 -0.5173 -2.9626  0.8958
13746TIP3   OH262728   6.577   3.837  12.746  0.5269  0.2056  0.0307
13746TIP3    H162729   6.573   3.777  12.672 -0.7848  1.7256 -1.2011
13746TIP3    H262730   6.540   3.787  12.819 -1.3734 -0.2407 -1.1651
13747TIP3   OH262731   3.632   3.889  14.395 -0.5222  0.4011  0.1146
13747TIP3    H162732   3.616   3.800  14.363  0.2903  0.7362 -1.3316
13747TIP3    H262733   3.727   3.895  14.403 -0.5155  1.3207 -0.4552
13748TIP3   OH262734   6.975   6.935   1.388 -0.0010 -0.1039  0.7785
13748TIP3    H162735   7.002   6.968   1.302  2.1655 -2.8750  0.2627
13748TIP3    H262736   7.027   6.985   1.451 -1.3153  1.6613  0.5451
13749TIP3   OH262737   7.141   3.899   3.138 -0.3008 -0.4118  0.5790
13749TIP3    H162738   7.164   3.953   3.063  0.3569  1.3872  2.0223
13749TIP3    H262739   7.048   3.919   3.154  0.0024  0.5203  1.2552
13750TIP3   OH262740   1.552   1.075   1.332 -0.4133 -0.7639 -0.1805
13750TIP3    H162741   1.467   1.038   1.355  0.0629 -1.6794  0.1473
13750TIP3    H262742   1.594   1.091   1.416 -0.5462  0.4136 -0.3172
13751TIP3   OH262743   5.711   6.070   2.261 -0.6169  0.1699 -0.5343
13751TIP3    H162744   5.648   6.011   2.220 -1.2131  1.2690 -1.2527
13751TIP3    H262745   5.720   6.142   2.199 -0.2021  1.0227  0.4859
13752TIP3   OH262746   2.021   3.583   4.348  0.0108  0.1525  0.5624
13752TIP3    H162747   2.049   3.526   4.419 -0.9568  0.5246  1.2696
13752TIP3    H262748   1.967   3.527   4.292  0.2092  0.0293  0.4949
13753TIP3   OH262749   6.349   6.912  14.933  0.0592  0.0269 -0.2294
13753TIP3    H162750   6.371   6.994  14.889  0.8885 -0.2963 -0.4341
13753TIP3    H262751   6.312   6.939  15.017  0.5248  0.6053 -0.2059
13754TIP3   OH262752   2.086   0.916   4.068 -0.2988 -0.2912 -0.5646
13754TIP3    H162753   2.110   1.002   4.101  2.1572 -1.0156 -0.2880
13754TIP3    H262754   2.087   0.925   3.972  0.3330 -0.0864 -0.5437
13755TIP3   OH262755   1.780   5.531   1.712  0.4801 -0.4608  0.3603
13755TIP3    H162756   1.704   5.488   1.751  0.5525  0.1687  1.2262
13755TIP3    H262757   1.774   5.622   1.740  2.1461 -0.6244  1.4250
13756TIP3   OH262758   3.063   1.659   1.304 -0.1690 -0.2587  0.0696
13756TIP3    H162759   3.024   1.597   1.242 -1.6020 -0.4518  1.0934
13756TIP3    H262760   3.156   1.640   1.302 -0.2177 -0.4752 -1.7633
13757TIP3   OH262761   6.796   5.207  14.852  0.1369  0.1252 -0.7547
13757TIP3    H162762   6.796   5.289  14.900 -1.6233  0.1930 -0.8065
13757TIP3    H262763   6.824   5.142  14.916  1.2703  0.6966 -0.6393
13758TIP3   OH262764   2.134   6.920  14.842 -0.2206  0.5460  0.4135
13758TIP3    H162765   2.044   6.935  14.869 -0.3043 -0.7397  0.9310
13758TIP3    H262766   2.127   6.884  14.753 -0.1371  1.4839  0.0120
13759TIP3   OH262767   6.095   5.128   1.312  0.4605  0.4753  0.2539
13759TIP3    H162768   6.129   5.184   1.242  2.1332 -0.9416 -0.1209
13759TIP3    H262769   6.158   5.138   1.384  1.6124 -1.9408 -0.3255
13760TIP3   OH262770   5.660   1.430  15.027 -0.2507 -0.2625  0.1959
13760TIP3    H162771   5.738   1.484  15.020 -1.4975  1.9806  2.2174
13760TIP3    H262772   5.618   1.438  14.941  1.1569 -0.6498 -0.5620
13761TIP3   OH262773   5.498   2.358   1.989 -0.8783  0.0598 -0.1296
13761TIP3    H162774   5.585   2.373   1.954 -0.9431  1.1586  0.1487
13761TIP3    H262775   5.491   2.263   1.997  0.0978 -0.0610 -0.6214
13762TIP3   OH262776   2.213   4.848  14.830  0.4154  0.1764  0.1841
13762TIP3    H162777   2.288   4.899  14.861 -0.3277 -0.0634  2.6021
13762TIP3    H262778   2.246   4.800  14.755  2.0335  1.7877 -0.2117
13763TIP3   OH262779   4.607   2.199  14.880  0.0492 -0.1660  0.1128
13763TIP3    H162780   4.700   2.185  14.865  0.0370 -0.1431  0.0110
13763TIP3    H262781   4.599   2.213  14.974  0.0027 -1.3377  0.3019
13764TIP3   OH262782   4.377   4.125  14.332  0.2118  0.3446  0.3321
13764TIP3    H162783   4.335   4.158  14.253  0.1466  0.2610  0.3332
13764TIP3    H262784   4.310   4.133  14.400  0.3507  0.6648  0.4356
13765TIP3   OH262785   6.785   4.049   5.850 -0.1743 -0.0929 -0.1984
13765TIP3    H162786   6.721   4.101   5.802 -1.6903 -1.0581  0.6992
13765TIP3    H262787   6.735   4.006   5.919  1.1494 -2.1030 -0.3952
13766TIP3   OH262788   4.946   3.282   4.900 -0.0210 -0.1354  0.0208
13766TIP3    H162789   4.974   3.371   4.921 -0.5889 -0.1008  0.6693
13766TIP3    H262790   4.911   3.247   4.982  1.6834 -1.5649  0.2116
13767TIP3   OH262791   0.300   0.158   2.023  0.2266  0.0040  0.6788
13767TIP3    H162792   0.312   0.083   2.081  0.9217 -0.4626 -0.0410
13767TIP3    H262793   0.253   0.122   1.948 -1.3421  0.7596  1.2519
13768TIP3   OH262794   6.677   0.536  13.918  0.1483 -0.3354 -0.0313
13768TIP3    H162795   6.600   0.592  13.906 -0.1525 -1.0683 -1.9838
13768TIP3    H262796   6.645   0.460  13.966 -0.5027 -0.8437 -1.2095
13769TIP3   OH262797   4.650   1.895   3.269 -0.1723  0.5457  0.0295
13769TIP3    H162798   4.566   1.858   3.241  0.1749 -0.1896 -0.0813
13769TIP3    H262799   4.627   1.972   3.321 -0.9591 -0.2408  0.8825
13770TIP3   OH262800   1.210   1.123   0.992 -0.2811  0.1592 -0.0341
13770TIP3    H162801   1.303   1.103   1.008  0.2859  0.6175 -2.4193
13770TIP3    H262802   1.211   1.188   0.922 -2.4227  0.4980  0.1855
13771TIP3   OH262803   3.646   0.722   4.046 -0.4023  0.3440 -0.5077
13771TIP3    H162804   3.647   0.656   4.116 -1.9631 -0.2264 -0.9684
13771TIP3    H262805   3.620   0.803   4.091  0.9099  0.5408 -0.0493
13772TIP3   OH262806   3.359   6.466   3.470  0.9659  0.2610 -0.7959
13772TIP3    H162807   3.447   6.491   3.496  2.0938 -2.6028 -1.4532
13772TIP3    H262808   3.365   6.372   3.451 -1.4583  0.5655 -3.9478
13773TIP3   OH262809   0.608   1.016  10.372  0.0031  0.2950 -0.0257
13773TIP3    H162810   0.648   1.093  10.412  0.9697  0.6092 -1.5220
13773TIP3    H262811   0.539   0.991  10.433  1.7650  0.3629  2.1368
13774TIP3   OH262812   6.955   1.856   2.177  0.0350 -0.4709  0.2568
13774TIP3    H162813   7.032   1.868   2.233 -0.6061 -2.2457  1.6150
13774TIP3    H262814   6.885   1.830   2.238 -1.1964 -0.6017 -1.1503
13775TIP3   OH262815   2.652   4.994   2.022  0.2409 -0.2543 -0.1513
13775TIP3    H162816   2.580   5.056   2.009  0.6867  0.0621 -1.2110
13775TIP3    H262817   2.703   5.030   2.094 -1.5453 -1.3393  1.7691
13776TIP3   OH262818   1.356   5.804   2.419  0.1393  0.3628  0.3552
13776TIP3    H162819   1.293   5.800   2.347 -2.2314 -1.1685  2.3437
13776TIP3    H262820   1.437   5.768   2.382 -1.1150 -0.7928 -1.4265
13777TIP3   OH262821   3.774   6.947   2.968 -0.1311  0.6248 -0.3925
13777TIP3    H162822   3.692   6.918   2.928 -0.1382  1.7385 -1.2485
13777TIP3    H262823   3.803   6.872   3.020 -0.9956 -0.2737 -1.1510
13778TIP3   OH262824   0.067   4.350   1.227  0.1702 -0.2464 -0.7597
13778TIP3    H162825   0.054   4.292   1.302 -0.2984  0.8896  0.0599
13778TIP3    H262826   0.138   4.409   1.253 -1.1403  1.2761 -0.4766
13779TIP3   OH262827   3.787   4.095  11.610 -0.1116  0.5606 -0.5218
13779TIP3    H162828   3.865   4.043  11.627  0.2523  1.5435  0.9841
13779TIP3    H262829   3.820   4.177  11.574 -0.4587  0.8692 -0.1483
13780TIP3   OH262830   0.167   6.979   4.869  1.2263 -0.2429  0.0681
13780TIP3    H162831   0.219   6.995   4.791 -2.9007  1.6615 -2.6426
13780TIP3    H262832   0.168   7.061   4.917 -0.1491  0.2238 -0.6589
13781TIP3   OH262833   3.206   6.160   3.756 -0.7054  0.2709 -0.0795
13781TIP3    H162834   3.118   6.128   3.777 -1.3686  1.4936 -0.8378
13781TIP3    H262835   3.204   6.253   3.779  0.2814  0.3928 -0.4347
13782TIP3   OH262836   1.827   3.240   0.022  0.2545  0.1890  0.1595
13782TIP3    H162837   1.770   3.164   0.030  0.4305  0.1050  0.6301
13782TIP3    H262838   1.852   3.242  -0.071 -0.4825  0.2087 -0.0386
13783TIP3   OH262839   2.910   6.572  10.290 -0.0376  0.1161  0.2563
13783TIP3    H162840   2.992   6.621  10.280 -0.4207  0.4868 -1.4238
13783TIP3    H262841   2.937   6.480  10.289  0.4275  0.2494  0.4251
13784TIP3   OH262842   4.435   5.319  13.770 -0.0944 -0.4095 -0.1408
13784TIP3    H162843   4.521   5.280  13.783 -0.4927 -0.6321  2.1194
13784TIP3    H262844   4.373   5.252  13.799 -0.9928  0.2162 -0.5507
13785TIP3   OH262845   0.929   6.150   2.894 -0.4548 -0.6946  1.3098
13785TIP3    H162846   0.986   6.226   2.908 -1.0006  0.0296 -0.1400
13785TIP3    H262847   0.990   6.079   2.871 -0.0757 -0.0304  0.1619
13786TIP3   OH262848   1.224   7.176  11.138  0.6168  0.6700  0.3039
13786TIP3    H162849   1.165   7.201  11.209  1.0718 -2.8703  2.1681
13786TIP3    H262850   1.306   7.222  11.156  0.5030  0.3546  1.6799
13787TIP3   OH262851   0.046   4.430   4.813  0.0814 -0.1587 -0.4450
13787TIP3    H162852   0.039   4.392   4.901 -1.2244  0.6902 -0.1461
13787TIP3    H262853  -0.029   4.393   4.766  0.9180 -0.8074 -1.3000
13788TIP3   OH262854   0.734   3.801  14.714  0.6810  0.1070 -0.3734
13788TIP3    H162855   0.811   3.794  14.657 -0.1756  0.0597 -1.5542
13788TIP3    H262856   0.759   3.753  14.793  2.1563  0.7622 -0.4065
13789TIP3   OH262857   3.831   0.520   3.346  0.0581  0.5078 -1.0150
13789TIP3    H162858   3.804   0.612   3.355  0.5973  0.5374  0.5896
13789TIP3    H262859   3.846   0.491   3.436  0.6963 -0.9206 -1.5628
13790TIP3   OH262860   4.233   1.272   5.802  0.4711  0.8387 -0.5139
13790TIP3    H162861   4.328   1.267   5.814  0.3781  0.7488  0.1810
13790TIP3    H262862   4.200   1.187   5.832  0.0082  1.4623  0.7975
13791TIP3   OH262863   3.739   4.177   2.651  0.1967 -0.2531  0.5113
13791TIP3    H162864   3.817   4.122   2.641 -0.8842 -1.8322  0.4695
13791TIP3    H262865   3.728   4.218   2.566  0.0854 -1.2837  0.0133
13792TIP3   OH262866   5.822   0.862   0.809  0.4661  0.4312  0.0927
13792TIP3    H162867   5.890   0.848   0.744  0.5361  0.2428  0.2062
13792TIP3    H262868   5.746   0.815   0.775  0.3420  0.7763 -0.1139
13793TIP3   OH262869   5.680   5.621   2.707 -0.3462  0.2105  0.2697
13793TIP3    H162870   5.710   5.687   2.770  2.6588 -0.2093 -0.5477
13793TIP3    H262871   5.647   5.672   2.633  0.7056  0.8427  0.2017
13794TIP3   OH262872   2.148   0.171   3.097 -0.0267 -0.2918 -0.4224
13794TIP3    H162873   2.220   0.122   3.057 -0.0895 -0.6907 -0.0516
13794TIP3    H262874   2.070   0.141   3.050  0.0342  0.0727 -0.7618
13795TIP3   OH262875   3.769   4.845  12.049  0.1156 -0.2808  0.0519
13795TIP3    H162876   3.829   4.777  12.021 -0.0768 -0.0179 -1.0457
13795TIP3    H262877   3.691   4.832  11.995 -0.3854  0.0678  0.6726
13796TIP3   OH262878   6.956   6.488   0.886 -0.0647  1.0089 -0.2444
13796TIP3    H162879   7.037   6.474   0.837  0.7433 -0.7340  1.4571
13796TIP3    H262880   6.889   6.443   0.834  0.5015  0.4039 -0.4652
13797TIP3   OH262881   1.925   7.188  14.225 -0.1683 -0.0503  0.0630
13797TIP3    H162882   1.866   7.182  14.300  0.0693 -0.2338  0.2379
13797TIP3    H262883   1.992   7.121  14.242  0.8422  1.0462  0.5238
13798TIP3   OH262884   5.782   6.987  14.297  0.3545 -0.3137  0.2140
13798TIP3    H162885   5.871   7.020  14.287  1.6023 -2.6653  2.3188
13798TIP3    H262886   5.726   7.056  14.261  3.0273  0.7436 -2.2554
13799TIP3   OH262887   3.618   4.707   5.969  0.1302  0.1721 -0.4520
13799TIP3    H162888   3.636   4.687   5.877  1.0314 -0.4631 -0.1504
13799TIP3    H262889   3.658   4.792   5.984  2.3730 -0.8760  0.0061
13800TIP3   OH262890   3.791   0.997  15.173 -0.5224 -0.0595  0.4929
13800TIP3    H162891   3.814   0.972  15.083 -3.0591  0.8028 -0.4936
13800TIP3    H262892   3.808   0.918  15.225  0.2867 -0.8344 -0.8840
13801TIP3   OH262893   5.209   0.107   3.951  0.2815  0.5604  0.0857
13801TIP3    H162894   5.193   0.089   3.859 -0.2235 -0.2999  0.3338
13801TIP3    H262895   5.292   0.062   3.971 -1.1158 -1.8797  0.7737
13802TIP3   OH262896   1.145   6.884   9.892  0.0096 -0.0351 -0.1498
13802TIP3    H162897   1.071   6.873   9.951  0.7578  0.3589  0.8782
13802TIP3    H262898   1.203   6.811   9.913 -0.1350 -0.4239 -1.0491
13803TIP3   OH262899   5.996   0.875   3.534  0.3951 -0.7932  0.1998
13803TIP3    H162900   5.914   0.826   3.534  1.1205 -2.0727  1.5101
13803TIP3    H262901   6.036   0.855   3.449 -0.1296 -1.0466  0.0062
13804TIP3   OH262902   1.146   6.558   0.125  0.3805 -0.1241  0.6289
13804TIP3    H162903   1.161   6.630   0.186  0.5894  0.9456 -0.6383
13804TIP3    H262904   1.050   6.553   0.117  0.3547  1.8790 -1.3239
13805TIP3   OH262905   1.073   3.064   4.781  0.1084 -0.6373  0.3215
13805TIP3    H162906   0.996   3.009   4.772  0.0383 -0.5518  0.3927
13805TIP3    H262907   1.123   3.050   4.701  0.6360 -1.6511  0.8232
13806TIP3   OH262908   6.438   2.771   5.110 -0.6789  0.1115 -0.3143
13806TIP3    H162909   6.507   2.836   5.098  0.3404 -0.5696  1.4568
13806TIP3    H262910   6.387   2.803   5.185 -2.7156  0.9173 -1.9606
13807TIP3   OH262911   6.689   4.430   3.460  0.3968  0.1468 -0.1479
13807TIP3    H162912   6.631   4.464   3.393  1.1731  1.0656 -0.3642
13807TIP3    H262913   6.772   4.476   3.447  1.0268 -0.7587  0.4796
13808TIP3   OH262914   3.927   4.221   1.155  0.1437  0.5429 -0.0353
13808TIP3    H162915   3.972   4.303   1.176 -2.3762  1.7111  1.2168
13808TIP3    H262916   3.930   4.171   1.237 -2.1758  1.3824  0.6456
13809TIP3   OH262917   0.800   5.156   4.485  0.0359  0.4437 -0.2047
13809TIP3    H162918   0.764   5.167   4.574  1.4792 -1.6037  0.7118
13809TIP3    H262919   0.838   5.241   4.464  0.4151  0.7515  1.5234
13810TIP3   OH262920   5.944   6.952   2.752 -0.3171  0.7017  0.0477
13810TIP3    H162921   6.030   6.980   2.783 -0.4553  1.8152 -0.5448
13810TIP3    H262922   5.893   7.032   2.745 -1.6015  0.0039  0.9262
13811TIP3   OH262923   4.310   0.329  10.978 -0.1079 -0.4195 -0.2334
13811TIP3    H162924   4.334   0.277  10.901 -0.4395 -1.2257  0.2037
13811TIP3    H262925   4.389   0.332  11.031 -0.0733 -0.4259 -0.2853
13812TIP3   OH262926   4.590   4.505   2.874 -0.5210  0.2155  0.5070
13812TIP3    H162927   4.501   4.525   2.846 -1.0857  1.1084  2.7083
13812TIP3    H262928   4.580   4.440   2.943  0.4486  0.8481  1.2781
13813TIP3   OH262929   2.373   5.205   4.702  0.0376 -0.3242  0.2965
13813TIP3    H162930   2.280   5.195   4.684  0.2448 -1.1441 -0.3973
13813TIP3    H262931   2.390   5.298   4.690 -0.8962  0.0253  1.4950
13814TIP3   OH262932   5.950   4.905   5.988  0.4233  0.4954 -0.6943
13814TIP3    H162933   5.868   4.914   6.036 -0.5131  0.8569 -2.2701
13814TIP3    H262934   5.968   4.811   5.988 -0.5342  0.2918 -1.1335
13815TIP3   OH262935   0.804   4.872   4.183  0.1437  0.2159  0.5376
13815TIP3    H162936   0.772   4.821   4.257  1.5352 -0.8285  0.4591
13815TIP3    H262937   0.814   4.809   4.112 -0.6252  1.1027 -0.3889
13816TIP3   OH262938   1.233   2.204   4.523  0.3580 -0.3666  0.0245
13816TIP3    H162939   1.171   2.271   4.551  0.6604 -0.2664  0.4738
13816TIP3    H262940   1.301   2.252   4.476 -0.0832 -0.5202 -0.7816
13817TIP3   OH262941   4.010   2.772   0.660 -0.0291  0.4201  0.2126
13817TIP3    H162942   3.997   2.687   0.702 -3.8146  0.5767 -0.2325
13817TIP3    H262943   4.027   2.751   0.568 -0.2828  0.1209  0.2317
13818TIP3   OH262944   6.427   4.283   2.485 -0.1946  0.6451 -0.3372
13818TIP3    H162945   6.427   4.280   2.390 -2.7945  2.7009 -0.5051
13818TIP3    H262946   6.364   4.352   2.508  0.4803  0.3799  2.8732
13819TIP3   OH262947   3.586   2.429   1.712 -0.3038  0.1031 -0.2159
13819TIP3    H162948   3.637   2.509   1.711 -2.1993  1.4116  0.6487
13819TIP3    H262949   3.507   2.451   1.762 -0.8701 -2.3237  0.1187
13820TIP3   OH262950   4.180   5.376   5.364  0.1677  0.3580 -0.3818
13820TIP3    H162951   4.108   5.374   5.300 -1.2436 -0.8914  1.1453
13820TIP3    H262952   4.223   5.291   5.354 -1.8363 -1.1049  2.1077
13821TIP3   OH262953   2.672   5.826   0.688 -0.3438  0.4036 -0.4586
13821TIP3    H162954   2.750   5.778   0.713 -1.2254 -1.1770 -0.6213
13821TIP3    H262955   2.702   5.916   0.675  1.1961  0.0966  0.6952
13822TIP3   OH262956   3.940   5.368   0.971 -0.3384  0.2851  0.1543
13822TIP3    H162957   3.945   5.278   1.003 -0.6436 -0.1309 -0.9201
13822TIP3    H262958   4.002   5.371   0.897  1.2011  1.5256  1.4215
13823TIP3   OH262959   5.869   6.672   5.562  0.2102  0.4090 -0.0889
13823TIP3    H162960   5.908   6.585   5.565 -1.0315 -0.1372  1.2064
13823TIP3    H262961   5.940   6.729   5.532  2.7641 -0.2109  3.9517
13824TIP3   OH262962   3.289   4.160   1.038  0.7868 -0.0228 -0.2642
13824TIP3    H162963   3.225   4.223   1.006  0.2508 -1.4009 -2.0565
13824TIP3    H262964   3.369   4.181   0.991  1.3556  0.8889  1.0386
13825TIP3   OH262965   2.311   4.507   3.738 -0.4373 -0.5922  0.6425
13825TIP3    H162966   2.298   4.599   3.713 -0.6949 -0.8104 -0.0595
13825TIP3    H262967   2.223   4.469   3.738 -0.1977 -1.2047 -0.5803
13826TIP3   OH262968   3.980   6.674   3.728  0.0394  0.7879 -0.0804
13826TIP3    H162969   3.945   6.586   3.743  0.9236  0.4770  0.2299
13826TIP3    H262970   3.902   6.730   3.723 -0.5398 -0.0131 -0.3344
13827TIP3   OH262971   4.473   4.585   2.360 -0.0908  0.3622 -0.0013
13827TIP3    H162972   4.402   4.637   2.321  1.1690  2.1192 -0.0660
13827TIP3    H262973   4.506   4.532   2.288 -0.3824  0.6229 -0.3337
13828TIP3   OH262974   3.058   5.640  15.024 -0.5197 -0.1518  0.0268
13828TIP3    H162975   2.999   5.567  15.005 -0.3066 -0.3612  0.1683
13828TIP3    H262976   3.052   5.653  15.119 -1.2953  0.6498 -0.1133
13829TIP3   OH262977   2.490   1.194   3.341  0.6931  0.4447  0.4907
13829TIP3    H162978   2.573   1.147   3.333 -0.6738 -2.0274 -0.2681
13829TIP3    H262979   2.462   1.177   3.431  0.1459 -0.3470  0.1831
13830TIP3   OH262980   1.239   1.906   5.465 -0.3794 -0.0814  0.3300
13830TIP3    H162981   1.302   1.948   5.524  0.9673 -2.1007  0.4605
13830TIP3    H262982   1.187   1.978   5.430  1.7526  1.6824  0.5190
13831TIP3   OH262983   2.000   3.113   4.916  0.0227 -0.1280 -0.1184
13831TIP3    H162984   2.005   3.095   4.823 -0.1108  0.8622 -0.3353
13831TIP3    H262985   1.960   3.200   4.922 -1.4193 -0.8211  0.9226
13832TIP3   OH262986   5.419   1.198   3.215 -0.4708 -0.4138 -0.7502
13832TIP3    H162987   5.440   1.138   3.143 -0.1151 -0.7108 -0.4044
13832TIP3    H262988   5.358   1.150   3.270 -0.4448 -0.3323 -0.6502
13833TIP3   OH262989   0.498   0.469   3.486 -0.0010 -0.5950 -0.3388
13833TIP3    H162990   0.473   0.557   3.457 -0.5891 -0.3613  0.8385
13833TIP3    H262991   0.414   0.422   3.494  0.2572 -1.0548 -0.2847
13834TIP3   OH262992   6.964   3.103  12.523  0.5112  0.5371  0.3262
13834TIP3    H162993   6.909   3.029  12.546 -2.6889  2.6087 -0.0120
13834TIP3    H262994   7.053   3.067  12.519 -1.0015 -3.6854 -1.6811
13835TIP3   OH262995   2.549   4.199  10.205  0.0342  0.4015 -0.0125
13835TIP3    H162996   2.640   4.182  10.228  0.9497  1.2363 -2.6419
13835TIP3    H262997   2.516   4.115  10.172 -0.3390 -0.0069  1.3151
13836TIP3   OH262998   3.188   3.428   0.230  0.3113 -0.6597 -0.3570
13836TIP3    H162999   3.108   3.447   0.281 -0.2928  0.5898 -1.6874
13836TIP3    H263000   3.241   3.374   0.289 -2.4928 -3.6105 -0.2287
13837TIP3   OH263001   5.606   5.510   3.082  0.0148 -0.0416  0.1718
13837TIP3    H163002   5.660   5.487   3.006 -1.7648 -2.9700 -0.3755
13837TIP3    H263003   5.545   5.576   3.049  0.5419  0.2055 -0.3444
13838TIP3   OH263004   7.100   0.874   2.331 -0.2985 -0.0957  0.0748
13838TIP3    H163005   7.179   0.873   2.277 -0.9645  1.2490 -0.9711
13838TIP3    H263006   7.030   0.846   2.272 -0.9184  0.6524  0.4406
13839TIP3   OH263007   6.383   4.588   1.499  0.0835  0.6501 -0.1447
13839TIP3    H163008   6.339   4.670   1.476  0.1343  1.0141  0.9704
13839TIP3    H263009   6.348   4.567   1.586 -0.3816 -0.8377 -0.6714
13840TIP3   OH263010   2.997   2.996   2.074  0.2171  0.1662  0.6438
13840TIP3    H163011   3.076   3.023   2.027 -0.5697 -2.1933 -2.3514
13840TIP3    H263012   2.946   3.077   2.082  0.6258  0.8691 -2.3184
13841TIP3   OH263013   2.697   2.687  14.742 -0.0589  0.5295  0.3810
13841TIP3    H163014   2.645   2.612  14.770 -1.6522  1.3623 -0.2546
13841TIP3    H263015   2.746   2.712  14.821 -0.4949 -0.3588  0.9544
13842TIP3   OH263016   2.987   3.482   4.551  0.1244 -0.0800 -0.2192
13842TIP3    H163017   2.995   3.557   4.493 -1.4022  1.7448  1.7857
13842TIP3    H263018   2.897   3.452   4.541  0.0885 -0.2671  0.5826
13843TIP3   OH263019   5.605   1.265   0.937  0.3422  0.4403 -0.9017
13843TIP3    H163020   5.654   1.334   0.983  0.3418  0.2131 -0.5558
13843TIP3    H263021   5.569   1.211   1.007 -0.4082  0.6039 -1.1565
13844TIP3   OH263022   3.151   1.619   5.376  0.2148 -0.1987  0.4728
13844TIP3    H163023   3.174   1.664   5.457 -0.5838  0.6348  0.2513
13844TIP3    H263024   3.129   1.529   5.403 -0.6129  0.2313  1.2615
13845TIP3   OH263025   7.066   2.692   1.704  0.6538 -0.6296 -0.1109
13845TIP3    H163026   6.978   2.722   1.682  0.6087 -0.3174  0.4741
13845TIP3    H263027   7.095   2.644   1.626 -0.3232 -1.3813 -0.0308
13846TIP3   OH263028   0.992   4.544   1.766  0.1124  0.6107 -0.3640
13846TIP3    H163029   1.084   4.555   1.743  0.3088 -2.1177 -1.3618
13846TIP3    H263030   0.989   4.458   1.810 -1.7123  1.4675  1.3439
13847TIP3   OH263031   5.943   0.127   1.789 -0.2885 -0.3283  0.2205
13847TIP3    H163032   5.989   0.107   1.871 -0.6938  1.4213  0.9232
13847TIP3    H263033   5.852   0.142   1.816 -0.7986 -1.4130 -0.8169
13848TIP3   OH263034   2.190   3.953  13.069  0.6451 -0.5956  0.1614
13848TIP3    H163035   2.178   3.858  13.065  1.0362 -0.6675  0.7275
13848TIP3    H263036   2.134   3.986  12.998  0.6057 -1.2516 -0.1257
13849TIP3   OH263037   2.254   5.707   5.221 -0.1244 -0.2069 -0.3075
13849TIP3    H163038   2.291   5.745   5.142  1.3064 -0.1418  0.3567
13849TIP3    H263039   2.241   5.614   5.199 -1.3062  0.1272 -1.1252
13850TIP3   OH263040   6.223   4.099   5.302 -0.7527 -0.1537  0.0245
13850TIP3    H163041   6.137   4.064   5.326 -0.8357 -1.0174 -1.3980
13850TIP3    H263042   6.260   4.032   5.244  0.5646  0.5612  0.0138
13851TIP3   OH263043   2.399   0.986   0.737  0.4574  0.8549 -0.0128
13851TIP3    H163044   2.477   1.027   0.699  1.3139 -0.2810  0.4564
13851TIP3    H263045   2.337   0.980   0.664  0.9913  1.3171 -0.5131
13852TIP3   OH263046   4.014   2.265   2.619 -0.5613  0.2857  0.6257
13852TIP3    H163047   4.024   2.254   2.525 -0.0917 -0.6961  0.7710
13852TIP3    H263048   3.980   2.354   2.630 -0.2438  0.5522 -0.4387
13853TIP3   OH263049   4.864   5.838  13.342  0.7538 -0.3218  0.0016
13853TIP3    H163050   4.783   5.808  13.383  1.3449 -1.2086  0.5781
13853TIP3    H263051   4.862   5.933  13.348 -1.0922 -0.1979 -1.6602
13854TIP3   OH263052   3.178   1.891   1.903  0.7561  0.5085  0.1219
13854TIP3    H163053   3.241   1.826   1.934 -0.2457 -0.3336  0.4760
13854TIP3    H263054   3.140   1.852   1.825  1.0352  1.2417 -0.3875
13855TIP3   OH263055   6.230   2.196   5.368 -0.9238  0.6204  0.0602
13855TIP3    H163056   6.163   2.142   5.409 -0.3310 -1.1826 -1.2284
13855TIP3    H263057   6.302   2.198   5.430 -0.7814 -0.4675 -0.0652
13856TIP3   OH263058   0.417   6.955   3.443 -0.3190  0.3550  0.2285
13856TIP3    H163059   0.431   6.919   3.530  0.0619 -0.8079 -0.2930
13856TIP3    H263060   0.499   6.998   3.421  1.0877 -2.6471 -1.0398
13857TIP3   OH263061   6.033   5.533   2.911  0.0409  0.1122 -0.6790
13857TIP3    H163062   5.965   5.465   2.913  0.2018 -0.0384  0.8200
13857TIP3    H263063   6.101   5.497   2.854 -0.3935 -0.4567 -0.8544
13858TIP3   OH263064   1.880   6.515   1.324 -0.5665  0.4521 -0.2879
13858TIP3    H163065   1.954   6.571   1.303 -0.6861  0.4419 -0.7451
13858TIP3    H263066   1.804   6.561   1.289 -0.9461  1.0698  1.2618
13859TIP3   OH263067   5.855   0.263   2.820  0.8229 -0.3873 -0.2765
13859TIP3    H163068   5.934   0.249   2.872  1.6901  0.0566 -1.4321
13859TIP3    H263069   5.888   0.286   2.733 -0.5822  0.7780 -0.5214
13860TIP3   OH263070   0.150   1.596   3.901 -0.3044  0.0962  0.0082
13860TIP3    H163071   0.206   1.657   3.853 -0.5096  0.1041 -0.2241
13860TIP3    H263072   0.066   1.599   3.854 -0.4301 -0.0808  0.2216
13861TIP3   OH263073   5.865   0.344  13.149 -0.7048 -0.1666  0.4886
13861TIP3    H163074   5.825   0.349  13.063  0.6684 -1.7063 -0.2900
13861TIP3    H263075   5.807   0.286  13.199  0.2405 -2.0492 -0.5038
13862TIP3   OH263076   4.520   0.413   1.825  0.1685 -0.0695 -0.1925
13862TIP3    H163077   4.435   0.385   1.858 -0.3688  2.1736  0.5210
13862TIP3    H263078   4.567   0.331   1.807 -1.6346 -1.3663  0.6497
13863TIP3   OH263079   5.082   3.798   4.913 -0.1329 -0.6023  0.3385
13863TIP3    H163080   5.016   3.865   4.893  1.9847  1.8310  0.9307
13863TIP3    H263081   5.142   3.802   4.838  1.5321  0.2538  1.6468
13864TIP3   OH263082   5.599   1.533   0.416  0.3393  1.0106 -0.5575
13864TIP3    H163083   5.659   1.607   0.411  2.9431 -0.8065  0.7661
13864TIP3    H263084   5.615   1.496   0.504 -2.8392  0.4388 -0.1230
13865TIP3   OH263085   4.826   4.846   4.089  0.3929 -0.7053 -0.0095
13865TIP3    H163086   4.812   4.909   4.017  0.7169 -0.5696  0.0411
13865TIP3    H263087   4.744   4.845   4.137  0.3123 -0.4802 -0.1414
13866TIP3   OH263088   0.145   6.136  10.794 -0.2338 -0.0539 -0.7770
13866TIP3    H163089   0.059   6.156  10.829  0.0397 -1.2286  0.6727
13866TIP3    H263090   0.144   6.041  10.780  0.2925  0.1398 -2.2763
13867TIP3   OH263091   4.902   2.670   2.356 -0.1882 -0.4246  0.4601
13867TIP3    H163092   4.916   2.601   2.420 -0.9525 -0.6313  0.4126
13867TIP3    H263093   4.984   2.720   2.356  0.5069 -1.5354  0.2301
13868TIP3   OH263094   2.545   4.882   3.297 -0.3167  0.0418  0.0182
13868TIP3    H163095   2.460   4.900   3.255  0.3619 -1.4698 -2.1484
13868TIP3    H263096   2.543   4.789   3.317  0.4391  0.2099  0.9555
13869TIP3   OH263097   5.582   0.779   2.990 -0.6377  0.2388 -0.1333
13869TIP3    H163098   5.562   0.721   2.917 -0.7615  2.0544 -1.6091
13869TIP3    H263099   5.617   0.858   2.950  0.8883  0.6737  1.8920
13870TIP3   OH263100   4.772   1.801   2.398  0.1163 -0.1433  0.4324
13870TIP3    H163101   4.792   1.853   2.475  1.3532  0.2571 -0.1256
13870TIP3    H263102   4.827   1.838   2.329 -1.4777 -0.0312 -0.8266
13871TIP3   OH263103   1.876   3.760  14.238  0.1621 -0.2894  0.0100
13871TIP3    H163104   1.933   3.752  14.161  0.4769  0.7570  0.1130
13871TIP3    H263105   1.823   3.838  14.221  0.1426 -0.1210  0.7856
13872TIP3   OH263106   7.071   4.152   1.946 -0.3128  0.1680 -0.2524
13872TIP3    H163107   7.044   4.106   2.026 -0.6444  0.1946 -0.3461
13872TIP3    H263108   7.030   4.238   1.954 -0.8535 -0.0434 -0.7417
13873TIP3   OH263109   5.897   5.208   3.761 -0.0054 -0.2876  0.5680
13873TIP3    H163110   5.823   5.174   3.711  0.7791 -0.9791 -0.1350
13873TIP3    H263111   5.923   5.136   3.818  1.5033 -0.8381 -0.7507
13874TIP3   OH263112   5.057   4.189   4.086 -0.0524 -0.0367  0.1364
13874TIP3    H163113   4.974   4.144   4.103  0.7759 -1.3646  0.9134
13874TIP3    H263114   5.119   4.118   4.067  1.0309  0.8840  0.1324
13875TIP3   OH263115   4.469   3.505   4.519  0.3749 -0.1001  0.1828
13875TIP3    H163116   4.378   3.518   4.543 -0.5218 -2.8127 -1.2956
13875TIP3    H263117   4.503   3.593   4.503 -2.1888  0.9467  0.0144
13876TIP3   OH263118   5.008   5.235   3.247  0.4156  0.2898  0.0943
13876TIP3    H163119   5.041   5.233   3.157 -2.0446 -1.9771 -0.9019
13876TIP3    H263120   4.939   5.302   3.245 -1.2735 -1.3883 -0.4532
13877TIP3   OH263121   7.043   5.236   5.011 -0.0885 -0.6576 -0.0376
13877TIP3    H163122   7.068   5.146   4.992  0.4789 -0.3544 -0.7544
13877TIP3    H263123   7.036   5.238   5.107  0.9803 -1.1875  0.0689
13878TIP3   OH263124   1.706   4.078   1.961  0.1459  0.1449 -0.3888
13878TIP3    H163125   1.680   4.061   2.051 -0.3786 -1.4001 -0.7968
13878TIP3    H263126   1.657   4.014   1.909 -0.6081  1.8693 -1.9247
13879TIP3   OH263127   2.749   5.692  15.206 -0.2120  0.4412  0.6180
13879TIP3    H163128   2.769   5.631  15.136 -1.7014  0.0409  0.4987
13879TIP3    H263129   2.739   5.777  15.163 -2.1435  0.0202  0.1339
13880TIP3   OH263130   3.963   0.243  14.071  0.0206  0.2040  0.4095
13880TIP3    H163131   3.903   0.254  13.997 -1.5497 -0.1866  1.5782
13880TIP3    H263132   4.042   0.290  14.044 -0.8462  0.8801 -1.1223
13881TIP3   OH263133   5.203   3.246   3.817  0.4021 -0.4932  0.7622
13881TIP3    H163134   5.183   3.152   3.815  0.3840 -0.5074 -2.2449
13881TIP3    H263135   5.178   3.273   3.905 -0.9212 -3.0294  1.2760
13882TIP3   OH263136   0.136   0.553   4.427  0.8462 -0.0924 -0.2278
13882TIP3    H163137   0.227   0.581   4.419  0.2205  1.6570 -1.7943
13882TIP3    H263138   0.091   0.627   4.467 -0.0628 -0.6371 -0.2048
13883TIP3   OH263139   3.508   4.193   4.258 -0.8771  0.0426  0.1029
13883TIP3    H163140   3.477   4.142   4.184 -0.2203 -1.0183  0.5356
13883TIP3    H263141   3.432   4.245   4.285 -0.9102  1.0077 -1.7424
13884TIP3   OH263142   2.681   6.930   4.069  0.5719 -0.4791  0.1222
13884TIP3    H163143   2.747   6.998   4.063  0.2804 -0.1928  0.1196
13884TIP3    H263144   2.620   6.949   3.998 -0.2950  0.1172  0.9892
13885TIP3   OH263145   2.426   1.613  14.495 -0.3862 -0.5085  0.0953
13885TIP3    H163146   2.441   1.707  14.481  0.0659 -0.6626 -0.5260
13885TIP3    H263147   2.472   1.593  14.576 -0.9404 -0.0889  0.5200
13886TIP3   OH263148   6.229   4.913  11.886  0.1460 -0.7341  0.4400
13886TIP3    H163149   6.157   4.856  11.910  0.3537 -0.6962  1.1749
13886TIP3    H263150   6.263   4.876  11.804 -0.5942 -0.8465  0.1806
13887TIP3   OH263151   3.078   4.283   3.325 -0.2668 -0.2074  0.1041
13887TIP3    H163152   2.983   4.294   3.322 -0.2506  0.0720  0.5458
13887TIP3    H263153   3.112   4.347   3.262 -0.3526 -0.1042  0.1642
13888TIP3   OH263154   0.624   7.119   9.931  0.1461  0.7869  0.6446
13888TIP3    H163155   0.663   7.044   9.976  1.0144  0.2686 -0.9021
13888TIP3    H263156   0.551   7.146   9.988 -0.3156 -1.3375  1.1561
13889TIP3   OH263157   6.004   2.904   4.679 -0.0642 -0.3697 -0.3909
13889TIP3    H163158   5.923   2.937   4.719  0.0523 -1.0443  0.4157
13889TIP3    H263159   5.995   2.809   4.681  0.2301 -0.4309 -1.3987
13890TIP3   OH263160   0.107   6.410   2.068 -0.7012 -0.2651  0.0423
13890TIP3    H163161   0.200   6.397   2.049 -0.3601  1.3597  0.4687
13890TIP3    H263162   0.081   6.329   2.112  0.1245 -1.3457 -1.3274
13891TIP3   OH263163   6.046   1.636   3.644  0.1520  0.9572 -0.3219
13891TIP3    H163164   5.986   1.684   3.701 -0.4616  0.5466 -0.6221
13891TIP3    H263165   5.999   1.556   3.621  1.4570 -0.1687  0.7820
13892TIP3   OH263166   1.839   0.908   0.962 -0.3908  0.3481  0.4490
13892TIP3    H163167   1.863   0.942   1.048  0.9598  1.2897 -0.2544
13892TIP3    H263168   1.920   0.915   0.911 -0.6267 -1.9789 -0.3642
13893TIP3   OH263169   2.272   2.751   5.418 -0.5650  0.4365 -0.7083
13893TIP3    H163170   2.234   2.694   5.485  1.5930 -1.5726 -1.0610
13893TIP3    H263171   2.355   2.780   5.456 -0.9866  2.2939 -1.1088
13894TIP3   OH263172   4.929   1.642   0.962 -0.3136 -0.0758  0.1064
13894TIP3    H163173   4.963   1.719   1.008 -2.3270  0.7137  0.3744
13894TIP3    H263174   4.910   1.580   1.032 -3.0318  0.9887  0.4408
13895TIP3   OH263175   4.971   2.264  12.301  0.1333 -0.5284  0.6403
13895TIP3    H163176   4.964   2.271  12.396  2.1573 -1.4374  0.8974
13895TIP3    H263177   4.992   2.353  12.271  1.4420 -0.6105  1.2702
13896TIP3   OH263178   6.600   4.971  11.708  0.3908  0.8098 -0.0138
13896TIP3    H163179   6.614   5.044  11.649 -0.4535  0.2657 -0.9231
13896TIP3    H263180   6.523   4.926  11.673  1.5200 -1.1627 -0.1522
13897TIP3   OH263181   4.346   6.157   3.845 -0.5216  0.5031 -0.2621
13897TIP3    H163182   4.273   6.142   3.785  0.6075 -2.9877 -0.9654
13897TIP3    H263183   4.335   6.092   3.914  1.9380 -0.2201 -0.4523
13898TIP3   OH263184   1.504   7.170   1.737 -0.0172 -0.0443  0.7077
13898TIP3    H163185   1.526   7.212   1.820  0.0528  0.0296  0.6504
13898TIP3    H263186   1.492   7.242   1.675 -1.4200 -0.0091  0.9760
13899TIP3   OH263187   1.353   6.880   2.876 -0.4394 -0.0503  0.1873
13899TIP3    H163188   1.282   6.815   2.878  0.2636 -0.9017 -0.9918
13899TIP3    H263189   1.390   6.878   2.965  1.0264 -2.9921 -0.3693
13900TIP3   OH263190   2.482   3.801   3.323  0.0782 -0.2117  0.5612
13900TIP3    H163191   2.545   3.732   3.341 -0.6921 -0.9678  0.4305
13900TIP3    H263192   2.426   3.766   3.253 -0.6858  0.2983  0.8914
13901TIP3   OH263193   3.744   5.988   4.218  1.0440  0.1557 -0.2660
13901TIP3    H163194   3.669   5.957   4.167  2.2805 -0.1522 -2.0103
13901TIP3    H263195   3.757   5.921   4.285  0.3924 -0.3033 -0.5908
13902TIP3   OH263196   4.732   6.402  15.065 -0.8234  0.0145 -0.3574
13902TIP3    H163197   4.694   6.399  14.977 -0.7485  0.7360 -0.4258
13902TIP3    H263198   4.688   6.475  15.108 -1.5231 -0.9018  0.5357
13903TIP3   OH263199   6.454   1.150  14.643 -0.4987 -0.5535  0.0541
13903TIP3    H163200   6.538   1.117  14.613 -0.4349 -2.6312  2.2793
13903TIP3    H263201   6.403   1.072  14.663 -1.5174  0.6349  2.5134
13904TIP3   OH263202   6.188   7.193   1.707  0.1099  0.4655  0.3251
13904TIP3    H163203   6.124   7.254   1.743 -0.0849 -0.2538  1.2090
13904TIP3    H263204   6.193   7.122   1.771  1.4103  0.2596  0.0245
13905TIP3   OH263205   3.471   2.383   3.350 -0.9439 -0.0648 -0.2400
13905TIP3    H163206   3.395   2.427   3.387 -0.4911  1.6310 -1.2431
13905TIP3    H263207   3.498   2.321   3.418 -0.5900  2.3836  2.0209
13906TIP3   OH263208   4.961   1.572   3.788  0.1215 -0.5144 -0.3264
13906TIP3    H163209   4.883   1.625   3.772 -1.2056 -2.0523  0.6308
13906TIP3    H263210   4.927   1.483   3.797  1.9636 -1.1859  0.4424
13907TIP3   OH263211   3.800   3.285   3.053 -0.0710  0.2997 -0.2942
13907TIP3    H163212   3.889   3.300   3.084 -0.4366 -0.8602  1.4714
13907TIP3    H263213   3.746   3.292   3.132 -1.3708 -0.3534 -1.0904
13908TIP3   OH263214   3.398   3.105   3.209  0.5814  0.6675 -1.0683
13908TIP3    H163215   3.343   3.099   3.131 -1.6984 -1.0245  0.5394
13908TIP3    H263216   3.340   3.137   3.278  2.2497  1.0982  0.2092
13909TIP3   OH263217   1.769   5.770   2.670  0.0935  0.1141 -0.1163
13909TIP3    H163218   1.791   5.862   2.652  1.6948 -0.6532 -2.5656
13909TIP3    H263219   1.826   5.746   2.743  1.1067  0.5865 -0.7183
13910TIP3   OH263220   6.589   1.007   5.571  0.3509  0.1248 -0.0392
13910TIP3    H163221   6.529   0.940   5.538  0.2947  0.2829 -0.2595
13910TIP3    H263222   6.556   1.028   5.658  0.4862 -0.2766  0.1125
13911TIP3   OH263223   3.763   3.532   5.238 -0.4050 -0.0953 -0.3459
13911TIP3    H163224   3.800   3.454   5.278 -2.4115 -0.5711  0.7494
13911TIP3    H263225   3.775   3.601   5.304  1.8770  0.7274 -1.5384
13912TIP3   OH263226   3.273   1.332   2.308  0.7601 -0.0349  0.3599
13912TIP3    H163227   3.329   1.281   2.366  1.7058  0.5446 -0.0388
13912TIP3    H263228   3.272   1.420   2.346  1.5380  0.3944 -0.5989
13913TIP3   OH263229   1.512   4.267   2.656 -0.4595 -0.6826  0.0429
13913TIP3    H163230   1.463   4.290   2.735 -2.0247 -1.6572 -0.5821
13913TIP3    H263231   1.491   4.335   2.593  0.4206 -0.1557  0.3014
13914TIP3   OH263232   6.782   1.169  12.917  0.4977 -0.1153 -1.0047
13914TIP3    H163233   6.841   1.204  12.984  1.0882  1.5295 -2.3147
13914TIP3    H263234   6.696   1.167  12.960  1.4034 -2.5775  0.9387
13915TIP3   OH263235   1.845   5.977   3.096  0.0692  0.3676  0.0008
13915TIP3    H163236   1.845   6.023   3.180  2.1907 -1.4066  1.0653
13915TIP3    H263237   1.925   5.925   3.097 -0.0354 -0.0303 -2.9846
13916TIP3   OH263238   4.933   5.475  13.820 -0.4985 -0.0346  0.1737
13916TIP3    H163239   4.910   5.451  13.910 -0.5865 -1.1304 -0.1208
13916TIP3    H263240   5.002   5.540  13.829 -0.7542  0.1245  1.0372
13917TIP3   OH263241   3.411   5.220   3.264  0.6466  0.2961 -0.7437
13917TIP3    H163242   3.417   5.133   3.226  0.6502 -0.4178  0.7916
13917TIP3    H263243   3.493   5.263   3.239  0.9523 -0.3888 -0.9315
13918TIP3   OH263244   0.261   5.432  14.244 -0.2218 -0.2330  0.0909
13918TIP3    H163245   0.242   5.372  14.171 -2.0181  0.4564 -0.0583
13918TIP3    H263246   0.284   5.375  14.317 -1.0490 -1.0828 -0.2911
13919TIP3   OH263247   6.933   1.231   0.597  0.4402 -0.1756 -0.0712
13919TIP3    H163248   6.925   1.165   0.528 -2.2028 -2.1729  1.9098
13919TIP3    H263249   6.943   1.180   0.677  0.4111  1.9445  1.3436
13920TIP3   OH263250   4.132   1.704  12.508  0.0818 -0.4078 -0.5607
13920TIP3    H163251   4.087   1.632  12.553  0.6581  0.3756  1.4035
13920TIP3    H263252   4.078   1.781  12.525  1.1391  0.1997  0.2239
13921TIP3   OH263253   3.289   1.668   0.497 -0.0443  0.0423  0.0519
13921TIP3    H163254   3.207   1.654   0.450 -0.9797 -1.0242  1.8846
13921TIP3    H263255   3.287   1.761   0.522 -0.8012 -0.0087  0.2214
13922TIP3   OH263256   1.197   4.302   2.166 -0.2039 -0.1741  0.4173
13922TIP3    H163257   1.120   4.270   2.214 -0.2964  0.8454  0.9782
13922TIP3    H263258   1.268   4.300   2.230 -0.0666  0.1273  0.2786
13923TIP3   OH263259   0.971   5.262  15.083  0.4377 -1.0519  0.9200
13923TIP3    H163260   0.975   5.281  15.176 -1.4874 -0.5127  0.9368
13923TIP3    H263261   0.969   5.167  15.077  0.5014 -1.0861  1.4358
13924TIP3   OH263262   7.236   0.671  14.658  0.0016 -0.0392  0.0496
13924TIP3    H163263   7.258   0.637  14.572 -3.1867  1.5099 -1.5343
13924TIP3    H263264   7.219   0.593  14.711  0.0555 -0.9901 -1.2951
13925TIP3   OH263265   2.125   5.450   3.058  0.1273 -0.1811 -0.0228
13925TIP3    H163266   2.061   5.515   3.087 -0.2785 -0.6496  0.1447
13925TIP3    H263267   2.182   5.498   2.998  1.5699  1.0831  2.2204
13926TIP3   OH263268   6.161   4.485   4.455  0.3177  0.6711  0.1756
13926TIP3    H163269   6.224   4.554   4.434  0.5564 -0.0267 -1.5944
13926TIP3    H263270   6.187   4.455   4.542  3.3187 -0.4477 -0.9491
13927TIP3   OH263271   2.283   4.514   5.008 -0.1334  0.4830  0.9149
13927TIP3    H163272   2.363   4.565   5.018 -0.5422  1.0465  1.4256
13927TIP3    H263273   2.255   4.531   4.918  0.4078  0.1446  0.6780
13928TIP3   OH263274   5.743   5.435   1.738  0.6959  0.0635  0.1800
13928TIP3    H163275   5.662   5.440   1.688  0.7045  2.9064  0.2888
13928TIP3    H263276   5.746   5.345   1.769 -0.1540 -1.4332 -3.4611
13929TIP3   OH263277   0.958   2.039  12.402  0.2276 -0.2174  0.6087
13929TIP3    H163278   0.863   2.045  12.414  0.1875 -0.1438  0.2497
13929TIP3    H263279   0.992   2.032  12.491 -0.0749  0.3252  0.7717
13930TIP3   OH263280   5.627   6.748   0.866 -0.7127 -0.0414  0.9447
13930TIP3    H163281   5.717   6.719   0.880 -0.5543  1.0568  2.6081
13930TIP3    H263282   5.589   6.749   0.954 -0.6642  4.5409  1.1605
13931TIP3   OH263283   3.413   3.089   5.084  0.0621 -0.3480 -0.2872
13931TIP3    H163284   3.360   3.114   5.008  0.6120  0.0166 -0.5527
13931TIP3    H263285   3.366   3.014   5.122 -2.4684  1.9011  1.4012
13932TIP3   OH263286   3.437   1.260   5.410 -0.4107  0.3465  0.5322
13932TIP3    H163287   3.405   1.268   5.500 -1.0309 -0.7844  0.4298
13932TIP3    H263288   3.364   1.289   5.356  0.0117  1.1622  0.3821
13933TIP3   OH263289   4.809   6.425  13.174 -0.0654  0.1261  0.1250
13933TIP3    H163290   4.867   6.353  13.149  1.4430  1.8499 -1.6820
13933TIP3    H263291   4.846   6.458  13.256  0.2763 -0.0658  0.0494
13934TIP3   OH263292   7.181   1.027   4.647 -0.4709  0.4085  0.2212
13934TIP3    H163293   7.102   0.982   4.677 -1.9825  0.7124 -2.8851
13934TIP3    H263294   7.185   1.106   4.700 -0.5939 -0.9035  2.3299
13935TIP3   OH263295   7.119   4.376   0.661 -0.3471 -0.2632  0.3947
13935TIP3    H163296   7.097   4.307   0.598 -0.5069  0.5473 -0.4592
13935TIP3    H263297   7.201   4.347   0.701  0.5989 -0.0881 -1.3036
13936TIP3   OH263298   5.080   1.702   0.243  0.4682 -0.1106  0.4357
13936TIP3    H163299   4.986   1.705   0.258  0.5829  1.8245  1.0387
13936TIP3    H263300   5.095   1.765   0.173  1.0135 -2.6227 -1.8540
13937TIP3   OH263301   0.295   5.760   4.526 -0.5882 -0.3586 -0.5079
13937TIP3    H163302   0.326   5.710   4.601  0.3513  0.0344 -0.6190
13937TIP3    H263303   0.293   5.697   4.454  1.4706 -0.0951 -0.8714
13938TIP3   OH263304   2.563   4.499   1.849  0.8296  0.0382  0.2430
13938TIP3    H163305   2.482   4.459   1.880 -0.1239  1.2405 -0.5966
13938TIP3    H263306   2.560   4.589   1.882  1.7862  0.1248  0.1371
13939TIP3   OH263307   0.410   3.611  14.982 -0.1370 -0.1472  0.2981
13939TIP3    H163308   0.318   3.618  14.955 -0.1126 -0.4089  0.1374
13939TIP3    H263309   0.460   3.631  14.903 -0.0598 -0.2894  0.3099
13940TIP3   OH263310   4.344   5.984   1.491 -0.2864  0.3614  0.6047
13940TIP3    H163311   4.411   5.967   1.425 -1.3953  1.4934 -0.9208
13940TIP3    H263312   4.391   6.028   1.562  0.7504  0.2763  0.0003
13941TIP3   OH263313   5.259   6.047   5.390 -0.3412  0.2818 -0.1805
13941TIP3    H163314   5.278   5.953   5.389  0.9256  0.4968  1.0347
13941TIP3    H263315   5.342   6.088   5.412 -0.8221  1.7264 -0.9450
13942TIP3   OH263316   1.175   4.711  14.556 -0.6157 -0.0364  0.2816
13942TIP3    H163317   1.163   4.770  14.631 -1.3782  0.4249 -0.1882
13942TIP3    H263318   1.266   4.682  14.563 -0.4811  0.5234  1.0149
13943TIP3   OH263319   4.960   7.079   3.715  0.0312  0.0111  0.2911
13943TIP3    H163320   5.054   7.069   3.698  0.3369 -0.1870  1.9466
13943TIP3    H263321   4.943   7.025   3.792 -1.5614 -0.3670 -0.2890
13944TIP3   OH263322   7.035   6.275   4.897 -0.2098 -0.0880  0.5635
13944TIP3    H163323   7.052   6.354   4.948 -1.4704  0.2617  0.4774
13944TIP3    H263324   7.002   6.212   4.960 -0.1135 -0.2364  0.4670
13945TIP3   OH263325   4.350   5.398   1.770  0.4585  0.5571 -0.1698
13945TIP3    H163326   4.424   5.383   1.829  0.1766 -1.6893 -0.3097
13945TIP3    H263327   4.290   5.326   1.787 -0.2344  0.5482 -2.2932
13946TIP3   OH263328   6.967   4.047   4.072 -0.2815  0.7451  0.1396
13946TIP3    H163329   6.920   4.073   3.993 -1.5110 -1.9961 -0.1334
13946TIP3    H263330   6.907   3.988   4.117  2.2875 -1.7557  0.5625
13947TIP3   OH263331   6.076   6.118   5.357 -0.1307 -0.1896  0.1612
13947TIP3    H163332   6.058   6.048   5.420  1.3253 -0.1874  0.6029
13947TIP3    H263333   6.134   6.178   5.403  2.4049 -1.0593 -1.6784
13948TIP3   OH263334   4.028   7.141   4.692  0.1625 -0.3777 -0.5302
13948TIP3    H163335   4.017   7.049   4.666 -1.5513 -0.0933 -0.9285
13948TIP3    H263336   4.011   7.191   4.613  0.5418  0.3206 -0.1787
13949TIP3   OH263337   2.207   6.340   2.514 -0.3621  0.3660  0.3471
13949TIP3    H163338   2.115   6.353   2.492 -1.0158 -1.3440  1.8571
13949TIP3    H263339   2.211   6.351   2.609  0.9079 -0.0609  0.3641
13950TIP3   OH263340   2.555   3.223   1.626  0.1467 -0.7578 -0.0211
13950TIP3    H163341   2.502   3.294   1.662 -0.4210 -1.5704  0.7844
13950TIP3    H263342   2.618   3.203   1.695 -0.0514 -1.3992 -0.0224
13951TIP3   OH263343   3.968   5.327   2.515 -0.2937  0.0403  0.3963
13951TIP3    H163344   3.986   5.407   2.467  0.9196 -0.5061 -0.0812
13951TIP3    H263345   3.876   5.308   2.495 -0.6240  1.3272  0.5702
13952TIP3   OH263346   0.445   6.400   5.081 -0.1053  0.0781  0.0548
13952TIP3    H163347   0.350   6.405   5.085 -0.3630 -2.0741 -1.3665
13952TIP3    H263348   0.469   6.343   5.154 -0.1575 -1.0344 -0.7634
13953TIP3   OH263349   4.959   6.717  14.765  0.3314 -0.2559  0.1450
13953TIP3    H163350   5.015   6.640  14.760 -1.2051 -1.4436  0.3720
13953TIP3    H263351   4.950   6.734  14.859 -3.1329 -2.8561  0.5146
13954TIP3   OH263352   0.606   6.280   2.772  0.4034 -0.0221 -0.5514
13954TIP3    H163353   0.613   6.310   2.863 -0.1938 -1.4929  0.0068
13954TIP3    H263354   0.693   6.297   2.735  0.6473  0.6399  0.2796
13955TIP3   OH263355   0.600   3.497   1.682 -0.0344  0.1874 -0.4824
13955TIP3    H163356   0.665   3.458   1.740 -2.4443 -0.2464  2.1402
13955TIP3    H263357   0.550   3.423   1.648 -0.9332  0.6503 -0.1978
13956TIP3   OH263358   7.221   5.675   4.329 -0.2351 -0.5502  0.2207
13956TIP3    H163359   7.304   5.630   4.344 -0.7551 -1.7863 -0.4801
13956TIP3    H263360   7.238   5.730   4.253 -0.1403 -1.0441 -0.1230
13957TIP3   OH263361   4.688   7.184   1.995  0.3162  0.4251  0.1979
13957TIP3    H163362   4.660   7.106   1.947  0.1156  0.6983 -0.1322
13957TIP3    H263363   4.735   7.150   2.071 -1.5465 -0.0692  1.1783
13958TIP3   OH263364   2.260   2.797  11.550 -0.1361  0.2053  0.6588
13958TIP3    H163365   2.279   2.889  11.568  1.5239  0.0804 -0.2173
13958TIP3    H263366   2.202   2.798  11.474 -0.8565  0.5256  1.1984
13959TIP3   OH263367   7.141   2.458   4.979  0.4170 -0.2176 -0.8526
13959TIP3    H163368   7.163   2.548   4.957 -0.3326  0.3164  0.4597
13959TIP3    H263369   7.059   2.440   4.934 -0.4231  0.4230  0.3682
13960TIP3   OH263370   7.177   2.412   3.738 -0.1978  0.0829  0.1520
13960TIP3    H163371   7.185   2.325   3.699 -1.3045  0.2687 -0.5412
13960TIP3    H263372   7.247   2.416   3.804 -0.2724 -1.4113  0.3549
13961TIP3   OH263373   1.443   1.169   3.178  0.8841  0.2361 -0.3744
13961TIP3    H163374   1.407   1.123   3.254  0.3825 -0.2849 -0.9158
13961TIP3    H263375   1.490   1.101   3.129  0.0918  0.2676 -1.2151
13962TIP3   OH263376   1.860   4.724   0.719  0.0751 -0.8871 -0.0853
13962TIP3    H163377   1.773   4.697   0.748 -0.1491  0.3790  0.5246
13962TIP3    H263378   1.899   4.766   0.796  1.6674 -2.3707 -0.0159
13963TIP3   OH263379   3.833   5.558   3.425 -0.0224 -0.3114  0.2130
13963TIP3    H163380   3.827   5.488   3.361  1.1554 -0.8779  0.6818
13963TIP3    H263381   3.832   5.514   3.510  1.8882  0.1028  0.4967
13964TIP3   OH263382   1.048   1.634   2.504 -0.1697 -0.3585 -0.5827
13964TIP3    H163383   1.120   1.697   2.498  1.0710 -1.7143 -0.5818
13964TIP3    H263384   1.023   1.634   2.596 -0.0383 -0.0170 -0.5455
13965TIP3   OH263385   1.900   3.472   3.157  0.1046  0.4822 -0.2500
13965TIP3    H163386   1.935   3.508   3.238 -0.2948 -0.8490  0.5379
13965TIP3    H263387   1.936   3.528   3.088  0.2833  1.7523  0.8520
13966TIP3   OH263388   3.372   2.963  14.274  0.1059 -0.1813  0.4699
13966TIP3    H163389   3.390   2.891  14.334 -0.4193 -0.8655 -0.1702
13966TIP3    H263390   3.427   3.034  14.305  0.8416 -0.9388  0.9522
13967TIP3   OH263391   5.642   0.595  12.005  0.6601  0.0109  0.4664
13967TIP3    H163392   5.687   0.672  11.971 -1.0935 -0.4829 -3.5430
13967TIP3    H263393   5.697   0.565  12.077  3.0747  3.1570  0.1641
13968TIP3   OH263394   0.158   5.812  15.013  0.2541  0.2966  0.0003
13968TIP3    H163395   0.220   5.792  15.083 -2.1731 -0.5995  2.0601
13968TIP3    H263396   0.154   5.731  14.961 -0.3423 -0.2430  0.8546
13969TIP3   OH263397   1.563   5.748   1.299 -0.2091 -0.1806  0.1169
13969TIP3    H163398   1.522   5.666   1.271 -0.8191  0.7507 -1.9295
13969TIP3    H263399   1.552   5.807   1.224  3.2937  0.6994  0.1162
13970TIP3   OH263400   5.741   3.940   2.791 -0.0851 -0.0542  0.6371
13970TIP3    H163401   5.795   3.998   2.845  0.2514  0.4533 -0.2219
13970TIP3    H263402   5.787   3.936   2.707 -0.4890 -0.9984  0.4478
13971TIP3   OH263403   7.221   3.752   4.231  0.2310 -0.0906  0.4882
13971TIP3    H163404   7.304   3.786   4.197  0.6372 -0.1851  1.3651
13971TIP3    H263405   7.190   3.820   4.290 -1.6290  1.1203 -1.7268
13972TIP3   OH263406   1.531   0.987  11.674 -0.0074 -0.4452  0.0792
13972TIP3    H163407   1.541   1.079  11.698  0.4204 -0.6191  0.5888
13972TIP3    H263408   1.572   0.939  11.745 -0.3746 -1.0412 -0.1033
13973TIP3   OH263409   4.601   1.796  13.528  0.6283 -0.2674 -0.9540
13973TIP3    H163410   4.631   1.755  13.609 -1.5102 -0.9131 -0.4070
13973TIP3    H263411   4.614   1.889  13.543 -1.7838 -0.1547  1.1650
13974TIP3   OH263412   0.745   3.518   0.521  0.2755 -0.2829 -0.3056
13974TIP3    H163413   0.704   3.444   0.476 -0.9472  0.1573  0.0558
13974TIP3    H263414   0.837   3.513   0.495  0.1085 -1.5972 -0.7273
13975TIP3   OH263415   2.084   1.411  11.019 -0.1411  0.2338 -0.2551
13975TIP3    H163416   2.052   1.340  10.963 -0.8272 -0.6233  1.1664
13975TIP3    H263417   2.108   1.368  11.101 -0.0002  1.5595  0.4306
13976TIP3   OH263418   1.260   4.019   4.820  0.0585  0.4118  0.3477
13976TIP3    H163419   1.166   4.014   4.800 -0.0219 -0.3870  0.8382
13976TIP3    H263420   1.264   4.065   4.904  0.1368  0.7722  0.1480
13977TIP3   OH263421   3.740   6.386   5.741  0.4577  0.8331  0.6312
13977TIP3    H163422   3.645   6.379   5.736  0.3916  2.1830 -0.4144
13977TIP3    H263423   3.756   6.476   5.768  1.4405  1.3259 -1.3746
13978TIP3   OH263424   7.164   1.458   3.457 -0.1822  0.0275  0.0972
13978TIP3    H163425   7.169   1.391   3.388  0.3718  2.5329 -2.4789
13978TIP3    H263426   7.247   1.450   3.503 -0.9458 -2.3280  1.2301
13979TIP3   OH263427   1.982   3.767   5.718 -0.2660 -0.0222 -0.4421
13979TIP3    H163428   1.934   3.829   5.662 -1.2883 -0.5332 -0.1541
13979TIP3    H263429   2.074   3.783   5.698 -0.6083 -0.9486 -3.0975
13980TIP3   OH263430   1.443   4.171   2.993 -0.0533  0.4115  0.9189
13980TIP3    H163431   1.367   4.224   3.015  0.7943  1.9212  0.3232
13980TIP3    H263432   1.517   4.231   2.998  0.7023 -0.1466 -1.7579
13981TIP3   OH263433   0.046   4.198   0.790 -0.1051 -0.8505  0.1343
13981TIP3    H163434  -0.000   4.136   0.734  0.8390 -0.5947 -0.9495
13981TIP3    H263435   0.129   4.215   0.745  0.9983 -1.1630  1.9354
13982TIP3   OH263436   2.366   6.755   2.212  0.3382 -0.1966 -0.5566
13982TIP3    H163437   2.344   6.784   2.301 -0.6460 -2.1179 -0.1183
13982TIP3    H263438   2.347   6.831   2.157  1.9079  1.3833  0.9357
13983TIP3   OH263439   6.905   1.329   5.241  0.9204 -0.4016  0.1217
13983TIP3    H163440   6.975   1.363   5.298  0.4092 -1.5105  1.4350
13983TIP3    H263441   6.825   1.367   5.277  0.7284  0.0667 -0.7789
13984TIP3   OH263442   0.113   4.462   0.898  0.0352 -0.0242 -0.3863
13984TIP3    H163443   0.022   4.490   0.910  0.8465  2.2129  1.5452
13984TIP3    H263444   0.144   4.513   0.823  0.5359  1.8511  1.0047
13985TIP3   OH263445   1.038   0.737   2.500 -0.5987  0.2091  0.1564
13985TIP3    H163446   1.036   0.697   2.413 -0.5405 -0.2254  0.3534
13985TIP3    H263447   1.131   0.749   2.519 -0.5968 -0.1479  0.3662
13986TIP3   OH263448   3.750   6.983  14.410  0.3562 -0.2403  0.6190
13986TIP3    H163449   3.659   7.012  14.409  0.1986 -0.6110 -1.8223
13986TIP3    H263450   3.797   7.051  14.458 -1.0109  0.6473  0.7263
13987TIP3   OH263451   0.883   0.431  10.146 -0.3574  0.1135 -0.4393
13987TIP3    H163452   0.823   0.428  10.220  0.8916  0.3423  0.6290
13987TIP3    H263453   0.868   0.349  10.099 -0.0184 -0.8090  1.0240
13988TIP3   OH263454   6.293   5.688   4.553  0.2758  0.6749  0.0237
13988TIP3    H163455   6.340   5.615   4.593 -0.3310 -0.4423 -1.2124
13988TIP3    H263456   6.243   5.727   4.625  0.7814  0.0116  0.7451
13989TIP3   OH263457   2.746   3.313   5.973 -0.2234  0.2009 -0.2578
13989TIP3    H163458   2.693   3.327   6.051  1.6858 -0.4661  1.2109
13989TIP3    H263459   2.781   3.400   5.952  0.2536  0.1783  0.4021
13990TIP3   OH263460   3.907   4.058  13.109 -0.3509  0.0175 -0.2194
13990TIP3    H163461   3.827   4.037  13.158  0.6418 -1.2116  0.9474
13990TIP3    H263462   3.927   4.148  13.133 -0.6772 -0.0948  0.5069
13991TIP3   OH263463   2.514   2.686   5.833  0.3462  0.2616 -0.6068
13991TIP3    H163464   2.553   2.621   5.891 -0.8679 -0.0196 -0.0718
13991TIP3    H263465   2.481   2.635   5.759  4.3892  0.8476 -3.1548
13992TIP3   OH263466   0.695   3.190   1.146 -0.0009  0.1799 -0.3851
13992TIP3    H163467   0.683   3.284   1.129 -0.5646  0.1186 -0.3404
13992TIP3    H263468   0.617   3.164   1.195 -0.4993 -0.6026 -1.5455
13993TIP3   OH263469   1.919   5.363  13.754 -0.2124 -0.1533 -0.0926
13993TIP3    H163470   1.826   5.349  13.737 -0.5770  1.1707  0.6257
13993TIP3    H263471   1.964   5.300  13.698 -1.5684 -1.9637  0.7669
13994TIP3   OH263472   1.265   3.415   4.278 -0.4711 -0.1639 -0.1379
13994TIP3    H163473   1.344   3.450   4.319  0.0736 -0.4517 -0.9098
13994TIP3    H263474   1.294   3.332   4.239 -1.1037 -0.1668 -0.6098
13995TIP3   OH263475   6.507   6.943   4.448 -0.4619  0.0212  0.1001
13995TIP3    H163476   6.575   6.897   4.498 -0.6726 -0.7026 -0.2677
13995TIP3    H263477   6.437   6.878   4.438 -1.4529  0.9224  0.9416
13996TIP3   OH263478   5.240   4.139  14.131 -0.3659 -0.2386 -0.3197
13996TIP3    H163479   5.196   4.063  14.091  0.4443 -0.8315 -0.1148
13996TIP3    H263480   5.322   4.104  14.165 -0.7504  0.3750  1.3411
13997TIP3   OH263481   2.480   2.838   4.059 -0.3017  0.8486 -0.0466
13997TIP3    H163482   2.555   2.891   4.030 -0.2405  0.8384  0.0902
13997TIP3    H263483   2.418   2.842   3.986  0.4023 -0.2713 -0.7299
13998TIP3   OH263484   1.794   1.011   3.331 -0.2898  0.5696  0.4250
13998TIP3    H163485   1.880   1.039   3.361  0.7146 -1.1623 -0.6417
13998TIP3    H263486   1.750   0.979   3.410  0.3947  0.6257  0.8383
13999TIP3   OH263487   3.081   4.560   4.697  0.0646 -0.1552 -0.4066
13999TIP3    H163488   3.155   4.524   4.648 -0.2997 -1.9500  0.3128
13999TIP3    H263489   3.086   4.519   4.783 -2.5456 -1.4172 -0.7606
14000TIP3   OH263490   6.496   1.000   0.790  0.7707  0.2596  0.7270
14000TIP3    H163491   6.464   0.920   0.831  0.4018 -0.2808 -0.5904
14000TIP3    H263492   6.419   1.058   0.788  0.2780 -0.3994 -0.8475
14001TIP3   OH263493   6.250   3.065   5.291  0.0154  0.7120  0.0140
14001TIP3    H163494   6.267   3.076   5.384  0.7020  1.9277 -0.2378
14001TIP3    H263495   6.335   3.079   5.249 -0.1777 -0.3436 -0.7679
14002TIP3   OH263496   5.692   2.896  10.175 -0.0609  0.4891 -0.1898
14002TIP3    H163497   5.721   2.975  10.128 -0.4693  0.8875  0.2171
14002TIP3    H263498   5.626   2.857  10.119  0.4581  0.1847 -0.6028
14003TIP3   OH263499   6.040   5.574   3.859 -0.2335 -0.2203 -0.3933
14003TIP3    H163500   6.054   5.646   3.920 -1.8322 -1.0869  1.0994
14003TIP3    H263501   6.127   5.550   3.828  0.5121  0.9081  0.7704
14004TIP3   OH263502   3.171   5.069  13.950 -0.1046 -0.0906 -0.1659
14004TIP3    H163503   3.110   5.114  13.891  0.9363  3.3669  1.1390
14004TIP3    H263504   3.137   5.088  14.038  1.1293 -0.7863  0.4776
14005TIP3   OH263505   3.907   3.603  14.148 -0.6297 -0.0629 -0.4658
14005TIP3    H163506   3.905   3.535  14.080  0.9387  0.5528 -1.1675
14005TIP3    H263507   3.991   3.589  14.193 -0.7973  0.7222  0.1100
14006TIP3   OH263508   4.960   0.500  11.631  0.8855 -0.5099  0.0174
14006TIP3    H163509   4.896   0.466  11.569 -0.0436  0.2789  0.5288
14006TIP3    H263510   4.908   0.546  11.697  1.9489 -0.1865  0.6523
14007TIP3   OH263511   3.422   4.951   3.767 -0.0449  0.5371  0.4141
14007TIP3    H163512   3.327   4.944   3.771 -0.0531  0.1843 -0.2310
14007TIP3    H263513   3.449   4.881   3.708  0.7251 -0.2282  1.6171
14008TIP3   OH263514   5.281   6.759  14.931  0.0575 -0.0334 -0.1172
14008TIP3    H163515   5.260   6.691  14.867  1.5942  0.6944 -1.4985
14008TIP3    H263516   5.376   6.750  14.945  0.2347  1.5605 -0.0625
14009TIP3   OH263517   2.796   6.047   4.493 -0.7702 -0.3098  0.7178
14009TIP3    H163518   2.841   6.121   4.534 -0.9860  1.1000 -1.4101
14009TIP3    H263519   2.866   5.991   4.461 -0.5247  0.4771 -0.1702
14010TIP3   OH263520   6.617   5.284   3.850 -0.1933  0.0350  0.1085
14010TIP3    H163521   6.713   5.283   3.857  0.0027 -1.1770 -1.9681
14010TIP3    H263522   6.594   5.376   3.848  0.6927  0.4023  2.6281
14011TIP3   OH263523   3.414   2.837   3.459 -0.5671 -0.4354 -0.1400
14011TIP3    H163524   3.466   2.846   3.379  1.0856 -0.3106  0.9083
14011TIP3    H263525   3.407   2.743   3.472 -1.6814 -0.4809 -0.9319
14012TIP3   OH263526   5.610   2.753   1.421 -0.3500  0.3680 -0.1511
14012TIP3    H163527   5.679   2.812   1.392  2.0499 -1.1472  2.0440
14012TIP3    H263528   5.597   2.693   1.347  1.1425  0.3484 -0.4295
14013TIP3   OH263529   3.705   5.372  15.013  0.2339  0.4400 -0.1265
14013TIP3    H163530   3.615   5.400  15.026  0.2126  0.2775  0.0747
14013TIP3    H263531   3.731   5.333  15.097  1.5911  3.4978  1.0302
14014TIP3   OH263532   3.179   6.901   1.884 -0.1668 -0.0021  0.4274
14014TIP3    H163533   3.261   6.852   1.883 -0.7291 -0.9908 -0.8684
14014TIP3    H263534   3.111   6.835   1.891 -0.8622  0.8505  2.1408
14015TIP3   OH263535   1.582   3.033   0.789 -0.1824  0.3271 -0.2951
14015TIP3    H163536   1.634   2.954   0.798  0.3739  0.6016 -0.9971
14015TIP3    H263537   1.642   3.105   0.809 -0.6616  0.5791  0.2678
14016TIP3   OH263538   4.417   6.186  15.179 -0.0342  0.1368  0.0472
14016TIP3    H163539   4.431   6.165  15.271  0.5174  0.2284 -0.0141
14016TIP3    H263540   4.447   6.108  15.131 -0.1231  0.1715 -0.0675
14017TIP3   OH263541   5.476   0.625   0.963 -0.3450 -0.7520  0.2386
14017TIP3    H163542   5.438   0.689   1.023  1.0744 -0.9061  1.3416
14017TIP3    H263543   5.490   0.547   1.016  2.3353 -0.4099  0.1583
14018TIP3   OH263544   6.698   3.641   4.154 -0.6656  0.4014 -0.1600
14018TIP3    H163545   6.764   3.679   4.096 -0.4037 -2.1239 -1.6691
14018TIP3    H263546   6.733   3.652   4.242  1.9558 -1.1077 -0.9332
14019TIP3   OH263547   4.721   3.302   3.243  0.1396  0.0230  0.3465
14019TIP3    H163548   4.673   3.295   3.160 -0.0253  1.6355  0.2701
14019TIP3    H263549   4.698   3.389   3.276 -0.5416 -0.9201  2.5691
14020TIP3   OH263550   6.346   4.234   3.428 -0.3133  0.2244 -0.2422
14020TIP3    H163551   6.335   4.171   3.357  1.9224 -0.3040 -0.2022
14020TIP3    H263552   6.383   4.312   3.386 -0.2747  0.4181  0.1394
14021TIP3   OH263553   1.601   1.658   2.573 -0.5265 -0.6233  0.8207
14021TIP3    H163554   1.565   1.695   2.493 -0.1628  0.7855  1.2814
14021TIP3    H263555   1.561   1.571   2.579 -1.2373 -0.4057 -0.4155
14022TIP3   OH263556   0.980   2.736   1.682  0.3567  0.2191 -0.2417
14022TIP3    H163557   0.892   2.705   1.658  0.1070  0.5251  0.2613
14022TIP3    H263558   0.970   2.830   1.693  1.0893  0.4836 -1.6589
14023TIP3   OH263559   2.181   0.219   3.999 -0.2183 -0.1781  0.0038
14023TIP3    H163560   2.121   0.151   3.970 -0.5851 -0.1178  0.6135
14023TIP3    H263561   2.240   0.175   4.060 -0.5271  0.0740  0.4865
14024TIP3   OH263562   1.749   1.394   9.612  1.0331 -0.5725  0.8557
14024TIP3    H163563   1.695   1.331   9.662  3.3132 -0.9541  3.0407
14024TIP3    H263564   1.721   1.382   9.521 -3.1072 -0.1389  1.8504
14025TIP3   OH263565   1.422   5.056   5.061 -0.4501  0.1110  1.0412
14025TIP3    H163566   1.423   4.976   5.115  1.0754 -2.5837 -2.6001
14025TIP3    H263567   1.514   5.075   5.045 -0.8405  0.1824 -1.3531
14026TIP3   OH263568   6.896   5.822   4.387  0.0851  0.1308 -0.2454
14026TIP3    H163569   6.819   5.766   4.379  0.6707 -0.7781  0.3278
14026TIP3    H263570   6.881   5.874   4.466 -0.4726  0.8292 -0.7953
14027TIP3   OH263571   1.766   0.849   5.158 -0.2374 -0.1221  0.0561
14027TIP3    H163572   1.694   0.788   5.178  0.2351 -0.7811 -0.2139
14027TIP3    H263573   1.820   0.849   5.238  0.1335 -0.5966 -0.1880
14028TIP3   OH263574   6.440   6.630   0.242 -0.0588  0.5145  0.7829
14028TIP3    H163575   6.400   6.551   0.205 -1.1010  1.9183 -1.3307
14028TIP3    H263576   6.412   6.632   0.333  0.0372 -1.5544  0.8876
14029TIP3   OH263577   5.194   1.236   1.303  0.6543  0.2955 -0.3206
14029TIP3    H163578   5.177   1.323   1.268 -0.6599  0.9633  1.7780
14029TIP3    H263579   5.269   1.246   1.361 -1.4490  0.9191  2.5349
14030TIP3   OH263580   4.173   6.336   5.285 -0.6757  0.1412 -0.9656
14030TIP3    H163581   4.245   6.275   5.302  0.1662  1.3757  0.1396
14030TIP3    H263582   4.169   6.390   5.364  0.1257  2.9802 -2.7140
14031TIP3   OH263583   4.616   0.337  13.533 -0.0068  0.3476  0.0682
14031TIP3    H163584   4.560   0.297  13.599 -0.6750  2.4784  0.8700
14031TIP3    H263585   4.580   0.308  13.449 -2.5778  1.8340  0.5322
14032TIP3   OH263586   5.604   6.144   3.590 -0.1356  0.4206  0.0592
14032TIP3    H163587   5.593   6.133   3.685  2.7740 -1.4434  0.3128
14032TIP3    H263588   5.531   6.097   3.551 -1.0122  0.6397  1.3698
14033TIP3   OH263589   5.949   1.458   5.012 -0.1720 -0.1890  0.3768
14033TIP3    H163590   5.991   1.398   4.950 -0.2821  1.3916 -1.3395
14033TIP3    H263591   6.000   1.451   5.092  1.2430 -0.8491 -0.5469
14034TIP3   OH263592   3.166   4.029   4.224  0.5546  0.2411  0.2091
14034TIP3    H163593   3.202   3.988   4.303 -0.7768 -0.6313  0.3942
14034TIP3    H263594   3.231   4.010   4.156  0.9869 -0.3233  0.7645
14035TIP3   OH263595   6.223   6.980   4.339  0.6736 -0.3414 -0.6465
14035TIP3    H163596   6.208   7.074   4.346  0.0866 -0.4801 -0.0097
14035TIP3    H263597   6.258   6.955   4.424  2.4596 -0.4209 -1.3540
14036TIP3   OH263598   4.042   1.898   1.227 -0.2416 -0.7755  0.0507
14036TIP3    H163599   4.091   1.960   1.282 -3.1110  0.4917  1.4143
14036TIP3    H263600   4.065   1.812   1.262  3.2810 -0.6267 -1.4144
14037TIP3   OH263601   4.132   0.739   0.404 -0.0929  0.0665  0.3287
14037TIP3    H163602   4.191   0.694   0.343  0.1984  0.3798  0.3761
14037TIP3    H263603   4.114   0.674   0.472 -0.8025 -0.4517 -0.3279
14038TIP3   OH263604   2.007   4.125   3.307 -0.3737  0.4241  1.2394
14038TIP3    H163605   2.014   4.039   3.265 -2.1913  1.4808 -1.5089
14038TIP3    H263606   1.929   4.119   3.361  1.0250 -0.4027  3.3097
14039TIP3   OH263607   6.277   1.862   1.875  0.3851  0.1872  0.2179
14039TIP3    H163608   6.220   1.937   1.858 -0.7002 -0.5598  0.4729
14039TIP3    H263609   6.349   1.898   1.927  0.1367  1.1351 -0.0731
14040TIP3   OH263610   6.745   4.804   4.602 -0.0890 -0.2009 -0.1806
14040TIP3    H163611   6.675   4.841   4.549  1.6563  2.5920 -0.7627
14040TIP3    H263612   6.706   4.794   4.689 -1.5821 -0.0429 -0.8034
14041TIP3   OH263613   1.973   5.753   2.845  0.3573 -0.2468  0.7654
14041TIP3    H163614   1.984   5.753   2.941  1.1034 -0.8949  0.6899
14041TIP3    H263615   2.036   5.818   2.814  1.0822 -0.9976  0.6285
14042TIP3   OH263616   1.907   5.725   3.753  0.2612 -0.2623  0.6872
14042TIP3    H163617   1.915   5.669   3.676  0.7040  0.0845  0.4749
14042TIP3    H263618   1.940   5.672   3.825  0.0580 -0.5069  0.6000
14043TIP3   OH263619   0.246   5.828   2.839  0.3640  0.2780  0.4497
14043TIP3    H163620   0.163   5.856   2.800  0.0235  0.8305  1.5195
14043TIP3    H263621   0.233   5.735   2.858 -0.3474  0.5524  1.3917
14044TIP3   OH263622   0.073   5.028   5.540  0.6972  0.1722  0.3654
14044TIP3    H163623   0.129   5.064   5.471  1.0298 -0.5094  0.2702
14044TIP3    H263624   0.066   5.099   5.604  0.8775  0.6020 -0.0758
14045TIP3   OH263625   2.973   5.289  14.796  0.2035 -0.6415  0.0528
14045TIP3    H163626   2.881   5.262  14.800  0.8160 -2.8413  1.2190
14045TIP3    H263627   2.991   5.325  14.883  0.1106  1.1037 -0.6288
14046TIP3   OH263628   6.751   3.080   2.901 -1.2077  0.3103 -0.3460
14046TIP3    H163629   6.714   3.023   2.968 -2.0239  0.3351 -0.7695
14046TIP3    H263630   6.717   3.046   2.819 -0.3588  0.3920 -0.7449
14047TIP3   OH263631   1.041   0.432   2.841  0.2308  0.1685 -0.1016
14047TIP3    H163632   1.031   0.391   2.755 -0.2052  0.9663 -0.4417
14047TIP3    H263633   1.132   0.461   2.844 -0.6142  3.3809 -1.8031
14048TIP3   OH263634   6.680   4.979  11.998  0.4116 -0.2585  0.3966
14048TIP3    H163635   6.644   4.921  12.065  1.1382 -0.5384  0.5543
14048TIP3    H263636   6.644   4.945  11.916  0.9063 -1.0131  0.4747
14049TIP3   OH263637   1.114   6.357   2.387  0.6317  0.7012 -0.3074
14049TIP3    H163638   1.028   6.328   2.418 -0.1952  1.7498 -1.4608
14049TIP3    H263639   1.177   6.300   2.431 -0.6651 -0.2156  0.4288
14050TIP3   OH263640   2.485   6.852  11.356 -0.1498  0.0498 -0.1666
14050TIP3    H163641   2.451   6.774  11.313  0.4261 -0.9001  1.0577
14050TIP3    H263642   2.569   6.825  11.393 -1.3481  0.2600  3.0348
14051TIP3   OH263643   1.795   4.748   4.069 -0.0306 -0.2422  0.3626
14051TIP3    H163644   1.856   4.680   4.097 -0.2308 -0.4849  0.2052
14051TIP3    H263645   1.763   4.719   3.983 -0.3612 -0.1105  0.4393
14052TIP3   OH263646   0.430   5.011   5.371 -0.1417  0.7849 -0.6491
14052TIP3    H163647   0.492   4.990   5.301 -4.0848 -1.4561 -3.8976
14052TIP3    H263648   0.425   4.931   5.424 -0.1735  0.9888 -0.3426
14053TIP3   OH263649   3.076   2.334   3.517  0.0093  0.0827 -0.0456
14053TIP3    H163650   3.083   2.257   3.573 -0.3172 -0.3814 -0.6335
14053TIP3    H263651   2.992   2.373   3.542  1.4296  1.9525  2.3453
14054TIP3   OH263652   2.642   6.976   3.543 -0.0877  0.1689 -0.0746
14054TIP3    H163653   2.642   6.884   3.570  0.6373 -0.1393 -1.0836
14054TIP3    H263654   2.662   6.974   3.450  1.8105  1.4334  0.2378
14055TIP3   OH263655   1.870   5.636  10.612 -0.1251  0.1170 -0.1861
14055TIP3    H163656   1.846   5.725  10.636 -0.6160  0.1280 -0.7064
14055TIP3    H263657   1.961   5.642  10.585 -0.0697  0.4075  0.0621
14056TIP3   OH263658   0.001   7.114   4.621  0.2205 -0.1453  0.0493
14056TIP3    H163659   0.089   7.079   4.603 -0.2618 -1.0241 -0.7060
14056TIP3    H263660  -0.027   7.152   4.538 -0.1471  0.0360  0.2561
14057TIP3   OH263661   5.353   4.558   9.801 -0.2655  0.3685 -0.1146
14057TIP3    H163662   5.376   4.650   9.816  0.1429 -0.0594  2.1457
14057TIP3    H263663   5.420   4.509   9.848 -1.1864 -1.0852 -0.2753
14058TIP3   OH263664   2.710   4.264  10.676 -0.0244 -0.1930 -0.4873
14058TIP3    H163665   2.763   4.328  10.628 -0.9484  2.1553  1.4226
14058TIP3    H263666   2.622   4.274  10.640 -0.3463  0.2724  0.3901
14059TIP3   OH263667   4.076   5.813   4.695 -0.0962 -0.0864 -0.5855
14059TIP3    H163668   4.020   5.889   4.711 -1.2993 -1.3390  1.6897
14059TIP3    H263669   4.104   5.785   4.782 -0.1798 -2.5631 -1.2675
14060TIP3   OH263670   6.682   6.691   4.215  0.3722 -0.1354  0.8701
14060TIP3    H163671   6.632   6.722   4.139  1.0445 -2.0410 -0.4117
14060TIP3    H263672   6.754   6.753   4.223 -0.5181  0.9415  0.9243
14061TIP3   OH263673   6.879   1.646   5.827  0.7281 -0.1556 -0.7351
14061TIP3    H163674   6.938   1.574   5.848  1.9773  0.7507 -1.0140
14061TIP3    H263675   6.905   1.673   5.739 -2.6211 -2.1643 -2.5424
14062TIP3   OH263676   6.154   6.648  14.851 -0.2124  0.0901 -0.3446
14062TIP3    H163677   6.211   6.711  14.807 -2.5476  2.4460 -0.2603
14062TIP3    H263678   6.196   6.631  14.936  0.5823  1.3944 -0.4630
14063TIP3   OH263679   3.919   2.296  14.228 -0.3360  0.1739 -0.1765
14063TIP3    H163680   3.953   2.308  14.317 -0.0478  1.4605 -0.4445
14063TIP3    H263681   3.988   2.249  14.182 -0.0881  0.3280  0.0333
14064TIP3   OH263682   0.536   5.384   1.095 -0.0713  0.4035 -0.2021
14064TIP3    H163683   0.441   5.376   1.086  0.0131 -0.5916 -0.3623
14064TIP3    H263684   0.550   5.401   1.188 -0.4101  0.6655 -0.1965
14065TIP3   OH263685   2.259   5.148   4.409 -0.0381 -0.0717  0.4341
14065TIP3    H163686   2.238   5.055   4.404  0.8645 -0.3837  1.8598
14065TIP3    H263687   2.218   5.177   4.491 -0.0693  0.7269  0.1408
14066TIP3   OH263688   7.105   6.525  14.484  0.6602 -0.1068  0.1237
14066TIP3    H163689   7.040   6.576  14.436  0.4908 -0.3533  0.0864
14066TIP3    H263690   7.161   6.590  14.526 -1.4633  0.1635  2.7481
14067TIP3   OH263691   4.070   5.840   4.006 -0.0014  0.4036 -0.1716
14067TIP3    H163692   4.076   5.912   4.069 -0.1975  0.2290  0.0484
14067TIP3    H263693   4.160   5.827   3.976  0.0561  0.6486 -0.1073
14068TIP3   OH263694   0.285   4.900  15.182 -0.2293  0.4894 -0.0702
14068TIP3    H163695   0.208   4.926  15.231 -0.8757  1.2898 -1.4601
14068TIP3    H263696   0.256   4.825  15.130  0.4123 -0.2652  0.6230
14069TIP3   OH263697   0.481   3.271   1.603 -0.7909 -0.0412  0.5425
14069TIP3    H163698   0.412   3.293   1.541 -0.7565 -0.0691  0.4952
14069TIP3    H263699   0.514   3.186   1.574  0.6606  0.8857 -0.6536
14070TIP3   OH263700   4.077   7.242   2.490  0.0604 -0.2220 -0.3723
14070TIP3    H163701   4.132   7.294   2.549  0.4345  0.3247 -1.1798
14070TIP3    H263702   4.132   7.227   2.413  0.6944 -3.4778  0.5464
14071TIP3   OH263703   1.103   0.785   1.860 -0.2174 -0.0402  0.0603
14071TIP3    H163704   1.024   0.839   1.859 -0.4414 -0.3665 -0.8884
14071TIP3    H263705   1.162   0.829   1.799  0.5559  0.5070  1.1808
14072TIP3   OH263706   0.447   2.512  14.842  0.5282  0.0818 -0.1252
14072TIP3    H163707   0.509   2.440  14.827 -0.8570 -0.9331 -1.3546
14072TIP3    H263708   0.457   2.568  14.765 -1.3624 -1.1440 -1.3717
14073TIP3   OH263709   1.074   4.560   2.391  0.5180  0.3247 -0.0224
14073TIP3    H163710   1.144   4.625   2.401  1.8076 -0.7365 -1.5714
14073TIP3    H263711   1.065   4.549   2.296 -0.5276 -0.8622  0.1808
14074TIP3   OH263712   2.126   6.285   3.964  0.4818 -0.2784  0.6447
14074TIP3    H163713   2.108   6.291   3.870 -0.2985 -1.4613  0.6920
14074TIP3    H263714   2.053   6.333   4.005  1.1179  0.7135  0.6460
14075TIP3   OH263715   5.176   1.731   5.002 -0.2846 -0.2362  0.3984
14075TIP3    H163716   5.243   1.766   5.061 -1.6588  1.7231  0.8947
14075TIP3    H263717   5.184   1.783   4.923 -1.3251  0.1363  0.5298
14076TIP3   OH263718   6.706   5.656   0.567 -0.0638 -0.0925  0.4012
14076TIP3    H163719   6.725   5.741   0.526 -0.1525 -1.1429 -1.9266
14076TIP3    H263720   6.785   5.604   0.553 -0.7215 -1.0278  0.1125
14077TIP3   OH263721   3.897   0.911  11.165 -0.1587  0.0593  0.4478
14077TIP3    H163722   3.862   0.858  11.236  2.9115  0.2639  2.3211
14077TIP3    H263723   3.959   0.852  11.120 -0.4912  0.5763 -0.7223
14078TIP3   OH263724   6.857   4.749  13.523  0.0318 -0.1936 -0.1359
14078TIP3    H163725   6.802   4.788  13.455  1.0791 -1.8299 -2.0536
14078TIP3    H263726   6.871   4.659  13.493  3.6073  0.0832  0.2969
14079TIP3   OH263727   7.135   3.215  12.289 -0.3288 -0.2400 -0.2442
14079TIP3    H163728   7.059   3.226  12.232 -0.1609 -0.8355 -0.5905
14079TIP3    H263729   7.120   3.131  12.333 -0.0731 -0.1602 -0.0030
14080TIP3   OH263730   2.912   6.237  11.506  0.2318  0.6590 -0.4222
14080TIP3    H163731   2.970   6.303  11.544  1.9216  0.1588 -1.9842
14080TIP3    H263732   2.877   6.279  11.427  0.9407 -0.0948 -1.1647
14081TIP3   OH263733   6.036   4.630  14.865  0.5393 -0.4006  0.5758
14081TIP3    H163734   6.119   4.590  14.892  0.7256  0.1723  0.8835
14081TIP3    H263735   6.058   4.723  14.853 -0.6134  0.3401  3.3698
14082TIP3   OH263736   4.935   3.174   1.545  0.7224  0.2510  0.1155
14082TIP3    H163737   5.013   3.216   1.580 -0.3499  1.0898  1.6355
14082TIP3    H263738   4.931   3.090   1.589  0.0883  0.7563  1.0572
14083TIP3   OH263739   3.573   6.425   4.815 -0.0665  0.1940 -0.2673
14083TIP3    H163740   3.586   6.470   4.732 -0.1198 -0.8662 -0.8612
14083TIP3    H263741   3.632   6.350   4.812 -0.0165  0.1789  0.6868
14084TIP3   OH263742   0.363   2.895   1.090 -0.1586  0.0877  0.1865
14084TIP3    H163743   0.272   2.869   1.081 -0.0022 -0.0668 -1.2822
14084TIP3    H263744   0.365   2.949   1.168 -1.6884  0.8667 -0.2740
14085TIP3   OH263745   3.799   1.118   5.169  0.2298  0.1501 -0.3752
14085TIP3    H163746   3.757   1.204   5.166 -1.0243 -0.4482 -1.7314
14085TIP3    H263747   3.769   1.079   5.251  0.0542  0.6444 -0.2004
14086TIP3   OH263748   1.785   6.948   4.412 -0.3958 -0.0491 -0.4099
14086TIP3    H163749   1.706   6.996   4.437 -1.3430 -1.6498 -0.2333
14086TIP3    H263750   1.803   6.891   4.487 -0.8150 -1.8469 -1.6244
14087TIP3   OH263751   4.051   4.892   4.661 -0.2725  0.5529 -0.2208
14087TIP3    H163752   3.979   4.846   4.703 -0.0778  0.2828 -0.1817
14087TIP3    H263753   4.125   4.832   4.668  0.1286  1.1067  0.3369
14088TIP3   OH263754   7.173   1.034   3.540 -0.3033  0.2393 -0.8015
14088TIP3    H163755   7.192   0.941   3.551 -1.8432  0.0181  0.3258
14088TIP3    H263756   7.143   1.063   3.626 -1.6129  1.3192 -1.5724
14089TIP3   OH263757   0.025   4.084   0.241 -0.2240  0.0009 -0.2250
14089TIP3    H163758   0.052   4.043   0.324 -0.6318 -1.1560 -0.6377
14089TIP3    H263759  -0.036   4.021   0.202  0.2657  0.3411 -1.5958
14090TIP3   OH263760   4.530   6.377   2.447  0.5482  0.2846  0.6387
14090TIP3    H163761   4.553   6.470   2.453  0.6398  0.6121 -2.7378
14090TIP3    H263762   4.435   6.375   2.440  0.6696  0.5756 -2.7433
14091TIP3   OH263763   0.900   0.658   2.970 -0.0790 -0.6204 -0.2366
14091TIP3    H163764   0.909   0.586   3.032  0.8789 -0.6050 -0.3414
14091TIP3    H263765   0.813   0.647   2.932 -0.8148 -0.4533  1.3298
14092TIP3   OH263766   0.913   0.022   3.958  0.1960 -0.8022 -0.0147
14092TIP3    H163767   0.978   0.004   3.890 -3.0304 -1.7988 -3.1418
14092TIP3    H263768   0.903   0.117   3.957  0.9202 -0.7208 -0.1563
14093TIP3   OH263769   0.467   0.367   4.725 -0.9793  0.1291  0.3611
14093TIP3    H163770   0.466   0.272   4.716 -0.7858  0.1812 -0.2659
14093TIP3    H263771   0.496   0.399   4.640  0.1315  0.6969  0.9237
14094TIP3   OH263772   5.193   6.407   9.861  0.3446 -0.4726 -0.3387
14094TIP3    H163773   5.263   6.470   9.847 -0.9157  1.1160  0.2272
14094TIP3    H263774   5.122   6.438   9.805 -0.6249 -0.8437  0.6588
14095TIP3   OH263775   6.220   2.938   1.770  0.0586 -0.3959  0.7294
14095TIP3    H163776   6.309   2.920   1.739  0.2297 -0.1315  1.0632
14095TIP3    H263777   6.164   2.911   1.698  0.5259  2.3784 -0.8322
14096TIP3   OH263778   2.529   6.981  13.011 -0.1758 -0.3658 -0.5806
14096TIP3    H163779   2.540   6.907  13.070 -0.7987 -0.5023 -0.6259
14096TIP3    H263780   2.451   7.027  13.043  1.0561  1.1815  0.3907
14097TIP3   OH263781   0.247   3.489   1.907  0.1272  0.0680 -0.7005
14097TIP3    H163782   0.272   3.397   1.904 -0.6275 -0.1531 -0.5479
14097TIP3    H263783   0.225   3.505   1.999 -2.3038 -0.3491 -1.1247
14098TIP3   OH263784   0.500   6.977   0.169  0.1488 -0.2901  0.6930
14098TIP3    H163785   0.522   7.056   0.121  3.1256 -0.4452  1.5871
14098TIP3    H263786   0.473   7.009   0.256  0.6307 -0.1999  0.8146
14099TIP3   OH263787   3.710   1.910   5.680  0.9571 -0.2037 -0.0819
14099TIP3    H163788   3.659   1.976   5.727  0.1446  1.7018 -3.2839
14099TIP3    H263789   3.717   1.837   5.741 -2.5849  0.8047  1.8360
14100TIP3   OH263790   4.409   0.150   3.772  0.5385  0.5611  0.8000
14100TIP3    H163791   4.499   0.141   3.742  0.5337 -1.6009  1.2449
14100TIP3    H263792   4.414   0.140   3.867 -0.2864 -1.5456  0.6913
14101TIP3   OH263793   6.832   5.863   1.992 -0.2320 -0.3353 -0.3534
14101TIP3    H163794   6.815   5.911   1.911  3.3723 -2.0180 -2.3558
14101TIP3    H263795   6.772   5.789   1.989  0.4186 -0.8285 -1.9782
14102TIP3   OH263796   5.092   0.801   4.778 -0.5115  0.4828  0.3243
14102TIP3    H163797   5.182   0.802   4.746 -1.3502  0.0139 -2.2816
14102TIP3    H263798   5.096   0.749   4.858  1.2109 -1.4392 -0.9134
14103TIP3   OH263799   3.441   4.746   4.103  0.0542  0.6179 -0.3542
14103TIP3    H163800   3.487   4.697   4.171 -1.3152  0.3130  0.3889
14103TIP3    H263801   3.467   4.837   4.117 -0.2398  0.5600  0.6045
14104TIP3   OH263802   2.527   1.557   0.850  0.0865  0.7083  0.5713
14104TIP3    H163803   2.550   1.505   0.927 -1.1097  2.6117  2.3309
14104TIP3    H263804   2.433   1.571   0.858 -0.0639  0.9423 -1.2653
14105TIP3   OH263805   0.989   5.920  13.781  0.1619  0.1361 -0.3422
14105TIP3    H163806   0.939   5.966  13.713 -0.6297 -1.0388 -0.6066
14105TIP3    H263807   0.961   5.828  13.772  1.3851 -0.3320  0.4030
14106TIP3   OH263808   7.219   1.609   0.780 -0.4487  0.2852  0.4415
14106TIP3    H163809   7.123   1.613   0.778 -0.6735 -2.6348  0.8513
14106TIP3    H263810   7.240   1.570   0.864  0.9809 -0.9064 -0.4201
14107TIP3   OH263811   2.972   1.380  15.042 -0.0150  0.3077 -0.2606
14107TIP3    H163812   3.015   1.434  14.976 -0.1512 -0.7813 -1.2717
14107TIP3    H263813   2.935   1.442  15.104  0.0417  1.3620 -1.2582
14108TIP3   OH263814   6.272   0.621   2.248 -0.0848 -0.0306  0.3024
14108TIP3    H163815   6.262   0.554   2.315 -0.4739 -0.2011  0.0822
14108TIP3    H263816   6.295   0.572   2.169 -3.1961 -0.2938 -0.6001
14109TIP3   OH263817   6.259   1.879  11.104  0.2617  0.4286  0.0566
14109TIP3    H163818   6.224   1.851  11.189 -0.6116  0.7481 -0.1881
14109TIP3    H263819   6.281   1.797  11.059  0.4247  0.2467  0.4538
14110TIP3   OH263820   2.349   1.134   5.385  0.1730 -0.3444  0.4743
14110TIP3    H163821   2.344   1.134   5.481  0.4620 -2.2527  0.5243
14110TIP3    H263822   2.265   1.098   5.357 -0.0117  0.4470 -0.0267
14111TIP3   OH263823   0.569   2.567   4.209  0.1353  0.2206  0.1705
14111TIP3    H163824   0.588   2.546   4.301  0.7379  0.1804  0.0427
14111TIP3    H263825   0.493   2.625   4.213  0.5698  0.7669  0.7456
14112TIP3   OH263826   1.697   6.133  14.947  0.0279 -0.0165  0.5396
14112TIP3    H163827   1.681   6.212  14.896 -0.5511  0.0199  0.7714
14112TIP3    H263828   1.720   6.067  14.882 -1.6754 -0.2343  0.1116
14113TIP3   OH263829   2.346   2.855  15.203 -0.2928 -0.4777  0.1581
14113TIP3    H163830   2.261   2.883  15.169 -0.6542 -0.2798  1.1859
14113TIP3    H263831   2.401   2.844  15.126 -1.4664 -1.3329 -0.5761
14114TIP3   OH263832   6.700   5.370   3.337  0.0451  0.1172 -0.2711
14114TIP3    H163833   6.636   5.400   3.272  0.2738 -0.2280 -0.6624
14114TIP3    H263834   6.655   5.379   3.421  0.0362  1.3439 -0.3928
14115TIP3   OH263835   5.734   2.718   5.555  0.0443 -0.0063  0.3605
14115TIP3    H163836   5.800   2.723   5.623  0.3287  0.5566  0.0563
14115TIP3    H263837   5.720   2.810   5.529  0.2250 -0.2357 -0.5957
14116TIP3   OH263838   3.738   1.028   2.649  0.3304 -0.0965  0.2035
14116TIP3    H163839   3.688   0.954   2.683 -1.3940 -0.2955 -2.4875
14116TIP3    H263840   3.674   1.083   2.604  1.8277  2.1836  0.6359
14117TIP3   OH263841   2.049   2.284   3.937 -0.4209 -0.3316  0.2393
14117TIP3    H163842   2.014   2.206   3.980 -0.4723 -0.3138  0.2285
14117TIP3    H263843   1.998   2.356   3.972 -0.9195 -0.3851 -0.3533
14118TIP3   OH263844   3.889   3.808   1.255  0.2997 -0.0606 -0.7397
14118TIP3    H163845   3.951   3.736   1.241  0.0692 -0.6409  0.9662
14118TIP3    H263846   3.811   3.765   1.290 -0.3783  0.8741 -1.0780
14119TIP3   OH263847   2.967   4.235   1.220  0.8082  0.3453  0.1619
14119TIP3    H163848   2.965   4.144   1.191  1.0674 -0.1042  1.4625
14119TIP3    H263849   2.975   4.229   1.315 -1.2498  1.7223  0.4726
14120TIP3   OH263850   0.209   0.936   1.078  0.0748 -0.3378 -0.1592
14120TIP3    H163851   0.274   0.917   1.145 -0.3360 -1.3340 -0.0316
14120TIP3    H263852   0.261   0.965   1.003  0.6734 -1.0160 -0.0238
14121TIP3   OH263853   4.289   0.014   1.834 -0.2433  0.9045 -0.0712
14121TIP3    H163854   4.307   0.099   1.793 -0.5528  1.8367  1.6291
14121TIP3    H263855   4.360  -0.043   1.803  0.6034  2.0914 -0.3845
14122TIP3   OH263856   5.765   1.439   1.071 -0.2829 -0.0009  0.1686
14122TIP3    H163857   5.831   1.385   1.115  0.0080  0.2027 -0.0106
14122TIP3    H263858   5.752   1.513   1.131  1.0495  0.9340 -0.6466
14123TIP3   OH263859   0.245   5.472   0.501  0.1524  0.5842 -0.0690
14123TIP3    H163860   0.261   5.396   0.557 -0.5467  1.6803  1.7250
14123TIP3    H263861   0.168   5.448   0.450 -0.4593  0.3012  0.9549
14124TIP3   OH263862   6.098   1.378   0.720  0.7120 -0.5656 -0.2530
14124TIP3    H163863   6.183   1.360   0.761  0.9736  1.7312  0.3548
14124TIP3    H263864   6.110   1.463   0.677 -0.9855 -0.6814 -1.0388
14125TIP3   OH263865   4.649   0.985  12.719  0.6658 -0.2946  0.2513
14125TIP3    H163866   4.731   0.951  12.755  1.2383  0.3397 -0.4004
14125TIP3    H263867   4.615   1.043  12.787  0.0827 -1.5378  1.0458
14126TIP3   OH263868   5.608   3.644   3.879 -0.3738  0.1825 -1.2171
14126TIP3    H163869   5.601   3.738   3.895 -0.6913 -0.2085  1.6532
14126TIP3    H263870   5.639   3.636   3.789  0.5024  3.0389 -1.2591
14127TIP3   OH263871   4.604   4.132  14.718  0.4058 -0.5807 -0.2648
14127TIP3    H163872   4.574   4.158  14.806 -2.3406  1.3786 -1.6182
14127TIP3    H263873   4.633   4.214  14.678  0.3422 -1.2064 -1.6221
14128TIP3   OH263874   6.212   0.945  15.262 -0.2378 -0.1276  0.2306
14128TIP3    H163875   6.248   1.022  15.307  1.2722 -1.3190  1.1621
14128TIP3    H263876   6.160   0.900  15.329 -1.1008  0.0616 -0.3048
14129TIP3   OH263877   6.314   2.743   5.352  0.2143  0.2131  0.2692
14129TIP3    H163878   6.260   2.822   5.357  0.0041  0.1725 -0.9194
14129TIP3    H263879   6.364   2.743   5.433 -0.6922  0.8990  0.8554
14130TIP3   OH263880   2.494   5.135   1.306  0.1012  0.0092  0.3645
14130TIP3    H163881   2.503   5.057   1.360  1.0813 -0.1888 -0.0572
14130TIP3    H263882   2.584   5.158   1.283 -0.3304 -1.3923 -3.3148
14131TIP3   OH263883   1.714   4.451  12.021  0.3182  0.0089 -0.2052
14131TIP3    H163884   1.629   4.475  11.986  0.2659 -0.0555 -0.1222
14131TIP3    H263885   1.774   4.459  11.946  0.2545  0.1376 -0.2415
14132TIP3   OH263886   3.920   6.353   4.684  0.3026  0.3873 -0.6515
14132TIP3    H163887   3.977   6.410   4.735  0.7766  0.7488 -1.5649
14132TIP3    H263888   3.852   6.325   4.745  0.5527  1.2485  0.0270
14133TIP3   OH263889   1.581   5.961   1.083  0.6810 -0.0552 -0.2013
14133TIP3    H163890   1.541   5.947   0.996  1.1761  0.6502 -0.5580
14133TIP3    H263891   1.509   5.997   1.135 -0.4475 -3.1087  0.5727
14134TIP3   OH263892   0.392   3.277   2.422 -0.0758  0.1313 -0.4343
14134TIP3    H163893   0.391   3.186   2.391  0.8406 -0.0239 -0.0330
14134TIP3    H263894   0.301   3.295   2.445 -0.1470 -0.9369  0.2076
14135TIP3   OH263895   6.344   1.105   2.041 -0.1330  0.2247  0.3978
14135TIP3    H163896   6.369   1.021   2.001  1.0281  0.1918  1.1513
14135TIP3    H263897   6.380   1.171   1.982  0.3591  0.1842  0.6527
14136TIP3   OH263898   0.502   7.041  11.952  0.1372 -0.1493  0.0306
14136TIP3    H163899   0.596   7.034  11.967  0.3833 -0.8935 -1.6589
14136TIP3    H263900   0.467   6.958  11.986  0.1216  0.0269  0.4447
14137TIP3   OH263901   6.664   5.079   3.326  0.5795  0.1775  0.0345
14137TIP3    H163902   6.744   5.030   3.347  1.0145  1.0755  0.5512
14137TIP3    H263903   6.695   5.168   3.309 -0.5021  0.9729  1.9836
14138TIP3   OH263904   0.214   5.208   3.892 -0.3715 -0.1704  0.5646
14138TIP3    H163905   0.271   5.132   3.904 -1.3470 -1.2059 -0.9658
14138TIP3    H263906   0.126   5.175   3.910 -0.8961  0.3597 -0.9230
14139TIP3   OH263907   3.245   0.983   3.355 -0.3702  0.4839 -0.4640
14139TIP3    H163908   3.218   1.015   3.268  0.9530  1.0338 -0.7004
14139TIP3    H263909   3.167   0.941   3.391 -0.2734 -2.2137 -3.0262
14140TIP3   OH263910   4.825   6.426   1.664 -0.1130 -0.1802  0.3242
14140TIP3    H163911   4.839   6.431   1.758  0.6910 -1.7898  0.3294
14140TIP3    H263912   4.758   6.358   1.653  0.3108 -0.5089 -0.2886
14141TIP3   OH263913   4.098   2.951   2.867  0.1940 -0.1118 -0.1150
14141TIP3    H163914   4.105   3.000   2.949 -0.1571 -1.8309  0.9846
14141TIP3    H263915   4.183   2.908   2.857  0.2683  0.1680 -0.7111
14142TIP3   OH263916   2.337   7.225   2.360 -0.1230  0.3756 -0.7064
14142TIP3    H163917   2.426   7.201   2.337  0.2689  0.4510  0.6458
14142TIP3    H263918   2.283   7.154   2.323  0.6196 -0.3585 -0.4124
14143TIP3   OH263919   6.203   6.306   2.632 -0.6937  0.4256  0.3324
14143TIP3    H163920   6.256   6.336   2.706 -2.2425 -1.4338  2.3163
14143TIP3    H263921   6.212   6.210   2.634  0.1435  0.3571 -2.6755
14144TIP3   OH263922   2.903   1.371  13.812  0.4986 -0.9658 -0.5356
14144TIP3    H163923   2.917   1.277  13.820  0.1446 -0.9177  0.8064
14144TIP3    H263924   2.825   1.380  13.757 -0.6159 -1.5169  0.9198
14145TIP3   OH263925   3.610   2.125   5.811  0.0544 -0.3059  0.2985
14145TIP3    H163926   3.633   2.210   5.847  0.4591  0.0826 -0.8322
14145TIP3    H263927   3.518   2.113   5.835 -0.2982  0.9005 -0.3387
14146TIP3   OH263928   3.709   1.007   5.419  0.1891 -0.0534 -0.0729
14146TIP3    H163929   3.653   1.050   5.484  0.4327 -1.3494  1.0402
14146TIP3    H263930   3.774   0.960   5.471 -0.1883 -1.9073 -1.2024
14147TIP3   OH263931   4.217   2.316  14.980  0.4246  0.1516  0.4710
14147TIP3    H163932   4.220   2.234  15.029  0.5251  0.5276  1.1020
14147TIP3    H263933   4.177   2.379  15.040  0.9175  0.7170  0.2176
14148TIP3   OH263934   5.625   5.060  15.215  0.2606  0.4438 -0.0544
14148TIP3    H163935   5.611   5.154  15.220 -1.0150  0.2130  1.5001
14148TIP3    H263936   5.590   5.035  15.129  0.9947  1.4091 -0.6642
14149TIP3   OH263937   5.588   6.048   0.991 -0.2963 -0.1720  0.1591
14149TIP3    H163938   5.656   6.110   1.018 -0.3021 -0.2045  0.2511
14149TIP3    H263939   5.628   5.997   0.921 -0.2914 -0.0638  0.0826
14150TIP3   OH263940   5.280   6.501   3.902  0.0236 -0.2837 -0.0433
14150TIP3    H163941   5.353   6.511   3.963  1.0472 -1.7883 -0.9464
14150TIP3    H263942   5.214   6.453   3.951 -0.0095  0.3457  0.5268
14151TIP3   OH263943   6.757   3.115   2.424 -0.1857  0.0868 -0.1857
14151TIP3    H163944   6.761   3.058   2.347 -1.7867  0.0950 -0.3061
14151TIP3    H263945   6.719   3.197   2.391 -1.3291 -0.0724  0.6757
14152TIP3   OH263946   5.660   5.470   4.322 -0.2588 -0.4934 -0.1781
14152TIP3    H163947   5.606   5.516   4.259  0.8428 -0.2355 -0.9735
14152TIP3    H263948   5.748   5.471   4.284  0.3864 -0.5945  1.2209
14153TIP3   OH263949   0.331   3.203   0.654  0.2530 -0.0119 -0.0405
14153TIP3    H163950   0.296   3.241   0.734  1.6162 -0.4514  0.8151
14153TIP3    H263951   0.269   3.227   0.586 -0.4010  1.2631  0.9664
14154TIP3   OH263952   5.614   1.515   5.367  0.5353  0.2088 -0.2745
14154TIP3    H163953   5.627   1.556   5.452  1.8158 -1.3736  0.3419
14154TIP3    H263954   5.692   1.462   5.354  0.5904  0.7672 -2.6754
14155TIP3   OH263955   1.761   1.379   5.391 -0.1088 -0.4467  0.4406
14155TIP3    H163956   1.692   1.331   5.438  0.3871 -0.7022  0.9148
14155TIP3    H263957   1.714   1.450   5.346 -1.1534 -2.4009 -1.7724
14156TIP3   OH263958   4.815   3.587  12.251  0.5651 -0.1017  0.8279
14156TIP3    H163959   4.731   3.630  12.235  0.3569 -0.6811  0.3195
14156TIP3    H263960   4.869   3.611  12.176  0.3905 -0.8555  0.4515
14157TIP3   OH263961   0.464   0.394   0.927 -0.1446 -0.2356 -0.2646
14157TIP3    H163962   0.385   0.445   0.906 -0.3695 -1.2961 -2.2120
14157TIP3    H263963   0.436   0.335   0.996 -0.5064  0.7036  0.4169
14158TIP3   OH263964   0.113   3.304   2.437  0.1708 -0.2124 -0.0016
14158TIP3    H163965   0.054   3.260   2.375 -1.5605  0.9896  0.7093
14158TIP3    H263966   0.143   3.382   2.390 -0.0591 -0.0145  0.1750
14159TIP3   OH263967   1.703   1.301   0.784 -0.1113 -0.8164 -0.5595
14159TIP3    H163968   1.615   1.282   0.814 -0.6919 -0.5286 -1.9972
14159TIP3    H263969   1.758   1.287   0.861 -1.6206  1.0960  0.9467
14160TIP3   OH263970   0.605   5.463   3.959 -0.4528 -0.4051  0.5966
14160TIP3    H163971   0.628   5.553   3.937 -0.2999  0.0546  2.4304
14160TIP3    H263972   0.661   5.442   4.034 -2.0129 -1.2451  1.5772
14161TIP3   OH263973   3.393   1.773   5.258  0.4473  0.9453  0.4483
14161TIP3    H163974   3.381   1.858   5.299  1.3077  1.5867 -0.5709
14161TIP3    H263975   3.335   1.714   5.307  1.5233  1.6104  2.6607
14162TIP3   OH263976   5.816   5.726   0.594 -0.8433 -0.3716  0.0360
14162TIP3    H163977   5.909   5.702   0.594 -0.5826  0.4822  1.8060
14162TIP3    H263978   5.770   5.642   0.591 -0.0002 -0.8764  0.8047
14163TIP3   OH263979   6.004   6.824   4.285 -0.0525  0.1269  0.1093
14163TIP3    H163980   6.040   6.774   4.358  0.9735 -0.4368 -0.7563
14163TIP3    H263981   6.076   6.881   4.257 -0.2819  0.0264 -0.7226
14164TIP3   OH263982   4.516   3.441   0.379 -0.0996  0.6069  0.2565
14164TIP3    H163983   4.440   3.394   0.413  0.1458 -1.4997 -1.8625
14164TIP3    H263984   4.481   3.494   0.308  0.1464  1.0478  0.4648
14165TIP3   OH263985   1.924   0.490  10.536  0.2782 -0.4653 -0.0230
14165TIP3    H163986   1.991   0.423  10.552 -0.4550 -1.1952  0.1133
14165TIP3    H263987   1.873   0.455  10.463 -1.5711 -1.2415  1.5421
14166TIP3   OH263988   1.074   3.047   2.654 -0.6645  0.3236  0.2542
14166TIP3    H163989   0.992   3.060   2.607 -0.3601 -0.2335 -0.4438
14166TIP3    H263990   1.049   3.040   2.746 -1.2957  1.1370  0.1527
14167TIP3   OH263991   2.310   2.248   4.056 -1.1686 -0.3689 -0.1223
14167TIP3    H163992   2.271   2.241   3.969  0.3690 -0.0033 -0.8742
14167TIP3    H263993   2.400   2.217   4.044 -0.4345  1.2185  0.9574
14168TIP3   OH263994   5.174   5.159   1.308 -0.1941 -0.5658 -0.0586
14168TIP3    H163995   5.184   5.223   1.378 -0.1744 -0.1157 -0.4684
14168TIP3    H263996   5.260   5.116   1.303 -0.1796 -0.5613  0.1538
14169TIP3   OH263997   4.696   4.794  15.282  0.3495  0.3978 -0.2431
14169TIP3    H163998   4.706   4.837  15.367 -1.5789  0.7048 -0.1201
14169TIP3    H263999   4.632   4.725  15.298 -0.9709  1.2395 -1.6783
14170TIP3   OH264000   4.272   0.855   1.707 -0.1501 -0.1494  0.4012
14170TIP3    H164001   4.247   0.926   1.766  0.2571  0.6076 -0.3127
14170TIP3    H264002   4.269   0.777   1.761 -1.4870  0.2809  0.9858
14171TIP3   OH264003   4.056   1.190   4.136  0.3022 -0.0640  0.4789
14171TIP3    H164004   4.142   1.181   4.096  0.2477 -0.1093  0.3700
14171TIP3    H264005   4.019   1.102   4.133  0.4882 -0.1672  1.0680
14172TIP3   OH264006   1.903   0.080  14.974  0.1245  0.2580 -0.6355
14172TIP3    H164007   1.954   0.065  14.895 -1.1886 -1.5167 -1.2074
14172TIP3    H264008   1.875   0.171  14.967  3.6887  1.5843  0.0832
14173TIP3   OH264009   2.633   3.286  14.876  0.5191  0.0505 -0.0950
14173TIP3    H164010   2.597   3.295  14.964 -1.0370 -0.3810 -0.6516
14173TIP3    H264011   2.681   3.203  14.879 -1.7718 -1.3939 -0.3061
14174TIP3   OH264012   4.320   3.720   1.654  0.0106  0.5958  0.2524
14174TIP3    H164013   4.400   3.760   1.619  1.6537 -3.1926 -0.7974
14174TIP3    H264014   4.267   3.701   1.576  0.8598 -2.2182  0.2673
14175TIP3   OH264015   3.149   6.132  14.844 -0.1617  0.4248 -0.1348
14175TIP3    H164016   3.179   6.080  14.769 -1.7383  0.7691 -1.0445
14175TIP3    H264017   3.072   6.178  14.811 -1.1695  0.2288  1.8469
14176TIP3   OH264018   3.733   2.609  15.064 -0.1143 -0.6238 -0.4137
14176TIP3    H164019   3.765   2.522  15.086  1.8407  0.2538  0.5634
14176TIP3    H264020   3.773   2.666  15.130  0.9186  1.3529 -2.5769
14177TIP3   OH264021   4.260   3.240   4.842  0.0939  0.5796 -0.2572
14177TIP3    H164022   4.258   3.229   4.747 -0.8507 -1.7839 -0.0338
14177TIP3    H264023   4.286   3.154   4.876 -3.6623  0.0266  1.7398
14178TIP3   OH264024   0.496   4.940   3.696 -0.2718  0.3320 -0.4033
14178TIP3    H164025   0.473   4.854   3.731  0.5433  0.2176 -0.1241
14178TIP3    H264026   0.577   4.964   3.742 -1.4095  2.0399  0.8609
14179TIP3   OH264027   0.633   0.319   3.270 -0.4834 -1.2326 -0.0963
14179TIP3    H164028   0.611   0.372   3.347 -1.2284  0.4911 -1.4324
14179TIP3    H264029   0.578   0.241   3.279  0.0808 -1.4838  1.5393
14180TIP3   OH264030   7.115   4.363   3.046 -0.6653 -0.2282 -0.4578
14180TIP3    H164031   7.083   4.417   2.973 -0.5478 -0.9086 -1.0321
14180TIP3    H264032   7.039   4.313   3.074 -0.9144  0.6477  0.4606
14181TIP3   OH264033   5.112   7.239   1.233  0.3904  0.0627  0.3730
14181TIP3    H164034   5.079   7.326   1.209  1.0036 -0.1529 -1.4025
14181TIP3    H264035   5.041   7.179   1.210  0.8324 -0.1072 -0.6050
14182TIP3   OH264036   4.382   1.699   4.183  0.4433  0.6596  0.2947
14182TIP3    H164037   4.331   1.719   4.262 -0.2557 -1.0637  0.3207
14182TIP3    H264038   4.323   1.646   4.129  1.3488  0.7495 -0.8240
14183TIP3   OH264039   6.170   5.187  11.765  0.1973  0.1352  0.6167
14183TIP3    H164040   6.143   5.097  11.748 -0.7839  0.3701  0.8797
14183TIP3    H264041   6.136   5.206  11.853  0.1895  0.8357  0.4669
14184TIP3   OH264042   5.184   0.040   5.149  0.0367  0.1716  0.4103
14184TIP3    H164043   5.216  -0.033   5.202  0.0371 -0.1593 -0.0404
14184TIP3    H264044   5.141  -0.002   5.075  0.5646  0.6311 -0.1627
14185TIP3   OH264045   0.330   1.831   1.535  0.8117  0.2818  0.3805
14185TIP3    H164046   0.376   1.749   1.517  1.8251  1.0001 -0.4842
14185TIP3    H264047   0.302   1.862   1.448  1.8589  1.6244  0.4807
14186TIP3   OH264048   0.255   0.308   3.640  0.1206 -0.6223 -0.0402
14186TIP3    H164049   0.220   0.380   3.694 -0.6009  0.2343 -1.5699
14186TIP3    H264050   0.329   0.274   3.690  0.7338  1.4639  0.5706
14187TIP3   OH264051   2.800   5.169  14.339  0.1188 -0.0271  0.2450
14187TIP3    H164052   2.844   5.248  14.308  0.1642 -0.0934  0.1405
14187TIP3    H264053   2.732   5.200  14.400  0.6434  0.0447  0.8017
14188TIP3   OH264054   5.115   1.986   3.453  0.6345  0.3084 -0.1406
14188TIP3    H164055   5.150   2.071   3.480  0.9574  0.5993 -1.4157
14188TIP3    H264056   5.191   1.929   3.444  0.4802  0.0627  0.0901
14189TIP3   OH264057   4.246   3.859   3.533 -0.2581  0.3852 -0.4397
14189TIP3    H164058   4.258   3.781   3.480 -0.0985  0.2499 -0.2014
14189TIP3    H264059   4.246   3.931   3.470 -0.4418  0.1912 -0.6622
14190TIP3   OH264060   5.621   3.740  12.895 -0.4103  1.1601 -0.4481
14190TIP3    H164061   5.701   3.721  12.944 -0.5411  0.9519 -0.3154
14190TIP3    H264062   5.651   3.789  12.819 -0.0427  0.2292 -0.9155
14191TIP3   OH264063   2.503   6.923   1.894 -0.5438  0.9175  0.6475
14191TIP3    H164064   2.537   6.847   1.941  0.3872 -0.0015 -1.3951
14191TIP3    H264065   2.428   6.890   1.845 -1.3886  1.8102  1.2954
14192TIP3   OH264066   1.955   6.829   5.066 -0.1548 -0.4197 -0.5101
14192TIP3    H164067   1.883   6.875   5.023  0.7849 -0.3106 -2.0448
14192TIP3    H264068   1.986   6.890   5.132 -0.5725  0.1073 -0.7890
14193TIP3   OH264069   6.470   1.009  12.927 -0.9607 -0.0796  0.5210
14193TIP3    H164070   6.378   1.034  12.931 -0.7410  1.0250 -0.7382
14193TIP3    H264071   6.470   0.923  12.884 -1.4952 -0.8904  2.0674
14194TIP3   OH264072   0.437   2.404   5.389 -0.4117  0.0474  0.4193
14194TIP3    H164073   0.390   2.463   5.448 -2.2791 -0.3826 -0.5557
14194TIP3    H264074   0.523   2.445   5.377 -2.0585  3.3586 -1.3232
14195TIP3   OH264075   4.307   2.375   4.069  1.1485  0.1220 -0.4018
14195TIP3    H164076   4.236   2.438   4.062  2.4352  1.7987  0.6719
14195TIP3    H264077   4.264   2.290   4.077 -0.8118  1.2267  1.9696
14196TIP3   OH264078   4.013   0.663  11.931 -0.2221  0.6719 -0.6343
14196TIP3    H164079   3.944   0.727  11.946 -0.5643  0.2205 -0.2523
14196TIP3    H264080   3.974   0.600  11.871 -0.7694 -0.5427  0.9281
14197TIP3   OH264081   0.859   1.924  11.140 -0.3329  0.3429  0.3813
14197TIP3    H164082   0.840   1.834  11.113 -2.3855  0.6124  0.8113
14197TIP3    H264083   0.925   1.913  11.209 -2.5178 -1.1029  2.3890
14198TIP3   OH264084   1.642   3.833   2.456  0.2640  0.3239  0.0841
14198TIP3    H164085   1.606   3.886   2.527 -2.0753  0.4901 -1.1075
14198TIP3    H264086   1.648   3.893   2.382 -1.2689 -0.7024 -0.9443
14199TIP3   OH264087   3.871   1.193   1.095 -0.7773 -0.6788  0.0264
14199TIP3    H164088   3.870   1.151   1.009  0.4553 -0.1698 -0.2705
14199TIP3    H264089   3.889   1.123   1.157  2.5319 -0.5365 -0.5799
14200TIP3   OH264090   1.093   1.641   0.896  0.2665 -0.6787 -0.7465
14200TIP3    H164091   1.031   1.690   0.949  0.1331 -2.0022  0.3680
14200TIP3    H264092   1.092   1.685   0.811 -0.3174  0.8276  0.0020
14201TIP3   OH264093   4.438   4.796   2.791 -0.3067  0.3368 -0.4771
14201TIP3    H164094   4.430   4.808   2.696 -0.8191  0.4597 -0.4215
14201TIP3    H264095   4.385   4.718   2.810 -0.6365  0.6209 -0.2205
14202TIP3   OH264096   6.898   1.206   2.276  0.0134  0.3634  0.2209
14202TIP3    H164097   6.907   1.115   2.305  0.1452  1.2219  3.2327
14202TIP3    H264098   6.985   1.244   2.291 -0.9787  1.8609  2.7966
14203TIP3   OH264099   4.610   0.330   0.524 -0.3732  1.2548 -0.8401
14203TIP3    H164100   4.547   0.338   0.596 -1.0329  2.1042 -1.4934
14203TIP3    H264101   4.655   0.414   0.522 -0.5077  1.3113 -1.5530
14204TIP3   OH264102   0.411   1.968   3.708 -0.0464  0.2761  0.3664
14204TIP3    H164103   0.389   1.876   3.723 -0.5160  0.3651  0.2499
14204TIP3    H264104   0.501   1.976   3.738 -0.3118 -0.0079  1.2798
14205TIP3   OH264105   5.284   5.902   0.490 -0.1497 -0.4504  0.1880
14205TIP3    H164106   5.221   5.830   0.484  0.9861 -1.3393 -2.5414
14205TIP3    H264107   5.366   5.864   0.460  1.2264  1.2432  1.6400
14206TIP3   OH264108   0.556   1.326   5.592 -0.1472 -0.2060  0.5162
14206TIP3    H164109   0.488   1.288   5.649  0.0968 -2.0219 -0.3254
14206TIP3    H264110   0.637   1.315   5.641 -0.0394 -1.0642  0.1572
14207TIP3   OH264111   3.685   6.166   4.750  0.2964 -0.3600  0.1035
14207TIP3    H164112   3.593   6.173   4.722  0.4744 -1.5392 -0.8971
14207TIP3    H264113   3.680   6.143   4.842 -0.4512 -1.1174 -0.1091
14208TIP3   OH264114   3.078   3.483   1.005 -0.2463 -0.1997 -0.3651
14208TIP3    H164115   3.168   3.515   1.003 -1.0033  2.0994 -0.2873
14208TIP3    H264116   3.026   3.557   1.037 -2.2847 -1.1520 -1.2410
14209TIP3   OH264117   4.981   6.933  12.423 -0.2169  0.0221 -0.7118
14209TIP3    H164118   4.988   6.866  12.355  0.0992 -1.3435  0.6116
14209TIP3    H264119   4.902   6.909  12.472  0.7666 -0.3788  0.7499
14210TIP3   OH264120   1.548   5.516   5.672  0.0418 -0.4001  0.0093
14210TIP3    H164121   1.546   5.588   5.609  0.6261 -1.5207 -1.3723
14210TIP3    H264122   1.627   5.531   5.724  1.3612 -1.1025 -1.6799
14211TIP3   OH264123   6.944   3.806   4.625 -0.3230  0.0671 -0.0598
14211TIP3    H164124   6.849   3.802   4.615 -0.5285 -0.4433  1.7216
14211TIP3    H264125   6.959   3.785   4.718  1.5147  0.2934 -0.2737
14212TIP3   OH264126   6.602   0.689   2.014  0.0491 -0.3086  0.2692
14212TIP3    H164127   6.526   0.720   1.966 -0.6830 -0.7306  1.1246
14212TIP3    H264128   6.634   0.766   2.061 -0.5558 -0.3839  0.8152
14213TIP3   OH264129   6.599   2.656   3.880  0.5109 -0.0836  0.5314
14213TIP3    H164130   6.523   2.684   3.829  1.1522  2.1806  0.7210
14213TIP3    H264131   6.561   2.630   3.965 -0.2554 -1.1666 -0.1155
14214TIP3   OH264132   0.504   3.893   2.822 -0.1419  0.1738 -0.1141
14214TIP3    H164133   0.508   3.842   2.741  2.1992  0.0981 -0.0022
14214TIP3    H264134   0.480   3.982   2.794 -0.9689 -0.2120 -0.6711
14215TIP3   OH264135   5.716   1.285   2.587 -0.8453  0.6205  0.0915
14215TIP3    H164136   5.784   1.309   2.650 -1.7572  2.1945  0.5429
14215TIP3    H264137   5.759   1.225   2.527  0.7948  1.1592  0.6632
14216TIP3   OH264138   6.363   1.091   3.709  0.1334  0.3467  0.2184
14216TIP3    H164139   6.286   1.035   3.726  0.1407  0.4581  0.6243
14216TIP3    H264140   6.329   1.180   3.714  0.4091  0.4110  0.9934
14217TIP3   OH264141   4.220   3.253  14.482  0.0317 -0.4206 -0.1056
14217TIP3    H164142   4.252   3.333  14.523 -0.5359  0.1627 -0.7657
14217TIP3    H264143   4.242   3.263  14.389 -0.5807 -0.7486 -0.2953
14218TIP3   OH264144   5.528   6.459   5.541 -0.4392 -0.1162  0.2367
14218TIP3    H164145   5.478   6.536   5.567  1.5347  1.8525 -1.3528
14218TIP3    H264146   5.548   6.413   5.623 -0.6648  1.7407  1.3669
14219TIP3   OH264147   1.944   3.872   4.403  0.1335 -0.3399  0.3135
14219TIP3    H164148   1.964   3.785   4.369  2.5482  0.3571 -0.2675
14219TIP3    H264149   1.976   3.932   4.335 -0.1635  1.0108  1.3229
14220TIP3   OH264150   5.632   3.433  14.993 -0.1127 -0.4240 -0.6206
14220TIP3    H164151   5.605   3.454  14.903  0.2133 -0.0633 -0.6374
14220TIP3    H264152   5.617   3.339  15.001 -0.3942 -0.4116 -0.9662
14221TIP3   OH264153   0.743   2.414   3.706 -0.3801 -0.5197  0.7036
14221TIP3    H164154   0.806   2.344   3.689  1.1076  0.7192  0.7757
14221TIP3    H264155   0.733   2.415   3.801  0.9286  0.4063  0.8608
14222TIP3   OH264156   1.431   4.806  10.275 -0.4677  0.0744  0.0171
14222TIP3    H164157   1.511   4.754  10.282  0.0174  1.0290  2.0179
14222TIP3    H264158   1.360   4.741  10.281  0.1354 -0.6151 -0.1978
14223TIP3   OH264159   3.535   1.890   0.899 -0.1994  0.3921 -0.0790
14223TIP3    H164160   3.541   1.930   0.985 -3.1016 -1.8338  1.3295
14223TIP3    H264161   3.482   1.951   0.848  0.4546  1.1171  0.0933
14224TIP3   OH264162   1.796   5.564   1.388  0.4917  0.1203  0.1581
14224TIP3    H164163   1.737   5.629   1.426 -0.9357  0.7275 -2.7700
14224TIP3    H264164   1.747   5.528   1.314  2.5836 -1.7753 -0.4202
14225TIP3   OH264165   3.912   5.892  13.998  0.0679 -0.0949  0.3665
14225TIP3    H164166   3.876   5.981  13.996  0.6572  0.1386 -1.4483
14225TIP3    H264167   3.866   5.846  13.928 -1.0618 -1.6087  2.0135
14226TIP3   OH264168   5.754   0.782   3.603 -0.4204 -0.1668  0.5264
14226TIP3    H164169   5.677   0.832   3.575 -1.1405 -0.3640  2.0207
14226TIP3    H264170   5.718   0.695   3.625  0.6584 -1.0931 -1.1692
14227TIP3   OH264171   6.544   1.589   4.947  0.5604  0.4298  0.1800
14227TIP3    H164172   6.471   1.546   4.902  2.9520 -2.2157 -1.4747
14227TIP3    H264173   6.535   1.682   4.925 -2.1425  0.1842 -0.0903
14228TIP3   OH264174   0.441   5.572   5.200 -0.0295  0.0852 -0.2140
14228TIP3    H164175   0.489   5.506   5.250  1.8536  0.1388 -1.7850
14228TIP3    H264176   0.392   5.521   5.135 -1.5552  0.0826  0.8800
14229TIP3   OH264177   6.061   7.207  13.866  0.7066  0.2291  0.0343
14229TIP3    H164178   6.129   7.257  13.910  0.5413  0.5620 -0.0869
14229TIP3    H264179   6.057   7.124  13.914  1.0077  0.3167  0.2090
14230TIP3   OH264180   1.961   0.048  13.754 -0.5603  0.2276 -0.6141
14230TIP3    H164181   1.869   0.042  13.729 -0.4002 -1.2223 -0.9492
14230TIP3    H264182   1.980  -0.035  13.796  0.3712  0.8723  0.2970
14231TIP3   OH264183   6.103   1.956   3.086  0.8261 -0.1400 -0.4374
14231TIP3    H164184   6.064   1.976   3.000  1.4972 -0.4003 -0.8102
14231TIP3    H264185   6.152   1.875   3.072  1.4374  0.1376  0.0417
14232TIP3   OH264186   0.530   5.468  13.963  0.1606 -0.1459  0.3076
14232TIP3    H164187   0.553   5.425  13.880  0.1115  0.4247 -0.0113
14232TIP3    H264188   0.479   5.403  14.010  0.0380 -0.4223 -0.1926
14233TIP3   OH264189   2.901   4.139   0.050 -0.2997 -0.0120  0.0148
14233TIP3    H164190   2.986   4.165   0.086  0.6038 -1.5569 -0.8868
14233TIP3    H264191   2.912   4.148  -0.045 -1.6004  1.0312 -0.0622
14234TIP3   OH264192   1.648   4.354   2.984 -0.4110 -0.0873  0.0289
14234TIP3    H164193   1.671   4.382   2.895  2.2092 -1.0374  0.3294
14234TIP3    H264194   1.731   4.331   3.024 -1.5186  0.4329  2.8237
14235TIP3   OH264195   1.445   2.499  14.405  0.1933  0.7678  0.9418
14235TIP3    H164196   1.461   2.438  14.477  0.4006  0.7845  0.9110
14235TIP3    H264197   1.378   2.457  14.352  0.6684  0.3545  0.6672
14236TIP3   OH264198   3.834   5.336   5.786  0.1032  0.4888  0.1933
14236TIP3    H164199   3.920   5.369   5.811  0.0666 -0.0029  1.0144
14236TIP3    H264200   3.788   5.412   5.750  1.3766  0.4368 -1.6605
14237TIP3   OH264201   2.029   0.690   2.474  0.3264 -0.2444  0.1797
14237TIP3    H164202   1.934   0.698   2.481  0.1866  0.6033 -1.8889
14237TIP3    H264203   2.044   0.596   2.462 -0.4780 -0.1918 -1.5302
14238TIP3   OH264204   5.639   3.339   2.733 -0.6824 -0.2294 -0.3994
14238TIP3    H164205   5.673   3.427   2.719 -1.1706  0.0942  0.3845
14238TIP3    H264206   5.650   3.295   2.649 -0.0207  0.4357 -0.6707
14239TIP3   OH264207   0.940   1.453   4.631 -0.4129  0.1206 -0.1150
14239TIP3    H164208   0.907   1.369   4.662 -0.7913  0.6489  0.9596
14239TIP3    H264209   1.021   1.467   4.681 -0.0299  0.1295 -0.7223
14240TIP3   OH264210   3.274   3.173   3.451 -0.0063  0.4580 -0.3601
14240TIP3    H164211   3.221   3.252   3.464 -0.0189  0.0797  2.3191
14240TIP3    H264212   3.263   3.122   3.531  1.0718 -1.6713 -1.4591
14241TIP3   OH264213   4.794   5.796   3.750 -0.1375 -0.1962 -0.2836
14241TIP3    H164214   4.758   5.849   3.821  2.6087 -0.2165  1.2676
14241TIP3    H264215   4.821   5.714   3.791  1.2285 -0.3414 -1.3869
14242TIP3   OH264216   4.614   1.362   2.325 -0.4408  0.3643 -0.3430
14242TIP3    H164217   4.523   1.386   2.340  0.2682  2.5386  1.0850
14242TIP3    H264218   4.657   1.445   2.300  1.6122  0.0437  1.7505
14243TIP3   OH264219   4.491   5.742   2.175 -0.5069  0.4827  0.2804
14243TIP3    H164220   4.471   5.836   2.169  0.8478  0.8045  0.5959
14243TIP3    H264221   4.578   5.733   2.137  0.0853 -0.3669  1.7316
14244TIP3   OH264222   2.375   0.996   3.906  0.1397 -0.1893 -0.4091
14244TIP3    H164223   2.369   1.058   3.833  1.6829 -0.2664 -0.6225
14244TIP3    H264224   2.310   0.928   3.885 -2.9311  2.1614  0.7312
14245TIP3   OH264225   7.094   3.350   2.693 -0.0569 -0.3992  0.0301
14245TIP3    H164226   7.041   3.354   2.613 -0.4690  2.8845  0.3200
14245TIP3    H264227   7.160   3.283   2.674 -0.4576 -0.1297 -2.8669
14246TIP3   OH264228   0.470   5.873  11.231  0.5985 -0.1493  0.5086
14246TIP3    H164229   0.561   5.884  11.203 -0.0837  0.1121 -1.8090
14246TIP3    H264230   0.448   5.955  11.274  0.3909  1.3935 -2.3086
14247TIP3   OH264231   4.931   3.560   4.993  0.2172 -0.7028  0.7151
14247TIP3    H164232   4.908   3.647   4.959  2.9378 -0.5768 -1.1822
14247TIP3    H264233   4.970   3.577   5.078  3.1212  0.3885 -0.6992
14248TIP3   OH264234   2.925   6.627   4.590  0.1693  0.0459 -0.1973
14248TIP3    H164235   2.904   6.656   4.679  0.8549 -0.1081  0.0151
14248TIP3    H264236   2.930   6.532   4.595  1.8138  0.1230 -0.0404
14249TIP3   OH264237   5.547   6.127   4.321 -0.5185  0.2836  0.3464
14249TIP3    H164238   5.500   6.102   4.241  1.9200 -0.1423 -1.0452
14249TIP3    H264239   5.617   6.063   4.328  1.3256  2.2836  0.9371
14250TIP3   OH264240   1.500   4.024   4.716 -0.0635 -0.6833 -0.0378
14250TIP3    H164241   1.419   4.010   4.764  0.9032 -1.0546  1.6003
14250TIP3    H264242   1.541   3.938   4.711  0.6704 -0.3488  0.0271
14251TIP3   OH264243   4.380   6.140  11.007 -0.1266  0.2185 -0.8786
14251TIP3    H164244   4.343   6.155  10.921 -0.7639  2.3484 -0.2935
14251TIP3    H264245   4.305   6.120  11.063  0.0938  0.3960 -0.5107
14252TIP3   OH264246   6.128   3.425  13.893 -0.2762 -0.3183 -0.0648
14252TIP3    H164247   6.050   3.401  13.844 -2.0260  1.9575  1.4023
14252TIP3    H264248   6.141   3.518  13.873  0.1724  0.1396  2.1047
14253TIP3   OH264249   5.229   1.102   4.274 -0.1835 -0.1265  0.0603
14253TIP3    H164250   5.247   1.136   4.187  0.6942 -0.5311  0.0684
14253TIP3    H264251   5.178   1.170   4.317  0.0726  0.4249 -0.5030
14254TIP3   OH264252   3.908   3.973   4.417  0.1273 -0.1705  0.4572
14254TIP3    H164253   3.974   3.912   4.451  0.2988 -0.4819 -0.4089
14254TIP3    H264254   3.911   4.047   4.477  0.8874 -0.4186  0.7406
14255TIP3   OH264255   1.759   0.730   2.194  0.2340  0.1308 -0.8314
14255TIP3    H164256   1.668   0.754   2.215  0.2429  0.2611 -0.9454
14255TIP3    H264257   1.759   0.635   2.196  0.3044  0.1380  0.0835
14256TIP3   OH264258   7.213   3.892   4.473 -0.0048  0.2121  0.0510
14256TIP3    H164259   7.128   3.867   4.510 -0.6532  0.2145 -1.3602
14256TIP3    H264260   7.204   3.985   4.453  0.0683  0.0633 -0.7239
14257TIP3   OH264261   5.987   4.474   3.520  0.2150 -0.1544  0.0158
14257TIP3    H164262   5.960   4.385   3.542  0.7589 -0.4604 -0.5046
14257TIP3    H264263   5.943   4.529   3.583 -0.1856 -0.7927  0.3028
14258TIP3   OH264264   7.158   6.402   2.768  0.3227 -0.4754 -0.8594
14258TIP3    H164265   7.186   6.352   2.845 -0.0358  1.6357  0.7449
14258TIP3    H264266   7.240   6.434   2.730  0.4390  1.0957  0.5750
14259TIP3   OH264267   5.234   5.505   3.857 -0.5904  0.1405 -0.2927
14259TIP3    H164268   5.324   5.525   3.883 -0.2959  2.1602 -2.4211
14259TIP3    H264269   5.243   5.436   3.791 -0.9093 -1.6009  1.4110
14260TIP3   OH264270   3.620   2.283   4.672  0.1369  0.0816  0.3995
14260TIP3    H164271   3.636   2.217   4.604 -0.3966  0.6696 -0.3205
14260TIP3    H264272   3.547   2.247   4.722 -1.1606  0.7796 -0.9223
14261TIP3   OH264273   0.374   5.559   2.462 -0.0432  0.5685 -0.1857
14261TIP3    H164274   0.469   5.560   2.446 -0.2802 -0.4554 -1.8568
14261TIP3    H264275   0.366   5.529   2.553  1.2478  1.5263  0.2796
14262TIP3   OH264276   0.197   1.733  12.902 -0.6630 -0.1818 -0.5152
14262TIP3    H164277   0.280   1.711  12.944 -2.0009  0.1390  2.4954
14262TIP3    H264278   0.194   1.829  12.904 -1.7128 -0.2179  0.7685
14263TIP3   OH264279   1.065   4.028  14.412  0.2403 -0.2579 -0.0236
14263TIP3    H164280   1.040   3.967  14.482  0.2488 -1.4303 -1.0246
14263TIP3    H264281   0.992   4.024  14.350 -0.0667  1.2586  0.1927
14264TIP3   OH264282   6.992   1.922   0.526 -0.0133 -0.0263 -0.6901
14264TIP3    H164283   6.990   1.834   0.488  1.4329  0.2726 -1.5522
14264TIP3    H264284   7.070   1.963   0.487  1.3080  0.4959  2.2108
14265TIP3   OH264285   5.943   5.940   5.079  0.5157  0.1187  0.1696
14265TIP3    H164286   5.856   5.907   5.053  0.1246 -0.1693  1.7164
14265TIP3    H264287   5.990   5.862   5.108  1.0508  0.3805  0.0217
14266TIP3   OH264288   2.397   2.859   0.660 -0.1904  0.1684 -0.2887
14266TIP3    H164289   2.472   2.919   0.662 -0.7943  0.9571 -0.7322
14266TIP3    H264290   2.323   2.914   0.634 -0.7993 -0.7322 -0.5015
14267TIP3   OH264291   5.891   6.548   4.435  0.3417 -0.3470 -0.0456
14267TIP3    H164292   5.985   6.566   4.431  0.1103  1.0101  0.1058
14267TIP3    H264293   5.874   6.529   4.528  0.0860  2.0139  0.4844
14268TIP3   OH264294   2.757   2.154   2.135  0.8229  0.2124  0.1092
14268TIP3    H164295   2.848   2.133   2.115  0.9348  0.7079  0.1010
14268TIP3    H264296   2.742   2.240   2.096  1.1413  1.3711  2.3919
14269TIP3   OH264297   1.338   4.069   5.505 -0.1783  0.0283  0.1466
14269TIP3    H164298   1.261   4.039   5.553 -2.4806  2.0876 -1.9955
14269TIP3    H264299   1.361   3.994   5.449 -0.6725 -0.5686  0.7183
14270TIP3   OH264300   6.909   1.049  13.894  0.0304  0.0542  0.7225
14270TIP3    H164301   6.930   1.039  13.801  2.5270  0.1296  1.2269
14270TIP3    H264302   6.949   0.973  13.936 -1.1293 -0.0164  1.7582
14271TIP3   OH264303   5.125   6.446   4.123 -0.1076 -0.4153 -0.1711
14271TIP3    H164304   5.090   6.501   4.193 -2.9686 -2.2488 -0.0440
14271TIP3    H264305   5.139   6.361   4.163  2.0633 -0.5005 -0.9451
14272TIP3   OH264306   0.424   3.575   0.579  0.1073 -0.1549  0.0733
14272TIP3    H164307   0.459   3.663   0.567  0.1928  0.1986  2.4786
14272TIP3    H264308   0.484   3.518   0.531  1.4976  0.8643  0.5404
14273TIP3   OH264309   4.508   6.252   3.617 -0.3225 -0.1071 -0.3307
14273TIP3    H164310   4.417   6.261   3.646  0.3285  1.0302  1.5284
14273TIP3    H264311   4.556   6.226   3.696  1.3608  1.7962 -0.6438
14274TIP3   OH264312   1.647   2.355   2.932  0.4188 -0.3217 -0.8059
14274TIP3    H164313   1.733   2.393   2.948 -0.4227  0.9129  1.0191
14274TIP3    H264314   1.643   2.279   2.990 -0.3317  0.5981  0.3744
14275TIP3   OH264315   5.120   6.881  14.179  0.4529  0.1121  0.1531
14275TIP3    H164316   5.192   6.818  14.169 -0.1454 -0.8791  1.7317
14275TIP3    H264317   5.100   6.909  14.089  0.5731 -2.1759 -0.6569
14276TIP3   OH264318   1.622   1.017   4.937 -0.0458 -0.2537  0.1718
14276TIP3    H164319   1.689   1.050   4.877 -0.0699 -1.8331 -0.7594
14276TIP3    H264320   1.669   0.956   4.994 -0.5142 -0.6501  0.1311
14277TIP3   OH264321   2.108   1.664   3.008  0.4806  0.2058  0.0931
14277TIP3    H164322   2.130   1.573   2.987  0.5954  0.5622 -1.4271
14277TIP3    H264323   2.013   1.667   3.005  0.4932  0.2342 -0.3130
14278TIP3   OH264324   3.869   6.864   4.838  0.0678 -0.4566  0.1558
14278TIP3    H164325   3.950   6.829   4.875 -0.0649 -2.1656 -1.0349
14278TIP3    H264326   3.891   6.885   4.747 -0.6287 -0.2150  0.0373
14279TIP3   OH264327   2.085   7.204   4.528 -0.1474  0.1645  0.0458
14279TIP3    H164328   2.001   7.237   4.498 -2.1533 -2.1817  2.5513
14279TIP3    H264329   2.111   7.263   4.598 -0.3660  0.1823  0.1119
14280TIP3   OH264330   4.133   1.967   1.589  0.0526  0.1535 -0.1885
14280TIP3    H164331   4.065   1.917   1.543 -0.1406 -0.1812  0.4395
14280TIP3    H264332   4.185   1.900   1.635 -0.2203  0.5160  0.6734
14281TIP3   OH264333   5.469   0.689  12.304 -0.2778 -0.0425 -0.4225
14281TIP3    H164334   5.387   0.733  12.282  0.4402  1.2922 -0.5334
14281TIP3    H264335   5.536   0.738  12.258  0.7099 -0.4313  0.5415
14282TIP3   OH264336   3.197   3.965   3.512  0.3388 -0.3404 -0.0025
14282TIP3    H164337   3.226   4.042   3.464  1.3622  0.4478  1.7925
14282TIP3    H264338   3.117   3.993   3.556 -0.2505 -0.8699 -0.7035
14283TIP3   OH264339   0.776   1.102  10.947 -0.1223  0.0659  0.5893
14283TIP3    H164340   0.852   1.068  10.900  0.1861 -0.5640  1.5141
14283TIP3    H264341   0.720   1.140  10.879  2.2493  3.0645  0.0819
14284TIP3   OH264342   1.183   6.038   5.234 -0.2283  0.0528  0.1103
14284TIP3    H164343   1.102   6.029   5.284  0.7502  2.0984  2.2725
14284TIP3    H264344   1.252   6.011   5.294  0.8637  0.5254 -0.8883
14285TIP3   OH264345   1.210   4.918  13.091  0.3900 -0.5508 -0.1250
14285TIP3    H164346   1.267   4.994  13.087  0.5774 -0.6231  0.9794
14285TIP3    H264347   1.210   4.884  13.001 -0.2089  1.1015 -0.7900
14286TIP3   OH264348   1.575   4.921   4.128  0.6044  0.1204  0.1816
14286TIP3    H164349   1.637   4.849   4.144 -0.8807 -1.0972  0.6567
14286TIP3    H264350   1.530   4.932   4.211 -0.3224  0.5056 -0.3630
14287TIP3   OH264351   4.992   7.229   5.632  0.3884  0.0757 -0.4806
14287TIP3    H164352   4.960   7.319   5.632  0.9718  0.2883 -0.9501
14287TIP3    H264353   4.914   7.176   5.618 -0.0031  0.4863  0.0898
14288TIP3   OH264354   7.052   6.704   1.156  0.4210 -1.3259  0.4915
14288TIP3    H164355   7.020   6.782   1.201 -0.4461 -1.5308  0.2627
14288TIP3    H264356   7.134   6.682   1.200  0.6713 -0.2989  0.5694
14289TIP3   OH264357   2.291   2.458   3.026  0.1031  0.7949 -0.4392
14289TIP3    H164358   2.373   2.410   3.017 -0.1353  0.4212 -0.6294
14289TIP3    H264359   2.305   2.538   2.975  0.0697  0.3702 -1.1333
14290TIP3   OH264360   5.591   4.972  11.794 -0.2198 -0.0111  0.2557
14290TIP3    H164361   5.516   4.914  11.809  0.7263 -1.4275 -0.2698
14290TIP3    H264362   5.583   5.039  11.862 -0.1460 -2.0178  2.3707
14291TIP3   OH264363   4.803   4.049  10.514  0.0276 -0.3152  0.2651
14291TIP3    H164364   4.721   4.018  10.553  0.1908 -2.0128 -0.6497
14291TIP3    H264365   4.841   4.106  10.581 -1.5525 -0.0542  0.9865
14292TIP3   OH264366   4.387   2.046  15.010 -0.5574 -0.0584  0.8148
14292TIP3    H164367   4.409   1.953  14.998 -2.1848 -0.2352 -1.4029
14292TIP3    H264368   4.419   2.088  14.931 -0.6487  1.1505  1.3996
14293TIP3   OH264369   0.941   6.170   5.136 -0.2441 -0.2270 -0.2729
14293TIP3    H164370   0.898   6.111   5.075 -1.6525 -0.2013  0.6545
14293TIP3    H264371   0.879   6.242   5.149  0.7986  0.6871 -0.2091
14294TIP3   OH264372   1.539   2.029   1.251  0.8174 -0.7141  0.2332
14294TIP3    H164373   1.444   2.044   1.249  0.7899 -0.9719 -1.0033
14294TIP3    H264374   1.562   2.035   1.344 -0.2676  0.2004  0.4664
14295TIP3   OH264375   4.098   3.046  12.128 -0.3059 -1.2626 -0.3174
14295TIP3    H164376   4.022   3.092  12.094  0.8276  0.9671 -0.0364
14295TIP3    H264377   4.109   2.970  12.069 -0.8927  0.1195 -2.3174
14296TIP3   OH264378   2.651   0.284  12.091  0.4744  0.0741 -0.2082
14296TIP3    H164379   2.640   0.309  11.999 -0.4116  3.9083  0.7315
14296TIP3    H264380   2.561   0.278  12.125  0.7556 -2.1603  0.3051
14297TIP3   OH264381   2.309   2.604   3.780  0.4793 -0.3784 -0.1106
14297TIP3    H164382   2.313   2.512   3.757 -0.1466  0.0712 -2.2071
14297TIP3    H264383   2.302   2.605   3.875 -0.2230 -2.5000 -0.1054
14298TIP3   OH264384   3.321   5.775   5.223  0.1284 -0.4184 -0.9307
14298TIP3    H164385   3.282   5.862   5.237  0.0619 -0.2981 -1.8009
14298TIP3    H264386   3.285   5.721   5.293  0.8752  0.4686  0.1793
14299TIP3   OH264387   5.494   2.270   2.707  0.3034 -0.1802 -0.6321
14299TIP3    H164388   5.505   2.182   2.672  1.3708 -0.7021  0.8904
14299TIP3    H264389   5.536   2.267   2.793 -1.5552  1.2139  0.4097
14300TIP3   OH264390   7.010   2.323   3.938 -0.0636 -0.6988  0.1074
14300TIP3    H164391   7.049   2.238   3.959 -0.2518 -0.6610  0.6209
14300TIP3    H264392   7.049   2.347   3.854  0.4798 -0.9931  0.2698
14301TIP3   OH264393   0.814   5.262   3.607 -0.1617  0.0648 -0.0785
14301TIP3    H164394   0.906   5.286   3.602 -0.1794  0.5312  1.2826
14301TIP3    H264395   0.806   5.212   3.688 -1.3065  1.1343  0.5239
14302TIP3   OH264396   3.500   5.394   5.964 -0.0728 -1.0343  0.0815
14302TIP3    H164397   3.434   5.451   6.003  2.7327  0.2137  3.5614
14302TIP3    H264398   3.533   5.443   5.889  0.6141  0.9247  1.5836
14303TIP3   OH264399   3.182   4.244  15.071  0.3614 -0.1196  0.2938
14303TIP3    H164400   3.216   4.257  14.982 -0.8351  1.5087  0.0260
14303TIP3    H264401   3.249   4.191  15.114  1.7995  0.4931 -1.0606
14304TIP3   OH264402   1.704   6.216   2.457 -0.1316  0.6235  0.5415
14304TIP3    H164403   1.625   6.267   2.477 -1.6777 -1.5079  0.3049
14304TIP3    H264404   1.743   6.260   2.382 -0.3915  2.4310  1.4322
14305TIP3   OH264405   1.040   3.172  15.077  0.1631 -0.1643  0.6421
14305TIP3    H164406   0.968   3.155  15.138  0.2593 -1.1026  0.5050
14305TIP3    H264407   1.118   3.143  15.123  0.0939 -2.2187 -0.4267
14306TIP3   OH264408   7.112   7.177   2.331  0.0751  0.1072 -0.0127
14306TIP3    H164409   7.140   7.176   2.422  1.7787 -2.1720 -0.4801
14306TIP3    H264410   7.193   7.163   2.281 -0.6788  2.1687 -1.9561
14307TIP3   OH264411   2.627   2.193  13.570 -0.1343 -0.3307  0.1329
14307TIP3    H164412   2.533   2.201  13.588  0.3811  0.6201  2.9444
14307TIP3    H264413   2.661   2.282  13.581  1.1605 -0.7245 -0.5209
14308TIP3   OH264414   1.259   4.043   0.423 -0.4319  0.1023 -0.0630
14308TIP3    H164415   1.326   4.089   0.473  0.0635  0.5971 -1.1570
14308TIP3    H264416   1.298   3.959   0.401 -0.6752 -0.1429  0.4209
14309TIP3   OH264417   6.297   6.205   0.667 -0.8571  0.1916  0.7159
14309TIP3    H164418   6.233   6.270   0.695 -1.7952 -1.3768  2.5021
14309TIP3    H264419   6.251   6.152   0.602 -0.8930 -0.0430  0.9283
14310TIP3   OH264420   3.811   3.702   4.133 -0.0304  0.0357  0.2838
14310TIP3    H164421   3.863   3.669   4.206 -1.1661 -2.0214  0.2315
14310TIP3    H264422   3.862   3.680   4.055 -0.4784 -1.0986  0.2893
14311TIP3   OH264423   6.656   4.327   2.244 -0.1640  0.3989  0.1442
14311TIP3    H164424   6.709   4.407   2.236  0.7650 -0.0829  1.2202
14311TIP3    H264425   6.577   4.346   2.193 -0.1259  2.1406  0.6510
14312TIP3   OH264426   3.046   5.651   3.569 -0.1181 -0.0858 -0.4786
14312TIP3    H164427   3.048   5.570   3.518  0.2146 -0.4383  0.0913
14312TIP3    H264428   2.973   5.701   3.532  0.3911 -0.1349 -1.5998
14313TIP3   OH264429   2.350   2.529   5.663  0.1134 -0.6166  0.5772
14313TIP3    H164430   2.254   2.520   5.664  0.2510 -2.7977 -0.0721
14313TIP3    H264431   2.382   2.442   5.639  2.2160  0.4698 -0.9559
14314TIP3   OH264432   2.783   3.896   3.972  1.0376  0.1239 -0.0592
14314TIP3    H164433   2.762   3.970   3.915  0.4848  0.5543  0.6726
14314TIP3    H264434   2.781   3.819   3.915  1.1770  0.6240 -0.7419
14315TIP3   OH264435   3.259   3.220  12.677  0.5679  0.1813 -0.1022
14315TIP3    H164436   3.319   3.292  12.662  0.9085  0.3743  1.8601
14315TIP3    H264437   3.185   3.237  12.619  1.7620  0.6966 -1.5291
14316TIP3   OH264438   6.568   5.646   2.131  0.4154  0.5445 -0.4004
14316TIP3    H164439   6.606   5.619   2.048 -0.8919 -0.9887 -0.5555
14316TIP3    H264440   6.490   5.696   2.106 -1.0536 -1.5156 -0.1706
14317TIP3   OH264441   1.967   4.641   5.139 -0.7538 -0.2995 -0.4678
14317TIP3    H164442   2.026   4.579   5.181  0.9251  3.0839  2.7155
14317TIP3    H264443   1.880   4.617   5.171  0.1349  0.3147  2.7446
14318TIP3   OH264444   5.393   6.020   3.487  0.2121  0.2359 -0.2343
14318TIP3    H164445   5.353   5.963   3.554 -0.9049 -1.3068 -2.1189
14318TIP3    H264446   5.320   6.071   3.452  0.5888  0.2094 -1.0588
14319TIP3   OH264447   6.398   6.953  13.427  0.2543  0.6821  0.0571
14319TIP3    H164448   6.323   7.012  13.423 -0.8496 -0.7582 -1.3228
14319TIP3    H264449   6.385   6.902  13.507  0.7755  1.6691  0.8043
14320TIP3   OH264450   3.156   1.005   0.654 -0.3144 -0.3264 -0.0431
14320TIP3    H164451   3.102   1.039   0.726 -0.4596  0.0630 -0.3309
14320TIP3    H264452   3.137   1.064   0.581  0.4698 -0.2170 -0.1585
14321TIP3   OH264453   2.566   3.409  12.408 -0.1672 -0.1638  0.0379
14321TIP3    H164454   2.594   3.448  12.491 -3.2969 -0.8121  1.5483
14321TIP3    H264455   2.580   3.315  12.420 -1.9101 -0.4073  0.4824
14322TIP3   OH264456   0.382   5.733  11.842  0.1572  0.2100  0.0915
14322TIP3    H164457   0.345   5.672  11.778  2.0060 -0.4044 -0.4455
14322TIP3    H264458   0.446   5.682  11.890  2.6257  1.9112 -1.1537
14323TIP3   OH264459   1.202   6.773   0.265  0.2775 -0.5184  0.0593
14323TIP3    H164460   1.243   6.841   0.212  1.0432 -0.9510  0.0709
14323TIP3    H264461   1.234   6.789   0.354 -0.3698 -0.2698  0.2517
14324TIP3   OH264462   0.948   1.420   1.732 -0.0294 -0.0482  0.3030
14324TIP3    H164463   0.908   1.354   1.676  0.0637 -0.7428  1.0506
14324TIP3    H264464   1.039   1.391   1.743  0.5454  1.1858 -0.8730
14325TIP3   OH264465   4.417   3.886   1.261 -0.0474 -0.2860  0.4707
14325TIP3    H164466   4.473   3.868   1.185 -0.6908 -0.6499  0.0783
14325TIP3    H264467   4.357   3.812   1.265 -2.2256  1.3014 -0.6847
14326TIP3   OH264468   5.494   6.221   2.474 -0.5829  0.0198 -0.2970
14326TIP3    H164469   5.438   6.158   2.519 -0.2866  1.7734  2.8687
14326TIP3    H264470   5.579   6.177   2.469 -1.3466 -1.3567 -2.0194
14327TIP3   OH264471   3.953   7.146  12.771  0.3709 -0.2032  0.0838
14327TIP3    H164472   3.894   7.133  12.845 -1.1991 -0.5924 -1.1680
14327TIP3    H264473   3.978   7.057  12.745  2.2925 -0.0141  1.1585
14328TIP3   OH264474   5.958   5.641  11.402  0.4359  0.3433 -0.1514
14328TIP3    H164475   5.877   5.681  11.370  0.0182 -0.6748 -0.4030
14328TIP3    H264476   5.986   5.583  11.332  0.3581 -0.7391  0.6853
14329TIP3   OH264477   4.786   2.146   1.372  0.0109 -0.0200  0.4452
14329TIP3    H164478   4.786   2.140   1.468 -1.6649  3.3108  0.8191
14329TIP3    H264479   4.705   2.104   1.345 -0.4447  0.6478  0.7286
14330TIP3   OH264480   5.488   1.102   4.842  0.4166  0.1426  0.0933
14330TIP3    H164481   5.528   1.048   4.774  1.8830  2.8340 -1.2904
14330TIP3    H264482   5.559   1.120   4.903 -0.6187 -1.2701  1.8284
14331TIP3   OH264483   0.664   4.903   4.598 -0.3668 -0.2491  0.4774
14331TIP3    H164484   0.655   4.985   4.550 -0.2810 -0.4534  0.1031
14331TIP3    H264485   0.604   4.911   4.672 -0.7503 -0.0634  0.1482
14332TIP3   OH264486   4.425   1.957   4.756 -0.4219 -0.0008  0.6348
14332TIP3    H164487   4.483   2.033   4.759  0.2663 -0.3789 -1.4555
14332TIP3    H264488   4.483   1.882   4.769 -0.5704 -0.3193 -0.4179
14333TIP3   OH264489   0.008   4.655   3.267 -0.1653  0.6106  0.0874
14333TIP3    H164490   0.024   4.713   3.193  1.0497 -0.8217 -0.8269
14333TIP3    H264491  -0.020   4.713   3.337  2.4006  2.5454 -0.3195
14334TIP3   OH264492   2.940   2.190   5.213 -0.4715 -0.2327 -0.4021
14334TIP3    H164493   2.922   2.272   5.168 -0.3392 -0.5238 -0.9905
14334TIP3    H264494   2.853   2.156   5.238 -0.4683  1.8408  3.1101
14335TIP3   OH264495   3.577   0.786   3.232 -0.1599  0.3678 -0.0906
14335TIP3    H164496   3.532   0.723   3.177  0.1429 -1.2695  1.4415
14335TIP3    H264497   3.666   0.791   3.196  0.4916 -1.8292  1.0510
14336TIP3   OH264498   1.907   4.725  14.807 -0.0324 -0.3692  0.1598
14336TIP3    H164499   1.872   4.717  14.718 -1.1147  0.0024  0.5305
14336TIP3    H264500   1.958   4.806  14.806 -0.0776 -0.3435 -0.1113
14337TIP3   OH264501   2.381   0.227   0.965  0.5984  0.4124  0.5264
14337TIP3    H164502   2.305   0.285   0.965 -0.2455 -0.6301  1.1202
14337TIP3    H264503   2.356   0.155   0.907  1.6155  0.6299 -0.1966
14338TIP3   OH264504   5.248   2.667   4.124  0.1784  0.2792  0.0044
14338TIP3    H164505   5.256   2.573   4.113 -0.2814  0.2495 -0.1254
14338TIP3    H264506   5.278   2.704   4.042 -0.4217  0.2003 -0.2586
14339TIP3   OH264507   6.505   2.162  14.075  0.2746  0.1535 -0.5676
14339TIP3    H164508   6.458   2.229  14.126 -0.6480 -1.1997  0.4383
14339TIP3    H264509   6.595   2.167  14.107 -0.1347 -0.1605  0.6977
14340TIP3   OH264510   4.106   4.520   3.359  0.2348  0.0168 -0.0294
14340TIP3    H164511   4.168   4.499   3.429 -2.9268 -0.5454  2.8788
14340TIP3    H264512   4.103   4.616   3.358  1.5437  0.0755 -0.6785
14341TIP3   OH264513   3.650   1.799   4.729 -0.0642  0.9872  0.7732
14341TIP3    H164514   3.573   1.847   4.761  0.6372  2.3031  0.5872
14341TIP3    H264515   3.670   1.737   4.798  1.1493  3.4489  2.8085
14342TIP3   OH264516   1.580   7.181   3.712 -0.0040  0.6351  0.4683
14342TIP3    H164517   1.626   7.144   3.786  0.3533  0.4515  0.1583
14342TIP3    H264518   1.534   7.107   3.673 -0.1827  0.7287  0.5012
14343TIP3   OH264519   1.867   6.064   4.779 -0.1714 -0.8701  0.1667
14343TIP3    H164520   1.868   6.106   4.693  0.2388  0.2839  0.7264
14343TIP3    H264521   1.787   6.010   4.777 -0.0631 -1.0304 -0.9999
14344TIP3   OH264522   4.641   0.144   1.817 -0.1529 -0.4306 -0.0535
14344TIP3    H164523   4.662   0.072   1.877 -1.9243 -0.4797  0.5653
14344TIP3    H264524   4.602   0.101   1.741 -2.9477 -0.1269  1.0799
14345TIP3   OH264525   3.145   3.130   4.048 -0.4824  0.2310 -0.3742
14345TIP3    H164526   3.200   3.087   3.983  1.1546  1.4202  0.1423
14345TIP3    H264527   3.208   3.172   4.108 -1.9566  1.3730  0.4361
14346TIP3   OH264528   6.541   4.047  14.942 -0.0131 -0.0625  0.3800
14346TIP3    H164529   6.464   4.015  14.896  0.3499 -0.2244 -0.1365
14346TIP3    H264530   6.550   3.990  15.018 -1.1750  0.8124  1.2003
14347TIP3   OH264531   1.161   3.065  14.239 -0.1564  0.2238  0.2983
14347TIP3    H164532   1.196   3.043  14.326  0.7301  0.2282 -0.0494
14347TIP3    H264533   1.141   2.980  14.199  4.0761 -0.2293 -1.3841
14348TIP3   OH264534   1.140   1.783  10.033  0.2100  0.4397 -0.3281
14348TIP3    H164535   1.185   1.754   9.954 -0.0056 -1.3582  0.1452
14348TIP3    H264536   1.107   1.870  10.012 -1.1398 -0.5460 -2.8022
14349TIP3   OH264537   7.041   4.308  13.599 -0.6203  0.3159 -0.0346
14349TIP3    H164538   7.109   4.363  13.638  0.0834 -0.3199 -0.3385
14349TIP3    H264539   6.968   4.312  13.662  0.2299 -0.1389  1.0150
14350TIP3   OH264540   6.100   0.451  14.458  0.2247 -0.2604  0.1097
14350TIP3    H164541   6.028   0.468  14.397 -1.5477  0.2675  2.2566
14350TIP3    H264542   6.176   0.492  14.416 -0.6019 -1.0070 -2.3223
14351TIP3   OH264543   1.952   6.371  13.461 -0.2702  0.0094 -0.5109
14351TIP3    H164544   1.918   6.448  13.416 -1.7230 -0.8870 -1.0569
14351TIP3    H264545   2.004   6.325  13.395 -0.8517 -0.3462 -0.7345
14352TIP3   OH264546   3.279   5.538  10.528 -0.0515  0.0066 -0.6558
14352TIP3    H164547   3.234   5.454  10.543  0.2669 -0.2091 -0.8837
14352TIP3    H264548   3.220   5.587  10.471 -0.3129  0.0007 -0.3919
14353TIP3   OH264549   6.322   5.485  14.154  0.0780 -0.4154  0.4429
14353TIP3    H164550   6.357   5.511  14.069 -1.0768  1.4331  0.4678
14353TIP3    H264551   6.234   5.452  14.136  1.0360 -3.3273  0.5842
14354TIP3   OH264552   0.721   6.084  14.999 -0.5045  0.3556  0.4822
14354TIP3    H164553   0.730   5.998  15.040  1.0942  0.8766  1.3132
14354TIP3    H264554   0.650   6.074  14.937  0.5430 -1.9493 -0.4356
14355TIP3   OH264555   3.841   6.850  11.483  0.1433  0.2399  0.2995
14355TIP3    H164556   3.877   6.818  11.400  1.1673  0.4238  0.6459
14355TIP3    H264557   3.747   6.833  11.478  0.0341  1.1452 -1.3169
14356TIP3   OH264558   2.839   4.818   1.900  0.0453  0.0314 -0.2863
14356TIP3    H164559   2.780   4.892   1.916 -0.1871 -0.4667  1.4527
14356TIP3    H264560   2.839   4.770   1.983  5.4431  1.7843  1.1364
14357TIP3   OH264561   3.274   3.120   4.814 -0.2830 -0.1740 -0.0719
14357TIP3    H164562   3.255   3.096   4.723  0.8168  1.7725 -0.8867
14357TIP3    H264563   3.196   3.167   4.843 -0.5227 -0.5478 -0.1102
14358TIP3   OH264564   0.440   6.346   4.106 -0.1217 -0.3555  0.1024
14358TIP3    H164565   0.451   6.265   4.056 -2.7490  0.6802 -2.3741
14358TIP3    H264566   0.476   6.414   4.050  0.8034  0.4038  1.5688
14359TIP3   OH264567   4.517   7.179  11.973 -0.1125 -0.1027 -0.0430
14359TIP3    H164568   4.544   7.092  11.943  1.6450  0.7774 -1.1512
14359TIP3    H264569   4.442   7.162  12.030  1.9624 -2.6587  2.2281
14360TIP3   OH264570   4.653   0.691   9.735 -0.2231  0.2739 -0.0068
14360TIP3    H164571   4.627   0.599   9.747  2.5475 -0.2790  3.0814
14360TIP3    H264572   4.747   0.687   9.719 -0.0866  2.5936 -0.0524
14361TIP3   OH264573   5.486   2.799   0.292 -0.7961  0.6286 -0.0579
14361TIP3    H164574   5.448   2.886   0.277 -1.0277  0.4008 -0.8333
14361TIP3    H264575   5.558   2.815   0.354  0.3964  1.6795 -1.6200
14362TIP3   OH264576   3.286   2.694   2.949 -0.9994  0.2072 -0.1522
14362TIP3    H164577   3.212   2.739   2.988  0.3419  0.8021  1.8576
14362TIP3    H264578   3.258   2.603   2.941 -1.3090  0.0179  2.4350
14363TIP3   OH264579   4.619   4.198  14.102 -0.0868  0.0720  0.5256
14363TIP3    H164580   4.707   4.235  14.095  0.6348 -1.2556  2.0063
14363TIP3    H264581   4.561   4.274  14.100  1.0744  0.9743 -0.4434
14364TIP3   OH264582   5.411   4.289   4.829 -0.4906  0.3269 -0.3280
14364TIP3    H164583   5.489   4.276   4.883 -0.1639 -0.6432 -1.0006
14364TIP3    H264584   5.369   4.203   4.826 -2.2896  1.0799  1.0291
14365TIP3   OH264585   1.750   2.152   3.513  0.5736  0.2831 -0.0414
14365TIP3    H164586   1.809   2.079   3.495  1.2748  1.2205 -1.7497
14365TIP3    H264587   1.670   2.131   3.464 -0.9489 -1.3289  2.8056
14366TIP3   OH264588   0.214   4.255  14.776 -0.1802  0.2173 -0.6881
14366TIP3    H164589   0.244   4.325  14.718 -0.1468 -0.1476 -1.1179
14366TIP3    H264590   0.293   4.205  14.797 -0.0677  0.7909  0.2882
14367TIP3   OH264591   3.510   3.214   2.278 -0.1568 -0.8128 -0.1782
14367TIP3    H164592   3.525   3.294   2.328  2.6936 -1.1741 -0.2926
14367TIP3    H264593   3.415   3.210   2.267 -0.3915  2.8877 -0.7357
14368TIP3   OH264594   4.109   4.168   2.094  0.2607 -0.0434 -0.3956
14368TIP3    H164595   4.046   4.119   2.146  0.0189 -0.2743 -0.9018
14368TIP3    H264596   4.132   4.244   2.148 -0.1206 -0.1883 -0.0324
14369TIP3   OH264597   1.153   5.806   2.596  1.1075  0.1627  0.1203
14369TIP3    H164598   1.235   5.817   2.548  0.4771  1.2207 -0.7653
14369TIP3    H264599   1.085   5.825   2.532  0.2015  0.3761  1.1161
14370TIP3   OH264600   6.353   0.620   1.364  0.3183 -0.3580 -0.3037
14370TIP3    H164601   6.359   0.529   1.335  1.1880 -0.4225  0.0441
14370TIP3    H264602   6.402   0.622   1.446 -0.2588  0.2866  0.0366
14371TIP3   OH264603   5.327   4.058  11.515  0.1844 -0.1816  0.3890
14371TIP3    H164604   5.249   4.111  11.498 -0.2555 -0.3399  1.8533
14371TIP3    H264605   5.310   3.975  11.471  0.1331  0.2489 -0.4400
14372TIP3   OH264606   0.949   6.511   4.548  0.5604  0.7874 -0.9378
14372TIP3    H164607   0.881   6.472   4.493  2.7362 -1.0670 -2.5312
14372TIP3    H264608   0.973   6.441   4.609  1.7101  1.0097 -1.1068
14373TIP3   OH264609   3.040   6.762  12.826  0.2338 -0.0147 -0.2470
14373TIP3    H164610   3.079   6.771  12.914  0.7816  0.8226 -0.5628
14373TIP3    H264611   2.956   6.807  12.833 -0.4545 -1.3309  0.2779
14374TIP3   OH264612   6.511   3.048   3.107  0.2677 -0.0313 -0.7117
14374TIP3    H164613   6.416   3.034   3.110  0.2424  0.3403  0.6769
14374TIP3    H264614   6.521   3.143   3.110  0.6814 -0.0768 -0.7112
14375TIP3   OH264615   0.058   2.329  11.619  0.0301  0.1009  0.5600
14375TIP3    H164616   0.052   2.424  11.628  0.0995  0.0722  0.9037
14375TIP3    H264617   0.150   2.309  11.635  0.6618  0.2619 -2.2108
14376TIP3   OH264618   2.151   3.097   3.838 -0.2966 -0.3474 -0.3087
14376TIP3    H164619   2.205   3.018   3.832  0.9027 -0.0865  3.9861
14376TIP3    H264620   2.062   3.064   3.849  0.2829 -1.2778  2.3128
14377TIP3   OH264621   7.244   2.967   4.411  0.3422 -0.3407 -0.3565
14377TIP3    H164622   7.281   3.044   4.367  0.8843 -0.6426 -0.4487
14377TIP3    H264623   7.152   2.967   4.387 -0.1841  1.5099  1.4186
14378TIP3   OH264624   5.266   2.904   0.009  0.2179 -0.0000 -0.3008
14378TIP3    H164625   5.243   2.873   0.097  0.2995 -0.1006 -0.3145
14378TIP3    H264626   5.198   2.867  -0.047 -0.0721  0.4052 -0.2241
14379TIP3   OH264627   5.214   2.460   0.398 -0.2399  0.1169 -0.3720
14379TIP3    H164628   5.171   2.501   0.473  2.1006  1.6722  0.2494
14379TIP3    H264629   5.204   2.366   0.412  1.2915  0.2939  2.7145
14380TIP3   OH264630   2.004   4.561  14.569 -0.0817  0.2537  0.3027
14380TIP3    H164631   2.071   4.496  14.547  2.2645  1.8336  2.1862
14380TIP3    H264632   1.948   4.518  14.633  0.7163 -0.2834  0.6490
14381TIP3   OH264633   5.922   3.965   3.024  0.1498 -0.6390 -0.2362
14381TIP3    H164634   5.957   3.890   3.073  1.6213  0.7900  1.0220
14381TIP3    H264635   5.973   3.967   2.943  0.3320 -0.7953 -0.1260
14382TIP3   OH264636   2.599   0.192   3.279 -0.2350 -0.3710 -0.2138
14382TIP3    H164637   2.559   0.279   3.273 -1.6214 -1.0257 -0.8608
14382TIP3    H264638   2.613   0.180   3.373 -0.3159  0.4320 -0.0875
14383TIP3   OH264639   0.225   5.501   4.322 -0.2832 -0.9345 -0.4587
14383TIP3    H164640   0.309   5.531   4.288 -0.4038  0.0784  0.1134
14383TIP3    H264641   0.201   5.427   4.265  1.4761 -1.9189  0.0171
14384TIP3   OH264642   1.409   3.761  15.321  0.0255 -0.1985 -0.0916
14384TIP3    H164643   1.434   3.851  15.342  0.4747 -0.3077 -0.1555
14384TIP3    H264644   1.422   3.713  15.403 -0.8579 -0.0740  0.1299
14385TIP3   OH264645   1.817   2.920   1.824  0.4148 -0.2915  0.1201
14385TIP3    H164646   1.786   2.830   1.822 -2.1556  0.5175 -0.0325
14385TIP3    H264647   1.786   2.955   1.908 -0.7089  1.0698 -0.8084
14386TIP3   OH264648   6.807   3.220  14.181  0.3160  0.6603 -0.0862
14386TIP3    H164649   6.750   3.284  14.139 -1.1689 -0.1601  0.6031
14386TIP3    H264650   6.753   3.141  14.189  1.9288 -0.5174 -0.4381
14387TIP3   OH264651   0.870   4.702   2.659 -0.3434  0.2033 -0.4721
14387TIP3    H164652   0.801   4.656   2.612 -1.3669 -0.3569  1.4731
14387TIP3    H264653   0.826   4.774   2.704  0.4487  0.2499  0.2700
14388TIP3   OH264654   6.225   4.526   0.571  0.5151  0.2064  0.4608
14388TIP3    H164655   6.152   4.491   0.622  0.9831 -1.2561  0.1954
14388TIP3    H264656   6.253   4.452   0.517  2.1202  0.7508  0.4871
14389TIP3   OH264657   4.532   6.725   2.332  0.4523 -0.2397 -0.8068
14389TIP3    H164658   4.505   6.707   2.242 -0.1815  2.6940 -1.3131
14389TIP3    H264659   4.626   6.704   2.334  0.0085 -2.5883 -1.4022
14390TIP3   OH264660   5.484   5.584   4.159  0.8395  0.2109  0.1161
14390TIP3    H164661   5.504   5.594   4.066 -0.8731 -0.3897 -0.3528
14390TIP3    H264662   5.446   5.668   4.185 -0.7082 -0.3287 -0.3098
14391TIP3   OH264663   0.870   0.394  10.677  0.0193 -0.0660  0.3531
14391TIP3    H164664   0.940   0.330  10.669 -0.0548 -0.1214  0.1104
14391TIP3    H264665   0.871   0.421  10.768  0.7847  0.4169  0.2133
14392TIP3   OH264666   2.084   6.361  10.694  0.7981 -0.0390 -0.6098
14392TIP3    H164667   2.020   6.431  10.708 -0.3580 -1.1496 -0.1686
14392TIP3    H264668   2.044   6.303  10.629 -0.5373 -2.8460  2.4188
14393TIP3   OH264669   0.713   3.920   3.685  0.0836  0.6412 -0.5664
14393TIP3    H164670   0.684   4.011   3.696 -0.6093  0.4618 -0.8621
14393TIP3    H264671   0.808   3.925   3.693  0.0998  1.4737 -1.0412
14394TIP3   OH264672   3.745   3.608   5.886 -0.0976 -0.2396 -0.1651
14394TIP3    H164673   3.666   3.573   5.927 -1.3481 -0.1565 -2.3886
14394TIP3    H264674   3.789   3.531   5.850 -0.7125 -0.0091 -1.4615
14395TIP3   OH264675   0.014   3.298   4.807  0.3536 -0.3365  0.1098
14395TIP3    H164676  -0.013   3.287   4.898  0.1325  0.1895  0.1132
14395TIP3    H264677  -0.010   3.216   4.765 -1.3556  0.1310  0.0888
14396TIP3   OH264678   5.169   1.445   1.126 -0.0402  0.2271  0.0004
14396TIP3    H164679   5.237   1.465   1.062  0.6329  0.5163  0.7790
14396TIP3    H264680   5.088   1.479   1.087  0.2944  0.0802 -0.8408
14397TIP3   OH264681   4.622   4.211   2.366 -0.1821  0.1430  0.2885
14397TIP3    H164682   4.568   4.211   2.445  0.0168  0.8060  0.4323
14397TIP3    H264683   4.640   4.304   2.349  1.8029 -0.0890  0.8852
14398TIP3   OH264684   7.252   1.659   4.985 -0.2779  0.4583 -0.5258
14398TIP3    H164685   7.269   1.572   4.947  1.1670 -0.6517  2.3594
14398TIP3    H264686   7.183   1.644   5.049 -0.2744  1.5433 -0.2484
14399TIP3   OH264687   5.108   1.445   4.030  0.6808  0.0119  0.5851
14399TIP3    H164688   5.038   1.380   4.018  1.4878 -1.1479  1.9027
14399TIP3    H264689   5.090   1.512   3.964 -0.8360 -0.9821 -0.0593
14400TIP3   OH264690   0.656   1.818   3.022 -0.4268  0.2001 -0.2157
14400TIP3    H164691   0.735   1.771   2.993 -0.1264  0.8652 -0.4838
14400TIP3    H264692   0.677   1.845   3.112  0.5035  2.1787 -0.9696
14401TIP3   OH264693   2.846   1.685   1.488 -0.0716 -0.6733 -0.0768
14401TIP3    H164694   2.923   1.665   1.435 -0.1296 -0.9244 -0.0696
14401TIP3    H264695   2.776   1.634   1.448 -0.4244  0.1947 -0.5890
14402TIP3   OH264696   4.608   3.571  14.712 -0.4822 -0.1607  0.1155
14402TIP3    H164697   4.629   3.626  14.637  2.3195 -0.2560  0.7259
14402TIP3    H264698   4.690   3.526  14.733 -1.2837 -0.5412  2.8877
14403TIP3   OH264699   7.121   6.102   5.434 -0.3178  0.1071 -0.2003
14403TIP3    H164700   7.082   6.138   5.514  1.2891  1.7365 -0.0833
14403TIP3    H264701   7.214   6.125   5.440  0.3362 -2.0091 -1.3310
14404TIP3   OH264702   4.480   3.328   5.311 -0.2413 -0.0848 -0.3599
14404TIP3    H164703   4.387   3.310   5.302 -0.7994  2.0819  0.3554
14404TIP3    H264704   4.521   3.242   5.318 -2.4304 -1.0806  1.4921
14405TIP3   OH264705   2.773   4.421   3.853  0.2619  0.2469  0.1823
14405TIP3    H164706   2.857   4.389   3.887  0.0818 -0.0024  0.4028
14405TIP3    H264707   2.797   4.490   3.790  0.6276  0.2216  0.2886
14406TIP3   OH264708   1.335   0.532   0.723 -0.2769  0.3694  0.0067
14406TIP3    H164709   1.303   0.613   0.764 -0.5811  0.4041 -0.2958
14406TIP3    H264710   1.405   0.562   0.665 -0.9870  0.5402 -0.7911
14407TIP3   OH264711   6.160   2.496   1.119 -0.2804 -0.1980  0.4391
14407TIP3    H164712   6.180   2.533   1.205 -1.2434  0.0203  0.5842
14407TIP3    H264713   6.172   2.402   1.130  0.8720 -0.0549  0.4425
14408TIP3   OH264714   2.457   6.809   2.574 -0.5942 -0.0233 -0.6892
14408TIP3    H164715   2.381   6.847   2.530 -1.8713  1.4890  2.5047
14408TIP3    H264716   2.459   6.718   2.545 -2.8714  0.2198 -1.8128
14409TIP3   OH264717   3.407   1.769   2.296 -0.0868 -0.3827 -0.1179
14409TIP3    H164718   3.500   1.746   2.289  0.3099  1.4378 -1.9074
14409TIP3    H264719   3.407   1.863   2.316 -1.5447 -0.4198  0.1868
14410TIP3   OH264720   5.184   0.916   5.587 -0.2160 -0.5803  0.0902
14410TIP3    H164721   5.277   0.902   5.603 -0.1050  0.2531  0.2091
14410TIP3    H264722   5.151   0.958   5.666 -0.8341 -1.4430  0.3062
14411TIP3   OH264723   5.446   5.170   4.417 -0.2882 -0.6626  0.2974
14411TIP3    H164724   5.540   5.168   4.435 -0.2629 -0.9506  0.1500
14411TIP3    H264725   5.433   5.248   4.363 -0.3288  0.0900  1.3631
14412TIP3   OH264726   2.070   1.459  14.970  0.1186  0.3904  0.7539
14412TIP3    H164727   2.037   1.520  14.904  1.1013  2.7867  2.3324
14412TIP3    H264728   1.992   1.426  15.014 -0.4444  0.2335 -0.3258
14413TIP3   OH264729   1.894   4.626  13.077 -0.2989 -0.0696 -0.0655
14413TIP3    H164730   1.859   4.707  13.115  0.0652  0.5741 -1.0647
14413TIP3    H264731   1.817   4.571  13.064 -0.6054  0.2795  0.2372
14414TIP3   OH264732   4.378   6.685  15.292  0.2422 -0.5779  0.1430
14414TIP3    H164733   4.300   6.716  15.339 -0.5691  0.6396 -1.9008
14414TIP3    H264734   4.348   6.608  15.244  0.3238 -0.1938 -0.5308
14415TIP3   OH264735   3.397   6.812  10.967 -0.4856  0.2455 -0.2938
14415TIP3    H164736   3.313   6.844  11.002  0.0159 -0.0918  1.2976
14415TIP3    H264737   3.447   6.891  10.948 -0.4795  0.4385  0.5073
14416TIP3   OH264738   2.586   2.135  14.301  0.5145  0.2231  0.6696
14416TIP3    H164739   2.586   2.146  14.396 -0.9593 -1.4923  0.9245
14416TIP3    H264740   2.546   2.049  14.287  0.1023  0.7210 -1.5480
14417TIP3   OH264741   1.581   4.191   2.410  0.2921 -0.0614  0.2546
14417TIP3    H164742   1.676   4.197   2.402  0.5993 -1.3598  2.2693
14417TIP3    H264743   1.563   4.208   2.502 -1.2090 -1.7570  0.3316
14418TIP3   OH264744   6.839   7.168   4.895  0.1142 -0.1613 -0.7638
14418TIP3    H164745   6.753   7.160   4.854  0.1997 -1.6120 -0.6967
14418TIP3    H264746   6.821   7.165   4.989 -0.0006  2.3388 -0.6452
14419TIP3   OH264747   0.291   6.666  13.628 -0.2419  0.2932 -0.2190
14419TIP3    H164748   0.309   6.670  13.722 -1.7396 -1.1343  0.1786
14419TIP3    H264749   0.221   6.601  13.619  0.0811  0.1470 -2.3650
14420TIP3   OH264750   6.829   1.271  13.151 -0.3862 -1.1485  0.1444
14420TIP3    H164751   6.740   1.248  13.175 -0.3834 -1.1040  0.1964
14420TIP3    H264752   6.883   1.236  13.222 -0.3807 -0.9958  0.2161
14421TIP3   OH264753   0.133   1.404   3.168  0.0195 -0.9020 -0.5918
14421TIP3    H164754   0.041   1.426   3.183  0.3785  0.0406  0.3597
14421TIP3    H264755   0.136   1.372   3.078 -1.2959 -1.2958 -0.5149
14422TIP3   OH264756   6.149   2.609   1.404 -0.3244 -0.5152  0.1873
14422TIP3    H164757   6.143   2.562   1.487 -0.0086 -0.2230  0.3728
14422TIP3    H264758   6.235   2.649   1.405 -0.4542 -0.2292 -0.1340
14423TIP3   OH264759   0.506   4.000  13.501  0.0358  0.1964  0.3733
14423TIP3    H164760   0.431   3.978  13.557 -0.5118  0.8255 -0.1020
14423TIP3    H264761   0.484   4.086  13.465  0.2855 -0.2915 -0.9773
14424TIP3   OH264762   5.836   3.423   5.281 -0.5679 -0.1055 -0.4884
14424TIP3    H164763   5.770   3.375   5.331 -0.1528 -0.2745 -0.0976
14424TIP3    H264764   5.847   3.505   5.328  1.1117 -0.9834  0.7434
14425TIP3   OH264765   3.004   3.903  13.729 -0.3022  0.2494 -0.6401
14425TIP3    H164766   2.973   3.942  13.647 -2.0346  0.2201 -0.0279
14425TIP3    H264767   3.084   3.857  13.704  0.0229  1.4682 -2.0131
14426TIP3   OH264768   2.681   3.109   5.308 -0.5906  0.1710  0.5130
14426TIP3    H164769   2.588   3.120   5.288 -0.6412  2.8593  1.8564
14426TIP3    H264770   2.682   3.065   5.393 -0.7123  1.4858  1.2169
14427TIP3   OH264771   5.771   3.396   0.443  0.0816 -0.2200  0.3439
14427TIP3    H164772   5.814   3.472   0.482 -0.1237 -0.1162  0.3661
14427TIP3    H264773   5.843   3.336   0.422  0.3216  0.3278 -0.4485
14428TIP3   OH264774   2.452   5.810  15.154  0.7421  0.4688 -0.4903
14428TIP3    H164775   2.413   5.766  15.080  0.3110  1.0424 -0.6086
14428TIP3    H264776   2.471   5.899  15.123 -2.4097  1.8160  0.9495
14429TIP3   OH264777   6.055   3.605   4.474  0.3263 -0.3122 -0.0721
14429TIP3    H164778   6.063   3.573   4.385 -0.9662 -0.1993 -0.2608
14429TIP3    H264779   6.011   3.690   4.465  1.4703  0.3806  0.5846
14430TIP3   OH264780   6.499   5.799  12.059  0.3848 -0.0300  0.0599
14430TIP3    H164781   6.476   5.792  12.152  0.6895  1.1173  0.2325
14430TIP3    H264782   6.581   5.749  12.051  0.1208 -0.5149  0.3043
14431TIP3   OH264783   1.503   6.595   3.281 -0.2526  0.0732 -0.0457
14431TIP3    H164784   1.449   6.578   3.204  1.9725 -0.5113 -1.5970
14431TIP3    H264785   1.552   6.674   3.259 -0.9564  1.0233  1.6241
14432TIP3   OH264786   1.226   3.144  13.627 -0.3861  0.0980  0.7227
14432TIP3    H164787   1.200   3.221  13.577 -0.5764 -1.5100 -1.8707
14432TIP3    H264788   1.143   3.106  13.657 -0.3608  0.2577  1.0025
14433TIP3   OH264789   2.270   3.215   2.642  0.5208  0.3713  0.0015
14433TIP3    H164790   2.290   3.196   2.550  0.7800  0.4484  0.0403
14433TIP3    H264791   2.350   3.191   2.689  0.2601 -0.0038  0.2496
14434TIP3   OH264792   4.431   4.755  14.367 -0.2846 -0.2195  0.4448
14434TIP3    H164793   4.441   4.660  14.378 -1.8079 -0.3638  0.9505
14434TIP3    H264794   4.409   4.766  14.275  0.4977 -0.2955  0.2483
14435TIP3   OH264795   5.783   5.376  12.945  0.1372 -0.5298  0.0059
14435TIP3    H164796   5.736   5.338  12.871 -0.3929 -0.8659  0.5057
14435TIP3    H264797   5.734   5.347  13.022  0.3443  0.2972  0.4598
14436TIP3   OH264798   3.424   5.470   0.517  0.5577  0.1914 -0.7184
14436TIP3    H164799   3.361   5.403   0.490 -0.5341  1.1031 -0.4848
14436TIP3    H264800   3.397   5.549   0.470  2.2963  0.3233 -1.5987
14437TIP3   OH264801   0.204   0.920   4.806  0.4272 -0.4931  0.3407
14437TIP3    H164802   0.182   1.010   4.831  1.9952  0.4138 -1.2259
14437TIP3    H264803   0.298   0.924   4.786 -0.0189 -1.7430 -2.5296
14438TIP3   OH264804   1.064   2.432   4.563  0.5169  0.3136  0.3618
14438TIP3    H164805   0.997   2.471   4.619 -0.2260  0.4908 -0.6256
14438TIP3    H264806   1.101   2.506   4.515 -1.1220 -0.1554 -1.7623
14439TIP3   OH264807   6.765   5.927  11.820 -0.0228 -0.3027 -0.7379
14439TIP3    H164808   6.763   5.967  11.906  0.1660 -2.0968  0.1488
14439TIP3    H264809   6.674   5.903  11.802  0.1780 -1.6046 -0.1645
14440TIP3   OH264810   1.583   5.490  13.304  0.4377 -0.2336  0.2208
14440TIP3    H164811   1.637   5.441  13.242 -1.1469 -0.8481 -0.7339
14440TIP3    H264812   1.639   5.563  13.331  1.7644 -0.8792 -0.6554
14441TIP3   OH264813   0.732   0.145   1.186  0.6596  0.0052  0.3423
14441TIP3    H164814   0.698   0.087   1.117  1.7837 -1.0342  0.6370
14441TIP3    H264815   0.726   0.233   1.148  0.2305 -0.4355 -0.6520
14442TIP3   OH264816   3.286   6.314   5.082  0.0134  0.2151 -0.3322
14442TIP3    H164817   3.349   6.376   5.119  1.3957 -1.4612  0.2701
14442TIP3    H264818   3.333   6.271   5.011 -1.3267  0.6702 -1.5331
14443TIP3   OH264819   5.200   5.445   5.065 -0.2391  0.0304 -0.2800
14443TIP3    H164820   5.181   5.408   4.979 -1.3828  1.0644 -0.4954
14443TIP3    H264821   5.268   5.511   5.048  1.1254 -1.2451 -0.0312
14444TIP3   OH264822   3.605   4.092  11.826  0.0347  0.2121 -0.0479
14444TIP3    H164823   3.605   4.186  11.844  1.2402  0.4992 -1.3213
14444TIP3    H264824   3.655   4.084  11.744 -0.7160 -1.4579 -0.3759
14445TIP3   OH264825   4.697   2.347   3.178  0.4144 -0.4347  0.1015
14445TIP3    H164826   4.697   2.347   3.082  0.6960  2.9806 -0.0519
14445TIP3    H264827   4.787   2.324   3.202  1.1885  1.5448 -0.6639
14446TIP3   OH264828   2.369   4.639   1.490  0.1832  0.5031 -0.0126
14446TIP3    H164829   2.356   4.566   1.429  1.7312  1.3882 -1.5008
14446TIP3    H264830   2.319   4.711   1.452  2.4041  1.5206 -1.2392
14447TIP3   OH264831   0.379   3.032   5.305 -0.1234  0.6835  0.1632
14447TIP3    H164832   0.469   3.036   5.272  0.7614  0.0148  2.2609
14447TIP3    H264833   0.356   3.123   5.322  0.6736  0.7792  0.8083
14448TIP3   OH264834   5.466   1.859   2.800  0.4106  0.0737  0.1086
14448TIP3    H164835   5.555   1.855   2.763  1.4994 -1.9401  2.6376
14448TIP3    H264836   5.476   1.908   2.882 -0.9189  0.1902  0.2250
14449TIP3   OH264837   0.646   0.479   4.003 -0.0500  0.1410  0.2003
14449TIP3    H164838   0.583   0.502   3.934 -0.7055  1.0115  1.0606
14449TIP3    H264839   0.682   0.563   4.031  1.3782 -0.3326 -0.1429
14450TIP3   OH264840   5.970   2.291   0.683  0.2562  0.0476  0.5356
14450TIP3    H164841   6.052   2.242   0.688 -0.2126 -0.6552  1.9710
14450TIP3    H264842   5.972   2.332   0.597  2.1904  0.1853  0.5837
14451TIP3   OH264843   1.766   0.258   0.719  0.4680 -0.2253 -0.1683
14451TIP3    H164844   1.791   0.172   0.754  0.2345  0.7572  2.6889
14451TIP3    H264845   1.844   0.291   0.677  1.8888 -0.1860  2.3209
14452TIP3   OH264846   0.204   4.867  14.712  0.1305 -0.2964  0.0740
14452TIP3    H164847   0.269   4.830  14.771  0.5957  0.2797 -0.0662
14452TIP3    H264848   0.254   4.897  14.636 -0.3526 -0.2483 -0.2365
14453TIP3   OH264849   6.621   5.080   2.877 -0.0102  0.1686 -0.3368
14453TIP3    H164850   6.526   5.075   2.871 -0.0543  1.7169 -1.8813
14453TIP3    H264851   6.648   4.996   2.913 -1.9041 -0.6348 -0.6871
14454TIP3   OH264852   2.071   2.040   2.756  0.6416 -0.1124 -0.3256
14454TIP3    H164853   2.080   2.106   2.687 -1.3771  0.0886 -0.4622
14454TIP3    H264854   2.156   2.038   2.799  0.9623  2.0797 -0.7664
14455TIP3   OH264855   1.781   6.484  15.071 -0.6819 -0.2918  0.3595
14455TIP3    H164856   1.810   6.565  15.029 -1.6011 -0.3574 -0.4314
14455TIP3    H264857   1.818   6.414  15.018 -0.1891 -0.3989  0.8328
14456TIP3   OH264858   5.300   7.113   0.087 -0.0158  0.3998  0.1023
14456TIP3    H164859   5.292   7.200   0.047  1.3869  0.3134 -0.4263
14456TIP3    H264860   5.290   7.053   0.013  2.0232  0.2202 -0.0764
14457TIP3   OH264861   0.405   5.773  15.133  0.5058 -0.6036  0.2367
14457TIP3    H164862   0.461   5.776  15.056 -0.4842 -2.8605 -0.6325
14457TIP3    H264863   0.424   5.688  15.173 -1.4322 -0.9088  0.5694
14458TIP3   OH264864   0.932   1.064  13.038 -0.6513 -0.6445  0.3793
14458TIP3    H164865   0.974   1.146  13.011 -0.4150 -1.3387 -1.5141
14458TIP3    H264866   0.920   1.073  13.132  1.8905  0.4193  0.6685
14459TIP3   OH264867   3.307   6.329   2.778  0.3972  0.2628 -0.0214
14459TIP3    H164868   3.297   6.417   2.742 -0.0772 -0.1587 -0.9524
14459TIP3    H264869   3.255   6.330   2.858 -0.1996  0.6201 -0.4065
14460TIP3   OH264870   2.961   7.046   2.882  0.1149  0.2660  0.5952
14460TIP3    H164871   3.056   7.047   2.870  0.2182  0.7961  1.3747
14460TIP3    H264872   2.949   7.030   2.976 -0.5989 -1.1994  0.2648
14461TIP3   OH264873   5.671   2.533   2.567  0.0561  0.1120  0.0026
14461TIP3    H164874   5.715   2.453   2.594  0.4459 -0.1381 -1.2985
14461TIP3    H264875   5.723   2.566   2.495 -1.0648  0.5990 -0.6180
14462TIP3   OH264876   5.947   3.308   4.429  0.5297  0.1852  0.0537
14462TIP3    H164877   5.992   3.363   4.365  0.5771 -0.0674 -0.1323
14462TIP3    H264878   5.860   3.347   4.437  0.0630 -0.5800 -1.1849
14463TIP3   OH264879   6.202   6.440   1.303  0.1180 -0.0208 -0.3296
14463TIP3    H164880   6.253   6.438   1.383  0.0734  0.0734 -0.2989
14463TIP3    H264881   6.117   6.403   1.328 -0.5135  1.6462  0.0970
14464TIP3   OH264882   4.762   6.321   5.482 -0.0597  0.6469 -0.3170
14464TIP3    H164883   4.743   6.413   5.503 -0.9529  0.8365 -1.8143
14464TIP3    H264884   4.682   6.274   5.507  0.7185  0.1021  1.2817
14465TIP3   OH264885   1.313   6.237  10.740  0.2056 -0.1257 -0.4637
14465TIP3    H164886   1.220   6.218  10.726  0.5780 -0.9131 -2.1277
14465TIP3    H264887   1.356   6.152  10.734  0.9910  0.1493  0.9162
14466TIP3   OH264888   2.051   4.542   0.354 -0.0652 -0.0396 -0.0071
14466TIP3    H164889   2.130   4.487   0.361  0.7905  1.3300  1.5560
14466TIP3    H264890   2.076   4.610   0.291 -1.1157 -1.3020 -1.9124
14467TIP3   OH264891   2.865   4.629  14.672 -0.0656 -0.5797 -0.3121
14467TIP3    H164892   2.837   4.660  14.585 -4.0941  0.3799  1.1108
14467TIP3    H264893   2.844   4.536  14.672  1.9505 -1.0941 -0.9626
14468TIP3   OH264894   3.153   2.009   5.734 -0.4646  0.3340  0.1954
14468TIP3    H164895   3.124   2.023   5.643  2.7622 -3.6174 -1.7673
14468TIP3    H264896   3.095   1.940   5.767 -0.7848  0.8510  0.7529
14469TIP3   OH264897   7.168   4.036   4.792 -0.3601 -0.6805 -0.1681
14469TIP3    H164898   7.117   4.118   4.793 -0.1137 -0.5274  0.3923
14469TIP3    H264899   7.105   3.969   4.817  0.0658 -0.2533  2.3136
14470TIP3   OH264900   2.994   7.133   4.897 -0.2371 -0.0158 -0.0038
14470TIP3    H164901   3.047   7.064   4.939 -0.0205 -0.2118 -0.5956
14470TIP3    H264902   2.945   7.087   4.829 -2.1652 -0.0791  1.3524
14471TIP3   OH264903   6.174   2.677   0.927  0.4258  0.0741  0.1893
14471TIP3    H164904   6.157   2.603   0.985 -0.4178 -1.2403 -1.6266
14471TIP3    H264905   6.169   2.640   0.838  1.7463  1.9624 -0.7509
14472TIP3   OH264906   5.779   3.351   4.900  0.5962  0.2852 -0.8863
14472TIP3    H164907   5.741   3.326   4.984  0.3728  1.6789 -0.5585
14472TIP3    H264908   5.844   3.283   4.882  2.5810  1.3350  1.7125
14473TIP3   OH264909   6.425   0.157   4.822 -0.1817  0.5839  0.2715
14473TIP3    H164910   6.338   0.127   4.796  0.4936 -0.5438 -0.8371
14473TIP3    H264911   6.439   0.121   4.909 -0.3409 -0.2727 -0.0563
14474TIP3   OH264912   1.433   6.422   3.492 -0.1193  0.4104  0.2723
14474TIP3    H164913   1.427   6.488   3.423  1.1418  0.2898  0.0400
14474TIP3    H264914   1.521   6.386   3.484 -0.4583 -0.6286  1.0187
14475TIP3   OH264915   3.331   5.957   4.012 -0.3126  0.0259 -0.0487
14475TIP3    H164916   3.247   5.919   3.986 -0.3990  0.5521 -0.5832
14475TIP3    H264917   3.331   6.044   3.971  0.7105 -0.1696 -0.4984
14476TIP3   OH264918   1.420   3.775   3.132  0.1929  0.4587  0.0234
14476TIP3    H164919   1.362   3.792   3.207  0.0666  0.1535 -0.0024
14476TIP3    H264920   1.474   3.701   3.160 -0.1262  0.0871 -0.3352
14477TIP3   OH264921   1.956   5.555   2.351 -0.3667  0.2043 -0.0838
14477TIP3    H164922   1.918   5.634   2.313  0.2432  0.7388  0.3929
14477TIP3    H264923   2.022   5.587   2.412 -1.2543 -0.6268  1.3757
14478TIP3   OH264924   0.091   4.241   2.719 -0.6725 -0.3591 -0.1588
14478TIP3    H164925   0.177   4.212   2.688 -0.5738  0.9325 -1.1843
14478TIP3    H264926   0.104   4.262   2.812  0.3096  0.4957 -0.4730
14479TIP3   OH264927   2.937   2.088   0.856 -0.4925 -0.1255 -0.2413
14479TIP3    H164928   2.913   1.999   0.882  1.1882 -0.7827 -0.7960
14479TIP3    H264929   2.968   2.078   0.766  0.6191  0.8531  0.0201
14480TIP3   OH264930   2.029   4.890   0.956  0.2060  0.6417  0.4089
14480TIP3    H164931   2.041   4.927   0.869  0.4686  1.0557  0.6188
14480TIP3    H264932   2.004   4.964   1.011 -1.3837  0.1566  0.4000
14481TIP3   OH264933   1.705   1.245  10.874  0.0288 -0.1638  0.4799
14481TIP3    H164934   1.800   1.246  10.865 -0.1390  2.0130 -4.2803
14481TIP3    H264935   1.682   1.152  10.881  2.4067 -0.7199  1.9696
14482TIP3   OH264936   6.541   3.950   0.805 -0.0956 -0.0511  0.2806
14482TIP3    H164937   6.510   3.877   0.751 -0.3017  0.4916 -0.3396
14482TIP3    H264938   6.462   3.997   0.830  0.1615  1.1515 -1.0382
14483TIP3   OH264939   6.276   6.454   2.864  0.3583  0.0254 -0.0405
14483TIP3    H164940   6.311   6.424   2.948  0.8276 -0.3449 -0.3614
14483TIP3    H264941   6.186   6.424   2.864  0.3399  0.0755  0.3578
14484TIP3   OH264942   5.989   0.958   4.381 -0.5009 -0.6694 -0.0548
14484TIP3    H164943   5.949   0.943   4.295  1.0822 -1.8657 -0.6285
14484TIP3    H264944   6.075   0.994   4.361 -1.0506  1.4621  1.1383
14485TIP3   OH264945   2.425   0.798   0.933  0.4294 -0.4761 -0.1714
14485TIP3    H164946   2.409   0.877   0.880  3.0958  1.1321  1.1855
14485TIP3    H264947   2.450   0.731   0.869 -0.1202  0.2961 -1.2264
14486TIP3   OH264948   5.253   3.075   1.780  0.3227 -0.0652 -0.1278
14486TIP3    H164949   5.229   3.125   1.702  0.2885  1.4735  0.8264
14486TIP3    H264950   5.340   3.107   1.804  0.4579 -0.7239  0.3030
14487TIP3   OH264951   5.724   4.087  13.813 -0.1679 -0.0307 -0.3865
14487TIP3    H164952   5.691   3.999  13.794 -2.2109  0.8412 -1.1866
14487TIP3    H264953   5.736   4.126  13.726  0.3282  0.6088 -0.0309
14488TIP3   OH264954   5.631   1.306   4.635  0.1766 -0.3074  0.4292
14488TIP3    H164955   5.541   1.316   4.666  0.3621  3.5551  0.1740
14488TIP3    H264956   5.633   1.352   4.552  1.9859 -2.1059 -0.6166
14489TIP3   OH264957   2.842   3.891   2.820 -0.3351 -0.1456 -0.9909
14489TIP3    H164958   2.831   3.957   2.751 -4.2318  0.2905 -0.1956
14489TIP3    H264959   2.807   3.933   2.898  1.2541 -1.6623  0.6056
14490TIP3   OH264960   1.292   4.617   4.578 -0.0362  0.2802  0.1141
14490TIP3    H164961   1.317   4.526   4.591  0.0326  0.1168 -1.1146
14490TIP3    H264962   1.229   4.615   4.506 -0.8756  1.0834  0.8024
14491TIP3   OH264963   2.705   4.091   4.193 -0.7270  0.0006  0.4660
14491TIP3    H164964   2.692   4.033   4.119 -0.8279  0.8338 -0.1807
14491TIP3    H264965   2.630   4.151   4.191 -1.6716 -1.0106  2.2557
14492TIP3   OH264966   2.151   0.636   0.364  0.4712 -0.1752  0.5223
14492TIP3    H164967   2.120   0.589   0.286  0.8094 -0.8680  0.7949
14492TIP3    H264968   2.204   0.707   0.329  1.8663 -1.3638  0.1209
14493TIP3   OH264969   1.687   5.062   1.864 -0.7912  0.2325 -0.0514
14493TIP3    H164970   1.657   4.975   1.892  2.2373 -0.3862  1.8084
14493TIP3    H264971   1.641   5.123   1.921  0.0468 -0.5350  1.5138
14494TIP3   OH264972   5.203   5.326   1.642 -0.1991  0.3635  0.1424
14494TIP3    H164973   5.295   5.353   1.650 -0.2575  0.3501  0.9402
14494TIP3    H264974   5.173   5.368   1.561  1.2486 -1.8535 -1.6556
14495TIP3   OH264975   5.774   3.018   5.261  0.2100 -0.0244 -0.5244
14495TIP3    H164976   5.745   3.021   5.352  0.0498 -4.0642 -0.2432
14495TIP3    H264977   5.855   2.967   5.263  0.3774  0.0483 -2.6238
14496TIP3   OH264978   0.335   4.604  14.407 -0.7784 -0.2237 -0.3407
14496TIP3    H164979   0.340   4.569  14.495 -3.8175 -0.3136 -0.0859
14496TIP3    H264980   0.306   4.695  14.418 -1.0774 -0.1957 -1.2329
14497TIP3   OH264981   1.557   5.363   1.162 -0.2908  0.6352 -0.5245
14497TIP3    H164982   1.643   5.322   1.174  1.0881  3.5228  0.5671
14497TIP3    H264983   1.518   5.362   1.250 -2.6827 -2.9805 -1.4433
14498TIP3   OH264984   1.060   1.960  10.919 -0.4885  0.4393  0.0680
14498TIP3    H164985   1.148   1.951  10.956 -0.8858  0.2464  1.0027
14498TIP3    H264986   1.002   1.969  10.995 -1.3837 -0.3727 -0.4761
14499TIP3   OH264987   3.626   1.566   5.335  0.0172 -0.7258 -0.1634
14499TIP3    H164988   3.552   1.612   5.296 -1.1600 -2.4114 -0.0635
14499TIP3    H264989   3.621   1.587   5.429 -0.9772 -1.5916  0.0031
14500TIP3   OH264990   0.982   5.386   3.972  0.2676  0.7604  0.2855
14500TIP3    H164991   0.972   5.313   3.912  0.0146  1.7505 -0.9133
14500TIP3    H264992   0.919   5.369   4.042  0.6710 -0.4783  0.3660
14501TIP3   OH264993   5.779   0.737   0.279  0.2444  0.3133 -0.2732
14501TIP3    H164994   5.727   0.731   0.359  1.2619  1.0540  0.4828
14501TIP3    H264995   5.756   0.659   0.229 -1.1157  0.3176  0.3008
14502TIP3   OH264996   4.999   6.904   2.329  0.8013 -0.3108  0.2361
14502TIP3    H164997   5.038   6.926   2.414  0.7501  0.1150  0.1514
14502TIP3    H264998   5.046   6.825   2.301  1.5979  0.1886  0.1385
14503TIP3   OH264999   2.532   2.351   4.226 -0.6060  0.0064  0.0761
14503TIP3    H165000   2.444   2.316   4.213 -0.2242 -0.8176 -0.3324
14503TIP3    H265001   2.570   2.294   4.292  0.3947 -1.0407 -1.3588
14504TIP3   OH265002   6.152   2.025   4.199  0.0393 -0.2136  0.2141
14504TIP3    H165003   6.212   2.087   4.157  0.8512 -0.0151  1.6200
14504TIP3    H265004   6.069   2.037   4.152  1.3665 -1.4503 -2.6790
14505TIP3   OH265005   3.387   2.231   5.549 -0.1680  0.1087  0.0028
14505TIP3    H165006   3.435   2.312   5.569  0.8012 -0.1388 -1.2424
14505TIP3    H265007   3.449   2.161   5.569 -0.4216 -0.2639 -0.5180
14506TIP3   OH265008   6.644   3.389  12.681 -0.2024 -0.5084 -0.5162
14506TIP3    H165009   6.581   3.428  12.621  2.8451  1.4300 -2.7176
14506TIP3    H265010   6.613   3.299  12.692 -2.8707  0.1010 -2.0484
14507TIP3   OH265011   1.727   4.986   2.915 -0.3644  0.2823 -0.0621
14507TIP3    H165012   1.705   5.015   3.004  1.4968 -2.2110  1.3412
14507TIP3    H265013   1.656   4.927   2.890 -0.2244 -0.0722  0.3594
14508TIP3   OH265014   6.424   4.630   0.962 -0.2693  0.5543 -0.1260
14508TIP3    H165015   6.404   4.543   0.930  1.9744  0.4584 -1.4795
14508TIP3    H265016   6.441   4.618   1.056  3.7081 -1.3174 -0.8843
14509TIP3   OH265017   6.806   6.789  13.455  0.1145 -0.5908  0.1121
14509TIP3    H165018   6.854   6.785  13.538 -0.4989  0.0465  0.5106
14509TIP3    H265019   6.850   6.859  13.406 -0.1119 -0.3248  0.2863
14510TIP3   OH265020   1.954   3.983   5.232 -0.2390 -0.2711 -0.6108
14510TIP3    H165021   1.986   3.968   5.143 -0.3732  0.3711 -0.7789
14510TIP3    H265022   2.032   4.002   5.283 -0.2688  0.6837 -0.8886
14511TIP3   OH265023   1.598   3.042  14.457 -1.0138  0.1264  0.0700
14511TIP3    H165024   1.678   3.075  14.417  0.3816 -1.2881  1.5256
14511TIP3    H265025   1.559   2.986  14.390 -0.4808  0.3650 -0.4534
14512TIP3   OH265026   0.581   3.152  11.260  0.0245  0.2959  0.3388
14512TIP3    H165027   0.541   3.109  11.184 -0.1092  1.6958 -0.4088
14512TIP3    H265028   0.510   3.162  11.323 -0.0613 -0.1072  0.3058
14513TIP3   OH265029   2.409   1.975  10.827  0.8365 -0.0909  0.4934
14513TIP3    H165030   2.433   2.000  10.737  2.2530  0.5786  1.0353
14513TIP3    H265031   2.342   2.038  10.852  1.6518  0.7922  0.4941
14514TIP3   OH265032   0.607   3.740   4.326 -0.4053  0.5244 -0.2273
14514TIP3    H165033   0.661   3.810   4.364  1.0739 -1.2226  1.0268
14514TIP3    H265034   0.613   3.668   4.389  0.8556 -1.9670 -2.9606
14515TIP3   OH265035   5.703   6.179  14.843 -0.4301  0.1657 -0.1150
14515TIP3    H165036   5.763   6.253  14.853  0.6790 -0.6133 -0.8331
14515TIP3    H265037   5.755   6.111  14.801 -1.5751 -0.8565  0.0694
14516TIP3   OH265038   7.242   6.576   2.493  0.5582 -0.5573  0.6581
14516TIP3    H165039   7.258   6.598   2.401 -1.2638 -0.3576  0.3504
14516TIP3    H265040   7.272   6.485   2.501 -0.6289 -1.1037 -0.5656
14517TIP3   OH265041   0.687   7.215   3.100  0.4354 -0.1110  0.6034
14517TIP3    H165042   0.625   7.286   3.112 -1.0602 -1.3777  0.6958
14517TIP3    H265043   0.682   7.194   3.006  1.4783  0.4042  0.4112
14518TIP3   OH265044   5.016   1.593   2.320  0.7314  0.3851 -0.3509
14518TIP3    H165045   4.997   1.524   2.257 -0.4904 -0.2709  0.6846
14518TIP3    H265046   5.024   1.672   2.266 -1.3830  0.0468 -1.2750
14519TIP3   OH265047   4.614   2.099   0.112 -0.2460  0.4872  0.5979
14519TIP3    H165048   4.709   2.109   0.105 -0.4407  2.0071 -0.4994
14519TIP3    H265049   4.598   2.081   0.204  0.9443  2.6806  1.3112
14520TIP3   OH265050   0.214   2.302   1.957  0.0865  0.3225 -0.4440
14520TIP3    H165051   0.251   2.214   1.963  2.9207  1.2886 -1.7293
14520TIP3    H265052   0.270   2.355   2.014 -0.2661  1.6389 -1.2772
14521TIP3   OH265053   2.508   1.336   3.743 -1.0443 -0.5772  0.1930
14521TIP3    H165054   2.585   1.320   3.689 -0.0775  1.8972  0.7040
14521TIP3    H265055   2.448   1.265   3.721 -0.0488 -0.6005 -2.8891
14522TIP3   OH265056   4.291   0.657   4.702 -0.1791  0.4461 -0.0710
14522TIP3    H165057   4.340   0.714   4.643  1.2062 -0.2708  0.3485
14522TIP3    H265058   4.339   0.574   4.701  0.0022  0.4627  2.1807
14523TIP3   OH265059   2.035   6.517   0.672 -0.0582 -0.2689 -0.3727
14523TIP3    H165060   1.982   6.522   0.593  1.0259 -1.3488 -1.2001
14523TIP3    H265061   1.973   6.489   0.740 -0.8440 -0.0610 -0.9827
14524TIP3   OH265062   0.245   3.395   0.943  0.7751 -0.1355 -0.5161
14524TIP3    H165063   0.243   3.478   0.896 -1.1685 -0.2710 -0.7712
14524TIP3    H265064   0.287   3.415   1.027  2.2116  0.6116 -1.3836
14525TIP3   OH265065   7.023   3.712   1.280  0.0104 -0.7500 -0.7755
14525TIP3    H165066   7.096   3.717   1.342 -0.4403 -1.5584 -0.1637
14525TIP3    H265067   7.056   3.754   1.201  0.6858  0.0810 -0.0719
14526TIP3   OH265068   0.286   3.571   3.602  0.1303 -0.1710  0.2804
14526TIP3    H165069   0.335   3.533   3.528  1.2161 -1.0151  1.3794
14526TIP3    H265070   0.303   3.665   3.597  1.2012 -0.3531  0.1256
14527TIP3   OH265071   7.167   1.799  14.340 -0.1199 -0.2499  0.6700
14527TIP3    H165072   7.158   1.881  14.291  0.6095 -0.6455 -0.1688
14527TIP3    H265073   7.085   1.753  14.324  0.8316 -1.2569 -1.9526
14528TIP3   OH265074   6.899   0.719  12.237 -0.1656 -0.4561  0.4373
14528TIP3    H165075   6.867   0.650  12.179  1.4935 -0.7890 -0.1353
14528TIP3    H265076   6.990   0.731  12.211 -0.0536  1.0332  1.4268
14529TIP3   OH265077   2.346   0.556   4.352  0.3781  0.5190 -0.0739
14529TIP3    H165078   2.326   0.473   4.396  1.4196 -0.0843 -0.6893
14529TIP3    H265079   2.441   0.566   4.361  0.0402  2.8146  1.9582
14530TIP3   OH265080   2.235   0.941   1.316 -0.9480 -0.1436  0.0490
14530TIP3    H165081   2.310   0.909   1.266  0.7551  1.9220  1.1328
14530TIP3    H265082   2.238   0.891   1.398 -1.6313 -1.0251 -0.4389
14531TIP3   OH265083   6.476   3.289  12.382  0.0245  0.0422  0.1604
14531TIP3    H165084   6.570   3.276  12.394  0.3385  0.7253 -1.3471
14531TIP3    H265085   6.466   3.306  12.289 -1.5830  0.1460  0.3308
14532TIP3   OH265086   0.564   5.064   3.051  0.0316  0.3154  0.1842
14532TIP3    H165087   0.585   5.153   3.079 -0.0881  0.6098 -0.6253
14532TIP3    H265088   0.522   5.075   2.965 -0.7891 -0.4605  0.4695
14533TIP3   OH265089   2.869   2.026   6.326 -0.5630 -0.0125  0.5616
14533TIP3    H165090   2.953   1.989   6.297 -0.8501  0.7485 -1.3875
14533TIP3    H265091   2.854   1.986   6.412 -0.0178 -3.1235 -0.6221
14534TIP3   OH265092   5.681   0.921   4.743  0.3422  0.0034 -0.0720
14534TIP3    H165093   5.751   0.986   4.754  2.5028 -1.8050 -1.9221
14534TIP3    H265094   5.725   0.837   4.757 -1.8499 -1.1795  0.1372
14535TIP3   OH265095   2.187   2.283   5.133 -0.2327 -0.0961 -0.4547
14535TIP3    H165096   2.160   2.192   5.121  1.1417 -0.4017 -1.5246
14535TIP3    H265097   2.175   2.323   5.046 -2.2434  1.1844  0.3424
14536TIP3   OH265098   2.336   6.534   2.030 -0.1035  0.1253 -0.1620
14536TIP3    H165099   2.348   6.448   2.071  0.1558 -0.1597 -0.8306
14536TIP3    H265100   2.372   6.595   2.093  0.9622 -0.3738 -0.2690
14537TIP3   OH265101   1.545   0.720   2.787 -0.0871 -0.0748  0.0743
14537TIP3    H165102   1.600   0.642   2.785  0.3433  0.2310 -0.1649
14537TIP3    H265103   1.544   0.746   2.879 -0.8125 -0.7611  0.2737
14538TIP3   OH265104   4.037   0.979   5.193  0.0036  0.3929  0.4216
14538TIP3    H165105   3.953   1.002   5.155 -1.2623 -4.8898 -0.6961
14538TIP3    H265106   4.017   0.948   5.281  1.0130  0.4389  0.6865
14539TIP3   OH265107   3.598   2.030   2.825 -0.2290  0.3050 -0.5729
14539TIP3    H165108   3.630   1.992   2.743 -2.0731  0.9428 -1.6681
14539TIP3    H265109   3.626   1.968   2.892  1.8197  0.0414 -1.5815
14540TIP3   OH265110   5.324   2.655   1.539 -0.0179 -0.4165  0.2448
14540TIP3    H165111   5.271   2.693   1.609 -1.1943  1.3757 -1.4939
14540TIP3    H265112   5.271   2.665   1.460  2.2066 -0.0649 -1.3302
14541TIP3   OH265113   6.132   1.840   5.272  0.1076  0.1306  0.2114
14541TIP3    H165114   6.100   1.906   5.210  1.3688  1.4005  0.8407
14541TIP3    H265115   6.136   1.887   5.356  2.1588 -0.3520  0.4489
14542TIP3   OH265116   0.840   5.460   4.430  0.5202  0.1976 -0.8874
14542TIP3    H165117   0.935   5.464   4.435  0.6207 -1.9313  0.1143
14542TIP3    H265118   0.812   5.453   4.521 -0.8505  3.6478 -0.9249
14543TIP3   OH265119   4.546   0.770   4.314  0.3973 -0.3826  0.6667
14543TIP3    H165120   4.479   0.788   4.380  0.5217  0.9917  0.4518
14543TIP3    H265121   4.593   0.852   4.305  0.1585 -0.4214 -1.3904
14544TIP3   OH265122   4.445   6.518   2.773  0.5243  0.2757 -0.2293
14544TIP3    H165123   4.389   6.443   2.755  1.4442 -0.4958  0.0691
14544TIP3    H265124   4.476   6.505   2.863 -0.0253  1.4843  0.1611
14545TIP3   OH265125   1.750   6.388  14.761  0.2810 -0.3110 -0.1835
14545TIP3    H165126   1.766   6.435  14.679  0.4427  0.9997  0.5642
14545TIP3    H265127   1.836   6.381  14.802  0.0795 -0.1720  0.2691
14546TIP3   OH265128   4.930   2.867  11.365 -0.2037 -0.3866  0.4570
14546TIP3    H165129   4.958   2.951  11.402 -2.5326  0.5189  0.3273
14546TIP3    H265130   4.892   2.889  11.281 -1.1644 -1.5160  0.5647
14547TIP3   OH265131   0.888   2.169   3.631  0.0163  0.0564 -0.2061
14547TIP3    H165132   0.984   2.171   3.623  0.0086  1.0922 -0.1422
14547TIP3    H265133   0.859   2.127   3.550  0.5383 -0.5861 -0.0698
14548TIP3   OH265134   0.539   0.664   3.815  0.2378 -0.4798 -0.2169
14548TIP3    H165135   0.613   0.631   3.763  0.7085  0.1832  0.0274
14548TIP3    H265136   0.553   0.758   3.820 -0.2648 -0.4342  0.4061
14549TIP3   OH265137   4.625   6.151   4.604  0.1394  0.2440  0.4392
14549TIP3    H165138   4.620   6.076   4.544  0.5106 -0.4306  1.2223
14549TIP3    H265139   4.707   6.137   4.652 -0.6713  0.1619  1.8535
14550TIP3   OH265140   4.314   5.446   0.990 -0.4258  0.3983  0.2353
14550TIP3    H165141   4.260   5.512   0.948 -0.1483  0.4450 -0.0466
14550TIP3    H265142   4.340   5.386   0.920  0.9133  1.0683  0.1224
14551TIP3   OH265143   4.884   3.022   2.784  0.5891  0.2907 -0.2481
14551TIP3    H165144   4.912   3.107   2.820 -1.3357  1.3115 -0.9801
14551TIP3    H265145   4.829   3.046   2.709  0.3001 -1.6385 -0.6862
14552TIP3   OH265146   7.209   0.647   1.234  0.0453  0.1348 -0.3198
14552TIP3    H165147   7.211   0.743   1.239 -0.6345  0.1177  0.4948
14552TIP3    H265148   7.164   0.620   1.314 -1.0114 -0.7996 -1.1936
14553TIP3   OH265149   3.726   2.440   4.036  0.2115  0.3366  0.3571
14553TIP3    H165150   3.724   2.482   4.122  0.1854 -0.6234  0.8343
14553TIP3    H265151   3.750   2.349   4.054 -0.9574 -0.1772 -0.5242
14554TIP3   OH265152   2.355   0.004   1.172  0.0155  0.2423  0.0162
14554TIP3    H165153   2.430  -0.009   1.230  0.0694  1.9727  0.3941
14554TIP3    H265154   2.373   0.087   1.127 -2.8183  2.1764  2.0849
14555TIP3   OH265155   5.911   6.034   3.901  0.3505 -0.1565  0.4774
14555TIP3    H165156   5.987   6.042   3.844 -0.2225 -1.2079 -0.4722
14555TIP3    H265157   5.853   6.105   3.873  0.6580  0.1921  0.7082
14556TIP3   OH265158   0.153   5.706   4.915 -0.2881  0.5559  0.3161
14556TIP3    H165159   0.237   5.747   4.897  1.1647 -2.2054  0.4204
14556TIP3    H265160   0.147   5.703   5.011  0.1979 -0.5735  0.3171
14557TIP3   OH265161   1.900   0.578   0.753 -0.0219  0.3235 -0.0552
14557TIP3    H165162   1.835   0.574   0.823 -1.0045  0.7931 -0.9069
14557TIP3    H265163   1.855   0.543   0.676  0.8396  0.3535 -0.5921
14558TIP3   OH265164   0.617   3.348  13.982  0.0752  0.0559  0.1443
14558TIP3    H165165   0.661   3.433  13.993 -0.1762  0.1322  0.6227
14558TIP3    H265166   0.533   3.369  13.942 -0.4054  0.1593  1.1583
14559TIP3   OH265167   3.689   4.483   4.463  0.0645  0.2967  0.4381
14559TIP3    H165168   3.784   4.476   4.459  0.1345  1.2849  0.0225
14559TIP3    H265169   3.660   4.398   4.497  1.0741 -0.0757  0.4082
14560TIP3   OH265170   4.544   4.630   4.049 -0.2506 -0.0495  0.7230
14560TIP3    H165171   4.552   4.691   4.122  2.8198  1.4193 -0.6712
14560TIP3    H265172   4.560   4.544   4.088 -1.2310  0.3560  2.1320
14561TIP3   OH265173   0.022   3.458   1.292 -0.5242 -0.4421 -0.2405
14561TIP3    H165174  -0.041   3.420   1.231  0.8199  1.8486 -3.3350
14561TIP3    H265175   0.035   3.547   1.260  0.3824  0.9258  3.4486
14562TIP3   OH265176   7.039   6.110   3.111 -0.6221 -0.2195  0.4261
14562TIP3    H165177   6.980   6.181   3.136 -0.3269  0.4176 -0.6282
14562TIP3    H265178   7.006   6.080   3.026  0.0281 -0.4682  0.2524
14563TIP3   OH265179   3.802   7.191   2.345  0.1787 -0.0031 -0.2521
14563TIP3    H165180   3.742   7.117   2.336  1.4474 -1.1564  0.4601
14563TIP3    H265181   3.822   7.217   2.255  1.6873 -2.1970 -0.6283
14564TIP3   OH265182   0.444   4.759  12.314 -0.3256 -0.5102  0.0633
14564TIP3    H165183   0.418   4.851  12.312 -0.7256 -0.6339 -1.8209
14564TIP3    H265184   0.362   4.710  12.312 -0.0962 -0.9169  0.3811
14565TIP3   OH265185   2.682   1.117  13.196 -0.0638  0.0748  0.0514
14565TIP3    H165186   2.587   1.121  13.210 -0.0850  2.2410 -0.2762
14565TIP3    H265187   2.719   1.108  13.283 -0.5361  1.5439  0.4357
14566TIP3   OH265188   4.424   0.490   4.498  0.0796 -0.2883  0.3598
14566TIP3    H165189   4.461   0.515   4.413 -0.4523 -1.7634 -0.3456
14566TIP3    H265190   4.488   0.429   4.535  1.5988  2.2976  2.2769
14567TIP3   OH265191   6.854   4.373  11.898  0.0255 -0.2962 -0.0514
14567TIP3    H165192   6.835   4.285  11.931  2.3191 -0.1257  2.0133
14567TIP3    H265193   6.787   4.428  11.938 -1.9394 -1.0783 -1.9933
14568TIP3   OH265194   1.983   6.567   4.869  0.2827 -0.0177 -0.1400
14568TIP3    H165195   2.052   6.629   4.892 -0.2769  0.8369 -0.6952
14568TIP3    H265196   2.024   6.507   4.807  0.3511  0.9556 -1.0834
14569TIP3   OH265197   1.374   0.643   3.146  0.0639 -0.2350  0.4887
14569TIP3    H165198   1.450   0.587   3.127 -0.9815 -1.3749 -0.4944
14569TIP3    H265199   1.385   0.719   3.089 -0.7443 -1.5359 -1.4862
14570TIP3   OH265200   7.018   0.389   2.718 -0.1634 -0.5486  0.0043
14570TIP3    H165201   6.928   0.421   2.718 -0.6877 -1.9366 -0.4036
14570TIP3    H265202   7.057   0.428   2.796 -0.5975  1.3896 -0.6863
14571TIP3   OH265203   4.406   1.824   3.190 -0.1675  0.5378  0.5080
14571TIP3    H165204   4.373   1.735   3.199  0.4529  0.1315 -1.0153
14571TIP3    H265205   4.338   1.870   3.140  0.4661  0.3382 -0.5521
14572TIP3   OH265206   3.223   3.524   2.234 -0.7289  0.0908  0.2845
14572TIP3    H165207   3.262   3.563   2.155  0.8111 -1.9021 -0.0155
14572TIP3    H265208   3.294   3.527   2.299 -0.7502 -1.6721  0.4134
14573TIP3   OH265209   3.557   0.295  11.358 -0.8328  0.2087 -0.1835
14573TIP3    H165210   3.582   0.238  11.285 -1.0457  0.4462 -0.4455
14573TIP3    H265211   3.629   0.287  11.420  1.4344  3.0803 -2.1358
14574TIP3   OH265212   6.976   3.779   0.700  0.5432  0.1715  0.5458
14574TIP3    H165213   6.972   3.720   0.625 -1.2533  0.0398  0.7031
14574TIP3    H265214   6.887   3.778   0.736  1.1433  0.9264  2.1399
14575TIP3   OH265215   4.058   2.909  13.744 -0.3818 -0.1620 -0.4066
14575TIP3    H165216   4.022   2.832  13.701 -1.8407  0.1133  0.2646
14575TIP3    H265217   4.121   2.945  13.680  1.0570 -2.4056 -0.3383
14576TIP3   OH265218   1.702   6.916  13.974  0.0631  0.2479 -0.0936
14576TIP3    H165219   1.646   6.974  14.025  2.2610  3.1846 -0.7120
14576TIP3    H265220   1.698   6.832  14.019 -1.1725  1.6086  2.5657
14577TIP3   OH265221   3.052   4.237   1.530  0.5987 -0.1113  0.0473
14577TIP3    H165222   3.001   4.294   1.587  0.6185  0.6704 -0.6891
14577TIP3    H265223   3.112   4.190   1.588  2.5494  2.6465  0.4376
14578TIP3   OH265224   3.331   7.241   4.915  0.2134 -0.1683 -0.2543
14578TIP3    H165225   3.391   7.258   4.843 -0.1234  2.1591 -0.0614
14578TIP3    H265226   3.320   7.326   4.958 -1.2853 -1.0447  1.2259
14579TIP3   OH265227   4.724   7.047   2.334 -0.3043  0.1167  0.0476
14579TIP3    H165228   4.763   7.036   2.420  1.5927  1.6431 -0.5604
14579TIP3    H265229   4.674   7.128   2.340  0.0096  0.3402 -0.3477
14580TIP3   OH265230   0.241   4.012   2.936  0.1881 -0.2953  0.0237
14580TIP3    H165231   0.284   4.053   2.861  1.9063  1.3417  1.8133
14580TIP3    H265232   0.313   3.987   2.994 -1.0687 -2.0921  0.9110
14581TIP3   OH265233   0.854   5.152   3.016 -0.2081 -0.1894 -0.1663
14581TIP3    H165234   0.815   5.181   2.933  0.3575  1.5845  0.1418
14581TIP3    H265235   0.780   5.152   3.077 -0.1753  1.0105 -0.0980
14582TIP3   OH265236   2.763   2.438  13.620  0.1154 -0.5942  0.1821
14582TIP3    H165237   2.716   2.407  13.698 -1.5708  2.8711  0.7520
14582TIP3    H265238   2.807   2.518  13.649 -0.7287  0.9209 -2.3910
14583TIP3   OH265239   6.740   1.188   0.133 -0.0507  0.0768  0.1751
14583TIP3    H165240   6.775   1.134   0.062 -0.0247  0.7379 -0.3298
14583TIP3    H265241   6.646   1.168   0.134  0.2330 -1.3134  1.1922
14584TIP3   OH265242   5.349   2.370   5.104  0.1796  0.4974 -0.0463
14584TIP3    H165243   5.352   2.274   5.099 -2.0513  0.3371  0.6178
14584TIP3    H265244   5.348   2.389   5.197  1.3539  1.2568 -0.1599
14585TIP3   OH265245   6.698   1.176   4.910  0.0922 -0.0565 -0.4466
14585TIP3    H165246   6.616   1.220   4.886  0.4284  0.3003 -0.9646
14585TIP3    H265247   6.696   1.093   4.863 -1.1942 -1.2799  1.6211
14586TIP3   OH265248   5.118   2.114   4.561 -0.8828 -0.3865  0.6172
14586TIP3    H165249   5.036   2.163   4.566  0.2457  1.6685  0.3785
14586TIP3    H265250   5.184   2.175   4.595  0.9416 -0.9459 -1.6390
14587TIP3   OH265251   2.106   5.356   2.180 -0.3837 -0.0693  0.3938
14587TIP3    H165252   2.063   5.281   2.222  0.9238 -0.2897  1.3826
14587TIP3    H265253   2.049   5.431   2.202 -1.0632 -0.5741  0.4021
14588TIP3   OH265254   3.414   1.391   4.700  0.1680 -0.2832 -0.5910
14588TIP3    H165255   3.452   1.391   4.788  2.0479 -0.7240 -1.3573
14588TIP3    H265256   3.415   1.298   4.674 -1.2967 -0.2832 -0.7162
14589TIP3   OH265257   6.417   3.192   3.353  0.0198 -0.3499  0.0192
14589TIP3    H165258   6.486   3.231   3.300 -0.9124 -0.1551 -1.1009
14589TIP3    H265259   6.365   3.140   3.291 -1.7796  0.7957  0.4685
14590TIP3   OH265260   1.697   0.563   0.943  0.3311 -0.1390 -0.0134
14590TIP3    H165261   1.664   0.479   0.973 -0.7117  0.2150 -0.1235
14590TIP3    H265262   1.771   0.582   1.001 -0.6516 -0.2175  1.3076
14591TIP3   OH265263   7.064   0.516   4.577  0.3224  0.0804 -0.0049
14591TIP3    H165264   7.030   0.555   4.657  0.6142 -0.8884  0.6049
14591TIP3    H265265   7.125   0.581   4.542 -1.1236  1.2686 -0.4087
14592TIP3   OH265266   6.936   5.354   3.127 -0.0478  0.5154  0.7404
14592TIP3    H165267   6.940   5.440   3.169 -1.3813 -0.1688  2.3556
14592TIP3    H265268   6.952   5.292   3.198  0.3498 -0.6120 -0.3033
14593TIP3   OH265269   2.650   1.386  13.180 -0.5355  0.1414  0.4329
14593TIP3    H165270   2.713   1.377  13.251  0.6768  0.5417 -0.5687
14593TIP3    H265271   2.642   1.298  13.143 -0.5049  0.1132  0.4935
14594TIP3   OH265272   4.702   4.838   4.674  0.6444 -0.1285 -0.2419
14594TIP3    H165273   4.748   4.806   4.596  2.0001 -0.0484  0.5028
14594TIP3    H265274   4.718   4.771   4.740 -0.2845 -0.0681  0.0680
14595TIP3   OH265275   4.475   4.579  13.589  0.0565 -0.3624 -0.1093
14595TIP3    H165276   4.568   4.588  13.608 -0.0889 -1.2599  1.1487
14595TIP3    H265277   4.464   4.486  13.568 -0.7630 -0.5845  1.1690
14596TIP3   OH265278   5.819   3.325  14.450 -0.0873 -0.2876  0.3914
14596TIP3    H165279   5.818   3.305  14.543  0.0160  0.1467  0.4885
14596TIP3    H265280   5.726   3.321  14.424 -0.1777  0.1501  0.6379
14597TIP3   OH265281   0.119   5.905   1.016 -0.5083  0.2126  0.7547
14597TIP3    H165282   0.083   5.882   0.931 -1.0060  0.1215  0.9875
14597TIP3    H265283   0.066   5.856   1.079  0.8564 -0.9785  1.0425
14598TIP3   OH265284   4.668   3.603  15.047 -0.2721  0.7170  0.1020
14598TIP3    H165285   4.632   3.676  14.998 -1.1817 -0.7413 -1.5436
14598TIP3    H265286   4.665   3.529  14.986  2.0479 -0.3632  1.1599
14599TIP3   OH265287   5.750   2.864   3.899  0.5181  0.1623  0.2291
14599TIP3    H165288   5.706   2.782   3.873 -0.8147  0.9372 -0.0497
14599TIP3    H265289   5.743   2.865   3.994  0.2417  0.1042  0.2123
14600TIP3   OH265290   2.258   1.671   4.161  0.1989  0.4998  0.0994
14600TIP3    H165291   2.201   1.748   4.161 -1.8511 -0.9020 -1.0953
14600TIP3    H265292   2.237   1.627   4.079  2.1586 -0.7462  0.2184
14601TIP3   OH265293   5.356   2.282  10.458 -0.2177  0.1063  0.4461
14601TIP3    H165294   5.329   2.235  10.379 -0.0681 -0.0817  0.5045
14601TIP3    H265295   5.329   2.373  10.442  0.2043  0.1573 -0.0130
14602TIP3   OH265296   1.440   0.618   3.511 -0.0445 -0.5136  0.5703
14602TIP3    H165297   1.384   0.624   3.434 -2.0289  1.3732  2.0154
14602TIP3    H265298   1.435   0.526   3.537  1.0688 -1.2955 -1.7560
14603TIP3   OH265299   2.277   3.360   0.653  0.1507 -0.0604 -0.1714
14603TIP3    H165300   2.252   3.418   0.581 -0.6809  0.7723  0.7712
14603TIP3    H265301   2.202   3.302   0.663  0.5647 -0.6568 -0.4337
14604TIP3   OH265302   5.905   2.209   4.799  0.2180 -0.2327  0.6762
14604TIP3    H165303   5.957   2.228   4.877 -0.2959  1.6495  0.6076
14604TIP3    H265304   5.815   2.205   4.830 -0.0803  1.3509  0.0989
14605TIP3   OH265305   0.723   0.238   2.483  0.0123 -0.3279  0.0726
14605TIP3    H165306   0.720   0.145   2.505  0.0175 -0.4133 -0.2753
14605TIP3    H265307   0.754   0.281   2.562  2.1359 -0.8544 -0.4125
14606TIP3   OH265308   0.998   6.077  11.325 -0.3141 -1.1060  0.4352
14606TIP3    H165309   1.044   6.158  11.301 -1.0160 -0.2504  1.8137
14606TIP3    H265310   1.049   6.007  11.284 -0.5817  0.0967 -2.1797
14607TIP3   OH265311   4.348   5.613   1.622  0.1263 -0.0713 -0.3898
14607TIP3    H165312   4.357   5.543   1.687 -1.7594 -0.4186 -0.4472
14607TIP3    H265313   4.275   5.666   1.654 -0.6771 -0.0913 -2.0785
14608TIP3   OH265314   6.756   0.440  14.708 -0.1920  0.1383 -0.1228
14608TIP3    H165315   6.802   0.361  14.681  1.2730  0.7239  0.5580
14608TIP3    H265316   6.768   0.501  14.634 -2.1215 -0.5300 -1.0612
14609TIP3   OH265317   5.807   0.205  14.487 -0.1158 -0.0589 -0.2535
14609TIP3    H165318   5.713   0.218  14.484  0.0158  0.8542 -0.7157
14609TIP3    H265319   5.833   0.191  14.396  0.1129 -1.0103 -0.0569
14610TIP3   OH265320   2.737   5.952  15.087  0.5063 -0.5877 -0.1176
14610TIP3    H165321   2.688   5.941  15.005  0.3872 -1.9188  0.1055
14610TIP3    H265322   2.715   6.040  15.116 -0.1220 -0.4011 -1.0883
14611TIP3   OH265323   1.924   0.050   2.570  0.2031 -0.3658 -0.0440
14611TIP3    H165324   1.987   0.051   2.642 -0.4409  3.7812  0.6844
14611TIP3    H265325   1.975   0.079   2.494 -0.0898 -0.4409 -0.2701
14612TIP3   OH265326   3.382   5.109   5.969 -0.3158  0.2517  0.2156
14612TIP3    H165327   3.468   5.069   5.955 -0.4741 -0.5970  1.5476
14612TIP3    H265328   3.399   5.204   5.965  0.4181  0.0987 -0.8825
14613TIP3   OH265329   5.775   3.500  15.231  0.7559  0.2463 -0.1739
14613TIP3    H165330   5.721   3.500  15.151  0.7814  2.3097 -0.2513
14613TIP3    H265331   5.854   3.451  15.206 -0.0158 -0.7125 -0.8251
14614TIP3   OH265332   6.006   6.168  11.927 -0.1380  0.3301  0.1521
14614TIP3    H165333   6.085   6.221  11.929 -0.3695  0.6962 -0.2970
14614TIP3    H265334   5.944   6.213  11.984 -0.7070  1.1539 -1.0799
14615TIP3   OH265335   5.860   2.465   3.623 -0.9124 -0.4627 -0.3410
14615TIP3    H165336   5.844   2.501   3.536 -0.4349  0.2352 -0.1465
14615TIP3    H265337   5.908   2.383   3.606 -0.0943  0.0776 -0.7173
14616TIP3   OH265338   5.250   5.123   3.294  0.0177  0.2172 -0.3555
14616TIP3    H165339   5.298   5.180   3.234 -1.8749 -0.1121 -2.2901
14616TIP3    H265340   5.170   5.172   3.314 -0.0214 -0.2945  0.8073
14617TIP3   OH265341   6.325   2.909   0.839 -0.4231  0.5892  0.4262
14617TIP3    H165342   6.345   2.905   0.933 -3.0871  0.7654  1.0707
14617TIP3    H265343   6.290   2.822   0.819 -0.1638  0.6579 -0.3295
14618TIP3   OH265344   3.007   5.760   3.848 -0.1701  0.1739  0.1050
14618TIP3    H165345   3.049   5.837   3.810 -0.8168  0.2363 -0.5109
14618TIP3    H265346   2.969   5.714   3.773 -0.9753 -0.0078  0.6096
14619TIP3   OH265347   2.599   1.828  14.716 -0.2937  0.2460  0.0607
14619TIP3    H165348   2.590   1.732  14.715 -0.1720  0.2221 -1.2548
14619TIP3    H265349   2.579   1.853  14.806  3.5725 -1.3334  1.5724
14620TIP3   OH265350   6.144   3.586   3.557  0.0332 -0.0866  0.0425
14620TIP3    H165351   6.101   3.592   3.642 -0.7693  0.2160 -0.3699
14620TIP3    H265352   6.107   3.659   3.507  0.8640  0.0358 -0.4040
14621TIP3   OH265353   4.445   3.163   2.908 -0.3361 -0.5657  1.0361
14621TIP3    H165354   4.469   3.220   2.835 -1.8945 -0.6282  0.4496
14621TIP3    H265355   4.443   3.221   2.984 -1.1887  0.0355  0.5713
14622TIP3   OH265356   3.406   5.615   4.789  0.2612 -0.4127 -0.1639
14622TIP3    H165357   3.373   5.660   4.868  0.3885 -0.5489 -0.0327
14622TIP3    H265358   3.472   5.554   4.822 -1.4146 -2.2909 -0.0594
14623TIP3   OH265359   4.581   1.845   5.407  0.3018  0.3531  0.0337
14623TIP3    H165360   4.500   1.822   5.362 -0.6373  2.7801  0.3179
14623TIP3    H265361   4.555   1.863   5.497  1.2406  0.6463  0.2600
14624TIP3   OH265362   0.602   0.303   4.283  0.1278 -0.2666 -0.1285
14624TIP3    H165363   0.578   0.216   4.253  1.4535 -1.2420  1.4316
14624TIP3    H265364   0.574   0.362   4.213  1.1778 -2.1515 -2.2537
14625TIP3   OH265365   1.337   0.262  13.327  0.0500 -0.1524  0.1055
14625TIP3    H165366   1.289   0.301  13.400  1.8963 -3.0300  3.1839
14625TIP3    H265367   1.425   0.300  13.334 -0.0730  0.4986 -1.5249
14626TIP3   OH265368   5.324   0.685   3.881  0.2033 -0.6424 -0.4778
14626TIP3    H165369   5.418   0.699   3.888 -0.3247  2.8275  4.2310
14626TIP3    H265370   5.309   0.599   3.920  1.3734 -1.1524 -1.1252
14627TIP3   OH265371   3.596   1.942   5.437 -0.5912 -0.9207 -0.5184
14627TIP3    H165372   3.649   1.950   5.515  2.1592  1.7980 -2.4513
14627TIP3    H265373   3.507   1.927   5.470  0.5442 -0.8130  3.0152
14628TIP3   OH265374   2.939   2.922   3.835 -0.4073 -0.7437 -0.4275
14628TIP3    H165375   2.954   2.846   3.778 -2.3732 -1.1354 -0.5043
14628TIP3    H265376   2.873   2.891   3.898 -1.3699  0.9365 -0.5563
14629TIP3   OH265377   1.854   1.446   4.810  0.3530 -0.2089  0.2083
14629TIP3    H165378   1.816   1.459   4.897  1.0809 -1.6142  0.7750
14629TIP3    H265379   1.869   1.351   4.805  0.4664 -0.1324 -1.3953
14630TIP3   OH265380   1.977   1.284   2.382 -0.1527  0.3316  0.1528
14630TIP3    H165381   1.983   1.189   2.370 -0.1402  0.4834 -1.1505
14630TIP3    H265382   2.065   1.317   2.362  0.3262  0.4783  2.2931
14631TIP3   OH265383   5.354   2.150   2.474  0.4452 -0.8086 -0.1629
14631TIP3    H165384   5.393   2.063   2.462  2.9132  0.2664 -0.5606
14631TIP3    H265385   5.333   2.154   2.567  0.0837 -1.9161 -0.1826
14632TIP3   OH265386   1.498   0.009   5.047  0.6418  0.2403  0.4356
14632TIP3    H165387   1.511  -0.062   4.984  0.8779  0.3761  0.3303
14632TIP3    H265388   1.415  -0.011   5.090 -1.1396  1.7389 -2.0428
14633TIP3   OH265389   2.632   5.988   1.074  0.4773 -0.0840 -0.6302
14633TIP3    H165390   2.720   6.005   1.110  0.2797  1.2852 -0.7421
14633TIP3    H265391   2.628   6.044   0.996 -2.0950  3.5625  1.7877
14634TIP3   OH265392   4.017   5.551  14.639  0.2389  0.1191 -0.1705
14634TIP3    H165393   3.977   5.584  14.719  0.4312  1.8915 -0.7701
14634TIP3    H265394   4.023   5.456  14.653 -2.1919  0.0379  0.7935
14635TIP3   OH265395   4.178   6.380   1.667  0.4435  0.1380 -0.2426
14635TIP3    H165396   4.158   6.404   1.758 -0.6212 -0.9379 -0.1753
14635TIP3    H265397   4.114   6.427   1.615  1.4767  1.2947 -0.5318
14636TIP3   OH265398   2.611   3.041   1.211  0.1457 -0.3165 -0.3035
14636TIP3    H165399   2.555   2.965   1.196  0.4582 -0.2938 -1.7806
14636TIP3    H265400   2.601   3.094   1.132 -1.3754  2.0624  1.3684
14637TIP3   OH265401   0.071   3.291   3.961 -0.0349 -0.0239 -0.4459
14637TIP3    H165402   0.069   3.366   4.020 -1.0688  0.4112 -1.0098
14637TIP3    H265403   0.160   3.256   3.969 -0.1391  0.0311  1.3444
14638TIP3   OH265404   6.996   5.211   5.290 -0.4111  0.5653 -0.6544
14638TIP3    H165405   6.925   5.164   5.334  0.2210 -0.6740 -0.9289
14638TIP3    H265406   7.060   5.227   5.359  2.0379 -4.0884 -1.4205
14639TIP3   OH265407   5.797   4.745   4.931 -0.6214  0.2336  0.6198
14639TIP3    H165408   5.821   4.725   4.841 -1.4776  0.2173  0.3830
14639TIP3    H265409   5.822   4.667   4.981  0.5911  0.5582  0.5407
14640TIP3   OH265410   3.093   4.440   2.682  0.3045 -0.7054 -0.2024
14640TIP3    H165411   3.055   4.400   2.604 -1.3155 -0.5914  0.4684
14640TIP3    H265412   3.053   4.392   2.755  0.4317  0.3282  0.5777
14641TIP3   OH265413   3.096   6.217   0.707  0.1295 -0.1648 -0.3082
14641TIP3    H165414   3.033   6.288   0.705 -0.0844 -0.3432 -0.0099
14641TIP3    H265415   3.066   6.155   0.640  2.3865  1.7297 -3.3463
14642TIP3   OH265416   4.601   2.315  14.300  0.1712  0.0071  0.0131
14642TIP3    H165417   4.620   2.375  14.372  1.9826 -1.4946  0.8758
14642TIP3    H265418   4.519   2.273  14.325 -0.6778  1.4780 -0.1996
14643TIP3   OH265419   0.376   4.336  12.784  0.4554  0.1533 -0.3525
14643TIP3    H165420   0.385   4.337  12.879  1.1481 -0.4746 -0.4039
14643TIP3    H265421   0.351   4.426  12.762  2.5342  0.9424  0.2139
14644TIP3   OH265422   0.809   2.787   1.029  0.3691 -0.5751 -0.2136
14644TIP3    H165423   0.722   2.762   1.060 -1.4374  3.0573 -1.6861
14644TIP3    H265424   0.844   2.844   1.098 -0.1376  0.9414 -1.1429
14645TIP3   OH265425   4.676   1.955   1.092 -0.4707 -0.5039 -0.1319
14645TIP3    H165426   4.745   1.894   1.121 -0.3194  0.6964  2.2543
14645TIP3    H265427   4.618   1.963   1.168 -2.0112  0.2570 -1.3416
14646TIP3   OH265428   1.006   2.734   3.898 -0.2248  0.3556  0.5253
14646TIP3    H165429   1.048   2.783   3.828  0.3560 -1.8746 -0.7837
14646TIP3    H265430   1.078   2.708   3.956 -0.0691 -1.2588 -0.3210
14647TIP3   OH265431   7.107   5.755   4.555  0.2560 -0.5906  0.1997
14647TIP3    H165432   7.173   5.722   4.494  0.6779  1.0923 -0.3135
14647TIP3    H265433   7.034   5.783   4.499  1.7219  3.5811 -0.0101
14648TIP3   OH265434   4.567   6.660   0.139  0.3466 -0.1935 -0.2396
14648TIP3    H165435   4.624   6.722   0.184 -0.5359  0.0496  0.5814
14648TIP3    H265436   4.499   6.715   0.099 -1.7884 -0.6644  2.4214
14649TIP3   OH265437   6.476   2.976   4.221  0.1185  0.1320 -0.1263
14649TIP3    H165438   6.397   3.020   4.255 -0.7067 -0.6444 -0.9647
14649TIP3    H265439   6.483   3.007   4.131 -0.4460 -1.3549 -0.7169
14650TIP3   OH265440   1.811   1.937   1.221  0.0403 -0.1321 -0.2897
14650TIP3    H165441   1.845   2.026   1.210 -0.9973  0.3051 -0.0638
14650TIP3    H265442   1.828   1.894   1.137 -2.6137  1.3857 -1.7297
14651TIP3   OH265443   5.346   1.047   5.933 -0.3208  0.0791 -0.2313
14651TIP3    H165444   5.371   1.133   5.968  1.9850 -1.5903  2.6525
14651TIP3    H265445   5.422   1.018   5.883 -0.4302 -0.9582  0.1868
14652TIP3   OH265446   3.624   6.000   2.853  0.3612 -0.3332  0.1156
14652TIP3    H165447   3.601   5.980   2.762  0.1847  0.8859 -0.1226
14652TIP3    H265448   3.691   5.935   2.875 -0.5977 -1.5539 -0.4088
14653TIP3   OH265449   1.816   0.481   0.503 -0.2063  0.3097 -0.5572
14653TIP3    H165450   1.844   0.573   0.505  2.0285 -0.3183  0.8948
14653TIP3    H265451   1.787   0.467   0.413 -1.1763  2.5589 -0.6651
14654TIP3   OH265452   2.398   4.799  12.913 -0.1776 -0.3268  0.2008
14654TIP3    H165453   2.473   4.847  12.876  0.4489 -0.0609  1.7489
14654TIP3    H265454   2.417   4.793  13.006 -3.0392  1.5028  1.0198
14655TIP3   OH265455   0.156   3.233   5.082  0.3043 -0.9319 -0.5166
14655TIP3    H165456   0.151   3.321   5.119 -0.0847 -0.8909 -0.6528
14655TIP3    H265457   0.189   3.178   5.153 -1.9983 -1.1673  0.4698
14656TIP3   OH265458   2.624   1.311   0.982  0.2412  0.6139 -0.9483
14656TIP3    H165459   2.548   1.257   1.005  0.2902  0.9483  0.0610
14656TIP3    H265460   2.674   1.318   1.064  0.2218  2.2028 -1.0485
14657TIP3   OH265461   2.752   1.181   5.712  0.4707 -0.3581  0.0562
14657TIP3    H165462   2.657   1.170   5.704  0.4830 -0.1314 -0.4564
14657TIP3    H265463   2.764   1.274   5.735  0.6243 -0.0027 -1.3461
14658TIP3   OH265464   5.039   5.411   5.596  0.2384 -0.4256 -0.0893
14658TIP3    H165465   5.112   5.416   5.534 -0.1067 -0.2455 -0.4871
14658TIP3    H265466   5.079   5.426   5.682  0.5550  0.4364 -0.3803
14659TIP3   OH265467   0.246   6.071   2.994 -0.3892  0.2304 -0.2460
14659TIP3    H165468   0.276   5.994   2.946 -0.6753 -0.6478  0.9343
14659TIP3    H265469   0.233   6.138   2.927 -2.3851 -1.4465 -1.6659
14660TIP3   OH265470   4.402   2.891   0.063  0.2763  0.1512  0.0088
14660TIP3    H165471   4.307   2.887   0.069  0.2171  1.8288  1.0531
14660TIP3    H265472   4.432   2.886   0.154  1.1223  0.3549 -0.2486
14661TIP3   OH265473   4.255   1.828   5.010 -0.3927  0.0048  0.5215
14661TIP3    H165474   4.326   1.865   4.956 -0.0545 -1.4178 -0.0750
14661TIP3    H265475   4.193   1.793   4.946 -0.6332 -0.5589  1.0600
14662TIP3   OH265476   1.632   4.782   1.977  0.2827  0.0941  0.7235
14662TIP3    H165477   1.637   4.779   2.072  2.2061 -0.8958  0.6356
14662TIP3    H265478   1.720   4.758   1.947 -0.1783  0.7072 -1.3021
14663TIP3   OH265479   2.946   1.542   0.667  0.0064  0.6385 -0.1444
14663TIP3    H165480   2.876   1.607   0.680  1.9428  2.3835  2.6620
14663TIP3    H265481   2.927   1.474   0.732 -0.0958  0.1021 -0.7211
14664TIP3   OH265482   3.901   6.167  12.784  0.4977  0.8083  0.2034
14664TIP3    H165483   3.805   6.161  12.793  0.4682  3.1673  4.1041
14664TIP3    H265484   3.935   6.102  12.845  1.1822  2.3471  1.5541
14665TIP3   OH265485   1.756   5.093  14.318  0.1501 -0.3293  0.3550
14665TIP3    H165486   1.805   5.095  14.236 -2.2500  2.7013 -1.2291
14665TIP3    H265487   1.800   5.157  14.374  0.4047 -0.6681  0.5465
14666TIP3   OH265488   5.676   4.913  13.207  0.3664 -0.5057 -0.7335
14666TIP3    H165489   5.750   4.924  13.147  0.8478 -0.5630 -0.1613
14666TIP3    H265490   5.716   4.889  13.290 -0.1958  0.9264 -0.0173
14667TIP3   OH265491   3.023   4.736  13.053 -0.6879 -0.6406 -0.1370
14667TIP3    H165492   2.976   4.660  13.089 -1.0841 -0.6557 -0.6717
14667TIP3    H265493   3.109   4.733  13.096 -1.4431 -0.1291  1.4824
14668TIP3   OH265494   4.896   1.320   3.838  0.2014  0.1642  0.1061
14668TIP3    H165495   4.828   1.259   3.869 -1.3517  1.6952 -0.1427
14668TIP3    H265496   4.893   1.311   3.742  1.8179 -1.2363  0.1426
14669TIP3   OH265497   5.823   3.867   4.796 -0.2636 -0.3444  0.2126
14669TIP3    H165498   5.795   3.776   4.788 -0.1288 -0.4048  0.4255
14669TIP3    H265499   5.742   3.915   4.815 -0.5326 -0.2501 -1.0514
14670TIP3   OH265500   5.188   2.740   0.636  0.1329  0.3814  0.3390
14670TIP3    H165501   5.275   2.713   0.606  0.9554 -0.1183  2.9005
14670TIP3    H265502   5.205   2.798   0.711 -1.7461  0.5592  0.6880
14671TIP3   OH265503   3.752   7.043   1.946  0.0949  0.5080  0.0368
14671TIP3    H165504   3.683   7.056   1.880 -1.4096  0.2813  1.4858
14671TIP3    H265505   3.823   7.101   1.919 -0.4202  0.3387 -1.8224
14672TIP3   OH265506   0.279   0.553   4.773  0.2989  0.2934 -0.0492
14672TIP3    H165507   0.246   0.583   4.688  1.3606  3.1780  0.4246
14672TIP3    H265508   0.351   0.494   4.752 -0.0027  0.2983 -1.1452
14673TIP3   OH265509   2.627   3.492  10.430 -0.1130 -0.3550  0.0758
14673TIP3    H165510   2.642   3.404  10.397 -0.6035  0.0097 -1.1946
14673TIP3    H265511   2.649   3.488  10.523 -0.0166 -1.7754  0.0024
14674TIP3   OH265512   6.959   5.956   2.247 -0.0125 -0.1185  0.6382
14674TIP3    H165513   6.934   5.939   2.157  0.8381  1.1790  0.1391
14674TIP3    H265514   7.021   5.886   2.268 -0.4165 -0.5799  0.3227
14675TIP3   OH265515   2.142   6.133  14.018 -0.3829 -0.1458  0.3482
14675TIP3    H165516   2.059   6.181  14.023  0.1790  0.9291 -0.1427
14675TIP3    H265517   2.156   6.120  13.925  0.6415  0.9021  0.3233
14676TIP3   OH265518   2.389   3.432   1.264  0.4353 -0.0710 -0.0248
14676TIP3    H165519   2.440   3.486   1.204 -0.9242  0.9806 -0.2666
14676TIP3    H265520   2.390   3.480   1.346 -1.6863  0.9488 -0.5285
14677TIP3   OH265521   0.669   0.112  10.778 -0.3228  0.5526 -0.5174
14677TIP3    H165522   0.745   0.121  10.836  0.1789  1.3055 -1.2646
14677TIP3    H265523   0.596   0.149  10.828 -0.2788 -0.4832  0.3364
14678TIP3   OH265524   2.620   1.191   5.398  0.1373  0.1124 -0.3179
14678TIP3    H165525   2.525   1.191   5.409  0.2104  2.3345  0.8002
14678TIP3    H265526   2.651   1.126   5.462 -0.5636  0.1379  0.0574
14679TIP3   OH265527   3.839   4.228   1.837 -0.0876  0.3138 -0.4777
14679TIP3    H165528   3.933   4.246   1.846 -0.0161 -0.0670 -0.4282
14679TIP3    H265529   3.834   4.133   1.828 -0.6444  0.0329  2.0312
14680TIP3   OH265530   2.229   7.074   3.860  0.0439  0.0331  0.2320
14680TIP3    H165531   2.255   7.017   3.933 -1.0103  0.1781  0.7508
14680TIP3    H265532   2.186   7.015   3.798 -1.4652  0.2945  0.9817
14681TIP3   OH265533   2.476   1.326  11.422  0.0936  0.1676  0.5123
14681TIP3    H165534   2.565   1.289  11.420  0.4477  0.8990  1.6355
14681TIP3    H265535   2.468   1.371  11.339  0.2463 -1.0626 -0.1991
14682TIP3   OH265536   4.927   5.979   5.130  0.5248  0.3133 -0.0478
14682TIP3    H165537   4.941   6.045   5.198 -1.8230  1.6887 -0.7692
14682TIP3    H265538   5.009   5.976   5.081  1.6751  0.5108  1.7865
14683TIP3   OH265539   4.825   0.996   0.307 -0.9268 -0.3198 -0.3689
14683TIP3    H165540   4.807   0.989   0.213 -0.7187 -3.1769 -0.2724
14683TIP3    H265541   4.845   0.907   0.334  2.5220  0.8842  1.7348
14684TIP3   OH265542   1.251   7.111   3.598 -0.2286  0.5003 -0.2422
14684TIP3    H165543   1.329   7.068   3.561  0.0376  2.8112 -2.6536
14684TIP3    H265544   1.183   7.097   3.532 -0.8137  1.6036  0.1116
14685TIP3   OH265545   5.638   5.739   0.224 -0.0798 -0.1513 -0.1039
14685TIP3    H165546   5.595   5.823   0.207 -0.6202 -0.7240 -1.7319
14685TIP3    H265547   5.602   5.711   0.309 -0.3609  0.9602  0.1567
14686TIP3   OH265548   3.114   1.824   4.120 -0.4855  0.0669  0.3134
14686TIP3    H165549   3.069   1.773   4.051  1.1199  1.7576 -2.1375
14686TIP3    H265550   3.160   1.758   4.172  0.7525 -1.1707 -2.1681
14687TIP3   OH265551   5.465   3.832   1.162  0.1786 -0.4547  0.1444
14687TIP3    H165552   5.542   3.776   1.154  1.4121  0.8856  1.8487
14687TIP3    H265553   5.455   3.873   1.076  2.4148  0.5765  0.3152
14688TIP3   OH265554   1.885   5.340   3.770  0.0000 -0.3409 -0.5637
14688TIP3    H165555   1.881   5.259   3.720  0.2747 -0.3073 -0.6408
14688TIP3    H265556   1.933   5.316   3.850  0.0359 -0.2656 -0.5630
14689TIP3   OH265557   2.813   2.307   5.528  0.0427 -0.2335 -1.0163
14689TIP3    H165558   2.736   2.361   5.544  0.4697  0.4124 -1.0923
14689TIP3    H265559   2.846   2.336   5.443  0.5677 -0.2550 -0.8256
14690TIP3   OH265560   6.710   0.805  12.995  0.0895  0.3843 -0.4410
14690TIP3    H165561   6.730   0.891  13.032 -0.4387  0.0159  0.7674
14690TIP3    H265562   6.722   0.816  12.901 -0.3760  1.8978 -0.3560
14691TIP3   OH265563   4.406   6.107   5.006  0.0042 -0.4790 -0.6710
14691TIP3    H165564   4.444   6.020   5.019 -0.9449 -0.9027 -0.6818
14691TIP3    H265565   4.329   6.092   4.951  0.3225  0.4841 -1.4039
14692TIP3   OH265566   4.687   1.443   3.601 -0.0733 -0.1260  0.4189
14692TIP3    H165567   4.707   1.533   3.578 -0.0907  0.1385  1.3848
14692TIP3    H265568   4.625   1.414   3.535  0.0607  0.5171  0.0100
14693TIP3   OH265569   0.736   2.437  13.578  0.2334  0.1587 -0.1606
14693TIP3    H165570   0.780   2.382  13.512 -0.5105 -0.7863  0.1121
14693TIP3    H265571   0.648   2.449  13.544  0.1752  0.5910  0.1374
14694TIP3   OH265572   5.127   6.787   1.397 -0.3815 -0.0777  0.4937
14694TIP3    H165573   5.207   6.735   1.391 -1.5100 -2.0805  1.6605
14694TIP3    H265574   5.153   6.866   1.442  1.0012 -0.5639  0.5894
14695TIP3   OH265575   5.222   3.788   1.939 -0.3722  0.5388 -0.0157
14695TIP3    H165576   5.196   3.696   1.946  0.3915  0.2913 -0.2517
14695TIP3    H265577   5.175   3.832   2.009 -0.8586 -0.0104  0.0048
14696TIP3   OH265578   3.193   7.080   3.453 -0.0153 -0.4997  0.6443
14696TIP3    H165579   3.281   7.082   3.413 -0.1731 -2.7845  0.0124
14696TIP3    H265580   3.198   7.143   3.525  2.0947 -0.4314  0.5123
14697TIP3   OH265581   3.524   1.185  12.682 -0.1904  0.0383 -0.0534
14697TIP3    H165582   3.583   1.128  12.634  3.0991  0.1250  3.5051
14697TIP3    H265583   3.473   1.126  12.738  0.3269  0.3028  0.7038
14698TIP3   OH265584   4.161   0.809  11.460 -0.7395  0.0772 -0.4315
14698TIP3    H165585   4.128   0.897  11.442 -3.0447 -0.8231 -1.0251
14698TIP3    H265586   4.098   0.773  11.524  0.4951 -0.9487  0.2603
14699TIP3   OH265587   6.111   6.320   3.480 -0.4208  0.0372  0.9196
14699TIP3    H165588   6.162   6.264   3.421 -0.2760  0.8590  0.2383
14699TIP3    H265589   6.021   6.288   3.472 -0.5814  0.7607 -0.5529
14700TIP3   OH265590   5.724   1.599   3.972 -0.3760  0.1872  0.5217
14700TIP3    H165591   5.631   1.574   3.973 -0.2916 -0.2785 -1.0915
14700TIP3    H265592   5.767   1.528   3.924  0.8852  0.2299  1.5422
14701TIP3   OH265593   2.853   2.481   5.264  0.4419  0.0103 -0.2518
14701TIP3    H165594   2.774   2.529   5.288  0.2277 -0.0277 -0.8707
14701TIP3    H265595   2.902   2.541   5.209  1.3151  0.3914  0.8966
14702TIP3   OH265596   0.968   2.629  14.883  0.6271  0.1882  0.0605
14702TIP3    H165597   0.912   2.585  14.819  2.2045 -0.8558 -0.6822
14702TIP3    H265598   1.030   2.561  14.910  2.2785  1.5818 -0.0731
14703TIP3   OH265599   6.722   0.591   4.908 -0.0777  0.2023  0.5959
14703TIP3    H165600   6.632   0.594   4.874  0.1205 -0.0808  0.0301
14703TIP3    H265601   6.733   0.675   4.952  0.3743  1.6093 -1.9758
14704TIP3   OH265602   6.576   4.042   5.312 -0.2672  0.0833  0.3801
14704TIP3    H165603   6.548   3.957   5.279 -0.8646  0.5458 -0.3245
14704TIP3    H265604   6.638   4.073   5.247  1.4006 -0.6131  1.5668
14705TIP3   OH265605   0.913   5.226  12.548 -0.5069 -0.1074 -0.3263
14705TIP3    H165606   0.902   5.131  12.537 -2.0639  0.1086 -0.7933
14705TIP3    H265607   0.986   5.234  12.610 -0.6587 -1.6218  0.0927
14706TIP3   OH265608   0.766   3.434  12.841  0.4313 -0.1602  0.0852
14706TIP3    H165609   0.745   3.473  12.926 -0.9884 -0.4475 -0.1089
14706TIP3    H265610   0.681   3.421  12.799  1.1533  0.7486 -1.7472
14707TIP3   OH265611   4.237   0.420  13.205 -0.1915  0.3756  0.2051
14707TIP3    H165612   4.150   0.434  13.242  0.2857  1.5960  0.9201
14707TIP3    H265613   4.241   0.326  13.189 -0.8877 -0.0341  2.1327
14708TIP3   OH265614   2.034   5.940   5.849 -0.2175 -0.2398 -0.1965
14708TIP3    H165615   2.021   6.026   5.890  0.4533 -0.0633 -0.3347
14708TIP3    H265616   1.959   5.929   5.791  0.4632  0.9725 -1.3712
14709TIP3   OH265617   1.618   4.504  12.611 -0.0400  0.1861 -0.1757
14709TIP3    H165618   1.692   4.464  12.566 -1.1333 -0.6244 -1.3299
14709TIP3    H265619   1.542   4.452  12.583 -1.1269  1.3403  0.5115
14710TIP3   OH265620   1.487   4.277   4.856  0.0220 -0.2256 -0.0169
14710TIP3    H165621   1.446   4.264   4.942 -1.5307 -2.3802 -1.0108
14710TIP3    H265622   1.429   4.338   4.811 -1.0867 -1.7668 -0.7287
14711TIP3   OH265623   1.656   4.917   3.727 -0.4048  0.3146 -0.3191
14711TIP3    H165624   1.588   4.909   3.659 -0.2453 -1.3494 -0.3098
14711TIP3    H265625   1.703   4.834   3.724  0.8379  0.9605  0.5469
14712TIP3   OH265626   4.297   2.622   3.375 -0.1406  0.2770 -0.8337
14712TIP3    H165627   4.223   2.658   3.326 -0.9642 -1.5552 -1.0015
14712TIP3    H265628   4.332   2.553   3.319  0.2940 -0.3730  0.2127
14713TIP3   OH265629   5.479   1.696   4.978  0.3055 -0.3366 -0.1888
14713TIP3    H165630   5.470   1.681   4.884  0.0933  1.7515 -0.5669
14713TIP3    H265631   5.552   1.758   4.985  0.9695 -1.2231  1.1166
14714TIP3   OH265632   4.584   1.639  11.150 -0.1498 -0.2713  0.1581
14714TIP3    H165633   4.647   1.612  11.083  0.0637  1.9671 -0.6406
14714TIP3    H265634   4.507   1.585  11.134  0.0986 -0.1667 -1.5874
14715TIP3   OH265635   4.781   2.248   3.990  0.5587  0.4928 -0.2194
14715TIP3    H165636   4.831   2.314   4.037 -1.1265  1.2359  0.6057
14715TIP3    H265637   4.721   2.298   3.935  1.3441 -0.3747 -1.9181
14716TIP3   OH265638   4.709   5.902   4.196 -0.0667  0.3223 -0.6305
14716TIP3    H165639   4.678   5.812   4.210 -1.0281  0.0977 -3.5309
14716TIP3    H265640   4.693   5.946   4.280 -1.4239 -1.6972  0.2629
14717TIP3   OH265641   0.911   1.897   4.758  0.1934 -0.1861 -0.1524
14717TIP3    H165642   0.985   1.890   4.698  0.5429  1.0520  0.0870
14717TIP3    H265643   0.865   1.976   4.729 -0.7713 -0.6848 -0.0062
14718TIP3   OH265644   5.581   6.501   2.482  0.0026 -0.6744 -0.8089
14718TIP3    H165645   5.633   6.543   2.413  1.1473  0.0742  0.4703
14718TIP3    H265646   5.588   6.407   2.464  2.3904 -0.6455 -0.3149
14719TIP3   OH265647   6.411   2.887   3.541 -0.2989  0.4237 -0.5228
14719TIP3    H165648   6.449   2.974   3.552 -0.4152  0.3734  0.4159
14719TIP3    H265649   6.428   2.864   3.450  1.0122  0.8240 -0.3995
14720TIP3   OH265650   5.242   3.654  14.961 -0.1524 -0.4664 -0.6260
14720TIP3    H165651   5.157   3.676  14.999 -1.0604  0.5009 -3.0083
14720TIP3    H265652   5.220   3.618  14.874  1.7265 -3.3674 -0.0479
14721TIP3   OH265653   7.239   3.066   0.205  0.0620 -0.1257 -0.6739
14721TIP3    H165654   7.276   3.102   0.125 -0.5203 -1.0301 -1.3782
14721TIP3    H265655   7.289   3.106   0.276  3.6058 -2.5496 -1.5599
14722TIP3   OH265656   0.551   4.542   2.291 -0.7464  0.0794 -0.0556
14722TIP3    H165657   0.513   4.549   2.203 -0.3007  0.5097 -0.2166
14722TIP3    H265658   0.641   4.572   2.281 -0.4521 -0.6497  0.3894
14723TIP3   OH265659   2.409   5.481   0.685  0.1885  0.6599 -0.0351
14723TIP3    H165660   2.349   5.408   0.702 -0.8266  1.7459  1.2838
14723TIP3    H265661   2.436   5.510   0.772  1.3803  1.2137 -0.5769
14724TIP3   OH265662   6.229   4.863   0.103 -0.2264  0.0948  0.2682
14724TIP3    H165663   6.253   4.782   0.057  1.3847  0.9058 -0.4111
14724TIP3    H265664   6.134   4.859   0.110 -0.4295 -0.7142 -1.9683
14725TIP3   OH265665   3.709   2.745   6.107 -0.3961 -0.5209  0.3265
14725TIP3    H165666   3.621   2.772   6.081 -0.5622  1.3513  2.5051
14725TIP3    H265667   3.696   2.682   6.178  0.0171 -0.3323  0.5766
14726TIP3   OH265668   3.042   1.529  13.263  0.4032 -0.2373 -0.2649
14726TIP3    H165669   3.048   1.435  13.252  0.8923  0.0502 -3.1344
14726TIP3    H265670   3.110   1.565  13.207  0.6793  1.8444  1.2636
14727TIP3   OH265671   1.846   0.939   2.013  0.6383  0.0238  0.5331
14727TIP3    H165672   1.846   0.901   1.925  1.1084 -0.7159  0.8390
14727TIP3    H265673   1.781   0.888   2.062  0.0904  0.6907  0.5154
14728TIP3   OH265674   2.401   1.790   2.042 -0.1262 -0.2112 -0.1699
14728TIP3    H165675   2.446   1.874   2.032  0.0940 -0.2356  0.6039
14728TIP3    H265676   2.438   1.735   1.973 -0.7763  0.5239 -1.1469
14729TIP3   OH265677   6.550   7.218   5.746  0.4983  0.0385  0.5403
14729TIP3    H165678   6.572   7.162   5.671 -0.5735  0.4027 -0.0636
14729TIP3    H265679   6.635   7.252   5.776  0.9682 -0.3331 -0.3327
14730TIP3   OH265680   5.529   5.982   0.132 -0.6237  0.5179  0.0824
14730TIP3    H165681   5.465   6.039   0.175 -1.6430 -1.3742  1.2144
14730TIP3    H265682   5.477   5.928   0.073 -0.1832 -1.1858  1.1579
14731TIP3   OH265683   6.523   3.783   4.917  0.0486 -0.3078 -0.0061
14731TIP3    H165684   6.587   3.713   4.906  1.8117  1.2867 -0.3841
14731TIP3    H265685   6.455   3.764   4.853  0.4064 -1.7332  0.0020
14732TIP3   OH265686   2.989   6.915   5.194  0.2462  0.2142  0.1254
14732TIP3    H165687   2.932   6.844   5.224  0.3317  0.2620  0.3983
14732TIP3    H265688   3.068   6.872   5.164  0.9375  0.3032  1.7584
14733TIP3   OH265689   0.726   6.969   5.820 -0.3066 -0.0866 -0.2346
14733TIP3    H165690   0.779   6.991   5.897 -1.1514 -0.8589  0.6006
14733TIP3    H265691   0.640   7.007   5.840 -0.1291  1.0385 -1.5081
14734TIP3   OH265692   6.406   3.274   3.852 -0.0996  0.0585 -0.1454
14734TIP3    H165693   6.484   3.306   3.896  0.0304 -0.5262  0.0547
14734TIP3    H265694   6.342   3.260   3.922 -0.0553 -0.4006 -0.1911
14735TIP3   OH265695   1.343   0.500   5.016 -1.0062  0.0415 -0.6074
14735TIP3    H165696   1.384   0.428   4.968 -0.8602  0.8987 -1.8272
14735TIP3    H265697   1.263   0.462   5.052  0.1574 -1.3131  0.7235
14736TIP3   OH265698   4.067   0.680   1.457  0.0314  0.2326 -0.0379
14736TIP3    H165699   4.005   0.611   1.438  0.7363 -0.5394  0.4134
14736TIP3    H265700   4.063   0.691   1.552 -0.5205  1.2522 -0.1601
14737TIP3   OH265701   4.188   4.351  12.434 -0.3143 -0.1430 -0.4296
14737TIP3    H165702   4.195   4.438  12.474  0.4814  0.1251 -1.1336
14737TIP3    H265703   4.224   4.361  12.347 -1.8537 -0.7720 -1.1848
14738TIP3   OH265704   6.920   0.709   1.510  0.5530 -0.3916  0.2017
14738TIP3    H165705   6.911   0.779   1.446  2.4697 -1.4171 -1.3003
14738TIP3    H265706   6.831   0.674   1.520  0.1694 -0.1100 -1.8427
14739TIP3   OH265707   0.129   4.888   4.095 -0.0746  0.5288  0.0232
14739TIP3    H165708   0.211   4.921   4.057 -0.7839  0.5779 -1.5329
14739TIP3    H265709   0.155   4.809   4.143  0.8935  0.5355 -0.4562
14740TIP3   OH265710   2.229   2.625   0.338  0.8488 -0.2587  0.8164
14740TIP3    H165711   2.236   2.625   0.242 -3.1943  0.5781  0.3392
14740TIP3    H265712   2.151   2.572   0.356  0.5704  0.9300  3.5194
14741TIP3   OH265713   5.148   4.142  14.663  0.7502 -0.8782 -0.2137
14741TIP3    H165714   5.216   4.209  14.668  0.0065 -0.0974 -0.2609
14741TIP3    H265715   5.133   4.129  14.570  1.7381 -2.0203 -0.2427
14742TIP3   OH265716   6.687   5.089  12.680  0.4224 -0.2882 -0.7010
14742TIP3    H165717   6.719   4.999  12.688  4.4527  0.8129 -1.8320
14742TIP3    H265718   6.731   5.136  12.751 -1.2576  0.9138 -0.4036
14743TIP3   OH265719   0.185   6.727   4.962 -0.2942  0.4674 -0.3997
14743TIP3    H165720   0.169   6.819   4.941 -1.4910 -0.0702 -2.0534
14743TIP3    H265721   0.264   6.704   4.912 -0.8207  0.2321 -1.1293
14744TIP3   OH265722   0.714   2.799   0.087 -0.9603  0.6387 -0.4747
14744TIP3    H165723   0.804   2.829   0.076 -1.1712  1.1956 -0.7463
14744TIP3    H265724   0.666   2.839   0.014 -1.5762  0.9727  0.0962
14745TIP3   OH265725   4.229   3.287  13.989 -0.4590  0.1214  0.4929
14745TIP3    H165726   4.173   3.210  13.985  0.6074 -0.6308 -1.2598
14745TIP3    H265727   4.252   3.305  13.898 -1.4761  3.1623  0.7065
14746TIP3   OH265728   5.602   4.224  12.135 -0.2555  0.0859  0.2657
14746TIP3    H165729   5.577   4.143  12.179 -1.1661  1.2014  1.8934
14746TIP3    H265730   5.552   4.223  12.053  1.0612 -1.7736 -0.5644
14747TIP3   OH265731   3.897   5.098   2.720  0.1142  0.4828 -0.4185
14747TIP3    H165732   3.863   5.036   2.655 -1.1252  0.5966  0.0973
14747TIP3    H265733   3.957   5.154   2.670 -1.3725  1.0398 -1.6611
14748TIP3   OH265734   1.873   6.300   5.051 -0.0239  0.4109 -0.4432
14748TIP3    H165735   1.782   6.319   5.029 -1.4519 -2.8990  1.7315
14748TIP3    H265736   1.899   6.231   4.990  0.3974  0.1567  0.0128
14749TIP3   OH265737   0.436   6.721   4.771  0.5171  0.1170 -0.7774
14749TIP3    H165738   0.494   6.680   4.835 -0.4540  0.9196  0.6764
14749TIP3    H265739   0.444   6.815   4.788 -1.8198  0.2333  0.0556
14750TIP3   OH265740   5.020   3.667   3.639 -0.2278  0.4453  0.3922
14750TIP3    H165741   5.060   3.599   3.584 -0.2761 -1.5986  2.6940
14750TIP3    H265742   5.080   3.742   3.632  1.4053 -0.8389 -0.0678
14751TIP3   OH265743   4.555   0.393  14.534 -0.5112  0.2916  0.4433
14751TIP3    H165744   4.637   0.433  14.505 -0.3201 -0.9033 -0.8245
14751TIP3    H265745   4.488   0.436  14.481 -0.4878  0.0582  0.2207
14752TIP3   OH265746   5.117   2.490  14.822  0.3620  0.4745  0.8122
14752TIP3    H165747   5.114   2.584  14.840  0.7252  0.3593  1.5194
14752TIP3    H265748   5.202   2.462  14.855  0.7693  0.1042 -0.4739
14753TIP3   OH265749   6.320   5.647  12.736  0.7999  0.0471  0.7588
14753TIP3    H165750   6.400   5.623  12.690 -0.3385 -1.6149 -0.4790
14753TIP3    H265751   6.262   5.680  12.667  0.0559  0.2637  1.4726
14754TIP3   OH265752   3.311   2.931  15.200  0.1295 -0.1551 -0.0355
14754TIP3    H165753   3.226   2.939  15.244  0.2392  0.9653  0.0233
14754TIP3    H265754   3.353   2.855  15.241 -1.3644 -1.5683 -1.0124
14755TIP3   OH265755   5.985   3.482   0.726 -0.3226 -0.0472 -0.3329
14755TIP3    H165756   6.014   3.537   0.654  0.7701 -0.5828 -0.3138
14755TIP3    H265757   5.902   3.521   0.754  0.3196  1.4493 -0.4579
14756TIP3   OH265758   6.715   2.938  14.219  0.3532 -0.1610 -0.5793
14756TIP3    H165759   6.621   2.955  14.222  0.3746 -0.0070 -0.7552
14756TIP3    H265760   6.728   2.865  14.279  0.0748 -0.4077 -0.8174
14757TIP3   OH265761   6.403   2.176  10.856 -0.1385  0.2553 -0.0040
14757TIP3    H165762   6.421   2.132  10.773  0.5604  1.3157 -0.4378
14757TIP3    H265763   6.482   2.227  10.874 -0.8680  1.2451  0.5170
14758TIP3   OH265764   2.472   2.528   2.572 -0.3944 -0.3970 -0.0909
14758TIP3    H165765   2.391   2.528   2.521 -1.4276 -0.4367  1.4971
14758TIP3    H265766   2.443   2.530   2.663  1.4138  1.4169  0.5048
14759TIP3   OH265767   2.810   7.010  14.192  0.2193  0.2240 -0.2924
14759TIP3    H165768   2.893   6.964  14.181 -0.1812 -1.0807  1.6627
14759TIP3    H265769   2.767   6.964  14.264 -0.5971  3.1631  1.2376
14760TIP3   OH265770   5.236   3.987   4.047  0.1644  0.5259  0.4649
14760TIP3    H165771   5.171   3.945   4.103 -0.0878 -0.2248 -0.3754
14760TIP3    H265772   5.287   3.914   4.011  0.0611  0.9643 -0.5963
14761TIP3   OH265773   5.480   4.692  14.522 -0.8611 -0.1588  0.0205
14761TIP3    H165774   5.558   4.665  14.473  0.0176  1.0189  0.7199
14761TIP3    H265775   5.421   4.728  14.456 -0.8280 -1.0763 -0.5218
14762TIP3   OH265776   2.104   2.883   4.616 -0.5949  0.3896  0.5929
14762TIP3    H165777   2.094   2.856   4.525  0.1844  0.9605  0.3256
14762TIP3    H265778   2.023   2.929   4.637 -1.0672 -0.3436  0.4118
14763TIP3   OH265779   0.217   2.887  13.565  0.0267  0.1753  0.0785
14763TIP3    H165780   0.143   2.945  13.583 -0.2670 -0.3275  0.5005
14763TIP3    H265781   0.281   2.908  13.633 -0.3839 -0.5147  0.6866
14764TIP3   OH265782   2.281   1.739   2.740  0.4786  0.0021  0.3811
14764TIP3    H165783   2.230   1.746   2.821  2.9292  2.4073  1.9100
14764TIP3    H265784   2.351   1.677   2.761  0.0011 -0.8840 -0.6036
14765TIP3   OH265785   6.940   3.028   4.374 -0.0788 -0.2997 -0.6489
14765TIP3    H165786   6.919   2.956   4.315 -0.1490  0.2851 -1.3501
14765TIP3    H265787   6.865   3.086   4.369 -1.0375 -1.2438  1.6381
14766TIP3   OH265788   6.032   0.722   3.194 -0.4955  0.2460 -0.1443
14766TIP3    H165789   6.100   0.663   3.161  0.2168  1.1613 -0.3503
14766TIP3    H265790   6.069   0.809   3.185 -1.4354  0.7202  0.3939
14767TIP3   OH265791   0.907   2.754  11.503 -0.2547 -0.4500 -0.2671
14767TIP3    H165792   0.971   2.773  11.572 -2.0916 -2.2581  2.1260
14767TIP3    H265793   0.833   2.811  11.523 -0.8445 -1.0600 -0.6748
14768TIP3   OH265794   3.192   6.218   4.330 -0.1125 -0.0006 -0.4614
14768TIP3    H165795   3.123   6.193   4.268 -1.5091  0.2309  0.9219
14768TIP3    H265796   3.206   6.311   4.314 -0.5357  0.0801 -0.3851
14769TIP3   OH265797   4.748   0.628   2.376 -0.2101 -0.0125  0.1689
14769TIP3    H165798   4.675   0.583   2.419 -0.4790  0.1530 -0.1033
14769TIP3    H265799   4.825   0.604   2.427 -0.1773 -1.6047 -0.5632
14770TIP3   OH265800   1.282   0.122   2.624 -0.2737 -0.4694 -0.1532
14770TIP3    H165801   1.267   0.188   2.556 -0.1272  0.1760  0.4188
14770TIP3    H265802   1.210   0.133   2.685 -1.5556 -2.4421 -1.2241
14771TIP3   OH265803   5.606   0.804   1.515  0.4586 -0.4051 -0.2238
14771TIP3    H165804   5.609   0.822   1.609  1.7715  0.3262 -0.3859
14771TIP3    H265805   5.589   0.710   1.508  0.0062 -0.3979  0.7359
14772TIP3   OH265806   4.443   6.744   3.737  0.4828 -0.0934  0.6486
14772TIP3    H165807   4.482   6.730   3.650  0.8597 -0.8899  0.9332
14772TIP3    H265808   4.513   6.721   3.798 -0.3037 -1.1766  1.1657
14773TIP3   OH265809   0.173   2.983   3.909 -0.4560 -0.1073 -0.1438
14773TIP3    H165810   0.210   3.071   3.918 -1.2688  0.2037  0.3158
14773TIP3    H265811   0.078   2.998   3.901 -0.4002 -0.7497 -3.3856
14774TIP3   OH265812   4.307   4.731  14.079  0.2883 -0.5757  0.0897
14774TIP3    H165813   4.307   4.719  13.984 -0.4591  0.3022 -0.0303
14774TIP3    H265814   4.218   4.761  14.100  0.1917 -1.5145  1.1740
14775TIP3   OH265815   2.864   0.941   2.052 -0.0663  0.5877 -0.3442
14775TIP3    H165816   2.865   1.027   2.010  1.3644  0.9376  0.3573
14775TIP3    H265817   2.922   0.950   2.127  0.1188 -1.0018 -0.2639
14776TIP3   OH265818   0.634   1.447   4.895  0.3783 -0.1081  0.1378
14776TIP3    H165819   0.730   1.442   4.894  0.3809 -0.8571  1.3126
14776TIP3    H265820   0.609   1.389   4.967 -1.0457 -1.2454 -1.2196
14777TIP3   OH265821   4.784   0.090   5.059 -0.1803  0.1711 -0.3658
14777TIP3    H165822   4.798   0.031   4.984 -0.2680 -0.8829  0.4235
14777TIP3    H265823   4.692   0.076   5.083 -0.2367  0.7332 -0.2556
14778TIP3   OH265824   4.912   7.047  13.108  1.0354  0.2655  0.1775
14778TIP3    H165825   4.861   7.025  13.030  0.2026  1.5125  0.3374
14778TIP3    H265826   4.910   7.142  13.112  1.8902  0.2580  1.1885
14779TIP3   OH265827   1.219   5.683  13.822  0.1762  0.0748  0.3175
14779TIP3    H165828   1.279   5.733  13.767 -0.7872  1.1937  0.2564
14779TIP3    H265829   1.275   5.642  13.888  1.2143 -0.4266 -0.8491
14780TIP3   OH265830   1.556   5.287   3.177  0.7108  0.1431  0.1000
14780TIP3    H165831   1.601   5.203   3.179 -0.4968 -0.5188  0.4816
14780TIP3    H265832   1.566   5.318   3.087  1.4264 -0.2627  0.0391
14781TIP3   OH265833   4.448   2.204   1.938  0.3811  0.5589  0.7345
14781TIP3    H165834   4.513   2.254   1.986  0.4138  1.0355  0.2011
14781TIP3    H265835   4.365   2.249   1.954  0.4838  1.0730 -0.1286
14782TIP3   OH265836   0.825   5.763   4.601  0.1529 -0.0434 -0.3450
14782TIP3    H165837   0.895   5.724   4.548  0.2133 -0.6702  0.1778
14782TIP3    H265838   0.839   5.727   4.689 -0.6848  0.0097 -0.1822
14783TIP3   OH265839   2.096   0.091   4.762 -0.3356 -0.4438 -0.0665
14783TIP3    H165840   2.030   0.029   4.794  0.2715 -1.3360 -0.4877
14783TIP3    H265841   2.063   0.177   4.787 -0.4364 -1.0264  1.9483
14784TIP3   OH265842   1.425   5.486   0.614  0.7098 -0.4686  0.7662
14784TIP3    H165843   1.435   5.406   0.666  2.5504  1.4816  3.7192
14784TIP3    H265844   1.349   5.530   0.652  0.7326 -0.0042  0.2894
14785TIP3   OH265845   2.900   1.610   3.405 -0.2903 -0.3506  0.6376
14785TIP3    H165846   2.815   1.568   3.392 -0.6637  0.2821  1.0183
14785TIP3    H265847   2.963   1.543   3.378 -0.9008 -0.8421  0.3881
14786TIP3   OH265848   3.535   4.715  12.339  0.0882  0.7198  0.4838
14786TIP3    H165849   3.501   4.686  12.254  1.0859 -0.2050  0.3789
14786TIP3    H265850   3.527   4.810  12.337 -0.8124  0.6436 -0.2476
14787TIP3   OH265851   0.797   1.308  12.311  0.0995  0.3165  0.3467
14787TIP3    H165852   0.791   1.212  12.305  0.8108  0.2817  0.0173
14787TIP3    H265853   0.833   1.335  12.226 -2.8135  1.1744 -0.7121
14788TIP3   OH265854   3.672   7.033   4.340  0.7737 -0.1857 -0.6234
14788TIP3    H165855   3.763   7.004   4.342  1.0494  0.1352 -3.6650
14788TIP3    H265856   3.622   6.955   4.362  1.7447 -0.7732 -0.4343
14789TIP3   OH265857   1.365   5.669   3.494  0.1675  0.6667  0.5382
14789TIP3    H165858   1.270   5.657   3.501  0.1458  1.0317  0.8390
14789TIP3    H265859   1.384   5.649   3.402 -0.2024  0.6147  0.4691
14790TIP3   OH265860   4.101   1.430   0.428  0.3540 -0.2207 -0.1176
14790TIP3    H165861   4.110   1.360   0.364 -1.7525  0.3134 -1.0967
14790TIP3    H265862   4.078   1.386   0.510  0.0959 -0.7207 -0.4567
14791TIP3   OH265863   6.212   5.951   2.811  0.2971  0.7337 -0.4276
14791TIP3    H165864   6.257   5.876   2.850 -0.9443  1.1572  2.0832
14791TIP3    H265865   6.185   5.921   2.724  4.2416  0.1015 -1.6274
14792TIP3   OH265866   0.754   6.154   0.331 -0.2195  0.1349 -0.4835
14792TIP3    H165867   0.756   6.109   0.416 -0.2695  0.9499 -0.0418
14792TIP3    H265868   0.673   6.124   0.290 -1.0792  1.0356  0.4945
14793TIP3   OH265869   4.256   6.313   2.751 -0.3082  0.0164 -0.3671
14793TIP3    H165870   4.168   6.342   2.726 -0.2859 -0.9726 -1.6874
14793TIP3    H265871   4.241   6.242   2.813 -0.3845  1.2028  1.0318
14794TIP3   OH265872   6.376   0.090   3.780 -0.2888 -0.3589 -0.0433
14794TIP3    H165873   6.354   0.041   3.701  0.0887 -1.7813  0.7061
14794TIP3    H265874   6.404   0.175   3.748 -0.1547 -0.9026 -1.4414
14795TIP3   OH265875   7.001   1.321  13.940 -0.3256  0.8874  0.6976
14795TIP3    H165876   6.943   1.375  13.885  1.0142  2.0758  0.4017
14795TIP3    H265877   6.956   1.237  13.946 -1.6708  1.4989 -0.2227
14796TIP3   OH265878   2.716   4.551   4.937 -0.3258 -0.3847 -0.4714
14796TIP3    H165879   2.763   4.571   4.857 -1.5246 -0.4228 -1.2119
14796TIP3    H265880   2.784   4.543   5.004  0.8113 -1.5155 -1.7010
14797TIP3   OH265881   3.546   5.586   2.594 -0.3255  0.2102  0.6941
14797TIP3    H165882   3.605   5.602   2.668  0.3570 -1.3393  0.5208
14797TIP3    H265883   3.461   5.571   2.635  0.1796 -1.3167  1.2512
14798TIP3   OH265884   5.572   2.272  15.033 -0.1956 -0.8024 -0.7151
14798TIP3    H165885   5.520   2.298  15.109  3.1643  1.1969  1.0814
14798TIP3    H265886   5.619   2.194  15.061  0.8625 -0.2158 -0.8408
14799TIP3   OH265887   2.411   0.041   4.480  0.1868 -0.6831 -0.0575
14799TIP3    H165888   2.416  -0.046   4.519 -2.0980 -0.6262  0.4926
14799TIP3    H265889   2.381   0.025   4.390  1.8461 -0.5493 -0.6875
14800TIP3   OH265890   0.767   4.272   1.991  0.1519  0.1952 -0.1800
14800TIP3    H165891   0.695   4.329   2.016 -1.5971 -1.9111 -0.1209
14800TIP3    H265892   0.772   4.207   2.061  0.8881 -0.7566 -1.0746
14801TIP3   OH265893   0.489   0.770   1.985  0.3301 -0.4515  0.2615
14801TIP3    H165894   0.535   0.720   1.918 -0.3056 -1.7706  0.7740
14801TIP3    H265895   0.416   0.812   1.938  0.7003 -0.2242 -0.1152
14802TIP3   OH265896   5.910   1.065  12.643  0.2006  0.6788 -0.1226
14802TIP3    H165897   5.974   1.136  12.636  1.0154  0.0034  0.2993
14802TIP3    H265898   5.875   1.074  12.732 -0.5877  1.2824 -0.4823
14803TIP3   OH265899   0.747   4.202   0.749 -0.3753  0.0525 -0.3798
14803TIP3    H165900   0.666   4.253   0.745 -1.4168 -1.1919  2.4488
14803TIP3    H265901   0.738   4.137   0.679 -1.1695  0.7558 -0.9577
14804TIP3   OH265902   7.167   4.021   0.624 -0.4145 -0.1625  0.1511
14804TIP3    H165903   7.085   3.978   0.648 -1.6944  1.5796 -0.8969
14804TIP3    H265904   7.175   4.009   0.529  1.0387 -1.0672  0.3463
14805TIP3   OH265905   1.037   1.967   0.078 -0.3508 -0.8779  0.3674
14805TIP3    H165906   0.990   1.894   0.118 -0.7648 -1.1295 -0.5527
14805TIP3    H265907   1.119   1.928   0.047 -1.2531 -1.3710 -1.5822
14806TIP3   OH265908   4.858   0.106  13.788 -0.2086 -0.1238 -0.0008
14806TIP3    H165909   4.818   0.095  13.874 -0.9260 -1.1110 -0.4325
14806TIP3    H265910   4.833   0.027  13.740  1.2382 -0.1798 -0.7151
14807TIP3   OH265911   3.369   4.201   0.626  0.9718 -0.1081  0.0021
14807TIP3    H165912   3.368   4.247   0.709  0.9346 -0.3925  0.1603
14807TIP3    H265913   3.286   4.152   0.624 -0.3505  2.0154 -1.4027
14808TIP3   OH265914   0.821   4.777   2.390  0.1606 -0.4286 -0.3626
14808TIP3    H165915   0.882   4.842   2.354  0.7555 -0.4503  0.5775
14808TIP3    H265916   0.856   4.756   2.476 -1.5992  0.1179  0.5241
14809TIP3   OH265917   4.415   1.191   3.997 -0.2006  0.1224 -0.0791
14809TIP3    H165918   4.456   1.229   3.919  0.2101 -1.7041 -0.8061
14809TIP3    H265919   4.363   1.118   3.963 -1.2804  0.2595  1.2123
14810TIP3   OH265920   7.108   6.206   1.607 -0.3308  0.0857  0.2965
14810TIP3    H165921   7.027   6.174   1.569  1.4888 -0.0941 -4.0780
14810TIP3    H265922   7.167   6.131   1.605  0.1676  0.2910  3.0669
14811TIP3   OH265923   3.522   1.401   1.551 -0.0481  0.2085  0.9040
14811TIP3    H165924   3.436   1.388   1.511 -0.1370  0.3545  1.0459
14811TIP3    H265925   3.513   1.482   1.600 -0.3062 -0.5711  2.1937
14812TIP3   OH265926   6.139   3.363   0.945 -0.5283  0.3591 -0.1335
14812TIP3    H165927   6.087   3.375   0.865  0.3057 -1.1707 -0.9465
14812TIP3    H265928   6.202   3.295   0.923  0.0346  0.2258  1.7058
14813TIP3   OH265929   0.884   0.563  11.449  0.1179  0.0281 -0.8619
14813TIP3    H165930   0.861   0.611  11.528  2.6772  1.1630 -0.7080
14813TIP3    H265931   0.808   0.572  11.392 -0.3692  2.3626  0.0530
14814TIP3   OH265932   0.283   3.815  11.516 -0.0190 -0.0882  1.0055
14814TIP3    H165933   0.338   3.792  11.441 -1.2762 -2.5829  0.7257
14814TIP3    H265934   0.334   3.879  11.565  1.8268 -0.1081 -0.7620
14815TIP3   OH265935   5.638   3.193   5.083  0.0117  0.3607  0.0754
14815TIP3    H165936   5.602   3.141   5.011  0.3701  1.2336 -0.7506
14815TIP3    H265937   5.683   3.129   5.139 -1.4443 -0.5159  0.2782
14816TIP3   OH265938   0.719   2.796  14.259  0.4165 -0.0199  0.3537
14816TIP3    H165939   0.736   2.856  14.187  0.6182  0.8680  1.1163
14816TIP3    H265940   0.797   2.740  14.263  0.2694 -0.2804 -0.3024
14817TIP3   OH265941   3.578   4.457   6.070 -0.2754 -0.1330  0.1141
14817TIP3    H165942   3.600   4.550   6.061  2.0910 -0.6317  0.0618
14817TIP3    H265943   3.639   4.412   6.011 -0.5163 -1.7925  1.0700
14818TIP3   OH265944   3.627   0.673   2.095 -0.3893 -0.1742 -0.2028
14818TIP3    H165945   3.572   0.594   2.091  1.5168 -1.5960  0.0610
14818TIP3    H265946   3.592   0.730   2.027 -3.3878 -0.1128  1.1939
14819TIP3   OH265947   4.589   1.095   4.567 -0.5033 -0.1021 -0.3921
14819TIP3    H165948   4.626   1.102   4.479  0.7646  2.2778  0.2322
14819TIP3    H265949   4.494   1.101   4.554 -0.3514 -0.1412 -1.6125
14820TIP3   OH265950   1.164   6.889   2.519  0.2242 -0.1584 -0.2885
14820TIP3    H165951   1.252   6.894   2.556  0.1222 -0.2659 -0.0321
14820TIP3    H265952   1.155   6.799   2.490 -0.3857 -0.5713  1.1366
14821TIP3   OH265953   6.510   0.845  11.791  0.6004 -0.4802 -0.2391
14821TIP3    H165954   6.457   0.766  11.779 -1.9521  1.1405 -0.3063
14821TIP3    H265955   6.495   0.896  11.712  0.5470  0.9830  0.6831
14822TIP3   OH265956   2.552   4.831   4.885  0.7014 -0.0070  0.0364
14822TIP3    H165957   2.574   4.741   4.859  0.2452  0.4059 -1.9329
14822TIP3    H265958   2.588   4.839   4.974 -0.4318 -2.5494  0.8386
14823TIP3   OH265959   2.767   2.495  12.738 -0.2211  0.0264  0.4741
14823TIP3    H165960   2.708   2.466  12.808 -2.2226  0.8313 -0.8060
14823TIP3    H265961   2.717   2.562  12.691  1.6026  0.4843 -0.9039
14824TIP3   OH265962   4.852   3.976   1.197  0.2096  0.3303  0.2884
14824TIP3    H165963   4.944   3.950   1.187  0.1399 -0.1174  0.7900
14824TIP3    H265964   4.855   4.070   1.214  0.5514  0.3792 -0.0119
14825TIP3   OH265965   3.509   4.736  13.828  0.5755  0.5562 -0.0322
14825TIP3    H165966   3.519   4.829  13.848  1.3789  0.5273 -0.2784
14825TIP3    H265967   3.414   4.723  13.824  0.4577  1.5163 -0.7246
14826TIP3   OH265968   1.148   4.872   4.124  0.3003  0.1572  0.6825
14826TIP3    H165969   1.158   4.967   4.134 -0.1885  0.0562  2.4002
14826TIP3    H265970   1.056   4.860   4.099  0.8870  0.2301 -1.7839
14827TIP3   OH265971   4.536   4.590  14.816  0.1392  0.3279 -0.3065
14827TIP3    H165972   4.471   4.520  14.809 -0.4803  0.8466  0.1191
14827TIP3    H265973   4.618   4.545  14.838 -0.0132 -0.3531 -1.0728
14828TIP3   OH265974   2.069   6.245  10.424 -0.0119  0.2820 -0.0429
14828TIP3    H165975   2.082   6.151  10.434  0.9790  0.5066  1.0645
14828TIP3    H265976   2.153   6.276  10.388  1.1326  1.1983  3.1180
14829TIP3   OH265977   0.308   2.433   3.111  0.1169 -0.2912 -0.3900
14829TIP3    H165978   0.286   2.351   3.156  1.4264  0.9118  2.8232
14829TIP3    H265979   0.395   2.456   3.146  0.0313  2.1992 -1.5883
14830TIP3   OH265980   6.839   0.671   2.469  0.3676  0.0678 -0.2544
14830TIP3    H165981   6.930   0.645   2.488  0.3876 -1.1144 -1.8170
14830TIP3    H265982   6.847   0.762   2.440  0.9740  0.1694  0.1941
14831TIP3   OH265983   6.664   5.676   4.412  0.2810 -0.2711  0.4503
14831TIP3    H165984   6.597   5.716   4.357  1.7329  1.4386 -0.1703
14831TIP3    H265985   6.650   5.582   4.402 -1.3574  0.0312 -0.4634
14832TIP3   OH265986   1.247   3.634   5.644  0.3500  0.1490  0.4662
14832TIP3    H165987   1.239   3.592   5.558  0.3177 -2.0501  1.4578
14832TIP3    H265988   1.305   3.709   5.629  1.7550 -1.1667 -1.1626
14833TIP3   OH265989   0.572   0.127   4.525  0.6155  0.2982  0.0398
14833TIP3    H165990   0.665   0.110   4.515  0.8992  1.8906 -0.3897
14833TIP3    H265991   0.535   0.115   4.437  0.4010 -0.4016  0.2240
14834TIP3   OH265992   2.552   0.655   5.302 -0.5417  0.5221 -0.2957
14834TIP3    H165993   2.559   0.616   5.215 -1.6466  0.5020 -0.3916
14834TIP3    H265994   2.532   0.747   5.285  1.7542  1.1308 -0.0713
14835TIP3   OH265995   1.445   6.713   4.055 -0.0867 -0.7111  0.3416
14835TIP3    H165996   1.473   6.795   4.096  2.9672 -1.8470  0.8239
14835TIP3    H265997   1.405   6.663   4.126 -4.9984  1.3656 -0.5834
14836TIP3   OH265998   0.041   6.450   4.781  0.2532 -0.3463  0.1870
14836TIP3    H165999   0.012   6.510   4.850 -0.0442 -1.0042  0.6421
14836TIP3    H266000   0.049   6.506   4.703 -1.3854  0.0397  0.2547
14837TIP3   OH266001   4.149   5.144   4.790  0.1759  0.4621  0.5399
14837TIP3    H166002   4.148   5.053   4.760 -1.6471  0.0618  1.7109
14837TIP3    H266003   4.208   5.144   4.865  2.0149  0.7701 -0.8342
14838TIP3   OH266004   3.014   0.024   3.347  0.6511 -0.0148 -0.0444
14838TIP3    H166005   2.922  -0.003   3.339  0.3894  0.9698 -0.6352
14838TIP3    H266006   3.057  -0.049   3.390  0.2036 -1.8368 -2.4667
14839TIP3   OH266007   1.949   0.667   2.961 -0.0520 -0.1095 -0.0818
14839TIP3    H166008   2.039   0.637   2.949 -0.0828 -0.4189  0.4389
14839TIP3    H266009   1.934   0.727   2.888  0.4026 -0.4558 -0.4671
14840TIP3   OH266010   3.068   0.284  14.871 -0.0844 -0.7806 -0.7089
14840TIP3    H166011   3.106   0.359  14.825  1.0906 -1.9387 -1.7046
14840TIP3    H266012   3.074   0.212  14.808 -0.4732 -1.9084  0.4918
14841TIP3   OH266013   0.045   2.529   2.888  0.2369  0.3760 -0.4318
14841TIP3    H166014   0.046   2.565   2.976 -0.5087  0.4464 -0.4429
14841TIP3    H266015  -0.001   2.595   2.836  1.9856  1.0441 -1.1995
14842TIP3   OH266016   2.883   3.070   4.230  0.0829 -0.3566  0.1386
14842TIP3    H166017   2.955   3.129   4.251 -0.9680  1.0244  0.0191
14842TIP3    H266018   2.886   3.002   4.298  0.6602  0.4469  0.9306
14843TIP3   OH266019   2.676   6.330   3.936 -0.4863 -0.2862  0.0888
14843TIP3    H166020   2.759   6.284   3.926 -1.5861 -2.7889  1.4714
14843TIP3    H266021   2.622   6.298   3.863 -0.4179  1.0175 -0.5703
14844TIP3   OH266022   2.320   5.741  10.020 -0.4169 -0.0690  0.3983
14844TIP3    H166023   2.328   5.647  10.030  1.1818  0.2105  2.2816
14844TIP3    H266024   2.345   5.758   9.929  1.9270 -1.2198  0.7715
14845TIP3   OH266025   4.115   0.444   4.580  0.0820 -0.6062 -0.1036
14845TIP3    H166026   4.172   0.512   4.546  1.3445 -1.3091  0.5217
14845TIP3    H266027   4.044   0.437   4.517 -0.2645  1.5068 -0.0011
14846TIP3   OH266028   2.288   2.313   2.454  0.1704 -0.1639  0.3145
14846TIP3    H166029   2.330   2.299   2.539  0.7314  0.3017  0.1147
14846TIP3    H266030   2.262   2.405   2.455  0.0522 -0.1933  0.0306
14847TIP3   OH266031   4.854   3.202   1.037  0.2690  0.0407  0.0189
14847TIP3    H166032   4.884   3.209   1.128  0.2681  1.5501 -0.0574
14847TIP3    H266033   4.767   3.242   1.037  0.6925  1.0358 -0.8080
14848TIP3   OH266034   0.817   1.607  14.621  0.2901 -0.3399 -0.4550
14848TIP3    H166035   0.806   1.530  14.565  0.8450 -1.5656  1.0488
14848TIP3    H266036   0.793   1.577  14.708  2.9144  0.4427  0.6480
14849TIP3   OH266037   1.631   1.021   3.919  0.4105 -0.4809 -0.0426
14849TIP3    H166038   1.681   1.021   4.000  0.4051  3.0633  0.1434
14849TIP3    H266039   1.697   1.032   3.850  0.1981  0.1908 -0.1518
14850TIP3   OH266040   0.734   5.398  10.161  0.0483 -0.1501 -0.2597
14850TIP3    H166041   0.711   5.306  10.174  0.1009 -0.1185  0.0643
14850TIP3    H266042   0.721   5.413  10.068 -1.0893 -0.1809 -0.1217
14851TIP3   OH266043   0.822   6.393   0.834  0.1692  0.3541  0.4594
14851TIP3    H166044   0.809   6.448   0.911  0.7042  2.1219 -0.6540
14851TIP3    H266045   0.866   6.450   0.771 -0.7814 -0.8403 -1.3746
14852TIP3   OH266046   5.533   4.382   2.867 -0.3584 -0.4244 -0.5991
14852TIP3    H166047   5.512   4.440   2.793 -4.3928  0.1129  0.6912
14852TIP3    H266048   5.501   4.296   2.839 -1.1360 -0.3881  0.1260
14853TIP3   OH266049   4.662   0.796   1.181 -0.0129  0.0687  0.1858
14853TIP3    H166050   4.643   0.845   1.260 -0.1311  1.9706 -0.9644
14853TIP3    H266051   4.748   0.826   1.153 -0.0295 -0.4707 -0.4847
14854TIP3   OH266052   2.446   7.135   2.049  0.3487 -0.1283 -0.8144
14854TIP3    H166053   2.355   7.129   2.076  0.3696  0.5134 -0.5930
14854TIP3    H266054   2.452   7.077   1.973 -0.2549 -0.1280 -0.8682
14855TIP3   OH266055   3.521   0.301   1.801 -0.6488  0.5734 -0.5078
14855TIP3    H166056   3.597   0.308   1.743  0.0525 -0.9636  0.1675
14855TIP3    H266057   3.447   0.286   1.742  0.0210 -0.7776 -1.0575
14856TIP3   OH266058   7.251   5.417   0.401  0.2314 -0.3211 -0.2184
14856TIP3    H166059   7.202   5.484   0.354  1.9983 -0.1178 -1.8840
14856TIP3    H266060   7.227   5.335   0.357 -1.5610 -0.8148  1.5110
14857TIP3   OH266061   3.853   0.419   5.786  0.4407 -0.3603 -0.1977
14857TIP3    H166062   3.781   0.415   5.723  0.9350 -1.5397 -0.7158
14857TIP3    H266063   3.812   0.407   5.871 -0.2433  1.3028 -0.2486
14858TIP3   OH266064   3.105   5.724  10.714  0.0350  0.2973  0.2503
14858TIP3    H166065   3.063   5.670  10.647  1.0112 -3.2900  2.2361
14858TIP3    H266066   3.033   5.768  10.759 -1.1200 -1.1264 -0.1194
14859TIP3   OH266067   6.119   5.633  13.533 -0.2143  0.4449 -0.0886
14859TIP3    H166068   6.088   5.602  13.448 -1.7930  1.0482  0.2221
14859TIP3    H266069   6.185   5.699  13.513  0.5795 -0.5529 -0.8057
14860TIP3   OH266070   2.583   2.178  14.571  0.0403 -0.1914  0.0936
14860TIP3    H166071   2.634   2.108  14.613 -0.4010 -0.3624  0.3536
14860TIP3    H266072   2.499   2.177  14.617 -0.1926  0.0999 -0.3198
14861TIP3   OH266073   6.460   7.078  14.604  0.0980  0.0758  0.5448
14861TIP3    H166074   6.406   7.086  14.683 -0.2602  0.3885  0.2736
14861TIP3    H266075   6.396   7.074  14.532  0.3991 -0.7352  0.3048
14862TIP3   OH266076   5.217   1.535   5.674  0.5287  0.5090  0.4921
14862TIP3    H166077   5.189   1.455   5.718  0.3099  1.0275  1.3209
14862TIP3    H266078   5.312   1.538   5.688  0.9354 -0.8444 -1.6445
14863TIP3   OH266079   1.627   6.529   5.197  0.1169  0.1714 -0.0866
14863TIP3    H166080   1.614   6.611   5.150 -1.6461  0.4125  0.7409
14863TIP3    H266081   1.576   6.538   5.277  1.1926 -1.1211  0.8050
14864TIP3   OH266082   1.646   4.938   4.626  0.4355 -0.2403  0.0725
14864TIP3    H166083   1.650   5.027   4.593  0.0670 -0.3931 -0.3832
14864TIP3    H266084   1.688   4.885   4.559  0.5606 -0.4254  0.2937
14865TIP3   OH266085   3.618   2.023  14.716 -0.2919 -0.0202 -0.4463
14865TIP3    H166086   3.688   2.071  14.761 -0.8962 -0.4145  0.9819
14865TIP3    H266087   3.557   2.090  14.687  0.3061  0.2730 -1.0430
14866TIP3   OH266088   5.664   5.323   4.078  0.6875  0.6848 -0.6184
14866TIP3    H166089   5.620   5.240   4.096  0.8520  0.7826  0.2603
14866TIP3    H266090   5.596   5.378   4.038 -0.1676  1.0120  1.1972
14867TIP3   OH266091   1.598   1.057  15.346 -0.4857  0.0459  0.2860
14867TIP3    H166092   1.508   1.063  15.311 -0.3402 -2.3587 -0.6670
14867TIP3    H266093   1.591   0.999  15.422 -0.0762  1.8069  1.7353
14868TIP3   OH266094   2.520   6.284   4.591 -0.2644 -0.1728 -0.5584
14868TIP3    H166095   2.615   6.279   4.605 -0.0848  1.4685 -0.9229
14868TIP3    H266096   2.488   6.337   4.664 -1.3145 -2.6629  0.9243
14869TIP3   OH266097   6.905   2.372   4.367 -0.3867  0.3586  0.2102
14869TIP3    H166098   6.963   2.389   4.293 -1.1151 -0.3506 -0.5430
14869TIP3    H266099   6.898   2.277   4.371 -1.0391  0.4179  0.6489
14870TIP3   OH266100   3.791   3.062  12.419 -0.0474  0.2764  0.6057
14870TIP3    H166101   3.729   3.135  12.420  0.2686  0.5445  0.7947
14870TIP3    H266102   3.768   3.011  12.342  0.9672  1.6297 -0.6316
14871TIP3   OH266103   1.167   2.660   4.433 -0.1243 -0.1556  0.2768
14871TIP3    H166104   1.161   2.743   4.481 -0.6882 -0.9590  1.6539
14871TIP3    H266105   1.105   2.670   4.361  0.1081  0.7620  0.1818
14872TIP3   OH266106   5.882   3.967  11.336  0.2898 -0.0142  0.4413
14872TIP3    H166107   5.929   4.032  11.284  1.5449  0.0191  1.5634
14872TIP3    H266108   5.894   3.994  11.427 -1.3708 -0.3897  0.8229
14873TIP3   OH266109   2.123   2.345   4.247  0.1529  0.0986  0.3463
14873TIP3    H166110   2.187   2.308   4.186 -0.9084 -0.3577 -0.5331
14873TIP3    H266111   2.038   2.320   4.211 -0.5440  1.0180  1.2676
14874TIP3   OH266112   4.826   3.853   4.783  0.1208 -0.5196  0.0228
14874TIP3    H166113   4.768   3.789   4.825 -2.4842  0.5904 -1.6337
14874TIP3    H266114   4.848   3.814   4.699 -0.4692  0.2051 -0.4788
14875TIP3   OH266115   5.484   5.507  13.377  0.0389 -0.0384  0.1943
14875TIP3    H166116   5.561   5.516  13.320  0.7848  0.4491  1.2366
14875TIP3    H266117   5.513   5.449  13.447 -0.4712  0.3339  0.7185
14876TIP3   OH266118   5.723   5.213   4.370 -0.2438  0.5977  0.0948
14876TIP3    H166119   5.755   5.228   4.459 -2.7717 -0.7442  1.3227
14876TIP3    H266120   5.686   5.297   4.343 -0.1772  0.7992  0.6258
14877TIP3   OH266121   1.705   5.675   0.783 -0.4609 -0.1594 -0.2385
14877TIP3    H166122   1.752   5.758   0.791  1.1559 -1.0864  0.4762
14877TIP3    H266123   1.728   5.643   0.696 -1.4615  0.3226 -0.7019
14878TIP3   OH266124   0.373   3.135  14.873 -0.4951 -0.0510  0.7585
14878TIP3    H166125   0.457   3.118  14.915  0.3984  0.5244 -0.6923
14878TIP3    H266126   0.395   3.150  14.781 -2.3644 -1.4386  0.0110
14879TIP3   OH266127   0.155   1.105   3.725 -0.3346  0.0879 -0.0467
14879TIP3    H166128   0.139   1.111   3.631 -0.1753  1.2872 -0.0106
14879TIP3    H266129   0.068   1.092   3.763 -0.4085 -0.3124 -0.3447
14880TIP3   OH266130   5.232   0.366  14.802 -0.7686  0.3756 -0.0898
14880TIP3    H166131   5.257   0.349  14.893 -3.0380 -0.2042  0.5043
14880TIP3    H266132   5.140   0.391  14.807 -0.5900  1.6870 -2.1314
14881TIP3   OH266133   3.926   5.759   2.462  0.4489  0.6718  0.2355
14881TIP3    H166134   3.958   5.754   2.552  1.3650  0.8913 -0.0762
14881TIP3    H266135   3.831   5.749   2.471  0.6712 -1.1654  1.0715
14882TIP3   OH266136   2.479   1.033   1.708  0.6243  0.1107 -0.4068
14882TIP3    H166137   2.536   1.038   1.785 -1.3646 -0.8761  1.2182
14882TIP3    H266138   2.460   0.939   1.699  0.8339  0.2125 -2.1495
14883TIP3   OH266139   3.912   0.535  13.992 -0.4468  0.2273  0.3459
14883TIP3    H166140   3.999   0.553  13.957 -0.6419 -1.8389 -1.3715
14883TIP3    H266141   3.852   0.584  13.936 -0.4320  2.0996  1.8680
14884TIP3   OH266142   0.291   3.362  12.412 -0.1668  0.4181  0.2764
14884TIP3    H166143   0.332   3.449  12.411 -1.1412  0.8842 -0.7476
14884TIP3    H266144   0.287   3.336  12.320  0.5646 -0.9569  0.5982
14885TIP3   OH266145   6.737   3.673   1.054 -0.0107 -0.1721 -0.4384
14885TIP3    H166146   6.645   3.651   1.068  0.0706 -0.2506  0.0119
14885TIP3    H266147   6.785   3.598   1.090  0.2915  1.0232  1.8140
14886TIP3   OH266148   2.833   4.018   5.281 -0.0818  0.7976  0.8257
14886TIP3    H166149   2.830   4.106   5.317  1.8421  1.3445 -0.2304
14886TIP3    H266150   2.760   4.015   5.218 -0.4787  1.4284  1.2426
14887TIP3   OH266151   4.291   6.634  13.432  0.5462 -0.0415 -0.0183
14887TIP3    H166152   4.335   6.551  13.450  0.9924 -0.0265 -0.9754
14887TIP3    H266153   4.360   6.689  13.393 -0.6588 -0.5212 -3.0003
14888TIP3   OH266154   2.341   5.485  14.499  0.5408  0.1734  0.1558
14888TIP3    H166155   2.296   5.502  14.582  1.1340  1.3149  0.2779
14888TIP3    H266156   2.313   5.557  14.442 -0.6177 -1.1347 -0.9772
14889TIP3   OH266157   0.082   0.847  13.228  0.2204 -0.2340 -0.1636
14889TIP3    H166158   0.150   0.862  13.294 -0.0399  0.2080  0.0033
14889TIP3    H266159   0.101   0.910  13.159 -1.3064  1.4483  0.8664
14890TIP3   OH266160   4.560   6.108  14.118 -0.1950  0.3643 -0.0271
14890TIP3    H166161   4.533   6.017  14.104 -0.8059  0.4433  0.6087
14890TIP3    H266162   4.478   6.156  14.133  0.2052  0.8131  0.7744
14891TIP3   OH266163   6.072   0.445  13.774 -0.0055 -0.0092  0.2026
14891TIP3    H166164   5.997   0.454  13.715  2.0207  0.5503 -2.4744
14891TIP3    H266165   6.076   0.528  13.822 -0.4703  0.3834 -0.4262
14892TIP3   OH266166   6.657   1.369   2.991 -0.2838 -0.2630 -0.0243
14892TIP3    H166167   6.615   1.340   3.073  2.0632 -1.1724  0.9511
14892TIP3    H266168   6.737   1.413   3.019  0.2021  0.0809 -1.8240
14893TIP3   OH266169   2.130   0.819  11.725 -0.5427  0.0561 -0.1726
14893TIP3    H166170   2.155   0.877  11.652  0.6130  1.2873  1.1546
14893TIP3    H266171   2.038   0.797  11.707 -0.5862  1.1648 -1.4600
14894TIP3   OH266172   6.661   6.205   5.455  0.4229 -0.8867  0.0095
14894TIP3    H166173   6.699   6.119   5.441  0.9484 -0.6631  0.0402
14894TIP3    H266174   6.694   6.259   5.383  1.5316 -0.2579  0.9547
14895TIP3   OH266175   2.268   6.819   5.419  0.4548  0.2274  0.1965
14895TIP3    H166176   2.294   6.876   5.347  0.4469 -1.4397 -1.2115
14895TIP3    H266177   2.210   6.872   5.473 -2.4715  0.5878 -2.9561
14896TIP3   OH266178   1.306   4.701   3.991  0.8053 -0.5000 -0.2231
14896TIP3    H166179   1.288   4.776   4.046 -0.1767  0.1997 -1.4416
14896TIP3    H266180   1.220   4.675   3.956  1.4553 -0.4047 -2.0238
14897TIP3   OH266181   4.815   5.502   1.671  0.0965 -0.3102  0.5436
14897TIP3    H166182   4.755   5.573   1.652 -2.6807 -2.1627  1.6970
14897TIP3    H266183   4.814   5.494   1.766 -1.3988 -3.1011  0.4100
14898TIP3   OH266184   1.106   3.716   4.722 -0.0415 -0.6966  0.4592
14898TIP3    H166185   1.021   3.698   4.762  0.0432  1.3321  1.6778
14898TIP3    H266186   1.090   3.791   4.664  0.7460 -0.8809 -0.0199
14899TIP3   OH266187   3.330   3.593   5.172  0.4529 -0.6392 -0.1838
14899TIP3    H166188   3.268   3.648   5.125 -1.2739 -0.9052  1.6252
14899TIP3    H266189   3.359   3.528   5.108  0.1754  0.5352 -1.5281
14900TIP3   OH266190   0.172   0.789  12.193 -0.4889  0.8511 -0.2804
14900TIP3    H166191   0.242   0.735  12.157 -0.9112  0.6568 -0.8123
14900TIP3    H266192   0.217   0.848  12.255  0.0450  0.2782 -0.1134
14901TIP3   OH266193   1.882   1.588  11.044  0.1671  0.7618  0.2113
14901TIP3    H166194   1.959   1.533  11.029 -0.6161 -0.8314  1.7242
14901TIP3    H266195   1.893   1.621  11.133 -2.0005 -1.5048  1.4475
14902TIP3   OH266196   2.162   7.249   5.680  0.1979 -0.4611  0.2625
14902TIP3    H166197   2.232   7.202   5.725  0.3928  1.0831  1.6836
14902TIP3    H266198   2.203   7.331   5.651 -0.5497 -0.3925 -0.6610
14903TIP3   OH266199   4.909   0.970   5.533  0.0598  0.2873  0.2139
14903TIP3    H166200   4.871   0.913   5.467 -0.2178  1.3762 -0.5877
14903TIP3    H266201   5.004   0.956   5.525 -0.0424 -1.2499  1.1478
14904TIP3   OH266202   6.586   3.349   0.931  0.0406 -0.0509  0.6718
14904TIP3    H166203   6.656   3.328   0.869  0.6378  0.2864  1.2275
14904TIP3    H266204   6.602   3.293   1.007  0.4514  0.9157  1.3159
14905TIP3   OH266205   4.114   4.157   0.642  0.0520 -0.4864 -0.4623
14905TIP3    H166206   4.086   4.175   0.732 -0.4118  0.1621 -0.7308
14905TIP3    H266207   4.208   4.172   0.643 -0.0521  0.2043 -0.2418
14906TIP3   OH266208   5.386   1.444   3.377  0.0362  0.1291 -0.0428
14906TIP3    H166209   5.373   1.356   3.343 -0.2743  0.0973  0.1540
14906TIP3    H266210   5.305   1.464   3.425  1.1258 -0.4832  2.1759
14907TIP3   OH266211   1.949   1.663   2.075 -0.0363  0.3247 -0.1509
14907TIP3    H166212   1.924   1.571   2.070 -3.4284  1.1851 -2.5817
14907TIP3    H266213   1.920   1.692   2.162 -2.2441 -0.1554 -0.6803
14908TIP3   OH266214   1.317   7.046  14.724 -0.4735  0.0849  0.0291
14908TIP3    H166215   1.275   7.062  14.808 -1.7920 -1.4012 -0.3104
14908TIP3    H266216   1.267   6.975  14.684  0.6961  0.1072 -1.6118
14909TIP3   OH266217   6.536   6.532   4.716 -0.7663  0.0060 -0.3555
14909TIP3    H166218   6.629   6.529   4.739 -1.0559 -0.4737  0.8501
14909TIP3    H266219   6.526   6.614   4.668  0.3010  0.0009 -0.6113
14910TIP3   OH266220   2.395   1.812  11.558 -0.0849 -0.3371 -0.6397
14910TIP3    H166221   2.323   1.777  11.505 -1.2716  1.2982 -0.1861
14910TIP3    H266222   2.404   1.903  11.529  1.3772 -0.3256 -0.2207
14911TIP3   OH266223   1.518   4.842   2.682  0.2244 -0.3120 -0.0854
14911TIP3    H166224   1.458   4.854   2.609  1.1662  0.4572 -0.7723
14911TIP3    H266225   1.486   4.903   2.749 -1.8771 -2.4952  1.0293
14912TIP3   OH266226   6.220   3.603   3.294 -0.1599  0.0712 -0.1275
14912TIP3    H166227   6.299   3.611   3.347  0.0888  1.4634 -0.6586
14912TIP3    H266228   6.150   3.584   3.357  0.6270 -1.4784  0.3075
14913TIP3   OH266229   0.144   4.234  14.268 -0.0226  0.8279 -0.6638
14913TIP3    H166230   0.193   4.194  14.340 -1.9214 -0.8299 -0.1903
14913TIP3    H266231   0.187   4.203  14.189  0.7091  0.7854 -0.2554
14914TIP3   OH266232   3.575   0.530   6.006  0.1957 -0.2238  0.6119
14914TIP3    H166233   3.637   0.458   6.013  2.6155  1.7163  0.6584
14914TIP3    H266234   3.575   0.553   5.913 -0.8586 -0.4901  0.5322
14915TIP3   OH266235   1.874   1.153  14.864 -0.2540 -0.9993 -0.6556
14915TIP3    H166236   1.916   1.115  14.941 -0.3378  0.1211 -0.0258
14915TIP3    H266237   1.850   1.078  14.810  1.3269 -1.7317 -0.3984
14916TIP3   OH266238   4.902   0.948   3.350  0.2434  0.0406 -0.4701
14916TIP3    H166239   4.893   0.980   3.260  0.2717 -0.0286 -0.4972
14916TIP3    H266240   4.848   1.008   3.401  0.4368  0.2430 -0.4981
14917TIP3   OH266241   7.097   4.758   4.625 -0.3179  0.0825 -0.5076
14917TIP3    H166242   7.055   4.673   4.633  0.3049 -0.2025 -0.1840
14917TIP3    H266243   7.127   4.778   4.714 -2.0102  1.4653 -0.1999
14918TIP3   OH266244   0.299   0.030   4.815 -0.0110  0.6104 -0.1872
14918TIP3    H166245   0.266   0.090   4.881 -0.0826 -0.1047  0.4417
14918TIP3    H266246   0.393   0.047   4.811  0.2637 -0.3547  1.2059
14919TIP3   OH266247   1.616   6.373   0.886  1.0190  0.1676 -0.2098
14919TIP3    H166248   1.711   6.376   0.898  0.9099 -0.8026  1.1680
14919TIP3    H266249   1.585   6.317   0.957 -0.5835  0.3979 -0.6913
14920TIP3   OH266250   2.318   3.964   3.478  0.0237 -0.3851 -0.5228
14920TIP3    H166251   2.376   3.896   3.443 -1.0393 -1.4814 -0.2236
14920TIP3    H266252   2.232   3.922   3.482 -0.3242  0.4251  1.3184
14921TIP3   OH266253   5.031   5.685   4.862 -0.1435 -1.0811  0.1350
14921TIP3    H166254   5.095   5.633   4.814 -0.1853 -1.7524  0.7921
14921TIP3    H266255   5.083   5.744   4.917 -0.0952 -0.8862 -0.1191
14922TIP3   OH266256   7.011   2.703   3.849 -0.0572  0.0922 -0.1125
14922TIP3    H166257   7.046   2.699   3.938 -1.4806 -1.3143  0.4397
14922TIP3    H266258   6.932   2.756   3.856 -1.2207 -1.5655 -0.0996
14923TIP3   OH266259   1.388   3.605   2.088 -0.0086  0.2051  0.4033
14923TIP3    H166260   1.444   3.627   2.163 -0.2397  0.2102  0.5738
14923TIP3    H266261   1.302   3.639   2.111  0.1498  1.1400 -0.3144
14924TIP3   OH266262   3.994   0.275  13.632  0.0270  0.0607  0.4614
14924TIP3    H166263   3.943   0.270  13.713  0.3472  2.2378  0.8338
14924TIP3    H266264   4.074   0.226  13.651 -0.9555 -1.5785  0.5770
14925TIP3   OH266265   2.416   5.429   1.710 -0.2427  0.4709  0.2913
14925TIP3    H166266   2.493   5.372   1.709 -1.0305 -0.6260  0.0799
14925TIP3    H266267   2.437   5.499   1.649  0.3672 -0.1351 -0.2061
14926TIP3   OH266268   1.440   3.113   1.844 -0.5937 -0.2388  0.2731
14926TIP3    H166269   1.449   3.199   1.801 -1.8686 -0.5172 -0.6051
14926TIP3    H266270   1.453   3.050   1.774  1.3578 -0.8448  1.1014
14927TIP3   OH266271   6.359   5.743  14.916 -0.4279  0.7435 -0.0263
14927TIP3    H166272   6.379   5.698  14.998  1.1888  0.0947 -0.7265
14927TIP3    H266273   6.264   5.732  14.905 -0.2144 -1.8775  0.2158
14928TIP3   OH266274   5.709   3.216   2.143  0.4090  0.1754 -0.1096
14928TIP3    H166275   5.733   3.259   2.225  0.3914  0.9499 -0.5013
14928TIP3    H266276   5.722   3.283   2.076  0.2185 -0.3830 -0.7163
14929TIP3   OH266277   0.893   1.648   4.421 -0.1027 -0.2890 -0.5958
14929TIP3    H166278   0.905   1.616   4.511  2.4649 -1.3255 -1.2082
14929TIP3    H266279   0.922   1.739   4.424  0.4178 -0.4551 -0.4387
14930TIP3   OH266280   3.582   5.835   5.192 -0.5644  0.1715 -0.0786
14930TIP3    H166281   3.500   5.791   5.215  0.9701 -0.8355  4.7009
14930TIP3    H266282   3.579   5.918   5.240  2.0974 -1.0850  2.6425
14931TIP3   OH266283   5.338   1.891   1.280  0.3757  0.7318 -0.0178
14931TIP3    H166284   5.294   1.814   1.246  0.7942  0.4648  0.0459
14931TIP3    H266285   5.270   1.938   1.328  0.3034  0.0017  0.6110
14932TIP3   OH266286   5.814   3.597   4.711 -0.7130 -0.0841 -0.3611
14932TIP3    H166287   5.797   3.516   4.759  0.2008 -0.4030 -0.5505
14932TIP3    H266288   5.801   3.575   4.619  1.5815 -0.6240 -0.6116
14933TIP3   OH266289   6.766   6.846   5.278  0.6590  0.0188  0.2987
14933TIP3    H166290   6.818   6.890   5.211 -0.4597  0.9344  0.0030
14933TIP3    H266291   6.706   6.790   5.229 -1.6801  2.3325  0.3282
14934TIP3   OH266292   3.095   6.677   1.505  0.0755 -0.1485 -0.1614
14934TIP3    H166293   3.010   6.684   1.549  0.1689 -0.3524  0.0536
14934TIP3    H266294   3.089   6.738   1.432 -0.5178 -0.6768 -0.5689
14935TIP3   OH266295   3.827   0.102   5.288  0.7364 -0.1671 -0.4563
14935TIP3    H166296   3.819   0.070   5.378 -1.1519  1.1855 -0.0860
14935TIP3    H266297   3.919   0.125   5.279  0.5942  1.6802  1.8901
14936TIP3   OH266298   2.783   0.025   0.895 -0.0659 -0.2999 -0.1304
14936TIP3    H166299   2.688   0.012   0.895 -0.2555  0.8712  0.6316
14936TIP3    H266300   2.793   0.120   0.904  1.1841 -0.4235 -0.1076
14937TIP3   OH266301   5.483   4.822   4.123  0.0845 -0.5377  0.0381
14937TIP3    H166302   5.443   4.842   4.208  1.7172 -3.1470  1.5399
14937TIP3    H266303   5.444   4.739   4.097  0.2678 -0.2079 -1.3763
14938TIP3   OH266304   2.251   4.671   0.998  0.1884 -0.5751 -0.4494
14938TIP3    H166305   2.180   4.735   0.999 -1.2629 -2.1224 -0.0121
14938TIP3    H266306   2.324   4.716   1.039 -0.0092  1.5844 -2.2621
14939TIP3   OH266307   2.933   3.407  12.158  0.6752 -0.1018 -0.5389
14939TIP3    H166308   2.871   3.475  12.131 -0.5951 -1.1634 -0.3977
14939TIP3    H266309   2.926   3.405  12.254 -0.3003 -1.2938 -0.6039
14940TIP3   OH266310   3.536   6.903  13.478 -0.7974 -0.4201  0.0546
14940TIP3    H166311   3.497   6.900  13.565  0.4754  1.4990  0.7719
14940TIP3    H266312   3.509   6.988  13.443 -0.2102 -0.6050 -0.8826
14941TIP3   OH266313   5.289   2.919  14.804 -0.3857 -0.2602 -0.0009
14941TIP3    H166314   5.332   2.841  14.769 -0.8991 -1.1095  1.2325
14941TIP3    H266315   5.214   2.887  14.853 -0.9314  1.0494  0.0781
14942TIP3   OH266316   4.340   6.258  10.747  0.2583  0.1858 -0.2881
14942TIP3    H166317   4.292   6.322  10.800  0.9023 -0.7632  1.5273
14942TIP3    H266318   4.272   6.200  10.712 -0.1345 -2.6102  4.1623
14943TIP3   OH266319   6.268   5.727   5.025  0.5158 -0.1178 -0.1364
14943TIP3    H166320   6.347   5.739   4.972  1.0170  1.4401  0.8981
14943TIP3    H266321   6.272   5.797   5.090 -2.8881  1.5367 -1.4660
14944TIP3   OH266322   6.221   2.014   2.243 -0.1170 -0.0742 -0.5547
14944TIP3    H166323   6.258   1.941   2.194 -0.5677 -0.7397  0.0786
14944TIP3    H266324   6.292   2.079   2.246 -0.5600  0.6835 -3.4023
14945TIP3   OH266325   1.012   0.127   0.167 -0.0532 -0.3655 -0.0508
14945TIP3    H166326   1.075   0.088   0.227 -2.2740 -0.1023  2.6637
14945TIP3    H266327   1.017   0.221   0.184  0.0617 -0.1693 -1.1117
14946TIP3   OH266328   5.311   2.579   3.145 -0.3105  0.3293 -0.2230
14946TIP3    H166329   5.276   2.654   3.194 -0.3763  0.6216 -0.7081
14946TIP3    H266330   5.251   2.568   3.071  1.6967  2.1791 -2.2937
14947TIP3   OH266331   5.113   4.810  14.854  0.0320  0.7555  0.4323
14947TIP3    H166332   5.028   4.767  14.851 -0.1517  1.1614 -0.4586
14947TIP3    H266333   5.172   4.750  14.807 -0.9535  2.9619 -4.1960
14948TIP3   OH266334   3.055   0.146   2.640 -0.1663  0.5305 -0.1876
14948TIP3    H166335   3.030   0.152   2.732  1.1520  0.3619  0.2104
14948TIP3    H266336   3.072   0.237   2.614 -1.8664  0.7333 -0.6855
14949TIP3   OH266337   0.735   2.278   1.614 -0.5225 -0.8073  0.4556
14949TIP3    H166338   0.726   2.195   1.660  1.1248  0.3396  3.0864
14949TIP3    H266339   0.706   2.344   1.677 -1.4857  0.6796 -1.4391
14950TIP3   OH266340   6.844   6.367   1.104 -0.2125  0.0585  0.4324
14950TIP3    H166341   6.795   6.295   1.064 -2.1313  0.6399  1.6008
14950TIP3    H266342   6.899   6.401   1.033  1.0857 -2.7555 -0.0494
14951TIP3   OH266343   1.757   6.156   1.424 -0.0832 -0.1731  0.1810
14951TIP3    H166344   1.746   6.222   1.355  0.7051  1.1085  1.2452
14951TIP3    H266345   1.815   6.197   1.488  0.0000 -1.7131  1.1449
14952TIP3   OH266346   5.005   4.278   5.538 -0.5285 -0.4483 -0.2741
14952TIP3    H166347   5.067   4.226   5.486  1.9430  1.3511  0.6722
14952TIP3    H266348   4.968   4.340   5.475 -1.0441 -1.2155 -0.7512
14953TIP3   OH266349   2.523   3.259   2.770 -0.4622 -0.4462  1.0245
14953TIP3    H166350   2.564   3.328   2.823  0.7086  0.0120 -0.4155
14953TIP3    H266351   2.567   3.178   2.798  0.6861 -0.1045  0.2640
14954TIP3   OH266352   1.609   3.227   1.463 -0.1679  0.1615  0.2724
14954TIP3    H166353   1.584   3.219   1.555  1.6025  0.7219  0.8486
14954TIP3    H266354   1.576   3.313   1.436  0.1280  0.3995  0.6697
14955TIP3   OH266355   5.662   6.242  13.734 -0.0199 -0.3360 -0.0810
14955TIP3    H166356   5.588   6.195  13.771 -1.3315  1.3725 -0.4417
14955TIP3    H266357   5.735   6.179  13.739 -1.4684 -2.0688  0.2273
14956TIP3   OH266358   6.082   1.879   1.595  0.2311  0.6599  0.6744
14956TIP3    H166359   6.010   1.844   1.541 -0.4043  0.4624  1.6342
14956TIP3    H266360   6.096   1.813   1.662  0.2079  1.4438  1.4672
14957TIP3   OH266361   3.469   6.730  11.245 -0.0500  0.0861  0.5792
14957TIP3    H166362   3.388   6.760  11.205  0.3695  0.5293  0.0518
14957TIP3    H266363   3.524   6.704  11.172  0.1159 -0.6639  0.9572
14958TIP3   OH266364   1.998   3.170  13.371  0.0036  0.0851  0.5389
14958TIP3    H166365   2.012   3.190  13.279  2.4258 -1.8228  0.4123
14958TIP3    H266366   1.903   3.179  13.383 -0.0937  3.0506 -1.4058
14959TIP3   OH266367   3.661   2.746   5.182 -0.0960 -0.8735  0.3232
14959TIP3    H166368   3.663   2.761   5.087  0.5781  2.1037  0.6983
14959TIP3    H266369   3.568   2.747   5.204 -0.2189  0.6098 -0.0987
14960TIP3   OH266370   6.894   0.578   0.040  1.0979 -0.5866 -0.3235
14960TIP3    H166371   6.962   0.518   0.071  0.3863  0.0594  2.8975
14960TIP3    H266372   6.812   0.531   0.056  0.6068  0.5641  0.7570
14961TIP3   OH266373   1.399   0.651   1.572  0.4395  0.1703 -0.4216
14961TIP3    H166374   1.328   0.618   1.626  0.6195  0.1120 -0.2187
14961TIP3    H266375   1.423   0.578   1.515  0.7925 -0.0307 -0.0196
14962TIP3   OH266376   3.623   6.051  12.918  0.7284  0.7328 -0.2976
14962TIP3    H166377   3.632   6.138  12.879 -0.1351  0.8065 -0.3517
14962TIP3    H266378   3.617   5.992  12.843 -0.0338  0.7777 -0.2796
14963TIP3   OH266379   0.380   2.844   3.766 -0.5017  0.0469  0.0470
14963TIP3    H166380   0.288   2.870   3.757 -0.3404  0.2688 -1.1094
14963TIP3    H266381   0.378   2.749   3.770 -0.8499  0.0874  0.9486
14964TIP3   OH266382   2.132   3.775   3.577  0.3239  0.8683  0.0272
14964TIP3    H166383   2.216   3.783   3.621  0.0624 -0.6567  0.8916
14964TIP3    H266384   2.080   3.848   3.610  0.1417 -0.2280  2.3183
14965TIP3   OH266385   0.159   5.372   3.369 -0.1410  0.0944  0.1249
14965TIP3    H166386   0.135   5.341   3.456 -0.4161 -2.5835 -0.8303
14965TIP3    H266387   0.247   5.408   3.380 -0.9941  1.8578  1.8819
14966TIP3   OH266388   5.183   7.201   0.870  0.3464 -0.1769 -0.5746
14966TIP3    H166389   5.101   7.204   0.920 -0.7262  1.3121 -2.2859
14966TIP3    H266390   5.201   7.293   0.848  2.2744 -0.5188 -0.5818
14967TIP3   OH266391   4.923   3.978   3.925  0.0322 -0.0178 -0.0631
14967TIP3    H166392   4.906   4.002   4.016 -1.9821  0.9377 -0.6406
14967TIP3    H266393   4.868   3.902   3.909 -0.9659  0.8636 -0.9475
14968TIP3   OH266394   5.979   3.088   1.010 -0.7778  0.9716 -0.3834
14968TIP3    H166395   5.923   3.166   1.011 -1.2316  0.7077 -2.2139
14968TIP3    H266396   5.919   3.015   1.022 -0.7157  0.7554 -1.3053
14969TIP3   OH266397   0.665   0.507  14.208 -0.0615 -0.0004  0.5711
14969TIP3    H166398   0.587   0.541  14.252 -0.5803  0.9575 -0.9889
14969TIP3    H266399   0.633   0.480  14.122  1.2330 -0.0493  0.0897
14970TIP3   OH266400   5.135   5.797  11.810  0.3546 -0.0307  0.1916
14970TIP3    H166401   5.152   5.723  11.751 -1.7112 -0.7898  0.4443
14970TIP3    H266402   5.201   5.790  11.878 -0.8948 -2.8560  1.2594
14971TIP3   OH266403   5.951   3.937   2.610  0.1043 -0.1460 -0.1777
14971TIP3    H166404   6.033   3.896   2.636 -0.4008 -1.5033 -0.6034
14971TIP3    H266405   5.916   3.879   2.541  0.6895  2.4532 -2.8791
14972TIP3   OH266406   4.691   4.721  13.307 -0.3607 -0.6162 -0.0528
14972TIP3    H166407   4.626   4.785  13.280 -0.5803 -0.6996  0.2798
14972TIP3    H266408   4.756   4.772  13.355 -0.5876 -0.6618  0.2991
14973TIP3   OH266409   1.826   2.153   0.206  0.6051  0.2955  0.5321
14973TIP3    H166410   1.794   2.203   0.282  1.5967  0.1596  1.0453
14973TIP3    H266411   1.873   2.079   0.244  0.2573 -0.3215 -0.2293
14974TIP3   OH266412   4.625   5.406  12.503  0.0238  0.4034 -0.2530
14974TIP3    H166413   4.532   5.418  12.486  0.4540  1.4134 -2.0908
14974TIP3    H266414   4.636   5.436  12.594 -1.5892 -0.7409  0.3603
14975TIP3   OH266415   5.322   2.394   3.374  0.4513 -0.6563  0.0400
14975TIP3    H166416   5.415   2.414   3.382  0.2697  0.1555  0.2304
14975TIP3    H266417   5.296   2.436   3.292 -0.1966  0.9521  1.0265
14976TIP3   OH266418   6.885   0.767   5.689  0.1493  0.7962 -0.1658
14976TIP3    H166419   6.900   0.823   5.613  0.5462  0.6620 -0.1858
14976TIP3    H266420   6.826   0.819   5.745 -0.9804  0.4828 -1.0226
14977TIP3   OH266421   0.760   1.378  14.475 -1.0360  0.2220 -0.3127
14977TIP3    H166422   0.704   1.390  14.398 -0.9251  0.8453 -0.2980
14977TIP3    H266423   0.715   1.311  14.527 -0.8464 -0.5922 -1.1659
14978TIP3   OH266424   0.575   0.955   5.873 -0.1810  0.0591  0.2314
14978TIP3    H166425   0.631   0.978   5.947  1.7149  2.2366 -1.7653
14978TIP3    H266426   0.582   0.859   5.866  1.3198  0.0447  1.5192
14979TIP3   OH266427   3.554   2.551   4.758 -1.1881 -0.1285 -0.0753
14979TIP3    H166428   3.564   2.607   4.681  0.9690 -0.8169 -0.3403
14979TIP3    H266429   3.587   2.466   4.731  2.4431  0.2976  2.3703
14980TIP3   OH266430   4.078   2.248  12.465  0.1516 -0.4400 -0.2903
14980TIP3    H166431   4.091   2.337  12.496  1.5211 -0.8999  0.5741
14980TIP3    H266432   4.070   2.256  12.370 -0.3092  0.6434 -0.1730
14981TIP3   OH266433   3.669   6.941   2.330 -0.5318 -0.0988  1.0585
14981TIP3    H166434   3.631   6.914   2.247 -0.3729  0.1478  0.9046
14981TIP3    H266435   3.729   6.869   2.353 -0.0271  0.1670  0.5947
14982TIP3   OH266436   1.988   3.230  13.090 -0.1181 -1.0410 -0.0343
14982TIP3    H166437   1.955   3.183  13.014 -0.0604  1.1744 -1.5085
14982TIP3    H266438   1.926   3.302  13.102  0.6015 -0.6051  1.2237
14983TIP3   OH266439   5.618   6.760  13.890  0.2321  0.2054  0.2498
14983TIP3    H166440   5.622   6.675  13.845 -3.4346 -1.1829  2.1578
14983TIP3    H266441   5.627   6.824  13.820  2.2277 -1.7026 -1.3880
14984TIP3   OH266442   1.711   0.827  14.924 -0.2029 -0.3595 -0.1958
14984TIP3    H166443   1.802   0.819  14.954  0.5102  3.1971 -0.9362
14984TIP3    H266444   1.660   0.824  15.005  0.9542  1.1159  0.6552
14985TIP3   OH266445   5.712   0.950  12.475 -0.0740 -0.0385  0.2302
14985TIP3    H166446   5.788   0.926  12.529 -0.1112  1.2393  0.8856
14985TIP3    H266447   5.740   0.932  12.385  0.9528  0.2692  0.4778
14986TIP3   OH266448   5.501   5.412   2.589 -0.4548  0.7249  0.1244
14986TIP3    H166449   5.556   5.490   2.576 -2.5186  2.6902  2.1193
14986TIP3    H266450   5.541   5.368   2.664  0.5969 -0.0822 -0.8776
14987TIP3   OH266451   1.050   5.154   3.292  0.2096  0.2316  0.3778
14987TIP3    H166452   1.008   5.068   3.282  0.2954  0.2034  0.2609
14987TIP3    H266453   1.045   5.193   3.205 -0.2329  0.5297  0.5334
14988TIP3   OH266454   1.131   4.986   5.454 -0.1503 -0.4444  0.2692
14988TIP3    H166455   1.114   4.958   5.364  1.9988  0.7320 -0.5724
14988TIP3    H266456   1.211   4.939   5.480 -0.2007 -0.0386  1.2234
14989TIP3   OH266457   3.256   1.532  11.746  0.2471  0.4661 -0.3593
14989TIP3    H166458   3.219   1.444  11.749 -0.0713  0.6184  0.1590
14989TIP3    H266459   3.214   1.579  11.818 -0.6396  1.4498 -1.4812
14990TIP3   OH266460   4.252   0.307  11.857  0.1401  0.1295 -0.4258
14990TIP3    H166461   4.226   0.216  11.871  0.4543 -0.0879 -1.2014
14990TIP3    H266462   4.320   0.322  11.923 -0.7947  0.2071  0.5505
14991TIP3   OH266463   1.284   2.920   3.492 -0.6696  0.2964  0.0931
14991TIP3    H166464   1.329   2.979   3.431  0.2286  0.7369  1.1520
14991TIP3    H266465   1.214   2.881   3.440 -1.6835  2.7508 -0.5028
14992TIP3   OH266466   0.824   5.895   2.753  0.5626  0.4365 -0.8000
14992TIP3    H166467   0.730   5.909   2.750  0.1975 -1.4326  0.4701
14992TIP3    H266468   0.856   5.934   2.672 -1.1320  2.1044 -0.7229
14993TIP3   OH266469   0.451   4.328   4.180  0.4437  0.1947 -0.1209
14993TIP3    H166470   0.408   4.294   4.258 -0.3258  2.3175  0.4630
14993TIP3    H266471   0.525   4.379   4.213 -0.0628  1.3704 -0.7180
14994TIP3   OH266472   3.013   2.421  12.847 -0.4223  0.1456  1.0034
14994TIP3    H166473   2.935   2.444  12.797 -0.7804 -1.4834  0.7635
14994TIP3    H266474   3.040   2.336  12.812  2.4104  1.3357 -0.0597
14995TIP3   OH266475   4.708   4.891  13.843 -0.8504 -0.4315 -0.2575
14995TIP3    H166476   4.758   4.941  13.779 -1.3377  0.3852 -0.0139
14995TIP3    H266477   4.640   4.847  13.791 -0.5705 -0.6451 -0.4431
14996TIP3   OH266478   5.657   2.283   5.169  0.6086 -0.3649 -0.4621
14996TIP3    H166479   5.632   2.229   5.244 -1.5456  3.1208  1.5799
14996TIP3    H266480   5.726   2.340   5.202  0.6655  0.2332 -1.5792
14997TIP3   OH266481   6.421   1.246   0.456 -0.1509  0.1134 -0.3062
14997TIP3    H166482   6.423   1.150   0.455 -1.3840 -0.1316  3.5053
14997TIP3    H266483   6.331   1.268   0.432 -0.2136  0.2169  0.0149
14998TIP3   OH266484   1.998   4.962  14.698  0.4833  0.8955  0.6252
14998TIP3    H166485   2.051   4.950  14.620  0.3318 -1.4710  0.7988
14998TIP3    H266486   2.061   4.982  14.768  1.1577 -1.2795  0.7107
14999TIP3   OH266487   3.276   6.512   4.021  0.3747 -0.1954  0.1394
14999TIP3    H166488   3.302   6.587   3.967  2.6131  0.1447  1.5780
14999TIP3    H266489   3.225   6.551   4.092 -0.9608 -0.4274 -0.6571
15000TIP3   OH266490   3.920   1.053   1.380  0.0746  0.2749  0.3386
15000TIP3    H166491   3.826   1.063   1.391 -0.0060 -0.3023  0.2118
15000TIP3    H266492   3.957   1.133   1.416 -0.3527 -0.2742  2.1192
15001TIP3   OH266493   3.349   6.573  10.038  0.5677  0.3843  0.3058
15001TIP3    H166494   3.433   6.534  10.013 -0.0046 -0.8540  0.2408
15001TIP3    H266495   3.324   6.627   9.963  1.1226  0.4628  0.1710
15002TIP3   OH266496   6.461   7.128   0.169  0.2456 -0.2551 -0.3363
15002TIP3    H166497   6.448   7.150   0.262  0.9002  1.1462 -0.5481
15002TIP3    H266498   6.489   7.210   0.129  1.1183 -1.1171 -1.5614
15003TIP3   OH266499   5.487   5.206   5.271  0.6721 -0.0529  0.2794
15003TIP3    H166500   5.563   5.164   5.311  0.2911 -0.0018  1.0857
15003TIP3    H266501   5.429   5.225   5.345 -0.1431 -0.1357 -0.3247
15004TIP3   OH266502   5.664   0.659   5.874  0.6481  0.6919 -0.2362
15004TIP3    H166503   5.639   0.572   5.905 -0.1807  0.2796 -1.9282
15004TIP3    H266504   5.742   0.644   5.820 -0.3276  0.7445 -1.7139
15005TIP3   OH266505   3.851   0.099   1.460 -0.2654 -0.3327 -0.0138
15005TIP3    H166506   3.828   0.192   1.463 -1.2650 -0.5896  0.9722
15005TIP3    H266507   3.932   0.092   1.511  0.6905  0.2057 -1.3936
15006TIP3   OH266508   1.436   1.738   0.862  0.6974  0.7044  0.0158
15006TIP3    H166509   1.465   1.791   0.936 -0.9528  1.3192  0.2484
15006TIP3    H266510   1.373   1.676   0.899 -0.6479  1.4571 -0.9493
15007TIP3   OH266511   4.268   5.516   4.305 -0.1622  0.0336  0.1849
15007TIP3    H166512   4.229   5.568   4.376  0.1492  1.7247 -0.8306
15007TIP3    H266513   4.203   5.449   4.286 -1.4221  1.1701  0.3199
15008TIP3   OH266514   3.042   5.763   3.099  0.1445  0.6627 -0.0361
15008TIP3    H166515   3.048   5.668   3.108 -0.3470  0.6950  0.6931
15008TIP3    H266516   3.125   5.789   3.058 -0.0120 -0.1509 -0.9079
15009TIP3   OH266517   1.882   2.252   1.950 -0.0518 -0.2017 -0.0285
15009TIP3    H166518   1.950   2.218   2.008  0.7933  0.0753 -0.8270
15009TIP3    H266519   1.923   2.252   1.863 -0.7989  0.7381 -0.3944
15010TIP3   OH266520   3.207   5.567  10.914 -0.0352  0.4257 -0.1176
15010TIP3    H166521   3.257   5.500  10.867  1.4626  0.5836  1.1606
15010TIP3    H266522   3.191   5.635  10.849  1.4815  0.3902 -0.5690
15011TIP3   OH266523   0.945   2.384   3.395  0.0129  0.0930  0.6479
15011TIP3    H166524   0.937   2.425   3.481 -2.4650  2.5542 -0.6309
15011TIP3    H266525   1.024   2.423   3.357  2.2391 -2.3737  2.3061
15012TIP3   OH266526   2.320   6.137  10.630  0.4514  0.0859 -0.0504
15012TIP3    H166527   2.347   6.133  10.539 -0.7832 -0.1433 -0.4285
15012TIP3    H266528   2.272   6.219  10.638 -0.6643 -0.5488  0.0162
15013TIP3   OH266529   2.720   1.116   5.145  0.1903  0.0184  0.5145
15013TIP3    H166530   2.688   1.173   5.215  1.0000 -0.1119  0.9941
15013TIP3    H266531   2.677   1.032   5.161 -0.3398  0.2412  0.3042
15014TIP3   OH266532   6.463   3.450  11.354 -0.6594  0.2927 -0.4931
15014TIP3    H166533   6.538   3.418  11.406 -0.8099  0.1095 -0.3874
15014TIP3    H266534   6.464   3.545  11.366 -1.2103  0.1777  0.5431
15015TIP3   OH266535   4.857   5.571   0.090 -1.0963  0.2878  0.3392
15015TIP3    H166536   4.767   5.596   0.070 -1.5800  0.2378  2.2694
15015TIP3    H266537   4.849   5.502   0.156  0.3331 -1.2569 -0.9974
15016TIP3   OH266538   1.374   3.133   2.918  0.3277  0.1083  0.5428
15016TIP3    H166539   1.463   3.122   2.886  0.3121 -1.7964  1.0501
15016TIP3    H266540   1.322   3.151   2.839  1.0305  0.4499  0.1479
15017TIP3   OH266541   5.410   3.069  14.572 -0.2949  0.5649  0.0447
15017TIP3    H166542   5.428   3.011  14.646 -0.3050 -0.3582 -0.6695
15017TIP3    H266543   5.329   3.113  14.596  0.1648  0.9312  0.9718
15018TIP3   OH266544   0.798   6.261   2.435 -0.6379 -0.4596  0.2336
15018TIP3    H166545   0.737   6.324   2.473 -1.0784 -2.0137  2.3204
15018TIP3    H266546   0.748   6.219   2.365 -0.8171  0.4989 -0.2336
15019TIP3   OH266547   1.127   2.569   2.009  0.4216 -0.2892 -0.1299
15019TIP3    H166548   1.156   2.618   1.931 -0.9222  0.8341  0.0378
15019TIP3    H266549   1.092   2.637   2.068 -2.3469 -1.4890 -0.2484
15020TIP3   OH266550   0.352   3.363   1.362  1.0433  0.6211 -0.2325
15020TIP3    H166551   0.392   3.412   1.290  0.2813  1.9748  0.2209
15020TIP3    H266552   0.258   3.377   1.350  0.9316  1.9428  1.7147
15021TIP3   OH266553   3.816   5.636   5.492 -0.3032 -0.0154 -0.0397
15021TIP3    H166554   3.761   5.701   5.535 -0.2272  0.1855 -0.2409
15021TIP3    H266555   3.757   5.587   5.435 -0.3210  0.0302 -0.0605
15022TIP3   OH266556   5.542   2.291   4.533  1.0358  0.0954  0.7807
15022TIP3    H166557   5.560   2.202   4.562  0.2184 -1.3048 -2.6030
15022TIP3    H266558   5.474   2.322   4.593  0.2251 -2.1330  1.1051
15023TIP3   OH266559   6.234   2.197   0.615  0.5432 -0.1589 -0.1691
15023TIP3    H166560   6.314   2.164   0.573 -0.6482 -0.6809 -2.1283
15023TIP3    H266561   6.265   2.237   0.697  2.6915 -1.1340 -0.4428
15024TIP3   OH266562   1.734   0.602   4.770  0.3772  0.2549 -0.0669
15024TIP3    H166563   1.682   0.535   4.725  1.1190 -0.5907  0.2987
15024TIP3    H266564   1.770   0.656   4.700 -1.9671  1.6371 -0.2824
15025TIP3   OH266565   5.113   4.709   2.066 -0.1753 -0.0564 -0.0576
15025TIP3    H166566   5.096   4.728   1.974 -1.2108  1.0444  0.3331
15025TIP3    H266567   5.125   4.795   2.107 -1.6581 -0.3890  1.1676
15026TIP3   OH266568   6.207   5.825   0.720 -0.4349 -0.0681  0.0011
15026TIP3    H166569   6.286   5.876   0.735 -1.0820  0.2737  3.0568
15026TIP3    H266570   6.233   5.756   0.660  2.2830 -0.0929  1.0851
15027TIP3   OH266571   0.658   0.586   4.768  0.3244  0.1935  0.3622
15027TIP3    H166572   0.613   0.621   4.845 -0.2470 -1.2754  0.7289
15027TIP3    H266573   0.611   0.506   4.747  1.6181 -0.4051 -0.3829
15028TIP3   OH266574   2.569   6.900   1.559 -0.3695 -0.6338 -0.5274
15028TIP3    H166575   2.511   6.889   1.635 -0.8214  1.1927 -0.5596
15028TIP3    H266576   2.512   6.937   1.491  1.0606  2.6489 -0.0917
15029TIP3   OH266577   5.769   2.622   2.119 -0.2747 -0.0721 -0.2434
15029TIP3    H166578   5.707   2.611   2.190  0.2230 -0.1820  0.1791
15029TIP3    H266579   5.765   2.715   2.097  1.2094  0.4435  1.4660
15030TIP3   OH266580   0.356   2.594   2.610  0.6862 -0.0403  0.0542
15030TIP3    H166581   0.439   2.547   2.601  1.6251  1.7387 -1.1828
15030TIP3    H266582   0.348   2.609   2.704  2.1917  0.4466  0.1308
15031TIP3   OH266583   7.227   0.727   5.025 -0.2491  0.0254  0.4089
15031TIP3    H166584   7.162   0.688   5.083 -0.8392  0.6681  0.1989
15031TIP3    H266585   7.190   0.812   5.002  0.7423  0.4643  0.4030
15032TIP3   OH266586   4.794   0.932   2.695  0.3346  0.6694  0.3284
15032TIP3    H166587   4.862   0.917   2.760 -0.5920  1.9482  1.6614
15032TIP3    H266588   4.841   0.968   2.619  1.2414  0.6851  0.8784
15033TIP3   OH266589   4.494   1.561   5.211  0.0414  0.1724  0.1882
15033TIP3    H166590   4.531   1.645   5.186 -1.5427  1.2836  1.3220
15033TIP3    H266591   4.551   1.528   5.280 -0.3998  1.2887  1.1057
15034TIP3   OH266592   1.453   6.717  13.018 -0.0550 -0.6727  1.0780
15034TIP3    H166593   1.434   6.673  12.935 -0.2561  0.5436  0.4607
15034TIP3    H266594   1.417   6.658  13.085 -2.1320 -0.5246  0.1738
15035TIP3   OH266595   6.569   1.788   2.473  0.5069 -0.3662 -0.3909
15035TIP3    H166596   6.594   1.845   2.545  0.4748 -1.5894  0.6306
15035TIP3    H266597   6.546   1.847   2.402 -0.1405  0.8937  0.8259
15036TIP3   OH266598   5.896   2.728   0.885  0.0036  0.0062 -0.3735
15036TIP3    H166599   5.990   2.728   0.903  0.2357 -0.3749 -1.5200
15036TIP3    H266600   5.861   2.797   0.941  0.9527  0.1198  0.1064
15037TIP3   OH266601   6.686   5.744  14.905  0.3549  0.2049  0.4477
15037TIP3    H166602   6.608   5.796  14.888 -0.9697 -2.2866 -1.9087
15037TIP3    H266603   6.758   5.808  14.907 -1.3042  2.2472 -0.8945
15038TIP3   OH266604   6.377   4.911   2.870  0.2448  1.5068  0.3131
15038TIP3    H166605   6.420   4.828   2.848 -0.8230  1.4384 -1.8861
15038TIP3    H266606   6.371   4.911   2.965 -0.0225 -1.1116  0.3692
15039TIP3   OH266607   0.183   5.004   0.770 -0.1787  0.3241 -0.0773
15039TIP3    H166608   0.116   4.955   0.817  0.8703 -1.4644 -0.3527
15039TIP3    H266609   0.202   5.079   0.826 -1.4032  0.1089  0.6631
15040TIP3   OH266610   4.050   4.180  10.451  0.2213 -0.0171 -0.0106
15040TIP3    H166611   4.086   4.173  10.362 -0.7157 -0.4945 -0.3694
15040TIP3    H266612   4.127   4.184  10.507  0.8864  2.3111 -0.9535
15041TIP3   OH266613   1.297   3.049   0.985 -0.4363 -0.3814  0.0137
15041TIP3    H166614   1.381   3.004   0.984 -0.8698 -1.2633  1.4583
15041TIP3    H266615   1.304   3.113   0.914 -0.2359 -3.4533 -3.0061
15042TIP3   OH266616   3.543   1.055   3.305 -0.0546 -0.2982  0.0428
15042TIP3    H166617   3.468   1.045   3.363  0.6140 -0.7258  0.8452
15042TIP3    H266618   3.561   0.966   3.273  0.2982 -0.2470  0.0936
15043TIP3   OH266619   4.379   5.059  12.400 -0.0424  0.1199 -0.6782
15043TIP3    H166620   4.430   5.120  12.345 -0.8441  0.9181 -0.5607
15043TIP3    H266621   4.398   5.086  12.490 -0.1329 -0.0186 -0.6178
15044TIP3   OH266622   6.134   2.104  13.142 -0.2787 -0.0335  0.2258
15044TIP3    H166623   6.064   2.044  13.115  0.0344 -0.8140  1.0903
15044TIP3    H266624   6.112   2.128  13.231  0.6607 -0.4629  0.5879
15045TIP3   OH266625   2.467   7.013   3.106  0.0001 -0.1610 -0.1558
15045TIP3    H166626   2.385   6.991   3.061  0.9663  0.8776 -2.6577
15045TIP3    H266627   2.450   7.098   3.148 -0.1771  0.1504 -0.8384
15046TIP3   OH266628   3.759   6.865   0.256 -0.3181 -1.0634 -0.4371
15046TIP3    H166629   3.750   6.873   0.161  0.1591 -1.5545 -0.5308
15046TIP3    H266630   3.742   6.953   0.289  2.2860 -0.1499 -1.2195
15047TIP3   OH266631   5.680   3.617  12.492  0.0944  0.2480  0.1022
15047TIP3    H166632   5.586   3.602  12.499  0.5109 -2.4523  0.9901
15047TIP3    H266633   5.691   3.710  12.516 -2.2630  0.5227  0.3939
15048TIP3   OH266634   6.993   0.875   4.748 -0.4277  0.5365 -0.1304
15048TIP3    H166635   6.925   0.862   4.681  2.6416 -1.1667 -3.2572
15048TIP3    H266636   7.014   0.787   4.778  0.9277  0.9250  0.1136
15049TIP3   OH266637   4.705   4.041  15.295  0.0558  0.1658 -0.4735
15049TIP3    H166638   4.715   4.135  15.282 -1.6085  0.4311 -0.0624
15049TIP3    H266639   4.795   4.007  15.296  0.8714  2.0785  1.7039
15050TIP3   OH266640   1.023   2.295  10.459  0.0684 -0.5029  0.2177
15050TIP3    H166641   0.943   2.291  10.406 -0.3473 -0.3523  0.8091
15050TIP3    H266642   1.034   2.207  10.493  0.5110 -0.6755 -0.3626
15051TIP3   OH266643   6.361   5.353   5.345 -0.1734 -0.3702 -1.0116
15051TIP3    H166644   6.437   5.296   5.334  0.8998  1.0993 -1.3867
15051TIP3    H266645   6.335   5.376   5.256 -0.8878 -0.6121 -0.8738
15052TIP3   OH266646   3.186   1.119  12.197  0.1400 -0.1332  0.2201
15052TIP3    H166647   3.133   1.186  12.153  0.9831  0.7332  0.4948
15052TIP3    H266648   3.191   1.047  12.134 -0.4417  0.2219 -0.2435
15053TIP3   OH266649   6.926   6.754   4.290  0.4025  0.2978  0.3620
15053TIP3    H166650   6.929   6.842   4.251  0.7481  0.1398  0.0203
15053TIP3    H266651   6.970   6.764   4.374 -0.3778  0.6522  0.7293
15054TIP3   OH266652   0.396   1.498  10.881 -0.5310  0.3602  0.1788
15054TIP3    H166653   0.334   1.433  10.914 -1.4204  0.5965 -0.9561
15054TIP3    H266654   0.370   1.511  10.790  0.9866  0.7243 -0.2180
15055TIP3   OH266655   6.070   4.205   5.056  0.1939 -0.2193  0.0972
15055TIP3    H166656   6.027   4.188   5.140  0.3266 -1.1771 -0.0185
15055TIP3    H266657   6.038   4.136   4.999 -1.6163  1.6445 -1.3002
15056TIP3   OH266658   6.130   3.207   3.542  0.0493 -0.2801 -0.6511
15056TIP3    H166659   6.180   3.135   3.582 -0.9678 -1.0942 -0.8019
15056TIP3    H266660   6.177   3.286   3.569  1.2341 -0.9941 -0.5368
15057TIP3   OH266661   2.842   0.933   5.786 -0.3413 -1.4034  0.5252
15057TIP3    H166662   2.802   0.889   5.711 -0.6160 -1.7273  0.8578
15057TIP3    H266663   2.816   1.025   5.776  2.3942 -0.7545 -1.6056
15058TIP3   OH266664   0.336   5.645   3.950  0.6594 -0.7564 -0.3563
15058TIP3    H166665   0.251   5.604   3.964  1.2408 -2.7078 -1.9535
15058TIP3    H266666   0.390   5.614   4.023  0.4113 -0.7711 -0.1795
15059TIP3   OH266667   5.792   7.144   4.929 -0.2385  0.2717  0.0029
15059TIP3    H166668   5.752   7.121   4.845  1.0542  1.1739 -0.9019
15059TIP3    H266669   5.729   7.205   4.968 -1.8297 -1.6959  0.6808
15060TIP3   OH266670   5.317   2.982   4.485  0.5501  0.0546  0.0370
15060TIP3    H166671   5.227   2.966   4.511  0.9913  0.1183  1.7073
15060TIP3    H266672   5.311   3.011   4.394 -1.0591 -0.3498 -0.0155
15061TIP3   OH266673   4.080   5.054   3.644 -0.6852  0.1013 -0.1490
15061TIP3    H166674   4.105   5.074   3.554  0.6351 -0.7788 -0.0102
15061TIP3    H266675   4.005   4.995   3.636 -0.9866  0.5463 -0.6468
15062TIP3   OH266676   0.120   1.479  12.770 -0.5598 -0.1491 -0.1339
15062TIP3    H166677   0.210   1.447  12.776 -1.1705 -1.6630  3.1935
15062TIP3    H266678   0.126   1.573  12.788  0.3608 -0.1132 -0.5759
15063TIP3   OH266679   3.253   1.140   4.080 -0.0372 -0.3569 -0.0877
15063TIP3    H166680   3.287   1.085   4.009 -1.2335 -0.4462 -0.6121
15063TIP3    H266681   3.165   1.108   4.096 -0.6942  1.2604 -0.2616
15064TIP3   OH266682   7.080   6.443   5.906  0.0031  0.0782 -0.0123
15064TIP3    H166683   7.164   6.407   5.877 -0.1148 -1.5809  1.5292
15064TIP3    H266684   7.103   6.503   5.977 -0.0266  0.8088 -0.6063
15065TIP3   OH266685   5.415   2.641  15.152 -0.5449 -0.8554  0.6026
15065TIP3    H166686   5.347   2.615  15.215 -2.4998  4.3389  1.1483
15065TIP3    H266687   5.485   2.677  15.207  0.4524 -1.6916 -0.0999
15066TIP3   OH266688   6.053   6.069  14.192 -0.3744  0.0839 -0.1738
15066TIP3    H166689   6.017   6.152  14.161 -0.8271  0.6117  1.6390
15066TIP3    H266690   5.978   6.010  14.196 -0.3708  0.0999  0.1530
15067TIP3   OH266691   5.648   5.540   4.613  0.7095  0.2882 -0.9653
15067TIP3    H166692   5.659   5.635   4.605 -2.7911  0.7008 -2.5867
15067TIP3    H266693   5.691   5.505   4.534  1.7772  0.5159 -0.4978
15068TIP3   OH266694   3.189   3.380   4.158  0.4992 -0.0008 -0.4147
15068TIP3    H166695   3.139   3.457   4.185 -0.2053 -0.1292 -1.3092
15068TIP3    H266696   3.186   3.381   4.063  1.8430 -0.2643 -0.4798
15069TIP3   OH266697   6.798   5.266   3.605  0.1157  0.0456  0.0393
15069TIP3    H166698   6.831   5.356   3.605  0.9708 -0.2550 -0.9989
15069TIP3    H266699   6.703   5.275   3.608  0.2059  0.9400  2.2998
15070TIP3   OH266700   4.206   4.672  12.962  0.2678  0.0159  0.7689
15070TIP3    H166701   4.277   4.657  12.899 -0.2111 -0.7971  0.4081
15070TIP3    H266702   4.184   4.764  12.953  0.0161 -0.1574 -0.4549
15071TIP3   OH266703   6.032   6.369   2.892 -0.1388 -0.4840  0.5742
15071TIP3    H166704   5.984   6.428   2.951 -2.0475 -0.1866 -1.1745
15071TIP3    H266705   6.017   6.282   2.928 -0.8383 -0.2662  0.8278
15072TIP3   OH266706   4.169   6.678   2.384  0.5606  0.6157  0.7783
15072TIP3    H166707   4.184   6.584   2.375 -0.5917  0.5613 -1.0510
15072TIP3    H266708   4.140   6.689   2.474 -1.9236 -1.2092  0.2954
15073TIP3   OH266709   2.808   3.132   5.062 -0.0429 -0.3267  0.1649
15073TIP3    H166710   2.770   3.058   5.014  1.7103 -1.4394  0.4130
15073TIP3    H266711   2.770   3.125   5.150 -0.6638 -0.3059 -0.0961
15074TIP3   OH266712   4.530   1.363   0.851 -0.3729 -0.3584 -0.1115
15074TIP3    H166713   4.469   1.298   0.884 -0.9017  0.6210  0.9304
15074TIP3    H266714   4.474   1.432   0.814  0.1794 -0.6012 -1.4692
15075TIP3   OH266715   5.142   2.045   5.022 -0.1020  0.3223 -0.0953
15075TIP3    H166716   5.225   2.040   5.069 -1.0164  1.7488  1.7675
15075TIP3    H266717   5.079   1.998   5.077 -1.1103  1.6199 -0.0994
15076TIP3   OH266718   0.158   0.227  13.287  0.0420  0.7544 -0.4043
15076TIP3    H166719   0.170   0.268  13.201  2.1209  0.5221 -0.2588
15076TIP3    H266720   0.233   0.169  13.297 -0.9130 -0.3210  0.9852
15077TIP3   OH266721   5.469   6.070  13.806  0.2234 -0.7069 -0.7499
15077TIP3    H166722   5.474   6.006  13.876 -0.5033  0.6036  0.5666
15077TIP3    H266723   5.398   6.040  13.750  0.0842 -1.1904 -0.3174
15078TIP3   OH266724   4.243   6.371   2.342 -0.0761 -0.2244  0.2707
15078TIP3    H166725   4.217   6.340   2.255  0.7835 -0.1013 -0.0417
15078TIP3    H266726   4.200   6.312   2.403  0.7185 -1.4224 -0.2883
15079TIP3   OH266727   1.003   3.150  11.677 -0.0312 -0.3418  0.3965
15079TIP3    H166728   1.094   3.129  11.657 -0.0254  0.1546 -0.1046
15079TIP3    H266729   0.995   3.244  11.663 -0.5844 -0.3518  0.5877
15080TIP3   OH266730   0.950   4.826   3.858  0.4601  0.8018 -0.3035
15080TIP3    H166731   0.971   4.742   3.900  0.1706  0.5365 -0.6859
15080TIP3    H266732   1.029   4.847   3.808  0.0074  0.0342 -1.3680
15081TIP3   OH266733   5.735   0.888  14.738 -0.3470  0.2702  0.0849
15081TIP3    H166734   5.740   0.922  14.648  2.1596 -1.8474 -0.7009
15081TIP3    H266735   5.800   0.938  14.786  1.1503 -1.1976 -0.3245
15082TIP3   OH266736   2.211   5.767   1.644 -0.1890 -0.4299  0.2046
15082TIP3    H166737   2.298   5.738   1.615 -0.0594 -1.0985  1.2317
15082TIP3    H266738   2.150   5.729   1.580  0.2198 -0.4239 -0.1962
15083TIP3   OH266739   3.933   6.927   4.263 -0.2102  0.2965  0.1427
15083TIP3    H166740   4.028   6.926   4.266 -0.2355  0.7250  1.9537
15083TIP3    H266741   3.912   6.920   4.170  1.6109  1.4445 -0.3992
15084TIP3   OH266742   7.143   1.287  11.056 -0.5913 -0.0535  0.0989
15084TIP3    H166743   7.083   1.214  11.039 -0.0528 -1.2078  2.6347
15084TIP3    H266744   7.212   1.249  11.110  2.1061  1.4085 -2.0696
15085TIP3   OH266745   3.624   6.392   4.196 -0.7490  0.1365  0.6918
15085TIP3    H166746   3.711   6.382   4.235 -1.1666  1.3205  1.9991
15085TIP3    H266747   3.620   6.324   4.129  1.4543  0.5160  0.0912
15086TIP3   OH266748   5.544   4.332   0.638  0.6199  0.0326  0.4144
15086TIP3    H166749   5.489   4.351   0.714 -0.9036 -0.4963 -0.5071
15086TIP3    H266750   5.485   4.290   0.575  1.3327  2.2317 -1.8864
15087TIP3   OH266751   6.863   1.494   9.833 -0.4241  0.6092 -0.6316
15087TIP3    H166752   6.943   1.450   9.864 -0.8488  0.4244  0.2092
15087TIP3    H266753   6.796   1.471   9.897 -1.0737  1.0598 -1.1383
15088TIP3   OH266754   4.329   5.132   2.551  0.0934 -0.0687 -0.6858
15088TIP3    H166755   4.282   5.213   2.531  1.5107  0.7331 -0.8786
15088TIP3    H266756   4.411   5.139   2.503  2.0800  0.3028  2.4370
15089TIP3   OH266757   4.357   5.396  12.433 -0.0384 -0.4035  0.2907
15089TIP3    H166758   4.265   5.420  12.431  0.4303  1.4538 -0.5380
15089TIP3    H266759   4.378   5.375  12.342 -0.0829 -2.8405  0.7615
15090TIP3   OH266760   5.298   6.456   4.538 -0.3915  0.4813  0.0663
15090TIP3    H166761   5.282   6.362   4.527  0.5515  0.3126  0.0767
15090TIP3    H266762   5.222   6.498   4.497 -1.5874 -0.3010  1.4039
15091TIP3   OH266763   3.685   0.762  13.966  0.0649 -0.2650  0.7177
15091TIP3    H166764   3.740   0.840  13.972 -1.1347  0.5511  1.4907
15091TIP3    H266765   3.660   0.742  14.056 -1.5374 -0.1233  0.3463
15092TIP3   OH266766   1.311   4.511   3.648 -0.4365  0.3582  0.2323
15092TIP3    H166767   1.263   4.591   3.626 -2.4171 -0.5796  0.9233
15092TIP3    H266768   1.290   4.494   3.740  1.4229 -0.0143  0.6476
15093TIP3   OH266769   2.334   1.694   5.894 -0.0642  0.3091  0.6121
15093TIP3    H166770   2.398   1.626   5.916  0.3665 -0.2859 -2.1274
15093TIP3    H266771   2.250   1.658   5.923  0.2664 -1.0573 -0.0512
15094TIP3   OH266772   3.967   5.426   2.109 -0.4426  0.4279  0.1359
15094TIP3    H166773   4.041   5.428   2.048  0.6634 -0.2019  1.4058
15094TIP3    H266774   3.932   5.337   2.102 -0.2651  0.3309  0.4780
15095TIP3   OH266775   2.037   5.589  13.544 -0.4290  0.4498 -0.0797
15095TIP3    H166776   2.070   5.558  13.459 -0.8781  0.6339 -0.3277
15095TIP3    H266777   2.113   5.589  13.601 -0.1996 -0.0673 -0.3747
15096TIP3   OH266778   2.624   0.368   0.156  0.0127  0.4031  0.7192
15096TIP3    H166779   2.668   0.420   0.223  2.0211 -1.2593  0.8033
15096TIP3    H266780   2.660   0.279   0.168 -0.7678 -0.2795 -1.5239
15097TIP3   OH266781   0.582   6.312   0.739 -0.3356 -0.7944 -0.0031
15097TIP3    H166782   0.663   6.329   0.786 -1.2748 -1.7358  2.0911
15097TIP3    H266783   0.549   6.398   0.715  0.9522 -0.3786 -0.3292
15098TIP3   OH266784   7.239   5.258   4.394  0.2151  0.1277 -0.1361
15098TIP3    H166785   7.308   5.317   4.424  0.7720  0.2037 -1.4884
15098TIP3    H266786   7.285   5.192   4.341 -0.6185 -0.4703 -0.1372
15099TIP3   OH266787   6.752   4.593   0.339  0.1017 -0.1428 -0.2152
15099TIP3    H166788   6.791   4.549   0.263 -0.0139 -1.9193  0.7188
15099TIP3    H266789   6.813   4.575   0.410 -1.3447 -1.1791  0.8003
15100TIP3   OH266790   5.344   6.096   3.095 -0.2084  0.0237  0.7888
15100TIP3    H166791   5.351   6.188   3.121 -0.1238 -0.4118  2.3881
15100TIP3    H266792   5.301   6.053   3.169 -0.8912 -1.1059 -0.2303
15101TIP3   OH266793   0.863   6.889   1.764 -0.2347 -0.0435  0.1451
15101TIP3    H166794   0.889   6.975   1.732  0.1837  0.5256  1.9127
15101TIP3    H266795   0.943   6.837   1.762  0.5546  0.8867  2.9553
15102TIP3   OH266796   0.303   3.540  12.068 -0.1361 -0.1726  0.2002
15102TIP3    H166797   0.220   3.528  12.114 -0.5232  0.8823 -0.1999
15102TIP3    H266798   0.283   3.517  11.977 -0.1399  0.5840  0.0014
15103TIP3   OH266799   5.670   3.917   0.037 -0.0799  0.4376  0.1555
15103TIP3    H166800   5.590   3.943   0.082  0.2939  1.8565  0.0503
15103TIP3    H266801   5.739   3.965   0.081  0.7632 -0.8759  0.3274
15104TIP3   OH266802   6.235   3.290   0.353  0.1415  0.3333 -0.6767
15104TIP3    H166803   6.180   3.267   0.428 -0.4097 -0.1409 -1.2190
15104TIP3    H266804   6.175   3.330   0.291  0.3577 -0.3907 -1.3701
15105TIP3   OH266805   3.466   6.652  10.551 -0.0846  0.5108  0.2130
15105TIP3    H166806   3.462   6.736  10.505 -1.1608  0.1033 -0.4794
15105TIP3    H266807   3.419   6.592  10.494 -1.4404 -0.0293  1.8201
15106TIP3   OH266808   2.912   2.193  10.586 -0.1184  0.4450 -0.3029
15106TIP3    H166809   2.844   2.219  10.648 -0.9207  0.9989 -1.3711
15106TIP3    H266810   2.954   2.275  10.560 -0.3929  0.3248 -1.1475
15107TIP3   OH266811   0.305   0.472   5.489 -0.2447 -0.2455 -0.0173
15107TIP3    H166812   0.285   0.388   5.529  0.0759 -1.1242 -1.5846
15107TIP3    H266813   0.221   0.519   5.488 -0.4851 -0.6522  0.6366
15108TIP3   OH266814   2.341   2.290   5.575 -0.2065 -0.7440 -0.0168
15108TIP3    H166815   2.356   2.304   5.481  0.1138  1.0088  0.2513
15108TIP3    H266816   2.249   2.264   5.581 -0.2797 -0.7045 -0.8057
15109TIP3   OH266817   3.978   1.367   3.007 -0.3035  0.1171  0.1749
15109TIP3    H166818   3.941   1.283   2.978  1.2161 -0.1094 -1.3312
15109TIP3    H266819   4.034   1.343   3.081  1.6656 -0.6266 -1.4319
15110TIP3   OH266820   0.133   1.704   3.586  0.1237  0.4935 -0.1171
15110TIP3    H166821   0.135   1.611   3.608 -0.8844  0.9146  1.9496
15110TIP3    H266822   0.200   1.743   3.642 -0.1850  1.1480 -0.2004
15111TIP3   OH266823   3.202   4.476  12.972  0.5774 -0.8517 -0.2961
15111TIP3    H166824   3.169   4.477  13.061  2.0990  0.0158  0.2873
15111TIP3    H266825   3.289   4.516  12.977  1.1528 -1.7681 -1.9882
15112TIP3   OH266826   0.979   0.416   2.093 -0.1623  0.3480 -0.5513
15112TIP3    H166827   0.957   0.494   2.043  0.9313  1.3985  0.5498
15112TIP3    H266828   1.073   0.424   2.111 -0.1902 -0.8106  0.2670
15113TIP3   OH266829   1.686   5.909   1.500 -0.3377  0.3348 -0.7308
15113TIP3    H166830   1.641   5.861   1.431 -1.6851  1.8341 -0.9580
15113TIP3    H266831   1.716   5.989   1.458  0.0556  0.6349  0.0989
15114TIP3   OH266832   4.903   1.165  13.674  0.4454  0.4962  0.5439
15114TIP3    H166833   4.985   1.139  13.715  0.6619  2.0150  1.1425
15114TIP3    H266834   4.839   1.164  13.745  0.2519  0.6426  0.3754
15115TIP3   OH266835   7.137   3.408   0.751 -0.2641  0.2243  0.4835
15115TIP3    H166836   7.091   3.469   0.694 -0.1432 -0.1457 -0.0234
15115TIP3    H266837   7.188   3.353   0.691  0.3930  0.2584  0.9899
15116TIP3   OH266838   2.403   5.802   4.582 -0.0906 -0.8227 -0.5223
15116TIP3    H166839   2.318   5.780   4.544 -0.1505 -0.7706 -0.4184
15116TIP3    H266840   2.392   5.890   4.618  0.9509  0.5992 -3.4004
15117TIP3   OH266841   6.394   1.595  14.351 -0.5096  0.0051  0.2493
15117TIP3    H166842   6.471   1.634  14.392  0.9305 -0.1835 -2.1291
15117TIP3    H266843   6.383   1.644  14.269  0.3311 -3.2672 -2.0360
15118TIP3   OH266844   0.474   3.732  14.622 -0.1432 -0.2633  0.1703
15118TIP3    H166845   0.564   3.751  14.648 -0.1262 -1.6614  1.2304
15118TIP3    H266846   0.480   3.654  14.567 -0.6865 -0.2528  0.0863
15119TIP3   OH266847   5.281   6.438   2.467 -0.1856  0.9796  0.2012
15119TIP3    H166848   5.234   6.452   2.550 -2.3212 -1.8675 -0.3711
15119TIP3    H266849   5.358   6.386   2.491 -2.0983 -2.0448  0.2884
15120TIP3   OH266850   5.210   0.467   1.867 -0.7238 -0.6684  0.0008
15120TIP3    H166851   5.220   0.373   1.851  0.0175 -0.6500  0.2991
15120TIP3    H266852   5.168   0.473   1.952  1.1142 -0.7425  0.9718
15121TIP3   OH266853   1.543   6.799   5.453 -0.5894  0.1339 -0.1225
15121TIP3    H166854   1.616   6.808   5.514  0.9410  0.6463 -1.9455
15121TIP3    H266855   1.529   6.705   5.445 -0.1303  0.0374  0.2314
15122TIP3   OH266856   6.039   3.010   0.737  0.4646 -0.0125 -0.7837
15122TIP3    H166857   6.114   2.954   0.717  0.8945  0.5388 -0.7260
15122TIP3    H266858   6.054   3.040   0.827 -0.0202 -0.1980 -0.6338
15123TIP3   OH266859   5.395   3.307  15.305  0.2464  0.7903 -0.0871
15123TIP3    H166860   5.334   3.281  15.375  1.5859 -1.7259  0.2740
15123TIP3    H266861   5.344   3.366  15.249 -1.7447  0.6646  1.4722
15124TIP3   OH266862   3.890   4.338   3.629  0.0591  0.4352  0.4102
15124TIP3    H166863   3.862   4.421   3.592  0.6230  0.2350 -0.5003
15124TIP3    H266864   3.855   4.272   3.570  3.0366  0.1985 -1.2600
15125TIP3   OH266865   5.749   6.137  14.384  0.3487 -0.0157  0.1068
15125TIP3    H166866   5.802   6.199  14.333  0.1134  0.1653  0.0779
15125TIP3    H266867   5.812   6.078  14.424  0.5588  0.0579 -0.1127
15126TIP3   OH266868   6.538   1.418   0.173  0.0415 -0.1462 -0.0648
15126TIP3    H166869   6.592   1.422   0.095  2.0612 -1.8050  1.1414
15126TIP3    H266870   6.449   1.430   0.141  0.8586  0.0200 -2.4952
15127TIP3   OH266871   2.287   6.348   2.206  0.0840  0.1665  0.4349
15127TIP3    H166872   2.248   6.352   2.293  0.2576 -1.3566  0.6015
15127TIP3    H266873   2.375   6.312   2.220  0.6163  1.1422 -0.2356
15128TIP3   OH266874   3.782   5.405   4.212  0.0272  0.2125 -0.0826
15128TIP3    H166875   3.846   5.359   4.157 -0.7412  1.0208 -1.7210
15128TIP3    H266876   3.719   5.441   4.150 -2.1456 -0.6956  1.4820
15129TIP3   OH266877   4.406   0.685   3.635  0.3452 -0.8015 -0.0294
15129TIP3    H166878   4.330   0.742   3.631  0.3966 -0.7443 -0.2154
15129TIP3    H266879   4.390   0.627   3.709  0.5938 -0.1187  0.5648
15130TIP3   OH266880   0.439   0.732   5.522  0.5012 -0.4160 -0.3040
15130TIP3    H166881   0.452   0.660   5.583  0.0326  0.5916  1.0294
15130TIP3    H266882   0.345   0.748   5.523  0.7822  1.4279  0.9085
15131TIP3   OH266883   5.727   4.925   3.256  0.5067  0.1974  0.5176
15131TIP3    H166884   5.680   4.915   3.338  1.8842  1.2771  1.4921
15131TIP3    H266885   5.680   4.995   3.210 -0.3663 -0.5241  0.2753
15132TIP3   OH266886   5.423   6.823   2.859 -0.2245  0.1350 -0.5130
15132TIP3    H166887   5.478   6.756   2.818 -1.2866 -0.7566 -0.5418
15132TIP3    H266888   5.435   6.900   2.805  0.2433 -0.3276 -1.0858
15133TIP3   OH266889   1.699   0.331   3.828 -0.6996 -0.2472  0.0713
15133TIP3    H166890   1.774   0.340   3.886 -1.3232 -0.2856  0.8957
15133TIP3    H266891   1.685   0.420   3.793  0.3664 -0.4435 -0.9236
15134TIP3   OH266892   5.415   2.137   4.842  0.0797 -0.4767 -0.0624
15134TIP3    H166893   5.399   2.044   4.825 -0.3507 -0.6174  1.0157
15134TIP3    H266894   5.510   2.144   4.851  0.1176 -0.8140 -0.1725
15135TIP3   OH266895   3.924   2.770   5.233  0.1869  0.1977  0.0011
15135TIP3    H166896   3.944   2.838   5.169 -2.2338  0.6195 -0.3860
15135TIP3    H266897   3.830   2.757   5.227  0.4617 -2.8499  0.4590
15136TIP3   OH266898   6.232   6.515  15.252 -0.3093  0.0436 -0.4610
15136TIP3    H166899   6.179   6.580  15.297 -0.5382  0.2522 -1.0296
15136TIP3    H266900   6.177   6.484  15.180 -0.4372 -1.2204  0.1538
15137TIP3   OH266901   1.355   2.494  13.773  0.2841 -0.3339  0.2333
15137TIP3    H166902   1.309   2.433  13.830 -2.0856  0.5182 -0.6485
15137TIP3    H266903   1.349   2.454  13.686 -1.6459  1.2325 -0.4252
15138TIP3   OH266904   2.976   4.837  14.003 -0.4757  0.0748  0.0897
15138TIP3    H166905   2.952   4.912  14.057  1.3364  0.1387  0.8976
15138TIP3    H266906   2.981   4.872  13.914  0.3755  0.9558  0.4602
15139TIP3   OH266907   0.728   0.448  12.359  0.4079  0.6835 -0.1552
15139TIP3    H166908   0.694   0.531  12.394 -0.5547 -0.4246  1.7152
15139TIP3    H266909   0.746   0.395  12.437  1.2733 -0.7743 -1.2948
15140TIP3   OH266910   0.854   2.000   4.027 -0.9596  0.0151 -0.0856
15140TIP3    H166911   0.949   2.003   4.035 -0.7660 -2.1299 -0.6905
15140TIP3    H266912   0.821   2.023   4.114  0.2003 -1.1081  0.6862
15141TIP3   OH266913   6.348   2.957   1.119  0.1707  0.2744 -0.6169
15141TIP3    H166914   6.316   2.932   1.205 -1.3299  0.1601 -1.1700
15141TIP3    H266915   6.336   3.052   1.116 -0.5508  0.1819 -0.9735
15142TIP3   OH266916   0.182   2.881   4.789  0.1519 -0.5040 -0.0329
15142TIP3    H166917   0.195   2.962   4.739 -0.2415 -1.9821 -2.7563
15142TIP3    H266918   0.222   2.899   4.874 -1.1478  2.9998  0.0128
15143TIP3   OH266919   6.842   4.482  14.978 -0.2040  0.0584 -0.8729
15143TIP3    H166920   6.761   4.485  14.928 -1.5193  2.0914  1.1525
15143TIP3    H266921   6.832   4.406  15.036 -0.9323  0.5855 -0.2861
15144TIP3   OH266922   3.835   3.481   3.442 -0.0238  0.5510  0.5943
15144TIP3    H166923   3.862   3.546   3.506 -0.3886  0.8966  0.4065
15144TIP3    H266924   3.901   3.487   3.372 -0.1489  0.8480  0.4966
15145TIP3   OH266925   0.106   6.600   3.393 -0.1263 -0.2173 -0.3079
15145TIP3    H166926   0.161   6.574   3.319 -0.0428  1.1275 -0.7355
15145TIP3    H266927   0.096   6.694   3.384  0.3539  0.0770  1.7257
15146TIP3   OH266928   4.776   5.712   0.340  0.1922  0.1251  0.2611
15146TIP3    H166929   4.808   5.732   0.252 -1.9306  3.1143  0.0059
15146TIP3    H266930   4.786   5.618   0.348 -0.5092 -0.4673 -3.6392
15147TIP3   OH266931   3.090   3.030   0.028 -0.3972  0.4711  0.6238
15147TIP3    H166932   3.014   3.087   0.018 -0.1298  0.8324  0.6400
15147TIP3    H266933   3.053   2.945   0.055 -0.7786  0.6971  0.8236
15148TIP3   OH266934   1.961   2.004   5.904  0.6476  0.2379  0.2578
15148TIP3    H166935   1.947   1.912   5.884  0.1905 -0.0901  1.9135
15148TIP3    H266936   2.056   2.016   5.903  0.6632  0.0921 -1.3024
15149TIP3   OH266937   4.834   4.068   3.646  0.2219  0.2344 -0.1910
15149TIP3    H166938   4.824   3.973   3.655 -1.1559  0.2006 -1.6525
15149TIP3    H266939   4.889   4.093   3.720 -1.6862 -1.3145  1.9056
15150TIP3   OH266940   0.397   2.634   5.083  0.1542  0.0679  0.4985
15150TIP3    H166941   0.402   2.539   5.080  2.4733  0.1641 -1.9716
15150TIP3    H266942   0.472   2.660   5.136  0.8855  0.5434 -0.7367
15151TIP3   OH266943   0.688   0.881  13.554 -0.3246  0.1292 -0.5155
15151TIP3    H166944   0.601   0.844  13.572 -1.5808  2.4856 -1.3377
15151TIP3    H266945   0.685   0.968  13.595  2.0124 -0.0877  0.2216
15152TIP3   OH266946   5.506   4.860   5.021  0.6182  0.2156 -0.2328
15152TIP3    H166947   5.567   4.790   5.000 -0.7656 -0.8161 -0.9837
15152TIP3    H266948   5.502   4.861   5.117 -0.5753 -1.8799 -0.2163
15153TIP3   OH266949   5.038   2.021   2.465  0.2543  0.2990 -0.4421
15153TIP3    H166950   5.025   2.028   2.560  0.5666 -0.8744 -0.3046
15153TIP3    H266951   5.118   1.970   2.455  0.0918  0.2009 -1.3427
15154TIP3   OH266952   5.070   5.446  11.775 -0.4467 -0.0579 -0.4014
15154TIP3    H166953   5.020   5.394  11.712  0.6984 -0.7790 -0.7464
15154TIP3    H266954   5.030   5.425  11.860  1.4127 -3.4492 -0.1796
15155TIP3   OH266955   6.477   3.317   1.774  0.0273 -0.1231 -0.2189
15155TIP3    H166956   6.453   3.257   1.703  0.6260  1.9900 -2.3316
15155TIP3    H266957   6.396   3.364   1.793  0.4042  0.9882 -1.2550
15156TIP3   OH266958   6.452   1.423   2.617 -0.1172 -0.5766  0.1799
15156TIP3    H166959   6.471   1.410   2.710  1.7637 -1.1300 -0.2375
15156TIP3    H266960   6.381   1.361   2.598 -2.1247  1.1475  1.6967
15157TIP3   OH266961   0.810   4.121   0.998 -0.3794 -0.3134  0.1712
15157TIP3    H166962   0.825   4.205   1.041  1.4470 -0.1237 -0.7457
15157TIP3    H266963   0.776   4.144   0.912  0.7676 -0.4513 -0.3375
15158TIP3   OH266964   4.875   6.260  14.343 -0.1828  0.1885  0.4273
15158TIP3    H166965   4.927   6.180  14.353 -0.2660 -0.2539 -2.0041
15158TIP3    H266966   4.785   6.234  14.363 -0.4424 -0.7708 -1.7044
15159TIP3   OH266967   3.033   5.187   1.996 -0.4482 -0.3024 -0.4417
15159TIP3    H166968   3.108   5.244   1.981 -1.1374  0.3197 -1.7159
15159TIP3    H266969   3.057   5.104   1.956  0.0611 -0.5243  0.3075
15160TIP3   OH266970   7.205   0.236   0.328  0.2839  0.3375  1.0536
15160TIP3    H166971   7.214   0.236   0.424  0.1780  1.5945  1.0759
15160TIP3    H266972   7.170   0.150   0.307 -2.6377  1.0615  2.4474
15161TIP3   OH266973   1.078   0.494   3.561  0.0375 -0.2594 -0.1081
15161TIP3    H166974   1.001   0.528   3.516 -0.7736 -2.0021 -0.1143
15161TIP3    H266975   1.152   0.528   3.511 -0.8014 -1.2815 -2.1823
15162TIP3   OH266976   0.095   4.285   1.922  0.3974 -0.4761  0.2430
15162TIP3    H166977   0.066   4.304   2.012  1.2337  0.6195  0.2983
15162TIP3    H266978   0.184   4.250   1.932  0.5797 -0.1385 -0.1719
15163TIP3   OH266979   1.488   3.350   0.331  0.3596  0.0118 -0.4037
15163TIP3    H166980   1.569   3.301   0.345 -0.4259 -1.8735 -1.9876
15163TIP3    H266981   1.419   3.285   0.347 -0.8948  1.6377  1.1579
15164TIP3   OH266982   5.152   0.556  12.372 -0.3104 -0.3918 -0.2390
15164TIP3    H166983   5.148   0.614  12.449  2.5881 -0.4027  0.0273
15164TIP3    H266984   5.119   0.610  12.300 -1.4169  0.2134  0.6861
15165TIP3   OH266985   1.956   7.118   4.247 -0.1567 -0.2620 -0.7332
15165TIP3    H166986   1.921   7.047   4.301 -0.3826  1.0607  0.9281
15165TIP3    H266987   1.924   7.198   4.288  3.1560  0.9900 -0.2535
15166TIP3   OH266988   0.062   5.812   0.762  0.1237  0.0691  0.2428
15166TIP3    H166989   0.130   5.749   0.785 -0.3843 -0.2899  0.7854
15166TIP3    H266990   0.089   5.846   0.677  0.3998 -0.8823 -0.0607
15167TIP3   OH266991   4.273   0.147  14.177 -0.4381  0.1573  0.3922
15167TIP3    H166992   4.358   0.188  14.163  0.3985 -1.5427  0.1367
15167TIP3    H266993   4.261   0.150  14.272  0.1774 -0.0275  0.4862
15168TIP3   OH266994   2.975   6.054   2.932  0.8528 -0.4076  0.0531
15168TIP3    H166995   2.926   5.981   2.970  0.1995  0.2359  0.4645
15168TIP3    H266996   3.024   6.014   2.860  1.2206 -1.4180  0.8396
15169TIP3   OH266997   3.086   3.259   4.379  0.2568  0.3731 -0.3034
15169TIP3    H166998   3.067   3.340   4.426 -1.2247  0.5607 -1.1619
15169TIP3    H266999   3.148   3.284   4.311 -0.2239  0.7963 -0.5892
15170TIP3   OH267000   6.393   6.989  10.641  0.6658  0.0767  0.5612
15170TIP3    H167001   6.416   7.080  10.621 -2.3118  0.3835 -2.4508
15170TIP3    H267002   6.453   6.936  10.588 -1.0929  0.6336 -2.2170
15171TIP3   OH267003   7.127   2.425   0.593  0.0215 -0.4154  0.4876
15171TIP3    H167004   7.048   2.446   0.542 -1.5157 -0.7179  2.6060
15171TIP3    H267005   7.101   2.439   0.684  2.6586  0.1461  1.2428
15172TIP3   OH267006   5.712   5.498   3.529  0.7014 -0.0696  0.2891
15172TIP3    H167007   5.711   5.414   3.483  0.1376  0.4943 -0.7726
15172TIP3    H267008   5.742   5.561   3.463 -2.3466  1.1579 -0.0808
15173TIP3   OH267009   2.836   4.030   2.562  0.0242 -0.0804  0.3628
15173TIP3    H167010   2.910   4.061   2.511 -0.3103 -0.0273 -0.0917
15173TIP3    H267011   2.760   4.072   2.523 -0.4434 -1.4755 -0.2921
15174TIP3   OH267012   3.285   1.860   3.524  0.0471 -0.0227 -0.8469
15174TIP3    H167013   3.342   1.785   3.507 -2.7224 -2.3945 -0.5529
15174TIP3    H267014   3.268   1.898   3.438 -0.1009 -1.0197 -1.2723
15175TIP3   OH267015   4.988   7.042   1.027  0.5424  0.2727 -0.3115
15175TIP3    H167016   5.074   7.001   1.018  0.0603 -0.6360 -0.8521
15175TIP3    H267017   4.926   6.978   0.993 -0.6643 -0.2097  2.4920
15176TIP3   OH267018   4.011   1.546  13.411  0.7852  0.1046 -0.3500
15176TIP3    H167019   4.055   1.499  13.340  2.7515  0.5535  0.5306
15176TIP3    H267020   4.073   1.612  13.439 -0.8005  1.3523  0.3927
15177TIP3   OH267021   0.398   1.524   1.493 -0.0236  0.0041 -0.4054
15177TIP3    H167022   0.320   1.480   1.461 -0.1779  0.6364 -0.9074
15177TIP3    H267023   0.468   1.494   1.436 -0.1519  0.5018 -0.8288
15178TIP3   OH267024   5.930   6.972  14.028 -0.1191 -0.1700 -0.0629
15178TIP3    H167025   5.839   6.996  14.041 -0.2143 -1.1215  1.1383
15178TIP3    H267026   5.935   6.945  13.936 -1.0445 -0.1037 -0.1395
15179TIP3   OH267027   0.856   5.839  14.869 -0.4663 -0.6459  0.2905
15179TIP3    H167028   0.840   5.894  14.792  0.4583  0.1453  0.6482
15179TIP3    H267029   0.900   5.762  14.835 -1.1504 -0.8619 -0.1254
15180TIP3   OH267030   1.693   1.917   1.488  0.6299  0.3499  0.3292
15180TIP3    H167031   1.735   1.937   1.405  0.4792 -0.7615 -0.0286
15180TIP3    H267032   1.659   2.001   1.518  1.5661  0.9474 -0.2276
15181TIP3   OH267033   0.901   4.608   4.780  0.1819 -0.1203 -0.2009
15181TIP3    H167034   0.962   4.540   4.753  0.3971  0.2440 -0.6301
15181TIP3    H267035   0.906   4.675   4.712  0.6451  0.7523  0.6604
15182TIP3   OH267036   6.971   4.925   5.467  0.2651  0.7828 -0.1137
15182TIP3    H167037   6.904   4.963   5.410  0.5254  1.7023  0.1849
15182TIP3    H267038   7.017   5.000   5.504  0.7026  0.1783  0.5948
15183TIP3   OH267039   3.853   6.270   2.422 -0.3089 -0.7584  0.3100
15183TIP3    H167040   3.807   6.315   2.492  0.6982 -2.6952  2.3703
15183TIP3    H267041   3.784   6.226   2.372 -0.9656 -0.5941  1.0492
15184TIP3   OH267042   1.788   4.932   0.049 -0.5587  0.0372  0.1903
15184TIP3    H167043   1.765   4.976   0.131  2.2047  0.6550  0.7148
15184TIP3    H267044   1.808   4.842   0.075  0.2954  0.2272  0.2133
15185TIP3   OH267045   5.097   3.552   2.215  0.0077 -0.3836  0.0885
15185TIP3    H167046   5.042   3.486   2.257 -0.0314 -1.7306 -1.9691
15185TIP3    H267047   5.177   3.554   2.268 -1.0695 -0.0269  1.7885
15186TIP3   OH267048   6.881   5.616  14.609 -0.2946 -0.0890  0.1954
15186TIP3    H167049   6.855   5.691  14.555 -0.8684 -0.9970 -0.8051
15186TIP3    H267050   6.975   5.606  14.592 -0.2822  0.1945  0.0857
15187TIP3   OH267051   2.028   6.797  13.750 -0.5000 -0.1765 -0.0141
15187TIP3    H167052   1.986   6.853  13.816  0.5006 -1.7364  2.0447
15187TIP3    H267053   2.103   6.848  13.720 -2.2330  1.5189 -1.7779
15188TIP3   OH267054   5.530   0.422   5.939 -0.0995 -0.4794  0.9370
15188TIP3    H167055   5.451   0.439   5.990  1.2446  1.6946  2.4679
15188TIP3    H267056   5.571   0.346   5.981  1.5569  1.9156  4.0782
15189TIP3   OH267057   3.702   2.221   3.809 -0.1695  0.3498 -0.1405
15189TIP3    H167058   3.737   2.199   3.895  0.5383 -1.9620 -0.9269
15189TIP3    H267059   3.607   2.223   3.822 -0.0401  0.6540  0.8154
15190TIP3   OH267060   6.082   3.380   4.666  0.3523  0.0744  0.4153
15190TIP3    H167061   6.074   3.461   4.617  0.4167 -0.2426 -0.1264
15190TIP3    H267062   6.058   3.311   4.604  3.3350 -0.6099 -0.1649
15191TIP3   OH267063   6.185   4.448   5.016 -0.0419  0.1758  0.1974
15191TIP3    H167064   6.130   4.374   5.041  1.0275 -0.6449  0.2160
15191TIP3    H267065   6.274   4.412   5.016  0.3858  1.1864 -0.8809
15192TIP3   OH267066   5.520   6.652  14.987  0.6013  0.0254  0.1230
15192TIP3    H167067   5.537   6.591  15.059  1.6770  1.2172  0.9125
15192TIP3    H267068   5.575   6.621  14.916 -0.3345 -1.0565 -0.1630
15193TIP3   OH267069   5.462   4.369  11.228  0.2105  0.1402 -0.2092
15193TIP3    H167070   5.484   4.278  11.246 -0.3188 -0.1157 -0.8363
15193TIP3    H267071   5.509   4.419  11.296  0.1893 -0.6190  0.3758
15194TIP3   OH267072   7.067   2.958   2.910  0.1816 -0.1310  0.3998
15194TIP3    H167073   7.105   3.043   2.931  0.7789 -0.1302 -0.6131
15194TIP3    H267074   6.979   2.978   2.878  0.4287  0.1314 -0.1173
15195TIP3   OH267075   3.216   0.899   3.866  0.2018 -0.0388  0.5481
15195TIP3    H167076   3.203   0.804   3.873 -1.0410  0.2290  4.4889
15195TIP3    H267077   3.128   0.936   3.868  0.6630  1.2517 -0.9692
15196TIP3   OH267078   5.987   6.080   3.271  0.5154 -0.6404  0.6862
15196TIP3    H167079   6.044   6.007   3.245  1.0476 -0.1536  0.4690
15196TIP3    H267080   5.930   6.093   3.196  0.5242 -0.7366  0.6628
15197TIP3   OH267081   7.251   5.140  11.787 -0.0239  0.1664 -0.2537
15197TIP3    H167082   7.271   5.078  11.858 -2.6888  1.3194  1.6621
15197TIP3    H267083   7.212   5.087  11.719 -0.5127 -0.5462  0.5621
15198TIP3   OH267084   1.514   1.509   1.780 -0.0608  0.1252  0.1795
15198TIP3    H167085   1.587   1.571   1.782  0.7799 -0.8217  3.1566
15198TIP3    H267086   1.438   1.560   1.809  0.0885  0.3798  0.1189
15199TIP3   OH267087   0.423   4.941   0.456 -0.2499  0.1244  0.1446
15199TIP3    H167088   0.393   4.896   0.377 -1.7066 -0.9305  1.2421
15199TIP3    H267089   0.343   4.956   0.507  0.5254  1.6267  1.0228
15200TIP3   OH267090   6.569   0.523   4.281  0.6316  0.1251  0.7577
15200TIP3    H167091   6.499   0.516   4.216  0.6581 -0.4901  0.7850
15200TIP3    H267092   6.538   0.471   4.355  1.5893 -1.1052  0.3361
15201TIP3   OH267093   2.383   0.576   2.590  0.6575  0.6631  0.4656
15201TIP3    H167094   2.337   0.548   2.511 -0.1549  0.3081  1.0484
15201TIP3    H267095   2.475   0.581   2.564  0.3596  0.8562 -0.5786
15202TIP3   OH267096   1.881   5.520   1.964 -0.4316  0.2980 -0.4182
15202TIP3    H167097   1.846   5.496   1.878 -0.9333 -2.2763  0.4309
15202TIP3    H267098   1.963   5.566   1.944 -0.4946 -0.3042 -2.2901
15203TIP3   OH267099   6.900   3.981   3.492  0.0022  0.5693  0.1917
15203TIP3    H167100   6.853   4.063   3.507 -0.2534  0.5466 -0.4493
15203TIP3    H267101   6.875   3.925   3.565  0.3265  1.1252  0.7355
15204TIP3   OH267102   4.855   6.008   2.251  0.4672  0.4029 -0.1321
15204TIP3    H167103   4.855   6.035   2.159 -1.7860  0.3752 -0.1931
15204TIP3    H267104   4.766   6.026   2.281  1.1610  0.4165  2.0673
15205TIP3   OH267105   0.588   6.462   1.657 -0.3792 -0.2481  0.3355
15205TIP3    H167106   0.657   6.492   1.716  0.5542 -1.2094 -0.2376
15205TIP3    H267107   0.521   6.530   1.662  1.0231  1.2088  0.1648
15206TIP3   OH267108   2.738   3.653   3.273 -0.2715  0.1405  0.5578
15206TIP3    H167109   2.771   3.566   3.252 -2.4662 -0.3124 -1.3755
15206TIP3    H267110   2.782   3.710   3.209  1.0938  0.4923  1.7626
15207TIP3   OH267111   1.967   2.761   5.293 -0.3379  0.2571 -0.1942
15207TIP3    H167112   1.984   2.667   5.282 -0.8277  0.2674 -1.2081
15207TIP3    H267113   1.964   2.795   5.204  1.8306  1.6419  0.1954
15208TIP3   OH267114   4.655   5.952   3.929 -0.1982  0.7527 -0.1197
15208TIP3    H167115   4.659   6.045   3.907 -1.6015  0.7957 -0.3201
15208TIP3    H267116   4.646   5.950   4.024 -0.0413  0.8173 -0.1036
15209TIP3   OH267117   3.884   5.109   1.251  0.0774  0.2690  0.3460
15209TIP3    H167118   3.865   5.195   1.289  0.8006  1.4368 -1.7650
15209TIP3    H267119   3.802   5.083   1.208 -0.0399  0.0435  0.7002
15210TIP3   OH267120   4.009   4.689  13.773 -0.3202 -0.1221  0.1502
15210TIP3    H167121   4.008   4.750  13.699 -2.2138 -0.5485 -0.2302
15210TIP3    H267122   3.918   4.660  13.781  0.1523 -1.3022  1.6509
15211TIP3   OH267123   3.315   2.696  11.517 -0.1179  0.0829 -0.0489
15211TIP3    H167124   3.222   2.693  11.492 -0.2049  2.8927 -0.3742
15211TIP3    H267125   3.315   2.672  11.610 -1.4840  1.9852  0.4945
15212TIP3   OH267126   6.537   5.383   3.573  0.2558 -0.0306  0.6087
15212TIP3    H167127   6.534   5.374   3.668 -3.8333 -0.0239  0.6412
15212TIP3    H267128   6.507   5.472   3.557  1.3029  0.1142 -0.7446
15213TIP3   OH267129   3.044   6.033   4.971  0.0880 -0.2331 -0.2075
15213TIP3    H167130   3.034   5.955   5.026  1.2959 -1.2607 -1.3732
15213TIP3    H267131   3.138   6.037   4.953 -0.1070  0.8755 -1.0886
15214TIP3   OH267132   2.355   3.590  13.511  0.4246  0.6050  0.2832
15214TIP3    H167133   2.376   3.675  13.550  0.7669 -0.3889  2.4066
15214TIP3    H267134   2.270   3.566  13.548  0.4638 -0.1013 -0.0602
15215TIP3   OH267135   0.219   3.200  13.840 -0.1519  0.0034  0.1602
15215TIP3    H167136   0.280   3.155  13.899  1.7163  1.2809 -0.6965
15215TIP3    H267137   0.266   3.280  13.814 -1.6605  0.3578 -1.6320
15216TIP3   OH267138   4.489   6.515  14.720  0.2354 -0.0568  0.0125
15216TIP3    H167139   4.533   6.572  14.656 -0.3224 -1.0133 -1.2697
15216TIP3    H267140   4.401   6.503  14.685  0.5279 -2.2270 -0.1188
15217TIP3   OH267141   0.697   2.078  14.637  0.2864 -0.1041  0.2597
15217TIP3    H167142   0.692   2.094  14.543  1.2424  1.9024  0.4840
15217TIP3    H267143   0.769   2.016  14.647 -0.6779 -1.3625 -0.3952
15218TIP3   OH267144   6.438   0.499   2.088 -0.1357 -1.1897 -0.3755
15218TIP3    H167145   6.491   0.476   2.165 -0.5479 -1.4451 -0.1616
15218TIP3    H267146   6.489   0.565   2.042 -0.4123 -0.1524  0.7509
15219TIP3   OH267147   6.629   0.725   4.457  0.2220 -0.2266 -0.2687
15219TIP3    H167148   6.567   0.791   4.426  1.3206  1.1283  0.3048
15219TIP3    H267149   6.607   0.647   4.406 -2.3175 -0.0025  0.3183
15220TIP3   OH267150   7.196   6.610   4.992 -0.5139  0.3541  0.7342
15220TIP3    H167151   7.190   6.560   5.074  0.7635  0.6039  0.9862
15220TIP3    H267152   7.277   6.659   4.999  0.3532 -0.6617 -1.2517
15221TIP3   OH267153   4.888   6.605  12.627 -0.3357 -0.2166 -0.0828
15221TIP3    H167154   4.927   6.554  12.555 -0.9809 -0.6040 -0.1655
15221TIP3    H267155   4.961   6.621  12.687 -0.1017 -1.1839 -0.0858
15222TIP3   OH267156   0.479   5.941   4.640 -0.3961 -0.4634 -0.4789
15222TIP3    H167157   0.400   5.903   4.680 -0.2781 -2.7724 -2.2069
15222TIP3    H267158   0.460   5.943   4.546  0.4319  2.0023 -0.6505
15223TIP3   OH267159   4.641   2.160   5.534  0.2543  0.1133  0.1756
15223TIP3    H167160   4.578   2.100   5.574  1.1350  0.4271  2.2043
15223TIP3    H267161   4.591   2.209   5.469 -1.1063 -0.9727  0.3635
15224TIP3   OH267162   2.574   3.834   5.534 -0.6178 -0.1262 -0.0015
15224TIP3    H167163   2.591   3.926   5.552  1.0953 -0.1798 -1.1854
15224TIP3    H267164   2.639   3.787   5.586 -0.4742 -0.5983 -0.6020
15225TIP3   OH267165   0.845   4.037  12.655  0.2088 -0.1133 -0.4561
15225TIP3    H167166   0.764   4.035  12.605 -0.5189 -3.4916  0.5804
15225TIP3    H267167   0.913   4.054  12.590 -0.9434 -1.6697 -2.1672
15226TIP3   OH267168   1.973   1.787   1.657 -0.6710 -0.1186 -0.1077
15226TIP3    H167169   1.936   1.846   1.591 -0.2271 -1.3512 -1.5253
15226TIP3    H267170   1.955   1.829   1.740 -1.5759  1.3307 -0.9988
15227TIP3   OH267171   2.345   5.642   2.435 -0.0034  0.2703  0.1541
15227TIP3    H167172   2.262   5.679   2.464  0.0085 -0.6198  1.3940
15227TIP3    H267173   2.388   5.713   2.389 -0.4025  1.5134  1.6240
15228TIP3   OH267174   3.764   4.613  14.344  0.2134 -0.0811 -0.4252
15228TIP3    H167175   3.741   4.683  14.405 -2.6308 -0.9402 -0.3820
15228TIP3    H267176   3.734   4.533  14.387 -2.0165 -0.7159 -2.8804
15229TIP3   OH267177   4.577   3.383   4.233 -0.2954  0.5663  0.8385
15229TIP3    H167178   4.584   3.388   4.328 -0.9575  3.4702  0.8160
15229TIP3    H267179   4.544   3.469   4.206 -0.7660 -0.3827 -1.9754
15230TIP3   OH267180   5.635   5.508  12.024  0.6253 -0.4478 -0.3456
15230TIP3    H167181   5.541   5.495  12.031  0.3749  1.3289 -0.0924
15230TIP3    H267182   5.659   5.555  12.103  1.7326 -0.8258 -0.4388
15231TIP3   OH267183   7.001   3.883   5.215  0.0793  0.1102  0.1166
15231TIP3    H167184   7.031   3.852   5.300 -0.8099 -0.0915  0.3695
15231TIP3    H267185   6.927   3.826   5.194  1.0745 -0.6961 -1.3930
15232TIP3   OH267186   5.050   3.954   0.917 -0.2808 -0.5042  0.1347
15232TIP3    H167187   4.961   3.921   0.907 -0.6867  0.5620  0.0054
15232TIP3    H267188   5.076   3.978   0.828 -1.2572  2.5154  0.5353
15233TIP3   OH267189   2.087   5.684  10.430 -0.1018 -0.0910  0.5208
15233TIP3    H167190   2.051   5.656  10.346 -1.1092 -0.5930  1.1100
15233TIP3    H267191   2.173   5.640  10.434 -0.7498 -1.4248  0.4769
15234TIP3   OH267192   1.875   5.247  13.233  0.5777  0.4662 -0.1763
15234TIP3    H167193   1.781   5.230  13.224  0.0693  1.1856  2.7292
15234TIP3    H267194   1.914   5.160  13.240 -0.4126  0.1350  2.2110
15235TIP3   OH267195   6.884   0.294   1.982  0.1740  0.3569  0.5323
15235TIP3    H167196   6.797   0.259   1.963 -1.0223  2.6857  1.2028
15235TIP3    H267197   6.939   0.217   1.994 -1.6756 -1.2071 -0.3818
15236TIP3   OH267198   1.033   0.268   2.592 -0.1375  0.5686 -0.6337
15236TIP3    H167199   0.982   0.187   2.593  1.1682 -0.2775  0.4568
15236TIP3    H267200   1.091   0.258   2.516  1.8756 -0.7866  0.9731
15237TIP3   OH267201   0.400   0.601  10.572  0.3214 -0.0045 -0.8633
15237TIP3    H167202   0.317   0.648  10.564 -0.8803 -2.1572 -1.6006
15237TIP3    H267203   0.411   0.557  10.488 -1.2609 -5.1139  1.2405
15238TIP3   OH267204   4.818   3.929   9.542 -0.5040 -0.0473 -0.3139
15238TIP3    H167205   4.761   3.926   9.466  1.7498  1.4481 -2.2299
15238TIP3    H267206   4.786   4.003   9.593 -1.6210 -0.6438 -0.1138
15239TIP3   OH267207   5.450   6.222   0.758  0.1226  0.2377  0.1748
15239TIP3    H167208   5.429   6.169   0.835 -3.4769  1.8322  0.4725
15239TIP3    H267209   5.487   6.303   0.794  0.7394  0.0125  0.0539
15240TIP3   OH267210   6.615   6.267   4.753  0.0020  0.4053  0.0454
15240TIP3    H167211   6.569   6.350   4.741 -0.7999 -0.0804 -0.3497
15240TIP3    H267212   6.549   6.209   4.792  0.5323 -0.0633  0.2569
15241TIP3   OH267213   1.912   6.594  13.974 -0.7946 -0.4578  0.2328
15241TIP3    H167214   1.969   6.670  13.986  1.0499 -1.6714 -0.3738
15241TIP3    H267215   1.855   6.618  13.902  0.2303  0.1447 -0.4101
15242TIP3   OH267216   0.351   4.707   5.260 -0.1907  0.0239 -0.1349
15242TIP3    H167217   0.267   4.663   5.246 -1.3864  1.7158  1.2957
15242TIP3    H267218   0.356   4.771   5.189 -1.2814  1.5251  1.0934
15243TIP3   OH267219   2.266   6.007   2.533 -0.2792  0.6925  0.0322
15243TIP3    H167220   2.237   6.062   2.460  0.5088  2.8134  1.2268
15243TIP3    H267221   2.227   5.921   2.515 -1.7427  1.6581 -1.8231
15244TIP3   OH267222   1.885   1.712   4.129 -0.1899 -0.2509 -0.1224
15244TIP3    H167223   1.936   1.774   4.181 -1.2895  1.1855 -0.6798
15244TIP3    H267224   1.858   1.645   4.192  1.1724 -0.2950  0.4632
15245TIP3   OH267225   6.370   5.398  13.439 -0.1008 -0.0946 -0.5437
15245TIP3    H167226   6.430   5.426  13.508  1.1032 -3.2163 -0.1190
15245TIP3    H267227   6.422   5.403  13.359 -0.1972 -0.1524 -0.6106
15246TIP3   OH267228   1.381   1.653  14.277 -0.0194 -0.4330  0.4066
15246TIP3    H167229   1.310   1.606  14.233  0.0044 -0.7399  0.6874
15246TIP3    H267230   1.411   1.592  14.344  0.8894 -0.5340 -0.0734
15247TIP3   OH267231   2.937   1.246  12.969  0.5292  0.6815 -0.3354
15247TIP3    H167232   3.026   1.275  12.990  0.3152  2.0839 -1.1917
15247TIP3    H267233   2.913   1.188  13.041  1.9556  0.6580  0.1584
15248TIP3   OH267234   5.015   1.285   0.611 -0.1706 -0.2264 -0.1733
15248TIP3    H167235   5.044   1.204   0.569 -0.1098 -0.7193  0.7660
15248TIP3    H267236   4.930   1.263   0.650 -1.9890  1.2290 -2.9871
15249TIP3   OH267237   3.166   6.883   2.472  0.0302 -0.0366 -0.4499
15249TIP3    H167238   3.072   6.861   2.469 -0.2808  1.1823 -3.8246
15249TIP3    H267239   3.168   6.975   2.500  0.3920 -0.4379  0.9456
15250TIP3   OH267240   3.914   2.147   1.236  0.2658 -0.1161  0.1952
15250TIP3    H167241   3.921   2.054   1.216 -0.7497 -0.1650  0.0021
15250TIP3    H267242   4.002   2.172   1.264  0.6107 -1.0740  0.0222
15251TIP3   OH267243   4.153   5.462   2.782  0.2506  0.0843  0.0076
15251TIP3    H167244   4.133   5.423   2.696  0.3013  0.1192 -0.0201
15251TIP3    H267245   4.218   5.530   2.763 -0.6435  0.9352 -0.0965
15252TIP3   OH267246   5.888   7.143   3.426  0.1156 -0.8728  0.0104
15252TIP3    H167247   5.861   7.066   3.476 -0.2269 -0.6806  0.1221
15252TIP3    H267248   5.855   7.126   3.337 -2.1274  0.2195  0.5508
15253TIP3   OH267249   2.043   3.194   3.357 -0.7347  0.4338 -0.7909
15253TIP3    H167250   2.103   3.121   3.375 -1.3308 -0.1645 -1.1593
15253TIP3    H267251   2.063   3.219   3.267 -2.6026 -1.3592 -1.8051
15254TIP3   OH267252   3.537   2.566   0.071 -0.1441 -0.3408  0.1553
15254TIP3    H167253   3.553   2.656   0.044 -1.2535 -0.0028  0.6016
15254TIP3    H267254   3.505   2.523  -0.009  0.7732 -0.4653 -0.1646
15255TIP3   OH267255   4.650   2.436   5.138 -0.0286  0.0692  0.0746
15255TIP3    H167256   4.718   2.458   5.202 -0.4055  0.0484  0.4905
15255TIP3    H267257   4.597   2.370   5.183  1.3908 -2.1603 -1.3192
15256TIP3   OH267258   0.680   5.789   1.655  0.7315 -0.4129  0.4081
15256TIP3    H167259   0.687   5.819   1.746  1.1472 -0.6924  0.4704
15256TIP3    H267260   0.657   5.868   1.606  0.6105 -0.2384  0.7420
15257TIP3   OH267261   5.436   0.021   3.387  1.0383 -0.0743 -0.2109
15257TIP3    H167262   5.490   0.083   3.435 -0.6151 -0.2632  2.0714
15257TIP3    H267263   5.346   0.041   3.414 -0.1331  0.0904 -3.6402
15258TIP3   OH267264   6.679   5.919   2.357  0.2374 -0.4486  0.0050
15258TIP3    H167265   6.644   5.945   2.272  0.8028  1.2790  0.2515
15258TIP3    H267266   6.772   5.944   2.354 -0.2680  2.1971  1.9981
15259TIP3   OH267267   3.966   4.826   5.822  0.5734 -0.2688  0.0308
15259TIP3    H167268   4.013   4.743   5.828 -1.6076 -1.5350  0.8844
15259TIP3    H267269   3.967   4.861   5.911  0.1261 -0.1981  0.0116
15260TIP3   OH267270   6.545   2.034   2.324 -0.3243 -0.0008  0.0336
15260TIP3    H167271   6.550   2.093   2.249 -0.9751 -0.4125 -0.3382
15260TIP3    H267272   6.503   2.087   2.392  0.7568  0.5490  0.2980
15261TIP3   OH267273   6.921   2.198   2.457  0.2457  0.0140  0.3744
15261TIP3    H167274   6.912   2.194   2.552  0.5579 -0.4218  0.3860
15261TIP3    H267275   6.895   2.288   2.434 -2.6438 -0.6822  0.5609
15262TIP3   OH267276   1.635   1.664  10.963 -0.0582 -0.1098  0.4413
15262TIP3    H167277   1.596   1.580  10.939  0.6208 -0.3743  0.2253
15262TIP3    H267278   1.729   1.645  10.970  0.5227  1.1821 -2.2895
15263TIP3   OH267279   4.482   7.124   1.681 -0.2234 -0.1696  0.2982
15263TIP3    H167280   4.418   7.114   1.611  0.7452  0.4505 -0.7149
15263TIP3    H267281   4.545   7.054   1.667  0.4975  0.5255 -0.0572
15264TIP3   OH267282   5.889   2.001   0.713  0.5004 -0.4962 -0.1877
15264TIP3    H167283   5.864   2.073   0.654  0.2113  0.4071  0.9883
15264TIP3    H267284   5.812   1.989   0.769  2.0012  1.3246  2.5175
15265TIP3   OH267285   2.430   5.937   3.459 -0.6038  0.0312  0.3292
15265TIP3    H167286   2.391   5.972   3.539  0.4072 -1.0878  1.3704
15265TIP3    H267287   2.472   5.856   3.488 -2.7442 -2.0332 -1.9100
15266TIP3   OH267288   4.856   6.985   5.102  0.2285  0.0164  0.1014
15266TIP3    H167289   4.869   6.895   5.071 -0.1517 -0.0995  0.2635
15266TIP3    H267290   4.767   7.007   5.074 -1.1881 -1.0366  3.3102
15267TIP3   OH267291   5.174   4.429  11.314  0.3570 -0.2437 -0.6039
15267TIP3    H167292   5.265   4.438  11.284  0.6469 -0.8427  0.0713
15267TIP3    H267293   5.157   4.335  11.314 -0.0852 -0.1698 -0.2203
15268TIP3   OH267294   6.905   7.087   3.514 -0.4337 -0.3533  0.2557
15268TIP3    H167295   6.888   6.993   3.509  0.1656 -0.3948 -1.9366
15268TIP3    H267296   6.984   7.101   3.462 -0.0004  1.2624  1.2736
15269TIP3   OH267297   6.636   3.345   2.323 -0.5820 -0.1893 -0.0789
15269TIP3    H167298   6.603   3.404   2.391  0.0687 -1.5618  1.5116
15269TIP3    H267299   6.626   3.394   2.242 -0.9248  1.7360  1.0534
15270TIP3   OH267300   2.839   6.745   3.282  0.0032  0.3929  0.0140
15270TIP3    H167301   2.794   6.830   3.283 -0.2055  0.2973 -0.7387
15270TIP3    H267302   2.931   6.767   3.293  0.0390  0.7905 -0.9670
15271TIP3   OH267303   0.980   4.179   2.252 -0.1948 -0.8644  0.1799
15271TIP3    H167304   0.917   4.111   2.228  0.5700 -0.5624 -3.3008
15271TIP3    H267305   0.927   4.247   2.293 -2.2922 -0.6098 -2.6193
15272TIP3   OH267306   1.280   3.547  10.882 -0.5765 -0.4425 -0.4063
15272TIP3    H167307   1.362   3.502  10.905 -0.3357  0.8827  1.5392
15272TIP3    H267308   1.214   3.505  10.938 -0.4306  1.2182  1.0866
15273TIP3   OH267309   2.802   1.175   3.837  1.0840  0.1237 -0.4232
15273TIP3    H167310   2.773   1.260   3.870 -0.8561 -0.8017  0.4194
15273TIP3    H267311   2.791   1.182   3.742 -0.1157  0.4755 -0.2793
15274TIP3   OH267312   5.305   4.651   4.034  0.2505 -0.1972 -0.2222
15274TIP3    H167313   5.327   4.676   3.944  1.1334 -0.7623 -0.1828
15274TIP3    H267314   5.211   4.663   4.040  0.2855  0.6152 -0.9774
15275TIP3   OH267315   3.786   4.376   5.009  0.1424 -0.0884  0.5507
15275TIP3    H167316   3.815   4.396   4.920 -0.6196  0.2132  0.3576
15275TIP3    H267317   3.819   4.288   5.026  0.5781 -0.0201  0.0979
15276TIP3   OH267318   3.409   5.040  14.185  0.4661 -0.2198  0.3894
15276TIP3    H167319   3.415   5.104  14.114 -0.1739  0.4416  0.9069
15276TIP3    H267320   3.315   5.019  14.190  0.6246 -0.9312  0.4556
15277TIP3   OH267321   1.723   5.947  13.573  0.6169  0.3607 -0.6694
15277TIP3    H167322   1.819   5.942  13.580  0.7102 -1.0440 -2.2218
15277TIP3    H267323   1.708   5.987  13.487 -0.2529  2.7802  0.5292
15278TIP3   OH267324   0.809   4.713   1.061 -0.8167 -0.1921  0.4162
15278TIP3    H167325   0.783   4.743   0.974 -0.8935 -0.4821  0.3388
15278TIP3    H267326   0.873   4.644   1.045 -1.2052 -0.5908  0.5816
15279TIP3   OH267327   6.178   2.246   5.734 -1.0526  0.2856 -0.2844
15279TIP3    H167328   6.190   2.341   5.729 -0.0120  0.2897  1.4090
15279TIP3    H267329   6.251   2.211   5.683 -1.0024  0.3818 -0.2793
15280TIP3   OH267330   0.319   5.661   3.285 -0.3011  0.2000 -0.2393
15280TIP3    H167331   0.387   5.622   3.340 -1.6367 -1.7341  0.1535
15280TIP3    H267332   0.332   5.622   3.199 -0.0718  0.9088 -0.5341
15281TIP3   OH267333   5.218   5.220   4.557  0.1938 -0.1021 -0.2571
15281TIP3    H167334   5.169   5.282   4.504 -0.4303  0.1722  0.6085
15281TIP3    H267335   5.285   5.185   4.498 -0.3517  0.3280 -1.1536
15282TIP3   OH267336   2.141   1.310   3.239 -0.4476  0.2719 -0.3399
15282TIP3    H167337   2.118   1.276   3.325  0.2049  0.1345 -0.2191
15282TIP3    H267338   2.057   1.339   3.202 -1.3812 -3.1369 -1.2163
15283TIP3   OH267339   0.983   6.440   1.292  0.0527  0.0020 -0.2684
15283TIP3    H167340   0.893   6.457   1.264 -1.2609 -2.2643  2.1313
15283TIP3    H267341   0.984   6.465   1.385  2.3551  1.2857 -0.5575
15284TIP3   OH267342   5.527   3.003   2.786 -0.0726 -0.3583 -0.3776
15284TIP3    H167343   5.432   2.992   2.784  0.1429 -3.5639  0.9625
15284TIP3    H267344   5.562   2.914   2.775  2.8921  0.9345 -3.0209
15285TIP3   OH267345   1.742   6.151   0.103 -0.4358 -0.2869 -0.0948
15285TIP3    H167346   1.688   6.229   0.088 -2.4165 -1.5361  0.1350
15285TIP3    H267347   1.803   6.176   0.172 -1.2113  0.9971  0.1540
15286TIP3   OH267348   7.232   2.685   0.472  0.5070  0.5264  0.2892
15286TIP3    H167349   7.189   2.644   0.397 -0.5756 -0.9108  1.6376
15286TIP3    H267350   7.207   2.631   0.547  1.3471  2.0518  1.7415
15287TIP3   OH267351   5.143   7.020   1.503  0.1611 -0.3105  0.1947
15287TIP3    H167352   5.055   7.059   1.503  0.3225  0.1066  1.4048
15287TIP3    H267353   5.196   7.080   1.452  0.4015  1.1190  2.0173
15288TIP3   OH267354   1.695   6.949   2.347 -0.0395 -0.0800  0.2990
15288TIP3    H167355   1.749   6.914   2.418  0.0399 -0.1898  0.1845
15288TIP3    H267356   1.744   6.929   2.267 -0.4261 -0.5019  0.1628
15289TIP3   OH267357   6.567   0.654  14.926  0.6761 -0.7396 -0.1576
15289TIP3    H167358   6.518   0.649  14.844  0.8284  0.6067 -0.3573
15289TIP3    H267359   6.499   0.658  14.994  0.2730  3.2747 -0.5381
15290TIP3   OH267360   2.476   3.027   3.277 -0.0770 -0.2840  0.2812
15290TIP3    H167361   2.559   3.003   3.237  0.1808 -0.1915  0.7629
15290TIP3    H267362   2.420   2.950   3.265  0.1067 -0.3813  0.0485
15291TIP3   OH267363   1.212   5.154   4.033  0.3465 -0.0246  0.1658
15291TIP3    H167364   1.255   5.239   4.029 -0.0358  0.1385 -1.6028
15291TIP3    H267365   1.279   5.091   4.008  0.6439 -0.2698  1.5263
15292TIP3   OH267366   3.656   7.248  15.305  0.5543 -0.3271 -0.0867
15292TIP3    H167367   3.567   7.281  15.303  0.7413  0.2070  0.1748
15292TIP3    H267368   3.677   7.229  15.214  0.9085  1.5621 -0.4422
15293TIP3   OH267369   6.758   3.969   4.266 -0.2455  0.1916 -0.4224
15293TIP3    H167370   6.710   3.899   4.310 -0.5502  1.0027  0.5650
15293TIP3    H267371   6.690   4.031   4.240 -0.0400 -0.1136 -1.7885
15294TIP3   OH267372   3.703   1.690   5.847  0.3142  0.0263  0.3698
15294TIP3    H167373   3.623   1.665   5.801  0.9802  0.5441 -1.1446
15294TIP3    H267374   3.699   1.643   5.930 -0.2894 -2.1075 -0.7884
15295TIP3   OH267375   6.277   6.838   9.696 -0.2341 -0.1202  0.0829
15295TIP3    H167376   6.275   6.930   9.669  1.8243  0.2249  0.9190
15295TIP3    H267377   6.315   6.792   9.621 -2.6333 -0.5952 -0.9341
15296TIP3   OH267378   3.464   7.134   2.033 -0.2464  0.5804 -0.5027
15296TIP3    H167379   3.430   7.074   2.099 -0.9656  1.7719  0.2537
15296TIP3    H267380   3.507   7.078   1.968 -0.0091 -0.6502  0.6882
15297TIP3   OH267381   4.807   5.059   4.817  0.4078  0.2684 -0.0253
15297TIP3    H167382   4.883   5.019   4.859 -0.5109  0.8930  2.4025
15297TIP3    H267383   4.761   4.986   4.777  1.4489 -0.3374 -0.1688
15298TIP3   OH267384   2.347   5.691   6.136  0.6428 -0.0170  0.2307
15298TIP3    H167385   2.439   5.676   6.112  1.2929 -0.7763  2.8444
15298TIP3    H267386   2.325   5.615   6.190 -1.2746  0.5731  0.3227
15299TIP3   OH267387   0.607   3.771   0.928  0.0730 -0.4264  0.1039
15299TIP3    H167388   0.635   3.707   0.863 -0.6150 -0.0932 -0.5364
15299TIP3    H267389   0.519   3.795   0.901 -0.5178 -0.8145  1.5787
15300TIP3   OH267390   3.424   3.356   1.191  0.2384  0.2432  0.0173
15300TIP3    H167391   3.513   3.326   1.205  0.5527  1.2501  0.2556
15300TIP3    H267392   3.433   3.444   1.156 -0.6431 -0.2925 -1.6524
15301TIP3   OH267393   0.889   0.892  13.276 -0.0189  0.4728  0.1892
15301TIP3    H167394   0.839   0.815  13.301  0.8965  0.7420  3.2465
15301TIP3    H267395   0.940   0.865  13.200 -0.8468 -1.4204  0.2619
15302TIP3   OH267396   1.299   1.878  15.055 -0.4950 -0.0511  0.1599
15302TIP3    H167397   1.383   1.901  15.015 -0.5772  1.4289  0.7815
15302TIP3    H267398   1.267   1.805  15.002  1.0874 -0.5220 -0.2027
15303TIP3   OH267399   0.220   1.972   0.398  0.4472  0.2995 -0.2555
15303TIP3    H167400   0.183   1.914   0.332  1.3166  0.2445 -0.7145
15303TIP3    H267401   0.266   1.914   0.458  0.2498  0.4067 -0.0013
15304TIP3   OH267402   0.975   3.730   0.447 -0.3228 -0.7304 -0.0168
15304TIP3    H167403   1.021   3.647   0.459  1.6149  0.5622  1.9979
15304TIP3    H267404   1.020   3.772   0.373  0.4312 -0.3507  0.6502
15305TIP3   OH267405   4.199   7.176   2.884 -0.2019  0.2655 -0.4866
15305TIP3    H167406   4.190   7.245   2.950 -0.7829  0.0272 -0.3080
15305TIP3    H267407   4.271   7.121   2.916 -1.0344 -0.3274  0.3904
15306TIP3   OH267408   4.586   2.647   0.072 -0.0617  0.5312 -0.3220
15306TIP3    H167409   4.496   2.679   0.080  0.0225  0.6138  0.3628
15306TIP3    H267410   4.635   2.695   0.139  0.5811  0.7842 -0.9578
15307TIP3   OH267411   5.091   4.637   3.143 -0.1469  0.0725  0.2146
15307TIP3    H167412   5.035   4.658   3.217  0.1447 -0.8395  0.7142
15307TIP3    H267413   5.178   4.623   3.181  0.3097  0.9277 -0.4798
15308TIP3   OH267414   0.718   2.428   2.744  0.4229 -0.1838 -0.2548
15308TIP3    H167415   0.681   2.396   2.826 -1.1426  0.4411 -0.6795
15308TIP3    H267416   0.802   2.383   2.736  0.7022 -0.1081  1.7714
15309TIP3   OH267417   4.793   4.649   4.456  0.1707 -0.6869  0.1127
15309TIP3    H167418   4.728   4.626   4.522 -0.5798 -0.0602 -0.4010
15309TIP3    H267419   4.875   4.612   4.490 -0.0796  0.1114  1.6776
15310TIP3   OH267420   6.469   4.574   3.366  0.0720 -0.2966  0.2773
15310TIP3    H167421   6.467   4.667   3.391  1.3774 -0.1189 -0.2016
15310TIP3    H267422   6.385   4.559   3.324 -0.5391  0.4179  1.2003
15311TIP3   OH267423   4.455   6.294  12.047 -0.1365 -0.0046 -0.4323
15311TIP3    H167424   4.412   6.208  12.044  1.8552 -1.1090  0.3837
15311TIP3    H267425   4.460   6.315  12.141  2.3596 -0.6870 -0.3229
15312TIP3   OH267426   0.903   6.012   3.776  0.0060  0.2886 -0.8111
15312TIP3    H167427   0.917   5.999   3.870 -1.2610  0.5924 -0.5529
15312TIP3    H267428   0.983   6.055   3.745  1.2286 -1.5071 -0.2608
15313TIP3   OH267429   2.869   2.160   4.859  0.5701 -0.5788  0.1796
15313TIP3    H167430   2.868   2.097   4.931  2.9374 -0.2216  0.6138
15313TIP3    H267431   2.918   2.234   4.893 -0.6411  0.7775 -0.9172
15314TIP3   OH267432   2.341   0.462   1.755 -0.3004  0.4142 -0.3168
15314TIP3    H167433   2.376   0.373   1.748  0.2122  0.5899 -0.0803
15314TIP3    H267434   2.355   0.485   1.847  0.2274  1.0031 -0.5375
15315TIP3   OH267435   5.890   3.838   4.517  0.1594 -0.6789  0.1508
15315TIP3    H167436   5.896   3.922   4.471 -0.9490 -0.7825 -0.2038
15315TIP3    H267437   5.826   3.852   4.586 -0.7058 -1.4677 -0.4659
15316TIP3   OH267438   2.364   0.167   5.610 -0.2930  0.2387  0.3531
15316TIP3    H167439   2.428   0.239   5.603  1.2818 -0.8433  2.4844
15316TIP3    H267440   2.400   0.098   5.554  0.1574 -0.1893  1.1601
15317TIP3   OH267441   7.038   5.458   4.381  0.5570  0.1285 -0.1407
15317TIP3    H167442   7.093   5.383   4.403 -0.0105 -0.3661 -0.3551
15317TIP3    H267443   7.095   5.534   4.390  0.8460 -0.2128  1.2146
15318TIP3   OH267444   2.548   0.377   2.895  0.1127  0.1589  0.4221
15318TIP3    H167445   2.554   0.472   2.909  1.1043 -0.0010  1.1895
15318TIP3    H267446   2.473   0.349   2.949  0.7655  0.2975  1.4288
15319TIP3   OH267447   6.980   6.942   3.042 -0.1734 -0.0610  0.1522
15319TIP3    H167448   6.944   7.009   2.984  0.3098  0.8320  0.8514
15319TIP3    H267449   6.925   6.947   3.121 -1.6504 -2.1325 -0.6305
15320TIP3   OH267450   4.016   0.246   4.289  0.2609  0.2764  0.0245
15320TIP3    H167451   4.009   0.340   4.305  0.3485  0.4277 -0.7777
15320TIP3    H267452   4.021   0.238   4.194 -2.5686 -0.7156 -0.1276
15321TIP3   OH267453   5.198   5.403   1.164  0.0596 -0.6570  0.5658
15321TIP3    H167454   5.283   5.411   1.122  0.0976 -0.0846  0.7405
15321TIP3    H267455   5.189   5.310   1.184 -0.8136 -1.3248 -2.4791
15322TIP3   OH267456   2.977   3.743   3.801  0.2125 -0.2024  0.3414
15322TIP3    H167457   2.968   3.737   3.706 -2.3648  1.9314  0.3226
15322TIP3    H267458   2.912   3.682   3.835  1.6301 -1.5033  0.8038
15323TIP3   OH267459   5.723   3.440   4.467  0.2445  0.7345  0.5543
15323TIP3    H167460   5.670   3.415   4.391 -0.6885 -2.0204  1.9981
15323TIP3    H267461   5.659   3.468   4.533  0.5731 -1.5151  1.9203
15324TIP3   OH267462   3.260   5.410  14.789  0.4301 -0.4991  0.0500
15324TIP3    H167463   3.200   5.360  14.845  0.6659  1.1521  1.8394
15324TIP3    H267464   3.209   5.485  14.759  0.2655 -1.4018 -2.1466
15325TIP3   OH267465   2.844   2.489   3.576 -0.1320 -0.0803 -0.1233
15325TIP3    H167466   2.798   2.508   3.494  0.9452 -1.3971 -1.0699
15325TIP3    H267467   2.778   2.448   3.631 -0.7245  0.2805 -0.5441
15326TIP3   OH267468   1.502   3.215   4.952  0.0147  0.0300 -1.1169
15326TIP3    H167469   1.578   3.236   4.898 -0.9958 -0.9907 -3.0535
15326TIP3    H267470   1.455   3.298   4.961  0.7964  0.4459 -0.8193
15327TIP3   OH267471   2.023   1.828   0.729 -0.2056 -0.3834  0.7074
15327TIP3    H167472   2.082   1.888   0.776 -0.1303 -0.3047  0.5130
15327TIP3    H267473   2.082   1.767   0.684 -0.2355  0.3833 -0.4069
15328TIP3   OH267474   3.108   0.730  14.200  0.1956 -0.0181 -0.2817
15328TIP3    H167475   3.121   0.820  14.171  2.1542  0.3036  1.3706
15328TIP3    H267476   3.039   0.737  14.267 -0.8771 -0.0530 -1.3424
15329TIP3   OH267477   6.995   1.071  10.742 -0.4129  0.4083  0.3331
15329TIP3    H167478   7.079   1.118  10.748  0.3846 -0.7371 -1.2378
15329TIP3    H267479   6.994   1.035  10.654 -1.8798 -0.9054  0.8458
15330TIP3   OH267480   1.666   2.505   1.665 -0.1905  0.1155  0.3371
15330TIP3    H167481   1.671   2.470   1.754 -1.4366  0.7909  0.7016
15330TIP3    H267482   1.590   2.460   1.626 -0.1112  0.3738 -0.1199
15331TIP3   OH267483   2.725   1.049   3.016  0.1892 -0.0459  0.0171
15331TIP3    H167484   2.742   1.047   3.110 -0.3311 -1.7754  0.1061
15331TIP3    H267485   2.650   1.108   3.006  0.0306 -0.1185  0.7162
15332TIP3   OH267486   2.955   2.754   5.296 -0.4001 -0.3415  0.3033
15332TIP3    H167487   2.971   2.806   5.375 -1.6297 -1.0658  1.0636
15332TIP3    H267488   2.888   2.803   5.249 -1.5487 -1.1766  1.0124
15333TIP3   OH267489   1.506   0.852   1.840  0.3261  0.0120  0.5370
15333TIP3    H167490   1.595   0.841   1.808  1.4743  2.9813  2.2523
15333TIP3    H267491   1.516   0.864   1.935 -1.9289  0.1552  0.8044
15334TIP3   OH267492   4.124   6.115   1.351 -0.5537  0.2335  0.2425
15334TIP3    H167493   4.149   6.111   1.444 -0.9631  1.7859  0.4468
15334TIP3    H267494   4.207   6.111   1.303 -0.1748  1.3147  0.7638
15335TIP3   OH267495   1.352   0.867   1.396  0.3389  0.7202  0.5912
15335TIP3    H167496   1.370   0.825   1.480  1.0638 -1.8400 -0.7472
15335TIP3    H267497   1.259   0.851   1.381  0.2104  1.1740  0.8820
15336TIP3   OH267498   4.153   5.893   2.384  0.2015 -0.3379 -0.0950
15336TIP3    H167499   4.096   5.829   2.426  0.8738 -0.5050  0.5970
15336TIP3    H267500   4.241   5.867   2.410  0.7741 -1.1293 -2.5572
15337TIP3   OH267501   4.158   2.952   3.137 -0.3679  0.2098 -0.0442
15337TIP3    H167502   4.238   2.932   3.185  0.1725 -0.6539 -1.2563
15337TIP3    H267503   4.108   3.009   3.196  0.0972 -1.0765  1.6713
15338TIP3   OH267504   3.036   3.707   0.746 -0.4379  0.2188 -0.5065
15338TIP3    H167505   3.051   3.682   0.655 -0.6535 -1.7671 -0.0422
15338TIP3    H267506   3.020   3.625   0.791 -2.4424  1.3230  0.9570
15339TIP3   OH267507   6.081   6.922  11.558  0.3670 -0.4001 -0.3082
15339TIP3    H167508   6.108   6.844  11.605  0.9493 -1.0564 -1.6882
15339TIP3    H267509   6.002   6.951  11.604  0.4658 -1.4572  0.5694
15340TIP3   OH267510   5.183   6.291   3.398 -0.0326 -0.5953  0.5516
15340TIP3    H167511   5.238   6.338   3.461 -1.4579  0.5935  0.9839
15340TIP3    H267512   5.174   6.353   3.325  0.7004 -1.5252 -0.3576
15341TIP3   OH267513   0.041   3.942   2.620  0.4185  0.3787 -0.1227
15341TIP3    H167514   0.015   4.004   2.688 -0.3308 -0.5715  0.4824
15341TIP3    H267515   0.060   3.996   2.544 -2.2631  1.2318 -0.2728
15342TIP3   OH267516   4.168   0.745   2.134 -0.4257 -0.2549  0.7455
15342TIP3    H167517   4.204   0.765   2.220 -1.3826 -1.3717  1.4392
15342TIP3    H267518   4.087   0.697   2.152 -0.9676  0.0170 -0.7765
15343TIP3   OH267519   0.118   4.461  11.155  1.1066 -0.1446 -0.0590
15343TIP3    H167520   0.032   4.499  11.140  0.1178 -2.0660  0.4330
15343TIP3    H267521   0.149   4.437  11.067  0.9205  0.1152 -0.1962
15344TIP3   OH267522   5.554   2.930   3.311  0.4102  0.3202  0.1968
15344TIP3    H167523   5.482   2.927   3.249 -0.7029  1.3011  1.3710
15344TIP3    H267524   5.538   2.856   3.370  0.9384 -0.0560 -0.1240
15345TIP3   OH267525   1.677   0.847   4.312  0.4537 -0.2288 -0.3909
15345TIP3    H167526   1.594   0.894   4.311 -0.1791 -1.3319 -0.3696
15345TIP3    H267527   1.732   0.894   4.249 -0.3338  0.2114 -0.7592
15346TIP3   OH267528   1.414   6.550   4.278  0.1860  0.1690 -0.2782
15346TIP3    H167529   1.345   6.557   4.344 -0.2548 -0.3190 -0.6718
15346TIP3    H267530   1.446   6.460   4.287 -0.2840 -0.0928 -1.1070
15347TIP3   OH267531   3.705   5.814   3.353  0.4724  0.2817 -0.1229
15347TIP3    H167532   3.765   5.778   3.418  2.1184 -1.4386 -2.4472
15347TIP3    H267533   3.676   5.738   3.302 -1.0469  1.5103 -1.1914
15348TIP3   OH267534   4.689   6.878   2.132  0.0653  0.9305 -0.1900
15348TIP3    H167535   4.762   6.891   2.071 -0.2278  0.7166 -0.5917
15348TIP3    H267536   4.710   6.935   2.207 -0.5678  2.8026 -1.3498
15349TIP3   OH267537   3.252   3.239   2.205 -0.8435 -0.5712 -0.1291
15349TIP3    H167538   3.240   3.334   2.212  0.9905 -0.3319  0.3274
15349TIP3    H267539   3.203   3.215   2.126 -0.1268  1.0101 -1.1123
15350TIP3   OH267540   5.389   2.711  14.226  0.2350  0.5271  0.8015
15350TIP3    H167541   5.324   2.702  14.297 -1.2151 -0.6599 -0.5989
15350TIP3    H267542   5.457   2.647  14.248 -1.6662 -2.0446 -0.3111
15351TIP3   OH267543   0.091   1.823   0.618  0.7475 -0.0598  0.4408
15351TIP3    H167544   0.184   1.801   0.606  0.6719 -1.9071  2.6018
15351TIP3    H267545   0.058   1.755   0.676 -2.0080  0.5473 -0.2816
15352TIP3   OH267546   1.453   7.001   5.261  0.2641  0.0247 -0.1633
15352TIP3    H167547   1.362   7.003   5.292  0.6763 -0.5505  1.1622
15352TIP3    H267548   1.497   6.938   5.318  1.6897  0.8942 -0.2329
15353TIP3   OH267549   2.896   2.330   2.862 -0.1498  0.6198  0.4223
15353TIP3    H167550   2.886   2.265   2.793 -0.9978 -0.0655  1.1634
15353TIP3    H267551   2.949   2.399   2.822  1.0139 -0.6317 -0.2858
15354TIP3   OH267552   4.175   6.726   1.658 -0.3152  0.3374  0.5374
15354TIP3    H167553   4.178   6.729   1.753 -1.9906  0.4715  0.6245
15354TIP3    H267554   4.154   6.816   1.632  0.4434  0.3688  0.0201
15355TIP3   OH267555   2.487   0.062   0.723  0.3753 -0.1618 -0.1442
15355TIP3    H167556   2.500   0.015   0.805  0.4450 -1.6237 -0.9650
15355TIP3    H267557   2.481  -0.006   0.656  2.1042  1.0068 -1.6222
15356TIP3   OH267558   4.744   1.954  11.146  0.5744  0.2972 -0.1130
15356TIP3    H167559   4.746   2.049  11.138 -2.0035  0.3505 -1.0375
15356TIP3    H267560   4.716   1.923  11.060  0.1363 -1.2156  0.5401
15357TIP3   OH267561   2.161   0.077   1.341 -0.3766 -0.1080  0.2362
15357TIP3    H167562   2.234   0.034   1.298 -0.9102 -1.0391  0.2288
15357TIP3    H267563   2.188   0.086   1.432 -1.1297 -2.6760  0.8187
15358TIP3   OH267564   2.445   3.628   4.141 -0.0004 -0.0201  0.0541
15358TIP3    H167565   2.439   3.612   4.235  0.7327 -0.1081  0.0889
15358TIP3    H267566   2.504   3.703   4.133  0.7603 -0.6493 -0.3880
15359TIP3   OH267567   7.017   0.718   4.014 -0.1172  0.3190 -0.8858
15359TIP3    H167568   7.007   0.812   4.005  0.9498  0.7234  1.4622
15359TIP3    H267569   6.937   0.689   4.059 -0.0283  0.2455 -0.7749
15360TIP3   OH267570   4.922   4.849   1.825 -0.2041 -0.0824  0.2762
15360TIP3    H167571   4.937   4.904   1.902 -0.6986 -0.0514  0.3583
15360TIP3    H267572   4.870   4.905   1.767 -1.5220 -0.7570  0.7472
15361TIP3   OH267573   0.773   3.427  12.057 -0.2661  0.1540 -0.3344
15361TIP3    H167574   0.755   3.374  11.979  0.6809 -0.2547 -0.2890
15361TIP3    H267575   0.713   3.392  12.123  0.2478 -0.7995 -0.3448
15362TIP3   OH267576   6.076   5.524  15.257 -0.2574  0.2800 -0.2360
15362TIP3    H167577   6.065   5.462  15.185 -1.0343 -0.6040  0.6247
15362TIP3    H267578   6.071   5.471  15.336  1.3855  1.1190  0.4802
15363TIP3   OH267579   2.885   2.054   4.008  0.1066  0.1302  0.4182
15363TIP3    H167580   2.942   2.049   4.084 -1.9670 -0.3390  2.0466
15363TIP3    H267581   2.841   1.969   4.005 -0.1230  0.2687 -1.1075
15364TIP3   OH267582   0.638   3.643   5.365 -0.3109 -0.1921  0.3691
15364TIP3    H167583   0.588   3.682   5.293 -0.0380  0.1826  0.3784
15364TIP3    H267584   0.587   3.664   5.443  0.1471  0.7033  0.4448
15365TIP3   OH267585   1.133   6.917   4.505 -0.2580 -0.0728 -0.1539
15365TIP3    H167586   1.155   6.988   4.564 -2.0104  1.0330 -0.7660
15365TIP3    H267587   1.050   6.883   4.537 -0.0841 -0.9870 -0.6267
15366TIP3   OH267588   3.644   6.473   4.565 -0.0339  0.3768  0.0677
15366TIP3    H167589   3.733   6.441   4.549 -0.1048 -0.1047  0.5993
15366TIP3    H267590   3.589   6.421   4.506  0.0357  0.6427 -0.2281
15367TIP3   OH267591   0.682   1.443   0.697  0.3170 -0.1150 -0.2068
15367TIP3    H167592   0.716   1.517   0.748 -0.3794 -0.7473  1.2161
15367TIP3    H267593   0.588   1.446   0.712  0.1052 -0.3861 -1.4052
15368TIP3   OH267594   0.173   2.489   1.726  0.2401  0.0510  0.0438
15368TIP3    H167595   0.252   2.436   1.734  0.5996  0.5007 -0.4459
15368TIP3    H267596   0.184   2.559   1.791  0.6498  0.6035 -0.6081
15369TIP3   OH267597   5.669   4.016   3.331  0.4970  0.1517 -0.0703
15369TIP3    H167598   5.650   3.930   3.370  3.0846 -0.0293  1.0164
15369TIP3    H267599   5.639   4.079   3.397  0.3505  0.0189 -0.0086
15370TIP3   OH267600   4.772   5.083   1.354 -0.4317  0.1885 -0.2615
15370TIP3    H167601   4.786   5.163   1.405  1.9508 -0.0383 -0.4384
15370TIP3    H267602   4.725   5.112   1.276 -0.3667  1.2562  0.0862
15371TIP3   OH267603   4.633   0.329   4.554 -0.2710  0.0171  0.4341
15371TIP3    H167604   4.675   0.249   4.584 -1.1455 -0.7761 -0.4065
15371TIP3    H267605   4.705   0.393   4.548  0.6750 -1.0786 -0.2158
15372TIP3   OH267606   3.485   6.199   3.486 -0.4705  0.0828  0.0640
15372TIP3    H167607   3.482   6.111   3.525  0.2647 -0.6351 -1.4388
15372TIP3    H267608   3.560   6.197   3.427 -0.6741  1.6141 -0.2914
15373TIP3   OH267609   3.471   3.545   4.572  0.4243 -0.6106 -0.3618
15373TIP3    H167610   3.444   3.501   4.491  0.8946  1.7639 -1.9353
15373TIP3    H267611   3.564   3.564   4.558  0.5251 -0.2154  0.7796
15374TIP3   OH267612   3.331   6.614  12.811  0.1784  0.3963  0.1868
15374TIP3    H167613   3.300   6.528  12.841 -1.3625  1.0583  0.5474
15374TIP3    H267614   3.374   6.652  12.887  0.7901  0.0027  0.0503
15375TIP3   OH267615   2.675   2.280   0.131 -0.0332  0.0294  0.0725
15375TIP3    H167616   2.615   2.329   0.188  0.4156 -0.8949  1.3980
15375TIP3    H267617   2.653   2.188   0.146  1.9100 -0.3655  0.8894
15376TIP3   OH267618   0.565   6.150   2.049 -0.1031  0.0708  0.2227
15376TIP3    H167619   0.496   6.206   2.084 -0.2110 -0.6892  1.2611
15376TIP3    H267620   0.521   6.069   2.024  0.3866 -0.3944  0.8305
15377TIP3   OH267621   7.236   5.521   3.224 -0.3449 -0.7864 -0.3957
15377TIP3    H167622   7.280   5.473   3.294 -0.8837 -0.6785  0.0219
15377TIP3    H267623   7.148   5.536   3.257  0.0282  1.2074 -0.1342
15378TIP3   OH267624   2.572   6.685   3.579 -0.0739  0.2161 -0.0722
15378TIP3    H167625   2.509   6.697   3.649  0.0452  0.6904 -0.0422
15378TIP3    H267626   2.657   6.683   3.623  0.1200  1.9053 -0.3103
15379TIP3   OH267627   5.761   5.724   5.635 -0.6688 -0.2611 -0.1780
15379TIP3    H167628   5.838   5.697   5.687 -0.6732  0.7058  0.3591
15379TIP3    H267629   5.694   5.744   5.701 -0.9089  0.2863 -0.5856
15380TIP3   OH267630   2.094   2.663  14.054  0.1424  0.4795 -0.3653
15380TIP3    H167631   2.154   2.678  14.128  0.2370  0.0710 -0.3554
15380TIP3    H267632   2.009   2.695  14.085  0.4371  1.4448 -0.5326
15381TIP3   OH267633   3.355   5.641   6.175 -0.3059  0.1671  0.2841
15381TIP3    H167634   3.347   5.684   6.089 -0.7935 -0.1214  0.1813
15381TIP3    H267635   3.266   5.616   6.197 -0.1858  0.2664  0.8964
15382TIP3   OH267636   2.271   6.491   5.165  0.4636 -0.0448 -0.2456
15382TIP3    H167637   2.280   6.413   5.110  1.0817 -0.7259  0.7844
15382TIP3    H267638   2.177   6.508   5.168  0.3225 -0.7440 -0.5005
15383TIP3   OH267639   3.653   4.379  11.825 -0.1168 -0.0313 -0.8093
15383TIP3    H167640   3.748   4.388  11.821 -0.1085 -0.1798 -0.9538
15383TIP3    H267641   3.621   4.469  11.831  0.1019 -0.0262  1.0241
15384TIP3   OH267642   5.011   0.963   5.203  0.0280 -0.4186 -0.5086
15384TIP3    H167643   5.016   1.056   5.178 -0.8124 -0.1783  0.1807
15384TIP3    H267644   5.071   0.919   5.143 -0.9420  0.3177 -2.1037
15385TIP3   OH267645   6.614   2.576   5.751  0.4466 -0.6060 -0.6306
15385TIP3    H167646   6.704   2.600   5.730 -0.1508  1.0216 -1.4351
15385TIP3    H267647   6.610   2.581   5.847  0.9621  0.3203 -0.6432
15386TIP3   OH267648   7.124   0.298   1.210 -0.0094 -0.1812  0.1598
15386TIP3    H167649   7.094   0.321   1.297  1.7137  0.1841  0.7037
15386TIP3    H267650   7.046   0.303   1.155 -0.6782  2.0616  1.1968
15387TIP3   OH267651   2.787   2.845   4.065  1.0178  0.5734  0.7553
15387TIP3    H167652   2.750   2.775   4.118 -3.0751  1.7479 -0.2128
15387TIP3    H267653   2.823   2.907   4.129 -0.2371  0.1307  1.9243
15388TIP3   OH267654   4.001   2.180   4.260 -0.1066 -0.1444 -0.3621
15388TIP3    H167655   3.991   2.258   4.315  0.7715 -0.1222 -0.2202
15388TIP3    H267656   4.094   2.177   4.238 -0.4661 -0.0528 -2.0224
15389TIP3   OH267657   3.475   1.495  14.812  0.1226 -0.7135  0.6491
15389TIP3    H167658   3.487   1.557  14.740 -1.2534 -0.7628  0.3609
15389TIP3    H267659   3.485   1.548  14.891  2.2322 -0.7636  0.4775
15390TIP3   OH267660   0.966   4.945   4.712 -0.6548 -0.6505 -0.0908
15390TIP3    H167661   0.986   4.984   4.627  1.1407 -2.4337 -0.5580
15390TIP3    H267662   0.872   4.927   4.708 -1.0593  1.3226 -0.7762
15391TIP3   OH267663   4.223   5.342   3.531  0.4526 -0.1515 -0.2466
15391TIP3    H167664   4.244   5.281   3.460  0.2163 -0.2226 -0.2575
15391TIP3    H267665   4.254   5.427   3.499  0.9321 -0.2921 -0.1614
15392TIP3   OH267666   6.367   0.176  12.773  0.0957  0.0019 -0.6022
15392TIP3    H167667   6.335   0.088  12.754 -2.6955  0.9987 -1.1036
15392TIP3    H267668   6.435   0.191  12.708 -0.2205 -1.3622 -1.2904
15393TIP3   OH267669   5.139   1.284  12.430 -0.0385  0.3025 -0.0220
15393TIP3    H167670   5.206   1.352  12.438  0.9083 -0.6860  0.8057
15393TIP3    H267671   5.061   1.322  12.470  0.4323  0.9521  0.2936
15394TIP3   OH267672   7.077   0.327   1.725  0.3847 -0.3010  0.5805
15394TIP3    H167673   7.166   0.327   1.759  0.5315  1.0626  0.2367
15394TIP3    H267674   7.024   0.365   1.795 -0.0652 -1.6711  1.0352
15395TIP3   OH267675   3.305   2.574   3.518  0.0754 -0.2420 -0.1037
15395TIP3    H167676   3.229   2.602   3.467  0.2467  0.7896  0.1705
15395TIP3    H267677   3.267   2.538   3.599 -0.1597 -1.0176 -0.5506
15396TIP3   OH267678   6.756   0.049   5.124 -0.2092  0.8691 -0.1184
15396TIP3    H167679   6.783   0.051   5.216 -1.1410  0.1339  0.1924
15396TIP3    H267680   6.660   0.051   5.127 -0.2494  1.2129 -1.0959
15397TIP3   OH267681   3.055   5.512   3.062  0.4715  0.0093 -0.1479
15397TIP3    H167682   3.001   5.497   2.984 -0.5201  2.4163 -0.0047
15397TIP3    H267683   3.138   5.468   3.043  0.2177  0.4392 -2.5329
15398TIP3   OH267684   0.813   7.187   4.844  0.6101  0.2620  0.1883
15398TIP3    H167685   0.879   7.152   4.784  0.4195 -0.3318  0.3173
15398TIP3    H267686   0.846   7.165   4.931  0.0573 -0.3919  0.2433
15399TIP3   OH267687   3.275   6.346   5.436  0.1897  0.1959 -0.1291
15399TIP3    H167688   3.210   6.280   5.460  1.5428 -0.9143  0.5551
15399TIP3    H267689   3.250   6.423   5.487  0.2848 -0.6978  1.3280
15400TIP3   OH267690   2.204   3.547  12.216  0.2437 -0.8006 -0.0321
15400TIP3    H167691   2.152   3.570  12.293 -1.0156  0.9214 -1.3400
15400TIP3    H267692   2.284   3.598  12.225 -0.6687  0.8091 -0.7161
15401TIP3   OH267693   5.107   6.645   2.302  0.0190  0.2025 -0.3687
15401TIP3    H167694   5.126   6.664   2.211 -0.6437  2.2451 -0.1253
15401TIP3    H267695   5.180   6.589   2.330  0.7899  0.4139 -1.8539
15402TIP3   OH267696   5.340   2.940   3.557 -0.3478 -0.7410  0.4699
15402TIP3    H167697   5.431   2.926   3.582 -0.4056 -0.8662  0.6113
15402TIP3    H267698   5.330   3.035   3.552 -0.9779 -0.5662  3.3029
15403TIP3   OH267699   1.827   2.279   0.462 -0.0489 -0.0855  0.0357
15403TIP3    H167700   1.829   2.196   0.509 -0.3256 -1.3759 -2.0804
15403TIP3    H267701   1.787   2.341   0.523 -1.7968 -2.0169  0.9812
15404TIP3   OH267702   1.416   5.115   5.738  0.0308 -0.2039  0.6149
15404TIP3    H167703   1.486   5.093   5.800 -3.0112  0.0504  4.5563
15404TIP3    H267704   1.339   5.069   5.772 -2.3982  1.9020 -1.6527
15405TIP3   OH267705   2.623   6.168   1.597  0.1500 -0.3337  0.2832
15405TIP3    H167706   2.666   6.223   1.664  0.4179  0.0633 -0.2091
15405TIP3    H267707   2.572   6.105   1.648 -1.0543  1.0566  0.8670
15406TIP3   OH267708   0.623   5.629   3.147 -0.0182  0.0506  0.6568
15406TIP3    H167709   0.657   5.678   3.222  1.3343 -0.2588  0.2739
15406TIP3    H267710   0.633   5.690   3.073 -0.8305  0.1529  0.6264
15407TIP3   OH267711   4.109   4.183   3.375 -0.4808 -0.4520 -0.1003
15407TIP3    H167712   4.131   4.205   3.466 -0.1358 -0.4809 -0.1770
15407TIP3    H267713   4.013   4.179   3.374 -0.4924 -0.2635  0.2190
15408TIP3   OH267714   0.062   0.072  14.941 -0.3093  0.6267 -0.1561
15408TIP3    H167715   0.020   0.028  15.015 -0.1842  2.4125  1.0414
15408TIP3    H267716   0.109   0.002  14.895  0.7750 -0.3423  2.2752
15409TIP3   OH267717   3.787   0.189   4.617  0.9583  0.1419  0.4185
15409TIP3    H167718   3.850   0.150   4.556  1.2050  2.9397 -1.2868
15409TIP3    H267719   3.840   0.215   4.693  1.3693  0.0902  0.1525
15410TIP3   OH267720   0.360   1.121   0.941 -0.3190  0.5284 -0.0505
15410TIP3    H167721   0.443   1.085   0.973  0.0161  1.7316  0.4896
15410TIP3    H267722   0.358   1.210   0.975 -2.6014  0.0262  1.3548
15411TIP3   OH267723   4.491   2.764   3.846  0.0432 -0.1166  0.0884
15411TIP3    H167724   4.428   2.693   3.861 -1.3553  0.8199 -1.0291
15411TIP3    H267725   4.501   2.767   3.751 -1.3397  2.2943 -0.0539
15412TIP3   OH267726   0.350   0.042   5.163 -0.2879 -0.1730  0.1718
15412TIP3    H167727   0.306   0.054   5.247 -0.0105  0.7055  0.1989
15412TIP3    H267728   0.342   0.127   5.119 -2.7805 -1.3026 -1.8443
15413TIP3   OH267729   1.858   3.423   2.597 -0.0807  0.0912 -0.1960
15413TIP3    H167730   1.944   3.401   2.560  0.4946  0.8704  0.6370
15413TIP3    H267731   1.803   3.443   2.521  0.6414  0.1755 -0.7009
15414TIP3   OH267732   3.512   4.730   5.575 -0.3758 -0.0020 -0.2708
15414TIP3    H167733   3.581   4.699   5.635 -1.1156  1.0083  1.1615
15414TIP3    H267734   3.471   4.650   5.542  1.7365 -0.6542 -1.5400
15415TIP3   OH267735   3.312   2.411   2.310 -0.2101  0.1862  0.2020
15415TIP3    H167736   3.352   2.393   2.395 -0.4215 -0.8334  0.1017
15415TIP3    H267737   3.349   2.495   2.283  3.8374 -1.7471 -1.0439
15416TIP3   OH267738   6.660   4.891   1.709 -0.3367  0.3453  0.6510
15416TIP3    H167739   6.751   4.867   1.694 -0.1288  1.4322  0.0162
15416TIP3    H267740   6.657   4.919   1.801  0.0712  0.6845  0.5666
15417TIP3   OH267741   3.883   6.206   1.260  0.7515  0.3396  0.2770
15417TIP3    H167742   3.951   6.173   1.319  2.4699  0.5647 -1.4776
15417TIP3    H267743   3.884   6.145   1.186 -1.6172 -0.1571  0.5761
15418TIP3   OH267744   6.070   3.423   3.049 -0.0116  0.0356  0.3189
15418TIP3    H167745   6.091   3.464   3.133 -2.1167  0.7877  0.5249
15418TIP3    H267746   6.012   3.485   3.005  0.2905 -0.7715 -1.3076
15419TIP3   OH267747   4.011   7.236  13.742  0.1518 -0.3488  0.1675
15419TIP3    H167748   4.029   7.147  13.770  0.2440 -1.0096 -1.8536
15419TIP3    H267749   3.922   7.253  13.772 -0.8109 -2.0541 -1.5229
15420TIP3   OH267750   5.160   3.978  14.901  0.7184  0.2882  0.3977
15420TIP3    H167751   5.198   4.040  14.963  0.4381 -0.2154  1.0978
15420TIP3    H267752   5.160   4.024  14.817  2.6132  0.4065  0.4091
15421TIP3   OH267753   5.012   4.263   0.741 -0.0842 -0.6287 -0.3852
15421TIP3    H167754   5.070   4.217   0.682 -1.9679  2.4750 -5.2784
15421TIP3    H267755   4.933   4.208   0.746  0.0595 -0.8724 -0.8289
15422TIP3   OH267756   7.153   2.765   2.714 -0.8107 -0.3187 -0.1427
15422TIP3    H167757   7.066   2.754   2.675 -1.3545 -0.2379  1.0109
15422TIP3    H267758   7.142   2.837   2.777  0.1621 -0.1198 -0.1858
15423TIP3   OH267759   5.045   1.979   5.553 -0.1244 -0.9874  0.2945
15423TIP3    H167760   5.072   1.895   5.516  1.1322 -0.7800  0.6687
15423TIP3    H267761   5.091   1.983   5.637 -0.9703 -0.3667  0.7396
15424TIP3   OH267762   6.908   3.152   1.130 -0.0057 -0.5195  0.1064
15424TIP3    H167763   6.924   3.231   1.078 -4.1560 -0.1945 -1.0419
15424TIP3    H267764   6.909   3.183   1.221 -0.8297  0.7933 -0.2970
15425TIP3   OH267765   6.890   6.669   3.239  0.4034  0.1191  0.0570
15425TIP3    H167766   6.868   6.762   3.227  1.2237  0.5655  1.7280
15425TIP3    H267767   6.810   6.622   3.217 -0.3952  1.3109  0.3571
15426TIP3   OH267768   3.552   3.655   3.758 -0.1432 -0.6335  0.5806
15426TIP3    H167769   3.484   3.671   3.692  1.3448  0.5713 -0.7438
15426TIP3    H267770   3.630   3.698   3.723  1.0135 -0.9530  2.6064
15427TIP3   OH267771   6.056   6.098  10.249 -0.1635  0.7464 -0.3780
15427TIP3    H167772   5.973   6.052  10.261 -0.3105  1.5017  2.1202
15427TIP3    H267773   6.119   6.029  10.231 -0.8765 -0.1460  0.4344
15428TIP3   OH267774   2.981   5.512  14.627 -0.0605 -0.0425  0.2343
15428TIP3    H167775   2.902   5.556  14.659  1.7758  1.7917  2.6330
15428TIP3    H267776   2.992   5.438  14.687  0.5517  0.2874  0.5366
15429TIP3   OH267777   1.231   2.138   1.441  0.1472 -0.1232 -0.1865
15429TIP3    H167778   1.212   2.195   1.515 -0.7877  1.3718 -1.5134
15429TIP3    H267779   1.167   2.067   1.447  0.1651 -0.0812  0.4885
15430TIP3   OH267780   1.948   5.282   4.058  0.1139 -0.2358 -0.3109
15430TIP3    H167781   2.011   5.225   4.102 -0.2836 -1.2156 -0.9634
15430TIP3    H267782   1.865   5.234   4.063 -0.3980  0.6352 -0.2247
15431TIP3   OH267783   4.564   6.997   3.757  0.0622  0.0313 -0.1358
15431TIP3    H167784   4.496   6.933   3.778  0.1870  0.7834  3.0378
15431TIP3    H267785   4.645   6.946   3.755  0.3692  0.0731  3.7761
15432TIP3   OH267786   5.161   2.962   1.415 -0.6063  0.3877 -0.8463
15432TIP3    H167787   5.128   2.960   1.325  0.5424  1.2781 -1.3200
15432TIP3    H267788   5.127   2.882   1.455  0.6910 -1.2142 -2.7444
15433TIP3   OH267789   6.514   2.593   2.252  0.3976 -0.1753  0.4179
15433TIP3    H167790   6.542   2.528   2.188 -4.4274 -1.5423 -0.6904
15433TIP3    H267791   6.456   2.545   2.311 -0.3806  2.3670  1.8808
15434TIP3   OH267792   2.933   4.889   3.723  0.2622 -0.3029 -0.1605
15434TIP3    H167793   3.014   4.843   3.699  1.1279  0.7539  0.6093
15434TIP3    H267794   2.912   4.941   3.646 -0.3140 -1.4079 -0.7662
15435TIP3   OH267795   7.024   4.593  10.428 -0.2421  0.5369 -0.1104
15435TIP3    H167796   7.115   4.619  10.446  0.3474 -1.3167 -0.1693
15435TIP3    H267797   6.984   4.671  10.390  1.7930  0.9242 -1.6679
15436TIP3   OH267798   2.845   0.513   0.248 -0.1533  0.0471  0.0724
15436TIP3    H167799   2.929   0.473   0.227 -1.4486 -2.2366 -1.1687
15436TIP3    H267800   2.811   0.544   0.165 -1.0618 -0.1989  0.3342
15437TIP3   OH267801   6.677   0.016   3.792 -0.5457 -0.2623 -0.2085
15437TIP3    H167802   6.592  -0.006   3.832 -0.5763 -0.6694 -0.4958
15437TIP3    H267803   6.658   0.026   3.699 -0.5905  1.3117 -0.0473
15438TIP3   OH267804   3.197   2.032   3.969 -0.5931 -0.5850  0.4350
15438TIP3    H167805   3.226   1.979   3.895 -0.7876  0.4923 -0.4488
15438TIP3    H267806   3.198   1.973   4.044  0.7958 -1.3979 -0.1863
15439TIP3   OH267807   4.720   2.313   4.900 -0.0537 -0.0486  0.1847
15439TIP3    H167808   4.679   2.367   4.833 -0.2706  0.5063  0.7543
15439TIP3    H267809   4.706   2.361   4.982  2.3297  0.5391  0.3252
15440TIP3   OH267810   7.011   2.532   0.312 -0.3629 -0.3756  0.5637
15440TIP3    H167811   6.986   2.567   0.227  0.2252 -1.3167 -0.0068
15440TIP3    H267812   6.940   2.473   0.337 -0.7107  0.1779  0.9050
15441TIP3   OH267813   4.564   6.810   3.039  0.1470  0.8314  0.2053
15441TIP3    H167814   4.636   6.832   2.981  1.4316  0.3166  1.5514
15441TIP3    H267815   4.579   6.862   3.117 -0.4297  0.0462  0.8606
15442TIP3   OH267816   5.373   6.020  14.593 -0.7146 -0.3520  0.1563
15442TIP3    H167817   5.416   6.081  14.652 -0.0136 -2.0544  1.4916
15442TIP3    H267818   5.422   5.938  14.603 -1.7589 -1.2171 -1.3775
15443TIP3   OH267819   1.382   0.272   1.790  0.1580 -0.0144 -0.1010
15443TIP3    H167820   1.349   0.183   1.778 -0.2618  0.2800 -1.2268
15443TIP3    H267821   1.305   0.323   1.816  0.4124  0.0217  0.6271
15444TIP3   OH267822   5.396   6.547  13.930 -0.1483 -0.0113  0.0903
15444TIP3    H167823   5.341   6.532  13.853  0.3704  2.8298 -0.9511
15444TIP3    H267824   5.483   6.516  13.903 -0.1128  0.3724 -0.2552
15445TIP3   OH267825   1.051   6.252  14.743 -0.6080 -0.0046 -0.0564
15445TIP3    H167826   1.066   6.287  14.655 -1.4503 -0.0509 -0.2230
15445TIP3    H267827   1.108   6.175  14.748  0.4693  0.7566 -0.0610
15446TIP3   OH267828   0.856   4.080   3.265 -0.7674 -0.5445 -0.2440
15446TIP3    H167829   0.793   4.045   3.327 -0.6924 -1.1665 -0.5047
15446TIP3    H267830   0.877   4.006   3.208 -0.4799 -0.1109 -0.7136
15447TIP3   OH267831   4.902   2.035   3.265  0.2558  0.6950  0.1197
15447TIP3    H167832   4.959   2.015   3.339  0.9046 -0.4270 -0.6510
15447TIP3    H267833   4.826   1.979   3.277 -0.0134  1.1125  0.3682
15448TIP3   OH267834   5.069   0.204  10.099 -0.1066  0.3320 -0.9464
15448TIP3    H167835   5.075   0.114  10.068  0.1263  0.0045  0.0395
15448TIP3    H267836   5.145   0.216  10.155 -0.9574  0.6380  0.1877
15449TIP3   OH267837   5.919   0.190   1.504  0.4693 -0.3624  0.1704
15449TIP3    H167838   5.921   0.155   1.593  0.8605 -1.6681 -0.3301
15449TIP3    H267839   5.832   0.166   1.471 -0.9151  2.7410  1.1543
15450TIP3   OH267840   3.010   0.367   3.523 -0.0101 -0.0132 -0.2701
15450TIP3    H167841   2.987   0.348   3.432 -0.2076 -0.7112 -0.0805
15450TIP3    H267842   3.087   0.312   3.539 -0.7274 -0.8616  0.3601
15451TIP3   OH267843   1.421   4.550   4.817 -0.0517  0.2904  0.2532
15451TIP3    H167844   1.401   4.570   4.908 -0.6701 -0.1562  0.2227
15451TIP3    H267845   1.349   4.589   4.768 -0.6082 -0.8764  0.0945
15452TIP3   OH267846   7.174   6.850   3.578 -0.4884 -0.0315 -0.3021
15452TIP3    H167847   7.233   6.806   3.517  0.1081 -0.4162  0.5226
15452TIP3    H267848   7.194   6.943   3.569  0.7873 -0.2000  0.4771
15453TIP3   OH267849   6.918   6.035   2.890  0.7697  0.8271 -0.3027
15453TIP3    H167850   6.914   6.067   2.800  0.0733 -1.5118 -1.1591
15453TIP3    H267851   6.828   6.008   2.910  1.0846  0.5541  0.8055
15454TIP3   OH267852   3.456   3.341   0.495 -0.1785 -1.1377 -0.4050
15454TIP3    H167853   3.432   3.341   0.587 -1.7762 -1.7217 -0.7948
15454TIP3    H267854   3.494   3.254   0.480  2.1304 -0.3051  0.1505
15455TIP3   OH267855   0.239   0.991   4.332 -0.6247  0.2258  0.2253
15455TIP3    H167856   0.244   1.065   4.272 -0.0458  3.6965  4.1025
15455TIP3    H267857   0.148   0.962   4.327 -0.7420  0.8056 -1.7767
15456TIP3   OH267858   6.375   1.023  13.362  0.1822 -0.0049 -0.0730
15456TIP3    H167859   6.376   1.119  13.372  0.8719 -0.0976  0.9101
15456TIP3    H267860   6.311   1.007  13.293 -0.4764  1.1250  0.2463
15457TIP3   OH267861   2.024   3.990   2.977  0.3358 -0.4436  0.1428
15457TIP3    H167862   2.046   4.062   2.917  1.7552 -0.2554  0.8350
15457TIP3    H267863   1.968   3.932   2.926  1.8900 -0.5330 -1.5521
15458TIP3   OH267864   3.990   5.063   3.390 -0.3511  0.4701 -0.6144
15458TIP3    H167865   4.017   5.093   3.303  0.4725  0.1685 -0.4617
15458TIP3    H267866   3.932   5.132   3.421 -1.6142  0.0421 -1.8801
15459TIP3   OH267867   4.711   1.086   1.221 -0.1451 -0.1744  0.7926
15459TIP3    H167868   4.765   1.060   1.295  0.8729 -1.4073 -0.3276
15459TIP3    H267869   4.659   1.159   1.253  2.0217  0.9291  2.0152
15460TIP3   OH267870   6.363   0.628  12.447 -0.4397  0.9282 -0.0718
15460TIP3    H167871   6.415   0.684  12.505  0.8941 -1.0180  0.7133
15460TIP3    H267872   6.299   0.587  12.505  1.0821 -1.2500  0.1741
15461TIP3   OH267873   4.431   2.428  10.877 -0.2005  0.3160  0.1048
15461TIP3    H167874   4.376   2.500  10.908  0.8978  2.6115 -2.8469
15461TIP3    H267875   4.518   2.446  10.912 -0.3559 -0.9388  1.2390
15462TIP3   OH267876   5.811   0.909   9.140 -0.2237  0.0831  0.9236
15462TIP3    H167877   5.723   0.903   9.179 -0.6550 -1.4383 -0.1852
15462TIP3    H267878   5.806   0.983   9.080 -1.3722 -1.0878 -0.5079
15463TIP3   OH267879   5.905   6.995   0.838 -0.2681 -0.2139 -0.1702
15463TIP3    H167880   5.814   7.005   0.866 -0.1714  3.1492 -0.7001
15463TIP3    H267881   5.951   7.069   0.878  2.2784 -1.7713  0.0295
15464TIP3   OH267882   3.787   4.443   0.467 -0.0321 -0.5154  0.5587
15464TIP3    H167883   3.810   4.527   0.426 -4.3409  0.1603 -1.0111
15464TIP3    H267884   3.811   4.377   0.402 -2.8363  0.2342 -1.4673
15465TIP3   OH267885   7.065   3.515   3.498 -0.0280  0.1170  0.1003
15465TIP3    H167886   7.027   3.436   3.459  0.0072 -0.3470  1.0041
15465TIP3    H267887   7.154   3.490   3.522  0.6463  0.9927 -1.3294
15466TIP3   OH267888   5.673   1.080   3.141  0.3112 -0.2300  0.1509
15466TIP3    H167889   5.629   1.120   3.066 -0.1916  0.1071  0.6255
15466TIP3    H267890   5.700   1.153   3.196  3.4791 -0.2278 -1.1691
15467TIP3   OH267891   2.513   2.834   5.514 -0.2220  0.3097  0.2615
15467TIP3    H167892   2.608   2.824   5.507 -0.1676  0.6363  0.5018
15467TIP3    H267893   2.500   2.925   5.541 -0.5213 -0.1269  1.7025
15468TIP3   OH267894   2.512   0.251   4.826 -1.5743  0.5988  0.1743
15468TIP3    H167895   2.430   0.204   4.840 -1.4780  0.6679  1.0426
15468TIP3    H267896   2.580   0.183   4.829 -1.4367  0.7572  1.4138
15469TIP3   OH267897   2.372   3.007  13.248  0.1624 -0.2579  0.2258
15469TIP3    H167898   2.455   3.053  13.239 -0.0107  0.1524  0.7002
15469TIP3    H267899   2.379   2.959  13.331 -0.8673  1.4776  1.3786
15470TIP3   OH267900   0.973   0.680   2.253 -0.4549 -0.5120  0.1430
15470TIP3    H167901   0.916   0.691   2.176 -0.4844  1.3795  0.3989
15470TIP3    H267902   0.924   0.621   2.311 -1.9393  0.6639  0.1300
15471TIP3   OH267903   6.272   5.905   5.230 -0.7821 -0.2378  0.2316
15471TIP3    H167904   6.363   5.912   5.259 -0.5424 -1.2669 -0.2413
15471TIP3    H267905   6.232   5.988   5.257 -0.1844 -0.5065  2.0979
15472TIP3   OH267906   6.295   4.059   2.623  0.1295 -0.0151 -0.1779
15472TIP3    H167907   6.350   4.137   2.618 -1.9630  1.5782  0.2502
15472TIP3    H267908   6.258   4.051   2.535  0.5607 -0.7440 -0.3056
15473TIP3   OH267909   1.279   3.713   0.841  0.1640  0.6174 -0.4474
15473TIP3    H167910   1.298   3.779   0.908 -1.4307 -1.1701  1.9390
15473TIP3    H267911   1.191   3.683   0.861  1.3292 -3.3075 -0.3860
15474TIP3   OH267912   4.252   0.535   4.163 -0.3399 -0.0927  0.2644
15474TIP3    H167913   4.179   0.483   4.131 -0.8950 -0.8044  2.4844
15474TIP3    H267914   4.212   0.616   4.195 -0.0094  0.0223  0.3949
15475TIP3   OH267915   0.425   1.173   5.773  0.2248 -0.1511 -0.1034
15475TIP3    H167916   0.466   1.103   5.824  1.4020 -0.6588 -1.6760
15475TIP3    H267917   0.332   1.166   5.793  0.4005 -1.7297  0.2886
15476TIP3   OH267918   1.432   0.300   4.699 -0.0232 -0.2374 -0.2586
15476TIP3    H167919   1.491   0.261   4.635  1.3020  1.5789 -0.2065
15476TIP3    H267920   1.353   0.320   4.650 -0.2036 -1.6310 -0.5940
15477TIP3   OH267921   1.883   2.814   4.255  0.0115 -0.4715 -0.4520
15477TIP3    H167922   1.855   2.741   4.312 -0.4105 -0.4181 -0.5919
15477TIP3    H267923   1.833   2.889   4.286  1.9901  0.3076  1.1290
15478TIP3   OH267924   5.368   5.584   5.555  0.3165 -0.0509  0.2236
15478TIP3    H167925   5.385   5.531   5.632 -0.7960 -0.7717  0.0006
15478TIP3    H267926   5.335   5.522   5.490 -1.3997  0.9383  0.0833
15479TIP3   OH267927   0.758   1.904  13.616 -0.5963  0.5700 -0.7739
15479TIP3    H167928   0.846   1.911  13.651 -0.2151 -0.9664 -1.3557
15479TIP3    H267929   0.700   1.926  13.689  0.2407  2.7388 -0.6833
15480TIP3   OH267930   4.565   5.670   3.590 -0.2883  0.5957 -0.0358
15480TIP3    H167931   4.628   5.603   3.565 -2.1620 -1.4643  0.4413
15480TIP3    H267932   4.599   5.706   3.672  0.5393 -0.0778 -0.0675
15481TIP3   OH267933   0.164   2.488  13.734 -0.2246  0.0987  0.2674
15481TIP3    H167934   0.215   2.416  13.697  0.0438  0.2177  0.3991
15481TIP3    H267935   0.074   2.458  13.732 -0.2678  0.2832 -0.9099
15482TIP3   OH267936   0.746   3.512   4.508  0.1113  0.5264 -0.0923
15482TIP3    H167937   0.725   3.540   4.598 -1.5103 -1.8804  0.3510
15482TIP3    H267938   0.802   3.435   4.520  0.3766  0.5456 -1.1728
15483TIP3   OH267939   2.460   1.417   4.719 -0.5271 -0.8319 -0.6613
15483TIP3    H167940   2.430   1.480   4.785  4.1447  1.7749 -0.5948
15483TIP3    H267941   2.460   1.333   4.764 -1.3611  0.1459  1.2924
15484TIP3   OH267942   5.825   5.180  11.652  0.2821 -0.1953  0.2895
15484TIP3    H167943   5.845   5.258  11.705  1.9270 -0.8943  0.7619
15484TIP3    H267944   5.865   5.198  11.567 -1.4463  0.4704 -0.4360
15485TIP3   OH267945   1.953   4.004   2.123  0.3811 -0.4316 -0.2814
15485TIP3    H167946   1.963   3.909   2.131 -2.8611 -0.8157  0.6832
15485TIP3    H267947   1.885   4.016   2.056  0.9061  1.2394 -0.5790
15486TIP3   OH267948   5.317   2.785   0.921  1.2266  0.6249 -0.4706
15486TIP3    H167949   5.389   2.764   0.861  1.4211  1.6725 -0.6212
15486TIP3    H267950   5.342   2.869   0.959  1.5822 -0.4466  1.8427
15487TIP3   OH267951   3.268   1.368  12.566 -0.3457 -0.1025 -0.1677
15487TIP3    H167952   3.207   1.434  12.599  1.4610  1.0943  1.0057
15487TIP3    H267953   3.352   1.413  12.562  0.4693 -1.6440 -1.8428
15488TIP3   OH267954   1.730   4.864   5.236 -0.1648 -0.5665  0.2489
15488TIP3    H167955   1.748   4.788   5.291  1.0863 -1.7525 -1.6592
15488TIP3    H267956   1.635   4.862   5.222 -0.1462 -1.8393  0.1825
15489TIP3   OH267957   4.826   2.239   3.608 -0.2403  0.3859  0.4900
15489TIP3    H167958   4.759   2.231   3.540 -2.3707  0.6246  2.4508
15489TIP3    H267959   4.787   2.297   3.674  2.0697  0.8468  1.5560
15490TIP3   OH267960   6.303   4.996   5.643 -0.0053 -0.7019  0.4672
15490TIP3    H167961   6.312   5.087   5.671  0.6737 -1.6353  3.6651
15490TIP3    H267962   6.219   4.994   5.596 -1.2280  1.1437  2.3685
15491TIP3   OH267963   4.309   5.593   3.490 -0.5660 -0.1172  0.1148
15491TIP3    H167964   4.385   5.625   3.539 -0.3777 -0.9956  0.4152
15491TIP3    H267965   4.242   5.660   3.504  0.0609  0.5311  0.0754
15492TIP3   OH267966   3.825   6.102   1.961  0.4598  0.5953 -0.3601
15492TIP3    H167967   3.835   6.038   2.032 -1.1362 -1.8144 -2.1631
15492TIP3    H267968   3.890   6.076   1.896  0.7824  1.7700 -0.5422
15493TIP3   OH267969   7.137   4.919  13.321 -0.5512  0.0907  0.3833
15493TIP3    H167970   7.171   4.891  13.405 -1.1401  0.1504  0.6478
15493TIP3    H267971   7.126   4.838  13.271  0.6809  0.1339  0.0151
15494TIP3   OH267972   4.051   3.446  11.672 -0.3564 -0.2482  0.2949
15494TIP3    H167973   4.142   3.435  11.701 -0.6447  0.6639  1.6567
15494TIP3    H267974   4.011   3.360  11.686 -0.3327  0.0055  2.1754
15495TIP3   OH267975   0.923   5.438  12.932  0.1295  0.0927 -0.9309
15495TIP3    H167976   0.906   5.344  12.929  0.4356 -0.0722  0.9584
15495TIP3    H267977   1.018   5.445  12.928  0.1467  0.2576 -0.3407
15496TIP3   OH267978   5.575   3.565   1.428  0.2076  0.0810 -0.3014
15496TIP3    H167979   5.573   3.531   1.517  2.1060  0.5070 -0.0410
15496TIP3    H267980   5.498   3.621   1.422  0.2641  0.3634  1.2174
15497TIP3   OH267981   1.001   7.135   2.417  0.5289  0.1495 -0.7392
15497TIP3    H167982   1.090   7.098   2.415  0.2558 -0.5079 -1.0530
15497TIP3    H267983   0.973   7.134   2.325 -0.7409 -1.9863 -0.3938
15498TIP3   OH267984   5.625   5.828   4.602 -0.2533  0.5520  0.3375
15498TIP3    H167985   5.653   5.886   4.532  0.4929 -0.1847  0.0124
15498TIP3    H267986   5.536   5.803   4.579  0.4763 -0.8696 -1.1792
15499TIP3   OH267987   7.173   5.205   1.073 -0.3999 -0.0149  0.5947
15499TIP3    H167988   7.258   5.241   1.051 -0.3528  0.3662  1.3705
15499TIP3    H267989   7.157   5.234   1.163 -0.8669 -0.9727  0.8356
15500TIP3   OH267990   1.364   0.547   2.353 -0.5990 -0.0358 -0.1137
15500TIP3    H167991   1.434   0.496   2.394  1.2369  1.5523 -1.0932
15500TIP3    H267992   1.340   0.611   2.419  0.4639  0.8075 -0.5102
15501TIP3   OH267993   1.555   6.923  14.657 -0.2687 -0.2143 -0.1564
15501TIP3    H167994   1.548   6.852  14.721  0.2963 -0.8175 -0.7458
15501TIP3    H267995   1.487   6.985  14.683 -1.1726 -1.2469  0.0231
15502TIP3   OH267996   0.629   3.997   5.774 -0.0484  0.2625  0.0478
15502TIP3    H167997   0.608   4.090   5.786  0.4788  0.3978 -0.0349
15502TIP3    H267998   0.550   3.959   5.735  0.8298  1.3617 -3.1261
15503TIP3   OH267999   3.209   6.738   3.027  0.4236 -0.3785  0.0836
15503TIP3    H168000   3.245   6.825   3.045  2.5885 -1.3571  0.7558
15503TIP3    H268001   3.209   6.694   3.111  0.5820 -1.4798 -0.4761
15504TIP3   OH268002   5.220   2.322   1.432 -0.1205  0.1925 -0.2074
15504TIP3    H168003   5.166   2.375   1.491 -0.5405  0.4724 -0.8199
15504TIP3    H268004   5.307   2.360   1.438  0.2800 -0.9115  1.5811
15505TIP3   OH268005   2.331   5.871   3.031  0.0390 -0.0201  0.3379
15505TIP3    H168006   2.305   5.932   2.962 -0.7611 -1.2499 -0.4765
15505TIP3    H268007   2.384   5.925   3.091  0.3370  1.1923 -0.9509
15506TIP3   OH268008   5.410   2.862   5.510 -0.6642  0.0554  0.2357
15506TIP3    H168009   5.323   2.825   5.525 -0.2187 -0.2279  2.4710
15506TIP3    H268010   5.449   2.806   5.443 -0.7271 -2.3910  2.1267
15507TIP3   OH268011   6.708   1.878   4.340 -0.2792  0.4283  0.3480
15507TIP3    H168012   6.629   1.907   4.294 -0.4178  0.2587  0.4774
15507TIP3    H268013   6.716   1.785   4.318  0.3771  0.6542 -0.3702
15508TIP3   OH268014   0.228   6.367  13.451  0.2521 -0.9720  0.2443
15508TIP3    H168015   0.155   6.424  13.425  1.9956  1.0248 -0.5144
15508TIP3    H268016   0.192   6.279  13.446 -2.2596 -0.0415  0.4114
15509TIP3   OH268017   3.893   3.645  10.420  0.3609 -0.5487  0.1476
15509TIP3    H168018   3.961   3.710  10.439 -1.1217  0.7564  1.3103
15509TIP3    H268019   3.861   3.669  10.333  2.4060 -2.1762 -1.1374
15510TIP3   OH268020   4.599   4.077   4.787 -0.1751 -1.2146 -0.2628
15510TIP3    H168021   4.665   4.010   4.767 -0.1235 -1.4799  0.7370
15510TIP3    H268022   4.557   4.045   4.867 -0.2645 -0.1261  0.1345
15511TIP3   OH268023   5.722   0.905   4.230  0.2692  0.2231  0.1043
15511TIP3    H168024   5.698   0.917   4.322  1.1036 -0.0056  0.3592
15511TIP3    H268025   5.693   0.986   4.187 -2.1319 -0.5568  0.1207
15512TIP3   OH268026   2.545   1.008   4.284 -0.6216 -0.3224 -0.2875
15512TIP3    H168027   2.626   1.054   4.264 -0.0258  0.0902  2.7072
15512TIP3    H268028   2.516   1.044   4.367 -3.2051 -1.4085 -0.6079
15513TIP3   OH268029   3.913   6.636  14.061  0.0251  0.0133 -0.0391
15513TIP3    H168030   3.878   6.557  14.103 -1.4268 -0.1496 -1.4614
15513TIP3    H268031   3.848   6.704  14.079 -0.6504 -0.0636 -1.9116
15514TIP3   OH268032   3.948   5.115   2.076  0.4432  0.1602 -0.1783
15514TIP3    H168033   4.000   5.044   2.039  1.3670  0.3802  0.6473
15514TIP3    H268034   3.999   5.144   2.152 -0.7465  0.5830  0.4761
15515TIP3   OH268035   6.990   4.649   3.680 -0.0045 -0.0429  0.4936
15515TIP3    H168036   6.985   4.735   3.721  0.1883 -0.8695  2.3606
15515TIP3    H268037   6.912   4.602   3.711  1.3448 -1.4783  1.8717
15516TIP3   OH268038   0.412   0.180   1.120 -0.2194  0.7342 -0.0721
15516TIP3    H168039   0.318   0.183   1.135 -0.1851 -0.5410  0.6130
15516TIP3    H268040   0.450   0.186   1.208  0.2260 -1.0887 -0.0948
15517TIP3   OH268041   4.704   5.494  14.336  0.1032  0.2443 -0.4381
15517TIP3    H168042   4.746   5.580  14.345  2.6136 -0.9088 -0.3669
15517TIP3    H268043   4.688   5.466  14.426 -1.4442  0.9096 -0.4703
15518TIP3   OH268044   0.131   0.304  14.627  0.4957 -0.5029 -0.1490
15518TIP3    H168045   0.052   0.323  14.677  1.2859 -0.1129  0.9739
15518TIP3    H268046   0.148   0.384  14.577 -0.1792 -0.8230 -0.9179
15519TIP3   OH268047   0.985   1.072   2.734  0.6976  0.4197  0.6336
15519TIP3    H168048   0.892   1.063   2.718  0.6841  0.4501  0.6953
15519TIP3    H268049   1.011   0.988   2.774  0.5608  0.6648  1.2579
15520TIP3   OH268050   4.082   3.710   2.599  0.2976  0.3640 -0.4482
15520TIP3    H168051   4.130   3.633   2.628  2.0174  0.4410 -2.7678
15520TIP3    H268052   4.134   3.784   2.631 -1.5020  0.6737  2.0265
15521TIP3   OH268053   3.887   7.106   5.931  0.0245  0.6017  0.1437
15521TIP3    H168054   3.868   7.105   5.837 -0.9815  1.3637  0.3122
15521TIP3    H268055   3.833   7.177   5.965 -0.0091  0.0137  1.3793
15522TIP3   OH268056   3.535   1.959  12.504 -0.6477  0.5338  0.1393
15522TIP3    H168057   3.553   2.008  12.585 -1.5269  4.1772 -1.6607
15522TIP3    H268058   3.449   1.920  12.518  0.4778 -1.5528  1.9824
15523TIP3   OH268059   6.537   5.916   3.891 -0.1092 -0.0480 -0.3744
15523TIP3    H168060   6.555   5.923   3.798 -0.8410  0.3143 -0.4965
15523TIP3    H268061   6.591   5.843   3.921  0.8444  0.4339 -0.8908
15524TIP3   OH268062   2.590   0.818  15.041  0.1115  0.1735  0.1383
15524TIP3    H168063   2.553   0.772  15.116  0.5608  0.4560  0.5340
15524TIP3    H268064   2.650   0.882  15.079 -0.3103  0.9077 -0.4210
15525TIP3   OH268065   2.090   2.410   1.037 -0.0042 -0.3952 -0.7887
15525TIP3    H168066   2.032   2.476   1.000  0.0579 -0.7306 -1.5111
15525TIP3    H268067   2.177   2.448   1.029 -0.0569 -0.1775 -0.3394
15526TIP3   OH268068   3.964   2.997   4.656 -0.1393  0.0068 -0.5648
15526TIP3    H168069   3.958   2.928   4.590  1.4887 -0.6138 -0.1173
15526TIP3    H268070   3.893   3.057   4.634 -0.4908 -0.8863 -2.0461
15527TIP3   OH268071   3.019   1.140   0.850 -0.4295  0.8629  0.4973
15527TIP3    H168072   3.012   1.117   0.943 -0.6858  0.7662  0.4559
15527TIP3    H268073   3.097   1.195   0.845 -0.3258  0.7406  0.7449
15528TIP3   OH268074   0.517   3.247   3.418  0.1196 -0.6212 -0.0511
15528TIP3    H168075   0.505   3.165   3.466 -0.9110  0.0573  0.8787
15528TIP3    H268076   0.450   3.246   3.350  1.0089 -1.1672 -0.9637
15529TIP3   OH268077   3.546   1.771   3.961  0.5135 -0.0776  0.4334
15529TIP3    H168078   3.496   1.852   3.969 -0.5433 -0.8701  2.7561
15529TIP3    H268079   3.547   1.753   3.867 -3.7229 -0.0408  0.1799
15530TIP3   OH268080   3.034   4.173  13.242  0.6367 -0.1507 -0.4841
15530TIP3    H168081   2.990   4.117  13.306 -0.9021  0.9880 -0.4899
15530TIP3    H268082   3.107   4.212  13.290  0.4309 -0.5023  0.1224
15531TIP3   OH268083   1.212   1.279   1.715 -0.1683  0.2844  0.0898
15531TIP3    H168084   1.253   1.239   1.792 -0.4120 -1.7775 -0.7869
15531TIP3    H268085   1.285   1.299   1.657 -0.0807  0.7481  0.3529
15532TIP3   OH268086   6.031   2.609   4.048 -0.3240 -0.1946 -0.4333
15532TIP3    H168087   5.941   2.576   4.036 -0.4194  0.3314 -1.2240
15532TIP3    H268088   6.084   2.551   3.994 -0.2122 -0.3388 -0.1738
15533TIP3   OH268089   5.684   5.085   5.409 -0.6202 -0.3674  0.5973
15533TIP3    H168090   5.723   5.090   5.496  0.6029 -3.7527  0.4026
15533TIP3    H268091   5.758   5.078   5.349 -1.4345  2.1653 -0.8498
15534TIP3   OH268092   3.763   3.816   0.790 -0.1561  0.3472 -0.4959
15534TIP3    H168093   3.686   3.812   0.847  0.2348 -0.5254 -0.0061
15534TIP3    H268094   3.809   3.896   0.817  0.8078 -0.7954  1.4960
15535TIP3   OH268095   2.153   5.946  12.183  0.3980  0.0085  0.2735
15535TIP3    H168096   2.242   5.970  12.156  0.2606 -1.5507 -1.8271
15535TIP3    H268097   2.118   5.898  12.108 -2.1612  0.4110  1.1354
15536TIP3   OH268098   1.014   1.754   2.106 -0.1563  0.0948  0.4915
15536TIP3    H168099   1.078   1.808   2.059  0.0401 -0.5382  0.0038
15536TIP3    H268100   0.954   1.724   2.038  0.0225 -0.6859  0.6664
15537TIP3   OH268101   0.532   5.996  14.823 -0.0924 -0.6953  0.2155
15537TIP3    H168102   0.562   5.944  14.748  1.1402 -0.0453  0.2346
15537TIP3    H268103   0.444   6.024  14.798 -0.7021 -2.5497  0.0973
15538TIP3   OH268104   2.789   6.037  13.741 -0.4161  0.1458  0.4321
15538TIP3    H168105   2.751   5.963  13.789  2.0833 -1.3238  0.3648
15538TIP3    H268106   2.792   6.008  13.650 -0.4080  0.7708  0.2286
15539TIP3   OH268107   5.076   4.647  11.439 -0.6877 -0.9126  0.4573
15539TIP3    H168108   5.130   4.725  11.425 -3.1627  1.0737  1.2481
15539TIP3    H268109   5.111   4.583  11.377  0.7207  1.1943 -1.0777
15540TIP3   OH268110   1.380   4.644  14.132 -0.0483  0.2482  0.3351
15540TIP3    H168111   1.396   4.689  14.049 -2.2432  0.3131 -0.1200
15540TIP3    H268112   1.466   4.639  14.174  1.6440 -1.9205 -2.9655
15541TIP3   OH268113   5.659   4.478   3.604  0.4182 -0.1127  0.1525
15541TIP3    H168114   5.613   4.552   3.564  1.4017  1.1508  1.2691
15541TIP3    H268115   5.716   4.518   3.670  1.7993 -1.7844  0.0330
15542TIP3   OH268116   3.997   5.395   5.145  0.0549  0.2801  0.5412
15542TIP3    H168117   3.948   5.448   5.082  1.4053 -1.9755 -2.7465
15542TIP3    H268118   3.953   5.310   5.144  1.2506 -0.3718  1.1901
15543TIP3   OH268119   1.109   3.590   5.889  0.2053 -0.1643 -0.0760
15543TIP3    H168120   1.169   3.572   5.816 -2.3431 -1.1389 -2.0831
15543TIP3    H268121   1.096   3.685   5.887  1.8800  0.1269  0.6559
15544TIP3   OH268122   6.732   2.964   5.095 -0.0195  0.5125 -0.2671
15544TIP3    H168123   6.794   3.026   5.134 -0.7523  1.0582  0.0798
15544TIP3    H268124   6.786   2.894   5.060  0.8611  1.5193 -0.9862
15545TIP3   OH268125   4.406   2.883   2.136  0.0518 -0.5236  0.2208
15545TIP3    H168126   4.459   2.804   2.132 -0.2388 -0.6820 -3.8783
15545TIP3    H268127   4.468   2.955   2.124 -0.1179 -0.3391  0.4250
15546TIP3   OH268128   5.567   2.049  13.269  0.4165  0.4050  0.3139
15546TIP3    H168129   5.510   2.027  13.195 -1.3531  0.9355  1.4549
15546TIP3    H268130   5.589   1.965  13.308  0.6902  0.1768 -0.3143
15547TIP3   OH268131   5.383   3.385   2.841 -0.4748  0.3581 -0.6329
15547TIP3    H168132   5.316   3.365   2.776 -0.1871 -3.0661 -0.0517
15547TIP3    H268133   5.466   3.366   2.798 -0.2543 -1.4268  0.4486
15548TIP3   OH268134   2.294   1.048   0.102  0.4969 -0.0761  0.0669
15548TIP3    H168135   2.348   1.020   0.028 -2.6493 -0.8900 -2.1637
15548TIP3    H268136   2.262   1.135   0.077  0.4291  0.2236  1.1260
15549TIP3   OH268137   0.150   2.391   5.058 -0.2878 -0.2729  0.2775
15549TIP3    H168138   0.149   2.458   5.126 -0.2966 -1.6437  1.6785
15549TIP3    H268139   0.058   2.370   5.043 -0.3612  0.7989 -1.0109
15550TIP3   OH268140   3.539   6.247   4.396  0.6170  0.6465 -0.1657
15550TIP3    H168141   3.523   6.160   4.360  0.9693  0.2438  0.6311
15550TIP3    H268142   3.556   6.302   4.319 -1.2531  0.4000 -0.7986
15551TIP3   OH268143   4.159   3.742   4.857  0.0139 -0.0954 -0.3821
15551TIP3    H168144   4.242   3.736   4.906  0.7663  0.6991 -1.5026
15551TIP3    H268145   4.160   3.665   4.800 -0.8298 -0.9828  0.7479
15552TIP3   OH268146   5.447   3.480  13.839  0.1115 -0.2677 -0.6711
15552TIP3    H168147   5.533   3.509  13.871  0.4560 -0.4103 -1.4185
15552TIP3    H268148   5.449   3.501  13.745 -0.5240 -0.6205 -0.7691
15553TIP3   OH268149   2.805   4.691   4.676 -0.3523  0.2166  0.7378
15553TIP3    H168150   2.891   4.650   4.662 -0.7656 -3.0422  5.5659
15553TIP3    H268151   2.825   4.783   4.692  1.5091  0.6604 -2.9772
15554TIP3   OH268152   0.508   0.936   1.099  0.0295 -0.3355  0.0846
15554TIP3    H168153   0.472   0.927   1.187  0.2939  0.7821  0.3170
15554TIP3    H268154   0.601   0.918   1.108 -0.0236 -0.7280 -0.0760
15555TIP3   OH268155   1.190   5.786   0.718 -0.4241 -0.0905 -0.2010
15555TIP3    H168156   1.136   5.747   0.786  0.6014 -0.0233  0.6727
15555TIP3    H268157   1.171   5.734   0.640  0.2377 -1.7952  0.7312
15556TIP3   OH268158   0.908   5.864   0.842  0.1936 -0.2604 -0.1500
15556TIP3    H168159   0.828   5.907   0.873  0.2412  0.8553 -1.4642
15556TIP3    H268160   0.915   5.785   0.895  0.1964  1.4002  2.5215
15557TIP3   OH268161   6.394   0.554   0.616 -0.0986 -0.6733 -0.2530
15557TIP3    H168162   6.444   0.587   0.690  1.7125  2.7230 -2.6835
15557TIP3    H268163   6.445   0.480   0.583 -0.8070 -2.0649  1.6485
15558TIP3   OH268164   6.658   3.009   5.995 -0.0112  0.1133  0.0342
15558TIP3    H168165   6.691   2.926   6.028  0.4423 -0.6187 -2.0947
15558TIP3    H268166   6.735   3.066   5.994  0.0452  0.0373 -0.0116
15559TIP3   OH268167   6.320   5.960  11.969  0.5773 -0.2699 -0.1296
15559TIP3    H168168   6.370   5.879  11.984  1.1583 -0.0515 -0.8079
15559TIP3    H268169   6.372   6.028  12.010  0.5089 -0.1280 -0.2772
15560TIP3   OH268170   2.580   1.920   0.907 -0.3640 -0.3035 -0.2691
15560TIP3    H168171   2.517   1.965   0.851 -0.3264  0.3275  0.1897
15560TIP3    H268172   2.605   1.842   0.857 -1.1704 -0.3307 -0.6424
15561TIP3   OH268173   1.913   1.896  15.262 -0.7099 -0.1256 -0.4600
15561TIP3    H168174   1.875   1.837  15.327 -1.5372 -0.3456 -1.1177
15561TIP3    H268175   1.840   1.952  15.235 -0.3709 -0.0108 -1.1610
15562TIP3   OH268176   6.856   5.202   1.665 -0.0068  0.3489  0.0668
15562TIP3    H168177   6.782   5.221   1.608 -0.5486 -0.9911  0.2916
15562TIP3    H268178   6.816   5.175   1.748  0.7198 -0.2689  0.2260
15563TIP3   OH268179   5.811   1.229   0.024 -0.2433  0.4677  0.2138
15563TIP3    H168180   5.748   1.170  -0.016 -0.9809  2.5091 -1.8536
15563TIP3    H268181   5.883   1.172   0.051 -1.6717 -1.5596  0.0015
15564TIP3   OH268182   5.056   6.574   4.397  0.5481  0.4594  0.2065
15564TIP3    H168183   4.999   6.651   4.395 -0.0032  0.0973  1.2076
15564TIP3    H268184   4.998   6.501   4.419  1.5034  0.2101  2.1398
15565TIP3   OH268185   2.736   5.583   3.714  0.1782  0.1619  0.8000
15565TIP3    H168186   2.725   5.669   3.754 -0.6888  0.5148 -0.1649
15565TIP3    H268187   2.760   5.602   3.623  0.5399 -0.6242  0.7208
15566TIP3   OH268188   7.049   3.090  14.208 -0.2634  0.1482  0.0311
15566TIP3    H168189   7.046   3.099  14.113  0.2128 -0.8105 -0.0902
15566TIP3    H268190   6.964   3.122  14.239 -0.5773  0.0743 -0.7483
15567TIP3   OH268191   4.794   2.204   1.670  0.3842  0.3936  0.0875
15567TIP3    H168192   4.865   2.264   1.650 -0.3538  1.0207 -0.7100
15567TIP3    H268193   4.807   2.181   1.762 -0.2517  3.0751  0.9341
15568TIP3   OH268194   6.287   5.913   4.043 -0.0472  0.2038  0.4040
15568TIP3    H168195   6.259   5.893   3.954 -0.6866 -0.5575  0.7712
15568TIP3    H268196   6.381   5.932   4.034 -0.4124  1.7521 -0.6698
15569TIP3   OH268197   4.965   4.642   1.639  0.1229  0.7183 -1.0176
15569TIP3    H168198   4.931   4.699   1.709  1.8343  0.9205 -0.3104
15569TIP3    H268199   4.895   4.578   1.625 -0.5805  1.1484  0.3432
15570TIP3   OH268200   4.238   2.106   4.128  0.0198  0.2796  0.3127
15570TIP3    H168201   4.289   2.071   4.201 -1.1885  0.3998  1.2484
15570TIP3    H268202   4.281   2.071   4.050  0.7562 -0.6613  1.1107
15571TIP3   OH268203   1.307   6.515  13.574  0.4627  0.0292  0.4343
15571TIP3    H168204   1.359   6.548  13.500 -0.0243  0.0992  0.1122
15571TIP3    H268205   1.285   6.594  13.624 -0.6272  0.2101 -0.2880
15572TIP3   OH268206   1.539   0.714   5.228  0.7226  0.0596 -0.4030
15572TIP3    H168207   1.553   0.648   5.161 -0.5752 -0.7357  0.0612
15572TIP3    H268208   1.507   0.665   5.304  0.3818  1.1431  0.1768
15573TIP3   OH268209   3.761   3.183  15.081  0.0436  0.0406  0.1985
15573TIP3    H168210   3.696   3.144  15.022 -0.5086  1.8925 -0.4810
15573TIP3    H268211   3.746   3.139  15.165 -1.0363 -0.6576 -0.3354
15574TIP3   OH268212   1.750   1.436   5.057  0.1122 -0.0335 -0.3423
15574TIP3    H168213   1.739   1.521   5.099 -0.7943 -1.3294  2.2370
15574TIP3    H268214   1.661   1.405   5.043  0.4280 -1.0819 -0.0985
15575TIP3   OH268215   6.601   0.328   1.165  0.1670  0.1960  0.0985
15575TIP3    H168216   6.641   0.242   1.180  1.3691  0.7501  0.0999
15575TIP3    H268217   6.524   0.328   1.223  1.5620  0.0735  2.0719
15576TIP3   OH268218   0.567   5.219   1.474  0.1654 -0.4435 -0.1862
15576TIP3    H168219   0.593   5.131   1.449 -0.7142 -0.7202 -0.1709
15576TIP3    H268220   0.624   5.277   1.423 -1.4482 -0.9739 -2.7634
15577TIP3   OH268221   2.840   3.055   3.531  0.4796  0.1729  0.1350
15577TIP3    H168222   2.753   3.070   3.567  2.0728  1.8617  3.7035
15577TIP3    H268223   2.875   2.981   3.582  1.2769 -0.2941 -1.0383
15578TIP3   OH268224   2.012   4.114   4.668  0.3487 -0.3010  0.1063
15578TIP3    H168225   1.968   4.123   4.752 -0.9823  2.7131 -0.7785
15578TIP3    H268226   1.942   4.099   4.605  1.1423 -0.6933 -0.7179
15579TIP3   OH268227   0.326   3.177   4.869  0.0378 -0.3908  0.1152
15579TIP3    H168228   0.255   3.187   4.932 -0.3973 -1.3656 -0.2090
15579TIP3    H268229   0.284   3.141   4.791  0.6064  0.5907 -0.6665
15580TIP3   OH268230   1.405   3.124   3.714  0.6999  0.5685 -0.1025
15580TIP3    H168231   1.466   3.072   3.662  1.0940  1.3464 -0.4442
15580TIP3    H268232   1.325   3.072   3.717  0.3250  0.9062 -2.3369
15581TIP3   OH268233   6.749   4.140   5.141 -0.2003  0.3644  0.6550
15581TIP3    H168234   6.744   4.234   5.123 -1.7979  0.4729  1.4933
15581TIP3    H268235   6.703   4.099   5.067  2.3456  0.0162 -0.8689
15582TIP3   OH268236   4.184   0.896   4.948  0.0718  0.1046  0.0024
15582TIP3    H168237   4.147   0.940   5.024  1.5141  0.6807  0.4029
15582TIP3    H268238   4.126   0.822   4.932 -1.5708  1.2957  0.2216
15583TIP3   OH268239   0.866   3.405   3.484 -0.2097  0.1163 -0.3968
15583TIP3    H168240   0.924   3.366   3.418  1.3490  2.0690 -0.2640
15583TIP3    H268241   0.822   3.476   3.438 -0.5235  0.2944  0.1754
15584TIP3   OH268242   7.183   1.662  13.545 -0.0070 -0.2055 -0.4471
15584TIP3    H168243   7.266   1.619  13.523  0.8916  1.2155  0.0018
15584TIP3    H268244   7.209   1.744  13.586 -1.6524 -0.2092  0.6968
15585TIP3   OH268245   1.929   0.628  13.952 -0.0485 -0.4081  0.1354
15585TIP3    H168246   1.959   0.718  13.945  0.2159 -0.3606  1.5772
15585TIP3    H268247   1.988   0.587  14.016 -0.1812 -1.5940 -0.4700
15586TIP3   OH268248   2.610   4.300   1.637  0.6611 -0.1623 -0.1280
15586TIP3    H168249   2.630   4.344   1.555  0.3167  0.2567  0.0087
15586TIP3    H268250   2.585   4.371   1.697  0.5447 -0.5004  0.2277
15587TIP3   OH268251   5.260   3.636  12.291 -0.0037  0.1381 -0.2881
15587TIP3    H168252   5.224   3.631  12.202 -0.6123 -0.0913 -0.0313
15587TIP3    H268253   5.214   3.569  12.340 -2.5898  2.7453  1.2055
15588TIP3   OH268254   1.748   6.272  11.115  0.1557  0.5119  0.7881
15588TIP3    H168255   1.714   6.340  11.173  1.4926 -0.1530  2.4616
15588TIP3    H268256   1.842   6.287  11.113  0.2249  0.0063 -0.5722
15589TIP3   OH268257   6.320   6.121  14.067 -0.3424  0.0462 -0.2744
15589TIP3    H168258   6.333   6.212  14.043 -0.6068 -0.2201 -1.4732
15589TIP3    H268259   6.238   6.121  14.117  0.5146  0.6892  1.1931
15590TIP3   OH268260   3.249   4.248   1.290  0.1547  0.0277 -0.5128
15590TIP3    H168261   3.257   4.189   1.215  0.0930 -0.2975 -0.2637
15590TIP3    H268262   3.155   4.262   1.300  0.2054  1.0980 -1.2890
15591TIP3   OH268263   3.715   1.277   3.413 -0.2245 -0.0690 -0.1166
15591TIP3    H168264   3.671   1.247   3.493  0.0131 -0.6506 -0.2022
15591TIP3    H268265   3.656   1.252   3.342  0.2665 -0.9173 -0.2378
15592TIP3   OH268266   3.005   5.780  11.412  0.3063  0.2111 -0.0954
15592TIP3    H168267   3.009   5.770  11.317 -0.6663  0.0438 -0.1356
15592TIP3    H268268   2.958   5.702  11.442  1.9706 -0.5171  0.6909
15593TIP3   OH268269   3.408   3.827   1.726 -0.0444  0.5384 -0.2778
15593TIP3    H168270   3.399   3.763   1.796  3.5028 -1.4969 -1.4562
15593TIP3    H268271   3.438   3.907   1.769 -0.0824  0.0091  0.7488
15594TIP3   OH268272   5.567   0.512  10.014  0.4576 -0.3639  0.2769
15594TIP3    H168273   5.526   0.491   9.930 -0.4337 -2.0629  1.0825
15594TIP3    H268274   5.558   0.432  10.066  1.6180  0.4106  1.7565
15595TIP3   OH268275   2.573   2.655   4.823 -0.0708  0.0659 -0.5763
15595TIP3    H168276   2.588   2.696   4.738 -1.2931  1.3814 -0.1847
15595TIP3    H268277   2.504   2.707   4.864  0.3019 -0.6948  1.1247
15596TIP3   OH268278   2.927   4.264   4.175  0.3712 -0.4751  0.2075
15596TIP3    H168279   2.934   4.246   4.081 -0.7280 -0.2613  0.0603
15596TIP3    H268280   2.850   4.214   4.203  0.6287 -0.4545  0.9794
15597TIP3   OH268281   4.910   4.327   0.442 -0.3290  0.2969 -0.4788
15597TIP3    H168282   4.974   4.282   0.387 -1.9606 -0.1214 -2.1404
15597TIP3    H268283   4.916   4.419   0.414  0.5129  0.5215  0.3892
15598TIP3   OH268284   3.706   5.418   0.658 -0.0079  0.4766 -0.9786
15598TIP3    H168285   3.679   5.327   0.671 -0.3621  0.5707 -1.0637
15598TIP3    H268286   3.624   5.467   0.652  0.0550  0.4156 -3.8086
15599TIP3   OH268287   5.642   1.555  14.499  0.1338 -0.0258 -0.1248
15599TIP3    H168288   5.645   1.509  14.415 -0.6537  0.6826 -0.5578
15599TIP3    H268289   5.627   1.486  14.564  2.9373 -0.8744 -0.2714
15600TIP3   OH268290   1.478   3.266  11.846 -0.1416 -0.0164 -0.0788
15600TIP3    H168291   1.452   3.211  11.773 -0.1021 -1.0421  0.6566
15600TIP3    H268292   1.407   3.330  11.856 -0.2362  0.0012 -0.8748
15601TIP3   OH268293   1.982   3.142   4.393 -0.1495 -0.3491  0.1534
15601TIP3    H168294   2.074   3.166   4.404  0.4936 -2.4972 -0.0933
15601TIP3    H268295   1.975   3.118   4.300 -1.4540  1.5720 -0.3061
15602TIP3   OH268296   5.021   4.731  13.195 -0.0141  0.0582 -0.0369
15602TIP3    H168297   4.958   4.779  13.249  0.7280  0.9354  0.0713
15602TIP3    H268298   5.058   4.798  13.137  1.7196 -0.1673  0.7464
15603TIP3   OH268299   7.093   1.667   5.198  0.8899  0.4237  0.4346
15603TIP3    H168300   7.129   1.632   5.280  1.0490  2.4924  1.2929
15603TIP3    H268301   7.012   1.710   5.224  0.9799  1.1833 -0.4979
15604TIP3   OH268302   1.117   5.027   5.741 -0.0179 -0.2352  0.4276
15604TIP3    H168303   1.117   5.041   5.646 -0.6811 -0.3078  0.4155
15604TIP3    H268304   1.033   4.985   5.759 -0.3966  0.8406  1.2149
15605TIP3   OH268305   4.427   5.137   0.924  0.3875 -0.0713  0.1355
15605TIP3    H168306   4.444   5.158   0.832  0.9031 -2.6152 -0.4357
15605TIP3    H268307   4.469   5.051   0.937 -0.7488 -0.3656  2.4057
15606TIP3   OH268308   1.655   4.904  10.898  0.5303 -0.2534  0.7577
15606TIP3    H168309   1.675   4.845  10.971  0.4814 -0.1905  0.8207
15606TIP3    H268310   1.726   4.968  10.900 -0.8685  1.3357  2.3875
15607TIP3   OH268311   6.811   1.428   2.084  0.0285  0.7831  0.1988
15607TIP3    H168312   6.738   1.383   2.041  1.0170 -1.0921  0.3670
15607TIP3    H268313   6.813   1.391   2.172 -0.9937  3.4360  1.4488
15608TIP3   OH268314   4.642   6.373   0.482 -0.3742  0.1263 -0.3290
15608TIP3    H168315   4.674   6.395   0.569 -1.2145 -0.6948  0.2134
15608TIP3    H268316   4.684   6.436   0.424  1.8214 -0.6002  0.3852
15609TIP3   OH268317   5.681   1.962   3.588  0.2518 -0.3659  0.4239
15609TIP3    H168318   5.611   1.900   3.568 -0.6098  0.6099  0.2983
15609TIP3    H268319   5.655   2.043   3.544  1.7900 -0.1509 -0.1506
15610TIP3   OH268320   5.676   6.264   4.639 -0.2172 -0.2323  0.2293
15610TIP3    H168321   5.711   6.182   4.605 -0.2290  0.3817 -1.3735
15610TIP3    H268322   5.753   6.315   4.664 -0.0188  0.3624 -1.4797
15611TIP3   OH268323   2.365   2.708   2.872  0.6722 -0.2349  0.6362
15611TIP3    H168324   2.436   2.733   2.812  0.3191  1.0421  0.7180
15611TIP3    H268325   2.314   2.789   2.883  1.2476 -0.1441  3.3844
15612TIP3   OH268326   0.925   3.947   0.609  0.5581 -0.0213 -1.1380
15612TIP3    H168327   0.944   3.940   0.703 -0.6347 -0.3220 -0.9049
15612TIP3    H268328   0.929   3.856   0.578  1.9440  0.1789 -1.5959
15613TIP3   OH268329   3.942   0.634   4.034  0.1515 -0.2673  0.4448
15613TIP3    H168330   3.874   0.699   4.056 -0.1382 -0.6767  0.7695
15613TIP3    H268331   3.893   0.558   4.004  0.4687 -0.5894  0.7471
15614TIP3   OH268332   1.248   5.054   4.865 -0.9183 -0.0400  0.3660
15614TIP3    H168333   1.316   5.031   4.929 -1.4048  1.7230  1.5970
15614TIP3    H268334   1.270   5.003   4.787  1.3704 -0.1002  0.9825
15615TIP3   OH268335   4.891   3.230   5.163  0.4268 -0.0396  0.2007
15615TIP3    H168336   4.952   3.156   5.161  1.1193  0.5270 -0.7572
15615TIP3    H268337   4.946   3.306   5.177 -0.0066  0.5132 -0.9215
15616TIP3   OH268338   1.993   6.531   5.153  0.2185 -0.0951  0.5229
15616TIP3    H168339   1.959   6.441   5.145  0.2735 -0.2080  1.4721
15616TIP3    H268340   1.942   6.581   5.089  0.6692 -0.9237 -0.5351
15617TIP3   OH268341   3.091   3.025  14.381 -0.8078  0.1017  0.2837
15617TIP3    H168342   3.166   3.063  14.428 -1.7428  0.1798  1.7807
15617TIP3    H268343   3.046   3.101  14.344 -0.6066  0.1209  0.0723
15618TIP3   OH268344   1.982   6.958   1.264  0.1409 -0.0945 -0.2522
15618TIP3    H168345   1.969   7.035   1.319  1.2421  0.8825 -1.3084
15618TIP3    H268346   2.063   6.975   1.217  0.7885 -2.2144 -0.0264
15619TIP3   OH268347   6.034   3.002   2.291 -0.5007  0.1261  0.0846
15619TIP3    H168348   5.979   2.981   2.215 -0.4450 -1.0929  0.3637
15619TIP3    H268349   6.044   2.919   2.337  0.8443  0.5113  0.5258
15620TIP3   OH268350   7.107   2.106   3.771  0.1695  0.0056 -0.4921
15620TIP3    H168351   7.035   2.048   3.749 -0.9900  0.9859  0.5995
15620TIP3    H268352   7.139   2.074   3.855  0.5553  0.0041 -0.6370
15621TIP3   OH268353   1.426   6.983   5.622  0.0773 -0.2605 -0.3309
15621TIP3    H168354   1.438   6.918   5.553 -0.2582 -0.3968 -0.2598
15621TIP3    H268355   1.337   7.016   5.610 -0.3281 -0.9705  0.6136
15622TIP3   OH268356   1.555   3.797   1.223 -0.2849  0.3053 -0.5410
15622TIP3    H168357   1.510   3.850   1.288  0.9901  0.8946 -0.0917
15622TIP3    H268358   1.647   3.821   1.232  0.0328 -0.2316 -1.9874
15623TIP3   OH268359   7.168   0.640   3.825  0.5324 -0.3544 -0.7393
15623TIP3    H168360   7.205   0.560   3.862  0.8185  0.5151  0.9442
15623TIP3    H268361   7.105   0.670   3.890  0.9822  1.2035 -0.9836
15624TIP3   OH268362   0.929   4.419   4.473 -0.0055  0.1093  0.2710
15624TIP3    H168363   0.935   4.324   4.466  0.2098  0.1556 -0.2419
15624TIP3    H268364   0.835   4.437   4.475 -0.1109 -0.0113 -1.5661
15625TIP3   OH268365   4.982   1.190   5.006  0.0740 -0.0818 -0.3167
15625TIP3    H168366   5.050   1.233   4.953 -0.9681 -0.8118 -2.3467
15625TIP3    H268367   4.903   1.243   4.991 -0.5722 -1.1115 -0.6525
15626TIP3   OH268368   4.416   4.777   4.532 -0.6148  0.5039  0.2129
15626TIP3    H168369   4.382   4.768   4.621  1.6563 -0.6256  1.0630
15626TIP3    H268370   4.485   4.843   4.539  0.8252 -0.8946 -0.2646
15627TIP3   OH268371   1.011   4.303   1.880 -0.2872 -0.2986  0.0889
15627TIP3    H168372   1.083   4.248   1.912  0.5634 -0.0521 -1.3377
15627TIP3    H268373   0.936   4.277   1.934  0.7067 -1.0044  1.1920
15628TIP3   OH268374   6.604   5.510  13.656  0.4769 -0.3711 -0.3730
15628TIP3    H168375   6.645   5.458  13.725 -0.9731  1.3922  2.0020
15628TIP3    H268376   6.611   5.601  13.688 -1.6754  0.3586 -1.7453
15629TIP3   OH268377   6.561   5.340  13.199 -0.5539  0.4133 -0.4285
15629TIP3    H168378   6.629   5.274  13.203 -0.0596  0.8531 -1.3411
15629TIP3    H268379   6.594   5.413  13.251 -0.3387  0.6127 -0.8413
15630TIP3   OH268380   3.746   4.701   3.968 -0.9235 -0.6395  0.7438
15630TIP3    H168381   3.737   4.606   3.967 -1.8233 -0.5696  1.2194
15630TIP3    H268382   3.839   4.716   3.982 -0.2762 -1.4421 -1.9935
15631TIP3   OH268383   2.249   2.733   3.189  0.7014 -0.5611 -0.1174
15631TIP3    H168384   2.208   2.700   3.269  0.7431  0.3629  0.2926
15631TIP3    H268385   2.335   2.692   3.188  1.0879  0.1802  0.8480
15632TIP3   OH268386   0.798   2.539  14.691  0.2938  0.5196  0.5084
15632TIP3    H168387   0.747   2.461  14.714  0.3633  0.0575 -0.7919
15632TIP3    H268388   0.733   2.607  14.675 -0.0036 -0.1600 -1.4857
15633TIP3   OH268389   5.195   6.203   5.156 -0.5734  0.4709 -0.0377
15633TIP3    H168390   5.204   6.152   5.236  2.7365  1.6289  0.4992
15633TIP3    H268391   5.133   6.272   5.179 -1.4835 -0.5632  0.7269
15634TIP3   OH268392   0.933   3.934   1.724  0.0553  0.8602 -0.1385
15634TIP3    H168393   0.996   3.862   1.732 -1.2004 -0.0697  1.9383
15634TIP3    H268394   0.975   3.995   1.663  1.0471 -1.7155 -2.2425
15635TIP3   OH268395   2.150   6.180   5.392  0.0070  0.5667  0.4765
15635TIP3    H168396   2.110   6.266   5.405 -0.9740  0.6601 -2.4251
15635TIP3    H268397   2.081   6.118   5.417 -0.8697  0.7225 -1.3547
15636TIP3   OH268398   3.214   2.549  14.393  1.0448  0.5296 -0.4506
15636TIP3    H168399   3.204   2.519  14.483  2.3902  0.4572 -0.2941
15636TIP3    H268400   3.225   2.469  14.342  2.6130  0.6290 -0.3226
15637TIP3   OH268401   2.992   5.644   2.686 -0.4286  0.0187 -0.2756
15637TIP3    H168402   2.926   5.702   2.648 -0.1383  1.6628  1.5677
15637TIP3    H268403   2.941   5.581   2.737 -0.6553  1.3601  1.2481
15638TIP3   OH268404   1.502   3.575   3.886  0.7471 -0.5547  0.1051
15638TIP3    H168405   1.445   3.498   3.889 -2.1380  1.3790 -0.6385
15638TIP3    H268406   1.508   3.604   3.977  0.2317 -0.5933  0.1543
15639TIP3   OH268407   1.192   2.338  15.353 -0.2353  1.1736  0.8527
15639TIP3    H168408   1.267   2.290  15.321 -0.5503  1.9843 -1.2233
15639TIP3    H268409   1.229   2.415  15.397  0.1924  0.0831  2.5041
15640TIP3   OH268410   2.819   1.797  12.964  0.2149  0.2326 -0.3841
15640TIP3    H168411   2.913   1.815  12.956  0.0250  1.8485  0.5241
15640TIP3    H268412   2.803   1.798  13.059 -0.8555  0.8558 -0.5520
15641TIP3   OH268413   5.138   5.661  13.824  0.1925  0.5432 -0.0524
15641TIP3    H168414   5.214   5.628  13.776 -1.0510 -2.3362 -0.2411
15641TIP3    H268415   5.175   5.723  13.887  3.0776 -2.4128  1.4674
15642TIP3   OH268416   0.594   1.509   4.230 -0.8560  0.0073  0.4336
15642TIP3    H168417   0.583   1.604   4.238 -0.3124  0.2004 -0.7854
15642TIP3    H268418   0.624   1.480   4.316 -1.1315  0.9334  0.8454
15643TIP3   OH268419   3.883   4.101   4.959  0.0349 -0.1859  0.1491
15643TIP3    H168420   3.887   4.022   5.013 -3.1545 -0.2800  0.4548
15643TIP3    H268421   3.880   4.069   4.869  1.4169 -0.2167  0.0880
15644TIP3   OH268422   4.262   4.583   1.837 -0.0598 -0.2646 -0.0627
15644TIP3    H168423   4.246   4.651   1.771  0.7252 -0.0788 -0.0730
15644TIP3    H268424   4.305   4.512   1.789 -0.3197 -0.5130  0.0685
15645TIP3   OH268425   6.979   6.708   3.753 -0.1970  0.1366  0.4675
15645TIP3    H168426   6.982   6.752   3.668  0.8761  0.0019  0.4209
15645TIP3    H268427   7.071   6.699   3.779 -0.4787 -0.4569  1.3124
15646TIP3   OH268428   1.433   2.375   3.655  0.1273  0.3795  0.2093
15646TIP3    H168429   1.456   2.283   3.662  0.8765  0.4510 -0.9223
15646TIP3    H268430   1.495   2.410   3.590 -0.8994  1.4184 -0.2424
15647TIP3   OH268431   0.493   5.362  13.431  0.3864 -0.3713 -0.0247
15647TIP3    H168432   0.432   5.433  13.449 -0.5580 -0.6463 -1.8695
15647TIP3    H268433   0.521   5.376  13.341  2.4655 -0.7187  0.5225
15648TIP3   OH268434   1.821   0.974   4.121  0.3233  0.4236 -0.3856
15648TIP3    H168435   1.854   1.059   4.150  0.2138 -0.3078  2.1389
15648TIP3    H268436   1.900   0.920   4.113  0.3139  0.5094 -1.0969
15649TIP3   OH268437   3.281   0.078   0.517  0.1834 -0.0477 -0.1866
15649TIP3    H168438   3.325   0.039   0.441 -3.6939 -1.5017 -1.9249
15649TIP3    H268439   3.241   0.158   0.483 -2.9282 -1.5121 -0.2574
15650TIP3   OH268440   3.392   2.381  15.286  0.3106 -0.1898  0.7032
15650TIP3    H168441   3.325   2.354  15.349  1.1530 -0.5664  1.4728
15650TIP3    H268442   3.423   2.299  15.248 -0.4658  0.0650 -0.5194
15651TIP3   OH268443   5.836   0.405   4.060 -0.1107 -0.2660 -0.0557
15651TIP3    H168444   5.909   0.346   4.076  0.5382  0.7671  0.9769
15651TIP3    H268445   5.842   0.426   3.966  0.5893 -0.6033 -0.0942
15652TIP3   OH268446   1.442   6.340   2.130 -0.3750  0.1872  0.4819
15652TIP3    H168447   1.377   6.274   2.153 -0.9433  0.8141  0.7278
15652TIP3    H268448   1.423   6.362   2.039  0.2778 -0.4924  0.1661
15653TIP3   OH268449   4.513   4.282   0.970  0.1056  0.1311  0.1680
15653TIP3    H168450   4.502   4.189   0.989  0.1525  0.2740  0.9187
15653TIP3    H268451   4.607   4.292   0.955  0.1330  0.1053  0.3278
15654TIP3   OH268452   0.964   0.254   4.594 -0.0893 -0.3468  0.1873
15654TIP3    H168453   0.986   0.164   4.615  0.0672 -0.1919  0.6802
15654TIP3    H268454   0.967   0.257   4.498 -0.7058 -1.0213  0.1362
15655TIP3   OH268455   1.851   1.727   3.020  0.7802  0.0351  0.2624
15655TIP3    H168456   1.808   1.811   3.031  1.0468  0.1009  0.8044
15655TIP3    H268457   1.843   1.708   2.926 -0.0598  0.2375  0.2877
15656TIP3   OH268458   6.942   2.567   1.948 -0.6773 -0.3907 -0.3223
15656TIP3    H168459   6.986   2.589   1.866  3.8709  2.5831  2.4345
15656TIP3    H268460   6.877   2.637   1.960 -0.6245 -0.2405 -0.8977
15657TIP3   OH268461   6.705   2.215  10.127  0.5235 -0.0122 -0.4408
15657TIP3    H168462   6.714   2.138  10.183  1.0732  0.2952 -0.0982
15657TIP3    H268463   6.746   2.286  10.177  0.1432  0.4743 -0.8097
15658TIP3   OH268464   0.041   4.544  10.699 -0.7666 -0.0067 -0.0997
15658TIP3    H168465   0.010   4.528  10.788 -3.0063 -2.7204 -1.1937
15658TIP3    H268466   0.064   4.457  10.667 -0.7403  0.7912 -2.3925
15659TIP3   OH268467   3.231   6.441  14.181 -0.3870  0.4454  0.1395
15659TIP3    H168468   3.213   6.347  14.173  1.1200  0.2839 -2.6906
15659TIP3    H268469   3.152   6.484  14.147 -0.3264  0.1303 -0.4079
15660TIP3   OH268470   0.189   2.619  11.873 -0.3920  0.3676 -0.3737
15660TIP3    H168471   0.183   2.524  11.883  3.2902  0.0489  0.3422
15660TIP3    H268472   0.228   2.632  11.786 -0.6057  1.1958 -0.3523
15661TIP3   OH268473   3.467   0.833   0.835  0.1075 -0.2762  0.2324
15661TIP3    H168474   3.435   0.912   0.790  0.8405 -1.3715 -2.3685
15661TIP3    H268475   3.395   0.771   0.827  0.3828 -0.5958  0.2164
15662TIP3   OH268476   2.352   4.341   2.898  0.3709  0.1569  0.4601
15662TIP3    H168477   2.389   4.404   2.836  0.1096 -0.2331 -0.1049
15662TIP3    H268478   2.296   4.285   2.844  0.2099 -0.2469  1.0381
15663TIP3   OH268479   0.719   0.856   3.476 -0.4145  0.5352 -0.1399
15663TIP3    H168480   0.684   0.929   3.425 -1.1661 -0.3453 -0.9250
15663TIP3    H268481   0.742   0.894   3.561 -1.0528  1.6179 -0.4414
15664TIP3   OH268482   6.760   1.783   3.537  0.3017  0.0119  0.4820
15664TIP3    H168483   6.793   1.800   3.449  0.0812 -0.3772  0.3219
15664TIP3    H268484   6.757   1.687   3.543 -2.0064 -0.0086  0.0204
15665TIP3   OH268485   1.854   1.786   5.754 -0.6055  0.5099  0.0041
15665TIP3    H168486   1.805   1.849   5.700 -0.8636 -1.2813 -2.0021
15665TIP3    H268487   1.839   1.701   5.711  2.4437 -0.4554  0.5989
15666TIP3   OH268488   0.276   1.642   2.120  0.5922 -0.0797  0.0326
15666TIP3    H168489   0.206   1.689   2.165 -1.1315 -0.3266 -2.1974
15666TIP3    H268490   0.250   1.550   2.124  1.7661 -0.4113  0.7107
15667TIP3   OH268491   1.687   7.238   2.334 -0.4450 -0.1452 -0.4854
15667TIP3    H168492   1.710   7.255   2.425 -2.4178  0.6991 -0.0902
15667TIP3    H268493   1.669   7.144   2.331  0.0230 -0.2535 -0.1179
15668TIP3   OH268494   0.437   6.208   2.454  0.2654 -0.1826  0.3601
15668TIP3    H168495   0.360   6.241   2.408 -0.2755 -1.0056  0.6471
15668TIP3    H268496   0.477   6.286   2.493 -0.5805  0.2255  0.4420
15669TIP3   OH268497   5.207   4.775  15.205 -0.3625 -0.3365  0.0554
15669TIP3    H168498   5.217   4.839  15.135 -0.9861 -3.6421 -3.3505
15669TIP3    H268499   5.115   4.747  15.198 -0.3768 -0.9503  2.0951
15670TIP3   OH268500   5.048   0.948   4.406 -0.3799 -0.5912  0.3987
15670TIP3    H168501   5.113   1.000   4.358  0.0419  0.4896  2.0422
15670TIP3    H268502   5.067   0.857   4.382  0.5404 -0.1631 -0.5673
15671TIP3   OH268503   4.262   3.486   4.087 -0.0400  0.6972  0.1206
15671TIP3    H168504   4.318   3.537   4.146  0.0823  0.8238 -0.1035
15671TIP3    H268505   4.270   3.530   4.003  0.1099  0.2701 -0.0899
15672TIP3   OH268506   0.221   3.004   1.810 -0.1829  0.5777 -0.1948
15672TIP3    H168507   0.134   2.977   1.839  0.2917 -0.3746  0.3728
15672TIP3    H268508   0.234   3.091   1.849 -1.3604  1.3042 -1.3104
15673TIP3   OH268509   3.041   1.097   3.151 -0.1489  0.7759 -0.2771
15673TIP3    H168510   2.958   1.088   3.198  1.4026  0.3941  2.6607
15673TIP3    H268511   3.046   1.020   3.095 -0.7256 -0.5583  1.4081
15674TIP3   OH268512   7.034   0.353   2.386  0.3944  0.2491 -0.8308
15674TIP3    H168513   7.037   0.313   2.473 -1.1175  1.0039 -0.3806
15674TIP3    H268514   7.067   0.442   2.400 -0.1095  0.4591 -0.9683
15675TIP3   OH268515   5.374   4.901   4.419  0.2153 -1.4626  0.1409
15675TIP3    H168516   5.455   4.878   4.467  0.6368 -1.4145 -0.5391
15675TIP3    H268517   5.379   4.996   4.409 -0.3600 -1.3474  0.8532
15676TIP3   OH268518   6.566   0.221  14.432  0.1085 -0.1274  0.1603
15676TIP3    H168519   6.541   0.307  14.466  1.3974  0.3359 -0.0029
15676TIP3    H268520   6.606   0.176  14.506 -0.6179 -0.6290  0.2613
15677TIP3   OH268521   0.644   0.690   1.522  0.6878  0.2231  0.4051
15677TIP3    H168522   0.549   0.684   1.509  0.8995  0.4147 -1.5520
15677TIP3    H268523   0.681   0.632   1.456  1.9556  0.8873  0.5045
15678TIP3   OH268524   4.146   1.265   0.213  0.6297  0.0291 -0.5434
15678TIP3    H168525   4.189   1.187   0.249  0.4866  0.1976  0.0078
15678TIP3    H268526   4.077   1.230   0.156  0.3154 -0.2606  0.0030
15679TIP3   OH268527   1.171   6.189   5.003  0.6209  0.1523  0.1446
15679TIP3    H168528   1.080   6.181   4.974  1.2026 -1.0749 -1.5200
15679TIP3    H268529   1.170   6.161   5.094 -0.5164 -0.7942 -0.1370
15680TIP3   OH268530   2.659   2.729  12.613 -0.2320 -0.1274  0.2748
15680TIP3    H168531   2.731   2.780  12.650  1.1662 -1.6016 -0.3096
15680TIP3    H268532   2.640   2.770  12.529  0.5178 -0.2422  0.0477
15681TIP3   OH268533   0.960   0.712   0.013 -0.0588  0.0716 -0.2009
15681TIP3    H168534   0.884   0.729  -0.043  0.2253  1.1619 -0.2828
15681TIP3    H268535   0.942   0.627   0.053 -0.4748 -0.5324 -1.6139
15682TIP3   OH268536   5.142   7.035  12.952  0.3597 -0.0124  0.4077
15682TIP3    H168537   5.181   7.098  12.891  0.2418 -1.1100 -0.8308
15682TIP3    H268538   5.090   7.089  13.011 -0.9605  0.9552 -1.5366
15683TIP3   OH268539   4.673   3.776   5.411  0.3748 -0.1109  0.2510
15683TIP3    H168540   4.668   3.683   5.389  0.4387  0.3944 -2.1576
15683TIP3    H268541   4.658   3.822   5.328  0.8197  2.0357  1.2748
15684TIP3   OH268542   4.092   2.286   0.965  0.2455  0.2275  0.6906
15684TIP3    H168543   4.064   2.372   0.997  0.3727  0.6610 -0.3408
15684TIP3    H268544   4.058   2.224   1.030 -1.1082  0.9326  0.6855
15685TIP3   OH268545   3.577   3.074   4.865 -0.1516  0.2323 -0.1746
15685TIP3    H168546   3.483   3.083   4.844 -0.2494 -0.0410  0.1562
15685TIP3    H268547   3.579   3.057   4.959  0.1719 -0.9442 -0.3894
15686TIP3   OH268548   5.979   1.829   2.784  0.0107  0.0944 -0.0579
15686TIP3    H168549   5.887   1.853   2.793 -0.1484 -0.2627 -0.7583
15686TIP3    H268550   6.024   1.913   2.769 -0.4866  0.0451 -1.9998
15687TIP3   OH268551   1.004   3.175   4.372  0.2983 -0.5932 -0.1231
15687TIP3    H168552   1.016   3.263   4.410  0.6050 -1.3275  1.5690
15687TIP3    H268553   1.072   3.122   4.413 -1.0369 -2.0498  0.3066
15688TIP3   OH268554   3.269   3.032   0.491  0.1351 -0.2006 -0.3918
15688TIP3    H168555   3.187   2.985   0.505  1.6564 -2.3025  2.1436
15688TIP3    H268556   3.283   3.080   0.572  1.6167 -0.1875 -0.6394
15689TIP3   OH268557   6.582   6.081  10.710  0.8074 -0.4850 -0.7601
15689TIP3    H168558   6.543   6.119  10.788  0.2122 -1.2253 -0.6946
15689TIP3    H268559   6.564   6.145  10.640  3.2024  1.2730  0.0573
15690TIP3   OH268560   3.895   3.206   1.972 -0.0066 -0.1728  0.0635
15690TIP3    H168561   3.841   3.156   2.032 -0.0684  0.5613  0.6333
15690TIP3    H268562   3.950   3.261   2.028 -0.0763  0.5346 -0.5420
15691TIP3   OH268563   0.957   6.817   5.366  0.4118  0.4928 -0.1617
15691TIP3    H168564   0.907   6.804   5.446  0.7445 -1.6835 -0.2370
15691TIP3    H268565   0.919   6.754   5.304  1.9824  0.1280 -0.8037
15692TIP3   OH268566   6.226   5.117   5.078  0.8178  0.5740  0.1718
15692TIP3    H168567   6.199   5.204   5.105  0.6603  1.0734 -1.5180
15692TIP3    H268568   6.241   5.070   5.161 -0.9840  1.5791  1.1273
15693TIP3   OH268569   1.184   7.160   4.219  0.1417 -0.3712 -0.6025
15693TIP3    H168570   1.236   7.224   4.267 -0.7191 -0.7822  0.9718
15693TIP3    H268571   1.225   7.155   4.133  0.3832  2.0764 -0.6932
15694TIP3   OH268572   3.491   4.721  15.003 -0.2814 -0.1845  0.2628
15694TIP3    H168573   3.490   4.783  14.929  1.9629 -0.5292 -0.1364
15694TIP3    H268574   3.484   4.635  14.962 -1.1411 -0.2963  0.6370
15695TIP3   OH268575   6.283   6.735   3.208 -0.0015 -0.1740  0.0652
15695TIP3    H168576   6.195   6.705   3.185 -0.1133 -0.5619  0.9588
15695TIP3    H268577   6.326   6.657   3.242 -0.0299  0.4681  1.6661
15696TIP3   OH268578   4.968   1.829  13.556 -0.0804 -0.1807  0.3111
15696TIP3    H168579   4.897   1.866  13.504  1.2971  0.2405 -1.3611
15696TIP3    H268580   5.021   1.905  13.582 -0.3181 -0.4610  1.7354
15697TIP3   OH268581   0.859   1.653   0.126 -0.2828  0.4020 -0.2548
15697TIP3    H168582   0.785   1.618   0.075 -0.4169  0.7541 -0.3096
15697TIP3    H268583   0.828   1.651   0.217 -0.3625  0.5578 -0.2787
15698TIP3   OH268584   2.664   4.019  13.280  0.2642  1.2859 -0.3365
15698TIP3    H168585   2.602   3.959  13.323 -0.6440  2.0343 -0.6006
15698TIP3    H268586   2.675   4.090  13.343 -0.7476  2.1795 -1.1380
15699TIP3   OH268587   3.053   6.569   2.466 -0.5930  0.3409 -1.0892
15699TIP3    H168588   3.106   6.576   2.387 -0.3093 -0.4317 -0.9778
15699TIP3    H268589   3.110   6.601   2.536 -0.9308  1.2645 -1.2174
15700TIP3   OH268590   6.201   4.714   4.939  0.4719  0.2025 -0.0063
15700TIP3    H168591   6.143   4.640   4.955  0.1838  0.1452 -1.2122
15700TIP3    H268592   6.202   4.762   5.022 -0.6673 -0.2384  0.2780
15701TIP3   OH268593   6.260   5.034   3.094  0.1961 -0.4948 -0.0092
15701TIP3    H168594   6.213   5.019   3.176 -0.0179 -0.1486 -0.0619
15701TIP3    H268595   6.314   5.111   3.111  0.3856 -0.6070 -0.0975
15702TIP3   OH268596   3.404   0.771   3.435  0.2131  0.1051  0.3149
15702TIP3    H168597   3.352   0.847   3.410  1.3717  1.6375  2.1940
15702TIP3    H268598   3.465   0.758   3.362 -0.2727  0.7147 -0.2075
15703TIP3   OH268599   0.558   1.286  14.650 -0.2714  0.3260 -0.3131
15703TIP3    H168600   0.613   1.336  14.711  0.7806 -0.4821 -0.5685
15703TIP3    H268601   0.497   1.351  14.614 -1.3180  0.7118  2.0083
15704TIP3   OH268602   2.950   5.327  10.349  0.2407  0.1276  0.2955
15704TIP3    H168603   3.021   5.315  10.412 -0.7754  3.2335  2.2470
15704TIP3    H268604   2.984   5.289  10.267  1.7854 -3.7199  2.4375
15705TIP3   OH268605   0.636   3.317   4.147 -0.2704  0.3634  0.1008
15705TIP3    H168606   0.699   3.378   4.109  0.9783 -1.1268 -0.3030
15705TIP3    H268607   0.567   3.309   4.081  1.6163 -1.8086 -1.7735
15706TIP3   OH268608   1.369   3.549   1.836 -0.2116 -0.7878  0.3169
15706TIP3    H168609   1.384   3.571   1.928 -2.3532  2.6980 -0.0010
15706TIP3    H268610   1.435   3.598   1.788 -2.3848  1.8495 -0.1848
15707TIP3   OH268611   0.036   0.021   1.397  0.3221  0.4553  0.9146
15707TIP3    H168612   0.081  -0.038   1.336 -2.1103  0.3985 -0.9529
15707TIP3    H268613   0.062   0.109   1.368  0.9159  0.3996  1.2530
15708TIP3   OH268614   1.207   5.329  13.851  0.0306  0.3926  0.5379
15708TIP3    H168615   1.199   5.399  13.916 -1.5595 -1.0206  1.9804
15708TIP3    H268616   1.117   5.312  13.823  0.1972 -1.8529  1.1534
15709TIP3   OH268617   0.766   3.566  14.271 -0.0958 -0.4022  0.5788
15709TIP3    H168618   0.753   3.604  14.184  0.2077  0.4521  0.8963
15709TIP3    H268619   0.844   3.610  14.305  0.3418 -1.4083  0.9159
15710TIP3   OH268620   0.228   2.078   4.080  0.1035  0.4548 -0.5236
15710TIP3    H168621   0.203   2.088   3.988 -0.8288  1.6710 -0.1578
15710TIP3    H268622   0.320   2.101   4.082 -0.3678  2.5366 -0.8383
15711TIP3   OH268623   1.026   1.362  14.404  0.1965 -0.1171  0.1197
15711TIP3    H168624   1.029   1.286  14.345  0.5306 -1.5902  1.9219
15711TIP3    H268625   0.934   1.369  14.430  0.3077 -0.5104  0.6500
15712TIP3   OH268626   4.106   6.433   0.760  0.7692  0.2092 -0.3684
15712TIP3    H168627   4.060   6.354   0.785  1.6496 -0.2584 -0.1742
15712TIP3    H268628   4.109   6.486   0.840 -0.2993  0.7065 -0.6324
15713TIP3   OH268629   6.264   5.430   0.301 -0.6454  0.2934  0.1041
15713TIP3    H168630   6.329   5.492   0.332  0.3805  0.2312 -1.7812
15713TIP3    H268631   6.296   5.345   0.329 -1.1264  0.4333  1.1347
15714TIP3   OH268632   4.876   7.083  11.455 -0.3562 -0.1408  0.6143
15714TIP3    H168633   4.853   7.175  11.446  1.0704  0.2950  1.1977
15714TIP3    H268634   4.913   7.075  11.543  1.6299 -0.7603 -0.2098
15715TIP3   OH268635   5.461   4.218   1.506  0.1359  0.3493  0.7530
15715TIP3    H168636   5.517   4.198   1.581  0.0585  0.4130  0.8281
15715TIP3    H268637   5.444   4.133   1.465  2.4546  0.5556 -0.8242
15716TIP3   OH268638   0.319   0.533   3.835 -0.2818 -0.1771 -0.0841
15716TIP3    H168639   0.290   0.524   3.926 -0.7030 -0.5887 -0.2503
15716TIP3    H268640   0.399   0.584   3.840 -0.3994 -0.0399  0.5037
15717TIP3   OH268641   5.900   6.220   0.441  0.2621  0.0876  0.6186
15717TIP3    H168642   5.942   6.134   0.443 -1.0177 -0.6294 -0.6967
15717TIP3    H268643   5.806   6.201   0.441 -0.1077  1.5893  2.4740
15718TIP3   OH268644   1.999   0.101   1.835 -0.6262  0.0038  0.0280
15718TIP3    H168645   2.012   0.151   1.916 -2.1187 -0.6331  0.6943
15718TIP3    H268646   1.993   0.167   1.766  1.4277  0.5253  0.2740
15719TIP3   OH268647   1.008   1.899   4.452  0.4809  0.1618 -0.0936
15719TIP3    H168648   1.070   1.951   4.401  0.1366 -0.0197 -0.7013
15719TIP3    H268649   0.937   1.960   4.472  0.5070  0.1715 -0.0311
15720TIP3   OH268650   4.225   3.875   4.197  0.5647 -0.1727 -0.0063
15720TIP3    H168651   4.272   3.949   4.235  0.8881 -0.1798 -0.3788
15720TIP3    H268652   4.135   3.906   4.185  1.2472  1.1077 -2.6187
15721TIP3   OH268653   0.457   4.582   0.676 -0.1510 -0.1272 -0.4550
15721TIP3    H168654   0.548   4.556   0.667 -0.7097 -2.4338 -0.3436
15721TIP3    H268655   0.459   4.676   0.693  2.0969  0.1418 -1.8648
15722TIP3   OH268656   0.585   4.568  13.309 -0.3626  0.2544 -0.0163
15722TIP3    H168657   0.592   4.497  13.245 -0.6122 -0.6917  0.9778
15722TIP3    H268658   0.515   4.624  13.275 -0.7469 -0.4369 -0.3943
15723TIP3   OH268659   2.826   0.522  14.152 -0.0501  0.4015  0.1252
15723TIP3    H168660   2.868   0.590  14.204 -2.0725  0.1254  2.2830
15723TIP3    H268661   2.738   0.555  14.135 -0.5605 -1.0013 -0.1145
15724TIP3   OH268662   0.758   1.172   5.109  0.4420 -0.4823 -0.4351
15724TIP3    H168663   0.820   1.141   5.043  0.3834 -0.5175 -0.4731
15724TIP3    H268664   0.809   1.175   5.190  0.6109 -0.1002 -0.5494
15725TIP3   OH268665   2.947   6.868   3.587  0.4359 -0.2422  0.5133
15725TIP3    H168666   2.921   6.960   3.587  1.2570  0.0102 -0.9699
15725TIP3    H268667   2.972   6.850   3.497  0.7359 -1.7950  0.8868
15726TIP3   OH268668   4.579   1.487   1.110  0.0256  0.0374 -0.4015
15726TIP3    H168669   4.573   1.452   1.021 -1.0732 -1.3891  0.1883
15726TIP3    H268670   4.489   1.485   1.143  0.4881  0.0343  0.9312
15727TIP3   OH268671   0.094   3.181   5.527 -0.5795 -0.0655 -0.0971
15727TIP3    H168672   0.055   3.101   5.563 -0.4533  0.6316  1.6910
15727TIP3    H268673   0.020   3.240   5.514 -0.3962  0.4739  1.1937
15728TIP3   OH268674   7.224   4.273   4.493 -0.2853  0.1605 -0.7815
15728TIP3    H168675   7.176   4.227   4.424 -0.0753 -2.1163  0.4704
15728TIP3    H268676   7.166   4.267   4.570  0.4526  0.6054 -0.1815
15729TIP3   OH268677   0.139   7.158   3.061 -0.8780 -0.1115  0.2274
15729TIP3    H168678   0.187   7.098   3.005 -0.4587  0.5158 -0.0973
15729TIP3    H268679   0.182   7.151   3.146 -1.3028 -0.8156  0.3889
15730TIP3   OH268680   0.094   2.067   4.315  0.4711  0.6277  0.4231
15730TIP3    H168681   0.157   2.025   4.374  1.8279  0.9516 -0.7336
15730TIP3    H268682   0.140   2.072   4.231 -1.7555 -0.7498 -0.9877
15731TIP3   OH268683   3.030   2.426   0.479 -0.1087 -0.2832 -0.6278
15731TIP3    H168684   3.110   2.478   0.475 -1.1123  1.4866  0.6757
15731TIP3    H268685   2.998   2.424   0.389  1.2942 -0.8876 -1.1358
15732TIP3   OH268686   1.875   7.008   3.605  0.2334  0.3449 -0.4941
15732TIP3    H168687   1.890   7.035   3.696 -1.2676  0.3207 -0.2196
15732TIP3    H268688   1.903   7.083   3.553 -0.4509  1.0161  0.0838
15733TIP3   OH268689   0.205   5.187   5.026 -0.3053  0.1708 -0.1207
15733TIP3    H168690   0.205   5.270   5.074  1.2302 -1.2106  2.4910
15733TIP3    H268691   0.253   5.206   4.945  0.3074  1.7235  0.5646
15734TIP3   OH268692   1.999   2.504   4.612  0.6267 -0.0234 -0.1353
15734TIP3    H168693   2.068   2.441   4.594 -0.6988 -1.5173 -0.1711
15734TIP3    H268694   2.002   2.516   4.707  1.1871  0.2351 -0.1828
15735TIP3   OH268695   5.538   4.476   2.593 -0.1296 -0.2909 -0.4134
15735TIP3    H168696   5.489   4.427   2.526 -0.0246 -2.4517  1.0186
15735TIP3    H268697   5.629   4.473   2.563 -0.0106 -1.6802  0.0309
15736TIP3   OH268698   6.223   3.109   1.973 -0.1344 -0.2250  0.1540
15736TIP3    H168699   6.233   3.036   1.911  0.6878  0.7773 -0.9382
15736TIP3    H268700   6.173   3.175   1.924 -0.1672  0.2652  0.8461
15737TIP3   OH268701   2.262   5.615   5.685 -0.0813 -0.7207  0.2369
15737TIP3    H168702   2.281   5.686   5.747  1.4201 -1.5803  0.7981
15737TIP3    H268703   2.311   5.639   5.606 -0.5756 -0.5309 -0.0228
15738TIP3   OH268704   2.466   0.785   4.134  0.1349  0.3451 -0.2980
15738TIP3    H168705   2.443   0.848   4.065 -1.0345 -0.0046 -0.2588
15738TIP3    H268706   2.460   0.835   4.215 -1.9397 -0.0403 -0.1574
15739TIP3   OH268707   5.831   7.054   4.188  0.2174  0.2093 -0.1421
15739TIP3    H168708   5.900   7.002   4.230  0.2275 -0.3921 -0.8762
15739TIP3    H268709   5.769   6.988   4.154 -1.3710  0.7391  1.5291
15740TIP3   OH268710   6.564   1.195  12.396  0.1980  0.0379  0.0181
15740TIP3    H168711   6.605   1.117  12.357 -0.0653  0.4866 -1.1795
15740TIP3    H268712   6.637   1.245  12.432  0.5233 -0.0743 -0.4734
15741TIP3   OH268713   2.599   3.085  12.677 -0.0204 -0.2016  0.0166
15741TIP3    H168714   2.679   3.082  12.729 -0.4360  1.3286  0.8150
15741TIP3    H268715   2.531   3.112  12.739 -0.9135 -0.2532 -0.9017
15742TIP3   OH268716   0.632   5.728   0.795  0.5770 -0.3834 -0.2037
15742TIP3    H168717   0.586   5.734   0.878  0.3072 -1.8824 -0.2153
15742TIP3    H268718   0.707   5.671   0.812  1.3073  0.3877 -0.6830
15743TIP3   OH268719   7.100   6.219   4.454 -0.1715 -0.4947 -0.6602
15743TIP3    H168720   7.126   6.310   4.469  0.3663 -0.4398 -1.8153
15743TIP3    H268721   7.109   6.178   4.540 -0.8588  0.6369 -0.0244
15744TIP3   OH268722   5.737   3.726   4.320  0.1444 -0.0453 -0.5919
15744TIP3    H168723   5.653   3.690   4.350 -1.9200  3.8228 -1.1037
15744TIP3    H268724   5.788   3.736   4.400 -0.4230 -1.1006 -0.0697
15745TIP3   OH268725   5.505   2.074   5.561 -0.2326 -0.8768 -0.5980
15745TIP3    H168726   5.496   2.117   5.646  0.6423 -0.5607 -0.6528
15745TIP3    H268727   5.435   2.111   5.508 -1.0741 -1.4226  0.1156
15746TIP3   OH268728   4.499   6.145   3.170 -0.0933 -0.0820  0.3170
15746TIP3    H168729   4.453   6.198   3.235  0.1946  0.5467  0.0166
15746TIP3    H268730   4.522   6.065   3.217 -1.8879 -0.6226  0.3512
15747TIP3   OH268731   3.396   3.399   4.943 -0.2247 -0.6501  0.1865
15747TIP3    H168732   3.338   3.413   4.868  0.7549 -1.5167 -0.7808
15747TIP3    H268733   3.484   3.398   4.905  0.2102 -2.6794  1.0822
15748TIP3   OH268734   7.171   0.087  14.701  0.2921  0.1431 -0.1617
15748TIP3    H168735   7.228   0.066  14.775 -1.0273 -1.4081  0.4659
15748TIP3    H268736   7.196   0.176  14.677  1.6920  0.1904  1.2588
15749TIP3   OH268737   4.432   5.658   2.448 -0.1880  0.1254 -0.0093
15749TIP3    H168738   4.453   5.685   2.359  0.5164 -2.1311 -0.5837
15749TIP3    H268739   4.514   5.625   2.484 -0.9929 -1.4486  0.5224
15750TIP3   OH268740   0.202   1.320  13.678  0.1800 -0.3813  0.0916
15750TIP3    H168741   0.211   1.251  13.612  0.6255  1.5141 -1.9337
15750TIP3    H268742   0.177   1.398  13.628 -0.5014  0.9151  2.3179
15751TIP3   OH268743   3.223   2.492   1.252 -0.4461 -0.1360  0.2754
15751TIP3    H168744   3.132   2.463   1.252 -0.4603 -0.1160  0.9406
15751TIP3    H268745   3.245   2.500   1.345 -0.1850  1.1567  0.1286
15752TIP3   OH268746   4.779   2.585   4.265 -0.5598 -0.3123  0.7094
15752TIP3    H168747   4.706   2.616   4.211  0.2845 -0.8622 -0.8095
15752TIP3    H268748   4.826   2.664   4.291  2.1546 -0.0297 -3.9207
15753TIP3   OH268749   3.566   7.253   1.235  0.1041 -0.1611 -0.0059
15753TIP3    H168750   3.647   7.212   1.267 -0.9762 -0.7237  2.1998
15753TIP3    H268751   3.496   7.202   1.276 -1.4198  0.0285 -2.2094
15754TIP3   OH268752   5.347   2.438  14.466 -0.3606 -0.1258 -0.4024
15754TIP3    H168753   5.376   2.457  14.555  0.7133  0.5463 -0.8844
15754TIP3    H268754   5.301   2.517  14.437  1.1933  0.5324 -1.2018
15755TIP3   OH268755   5.348   3.093   0.702  0.0230 -0.1963  0.3076
15755TIP3    H168756   5.395   3.141   0.633  1.0073 -0.9923  0.3997
15755TIP3    H268757   5.262   3.076   0.665  0.0796  0.5733 -0.1995
15756TIP3   OH268758   1.428   6.082   2.998  0.4082 -0.4920  0.1194
15756TIP3    H168759   1.352   6.032   3.028 -0.3710 -0.5291 -1.7945
15756TIP3    H268760   1.498   6.018   2.987  0.7155 -0.4775  1.7614
15757TIP3   OH268761   1.499   1.074  12.508 -0.0372  0.4448  0.1708
15757TIP3    H168762   1.516   1.110  12.421  0.5185 -1.9075 -0.7783
15757TIP3    H268763   1.477   1.150  12.562  1.3564  2.1792 -1.5768
15758TIP3   OH268764   5.982   0.179   5.380  0.1183 -0.5587  0.7277
15758TIP3    H168765   5.989   0.270   5.351 -0.5934 -0.2081  1.6083
15758TIP3    H268766   6.038   0.131   5.320 -0.1251  0.3439 -0.2679
15759TIP3   OH268767   6.311   2.559   1.651 -0.1877  0.3560  0.4493
15759TIP3    H168768   6.226   2.576   1.693 -0.4220  0.5055 -0.0752
15759TIP3    H268769   6.353   2.645   1.647  0.7183  0.0382  2.2257
15760TIP3   OH268770   0.829   6.655   4.237 -0.2291  0.0550 -0.6467
15760TIP3    H168771   0.808   6.699   4.320  1.3585 -0.1018 -0.1288
15760TIP3    H268772   0.793   6.567   4.248  1.1532 -0.4030  0.4625
15761TIP3   OH268773   1.750   3.002   2.488 -0.6409 -0.2145 -0.5575
15761TIP3    H168774   1.769   2.979   2.579 -0.3030  0.8176 -0.3539
15761TIP3    H268775   1.677   3.064   2.493 -0.6341 -0.1644 -0.9963
15762TIP3   OH268776   3.878   3.978   5.442  0.2032 -0.1289  0.1734
15762TIP3    H168777   3.877   3.883   5.445 -0.7059 -0.1984 -1.0150
15762TIP3    H268778   3.945   4.005   5.504  0.7730 -1.5588  0.2026
15763TIP3   OH268779   6.817   6.099  10.977  0.0740 -0.1567  0.2125
15763TIP3    H168780   6.859   6.019  10.945 -0.0063  0.8012 -2.5856
15763TIP3    H268781   6.820   6.159  10.903  0.7986  2.7631  2.4081
15764TIP3   OH268782   0.784   0.970   6.037  0.5282  0.1808  0.1380
15764TIP3    H168783   0.854   0.938   5.980  0.8562  1.5544 -0.2755
15764TIP3    H268784   0.818   1.052   6.073 -0.3491  0.1864  0.9906
15765TIP3   OH268785   3.505   6.081   5.286  0.0005 -0.0183  0.1732
15765TIP3    H168786   3.410   6.074   5.285 -0.0017 -2.3842  2.7550
15765TIP3    H268787   3.529   6.060   5.377  2.9558  0.9504 -0.2896
15766TIP3   OH268788   3.708   7.149   0.226  0.1264  0.2332 -0.5533
15766TIP3    H168789   3.661   7.181   0.149 -1.3239  1.7065  0.8655
15766TIP3    H268790   3.742   7.228   0.269  2.1029 -0.6479 -0.3670
15767TIP3   OH268791   2.684   3.348  11.173 -0.0782  0.3916  0.0359
15767TIP3    H168792   2.637   3.272  11.208 -0.3500 -0.1079 -1.3577
15767TIP3    H268793   2.642   3.423  11.215 -1.2665 -0.1155 -0.2007
15768TIP3   OH268794   3.916   5.607   0.059 -0.4413 -0.0150 -0.1446
15768TIP3    H168795   4.006   5.575   0.070 -0.6670 -0.4996  0.2977
15768TIP3    H268796   3.887   5.629   0.147 -0.6120  0.5631 -0.3371
15769TIP3   OH268797   4.688   6.150  12.412  0.3381  0.0126 -0.4952
15769TIP3    H168798   4.679   6.245  12.420  0.7913  0.0215 -0.0534
15769TIP3    H268799   4.630   6.127  12.339  0.5562  0.6795 -0.8926
15770TIP3   OH268800   6.660   2.310   5.083  0.3924 -0.4190  0.1530
15770TIP3    H168801   6.570   2.287   5.105  0.1146 -0.1008 -0.6322
15770TIP3    H268802   6.653   2.392   5.033  0.9484 -1.4439 -1.6968
15771TIP3   OH268803   5.742   0.090  13.140 -0.8996 -0.2618  0.0652
15771TIP3    H168804   5.806   0.049  13.082  0.2296 -0.1938  1.2394
15771TIP3    H268805   5.672   0.119  13.081  1.4185  2.2794 -1.6752
15772TIP3   OH268806   3.301   4.649   1.695  0.0946  0.0056  0.0341
15772TIP3    H168807   3.346   4.684   1.619 -0.7287  0.4481 -0.2631
15772TIP3    H268808   3.326   4.707   1.767 -0.7816  0.8505 -0.3323
15773TIP3   OH268809   6.010   2.878   5.277  0.1940 -0.0910 -0.5237
15773TIP3    H168810   6.056   2.961   5.265  2.1573 -0.9163  0.7889
15773TIP3    H268811   6.018   2.860   5.370 -1.5859 -1.0139 -0.5175
15774TIP3   OH268812   2.689   1.412   4.995  0.5353 -0.3021  0.0157
15774TIP3    H168813   2.646   1.332   4.963 -1.3062 -0.5423  2.6957
15774TIP3    H268814   2.763   1.380   5.047 -0.8319 -0.4723  2.0025
15775TIP3   OH268815   0.473   6.094  13.504  0.2329 -0.0779 -0.6326
15775TIP3    H168816   0.451   6.020  13.560 -0.7054  0.8257  0.2541
15775TIP3    H268817   0.540   6.061  13.445  1.0275 -1.1711  0.8227
15776TIP3   OH268818   0.707   5.548   5.012  0.4991 -0.3130  0.5746
15776TIP3    H168819   0.649   5.583   5.080 -0.4206 -2.2482  0.8341
15776TIP3    H268820   0.750   5.473   5.053 -0.2142 -1.6438 -0.9952
15777TIP3   OH268821   3.690   3.546  13.838 -0.3882 -0.2207  0.0422
15777TIP3    H168822   3.710   3.606  13.910 -0.9068 -0.9023  0.7773
15777TIP3    H268823   3.752   3.474  13.849 -0.1500 -0.1065 -0.4938
15778TIP3   OH268824   2.137   0.050  14.710  0.3613  0.1343  0.6851
15778TIP3    H168825   2.181  -0.019  14.760  0.2722 -0.3389  0.1218
15778TIP3    H268826   2.076   0.004  14.654 -0.0943  0.7188  0.6922
15779TIP3   OH268827   4.399   1.030   1.974 -0.4485 -0.4106  0.2839
15779TIP3    H168828   4.441   0.948   1.948 -3.5289 -2.8621  2.2144
15779TIP3    H268829   4.466   1.076   2.025  0.7413 -2.9031  1.1514
15780TIP3   OH268830   2.150   7.039  14.184  0.3109 -0.0586  0.2272
15780TIP3    H168831   2.200   7.091  14.121 -1.5433  1.3377 -0.1474
15780TIP3    H268832   2.186   7.064  14.270  0.3859  0.7562 -0.0404
15781TIP3   OH268833   3.563   4.776   0.071 -0.3553 -0.5668 -0.0109
15781TIP3    H168834   3.617   4.786  -0.008  0.4676 -1.4373  0.4342
15781TIP3    H268835   3.476   4.755   0.037  0.1624 -1.7276 -0.6960
15782TIP3   OH268836   4.204   2.985   3.517  0.6040 -0.2051 -0.2092
15782TIP3    H168837   4.182   2.896   3.545 -0.3684  0.2761  0.6236
15782TIP3    H268838   4.123   3.035   3.529  1.9576  1.5687  2.6577
15783TIP3   OH268839   3.607   6.182   0.030 -0.4196  0.0701  0.1998
15783TIP3    H168840   3.514   6.167   0.048 -0.8779  1.4126 -0.8792
15783TIP3    H268841   3.616   6.165  -0.064  0.5243 -0.4651  0.3781
15784TIP3   OH268842   5.227   6.133   4.888  0.3049 -0.4257  0.6648
15784TIP3    H168843   5.286   6.197   4.849 -1.6273  0.4206 -1.0421
15784TIP3    H268844   5.207   6.168   4.975  2.1707 -0.6992  1.2542
15785TIP3   OH268845   3.189   1.383   4.982  0.1426 -0.3050  0.6334
15785TIP3    H168846   3.194   1.452   4.915  0.6456  0.7235  1.7107
15785TIP3    H268847   3.253   1.318   4.953  0.9833  0.5395  0.5650
15786TIP3   OH268848   1.520   5.700   2.996  0.1840 -0.4280 -0.4937
15786TIP3    H168849   1.532   5.735   2.908 -1.4641 -1.8236 -1.3302
15786TIP3    H268850   1.462   5.625   2.985  0.3762 -0.9877  1.7238
15787TIP3   OH268851   4.676   5.645   4.265  0.3021  0.3743 -0.1422
15787TIP3    H168852   4.615   5.571   4.259 -0.3465  0.8159  0.7724
15787TIP3    H268853   4.761   5.609   4.239  0.0750 -0.7884  0.6744
15788TIP3   OH268854   0.816   7.222  14.503 -0.1639 -0.2065 -0.6710
15788TIP3    H168855   0.828   7.300  14.556  1.0426 -1.9527  1.8413
15788TIP3    H268856   0.753   7.169  14.552 -1.1984 -0.7115 -2.4676
15789TIP3   OH268857   5.857   6.712   2.887 -0.7967  0.3618 -0.1568
15789TIP3    H168858   5.904   6.791   2.861 -1.2675  0.3401 -1.1261
15789TIP3    H268859   5.868   6.652   2.813 -0.0633 -0.6596  0.7606
15790TIP3   OH268860   0.717   4.461   4.271  0.1087 -0.8097 -0.1495
15790TIP3    H168861   0.736   4.544   4.316 -0.9478 -0.1475 -0.8861
15790TIP3    H268862   0.764   4.468   4.188  0.7616 -1.3554  0.1638
15791TIP3   OH268863   3.529   0.295   5.193  0.7102  0.0729  0.8183
15791TIP3    H168864   3.589   0.252   5.132  1.6609  0.9354  1.1181
15791TIP3    H268865   3.554   0.262   5.279 -2.3623 -3.2274  0.6464
15792TIP3   OH268866   1.360   0.745   0.886 -0.1182 -0.1861 -0.6937
15792TIP3    H168867   1.439   0.713   0.929  0.0062  0.3549 -0.5124
15792TIP3    H268868   1.295   0.750   0.956  0.3922  1.7596 -0.3018
15793TIP3   OH268869   6.791   5.656  10.887 -0.0699  0.2058 -0.4277
15793TIP3    H168870   6.699   5.653  10.915  0.2445  2.7080  1.2568
15793TIP3    H268871   6.787   5.691  10.798 -0.7983 -1.5418 -1.1199
15794TIP3   OH268872   0.858   0.456   2.362  0.3504 -0.0976  0.3854
15794TIP3    H168873   0.852   0.440   2.268  0.8482  1.5121  0.0312
15794TIP3    H268874   0.831   0.374   2.403 -1.6941 -0.2679 -1.1373
15795TIP3   OH268875   4.976   4.349   4.828  0.2170  0.2443  0.1119
15795TIP3    H168876   5.057   4.344   4.878  1.0692  0.5119 -1.2095
15795TIP3    H268877   5.002   4.380   4.742 -1.0795 -1.0693 -0.8092
15796TIP3   OH268878   4.260   3.281  12.100  0.2268 -0.0469 -0.0786
15796TIP3    H168879   4.245   3.326  12.183 -1.1308 -0.5043 -0.0401
15796TIP3    H268880   4.199   3.207  12.102 -0.8484  0.7164 -2.0565
15797TIP3   OH268881   2.185   4.816   2.037 -0.3426 -0.3194  0.3558
15797TIP3    H168882   2.226   4.865   1.966 -1.2249 -1.2943 -0.8684
15797TIP3    H268883   2.258   4.774   2.082  0.2890  0.8697  0.4848
15798TIP3   OH268884   5.333   6.651  14.152  0.6485  0.7449  0.2619
15798TIP3    H168885   5.395   6.598  14.202  1.0744  0.5084 -0.4885
15798TIP3    H268886   5.352   6.629  14.060 -2.6428 -1.7885  0.0106
15799TIP3   OH268887   6.210   7.167   2.553  0.2673  0.4048  0.1468
15799TIP3    H168888   6.290   7.169   2.605  0.1224 -0.1890  0.3964
15799TIP3    H268889   6.240   7.155   2.463  0.4153 -1.0351  0.3677
15800TIP3   OH268890   1.061   3.401  14.880 -0.1144  0.0607 -0.1033
15800TIP3    H168891   1.092   3.482  14.921  0.8676  0.0800 -0.8465
15800TIP3    H268892   1.062   3.337  14.951  0.7957  0.2798  0.0891
15801TIP3   OH268893   1.104   3.576   5.017 -1.4814  0.2899  0.5719
15801TIP3    H168894   1.045   3.505   5.045  1.4722 -1.6767  2.4675
15801TIP3    H268895   1.173   3.531   4.969  0.2166  1.9406  1.3747
15802TIP3   OH268896   1.986   6.615  14.375 -0.4345 -0.1421 -0.2879
15802TIP3    H168897   1.944   6.700  14.363 -2.7363 -1.2764 -0.9101
15802TIP3    H268898   1.989   6.578  14.287 -1.0903 -1.3897  0.1915
15803TIP3   OH268899   1.554   4.654   3.899 -0.0586 -0.0040  0.3658
15803TIP3    H168900   1.473   4.695   3.930 -0.3578 -0.7609  0.5918
15803TIP3    H268901   1.571   4.698   3.815 -0.5695  0.3315  0.4293
15804TIP3   OH268902   2.076   2.410   9.349  0.2894 -0.3914  0.0126
15804TIP3    H168903   2.074   2.491   9.297  0.5989 -0.4638 -0.1162
15804TIP3    H268904   2.020   2.350   9.300  0.5299 -0.4394 -0.2092
15805TIP3   OH268905   5.402   4.239   4.005 -0.0013  0.0781 -0.9554
15805TIP3    H168906   5.348   4.288   3.943 -2.2835 -0.4738  0.4757
15805TIP3    H268907   5.342   4.176   4.044  1.3280  0.3732  1.7760
15806TIP3   OH268908   2.098   4.579  15.015 -0.1811  0.6837  0.1265
15806TIP3    H168909   2.052   4.507  15.059  1.3357 -1.7862 -2.0337
15806TIP3    H268910   2.035   4.611  14.950 -0.0837 -0.3982 -0.5349
15807TIP3   OH268911   2.845   3.601  15.124  0.4018  0.2837 -0.2731
15807TIP3    H168912   2.755   3.632  15.140  0.6484 -0.0615  2.1613
15807TIP3    H268913   2.894   3.681  15.106  0.4833  1.1885  3.2236
15808TIP3   OH268914   0.829   0.768   4.058 -0.2054  0.5009  0.1098
15808TIP3    H168915   0.792   0.709   4.123 -2.4516 -1.5844 -2.7447
15808TIP3    H268916   0.882   0.712   4.001  0.0842  1.7985 -0.9646
15809TIP3   OH268917   2.389   3.973   4.033 -0.4699  0.0067  0.4895
15809TIP3    H168918   2.347   4.057   4.017 -1.8124 -0.4841  1.2280
15809TIP3    H268919   2.396   3.967   4.128 -0.9023 -0.9428  0.4761
15810TIP3   OH268920   1.361   3.915  11.450  0.1708  0.4684  0.2683
15810TIP3    H168921   1.427   3.928  11.518 -2.1271  1.3747  2.4934
15810TIP3    H268922   1.280   3.895  11.497 -1.0581 -1.4114 -2.3412
15811TIP3   OH268923   0.869   2.927   2.820 -0.2506 -0.2635 -0.1874
15811TIP3    H168924   0.839   2.889   2.903  0.9369  1.2750  0.9931
15811TIP3    H268925   0.897   2.851   2.768  0.1017 -1.1808  1.2686
15812TIP3   OH268926   7.081   0.080   2.105  0.6437 -0.1657  0.3013
15812TIP3    H168927   7.138   0.064   2.029  0.1250  0.1196 -0.1603
15812TIP3    H268928   7.114   0.022   2.173  1.9825  0.5430  0.3052
15813TIP3   OH268929   6.316   5.441   5.094 -0.6004 -0.3099 -0.8421
15813TIP3    H168930   6.264   5.518   5.071 -2.9452 -1.5666 -0.1859
15813TIP3    H268931   6.292   5.376   5.027  1.0862 -0.5779 -1.2137
15814TIP3   OH268932   4.687   6.922   1.804 -0.5413  0.3775 -0.0517
15814TIP3    H168933   4.717   6.886   1.721 -1.6809  1.1378 -0.8167
15814TIP3    H268934   4.762   6.913   1.863  0.0009 -0.9616 -0.9033
15815TIP3   OH268935   2.243   6.953   5.682 -0.4116 -0.1407  0.0460
15815TIP3    H168936   2.208   6.962   5.771 -1.6985  0.0187 -0.4503
15815TIP3    H268937   2.167   6.929   5.629  0.1745  0.5438 -1.1466
15816TIP3   OH268938   6.108   6.676  14.491  0.3519  0.1339  0.0262
15816TIP3    H168939   6.165   6.712  14.559  0.0019  1.0007 -0.1238
15816TIP3    H268940   6.051   6.749  14.467  0.0795 -0.3369 -0.7813
15817TIP3   OH268941   2.549   6.164   2.629  0.3959 -0.0711 -0.2485
15817TIP3    H168942   2.576   6.236   2.686 -1.2963 -0.4092  1.0785
15817TIP3    H268943   2.608   6.092   2.652 -0.0434 -0.0969  0.8578
15818TIP3   OH268944   5.793   6.641   0.375  0.6697 -0.0716 -0.1710
15818TIP3    H168945   5.870   6.595   0.341  1.0869  2.2422 -2.6904
15818TIP3    H268946   5.809   6.733   0.354 -2.0169  0.7211  0.8560
15819TIP3   OH268947   5.737   4.601   5.364  0.1119 -0.1937  0.5306
15819TIP3    H168948   5.779   4.614   5.449 -0.6010  4.5728  0.4452
15819TIP3    H268949   5.653   4.562   5.383  1.2855 -2.3742  1.5494
15820TIP3   OH268950   4.759   6.416   2.902 -0.3084  0.3675  0.1111
15820TIP3    H168951   4.819   6.491   2.891 -0.9481  0.7683 -0.7217
15820TIP3    H268952   4.746   6.382   2.814  0.9454 -1.5372  0.5887
15821TIP3   OH268953   6.950   5.666  11.138 -0.0934  0.1744 -0.1597
15821TIP3    H168954   7.026   5.629  11.093  0.8107  1.7681 -0.0149
15821TIP3    H268955   6.882   5.672  11.070 -0.1659 -1.3699 -0.2599
15822TIP3   OH268956   3.681   4.961   2.602 -0.3194 -0.3045  0.5478
15822TIP3    H168957   3.658   4.877   2.642 -1.2472 -0.3191  0.0225
15822TIP3    H268958   3.657   5.027   2.667 -1.0190 -0.3729  0.3645
15823TIP3   OH268959   2.024   4.942   4.135  0.7393 -0.2457  0.4051
15823TIP3    H168960   2.029   4.871   4.072  0.5477  0.1517 -0.0629
15823TIP3    H268961   1.966   4.908   4.204  0.6089 -0.5232  0.1627
15824TIP3   OH268962   4.396   3.758   5.028  0.1359  0.1152 -0.2814
15824TIP3    H168963   4.323   3.790   5.081  1.2583  1.8648  0.3126
15824TIP3    H268964   4.393   3.663   5.038 -2.7907 -0.0070 -1.3402
15825TIP3   OH268965   4.023   3.477   4.928 -0.1623  0.0536 -0.4326
15825TIP3    H168966   4.109   3.472   4.970 -0.6268  1.6053  0.7913
15825TIP3    H268967   4.000   3.386   4.909  1.1310 -0.4929  0.5079
15826TIP3   OH268968   5.119   5.087   5.010  0.2999  0.2208 -0.2109
15826TIP3    H168969   5.130   5.160   4.950 -0.9752 -0.0470 -0.8009
15826TIP3    H268970   5.087   5.015   4.955 -0.6783 -0.0911  0.7242
15827TIP3   OH268971   6.344   5.964   1.281  0.1050  0.2920  0.5077
15827TIP3    H168972   6.304   6.025   1.219  0.1750  0.9410  1.0796
15827TIP3    H268973   6.298   5.982   1.364 -0.3660 -0.9388  0.5235
15828TIP3   OH268974   4.562   6.295   1.621  0.1417  0.6663  0.2563
15828TIP3    H168975   4.542   6.358   1.690  0.0547  0.0163  0.8352
15828TIP3    H268976   4.486   6.298   1.563  0.2478  1.2730  0.1466
15829TIP3   OH268977   3.782   2.145   0.968 -1.1456 -0.4708 -0.4100
15829TIP3    H168978   3.729   2.223   0.986  0.1376 -0.1499  2.7599
15829TIP3    H268979   3.817   2.120   1.054  1.1656 -2.5923 -1.8292
15830TIP3   OH268980   2.691   3.584   5.277 -0.0527 -0.5091 -0.2616
15830TIP3    H168981   2.715   3.524   5.206 -0.1973  0.9005 -1.5466
15830TIP3    H268982   2.770   3.636   5.291  0.1263 -1.0656  0.9677
15831TIP3   OH268983   2.211   4.550   2.720  0.7328 -0.6258  0.4425
15831TIP3    H168984   2.219   4.545   2.625 -0.1237  1.7166  0.1915
15831TIP3    H268985   2.292   4.593   2.748  1.2532 -1.8434  0.8667
15832TIP3   OH268986   3.795   6.013   3.746  0.0135 -0.0311  0.0999
15832TIP3    H168987   3.850   5.936   3.758 -0.2931 -0.2102  0.3517
15832TIP3    H268988   3.705   5.980   3.749 -0.1552  0.4941  1.3784
15833TIP3   OH268989   2.749   6.435   4.707 -0.3925 -0.1940 -0.0714
15833TIP3    H168990   2.727   6.450   4.798 -1.1348 -1.5101 -0.0126
15833TIP3    H268991   2.708   6.508   4.660 -2.3310 -0.9235  0.3797
15834TIP3   OH268992   0.205   1.500  15.222  0.0558 -0.4417  0.0713
15834TIP3    H168993   0.137   1.548  15.269  0.1261 -1.2720  1.0631
15834TIP3    H268994   0.169   1.411  15.214  0.1479 -0.3773 -1.2551
15835TIP3   OH268995   6.600   2.735  14.866  0.1267  0.0421  0.0978
15835TIP3    H168996   6.569   2.676  14.797  1.9827 -2.2921  1.0983
15835TIP3    H268997   6.696   2.725  14.863  0.3919  1.9044  1.3123
15836TIP3   OH268998   6.610   3.441   1.226 -0.0300  0.1872 -0.2278
15836TIP3    H168999   6.542   3.430   1.292  1.4200  2.7665  1.9150
15836TIP3    H269000   6.640   3.352   1.205 -1.2970 -0.7607  1.7836
15837TIP3   OH269001   3.704   5.642   5.054  1.2036  0.1669  0.1194
15837TIP3    H169002   3.658   5.561   5.075 -1.6394  1.2994 -1.1644
15837TIP3    H269003   3.661   5.709   5.107  1.6638  1.2123 -0.7729
15838TIP3   OH269004   3.275   4.622   4.963  0.0654  0.4733  0.2184
15838TIP3    H169005   3.185   4.590   4.950  0.4764 -0.7305  0.1536
15838TIP3    H269006   3.320   4.549   5.006  0.9320  1.1952  0.5775
15839TIP3   OH269007   3.134   3.470   3.538 -0.2788 -0.2649  0.3049
15839TIP3    H169008   3.136   3.557   3.498 -1.1613  0.7102  2.2314
15839TIP3    H269009   3.051   3.433   3.509 -0.3449 -0.0604  0.2280
15840TIP3   OH269010   3.657   2.572  14.794  0.0093 -0.0763  0.8185
15840TIP3    H169011   3.673   2.583  14.887  0.0375  0.0452  0.7990
15840TIP3    H269012   3.562   2.576  14.785 -0.0966 -1.5087  1.0267
15841TIP3   OH269013   4.799   0.644   2.027 -0.5119  0.0379  0.8571
15841TIP3    H169014   4.857   0.713   2.060  0.9739  0.1920 -1.7998
15841TIP3    H269015   4.716   0.689   2.010  0.9843  1.8209 -2.6825
15842TIP3   OH269016   4.086   4.369   1.912 -0.2258 -0.3649 -0.0800
15842TIP3    H169017   4.115   4.308   1.981 -1.2094 -1.1537 -0.3392
15842TIP3    H269018   4.161   4.427   1.899  0.2402 -0.6415  1.1587
15843TIP3   OH269019   2.324   7.057   5.156  0.5215  0.5564  0.2243
15843TIP3    H169020   2.366   7.048   5.070 -1.3534  1.0881 -0.7848
15843TIP3    H269021   2.313   7.151   5.168 -1.0324  0.4201  0.0986
15844TIP3   OH269022   2.423   4.201   3.334 -0.2239  0.2671  0.0965
15844TIP3    H169023   2.475   4.238   3.405  1.1137  0.4554 -0.9429
15844TIP3    H269024   2.411   4.109   3.358  1.6299 -0.0836 -0.1797
15845TIP3   OH269025   0.078   3.766   6.159 -0.2724 -0.5533 -0.5272
15845TIP3    H169026   0.094   3.682   6.202  1.0790 -0.1062 -0.1123
15845TIP3    H269027   0.116   3.756   6.072 -0.1749 -0.3988 -0.5033
15846TIP3   OH269028   6.983   1.435   1.692 -0.3934  0.3257  0.1792
15846TIP3    H169029   7.058   1.418   1.749 -1.1553 -0.9405  0.8411
15846TIP3    H269030   7.022   1.463   1.609  0.7870  0.1632  0.6620
15847TIP3   OH269031   3.211   2.093  13.381 -1.0480 -0.2932 -0.5125
15847TIP3    H169032   3.277   2.146  13.335  0.7425  0.0274  2.1868
15847TIP3    H269033   3.146   2.157  13.410  0.4283  0.4107  1.5822
15848TIP3   OH269034   6.516   3.501   4.602 -0.4963  0.0708 -0.8796
15848TIP3    H169035   6.490   3.460   4.519 -1.0875  0.1957 -0.7618
15848TIP3    H269036   6.604   3.534   4.586  0.1939 -1.6400 -0.8326
15849TIP3   OH269037   1.270   0.349   0.491  0.7601 -0.0772  0.4994
15849TIP3    H169038   1.266   0.404   0.569  1.0526  0.5744  0.0628
15849TIP3    H269039   1.361   0.321   0.486  1.4972  2.3759 -1.2748
15850TIP3   OH269040   1.823   6.897   4.712  0.2306  0.3871 -0.0748
15850TIP3    H169041   1.830   6.821   4.655 -0.0522  1.7550 -2.0326
15850TIP3    H269042   1.738   6.887   4.756  0.9628 -1.2636  1.0599
15851TIP3   OH269043   1.429   0.044  14.676 -0.2620 -0.0144 -0.2795
15851TIP3    H169044   1.449   0.031  14.583 -0.4058  0.7672 -0.4230
15851TIP3    H269045   1.382  -0.035  14.701 -0.6381 -0.0305 -0.9931
15852TIP3   OH269046   0.759   5.790  13.934 -0.5628  0.1420 -0.5096
15852TIP3    H169047   0.745   5.798  14.029  3.2549 -1.1125  0.3460
15852TIP3    H269048   0.749   5.879  13.901 -0.0089  0.9964  1.4456
15853TIP3   OH269049   6.015   2.762   4.997  0.0774 -0.0967 -0.0576
15853TIP3    H169050   5.976   2.676   5.008 -1.3591  0.4214 -0.7884
15853TIP3    H269051   6.031   2.794   5.086 -0.0876 -0.7984  0.2233
15854TIP3   OH269052   4.886   2.901   0.507  0.1434  0.0826  0.9894
15854TIP3    H169053   4.953   2.969   0.499  1.5084 -1.2649  0.5063
15854TIP3    H269054   4.925   2.835   0.564 -0.0455 -1.5271 -0.6270
15855TIP3   OH269055   4.886   4.862   3.714  0.3674  0.2573 -0.3701
15855TIP3    H169056   4.820   4.793   3.707 -0.5785  1.0851  0.1222
15855TIP3    H269057   4.840   4.935   3.756  1.0998  1.4839 -1.6149
15856TIP3   OH269058   4.848   2.551  11.293  0.1148 -0.9217 -0.5738
15856TIP3    H169059   4.849   2.544  11.388 -1.2924 -0.4861 -0.5025
15856TIP3    H269060   4.907   2.482  11.263  1.1070 -0.6313  0.6212
15857TIP3   OH269061   1.457   5.559   3.223 -0.2367 -0.3668 -0.6514
15857TIP3    H169062   1.512   5.489   3.257 -0.2137 -0.4256 -0.8128
15857TIP3    H269063   1.514   5.609   3.164 -0.5534 -0.8536 -1.3822
15858TIP3   OH269064   7.024   2.044   0.181 -0.4131 -0.4109 -0.0949
15858TIP3    H169065   7.107   2.024   0.225 -0.2579 -1.1043 -0.6946
15858TIP3    H269066   7.018   2.139   0.186  1.1062 -0.2016 -1.2289
15859TIP3   OH269067   3.567   3.723   4.261  0.4272 -0.0132  0.1857
15859TIP3    H169068   3.489   3.719   4.206  0.9816  0.6275 -0.6764
15859TIP3    H269069   3.639   3.738   4.200  1.3299 -1.2568  0.8924
15860TIP3   OH269070   1.584   1.836   3.776 -0.1455  0.5174 -0.6346
15860TIP3    H169071   1.626   1.789   3.704 -0.5708  1.2319 -1.3508
15860TIP3    H269072   1.649   1.832   3.847  0.9121  1.1322 -1.5407
15861TIP3   OH269073   6.624   6.294   3.756  0.2532  0.4854  0.4394
15861TIP3    H169074   6.712   6.329   3.739  0.7068 -1.0433 -0.6182
15861TIP3    H269075   6.621   6.283   3.851  1.4660 -0.0413  0.4389
15862TIP3   OH269076   4.065   0.702  11.092  0.2245  0.5053  0.7222
15862TIP3    H169077   4.136   0.687  11.155  0.4962 -0.6140  0.1601
15862TIP3    H269078   4.061   0.622  11.041 -1.3907  0.5980  0.6735
15863TIP3   OH269079   1.048   4.944   2.335  0.2767 -0.0312  0.8540
15863TIP3    H169080   1.095   4.984   2.262 -0.1431  0.2322  0.7222
15863TIP3    H269081   1.108   4.877   2.369  0.1783 -0.6970 -0.2181
15864TIP3   OH269082   3.340   4.862  15.183 -0.1658 -0.2117  0.8240
15864TIP3    H169083   3.342   4.770  15.212  1.3159 -0.1214  1.1185
15864TIP3    H269084   3.401   4.865  15.110 -0.0150  0.5833  0.9720
15865TIP3   OH269085   2.782   7.230   3.238 -0.0722  0.4977 -0.3566
15865TIP3    H169086   2.804   7.267   3.152  1.0105  0.5740 -0.0606
15865TIP3    H269087   2.724   7.295   3.278 -0.7970  0.3412 -1.1234
15866TIP3   OH269088   5.586   4.991   3.481 -0.0906  0.0797  0.3920
15866TIP3    H169089   5.517   5.041   3.524 -0.2728  0.5540 -0.4362
15866TIP3    H269090   5.560   4.899   3.493 -0.1833  0.2023  1.1923
15867TIP3   OH269091   4.004   4.645   2.996 -0.7941  0.1719  0.7823
15867TIP3    H169092   4.082   4.601   3.028 -1.5896 -1.9142  0.0310
15867TIP3    H269093   4.032   4.734   2.977  1.3940 -0.5362  0.4888
15868TIP3   OH269094   1.275   6.771  12.137 -0.4860 -0.1817  0.1861
15868TIP3    H169095   1.284   6.764  12.232 -0.6189 -0.5310  0.1723
15868TIP3    H269096   1.356   6.815  12.109 -1.3831  1.8789  0.6882
15869TIP3   OH269097   1.418   7.184   2.887  0.0976 -0.1188 -1.3395
15869TIP3    H169098   1.381   7.097   2.869 -1.2036  0.0891  0.1378
15869TIP3    H269099   1.343   7.242   2.894  0.6826  0.4827  0.9271
15870TIP3   OH269100   0.766   4.175   4.282 -0.4389  0.1206 -0.1832
15870TIP3    H169101   0.708   4.125   4.224  0.6975  1.3416 -2.4901
15870TIP3    H269102   0.722   4.259   4.293  0.4917  0.7802 -1.3330
15871TIP3   OH269103   6.719   1.813   1.367 -0.4720  0.0454  0.1989
15871TIP3    H169104   6.638   1.798   1.416 -1.7052  2.4759 -0.8774
15871TIP3    H269105   6.709   1.901   1.332  3.4602  1.1842  1.4433
15872TIP3   OH269106   3.922   0.291   2.190  0.0668 -0.7104 -0.2775
15872TIP3    H169107   4.008   0.332   2.197  0.1079 -1.0604  2.1934
15872TIP3    H269108   3.866   0.340   2.250 -1.6418 -0.2320 -2.1136
15873TIP3   OH269109   2.830   0.289   4.731  0.4906 -0.0028  0.2327
15873TIP3    H169110   2.876   0.236   4.796 -0.7315  1.5881  2.5042
15873TIP3    H269111   2.770   0.227   4.689  2.8933 -1.5736 -1.1473
15874TIP3   OH269112   6.024   3.187   3.876  0.3083  0.3109 -0.7285
15874TIP3    H169113   6.012   3.124   3.947 -5.4521 -1.7019 -2.8554
15874TIP3    H269114   6.078   3.140   3.812  0.7031 -0.1787 -0.0611
15875TIP3   OH269115   6.523   1.020   2.397 -0.1677  0.3976  0.5311
15875TIP3    H169116   6.523   1.084   2.326  0.7028 -1.7472 -1.5332
15875TIP3    H269117   6.451   0.960   2.376  0.4513 -0.5884  1.1402
15876TIP3   OH269118   0.824   5.722   4.072 -0.1242  0.0448  0.1923
15876TIP3    H169119   0.748   5.700   4.126 -1.0806  1.3900 -0.5291
15876TIP3    H269120   0.825   5.818   4.070  1.3518  0.0469 -0.1681
15877TIP3   OH269121   5.358   2.961   3.130 -0.0465 -0.0117  0.2344
15877TIP3    H169122   5.297   2.922   3.193  0.9137 -2.3619 -0.1817
15877TIP3    H269123   5.307   3.029   3.086 -1.4095  0.1633  1.9941
15878TIP3   OH269124   2.927   3.057  12.904 -0.1250 -0.0514  0.4169
15878TIP3    H169125   2.885   3.061  12.990 -2.4097  0.9528 -0.6501
15878TIP3    H269126   3.010   3.102  12.915  0.0952 -0.8247  2.3017
15879TIP3   OH269127   6.201   7.073  13.101  0.1187 -0.1885 -0.0375
15879TIP3    H169128   6.287   7.105  13.077 -0.8349  0.5564 -2.8546
15879TIP3    H269129   6.189   6.993  13.050 -1.1056  0.0798 -0.2099
15880TIP3   OH269130   0.952   0.055   5.184 -0.2152  0.2810 -0.0541
15880TIP3    H169131   0.869   0.100   5.172  1.0357  2.5398 -0.9079
15880TIP3    H269132   0.969   0.061   5.278 -0.9453 -0.0685  0.1005
15881TIP3   OH269133   0.572   3.007   1.564  0.1013 -0.4063 -0.1309
15881TIP3    H169134   0.644   3.042   1.616 -0.8071  0.9416  0.2711
15881TIP3    H269135   0.537   2.934   1.616  0.8883 -0.8009 -0.1372
15882TIP3   OH269136   2.369   0.155  15.245 -0.0254  0.2084 -0.3276
15882TIP3    H169137   2.437   0.139  15.179 -0.0519  0.1811 -0.3478
15882TIP3    H269138   2.401   0.230  15.295  0.7946 -0.8252  0.7312
15883TIP3   OH269139   7.186   4.123   3.417 -0.0157  0.3370  0.1552
15883TIP3    H169140   7.264   4.072   3.393  0.0154  0.0979  0.7420
15883TIP3    H269141   7.114   4.079   3.373  0.0512 -0.0458  0.4218
15884TIP3   OH269142   3.438   6.504   1.772  0.1566 -0.4593  0.5519
15884TIP3    H169143   3.423   6.578   1.714  1.1221 -1.3435 -0.8716
15884TIP3    H269144   3.525   6.520   1.809  0.4955 -1.0017  0.0135
15885TIP3   OH269145   5.390   4.789  13.358 -0.4721  0.5051  0.2009
15885TIP3    H169146   5.401   4.705  13.314 -2.4447  0.4771 -0.3302
15885TIP3    H269147   5.396   4.854  13.289 -0.6306  0.6709  0.3399
15886TIP3   OH269148   6.880   1.453   3.911 -0.1622  0.1164  0.0416
15886TIP3    H169149   6.903   1.412   3.995 -0.8688 -1.1436 -0.3572
15886TIP3    H269150   6.844   1.538   3.936  0.7265  0.2472  0.9404
15887TIP3   OH269151   1.194   7.164  15.251 -0.6557  0.1057 -0.2373
15887TIP3    H169152   1.281   7.198  15.231  0.5556 -1.8791  1.2775
15887TIP3    H269153   1.134   7.236  15.229  1.4612  2.0559  0.0418
15888TIP3   OH269154   2.795   5.857   2.975 -0.0948  0.2007  0.1608
15888TIP3    H169155   2.832   5.770   2.988 -1.0918 -0.4170 -0.9699
15888TIP3    H269156   2.715   5.857   3.027 -0.3206  0.2821 -0.1833
15889TIP3   OH269157   3.241   1.976   2.531 -0.5830 -0.5219  0.1349
15889TIP3    H169158   3.210   2.033   2.603  0.8649 -0.9993  1.1734
15889TIP3    H269159   3.242   2.034   2.455 -1.0662  0.3173  0.7382
15890TIP3   OH269160   5.636   3.638   1.076  0.2418  0.2800  0.4122
15890TIP3    H169161   5.634   3.545   1.099 -3.0963 -0.7213 -2.7827
15890TIP3    H269162   5.725   3.654   1.047  1.2398 -1.5032  2.2269
15891TIP3   OH269163   0.624   0.834   0.637  0.2770 -0.5189  0.1540
15891TIP3    H169164   0.556   0.822   0.703  0.7753  1.6306  1.1333
15891TIP3    H269165   0.585   0.889   0.571  1.0049  0.6934  0.6999
15892TIP3   OH269166   2.398   5.751   4.998  0.6374  0.0569 -0.1751
15892TIP3    H169167   2.440   5.722   5.079  1.3577  2.8504  0.5394
15892TIP3    H269168   2.467   5.801   4.952 -0.5944  0.9311 -1.1352
15893TIP3   OH269169   6.883   5.283   3.936  0.5807  0.1162  0.3985
15893TIP3    H169170   6.881   5.196   3.974  1.1452  0.1740  0.5756
15893TIP3    H269171   6.897   5.342   4.011  2.8223  0.1482  0.0487
15894TIP3   OH269172   2.158   0.410   0.906 -0.7881  0.0434  0.3290
15894TIP3    H169173   2.151   0.501   0.934 -1.7645  0.0424  0.1407
15894TIP3    H269174   2.091   0.364   0.957 -2.2073 -0.0648 -1.5251
15895TIP3   OH269175   1.891   0.524  11.072 -0.4477  0.1352 -0.4664
15895TIP3    H169176   1.840   0.550  10.996  0.6094  0.9627 -0.9258
15895TIP3    H269177   1.833   0.540  11.147 -1.1016  0.3908 -1.0205
15896TIP3   OH269178   6.902   1.741   3.812 -0.2776  0.0996  0.0160
15896TIP3    H169179   6.883   1.796   3.888  0.9528 -0.3765  0.6879
15896TIP3    H269180   6.836   1.767   3.747  0.3522  2.4977  0.2472
15897TIP3   OH269181   4.244   3.099   5.490  0.0102 -0.3722  0.3197
15897TIP3    H169182   4.338   3.088   5.504  0.1219 -0.1643 -0.2214
15897TIP3    H269183   4.228   3.192   5.507  0.0703 -0.2116 -0.4303
15898TIP3   OH269184   3.120   3.833   5.624  1.1233 -0.0604  0.4064
15898TIP3    H169185   3.087   3.746   5.648 -1.8046  0.4975 -1.2285
15898TIP3    H269186   3.106   3.886   5.703 -0.7990 -0.1820  0.1981
15899TIP3   OH269187   7.063   3.278   4.547  0.0686 -0.1433  0.0902
15899TIP3    H169188   7.072   3.193   4.590  5.3394  0.5988  1.1016
15899TIP3    H269189   7.074   3.259   4.454 -0.3465 -0.6940  0.1485
15900TIP3   OH269190   4.249   0.235   4.933  0.2469 -0.5880  0.1490
15900TIP3    H169191   4.251   0.140   4.919  1.4586 -0.6866  0.8866
15900TIP3    H269192   4.325   0.268   4.885  0.9623 -0.2395  1.4712
15901TIP3   OH269193   1.943   1.263  10.437  0.3750 -0.6446  0.5849
15901TIP3    H169194   1.887   1.186  10.430 -1.7993  0.7275  1.6977
15901TIP3    H269195   1.973   1.279  10.348  1.5101 -3.1645  0.4378
15902TIP3   OH269196   4.518   6.751   1.895 -0.1434  0.6106  0.3108
15902TIP3    H169197   4.464   6.803   1.954  0.6835  0.7366  0.9866
15902TIP3    H269198   4.588   6.811   1.868 -0.1351  0.3482 -0.2646
15903TIP3   OH269199   0.868   2.447   2.099  0.0467 -0.1002  0.6537
15903TIP3    H169200   0.928   2.519   2.079 -2.4377  1.1849 -3.3921
15903TIP3    H269201   0.915   2.369   2.071  0.3723  0.7620 -1.4255
15904TIP3   OH269202   0.083   4.735   2.030  0.5746  0.7459  0.1257
15904TIP3    H169203   0.108   4.762   2.118 -0.0938 -0.6704  0.7896
15904TIP3    H269204   0.013   4.795   2.005 -1.1271 -0.4769  1.6988
15905TIP3   OH269205   5.903   6.113  13.671  0.8823  0.2716  0.7488
15905TIP3    H169206   5.980   6.165  13.650 -0.1029  1.2333 -0.7170
15905TIP3    H269207   5.874   6.077  13.587  0.1214 -0.6161  1.3650
15906TIP3   OH269208   4.045   2.180   0.700 -0.3999  0.3643 -0.2060
15906TIP3    H169209   4.056   2.224   0.785 -1.6803  1.4970 -0.5897
15906TIP3    H269210   4.036   2.087   0.722 -4.1896  0.8941  1.3198
15907TIP3   OH269211   1.953   1.216   4.176  0.0343  0.3754 -0.3579
15907TIP3    H169212   2.046   1.238   4.177 -0.0118  1.2587  4.0554
15907TIP3    H269213   1.909   1.300   4.190 -1.4155 -0.1578 -1.5274
15908TIP3   OH269214   7.137   6.971   4.881  0.1595  0.6794 -0.7164
15908TIP3    H169215   7.189   7.039   4.838  0.4447 -0.3456 -2.0698
15908TIP3    H269216   7.196   6.932   4.945  0.0698  1.5286 -0.1056
15909TIP3   OH269217   5.555   1.695  13.618 -0.6942  0.0127  0.0449
15909TIP3    H169218   5.630   1.698  13.677  0.1916 -3.8767 -0.6185
15909TIP3    H269219   5.486   1.741  13.665  1.1606  0.8416  2.1432
15910TIP3   OH269220   0.760   4.149  14.437 -0.1101 -0.3950  0.1521
15910TIP3    H169221   0.723   4.211  14.374 -0.8076 -1.3697 -0.4347
15910TIP3    H269222   0.808   4.086  14.383 -1.1149 -1.5159  0.5182
15911TIP3   OH269223   1.977   5.039   1.211  0.7264  0.5836  0.1496
15911TIP3    H169224   2.003   4.956   1.250  2.3097  1.4084  0.9226
15911TIP3    H269225   2.059   5.082   1.189 -0.0851  1.3502 -1.5823
15912TIP3   OH269226   0.012   6.941   5.631 -0.5368 -0.5552 -0.0025
15912TIP3    H169227   0.000   6.887   5.709 -0.6951  0.0026  0.3591
15912TIP3    H269228   0.095   6.910   5.593 -0.2303 -0.5297  0.6283
15913TIP3   OH269229   2.113   5.340  11.007  0.1431  0.0742 -0.0111
15913TIP3    H169230   2.183   5.375  11.063  0.8077 -0.4863 -0.4845
15913TIP3    H269231   2.158   5.308  10.929 -0.5420 -1.0859  0.0480
15914TIP3   OH269232   4.473   0.283   4.771 -0.4771  0.2730 -0.4585
15914TIP3    H169233   4.412   0.267   4.700 -0.5249 -1.6914 -0.0108
15914TIP3    H269234   4.542   0.338   4.732 -1.4229  0.7434 -1.5078
15915TIP3   OH269235   4.644   2.082   5.128  0.5678  0.1303  0.3965
15915TIP3    H169236   4.634   1.992   5.096  0.4006 -0.0907  1.0662
15915TIP3    H269237   4.561   2.125   5.106  1.8380  1.1819 -3.1565
15916TIP3   OH269238   1.639   3.920   3.532 -0.0450 -0.5669  0.1665
15916TIP3    H169239   1.688   3.874   3.465 -1.0201 -1.8667  0.3164
15916TIP3    H269240   1.564   3.864   3.550 -0.9010  0.7522  0.8607
15917TIP3   OH269241   5.230   6.209   4.252  0.2676 -0.1852  0.4489
15917TIP3    H169242   5.289   6.137   4.229 -0.2824 -0.1970 -1.0510
15917TIP3    H269243   5.203   6.191   4.341  1.6302 -0.7966  0.7690
15918TIP3   OH269244   0.629   4.705   1.928 -0.0327  0.6277  0.0649
15918TIP3    H169245   0.579   4.623   1.933 -0.5603  0.8446 -1.1905
15918TIP3    H269246   0.706   4.690   1.982 -0.5375 -0.3895  0.5323
15919TIP3   OH269247   4.618   1.629   4.411  0.3467 -0.0273  0.0189
15919TIP3    H169248   4.572   1.560   4.458  1.4756 -0.4430  0.5340
15919TIP3    H269249   4.583   1.711   4.447  1.6977 -0.3211  2.1588
15920TIP3   OH269250   5.795   3.275  10.637 -0.0013 -0.2321  0.0527
15920TIP3    H169251   5.828   3.221  10.565  0.2226  0.7486 -0.5953
15920TIP3    H269252   5.872   3.323  10.668 -0.4555  0.7710 -0.3232
15921TIP3   OH269253   4.192   5.812   1.782  0.4551 -0.0954  0.2072
15921TIP3    H169254   4.150   5.898   1.779 -1.3865 -0.9718 -0.3546
15921TIP3    H269255   4.286   5.831   1.778  0.0795  1.8669 -0.0970
15922TIP3   OH269256   3.958   4.196   5.250 -0.1586  0.5838  0.0866
15922TIP3    H169257   3.907   4.247   5.312 -1.4494  0.1159 -0.5530
15922TIP3    H269258   3.943   4.105   5.275 -0.5025  0.3992 -0.7594
15923TIP3   OH269259   5.836   3.595  13.401  0.1551  0.0824 -0.3758
15923TIP3    H169260   5.857   3.611  13.493 -1.1502 -3.2270  0.6432
15923TIP3    H269261   5.758   3.649  13.385 -0.6861 -0.6597  1.0472
15924TIP3   OH269262   7.248   6.866   0.172  0.0262 -0.2895  0.1329
15924TIP3    H169263   7.316   6.911   0.223  1.0355 -1.5734 -0.0318
15924TIP3    H269264   7.173   6.862   0.231  1.5974 -2.9778  2.1398
15925TIP3   OH269265   6.013   3.776   3.441  0.0177 -0.6012 -0.4857
15925TIP3    H169266   5.981   3.833   3.511  1.5034 -2.2509  1.6923
15925TIP3    H269267   5.934   3.751   3.393 -0.7954  2.3338 -0.8503
15926TIP3   OH269268   7.246   6.917   3.103  0.2946 -0.0089 -0.2597
15926TIP3    H169269   7.283   6.998   3.067  0.7688 -0.0896  0.0433
15926TIP3    H269270   7.151   6.928   3.096  0.1941  1.9101  2.6584
15927TIP3   OH269271   4.961   3.755  12.058 -0.7675 -0.4326 -0.6024
15927TIP3    H169272   4.880   3.772  12.011  0.0786  0.9975 -1.6204
15927TIP3    H269273   5.029   3.794  12.003  0.2936  1.2957  1.7712
15928TIP3   OH269274   3.075   1.112  14.743  0.5978  0.3058 -0.2304
15928TIP3    H169275   3.041   1.153  14.664 -0.2384  1.1290  0.5294
15928TIP3    H269276   3.140   1.174  14.777 -0.1515  0.6976  0.5345
15929TIP3   OH269277   3.916   1.027   0.856 -0.4728  0.4315  0.0090
15929TIP3    H169278   3.844   0.997   0.801 -0.7121 -0.4603  0.7605
15929TIP3    H269279   3.995   0.990   0.815 -0.6104  0.0954  0.0410
15930TIP3   OH269280   5.614   1.571   2.854  0.1774 -0.1987  0.1994
15930TIP3    H169281   5.586   1.559   2.945  0.4020 -0.3193  0.2554
15930TIP3    H269282   5.590   1.489   2.811 -1.0022  0.3046 -0.1375
15931TIP3   OH269283   5.142   3.848   1.202 -0.4328 -0.2489  0.2180
15931TIP3    H169284   5.128   3.827   1.110  1.6703  0.6824 -0.3875
15931TIP3    H269285   5.195   3.776   1.235  0.9003  0.5730 -0.0158
15932TIP3   OH269286   1.418   5.604  15.097  0.0319  0.0023 -0.5104
15932TIP3    H169287   1.345   5.549  15.069 -0.6919  0.6536  0.0815
15932TIP3    H269288   1.409   5.610  15.192  1.4077 -0.6750 -0.3117
15933TIP3   OH269289   5.684   4.760   2.971  0.2810  0.1723 -0.0246
15933TIP3    H169290   5.768   4.765   3.016 -0.3966 -2.9336  1.9261
15933TIP3    H269291   5.620   4.747   3.042 -1.4444 -0.3640 -1.6050
15934TIP3   OH269292   4.676   2.614   3.944  0.0184  0.0088 -0.5331
15934TIP3    H169293   4.621   2.686   3.913  1.1400  2.7683  3.1429
15934TIP3    H269294   4.763   2.652   3.952  0.5806 -1.5258  1.9200
15935TIP3   OH269295   6.012   6.318  10.412 -0.8082  0.0097 -0.3201
15935TIP3    H169296   6.011   6.237  10.360 -0.6847 -1.1369  1.3781
15935TIP3    H269297   5.921   6.331  10.438 -0.7611  0.1881 -0.2452
15936TIP3   OH269298   4.899   3.517   1.537 -1.0360  0.2530 -0.1581
15936TIP3    H169299   4.909   3.535   1.443  0.4580 -0.1726 -0.1022
15936TIP3    H269300   4.852   3.434   1.541  1.4342 -1.2546 -0.6265
15937TIP3   OH269301   5.373   4.921   3.021 -0.3696  0.4068  0.1303
15937TIP3    H169302   5.407   4.849   3.073 -1.2609 -1.0820 -1.2531
15937TIP3    H269303   5.278   4.907   3.020 -0.4108  0.6197 -1.5286
15938TIP3   OH269304   6.422   5.768  12.307  0.0644 -0.2447  0.0392
15938TIP3    H169305   6.356   5.833  12.331  0.6313  0.8632 -1.2703
15938TIP3    H269306   6.396   5.689  12.355  0.5839  1.4612  3.4925
15939TIP3   OH269307   0.145   6.015   1.338  0.1741  0.0474 -0.0951
15939TIP3    H169308   0.138   6.110   1.348 -0.0875 -0.0808  1.0777
15939TIP3    H269309   0.097   5.996   1.257  0.6009  0.9519 -0.5770
15940TIP3   OH269310   2.884   5.880  10.745 -0.4008 -0.0910  0.2476
15940TIP3    H169311   2.841   5.957  10.782 -0.3392  1.0323 -1.8645
15940TIP3    H269312   2.887   5.897  10.651  1.2019 -1.8953 -0.0958
15941TIP3   OH269313   1.429   3.196   4.175 -1.0791  0.4786  0.5134
15941TIP3    H169314   1.415   3.107   4.145  0.3282  0.2965  0.3331
15941TIP3    H269315   1.506   3.226   4.126 -2.5952  2.4464 -0.8149
15942TIP3   OH269316   1.062   4.933  12.794  0.0693 -0.2782  0.1847
15942TIP3    H169317   1.133   4.872  12.812 -0.1611  0.2270  3.6018
15942TIP3    H269318   0.983   4.886  12.819 -0.4260  0.3862 -0.0915
15943TIP3   OH269319   6.724   0.545   3.800 -0.0503  0.0676 -0.0532
15943TIP3    H169320   6.795   0.490   3.834 -0.7952 -1.1438 -0.3903
15943TIP3    H269321   6.667   0.561   3.875 -0.6899 -1.0184 -0.2789
15944TIP3   OH269322   0.483   6.984   4.850  0.2240  0.5949  0.7655
15944TIP3    H169323   0.501   7.011   4.940  2.4356  0.2321  0.4732
15944TIP3    H269324   0.505   7.061   4.797 -0.1957  0.5002  0.4436
15945TIP3   OH269325   4.401   2.552  15.168  0.0096 -0.9962 -0.3163
15945TIP3    H169326   4.309   2.576  15.164  0.4939  1.0400 -0.4162
15945TIP3    H269327   4.407   2.492  15.242 -0.9234  1.4190  1.8638
15946TIP3   OH269328   0.228   0.423  13.756 -0.1239 -0.8213  0.4891
15946TIP3    H169329   0.277   0.399  13.677 -0.9560 -0.1784 -0.2450
15946TIP3    H269330   0.137   0.405  13.734 -0.5622  1.0009  0.6556
15947TIP3   OH269331   5.891   1.978   4.050  0.9636  1.0360 -0.0691
15947TIP3    H169332   5.803   1.985   4.014  0.5939 -0.6338  0.4092
15947TIP3    H269333   5.878   1.947   4.140  2.0128  1.6358  0.3061
15948TIP3   OH269334   5.783   1.058   2.370 -0.1397  0.4213  0.2277
15948TIP3    H169335   5.743   0.974   2.393 -0.5755  0.7446  0.6659
15948TIP3    H269336   5.845   1.036   2.300 -2.5353  0.1542 -1.9955
15949TIP3   OH269337   0.085   6.243  11.861  0.3159 -0.7410 -0.0232
15949TIP3    H169338   0.065   6.245  11.954 -0.8521  1.5861 -0.2711
15949TIP3    H269339   0.127   6.327  11.843  3.4662 -2.3638 -1.0719
15950TIP3   OH269340   2.192   6.859   2.964  0.4203  0.3111 -0.2879
15950TIP3    H169341   2.099   6.838   2.953  0.3261  0.0430  0.9406
15950TIP3    H269342   2.230   6.782   3.006  0.7330  1.2811  1.3081
15951TIP3   OH269343   3.599   7.109  14.742 -0.5556 -0.3584  0.1757
15951TIP3    H169344   3.647   7.027  14.757  0.2511 -0.4929 -2.5883
15951TIP3    H269345   3.579   7.108  14.649 -4.2805  0.6695  0.7949
15952TIP3   OH269346   0.892   1.372   4.331  0.3714  0.0426 -0.1326
15952TIP3    H169347   0.902   1.440   4.263  1.5225  1.0727  1.0157
15952TIP3    H269348   0.843   1.416   4.401  0.6958 -0.4682  0.4185
15953TIP3   OH269349   4.533   5.733   0.818 -0.4677  0.4281 -0.4193
15953TIP3    H169350   4.453   5.681   0.828 -0.0561 -0.1323  0.0569
15953TIP3    H269351   4.596   5.673   0.777  0.5983 -0.0896  1.8322
15954TIP3   OH269352   4.143   6.969   3.972 -0.1852  0.3168  0.2094
15954TIP3    H169353   4.050   6.954   3.991 -0.3063  0.8580  0.0862
15954TIP3    H269354   4.150   6.958   3.877  0.1662 -1.1323  0.3861
15955TIP3   OH269355   5.041   0.582  15.029 -0.1664 -0.1488  0.1934
15955TIP3    H169356   5.103   0.588  14.957  0.9986 -2.2680  0.9172
15955TIP3    H269357   5.074   0.643  15.095  1.4295 -1.4983  0.7106
15956TIP3   OH269358   2.273   1.017   2.177  0.2099  0.5346 -0.1216
15956TIP3    H169359   2.317   1.090   2.134  3.0794 -0.9827 -0.0294
15956TIP3    H269360   2.324   1.003   2.258 -1.3896 -0.4138  0.7666
15957TIP3   OH269361   1.787   5.660   0.511 -0.3733  0.4533 -0.1994
15957TIP3    H169362   1.725   5.624   0.448 -0.2333 -0.9669  0.4413
15957TIP3    H269363   1.850   5.590   0.527  1.5358  1.9146 -0.9418
15958TIP3   OH269364   2.878   6.500  10.679  0.1968 -0.1726  0.2005
15958TIP3    H169365   2.877   6.453  10.762 -0.1141 -0.8967 -0.2047
15958TIP3    H269366   2.786   6.506  10.653  0.4348 -2.4104 -1.4343
15959TIP3   OH269367   0.190   5.151   5.292 -0.5986 -0.3638 -0.1790
15959TIP3    H169368   0.275   5.114   5.315 -1.4608 -1.8139  0.8679
15959TIP3    H269369   0.177   5.127   5.201  0.1174 -0.0875 -0.3650
15960TIP3   OH269370   4.655   4.682   3.777 -0.0836 -0.1364  0.2758
15960TIP3    H169371   4.604   4.675   3.857 -1.3633  0.3851 -0.4622
15960TIP3    H269372   4.711   4.604   3.777  1.5146  0.8752  2.6928
15961TIP3   OH269373   7.135   6.389  11.039 -0.5204  0.2895 -0.3040
15961TIP3    H169374   7.124   6.321  10.973 -0.8677 -1.6083  1.6121
15961TIP3    H269375   7.061   6.448  11.024  0.2664  0.8203 -2.5445
15962TIP3   OH269376   6.025   4.982   5.564 -0.5523 -0.1505 -0.0736
15962TIP3    H169377   5.940   5.008   5.600 -0.7540 -0.5951 -0.2298
15962TIP3    H269378   6.020   5.002   5.471  0.2331  1.6891  0.2354
15963TIP3   OH269379   0.920   5.479   3.368  0.3527  0.0594 -0.4148
15963TIP3    H169380   0.865   5.422   3.315  1.1062  0.5056 -1.7209
15963TIP3    H269381   0.977   5.419   3.416 -1.0608 -0.3973  0.7780
15964TIP3   OH269382   0.257   3.880  13.565 -0.1324  0.6842  0.5671
15964TIP3    H169383   0.286   3.791  13.548  0.1593  0.4002  2.3682
15964TIP3    H269384   0.180   3.871  13.621 -0.2418  1.5553  0.5749
15965TIP3   OH269385   0.038   5.575  11.338  0.1272  0.3391 -0.1211
15965TIP3    H169386  -0.016   5.532  11.405 -1.5628 -0.1635 -1.7203
15965TIP3    H269387   0.108   5.513  11.320 -1.0569 -0.8379 -0.8374
15966TIP3   OH269388   2.037   2.383   3.232  0.2634  0.5216 -0.5551
15966TIP3    H169389   2.118   2.427   3.206  0.3067  0.7380 -0.0695
15966TIP3    H269390   1.985   2.380   3.151 -0.2816  2.6534 -0.3626
15967TIP3   OH269391   3.061   0.040  11.039 -0.6150  0.1648 -0.1893
15967TIP3    H169392   2.973   0.045  11.075  0.1096  1.3049  1.5718
15967TIP3    H269393   3.071   0.120  10.988 -1.0013 -0.5563 -1.4160
15968TIP3   OH269394   2.103   4.317   3.609 -0.2752 -0.0036  0.2469
15968TIP3    H169395   2.092   4.303   3.515  0.4954  2.2964 -0.2460
15968TIP3    H269396   2.020   4.357   3.637 -0.0063  0.5635  0.2487
15969TIP3   OH269397   5.250   6.223  13.912 -0.0778 -0.1848  0.0072
15969TIP3    H169398   5.275   6.257  13.999 -0.6600 -1.5991  0.7623
15969TIP3    H269399   5.284   6.134  13.911 -0.4706 -0.3275 -1.0561
15970TIP3   OH269400   5.191   4.263   2.649  0.5451 -0.4246 -0.0552
15970TIP3    H169401   5.110   4.295   2.610 -0.3415 -1.1551  1.1272
15970TIP3    H269402   5.260   4.291   2.589 -0.6726 -0.6876 -1.6198
15971TIP3   OH269403   0.148   2.237   5.910 -0.3278  0.1297 -0.1397
15971TIP3    H169404   0.071   2.204   5.865 -1.9966  0.1258  2.4979
15971TIP3    H269405   0.221   2.192   5.869 -1.9573 -1.8610 -1.0178
15972TIP3   OH269406   6.978   1.168  13.361 -0.1923  0.0289 -0.4364
15972TIP3    H169407   6.965   1.076  13.384 -0.6146  0.0297 -0.6651
15972TIP3    H269408   7.004   1.210  13.443 -0.9431 -0.1125 -0.1229
15973TIP3   OH269409   3.061   5.248   1.665  0.0155  0.4267  0.1410
15973TIP3    H169410   3.097   5.300   1.736  0.5068 -0.3530  0.4823
15973TIP3    H269411   3.069   5.157   1.695  0.9871  0.0299 -1.2371
15974TIP3   OH269412   5.288   0.749   2.379  0.4844  0.2749  0.3343
15974TIP3    H169413   5.333   0.681   2.329 -2.3656 -0.8369 -0.8765
15974TIP3    H269414   5.258   0.704   2.458 -0.5139  0.3607  0.0168
15975TIP3   OH269415   4.513   3.984  12.775  0.2466  0.3089  0.4129
15975TIP3    H169416   4.551   4.053  12.829 -2.2090  0.4346  2.1777
15975TIP3    H269417   4.506   4.022  12.688 -1.2947  2.4685  1.3994
15976TIP3   OH269418   4.622   4.481   2.117 -0.5610  0.1774 -0.2970
15976TIP3    H169419   4.716   4.484   2.134 -0.7178  0.7289  0.5192
15976TIP3    H269420   4.600   4.569   2.086 -1.0777  0.5565  1.0777
15977TIP3   OH269421   4.183   4.539   3.699  0.3969 -0.0173  0.2091
15977TIP3    H169422   4.127   4.616   3.704 -0.0270 -0.3465  0.6813
15977TIP3    H269423   4.140   4.475   3.756  0.2768 -0.8977 -0.8278
15978TIP3   OH269424   1.421   5.642   4.457  0.0305  0.1719 -0.3980
15978TIP3    H169425   1.454   5.680   4.375  1.2978 -0.9796 -0.4685
15978TIP3    H269426   1.464   5.557   4.462 -0.0251  0.2240  1.4791
15979TIP3   OH269427   6.687   2.125   1.832  0.1672  0.4133 -0.3863
15979TIP3    H169428   6.623   2.075   1.782  1.1555  0.0720 -1.3393
15979TIP3    H269429   6.695   2.208   1.785  1.3590 -0.0450 -1.0309
15980TIP3   OH269430   1.144   0.338   0.254  0.0688 -0.0747 -0.3417
15980TIP3    H169431   1.193   0.341   0.336  0.3251 -0.0341 -0.4957
15980TIP3    H269432   1.203   0.376   0.189 -0.1025 -0.1791 -0.5608
15981TIP3   OH269433   2.414   3.091   5.262 -0.3279  0.5685  0.6112
15981TIP3    H169434   2.358   3.065   5.335  0.3169 -2.9174  0.0597
15981TIP3    H269435   2.364   3.069   5.184  0.3040  1.0752  0.0449
15982TIP3   OH269436   3.307   1.419   2.888 -0.0460  0.5101  0.3788
15982TIP3    H169437   3.389   1.370   2.890  0.1518  0.7641 -0.8166
15982TIP3    H269438   3.333   1.511   2.890 -0.2711  0.5979 -0.2948
15983TIP3   OH269439   6.264   2.682   2.582 -0.4680  0.6718 -0.1202
15983TIP3    H169440   6.229   2.764   2.615  1.5510  2.0611 -1.2062
15983TIP3    H269441   6.271   2.695   2.487  1.1441 -0.1830 -0.1700
15984TIP3   OH269442   3.339   4.701  11.229 -0.6496  0.8773  0.3001
15984TIP3    H169443   3.255   4.656  11.239 -0.0424 -0.6840 -1.1946
15984TIP3    H269444   3.340   4.732  11.139  0.0227  1.6551  0.5617
15985TIP3   OH269445   5.844   3.684   5.336 -0.1365  0.9043 -0.0341
15985TIP3    H169446   5.792   3.741   5.393 -0.3184 -0.2344  0.9812
15985TIP3    H269447   5.900   3.744   5.287 -0.4976  1.9707  0.8161
15986TIP3   OH269448   5.850   4.310   4.087 -0.3501 -0.1620 -0.1173
15986TIP3    H169449   5.812   4.397   4.101  2.2180  1.4081 -2.0064
15986TIP3    H269450   5.918   4.302   4.154  0.0635 -0.2689 -0.5430
15987TIP3   OH269451   4.685   0.934  13.662  0.1088 -0.1449 -0.2867
15987TIP3    H169452   4.632   0.936  13.742 -2.1278  0.5316 -1.6779
15987TIP3    H269453   4.652   0.859  13.613 -0.1816  0.7696 -1.5533
15988TIP3   OH269454   5.770   2.612  12.880 -0.0921 -0.3419  0.5314
15988TIP3    H169455   5.746   2.529  12.921 -1.7348  0.0630  0.4495
15988TIP3    H269456   5.855   2.634  12.919 -0.6168 -1.0167  2.1401
15989TIP3   OH269457   3.768   6.286  10.197  0.0897 -0.1666  0.5116
15989TIP3    H169458   3.725   6.370  10.178 -0.1305  0.0332  1.7855
15989TIP3    H269459   3.784   6.289  10.292 -0.2379 -1.7038  0.6321
15990TIP3   OH269460   6.416   2.427  11.476 -0.0860 -0.2484 -0.1387
15990TIP3    H169461   6.370   2.422  11.560  0.9411  1.0015  0.5235
15990TIP3    H269462   6.403   2.340  11.437  0.5134 -1.3075  1.8955
15991TIP3   OH269463   6.473   0.674   1.611 -0.8138  0.2009  0.2271
15991TIP3    H169464   6.493   0.633   1.695 -1.0309  1.4158  0.8852
15991TIP3    H269465   6.435   0.759   1.634 -0.1906  0.8593 -1.1085
15992TIP3   OH269466   5.030   6.278   2.595 -0.4921 -0.2136 -0.3922
15992TIP3    H169467   4.995   6.367   2.588 -0.4601 -0.2736 -1.4638
15992TIP3    H269468   4.953   6.221   2.587 -0.6154 -0.2950  1.0272
15993TIP3   OH269469   6.064   3.438   3.981  0.3673  0.1065 -0.2721
15993TIP3    H169470   5.986   3.456   4.032  0.8684  1.6573 -0.0038
15993TIP3    H269471   6.047   3.353   3.940 -0.1992 -1.0194  2.1342
15994TIP3   OH269472   0.359   6.446   2.731 -0.2360 -0.6274  0.0755
15994TIP3    H169473   0.370   6.530   2.776 -0.6732 -0.2080 -0.5898
15994TIP3    H269474   0.438   6.396   2.754 -0.4530 -0.4366  1.3088
15995TIP3   OH269475   2.392   6.027  13.721  0.0964 -0.6085 -0.1935
15995TIP3    H169476   2.322   6.082  13.687 -0.6774 -1.5885 -0.2407
15995TIP3    H269477   2.458   6.089  13.752 -2.9685  0.7754  4.9347
15996TIP3   OH269478   0.373   1.353  13.907  0.3046 -0.0311 -0.6509
15996TIP3    H169479   0.387   1.335  13.815  0.2592 -2.6597 -0.2173
15996TIP3    H269480   0.323   1.277  13.939  0.5004  0.7020  1.5646
15997TIP3   OH269481   0.429   0.835   9.095  0.1542 -0.1069 -0.3737
15997TIP3    H169482   0.521   0.823   9.072  0.0170  0.6824 -1.4304
15997TIP3    H269483   0.402   0.751   9.131  1.9398  0.4047  2.4438
15998TIP3   OH269484   3.937   7.088  14.586 -0.5707 -0.3728 -0.3556
15998TIP3    H169485   4.004   7.124  14.529 -0.4525 -0.7167 -0.4330
15998TIP3    H269486   3.870   7.157  14.590 -0.6233 -0.3825 -0.9789
15999TIP3   OH269487   0.240   6.568  14.902 -0.1229 -0.4569  0.1471
15999TIP3    H169488   0.194   6.502  14.851 -0.5549  0.3308 -0.5076
15999TIP3    H269489   0.320   6.586  14.852 -0.5442  0.3118 -0.2819
16000TIP3   OH269490   6.640   0.211   1.851 -0.0447  0.0305 -0.4003
16000TIP3    H169491   6.547   0.234   1.861 -0.2829 -0.6278 -0.9707
16000TIP3    H269492   6.640   0.145   1.781  0.7223 -0.8665  0.4320
16001TIP3   OH269493   1.238   0.268   2.401  0.7824 -0.0595  0.6642
16001TIP3    H169494   1.240   0.363   2.387 -0.1891 -0.1905 -0.5681
16001TIP3    H269495   1.173   0.236   2.339 -0.3826 -1.3203  2.4224
16002TIP3   OH269496   4.401   1.186   1.042 -0.3109 -0.3588 -0.1442
16002TIP3    H169497   4.345   1.232   1.105  1.0010 -0.2380  0.9782
16002TIP3    H269498   4.433   1.110   1.090  0.1949 -0.6305 -0.8976
16003TIP3   OH269499   6.042   2.188   3.926 -0.3461 -0.3865 -0.3552
16003TIP3    H169500   6.094   2.166   3.849 -1.0850  0.9048 -1.2663
16003TIP3    H269501   5.979   2.117   3.934  0.9002 -1.4820  0.1979
16004TIP3   OH269502   1.461   1.347   5.815  0.1384 -0.2130 -0.0080
16004TIP3    H169503   1.450   1.400   5.894  0.3338 -2.9752  2.0274
16004TIP3    H269504   1.547   1.307   5.825 -0.7168 -2.3143 -0.4645
16005TIP3   OH269505   2.310   4.703   3.108 -0.0231  0.2715 -0.0773
16005TIP3    H169506   2.356   4.699   3.024  2.1828  0.1939  1.0740
16005TIP3    H269507   2.290   4.796   3.119 -2.5056  0.0347 -1.7215
16006TIP3   OH269508   1.391   1.229   0.134 -0.2763 -0.0590 -0.1816
16006TIP3    H169509   1.301   1.218   0.163 -0.2705 -0.0141 -0.1473
16006TIP3    H269510   1.444   1.206   0.211 -0.2777  1.1904  0.2093
16007TIP3   OH269511   1.506   2.101   0.437  0.1836 -0.1875  0.9215
16007TIP3    H169512   1.451   2.086   0.359  0.8020  0.8974  0.2454
16007TIP3    H269513   1.444   2.101   0.510 -0.4282 -1.1113  0.4381
16008TIP3   OH269514   0.758   6.826   2.931 -0.1338  0.1896  0.5667
16008TIP3    H169515   0.795   6.842   2.844 -1.1704  0.4386  0.1666
16008TIP3    H269516   0.767   6.731   2.943 -3.0122 -0.4209 -1.2577
16009TIP3   OH269517   3.707   4.742   3.477  0.8402 -0.3890  0.1755
16009TIP3    H169518   3.760   4.665   3.456  2.3313  0.8181 -0.7209
16009TIP3    H269519   3.713   4.797   3.399 -0.5679  0.4470  0.6226
16010TIP3   OH269520   0.027   0.721   4.712 -0.0735 -0.1221  0.0832
16010TIP3    H169521   0.062   0.802   4.748 -0.7592  0.8915 -1.4311
16010TIP3    H269522  -0.020   0.748   4.634  1.0523 -2.1591 -1.4066
16011TIP3   OH269523   2.434   7.229   3.275  0.0252  0.0092 -0.3029
16011TIP3    H169524   2.491   7.305   3.268  0.9563 -0.5941  0.4765
16011TIP3    H269525   2.347   7.265   3.293  0.3364  0.9063 -0.5706
16012TIP3   OH269526   3.735   3.757  14.023 -0.2170 -0.4382 -0.0291
16012TIP3    H169527   3.786   3.835  14.004 -0.1400 -0.9518 -2.1097
16012TIP3    H269528   3.788   3.710  14.088 -0.8481  1.7348  2.2300
16013TIP3   OH269529   2.778   5.279   5.393 -0.2600 -0.2999  0.1451
16013TIP3    H169530   2.709   5.290   5.459 -0.6331 -1.1411 -0.0956
16013TIP3    H269531   2.779   5.185   5.374  0.2462 -0.1518 -0.6175
16014TIP3   OH269532   3.972   1.467   2.501  0.4666  0.4952  0.0503
16014TIP3    H169533   4.060   1.468   2.539 -0.2077  1.0965  1.6707
16014TIP3    H269534   3.921   1.412   2.560 -0.4830  0.9341 -0.3405
16015TIP3   OH269535   5.175   0.754  14.689  0.1175  0.8408 -0.2628
16015TIP3    H169536   5.207   0.739  14.778 -2.5889  0.4480  0.7443
16015TIP3    H269537   5.143   0.668  14.661 -2.0284  1.5882 -0.2813
16016TIP3   OH269538   3.140   1.609  14.875  0.0396  0.5291 -0.2047
16016TIP3    H169539   3.216   1.567  14.916 -1.6858 -1.8625  0.8063
16016TIP3    H269540   3.159   1.609  14.782  0.4169 -2.0713 -0.1880
16017TIP3   OH269541   5.712   2.118   2.872 -0.5101 -0.1330 -0.0644
16017TIP3    H169542   5.744   2.039   2.915  0.5322  0.3165  0.0309
16017TIP3    H269543   5.697   2.180   2.943  0.1613  0.2469 -0.2365
16018TIP3   OH269544   1.909   2.950   0.869  0.2671  0.0073 -0.0164
16018TIP3    H169545   1.848   3.024   0.863 -1.6135 -1.3092  1.6795
16018TIP3    H269546   1.920   2.935   0.963  0.2929 -2.0660 -0.2996
16019TIP3   OH269547   6.118   5.549  13.266 -0.3575 -0.1880  0.0869
16019TIP3    H169548   6.195   5.586  13.224 -0.4337 -0.6080 -0.4342
16019TIP3    H269549   6.117   5.458  13.238 -1.8496  0.1638 -1.1060
16020TIP3   OH269550   3.117   6.155  13.228 -0.5190 -0.8150  0.4168
16020TIP3    H169551   3.120   6.251  13.237  0.2843 -0.6585 -1.1376
16020TIP3    H269552   3.193   6.124  13.277 -1.0455 -0.7138  1.3219
16021TIP3   OH269553   6.818   5.746   3.812 -0.1601 -0.2673  0.0615
16021TIP3    H169554   6.820   5.812   3.743 -0.6991 -0.9548 -0.6298
16021TIP3    H269555   6.907   5.711   3.815  0.4850  1.3376  1.3067
16022TIP3   OH269556   1.625   3.006   4.572 -0.4146 -0.6787  0.2943
16022TIP3    H169557   1.592   2.926   4.614 -0.8384 -0.9170 -0.4716
16022TIP3    H269558   1.549   3.042   4.526 -0.6315  1.0269  1.8978
16023TIP3   OH269559   5.061   1.777   1.407 -0.0042 -0.1129  0.1759
16023TIP3    H169560   5.023   1.712   1.467 -0.9107 -0.0350 -0.2834
16023TIP3    H269561   5.097   1.845   1.464 -0.6808 -0.1326  0.6371
16024TIP3   OH269562   4.366   5.255  14.809 -0.1761  0.2632 -0.2073
16024TIP3    H169563   4.457   5.225  14.806 -0.4630 -0.7354  0.3535
16024TIP3    H269564   4.351   5.296  14.724  0.7386  0.2680 -0.3754
16025TIP3   OH269565   6.257   0.471   2.471  0.0170  0.0874 -1.0841
16025TIP3    H169566   6.290   0.517   2.548  0.3087  1.7922 -2.1614
16025TIP3    H269567   6.313   0.394   2.463 -0.1019 -0.1776  0.4546
16026TIP3   OH269568   3.303   3.495  14.048  0.4709 -0.6408 -0.1263
16026TIP3    H169569   3.238   3.450  14.102 -1.4069  0.9354 -0.9531
16026TIP3    H269570   3.321   3.576  14.094  1.1330 -0.6219 -0.4026
16027TIP3   OH269571   5.260   6.377  12.504  0.0220  0.2249  0.7482
16027TIP3    H169572   5.247   6.361  12.598  0.2213  1.1184  0.9316
16027TIP3    H269573   5.354   6.394  12.495  0.1297 -0.5594  0.2693
16028TIP3   OH269574   6.931   1.370   0.177 -0.1186 -0.2392  0.3925
16028TIP3    H169575   6.886   1.446   0.142 -0.8715 -2.1441 -3.3273
16028TIP3    H269576   6.862   1.305   0.192  0.8345 -1.5244 -0.5261
16029TIP3   OH269577   5.067   3.544  12.975 -0.1936 -0.2554  0.0226
16029TIP3    H169578   5.023   3.629  12.968  1.5254  0.9247  2.0009
16029TIP3    H269579   4.997   3.479  12.971 -2.0830  1.4500  2.2682
16030TIP3   OH269580   5.880   2.041   9.988 -0.0084 -0.0680  0.2980
16030TIP3    H169581   5.974   2.030  10.001  0.2531  0.1648 -1.2728
16030TIP3    H269582   5.862   2.130  10.020  0.6187  0.5129 -0.9142
16031TIP3   OH269583   1.345   2.211   2.246 -0.5579  0.5411  0.1805
16031TIP3    H169584   1.366   2.147   2.179 -2.0919  0.2892 -0.1023
16031TIP3    H269585   1.323   2.291   2.197 -0.0535  0.8606  0.4644
16032TIP3   OH269586   6.866   5.712  13.455  0.2345 -0.0351  0.1720
16032TIP3    H169587   6.924   5.742  13.385 -0.7066 -0.5720 -0.8792
16032TIP3    H269588   6.917   5.648  13.504  0.0896 -1.6154 -1.6399
16033TIP3   OH269589   1.706   4.803  12.562  0.3036  0.3175  0.1528
16033TIP3    H169590   1.743   4.805  12.474  2.5706 -0.8178  1.0055
16033TIP3    H269591   1.649   4.727  12.562  0.8502 -0.0957 -0.1278
16034TIP3   OH269592   3.683   1.714   3.712 -0.7774 -0.2408  0.2442
16034TIP3    H169593   3.606   1.670   3.677 -0.6355 -0.3501  0.0726
16034TIP3    H269594   3.754   1.651   3.702 -0.5954 -0.0118  0.0877
16035TIP3   OH269595   2.439   5.362   2.924 -0.3522 -0.0031 -0.8974
16035TIP3    H169596   2.513   5.335   2.870 -1.1309 -1.0778 -1.4611
16035TIP3    H269597   2.435   5.296   2.994 -1.3609 -0.5266 -1.4310
16036TIP3   OH269598   2.392   5.047  13.747  0.8830 -0.2720  0.1299
16036TIP3    H169599   2.456   5.036  13.677 -1.2746  0.8698 -2.1990
16036TIP3    H269600   2.316   4.997  13.718 -0.4498  1.0841  1.1108
16037TIP3   OH269601   2.107   6.997   4.731  0.1489 -0.2756 -0.0289
16037TIP3    H169602   2.032   7.050   4.759 -0.3658 -1.2222  0.4110
16037TIP3    H269603   2.109   7.008   4.635 -1.4658 -1.3894 -0.2315
16038TIP3   OH269604   2.190   7.220   5.402  0.1453 -0.5763  0.4393
16038TIP3    H169605   2.173   7.203   5.494  1.6655  1.8046  1.2466
16038TIP3    H269606   2.115   7.273   5.373 -0.3865 -1.4143  0.2296
16039TIP3   OH269607   4.254   4.531   0.214 -0.3312  0.1632 -0.6629
16039TIP3    H169608   4.222   4.462   0.156  1.6702 -0.1247 -1.5394
16039TIP3    H269609   4.235   4.499   0.302  0.3080 -1.4121 -1.0577
16040TIP3   OH269610   3.327   5.400   3.047  0.5085 -0.0925 -0.4483
16040TIP3    H169611   3.358   5.349   3.121 -0.0579  0.3252  0.0911
16040TIP3    H269612   3.394   5.388   2.979  0.9351 -0.6321  0.0585
16041TIP3   OH269613   4.116   3.914   1.112  0.1770  0.0667 -0.4565
16041TIP3    H169614   4.024   3.903   1.135  0.0756 -0.0971 -0.9194
16041TIP3    H269615   4.164   3.881   1.187 -0.1429 -0.4463 -0.4752
16042TIP3   OH269616   4.480   3.728   3.699 -0.0723  0.2487 -0.5296
16042TIP3    H169617   4.525   3.758   3.778 -1.2185  1.4267 -0.3023
16042TIP3    H269618   4.490   3.799   3.637 -1.5474  0.5293 -0.4892
16043TIP3   OH269619   2.653   0.464   4.367 -0.3672 -0.7403  0.0331
16043TIP3    H169620   2.700   0.386   4.338  1.6438  0.6985 -0.8743
16043TIP3    H269621   2.657   0.461   4.463  1.6299 -0.7155 -0.0064
16044TIP3   OH269622   2.947   2.753  13.725  0.2152 -0.2049  0.5974
16044TIP3    H169623   2.884   2.745  13.796 -0.0906  0.8660  0.4705
16044TIP3    H269624   3.027   2.785  13.767 -0.0687  0.7626  0.4358
16045TIP3   OH269625   6.521   5.527   0.288 -0.2956 -0.7346 -0.4864
16045TIP3    H169626   6.592   5.583   0.255 -1.4602  0.4642 -1.0562
16045TIP3    H269627   6.562   5.473   0.355  1.1868 -0.1800 -0.9034
16046TIP3   OH269628   5.581   4.239   1.756 -0.0526 -0.6166  0.0610
16046TIP3    H169629   5.517   4.286   1.809 -0.5052 -1.0803 -0.0680
16046TIP3    H269630   5.664   4.282   1.776 -0.0626 -1.3465  1.8466
16047TIP3   OH269631   1.092   2.023   0.614 -0.1942  0.6017 -0.2257
16047TIP3    H169632   1.024   1.971   0.657  0.2323  1.1659  1.1703
16047TIP3    H269633   1.174   1.980   0.638  0.0133  0.4769 -1.1275
16048TIP3   OH269634   4.345   3.019  13.943 -0.4063 -0.2638 -0.1811
16048TIP3    H169635   4.373   3.110  13.953 -1.9838  0.0806  1.7494
16048TIP3    H269636   4.419   2.976  13.901  1.0899  1.5396  0.4464
16049TIP3   OH269637   7.219   3.555   3.212  0.1466  0.0482 -0.2567
16049TIP3    H169638   7.160   3.544   3.137 -0.4987  0.3551  0.2004
16049TIP3    H269639   7.268   3.472   3.216 -1.2753 -0.7968  0.2285
16050TIP3   OH269640   7.230   6.629   6.041 -0.3362  0.0459  0.6333
16050TIP3    H169641   7.303   6.612   5.981 -0.8281  0.2780 -0.0457
16050TIP3    H269642   7.189   6.708   6.007 -0.7288  0.0835  1.1848
16051TIP3   OH269643   2.551   1.762  10.846 -0.2572  0.1637  0.6757
16051TIP3    H169644   2.487   1.832  10.832 -0.9066 -0.6361 -0.5736
16051TIP3    H269645   2.606   1.793  10.918 -0.1182  2.2266 -0.2657
16052TIP3   OH269646   4.514   1.502   3.154 -0.0537  0.3756 -0.3573
16052TIP3    H169647   4.542   1.411   3.145  1.4805  0.9727 -2.0787
16052TIP3    H269648   4.567   1.537   3.225 -1.7859 -0.4382  1.4313
16053TIP3   OH269649   3.039   5.887   4.405  0.2865 -0.6041 -0.2103
16053TIP3    H169650   3.131   5.887   4.429  0.9009 -1.6521 -2.3221
16053TIP3    H269651   3.015   5.794   4.400 -0.5215 -0.3752 -0.8894
16054TIP3   OH269652   2.377   0.968   2.432 -0.3415  0.5984  0.4176
16054TIP3    H169653   2.403   1.045   2.482  1.2610  0.2120  0.2390
16054TIP3    H269654   2.319   0.919   2.490 -1.2601  1.8445  0.5822
16055TIP3   OH269655   4.366   0.866   4.495  0.5447  0.0223  0.1716
16055TIP3    H169656   4.333   0.900   4.412  1.2189 -0.5955 -0.3553
16055TIP3    H269657   4.313   0.911   4.561  0.9639  1.6116 -0.5188
16056TIP3   OH269658   3.504   3.525   5.945  0.3184  0.5150  0.2010
16056TIP3    H169659   3.491   3.440   5.988 -0.2494  0.9225  0.8522
16056TIP3    H269660   3.418   3.548   5.910  0.2407  1.2391  0.8267
16057TIP3   OH269661   5.253   1.532  10.243 -0.5016 -0.5477 -0.0330
16057TIP3    H169662   5.308   1.600  10.282 -1.6108 -0.2826  1.1570
16057TIP3    H269663   5.212   1.574  10.167  0.7863 -0.7050 -0.8404
16058TIP3   OH269664   4.653   4.733   5.635 -0.4369 -0.0935  0.5069
16058TIP3    H169665   4.694   4.814   5.664  0.2018 -1.5748  4.3433
16058TIP3    H269666   4.724   4.669   5.635 -0.4644 -0.5184 -4.3450
16059TIP3   OH269667   1.662   1.879   4.696 -0.3724 -0.1110  0.2701
16059TIP3    H169668   1.609   1.955   4.720 -0.6608  0.0232 -0.7468
16059TIP3    H269669   1.598   1.811   4.675 -0.2015  0.2276 -1.5418
16060TIP3   OH269670   5.431   0.598   4.735  0.6052 -0.2145 -0.0607
16060TIP3    H169671   5.367   0.533   4.765  0.0211 -0.5149 -1.8390
16060TIP3    H269672   5.511   0.548   4.720  0.2967 -0.4549 -0.9598
16061TIP3   OH269673   2.102   1.028   5.257  0.6067  0.3070 -0.4273
16061TIP3    H169674   2.038   1.030   5.328  1.8201  2.4209  0.6979
16061TIP3    H269675   2.059   1.073   5.184 -0.0574 -0.4939 -0.5532
16062TIP3   OH269676   6.394   2.729   1.932  0.1809 -0.1405 -0.0410
16062TIP3    H169677   6.431   2.754   1.847  2.1753 -0.3661  0.6984
16062TIP3    H269678   6.441   2.783   1.995 -1.3617  0.1068  0.9272
16063TIP3   OH269679   7.212   3.147   2.302 -0.2404 -0.3334  0.0078
16063TIP3    H169680   7.174   3.080   2.246  0.9229 -0.3222 -0.8130
16063TIP3    H269681   7.138   3.178   2.355 -0.6066 -3.0892  1.2985
16064TIP3   OH269682   4.596   0.193   5.687  0.4004  0.0780  0.4408
16064TIP3    H169683   4.644   0.124   5.640  0.2890 -0.0243  0.4771
16064TIP3    H269684   4.534   0.226   5.623  0.9229  0.6221  0.2053
16065TIP3   OH269685   5.702   6.696  14.250 -0.1209 -0.0108  0.1388
16065TIP3    H169686   5.792   6.666  14.263 -0.2612 -0.9835 -1.0129
16065TIP3    H269687   5.711   6.788  14.224  0.5265 -0.0706  0.1352
16066TIP3   OH269688   4.348   2.369  11.727 -0.0228 -0.3191 -0.0937
16066TIP3    H169689   4.336   2.361  11.822  0.5582  0.1370  0.0267
16066TIP3    H269690   4.433   2.328  11.710 -0.6896 -1.5592 -0.6157
16067TIP3   OH269691   0.954   0.700   3.419 -0.1206 -0.0378  0.2350
16067TIP3    H169692   0.892   0.771   3.437 -0.5549  0.0988 -1.5461
16067TIP3    H269693   1.027   0.743   3.373  1.0917 -0.2815  1.8450
16068TIP3   OH269694   4.494   5.411   4.242 -0.1384  0.0217  0.0123
16068TIP3    H169695   4.492   5.342   4.175 -0.9480  1.3366 -1.3715
16068TIP3    H269696   4.403   5.426   4.264  0.1027 -0.1301  1.1684
16069TIP3   OH269697   3.925   0.196   3.066 -0.5012  0.0090 -0.4805
16069TIP3    H169698   3.991   0.183   3.134 -0.8931 -0.1153 -0.1210
16069TIP3    H269699   3.862   0.125   3.079 -1.3408  0.7923 -0.0533
16070TIP3   OH269700   0.457   6.003   4.198 -1.1849 -0.0492  0.1898
16070TIP3    H169701   0.379   5.961   4.232 -0.7212 -1.8308 -0.8402
16070TIP3    H269702   0.435   6.027   4.108 -0.3799 -1.1256 -0.3177
16071TIP3   OH269703   4.953   0.007   0.087  0.4747 -0.2430 -0.3693
16071TIP3    H169704   4.928   0.100   0.088 -1.5010 -0.6893 -1.8998
16071TIP3    H269705   4.923  -0.025   0.002  3.6092 -1.7071 -1.0692
16072TIP3   OH269706   5.523   5.133   3.112 -0.4817 -0.0695  0.0915
16072TIP3    H169707   5.463   5.059   3.107 -2.1144  0.9896  2.4796
16072TIP3    H269708   5.513   5.178   3.028 -2.4371 -0.3850  0.1084
16073TIP3   OH269709   5.089   1.628  10.041  0.4343  0.0189  0.0921
16073TIP3    H169710   5.028   1.579  10.097  0.1737 -1.0290 -1.0669
16073TIP3    H269711   5.045   1.632   9.956  0.1323  2.8846  0.2881
16074TIP3   OH269712   5.248   0.639   5.364  0.1978 -0.0539 -0.3415
16074TIP3    H169713   5.269   0.631   5.457 -0.3774  1.5980 -0.0276
16074TIP3    H269714   5.162   0.597   5.355 -0.2483  0.7348  0.1139
16075TIP3   OH269715   1.333   1.664   3.257  0.1535  0.2578 -0.0928
16075TIP3    H169716   1.419   1.691   3.224 -1.3171  2.6031 -2.4618
16075TIP3    H269717   1.327   1.571   3.235  1.3384  0.5336 -1.7821
16076TIP3   OH269718   1.989   1.943   3.793  0.3507  0.1365 -0.0685
16076TIP3    H169719   2.010   1.867   3.739 -0.7733 -0.9740  0.9916
16076TIP3    H269720   2.070   1.959   3.843  1.2741  0.9479 -1.7440
16077TIP3   OH269721   3.731   0.575  14.492  0.1034  0.3655 -0.0382
16077TIP3    H169722   3.685   0.649  14.531  2.0750  1.2718  0.7347
16077TIP3    H269723   3.821   0.583  14.526  0.5919 -1.8575 -0.6682
16078TIP3   OH269724   2.302   6.719   0.372  0.0146  0.0807  0.0124
16078TIP3    H169725   2.266   6.806   0.388  1.1126  0.7981 -1.1757
16078TIP3    H269726   2.263   6.691   0.290  0.0180 -0.3547  0.1572
16079TIP3   OH269727   5.557   0.350   3.122 -0.5053 -0.0264  0.4158
16079TIP3    H169728   5.521   0.279   3.069  2.2376 -1.1044 -0.1789
16079TIP3    H269729   5.546   0.320   3.213 -0.3786 -0.7362  0.2074
16080TIP3   OH269730   4.166   0.394   2.218  0.1287 -0.4223 -0.0741
16080TIP3    H169731   4.257   0.401   2.191  0.1337  0.8413  0.1757
16080TIP3    H269732   4.167   0.413   2.312 -0.5429  1.1728 -0.3540
16081TIP3   OH269733   5.193   5.403   5.814  0.0890 -1.1974  0.0657
16081TIP3    H169734   5.287   5.407   5.828 -0.0645 -0.1558  0.9601
16081TIP3    H269735   5.158   5.368   5.895 -0.4326  0.2696  0.5055
16082TIP3   OH269736   0.403   5.874   0.665 -0.5213  0.3798 -0.9700
16082TIP3    H169737   0.351   5.799   0.692  1.6542 -1.4301 -1.5604
16082TIP3    H269738   0.491   5.857   0.698  0.3505  2.0143 -2.2524
16083TIP3   OH269739   6.688   6.622  11.810 -0.0384 -0.4290  0.2414
16083TIP3    H169740   6.621   6.686  11.787  0.4856 -0.1318 -0.5111
16083TIP3    H269741   6.723   6.592  11.726  0.7384 -0.6017  0.6172
16084TIP3   OH269742   2.344   4.193   3.628 -0.2850 -0.5689  0.4127
16084TIP3    H169743   2.260   4.239   3.626 -0.9209 -1.7000 -0.1593
16084TIP3    H269744   2.328   4.113   3.579  0.7892 -1.4017  1.3795
16085TIP3   OH269745   2.026   6.623  11.322  0.3904  0.2090  0.1158
16085TIP3    H169746   2.055   6.697  11.375 -0.4452  0.7528 -0.1647
16085TIP3    H269747   2.062   6.546  11.366  1.2483  0.7760  0.4229
16086TIP3   OH269748   1.686   3.510   3.502  0.5695 -0.7176  0.8048
16086TIP3    H169749   1.770   3.482   3.539  1.8199 -0.0583 -1.3782
16086TIP3    H269750   1.620   3.461   3.551  2.3120 -2.4257  1.5326
16087TIP3   OH269751   2.973   1.298   2.180  0.1277 -0.4885  0.1971
16087TIP3    H169752   2.966   1.357   2.255 -0.3667 -0.2638 -0.0161
16087TIP3    H269753   3.065   1.273   2.177  0.4470  0.6594  0.0035
16088TIP3   OH269754   5.725   5.216   4.669  0.0568 -0.5729  0.4326
16088TIP3    H169755   5.675   5.297   4.663 -0.1822 -0.7125  0.5278
16088TIP3    H269756   5.684   5.168   4.741 -0.2247 -1.0743 -0.0571
16089TIP3   OH269757   0.143   6.349   2.587 -0.4796  0.1918 -0.5540
16089TIP3    H169758   0.136   6.261   2.622 -0.9086  0.6601  0.5599
16089TIP3    H269759   0.205   6.394   2.645 -1.2580  0.9956 -0.3200
16090TIP3   OH269760   7.234   4.855   5.324  0.4540 -0.2937 -0.0057
16090TIP3    H169761   7.154   4.847   5.376 -0.9113  1.4928 -1.6894
16090TIP3    H269762   7.299   4.890   5.385 -0.8946  1.0833  0.7018
16091TIP3   OH269763   5.019   6.551   3.584  0.0832  0.2018  0.7787
16091TIP3    H169764   4.982   6.463   3.581  0.0690  0.2405 -1.1163
16091TIP3    H269765   5.106   6.539   3.620 -0.3437 -0.4050  1.6561
16092TIP3   OH269766   6.900   2.936   4.637  0.5345  0.2874 -0.1054
16092TIP3    H169767   6.912   2.978   4.552 -1.3080 -0.3210 -0.6999
16092TIP3    H269768   6.916   2.844   4.621 -0.0330  0.1382  0.1501
16093TIP3   OH269769   2.232   5.318   0.910 -0.2863 -0.3566  0.8330
16093TIP3    H169770   2.172   5.359   0.847 -0.4947 -1.2731  0.4191
16093TIP3    H269771   2.234   5.379   0.984 -2.0471 -0.4916  1.0403
16094TIP3   OH269772   0.976   1.885  15.068 -0.3997 -0.3873 -0.2553
16094TIP3    H169773   0.909   1.921  15.126 -0.8165  0.1573 -1.0654
16094TIP3    H269774   1.022   1.820  15.122  0.4847  1.4254  1.2975
16095TIP3   OH269775   4.091   4.272   4.829  0.0844  0.4072 -0.6931
16095TIP3    H169776   4.090   4.248   4.736 -1.1406  0.7280 -0.7885
16095TIP3    H269777   4.019   4.221   4.867 -0.0504  1.0133 -0.1184
16096TIP3   OH269778   5.875   4.870  13.001 -0.3155  0.1730  0.0222
16096TIP3    H169779   5.844   4.780  13.010  0.4746 -0.4769 -2.7228
16096TIP3    H269780   5.970   4.863  13.008 -0.2852  0.9435  0.5437
16097TIP3   OH269781   4.526   1.654  14.298 -0.2612 -0.2585 -0.2840
16097TIP3    H169782   4.489   1.654  14.209 -0.7687 -0.7686 -0.0757
16097TIP3    H269783   4.449   1.656  14.355  0.0588 -0.3875  0.1494
16098TIP3   OH269784   2.522   6.083   4.919 -0.2108  0.3125 -0.3533
16098TIP3    H169785   2.560   6.029   4.849  1.1016  1.2899 -0.4430
16098TIP3    H269786   2.588   6.082   4.989 -1.6389 -0.9054  1.0379
16099TIP3   OH269787   4.342   4.894  14.575 -0.3232  0.5193  0.2737
16099TIP3    H169788   4.278   4.826  14.596 -0.7557  1.0647  0.7680
16099TIP3    H269789   4.383   4.865  14.493 -0.1049 -0.6006  0.7690
16100TIP3   OH269790   2.907   0.136   1.207 -0.3952  0.6018 -0.2040
16100TIP3    H169791   2.931   0.108   1.118  0.9212 -1.0923  0.6228
16100TIP3    H269792   2.986   0.177   1.241 -0.4768  0.0875  0.6164
16101TIP3   OH269793   3.222   1.309   2.633  0.6622 -0.3276  0.0444
16101TIP3    H169794   3.310   1.280   2.611  1.4262  2.1471 -0.4594
16101TIP3    H269795   3.234   1.379   2.697 -0.7388  1.4718 -1.5235
16102TIP3   OH269796   3.356   1.709   2.634  0.0865  0.4955 -0.5065
16102TIP3    H169797   3.353   1.801   2.607 -0.3033  0.8395  0.6453
16102TIP3    H269798   3.305   1.706   2.715 -0.8727 -0.9482 -1.1172
16103TIP3   OH269799   5.403   2.227   4.257 -0.4428  0.4469 -0.2145
16103TIP3    H169800   5.412   2.139   4.294 -2.2163  0.8231  1.2612
16103TIP3    H269801   5.355   2.276   4.324  0.2419  2.4692 -1.1300
16104TIP3   OH269802   3.312   0.098   2.073 -0.3481  0.1029  0.4411
16104TIP3    H169803   3.345   0.009   2.064 -2.3441 -0.9935  2.7982
16104TIP3    H269804   3.330   0.121   2.165  1.5928  2.8347 -0.5055
16105TIP3   OH269805   0.861   1.628   1.897  0.0922  0.7681  0.0705
16105TIP3    H169806   0.919   1.554   1.882  0.9873  1.3798  0.4345
16105TIP3    H269807   0.787   1.613   1.838  0.2169 -0.4467  0.1939
16106TIP3   OH269808   2.529   3.077   5.899 -0.2801  0.3517 -0.2243
16106TIP3    H169809   2.494   3.019   5.966 -0.2757 -1.1481 -1.4513
16106TIP3    H269810   2.492   3.044   5.817  1.0036  1.0901 -1.1413
16107TIP3   OH269811   0.692   0.403  14.527 -0.0474  0.3121  0.6250
16107TIP3    H169812   0.712   0.496  14.522 -1.0712  0.4868 -2.4086
16107TIP3    H269813   0.658   0.381  14.441 -0.6559 -2.7157  1.5022
16108TIP3   OH269814   1.111   6.635   2.424  0.4276 -0.1323 -0.3574
16108TIP3    H169815   1.100   6.540   2.416  1.7671 -0.6186  2.4207
16108TIP3    H269816   1.192   6.654   2.378  0.5717 -0.4705 -0.2467
16109TIP3   OH269817   2.073   2.288   5.718  0.4367  0.2995  0.1899
16109TIP3    H169818   2.089   2.380   5.699 -1.1806  0.4148 -0.7885
16109TIP3    H269819   2.002   2.263   5.659 -0.2555 -1.1474  1.5618
16110TIP3   OH269820   6.302   2.924   4.570  0.5668 -0.0504  0.4668
16110TIP3    H169821   6.208   2.944   4.563  0.8942  1.3280 -0.3276
16110TIP3    H269822   6.344   3.010   4.579  1.9766 -0.4039 -1.9841
16111TIP3   OH269823   0.112   0.837   0.420 -0.1792 -0.1338  0.4473
16111TIP3    H169824   0.088   0.925   0.392 -2.5566 -0.7985  0.1262
16111TIP3    H269825   0.157   0.800   0.344 -1.0680  0.1281 -0.2335
16112TIP3   OH269826   3.591   3.305  11.210  0.2714  0.2120 -0.1468
16112TIP3    H169827   3.577   3.357  11.131  0.0600  0.7934  0.2679
16112TIP3    H269828   3.503   3.292  11.245  0.3077 -0.5686 -0.3331
16113TIP3   OH269829   2.524   4.183   4.905  0.0227  0.3334  0.5511
16113TIP3    H169830   2.520   4.211   4.997  2.7155  2.9208  0.0261
16113TIP3    H269831   2.439   4.207   4.869 -0.9920 -0.4839  2.2446
16114TIP3   OH269832   5.967   1.311   2.177  0.1226  0.1555  0.1113
16114TIP3    H169833   5.981   1.218   2.157 -1.4899 -0.2342  0.6140
16114TIP3    H269834   6.038   1.334   2.236  1.3157 -0.3766 -1.0651
16115TIP3   OH269835   6.819   2.784   4.899 -0.1808 -0.2941  0.6008
16115TIP3    H169836   6.860   2.731   4.831  1.6075  1.5279  0.1857
16115TIP3    H269837   6.791   2.864   4.855 -2.3137 -0.5541  1.3317
16116TIP3   OH269838   3.299   3.623  13.026  0.4836 -0.4078  0.0937
16116TIP3    H169839   3.257   3.678  12.961  0.6826 -2.6554 -2.1038
16116TIP3    H269840   3.237   3.552  13.041  1.4281 -1.1757  0.5254
16117TIP3   OH269841   1.286   5.064  13.404  0.2778  0.4455  0.4952
16117TIP3    H169842   1.363   5.115  13.431 -0.7434  3.5754 -1.8798
16117TIP3    H269843   1.262   5.100  13.319 -1.1504 -3.5816 -1.0583
16118TIP3   OH269844   5.407   2.567   2.489  0.1148 -0.0730 -0.4691
16118TIP3    H169845   5.414   2.570   2.393  0.3947  0.4277 -0.4405
16118TIP3    H269846   5.496   2.587   2.520 -0.0899  0.3080 -0.1079
16119TIP3   OH269847   2.911   3.189   3.021  0.0742 -0.0091 -0.3453
16119TIP3    H169848   2.990   3.140   2.998 -0.2136 -0.3360 -0.6603
16119TIP3    H269849   2.912   3.265   2.963  0.1068 -0.0711 -0.4265
16120TIP3   OH269850   2.300   5.679  12.093  0.4213 -0.3841 -0.1093
16120TIP3    H169851   2.225   5.733  12.069 -0.2485 -1.2083  0.0520
16120TIP3    H269852   2.313   5.697  12.187  0.2532 -0.4377 -0.0753
16121TIP3   OH269853   3.779   1.162   4.226  0.7900 -0.9790  0.0677
16121TIP3    H169854   3.843   1.191   4.161  0.7925 -0.4752  0.2961
16121TIP3    H269855   3.705   1.222   4.217  1.7620  0.6555  2.1634
16122TIP3   OH269856   4.749   0.053   3.450  0.9045  0.2053 -0.3673
16122TIP3    H169857   4.663   0.046   3.408  0.7831 -0.6884  0.0174
16122TIP3    H269858   4.730   0.053   3.544  1.2957  0.4181 -0.2887
16123TIP3   OH269859   3.349   4.932  12.214  0.1393  0.1392  0.4018
16123TIP3    H169860   3.307   4.861  12.166 -1.4236  1.8421 -0.8925
16123TIP3    H269861   3.285   4.956  12.281  0.3338  0.7955  0.3581
16124TIP3   OH269862   4.017   0.708   0.807 -0.8683 -0.4060 -1.0142
16124TIP3    H169863   4.072   0.772   0.853 -0.7079  0.2663 -2.1154
16124TIP3    H269864   3.950   0.684   0.871  0.4575 -0.9559  0.2326
16125TIP3   OH269865   2.279   0.993   3.425  0.1616 -0.0626 -0.1642
16125TIP3    H169866   2.295   1.015   3.333 -2.1138 -1.8367 -1.0745
16125TIP3    H269867   2.224   1.064   3.458 -0.4043 -0.2570 -0.6833
16126TIP3   OH269868   0.424   1.323   2.642 -0.3810  0.0373 -0.0194
16126TIP3    H169869   0.409   1.372   2.722  1.8857 -0.7554  0.9669
16126TIP3    H269870   0.519   1.322   2.631 -0.5592 -0.9510 -2.0439
16127TIP3   OH269871   3.065   0.352   3.993  0.0312  0.0197  0.0305
16127TIP3    H169872   3.097   0.298   4.066 -0.4630 -1.4465 -0.8001
16127TIP3    H269873   3.053   0.439   4.032 -0.3153 -0.7384  1.7389
16128TIP3   OH269874   3.700   5.464  12.612  0.2938 -0.4260  0.1735
16128TIP3    H169875   3.792   5.440  12.604 -0.3868 -2.8853 -1.2881
16128TIP3    H269876   3.666   5.406  12.680 -0.1380  0.6817  0.9300
16129TIP3   OH269877   4.493   5.576  13.816 -0.0353  0.1342 -0.1465
16129TIP3    H169878   4.588   5.583  13.830 -0.0464  0.5123 -0.2429
16129TIP3    H269879   4.481   5.489  13.777  0.2004 -0.1605  0.4253
16130TIP3   OH269880   5.127   5.470   0.847  0.5482 -0.0689  0.5483
16130TIP3    H169881   5.048   5.523   0.855  0.4225 -0.1690  0.0296
16130TIP3    H269882   5.097   5.380   0.858  0.0548 -0.3845 -2.5783
16131TIP3   OH269883   0.980   5.030   0.052 -0.3149 -0.0223 -0.5576
16131TIP3    H169884   0.988   5.031  -0.043  1.3304  2.8961 -0.4927
16131TIP3    H269885   0.947   5.117   0.075  3.6357  1.1646  1.6892
16132TIP3   OH269886   0.523   6.353   3.012  0.0092  0.2457  0.3921
16132TIP3    H169887   0.430   6.372   3.020 -0.0284  0.1104  0.2680
16132TIP3    H269888   0.528   6.258   3.010  0.5057 -0.1032  5.3329
16133TIP3   OH269889   3.434   2.743   0.887  1.3974 -0.7108  0.2074
16133TIP3    H169890   3.474   2.826   0.913  0.2198  0.2221 -0.8014
16133TIP3    H269891   3.380   2.766   0.811  2.1033 -2.6706 -0.9613
16134TIP3   OH269892   1.442   2.371   0.411  0.0155  0.5579 -0.2811
16134TIP3    H169893   1.511   2.317   0.450  0.3693  0.9345 -0.3744
16134TIP3    H269894   1.361   2.325   0.432  0.3288 -0.1747 -0.6246
16135TIP3   OH269895   4.784   4.411   5.060  0.0517 -0.3259  0.3113
16135TIP3    H169896   4.716   4.399   4.994 -0.2710 -2.0640  0.9193
16135TIP3    H269897   4.855   4.354   5.032  0.8292  0.6303  0.2843
16136TIP3   OH269898   3.586   3.716   4.803  0.1302 -0.8137 -0.4091
16136TIP3    H169899   3.550   3.630   4.782  1.5776 -1.4736 -0.2769
16136TIP3    H269900   3.660   3.698   4.862  0.4118  0.5220 -0.3158
16137TIP3   OH269901   6.587   2.058   0.703 -0.4146 -0.4630 -0.1866
16137TIP3    H169902   6.643   2.129   0.672  1.6335 -2.1904 -0.6597
16137TIP3    H269903   6.586   1.995   0.631 -0.5872 -1.8003  0.9440
16138TIP3   OH269904   5.280   5.923  14.897 -0.4103  0.4815  0.2882
16138TIP3    H169905   5.340   5.919  14.823 -2.2793  1.5629 -1.3918
16138TIP3    H269906   5.320   5.985  14.958 -0.0762  1.6267 -1.0513
16139TIP3   OH269907   4.976   4.067   4.866 -0.5858  0.0550 -0.1025
16139TIP3    H169908   4.968   4.151   4.820 -3.5609 -0.1931 -0.2393
16139TIP3    H269909   4.900   4.016   4.836  1.4294 -2.9614 -0.4877
16140TIP3   OH269910   0.399   5.824   2.592  0.1640 -0.5698  0.4926
16140TIP3    H169911   0.357   5.739   2.582 -0.5839 -0.2057  0.4585
16140TIP3    H269912   0.378   5.851   2.681 -2.1118  0.8553 -0.3717
16141TIP3   OH269913   2.515   3.168   0.668  0.5349 -0.7969  0.1396
16141TIP3    H169914   2.439   3.218   0.699  0.1099 -1.6948  0.6116
16141TIP3    H269915   2.577   3.234   0.637 -1.1052 -0.0742 -1.8530
16142TIP3   OH269916   3.974   3.320  13.624  0.5756  0.0819 -0.0352
16142TIP3    H169917   4.038   3.390  13.640  0.5692 -0.1443  1.0272
16142TIP3    H269918   3.898   3.365  13.588  0.3795  0.6962  1.1140
16143TIP3   OH269919   6.515   2.401   5.541  0.3399  0.2087  0.2415
16143TIP3    H169920   6.486   2.315   5.570 -0.1002  0.6881  1.2545
16143TIP3    H269921   6.521   2.453   5.621 -0.0061  1.3045 -0.4267
16144TIP3   OH269922   6.835   3.996   2.836 -0.2245  0.0395 -0.4266
16144TIP3    H169923   6.810   4.074   2.884  1.1934  1.4650 -1.8813
16144TIP3    H269924   6.911   3.961   2.884 -0.6841 -0.3014  0.0624
16145TIP3   OH269925   2.588   3.495   2.907 -0.3247 -0.2054  0.7807
16145TIP3    H169926   2.526   3.567   2.894 -0.4538 -0.1701  1.5593
16145TIP3    H269927   2.674   3.534   2.893 -0.4085  0.0379  0.9542
16146TIP3   OH269928   5.795   5.719  10.329  0.1137  0.3483  0.1717
16146TIP3    H169929   5.780   5.792  10.268 -0.0265 -0.3260 -0.6154
16146TIP3    H269930   5.886   5.729  10.357  0.5342  0.0229 -1.0318
16147TIP3   OH269931   6.709   1.377  11.900 -0.7197 -0.0807 -0.0057
16147TIP3    H169932   6.725   1.403  11.809 -1.9606 -0.0398 -0.2256
16147TIP3    H269933   6.756   1.294  11.909  0.1935  0.3747 -0.3890
16148TIP3   OH269934   6.317   3.094  14.560  0.2677 -0.3073 -0.3174
16148TIP3    H169935   6.381   3.027  14.582  0.6517 -0.1492 -0.9022
16148TIP3    H269936   6.284   3.068  14.474 -1.0855 -0.8445  0.3414
16149TIP3   OH269937   2.444   1.826  13.410 -0.5827  0.0660 -0.4447
16149TIP3    H169938   2.373   1.880  13.375  0.0840 -0.9402 -3.5954
16149TIP3    H269939   2.399   1.750  13.448 -1.2828 -0.3002 -1.9281
16150TIP3   OH269940   5.447   1.293   2.091 -0.3610  0.1981  0.5103
16150TIP3    H169941   5.492   1.312   2.009  1.8281  1.9060  2.0221
16150TIP3    H269942   5.475   1.204   2.115  2.0745  1.1021  1.2522
16151TIP3   OH269943   3.103   1.551  15.302 -0.0530  0.0659 -0.2304
16151TIP3    H169944   3.151   1.512  15.230 -0.7410  2.0671 -1.8581
16151TIP3    H269945   3.158   1.536  15.379  0.5683 -2.3516 -1.0780
16152TIP3   OH269946   5.649   5.075   0.983  0.3163 -0.0879 -0.1226
16152TIP3    H169947   5.736   5.062   1.022 -0.4614 -2.0295  1.1390
16152TIP3    H269948   5.589   5.069   1.058 -0.8759  2.1927 -0.8253
16153TIP3   OH269949   6.322   1.711   3.607  0.4443  0.0287  0.2857
16153TIP3    H169950   6.235   1.708   3.647  0.3349  0.5703  0.0957
16153TIP3    H269951   6.335   1.623   3.571  0.4478 -0.3995  1.2987
16154TIP3   OH269952   4.997   5.528   3.730  0.3370  0.3451  0.2742
16154TIP3    H169953   5.056   5.521   3.806  0.0496  1.9662  0.6803
16154TIP3    H269954   5.054   5.553   3.658  0.3882  0.3485  0.3158
16155TIP3   OH269955   6.576   0.404   0.466 -0.0476  0.7402  0.0948
16155TIP3    H169956   6.609   0.407   0.376 -1.0392  2.8141 -0.2669
16155TIP3    H269957   6.635   0.344   0.512  0.6187 -0.1854 -1.8612
16156TIP3   OH269958   6.245   1.294   2.517 -0.0297 -0.4182 -0.7529
16156TIP3    H169959   6.240   1.225   2.451 -0.8831 -0.0907 -1.0407
16156TIP3    H269960   6.218   1.374   2.471  3.6167  0.7301 -1.2136
16157TIP3   OH269961   6.149   4.774  12.983 -0.6583 -1.1207  0.0154
16157TIP3    H169962   6.197   4.845  12.941  0.6219  0.4784  3.7855
16157TIP3    H269963   6.210   4.700  12.980  0.2374 -0.4389  0.7285
16158TIP3   OH269964   1.372   3.863   0.264 -0.1143  0.5033 -0.5683
16158TIP3    H169965   1.445   3.924   0.275 -1.3335  2.1917 -1.3919
16158TIP3    H269966   1.414   3.778   0.252  1.6933  1.3096 -0.3248
16159TIP3   OH269967   7.172   5.714  12.193 -0.6770 -0.4734 -0.3106
16159TIP3    H169968   7.191   5.637  12.246  0.5617  0.0208  0.0004
16159TIP3    H269969   7.158   5.784  12.256  0.4933  0.0507 -0.6177
16160TIP3   OH269970   7.217   1.215   1.445 -0.0878  0.2716 -0.3206
16160TIP3    H169971   7.146   1.261   1.399  0.1462  0.8370 -0.1262
16160TIP3    H269972   7.241   1.274   1.516  0.1477 -0.2071  0.0003
16161TIP3   OH269973   4.246   1.806   0.534 -0.6529  0.4975  0.5988
16161TIP3    H169974   4.233   1.898   0.512 -0.0104  0.1635 -1.3844
16161TIP3    H269975   4.339   1.798   0.553 -0.6250  0.2014  0.3576
16162TIP3   OH269976   0.058   4.451  13.724  0.2082 -0.2182  0.0054
16162TIP3    H169977   0.042   4.544  13.739  0.0469 -0.6010  2.4632
16162TIP3    H269978   0.112   4.424  13.798  1.5636 -1.7734 -1.4689
16163TIP3   OH269979   3.034   2.442  12.532 -0.1796 -0.1925 -0.0584
16163TIP3    H169980   3.075   2.361  12.565 -1.5513 -1.3911 -1.1828
16163TIP3    H269981   3.047   2.439  12.438  1.9511  2.2192  0.0395
16164TIP3   OH269982   4.069   3.314   2.153  0.4182  0.1451 -0.0829
16164TIP3    H169983   4.110   3.230   2.173 -1.0736 -0.5313  0.2059
16164TIP3    H269984   4.132   3.358   2.095  1.2959 -1.0794 -0.0872
16165TIP3   OH269985   1.091   6.581   1.074  0.2961 -0.3625  0.0254
16165TIP3    H169986   1.071   6.503   1.127  1.8028 -1.1149 -0.4463
16165TIP3    H269987   1.048   6.564   0.990 -0.3665 -0.1314  0.3152
16166TIP3   OH269988   3.003   3.683   2.197  0.0990  0.1254 -0.2741
16166TIP3    H169989   2.963   3.681   2.284  0.8257  1.4144  0.1166
16166TIP3    H269990   3.079   3.625   2.204  0.0463  0.0755 -0.1126
16167TIP3   OH269991   0.153   0.798   2.852 -0.4954 -0.5370  0.1969
16167TIP3    H169992   0.231   0.746   2.871 -1.5967 -2.3273  0.0882
16167TIP3    H269993   0.107   0.804   2.935 -0.2698  0.4914  0.2559
16168TIP3   OH269994   6.765   6.992  12.316 -0.7852 -0.0542 -0.4179
16168TIP3    H169995   6.770   7.066  12.255 -2.6123  0.3394 -0.1679
16168TIP3    H269996   6.700   7.020  12.381  0.9975 -0.5305  1.6498
16169TIP3   OH269997   6.573   1.334  14.807 -0.2201 -0.0340 -0.3654
16169TIP3    H169998   6.517   1.276  14.757  0.7326 -1.3225  0.0091
16169TIP3    H269999   6.657   1.288  14.814  0.2327  0.8843  0.8888
16170TIP3   OH270000   4.248   6.425   1.942  1.0981  0.1117 -0.0066
16170TIP3    H170001   4.239   6.514   1.975 -1.5190  0.5110 -1.5064
16170TIP3    H270002   4.203   6.371   2.006  1.4636  0.0366  0.1908
16171TIP3   OH270003   0.159   3.522  10.370  0.2870  0.3996 -0.6604
16171TIP3    H170004   0.160   3.558  10.459 -2.3560 -1.7621  0.3965
16171TIP3    H270005   0.067   3.522  10.345  0.7231 -1.0289 -2.5446
16172TIP3   OH270006   3.172   6.728   4.193 -0.0663  0.4673 -0.0930
16172TIP3    H170007   3.131   6.787   4.129 -0.7175  0.3295  0.1890
16172TIP3    H270008   3.154   6.768   4.278  0.8515  0.6819  0.0120
16173TIP3   OH270009   0.654   5.923  14.248 -0.1063 -0.4188 -0.0038
16173TIP3    H170010   0.603   5.980  14.189  2.2390  2.4003  0.4677
16173TIP3    H270011   0.598   5.913  14.325 -1.6446 -0.9527 -1.1420
16174TIP3   OH270012   2.003   2.163  14.150  0.3248 -0.5313 -0.4303
16174TIP3    H170013   1.918   2.204  14.166 -1.2026 -3.8000  0.6273
16174TIP3    H270014   1.996   2.126  14.062  0.6482 -0.8639 -0.3172
16175TIP3   OH270015   2.989   3.903   5.061 -0.2665  0.4834  0.2684
16175TIP3    H170016   3.006   3.935   5.149 -1.3076 -0.3865  0.8068
16175TIP3    H270017   2.897   3.923   5.046 -1.0820 -2.4427  0.7538
16176TIP3   OH270018   4.527   2.621   4.471  0.2855 -0.1438  0.2819
16176TIP3    H170019   4.536   2.556   4.540  0.9136  1.5914  1.9132
16176TIP3    H270020   4.544   2.573   4.390 -1.0744 -2.3567  1.2458
16177TIP3   OH270021   6.817   5.037  14.629  0.0897 -0.1717 -0.0528
16177TIP3    H170022   6.794   5.102  14.696  0.1976 -1.1367  0.9586
16177TIP3    H270023   6.819   4.954  14.677 -0.7258 -1.0338 -1.4423
16178TIP3   OH270024   2.352   6.704  13.880 -0.0570 -0.2730 -0.0790
16178TIP3    H170025   2.379   6.619  13.846  0.1877  0.2662 -1.2971
16178TIP3    H270026   2.434   6.747  13.905 -0.2451 -0.7264  1.4180
16179TIP3   OH270027   1.705   5.521   2.541  0.4423  0.5676  0.2360
16179TIP3    H170028   1.747   5.574   2.609 -0.6336 -0.4321  1.7571
16179TIP3    H270029   1.778   5.481   2.494  1.2714  2.8314 -0.5726
16180TIP3   OH270030   5.722   3.879  12.532  0.4747 -0.3674 -0.0450
16180TIP3    H170031   5.695   3.919  12.449  2.0564  1.2523  0.1470
16180TIP3    H270032   5.688   3.938  12.599  1.7066 -0.0033  0.2962
16181TIP3   OH270033   0.682   7.121   1.376  0.8248  0.0036  0.2950
16181TIP3    H170034   0.668   7.061   1.449  0.2791  0.6488  0.7315
16181TIP3    H270035   0.661   7.207   1.411  1.5573  0.4514 -0.3340
16182TIP3   OH270036   2.978   3.764   4.492  0.2282  0.2698  0.2169
16182TIP3    H170037   3.035   3.778   4.417  0.6745 -2.7829 -0.1430
16182TIP3    H270038   2.901   3.818   4.475  0.4879 -0.0413 -2.2613
16183TIP3   OH270039   1.046   4.984   4.448  0.0096  0.2012 -0.2661
16183TIP3    H170040   0.969   5.006   4.397  0.2041  2.9886  0.4871
16183TIP3    H270041   1.119   5.026   4.402  0.8991 -1.1317 -0.1547
16184TIP3   OH270042   3.326   7.054   9.672 -0.6647  0.3744  0.0493
16184TIP3    H170043   3.422   7.058   9.674 -0.6650  0.7630 -0.5541
16184TIP3    H270044   3.300   7.126   9.615 -1.2805 -0.4106 -0.6882
16185TIP3   OH270045   6.565   4.971  12.466  0.0874 -0.3941  0.1066
16185TIP3    H170046   6.613   5.019  12.534 -0.8224  1.0357 -0.2183
16185TIP3    H270047   6.474   4.971  12.496 -0.0318 -1.3740 -0.2240
16186TIP3   OH270048   0.568   0.675   5.293  0.2300 -0.2110 -0.1117
16186TIP3    H170049   0.567   0.765   5.260 -3.5298  0.1689  0.5460
16186TIP3    H270050   0.533   0.682   5.382  0.1780 -2.2701  0.0723
16187TIP3   OH270051   3.215   0.228  12.190  0.3306 -0.1147  0.1418
16187TIP3    H170052   3.168   0.279  12.256 -0.5030 -1.4020  0.5727
16187TIP3    H270053   3.178   0.257  12.107 -0.6008 -0.4744  0.4206
16188TIP3   OH270054   4.856   1.145   1.569 -0.6428  0.2011 -1.0701
16188TIP3    H170055   4.937   1.118   1.611 -2.8920 -0.2535  3.5587
16188TIP3    H270056   4.853   1.240   1.579 -1.3774  0.0512  0.3974
16189TIP3   OH270057   5.089   2.632  12.599  0.3684  0.0713 -0.5442
16189TIP3    H170058   5.159   2.663  12.657 -1.4510  1.4347  1.0668
16189TIP3    H270059   5.117   2.658  12.512  1.5945  1.1945  0.1449
16190TIP3   OH270060   3.588   3.554   0.365 -0.0323 -0.2606  0.0515
16190TIP3    H170061   3.605   3.608   0.442 -0.2158 -0.1872  0.0419
16190TIP3    H270062   3.555   3.471   0.401  2.7597 -1.4164  0.2223
16191TIP3   OH270063   4.221   6.035   5.800  0.7001 -0.2744  0.2312
16191TIP3    H170064   4.139   6.081   5.780  0.4543 -1.0585 -0.6633
16191TIP3    H270065   4.194   5.961   5.855  0.6570 -1.0598 -0.8144
16192TIP3   OH270066   5.097   5.367   0.147  0.4225  0.0717 -0.3706
16192TIP3    H170067   5.150   5.295   0.180  0.5325  0.6208  0.7035
16192TIP3    H270068   5.040   5.391   0.221  0.6274  1.3000 -0.5917
16193TIP3   OH270069   6.961   6.690   5.824 -0.2368 -0.2266  0.2491
16193TIP3    H170070   6.867   6.675   5.834 -0.0845 -0.0860  2.4610
16193TIP3    H270071   6.993   6.612   5.780 -1.3119 -0.5050 -0.0828
16194TIP3   OH270072   1.603   4.679  11.867 -0.2048  0.0529 -0.2818
16194TIP3    H170073   1.614   4.644  11.779 -0.9133  1.6945 -1.0609
16194TIP3    H270074   1.520   4.643  11.897 -1.7402  2.2027 -1.7030
16195TIP3   OH270075   2.357   0.697  14.291 -0.6856 -0.0570  0.6466
16195TIP3    H170076   2.365   0.621  14.349 -1.8729  0.2335  1.2138
16195TIP3    H270077   2.370   0.773  14.349 -1.1275  0.2131  0.3991
16196TIP3   OH270078   4.602   0.376   0.176 -0.2598  0.0554  0.3726
16196TIP3    H170079   4.596   0.308   0.108 -2.0619 -0.0807  0.6106
16196TIP3    H270080   4.575   0.332   0.256 -0.4019  0.7804  0.7311
16197TIP3   OH270081   2.292   2.424   2.016 -0.2476  0.0525  0.3053
16197TIP3    H170082   2.362   2.363   1.991  1.6434  1.5241  1.6609
16197TIP3    H270083   2.265   2.464   1.933  0.7832 -0.3144 -0.2269
16198TIP3   OH270084   1.913   2.016  13.943 -0.2076  0.4818 -1.1268
16198TIP3    H170085   1.889   1.924  13.939 -1.2675  0.6406  0.5611
16198TIP3    H270086   1.834   2.062  13.914 -0.4313  0.8979  0.0964
16199TIP3   OH270087   3.651   3.907   4.452 -0.6465  0.0094 -0.1207
16199TIP3    H170088   3.743   3.918   4.430 -0.8461  0.8894 -0.5815
16199TIP3    H270089   3.612   3.867   4.375 -1.0065  1.4530 -0.7281
16200TIP3   OH270090   4.303   2.495   5.008 -0.8799 -0.2683 -0.1350
16200TIP3    H170091   4.352   2.413   5.019 -0.8163 -0.0481  1.3335
16200TIP3    H270092   4.278   2.521   5.096 -3.2559 -0.1033 -0.7824
16201TIP3   OH270093   6.276   4.738  15.177 -0.5851  0.2187  0.5111
16201TIP3    H170094   6.262   4.683  15.100 -0.3960  0.6664  0.1510
16201TIP3    H270095   6.248   4.684  15.251 -3.2344  0.6937 -0.0602
16202TIP3   OH270096   2.489   3.311   5.018  0.7871 -0.2808  0.4576
16202TIP3    H170097   2.534   3.230   5.039 -0.4245 -1.6752 -1.9980
16202TIP3    H270098   2.556   3.379   5.026  2.1218 -1.6609  1.3523
16203TIP3   OH270099   2.786   5.243   1.530  0.3425 -0.0333  0.3042
16203TIP3    H170100   2.712   5.216   1.584 -0.8788 -1.7462 -2.0339
16203TIP3    H270101   2.862   5.200   1.569 -0.3931 -0.7301  0.9860
16204TIP3   OH270102   2.498   5.792   2.724 -0.4006 -0.1639 -0.4720
16204TIP3    H170103   2.550   5.856   2.677 -0.1897 -0.4418 -0.6223
16204TIP3    H270104   2.453   5.842   2.793  0.3538  0.0211 -0.1046
16205TIP3   OH270105   0.447   6.890  15.032 -0.4180  0.6003  0.0940
16205TIP3    H170106   0.360   6.924  15.013  0.2222  0.9744 -2.4966
16205TIP3    H270107   0.444   6.799  15.004  0.1704  0.7789 -0.5839
16206TIP3   OH270108   2.402   5.994   4.212  0.0775 -0.3434  0.2498
16206TIP3    H170109   2.496   6.007   4.200  0.3322  0.4622  2.6701
16206TIP3    H270110   2.380   6.045   4.290 -2.5292  0.0799 -0.6638
16207TIP3   OH270111   4.141   1.608  14.671  0.0711  0.2063  0.5893
16207TIP3    H170112   4.217   1.560  14.640 -0.9011 -0.9737 -0.0953
16207TIP3    H270113   4.076   1.539  14.690 -0.1608  1.0226  3.0886
16208TIP3   OH270114   6.879   3.658   2.013  0.3437  0.3551  0.7557
16208TIP3    H170115   6.839   3.692   1.933  2.3006  1.3823  0.1296
16208TIP3    H270116   6.837   3.708   2.083 -2.4475 -1.5644  0.6217
16209TIP3   OH270117   0.104   3.674  15.294  0.3124 -0.4742 -0.3738
16209TIP3    H170118   0.170   3.611  15.268  1.6552 -0.9875  3.5889
16209TIP3    H270119   0.024   3.622  15.308  0.0152 -0.4266 -1.7917
16210TIP3   OH270120   1.928   2.481  11.760 -0.4430 -0.5058  0.7383
16210TIP3    H170121   1.999   2.423  11.732  2.0545  2.2844  0.7673
16210TIP3    H270122   1.877   2.496  11.681  0.5386 -0.6002  0.0636
16211TIP3   OH270123   0.457   4.292   2.370 -0.5233 -0.1037  0.1165
16211TIP3    H170124   0.497   4.379   2.364 -0.4875 -0.0910  0.5573
16211TIP3    H270125   0.444   4.278   2.463  0.6687 -1.1246  0.1409
16212TIP3   OH270126   2.075   6.093   2.296  0.0934  0.4243  1.0580
16212TIP3    H170127   2.019   6.163   2.327 -1.0667 -0.6931  1.5607
16212TIP3    H270128   2.015   6.028   2.259  1.1552 -0.1833  0.3418
16213TIP3   OH270129   5.314   1.674   2.951 -0.1776  0.7410  0.4398
16213TIP3    H170130   5.324   1.690   3.045  3.1951 -0.0743  0.3481
16213TIP3    H270131   5.378   1.731   2.910  0.0341 -0.5910 -1.1822
16214TIP3   OH270132   6.250   3.762   1.681 -0.3689 -0.3542  0.0266
16214TIP3    H170133   6.338   3.797   1.663  0.5556 -2.1827  0.7310
16214TIP3    H270134   6.192   3.816   1.628  1.0980  1.3266  0.0112
16215TIP3   OH270135   1.723   1.750  11.642 -0.3008 -0.6642 -0.3448
16215TIP3    H170136   1.714   1.726  11.550  0.2718 -1.9038 -0.1038
16215TIP3    H270137   1.747   1.843  11.641  0.4667 -0.8603 -1.4826
16216TIP3   OH270138   0.261   2.848   1.420  0.2350  0.4198 -0.1574
16216TIP3    H170139   0.247   2.943   1.422  1.8750  0.6690  1.9385
16216TIP3    H270140   0.175   2.811   1.439 -0.0239  1.5542  0.9813
16217TIP3   OH270141   7.195   6.163   3.412  0.1822  0.0419  0.8872
16217TIP3    H170142   7.243   6.128   3.337  0.9716  0.5952  1.1294
16217TIP3    H270143   7.178   6.255   3.390 -2.0569 -0.4687  0.1655
16218TIP3   OH270144   3.587   7.255   2.896  0.5631  0.3526 -0.0438
16218TIP3    H170145   3.592   7.346   2.869  0.9514  0.0954 -0.8532
16218TIP3    H270146   3.513   7.219   2.846  0.6938  0.1081 -0.0620
16219TIP3   OH270147   6.300   1.619   0.437  0.5218  0.1390  0.5559
16219TIP3    H170148   6.218   1.654   0.402 -0.3840 -1.7253  0.6892
16219TIP3    H270149   6.355   1.604   0.360 -0.9558 -2.6780 -0.0835
16220TIP3   OH270150   2.230   6.477   4.182 -0.6098  0.1555  0.1430
16220TIP3    H170151   2.200   6.401   4.132 -2.1960  1.9190 -1.7773
16220TIP3    H270152   2.325   6.465   4.189 -0.8083 -1.9227 -0.1807
16221TIP3   OH270153   3.177   0.370  10.957 -0.7594 -0.3751 -0.6075
16221TIP3    H170154   3.247   0.364  11.022 -2.0146 -0.3263  0.7909
16221TIP3    H270155   3.150   0.462  10.961 -1.4924 -0.5951 -0.4988
16222TIP3   OH270156   3.235   6.494   1.367  0.8146  0.3853  0.1081
16222TIP3    H170157   3.173   6.450   1.310 -0.5882  0.4304  1.5065
16222TIP3    H270158   3.192   6.577   1.389  1.1630  0.2410  1.4281
16223TIP3   OH270159   3.176   4.970   3.872  0.0281  0.2341  0.4099
16223TIP3    H170160   3.095   4.990   3.825 -0.3413 -0.2590  0.8267
16223TIP3    H270161   3.182   4.874   3.871 -1.1169  0.0346  3.1824
16224TIP3   OH270162   6.785   4.709   5.259  0.2683 -0.2657 -0.2364
16224TIP3    H170163   6.861   4.672   5.304  1.1069  1.0237 -0.5417
16224TIP3    H270164   6.725   4.635   5.249  1.4972 -1.3328 -0.0406
16225TIP3   OH270165   0.673   4.326   4.614  0.5532 -0.0992  0.0097
16225TIP3    H170166   0.650   4.416   4.637  1.6865  0.4370 -0.8975
16225TIP3    H270167   0.588   4.282   4.606 -0.1402  1.3674 -1.4706
16226TIP3   OH270168   1.914   2.487   4.057  0.0458  0.1514  0.0838
16226TIP3    H170169   1.839   2.501   4.114 -0.2026  1.3333 -0.4994
16226TIP3    H270170   1.928   2.572   4.014  1.4240 -0.1721 -0.1585
16227TIP3   OH270171   5.837   5.103   2.943  0.2532  0.2744  0.0833
16227TIP3    H170172   5.849   5.021   2.991 -0.0454 -0.3899 -0.9544
16227TIP3    H270173   5.862   5.082   2.853 -1.5620  0.8288 -0.5919
16228TIP3   OH270174   3.610   0.424   5.669  0.0705  0.2516  0.2861
16228TIP3    H170175   3.555   0.500   5.689 -1.0437 -0.0215 -1.4836
16228TIP3    H270176   3.553   0.366   5.619  1.5063 -0.8078 -0.1897
16229TIP3   OH270177   5.487   6.732  13.156 -0.7259 -0.0883 -0.1898
16229TIP3    H170178   5.527   6.703  13.074  1.3028  0.9401  0.3522
16229TIP3    H270179   5.461   6.822  13.139  0.9651  0.6064  0.6311
16230TIP3   OH270180   1.695   3.769  13.858 -0.2162 -0.1774 -0.3129
16230TIP3    H170181   1.620   3.717  13.827 -0.3588  0.1928 -0.5894
16230TIP3    H270182   1.665   3.806  13.942 -0.3511 -0.0134 -0.4326
16231TIP3   OH270183   7.053   6.340  15.241 -0.3936  0.0914  0.0005
16231TIP3    H170184   7.116   6.345  15.312 -0.0724 -0.9178 -0.2033
16231TIP3    H270185   7.101   6.301  15.168  0.0832  3.4230 -1.7070
16232TIP3   OH270186   2.343   5.802  12.799 -0.3088  0.2416  0.2587
16232TIP3    H170187   2.271   5.752  12.761  1.1776  0.1831 -2.7230
16232TIP3    H270188   2.329   5.892  12.767  1.4735  0.0108 -1.3897
16233TIP3   OH270189   3.161   5.336   0.441 -0.2106  0.5534  0.8010
16233TIP3    H170190   3.153   5.244   0.466  0.1910  0.7585  1.7284
16233TIP3    H270191   3.074   5.361   0.409 -0.2715 -0.1910  0.3591
16234TIP3   OH270192   3.419   4.505  14.293  0.3598  0.1997  0.5912
16234TIP3    H170193   3.337   4.522  14.339 -0.8476 -0.0715 -1.3602
16234TIP3    H270194   3.430   4.580  14.235  0.5915 -0.5718 -0.3832
16235TIP3   OH270195   3.282   1.692   2.940  0.0737  0.1583  0.5352
16235TIP3    H170196   3.336   1.768   2.960 -0.5394  0.9512 -0.6633
16235TIP3    H270197   3.262   1.653   3.025  1.3753  0.6385  1.0873
16236TIP3   OH270198   3.330   0.462   1.574  0.3409  0.0415 -0.2304
16236TIP3    H170199   3.317   0.368   1.566  1.1035 -0.2184  1.1618
16236TIP3    H270200   3.392   0.471   1.647  0.9563  1.5754 -0.8950
16237TIP3   OH270201   2.034   0.185   5.348 -0.0337 -0.5265 -0.3951
16237TIP3    H170202   1.957   0.164   5.401  0.2990  1.0852  0.7720
16237TIP3    H270203   2.001   0.243   5.279  0.2004  0.6018  0.4221
16238TIP3   OH270204   7.027   0.368  11.831  0.2385 -0.3582 -0.0207
16238TIP3    H170205   7.013   0.276  11.853  3.0247 -0.8508  0.0163
16238TIP3    H270206   6.948   0.393  11.783 -1.0227 -2.4515  0.8007
16239TIP3   OH270207   5.543   2.709   3.517  0.0238  0.8712  0.3340
16239TIP3    H170208   5.460   2.688   3.560  0.7097 -1.5346  0.6590
16239TIP3    H270209   5.605   2.720   3.589 -0.0702  3.2881  0.1194
16240TIP3   OH270210   1.155   1.435   0.088 -0.4288 -0.5556  0.3995
16240TIP3    H170211   1.117   1.519   0.063  0.4526 -0.1788  0.2648
16240TIP3    H270212   1.087   1.391   0.138 -1.5878 -0.5503 -1.1022
16241TIP3   OH270213   6.409   0.532  11.183 -0.5287 -0.1119 -0.1963
16241TIP3    H170214   6.481   0.475  11.211 -1.8931 -0.4803  2.9259
16241TIP3    H270215   6.342   0.472  11.152 -0.2408  0.1285 -1.3347
16242TIP3   OH270216   4.869   6.241  10.726  0.6984  0.1660 -0.2470
16242TIP3    H170217   4.781   6.244  10.690 -0.1248 -1.3285  1.4631
16242TIP3    H270218   4.876   6.321  10.778  0.7464  0.7942 -1.2084
16243TIP3   OH270219   1.204   5.931   0.970 -0.0569 -0.5226 -0.1199
16243TIP3    H170220   1.273   5.875   0.935  1.0883 -0.5544  2.0762
16243TIP3    H270221   1.241   5.970   1.049 -1.5200  1.8149 -0.4737
16244TIP3   OH270222   2.341   6.939   0.875  0.4030 -0.1876 -0.1047
16244TIP3    H170223   2.321   7.009   0.813  4.0359  0.5697 -0.6034
16244TIP3    H270224   2.305   6.860   0.835 -0.6784  0.8493 -1.2382
16245TIP3   OH270225   3.992   5.659  13.511 -0.3185  0.2777 -0.9321
16245TIP3    H170226   4.087   5.657  13.516 -0.3325 -1.5118 -0.6834
16245TIP3    H270227   3.973   5.686  13.421  0.3352  2.8229 -0.4003
16246TIP3   OH270228   5.970   2.707   0.563 -0.2599 -0.1608  0.5359
16246TIP3    H170229   5.911   2.712   0.488  0.0044 -0.3225  0.3169
16246TIP3    H270230   5.911   2.702   0.639 -0.5503 -1.8275  0.2416
16247TIP3   OH270231   0.233   5.977   4.770 -0.4901  0.1717 -0.5637
16247TIP3    H170232   0.140   5.995   4.776 -0.6080 -0.6206  0.1586
16247TIP3    H270233   0.265   5.984   4.860 -0.4286 -2.4816 -0.3157
16248TIP3   OH270234   3.344   0.782   1.500 -0.4457 -0.0122  0.3991
16248TIP3    H170235   3.400   0.706   1.520  3.0932  2.7705  2.1578
16248TIP3    H270236   3.347   0.836   1.579 -0.7069  3.0952 -1.5499
16249TIP3   OH270237   3.700   6.206   4.001 -0.2702  0.4034  0.1405
16249TIP3    H170238   3.633   6.220   3.934 -0.0668 -0.9357 -0.3760
16249TIP3    H270239   3.724   6.114   3.992  1.6083  0.8241  0.3531
16250TIP3   OH270240   6.759   0.851   5.003 -0.1745 -0.5060 -0.6672
16250TIP3    H170241   6.691   0.897   4.954  0.8463  0.4762 -1.2041
16250TIP3    H270242   6.820   0.920   5.030 -0.0064 -1.2013  0.8464
16251TIP3   OH270243   2.760   6.419   0.962  0.4613  0.0913  0.1764
16251TIP3    H170244   2.844   6.439   0.921  0.6725 -0.7441  0.1807
16251TIP3    H270245   2.704   6.392   0.888  0.0603  1.0343  0.1170
16252TIP3   OH270246   1.724   0.376   0.258 -0.0720 -0.1164  0.1265
16252TIP3    H170247   1.636   0.351   0.229 -0.5086  2.2447 -0.8476
16252TIP3    H270248   1.772   0.294   0.262 -2.0601 -1.3769 -0.2359
16253TIP3   OH270249   3.711   4.874   5.355 -0.9046  0.1188 -0.0377
16253TIP3    H170250   3.697   4.781   5.369  3.5210 -1.0679 -1.6775
16253TIP3    H270251   3.777   4.898   5.420 -1.5191  1.9708 -0.0526
16254TIP3   OH270252   3.787   1.664   1.738 -0.1851 -0.1788 -0.0795
16254TIP3    H170253   3.787   1.742   1.794 -0.3405 -0.1312 -0.1444
16254TIP3    H270254   3.836   1.599   1.788  0.8525  0.2770 -0.4720
16255TIP3   OH270255   5.343   5.814   4.247  0.3919  0.1598 -0.0131
16255TIP3    H170256   5.354   5.899   4.203 -1.2529  0.0351 -0.7154
16255TIP3    H270257   5.250   5.795   4.241  0.6267 -1.4008  0.7286
16256TIP3   OH270258   6.681   1.693   4.092  0.0165 -0.0842 -0.3432
16256TIP3    H170259   6.769   1.667   4.119 -0.2072 -0.8515 -0.3265
16256TIP3    H270260   6.691   1.782   4.060  0.9031 -0.3465 -0.8272
16257TIP3   OH270261   1.353   3.505   1.140  0.4834 -0.0665 -0.1884
16257TIP3    H170262   1.336   3.564   1.067 -2.7587 -2.2412 -1.4189
16257TIP3    H270263   1.373   3.421   1.099  0.3809 -0.9337  1.4457
16258TIP3   OH270264   4.468   3.912   5.622  0.6960  0.4818  0.1208
16258TIP3    H170265   4.511   3.911   5.708  0.6021 -1.8069  0.1884
16258TIP3    H270266   4.538   3.889   5.560  0.5825  1.3398 -0.3391
16259TIP3   OH270267   1.577   5.455   1.849  0.0073  0.4920 -0.8686
16259TIP3    H170268   1.533   5.508   1.915  0.8691 -1.6466  1.6369
16259TIP3    H270269   1.549   5.365   1.869  2.8742 -0.5814 -1.2313
16260TIP3   OH270270   3.829   1.298   1.572 -0.6513 -0.1480 -0.2795
16260TIP3    H170271   3.757   1.360   1.563  0.3513  1.0625 -0.2951
16260TIP3    H270272   3.833   1.280   1.666 -1.5839 -0.9838 -0.3955
16261TIP3   OH270273   2.087   3.953   4.972 -0.0858 -0.3032 -0.0397
16261TIP3    H170274   2.098   3.950   4.877  1.9642  0.5683  0.1203
16261TIP3    H270275   2.170   3.921   5.007 -1.4787 -2.5189  1.5188
16262TIP3   OH270276   6.615   4.721   3.097  0.3279 -0.1271  0.0200
16262TIP3    H170277   6.522   4.719   3.074  0.5749 -2.1815 -1.0733
16262TIP3    H270278   6.626   4.650   3.159  1.4519 -1.1639 -1.2975
16263TIP3   OH270279   3.826   0.373   3.992 -0.1114 -0.0164 -0.0681
16263TIP3    H170280   3.801   0.283   4.014 -0.2180  0.0110 -0.0800
16263TIP3    H270281   3.752   0.408   3.944 -0.7683  0.6089  1.3433
16264TIP3   OH270282   6.901   5.960   4.624  0.1330  0.8076  0.0955
16264TIP3    H170283   6.929   6.051   4.632  1.0806  0.5368 -0.0066
16264TIP3    H270284   6.965   5.910   4.674 -1.3087  0.3294  1.5517
16265TIP3   OH270285   1.739   3.151   3.066 -0.4845 -0.3445 -0.3996
16265TIP3    H170286   1.785   3.185   2.990  2.1809 -1.0221  0.8095
16265TIP3    H270287   1.733   3.226   3.126  2.7402 -1.0987  1.0488
16266TIP3   OH270288   6.191   4.846   3.677  0.4710  0.0956  0.3485
16266TIP3    H170289   6.123   4.876   3.616  1.4300  1.6407 -0.0376
16266TIP3    H270290   6.214   4.925   3.726  2.3137 -0.2829  0.1334
16267TIP3   OH270291   5.242   6.349   2.204  0.5934  0.4217  0.6010
16267TIP3    H170292   5.262   6.256   2.191 -1.1979 -0.2234  2.0124
16267TIP3    H270293   5.262   6.366   2.296 -0.7133  0.9396  0.8175
16268TIP3   OH270294   1.197   3.388   3.556 -0.2349  0.2259 -0.2366
16268TIP3    H170295   1.155   3.366   3.640 -0.0704  0.8485  0.0150
16268TIP3    H270296   1.142   3.346   3.490  0.9834 -2.3929  0.2774
16269TIP3   OH270297   5.985   0.623   0.479 -0.0126 -0.0422  0.2284
16269TIP3    H170298   5.939   0.612   0.562  1.3156  0.9661  1.1450
16269TIP3    H270299   5.992   0.718   0.468 -1.2222 -0.1375 -1.6629
16270TIP3   OH270300   1.397   4.841   1.817 -0.2293 -0.3543 -0.1583
16270TIP3    H170301   1.446   4.856   1.736 -1.3767 -0.6564 -0.9257
16270TIP3    H270302   1.460   4.799   1.875  1.7579  3.0397  0.4569
16271TIP3   OH270303   5.259   2.614  14.002 -0.0511 -0.1419  1.0435
16271TIP3    H170304   5.183   2.582  14.050 -0.6477  0.4705  0.5381
16271TIP3    H270305   5.310   2.662  14.066 -0.0666 -0.5869  1.3938
16272TIP3   OH270306   4.923   6.650   2.876 -0.0610  0.5201  0.0627
16272TIP3    H170307   5.014   6.657   2.846  0.1976  0.9682  0.9200
16272TIP3    H270308   4.917   6.711   2.950 -1.1114  0.6339 -0.0943
16273TIP3   OH270309   1.190   3.696   3.867  0.3872  1.1685 -0.2891
16273TIP3    H170310   1.149   3.775   3.902 -0.1925  0.2386  1.2035
16273TIP3    H270311   1.248   3.666   3.938  0.2710  0.0155 -0.6716
16274TIP3   OH270312   2.145   2.446  13.074  0.1743 -0.0660  0.0842
16274TIP3    H170313   2.219   2.486  13.119 -1.6799  2.1843  1.3130
16274TIP3    H270314   2.174   2.436  12.983  1.5930  1.8948  0.2675
16275TIP3   OH270315   5.603   2.044   5.301 -0.5359 -0.2767  0.1634
16275TIP3    H170316   5.585   2.052   5.395 -0.0727  2.9397  0.0841
16275TIP3    H270317   5.678   1.985   5.296 -1.1739 -1.3011  1.6875
16276TIP3   OH270318   7.016   0.668  15.165 -0.0335  0.5700  0.1054
16276TIP3    H170319   7.006   0.642  15.257 -0.8044  0.3853 -0.0225
16276TIP3    H270320   6.931   0.647  15.125  0.2597  0.7509 -0.6235
16277TIP3   OH270321   4.472   6.886   4.168 -0.2944 -0.2502  0.1033
16277TIP3    H170322   4.440   6.824   4.103 -0.4467  0.3611 -0.4205
16277TIP3    H270323   4.483   6.968   4.119  2.7403 -0.5687  0.0835
16278TIP3   OH270324   1.158   3.730  14.094 -0.0276  0.5705  0.3750
16278TIP3    H170325   1.131   3.807  14.043  0.6744  0.2364 -0.5260
16278TIP3    H270326   1.253   3.731  14.089 -0.0317 -1.1899 -0.9228
16279TIP3   OH270327   1.776   5.933  14.771  0.6854 -0.7197 -0.1197
16279TIP3    H170328   1.783   5.837  14.775  0.6142 -0.7937 -1.3885
16279TIP3    H270329   1.724   5.950  14.694 -0.3680  0.3275  0.7846
16280TIP3   OH270330   0.835   3.941  15.251 -0.3955  0.2593 -0.1090
16280TIP3    H170331   0.853   3.920  15.159 -0.8780 -0.2789 -0.0876
16280TIP3    H270332   0.902   3.894  15.300 -0.7572 -0.2768 -0.1283
16281TIP3   OH270333   1.761   6.791  11.787 -0.2892  0.3857 -0.5053
16281TIP3    H170334   1.681   6.806  11.737  1.3628  4.3779 -2.4625
16281TIP3    H270335   1.801   6.715  11.746 -1.2918  0.6738 -2.1269
16282TIP3   OH270336   7.251   4.283   4.140 -0.6190 -0.5552  0.3766
16282TIP3    H170337   7.273   4.324   4.224  1.4340 -0.3649 -0.1852
16282TIP3    H270338   7.285   4.194   4.147 -1.0526 -0.7536 -0.0072
16283TIP3   OH270339   7.162   5.000   5.086 -0.3360  0.2719 -0.2719
16283TIP3    H170340   7.196   4.979   5.173 -0.3146 -0.7252 -0.5080
16283TIP3    H270341   7.080   4.951   5.079 -0.2681  0.2254 -0.8611
16284TIP3   OH270342   0.546   4.336  14.852  0.3186 -0.2393  0.5014
16284TIP3    H170343   0.552   4.248  14.814  0.7786  0.3192 -0.7982
16284TIP3    H270344   0.536   4.321  14.946  0.1623 -1.6789  0.2832
16285TIP3   OH270345   3.572   6.242   1.518  0.3909 -0.2618  0.1169
16285TIP3    H170346   3.493   6.206   1.560  0.7020  0.4632  1.3735
16285TIP3    H270347   3.639   6.238   1.586  1.3088 -0.3534 -0.7688
16286TIP3   OH270348   4.240   6.847   4.613 -0.2126 -0.5765  0.3971
16286TIP3    H170349   4.291   6.830   4.534 -0.5482 -0.1827  0.0857
16286TIP3    H270350   4.174   6.778   4.615  0.5906 -1.3529  1.0426
16287TIP3   OH270351   2.367   6.105   5.233 -0.6050  0.2071  0.1161
16287TIP3    H170352   2.293   6.141   5.281 -1.8791  0.5983 -2.0010
16287TIP3    H270353   2.443   6.153   5.266 -1.5973  1.3390  0.8312
16288TIP3   OH270354   1.010   4.344  14.459 -0.7306  0.9195  0.0749
16288TIP3    H170355   0.938   4.280  14.460  1.0858 -1.2704  0.1691
16288TIP3    H270356   1.048   4.336  14.372  0.9796  0.0379  0.8395
16289TIP3   OH270357   5.652   7.121   0.881  0.3270 -0.3583  0.7951
16289TIP3    H170358   5.673   7.199   0.932  0.0086 -0.5785  1.2733
16289TIP3    H270359   5.683   7.141   0.793  0.1761  0.3369  0.8927
16290TIP3   OH270360   0.421   4.455   5.572 -0.1984  0.1353 -0.0551
16290TIP3    H170361   0.432   4.424   5.483 -2.2618  2.1034 -1.0946
16290TIP3    H270362   0.471   4.536   5.576  1.0953 -0.6709  1.0945
16291TIP3   OH270363   4.104   5.267   4.262  0.3205  0.3466  0.6445
16291TIP3    H170364   4.044   5.212   4.212 -0.2953  0.5336  1.1695
16291TIP3    H270365   4.083   5.250   4.353  0.3673  1.1778  0.8182
16292TIP3   OH270366   3.271   6.385  12.277  0.0791  0.0757 -0.1368
16292TIP3    H170367   3.356   6.352  12.306  0.9707  1.7426 -0.6923
16292TIP3    H270368   3.284   6.406  12.184 -0.9224  0.4068 -0.2166
16293TIP3   OH270369   6.641   1.185   4.089  0.0226  0.3694 -0.4003
16293TIP3    H170370   6.715   1.171   4.148 -0.9027 -3.6631  0.1424
16293TIP3    H270371   6.668   1.141   4.007 -2.2204 -2.9189  0.4059
16294TIP3   OH270372   2.100   3.948   2.631  1.2178 -0.2111 -0.8951
16294TIP3    H170373   2.011   3.926   2.661 -0.2025  4.3192 -1.0581
16294TIP3    H270374   2.096   3.935   2.536  1.0786 -0.9077 -0.8046
16295TIP3   OH270375   3.390   5.475   1.782 -0.2233  0.5025 -0.5924
16295TIP3    H170376   3.430   5.560   1.765  0.7605 -0.0293 -1.0273
16295TIP3    H270377   3.400   5.427   1.700  0.3594 -0.4671  0.0254
16296TIP3   OH270378   0.655   6.018   5.104 -0.2031 -0.0171  0.1442
16296TIP3    H170379   0.646   6.032   5.010 -0.3509  1.5134  0.3473
16296TIP3    H270380   0.588   6.075   5.143 -0.3888 -0.9003  1.1607
16297TIP3   OH270381   3.204   6.741   3.664 -0.5666 -0.8174  0.4012
16297TIP3    H170382   3.138   6.809   3.653 -0.4811 -0.8678 -0.4946
16297TIP3    H270383   3.171   6.667   3.612 -0.0595 -1.0153  0.3526
16298TIP3   OH270384   3.912   5.988   3.305 -0.1664 -0.5034 -0.0925
16298TIP3    H170385   3.975   5.930   3.261 -0.0598 -0.1598 -0.4034
16298TIP3    H270386   3.829   5.941   3.300 -0.4332  0.0891 -1.8462
16299TIP3   OH270387   3.308   6.635  10.790 -0.0685  0.0824 -0.1230
16299TIP3    H170388   3.336   6.709  10.843  0.8333 -0.6238  0.4099
16299TIP3    H270389   3.324   6.663  10.699 -0.2981  0.7601  0.0423
16300TIP3   OH270390   4.690   0.426   2.967  0.1327  0.4985  0.2664
16300TIP3    H170391   4.749   0.350   2.973  0.9096  0.7479 -2.6495
16300TIP3    H270392   4.728   0.490   3.027  1.0822 -0.4202  0.6973
16301TIP3   OH270393   5.190   1.570   4.534 -0.0598 -0.1718  0.3370
16301TIP3    H170394   5.198   1.570   4.439 -1.1882 -0.3309  0.2252
16301TIP3    H270395   5.096   1.578   4.550 -0.0826 -1.9947  1.4265
16302TIP3   OH270396   7.247   3.171  11.732 -0.7073 -0.4352  0.1699
16302TIP3    H170397   7.205   3.108  11.790 -1.6449 -1.0476 -1.1554
16302TIP3    H270398   7.244   3.131  11.646  1.0228  0.2897 -0.2692
16303TIP3   OH270399   0.556   6.005   2.725  0.7674  0.1279 -0.5336
16303TIP3    H170400   0.482   6.002   2.665  1.5403  1.3269 -1.5885
16303TIP3    H270401   0.554   6.093   2.761  1.2276 -0.0861  0.0391
16304TIP3   OH270402   0.559   7.184   4.055 -0.7272  0.0817  0.1657
16304TIP3    H170403   0.571   7.224   3.969 -0.6039 -0.1494  0.0761
16304TIP3    H270404   0.493   7.116   4.041  2.0025 -2.6051 -0.6057
16305TIP3   OH270405   5.015   4.030   4.358  0.1343 -0.2000 -0.0288
16305TIP3    H170406   4.935   4.019   4.305 -0.5135  0.2597  0.8178
16305TIP3    H270407   5.062   3.948   4.348  0.1534 -0.0296 -1.5112
16306TIP3   OH270408   4.261   3.871   2.931  0.6782  0.1206 -0.4847
16306TIP3    H170409   4.216   3.882   3.015  0.2389 -0.3993 -0.6507
16306TIP3    H270410   4.260   3.777   2.915 -0.5789  0.3254 -1.8008
16307TIP3   OH270411   4.503   2.420   1.509 -0.4345  0.1158  0.3081
16307TIP3    H170412   4.426   2.436   1.454  0.9067 -0.4105 -1.8647
16307TIP3    H270413   4.494   2.330   1.538 -1.9614  0.8795  2.4111
16308TIP3   OH270414   7.212   5.488   2.318  0.4153 -0.0820 -0.4598
16308TIP3    H170415   7.180   5.577   2.334 -0.3938 -0.3119 -0.7551
16308TIP3    H270416   7.307   5.496   2.321  0.3547  0.8338 -0.6922
16309TIP3   OH270417   3.367   7.182  14.873 -0.0254 -0.7875  0.2856
16309TIP3    H170418   3.342   7.226  14.792  1.4714 -1.9523 -0.8607
16309TIP3    H270419   3.448   7.136  14.851 -1.1666 -3.5947  1.5806
16310TIP3   OH270420   6.179   6.143   5.054  0.9506  0.4634  0.4723
16310TIP3    H170421   6.156   6.051   5.066 -0.5825  0.8467  0.6605
16310TIP3    H270422   6.107   6.191   5.095  0.9291  1.7616 -0.9982
16311TIP3   OH270423   5.393   6.857  11.157 -0.2405 -0.1549  0.2002
16311TIP3    H170424   5.422   6.928  11.099 -0.9423 -0.8242 -1.0115
16311TIP3    H270425   5.435   6.779  11.121  1.0639 -0.3076  1.9152
16312TIP3   OH270426   3.615   0.579   4.278  0.3480 -0.0465 -0.4538
16312TIP3    H170427   3.524   0.550   4.277  1.1612 -3.0755 -2.3352
16312TIP3    H270428   3.663   0.506   4.318  2.1477  0.5708 -1.3769
16313TIP3   OH270429   1.480   5.203   1.962  0.3941  0.3873 -0.6216
16313TIP3    H170430   1.398   5.154   1.967  0.7394 -0.2092 -0.7242
16313TIP3    H270431   1.468   5.277   2.022  0.4008 -0.6262  0.6673
16314TIP3   OH270432   0.940   6.768   3.287  0.4053  0.9204  0.0120
16314TIP3    H170433   1.030   6.735   3.288  0.7337  1.7463  1.6870
16314TIP3    H270434   0.939   6.833   3.217  0.6048 -0.3281 -1.1986
16315TIP3   OH270435   0.775   5.787  13.170  0.5075  0.0599  0.4066
16315TIP3    H170436   0.816   5.817  13.089  0.8028 -2.0629 -0.3043
16315TIP3    H270437   0.847   5.747  13.220 -0.0963 -0.7997  0.6161
16316TIP3   OH270438   1.669   2.404   5.623  0.6329 -0.3926 -0.3209
16316TIP3    H170439   1.696   2.321   5.663 -0.1140 -0.5111 -0.0427
16316TIP3    H270440   1.733   2.468   5.655 -0.4286 -0.3097  1.8023
16317TIP3   OH270441   0.951   3.624   2.984  0.1492 -0.2371  0.1729
16317TIP3    H170442   0.953   3.542   2.934 -0.4697  0.7444 -1.5566
16317TIP3    H270443   0.858   3.648   2.987  0.3635  0.6178  0.2691
16318TIP3   OH270444   0.342   3.835   3.683 -0.0493 -0.3944 -0.0160
16318TIP3    H170445   0.348   3.882   3.765 -2.3795  0.5886 -0.3109
16318TIP3    H270446   0.369   3.898   3.616  2.3067 -1.3383 -0.0296
16319TIP3   OH270447   1.707   6.860   0.458  0.1937  0.3114  0.3389
16319TIP3    H170448   1.616   6.863   0.430  0.1399  0.2716  0.5084
16319TIP3    H270449   1.754   6.914   0.394 -0.0273  0.7664  0.5611
16320TIP3   OH270450   3.309   0.296   3.573 -0.2205  0.6806  0.2369
16320TIP3    H170451   3.335   0.343   3.494  0.6371  0.6486  0.4927
16320TIP3    H270452   3.339   0.350   3.645  2.2326 -0.9618  0.5533
16321TIP3   OH270453   5.641   3.624   3.598  0.0480  0.4630  0.0519
16321TIP3    H170454   5.632   3.707   3.550  0.7613  0.4031 -0.1984
16321TIP3    H270455   5.605   3.558   3.538  1.0715  0.3686 -0.4816
16322TIP3   OH270456   2.559   4.755  14.379  0.1850  0.0310 -1.0033
16322TIP3    H170457   2.569   4.720  14.291  0.2991  0.8516 -1.3236
16322TIP3    H270458   2.509   4.688  14.426 -1.4067  0.3501 -2.1675
16323TIP3   OH270459   2.112   5.593   4.967  0.5658 -0.4653  0.4019
16323TIP3    H170460   2.207   5.599   4.954  0.7882  0.8157  2.1286
16323TIP3    H270461   2.077   5.668   4.920  0.5040 -0.4735  0.4358
16324TIP3   OH270462   3.707   1.505   4.980 -0.2391  0.3460 -0.3288
16324TIP3    H170463   3.667   1.589   5.003 -1.3833 -0.5717  1.2335
16324TIP3    H270464   3.652   1.440   5.023  2.1079 -1.0784  0.6994
16325TIP3   OH270465   3.373   5.121  12.974 -0.2803  0.2506 -0.1680
16325TIP3    H170466   3.312   5.134  12.901 -1.8869 -1.0290  0.8605
16325TIP3    H270467   3.322   5.073  13.039  1.4177  0.4320  1.3815
16326TIP3   OH270468   6.509   4.733  13.996 -0.1274  0.0824 -0.8664
16326TIP3    H170469   6.530   4.693  14.080  1.3014  1.3244 -0.5926
16326TIP3    H270470   6.424   4.695  13.972 -1.2465  0.6892  1.7656
16327TIP3   OH270471   6.078   5.301   5.241 -0.0724  0.0545 -0.3162
16327TIP3    H170472   6.142   5.352   5.291 -0.3996 -1.9560  2.4181
16327TIP3    H270473   5.994   5.344   5.259 -0.1335 -0.4126  0.5529
16328TIP3   OH270474   5.583   5.795   1.685 -0.0261  0.6785  0.3549
16328TIP3    H170475   5.674   5.768   1.696 -0.6092 -1.6364  0.0778
16328TIP3    H270476   5.576   5.818   1.593  0.3774  1.3682  0.4877
16329TIP3   OH270477   3.058   6.397   4.905  0.1607  0.7075  0.4646
16329TIP3    H170478   3.092   6.359   4.986  2.2701 -1.4746 -1.3001
16329TIP3    H270479   3.136   6.423   4.856 -1.1074  3.2343 -0.3873
16330TIP3   OH270480   1.682   5.305   4.690 -0.0612  0.1963  0.2249
16330TIP3    H170481   1.621   5.378   4.702  1.1024  1.0784  1.0606
16330TIP3    H270482   1.767   5.348   4.674  0.5204 -0.9879  0.0691
16331TIP3   OH270483   4.579   0.227  15.267  0.1266 -0.1096  0.1378
16331TIP3    H170484   4.623   0.194  15.189  1.4296  3.4847 -0.8740
16331TIP3    H270485   4.488   0.242  15.238 -0.0877 -1.2868  0.1681
16332TIP3   OH270486   4.835   0.461   4.833 -0.1855  0.1731  0.3041
16332TIP3    H170487   4.923   0.496   4.818  0.5046 -1.1384  1.0697
16332TIP3    H270488   4.783   0.537   4.857  0.3579  1.2124 -1.5993
16333TIP3   OH270489   4.443   5.127   3.107  0.2910 -0.0377  0.3429
16333TIP3    H170490   4.398   5.049   3.075 -0.5866  0.9403 -0.9032
16333TIP3    H270491   4.511   5.145   3.042  0.7845 -0.0068  0.8580
16334TIP3   OH270492   0.055   6.854  13.364 -0.0846 -0.6993 -0.4395
16334TIP3    H170493   0.004   6.921  13.319 -2.0977 -1.3228  0.8325
16334TIP3    H270494   0.037   6.867  13.457  2.2810 -0.8190  0.1050
16335TIP3   OH270495   4.642   4.767   4.261 -0.1364 -0.0030  0.2916
16335TIP3    H170496   4.560   4.785   4.307 -0.9576  0.1494 -1.1844
16335TIP3    H270497   4.699   4.730   4.329 -1.6041 -0.6478  1.2424
16336TIP3   OH270498   6.683   6.688   1.959  0.7583 -0.3464  0.0960
16336TIP3    H170499   6.681   6.691   1.863  0.1454  0.4316  0.1222
16336TIP3    H270500   6.736   6.764   1.984 -2.8539  2.3419  0.4459
16337TIP3   OH270501   2.817   1.306   4.712 -0.5873  0.0237  0.0501
16337TIP3    H170502   2.831   1.383   4.767  2.5836  0.1545 -0.7580
16337TIP3    H270503   2.823   1.232   4.772  7.0466 -0.1974 -0.0251
16338TIP3   OH270504   1.261   5.895  14.015  0.1296 -0.4491  0.0456
16338TIP3    H170505   1.228   5.871  13.929 -0.8916 -1.4236  0.6764
16338TIP3    H270506   1.194   5.953  14.052  0.4156 -0.2805  0.3102
16339TIP3   OH270507   3.000   7.073   1.098  0.3283  0.7327 -0.2622
16339TIP3    H170508   3.006   7.116   1.183 -2.4868  0.9560 -0.0926
16339TIP3    H270509   3.009   6.980   1.117 -1.0489  0.7189  0.4189
16340TIP3   OH270510   6.479   4.903   3.360  0.4950  0.3434  0.5417
16340TIP3    H170511   6.444   4.885   3.272  0.1854  0.4096  0.6522
16340TIP3    H270512   6.560   4.952   3.344 -0.4345  1.8414  0.3434
16341TIP3   OH270513   6.770   6.425   0.704 -0.1921 -0.7308  0.0396
16341TIP3    H170514   6.677   6.410   0.688 -0.5851 -0.4046  1.7893
16341TIP3    H270515   6.793   6.498   0.646 -0.7981 -1.3852 -1.0383
16342TIP3   OH270516   5.341   3.735   3.947  0.1914 -0.4809 -0.7776
16342TIP3    H170517   5.432   3.706   3.937  1.0309  1.5112  0.3847
16342TIP3    H270518   5.291   3.655   3.961  2.0082 -1.5221  0.1355
16343TIP3   OH270519   3.154   3.432  14.268 -0.6192  0.2209 -0.3405
16343TIP3    H170520   3.235   3.394  14.303 -1.4049  0.0654  1.4174
16343TIP3    H270521   3.087   3.366  14.286 -1.5276  1.2850  0.3141
16344TIP3   OH270522   0.636   2.402   1.870  0.2865 -0.7997 -0.0201
16344TIP3    H170523   0.616   2.316   1.906  0.7813 -0.9621 -0.1292
16344TIP3    H270524   0.697   2.441   1.933 -0.7232 -0.1131  0.5678
16345TIP3   OH270525   2.354   3.576   5.761 -0.0828  0.5081  0.6369
16345TIP3    H170526   2.359   3.658   5.811 -0.3955  0.5413  0.6118
16345TIP3    H270527   2.334   3.509   5.826  1.4902  0.2272  0.8880
16346TIP3   OH270528   5.656   0.322   5.691  0.1228 -0.4837 -0.3118
16346TIP3    H170529   5.683   0.369   5.769  1.2153 -1.9071  0.2134
16346TIP3    H270530   5.668   0.384   5.619  3.0681 -0.4334  0.1347
16347TIP3   OH270531   1.542   4.086   5.665 -0.1478  0.0377 -0.2861
16347TIP3    H170532   1.506   4.017   5.720 -0.1870  0.1623 -0.1545
16347TIP3    H270533   1.475   4.101   5.599  0.2475 -0.6931 -0.8757
16348TIP3   OH270534   5.448   4.818  12.108 -0.6649 -0.1992  0.3572
16348TIP3    H170535   5.385   4.802  12.038 -1.1622 -0.1878  0.7957
16348TIP3    H270536   5.529   4.778  12.077 -1.2852 -1.5673  0.4501
16349TIP3   OH270537   2.963   3.485   1.685 -0.0921 -0.2748 -0.2028
16349TIP3    H170538   2.944   3.575   1.660  0.4313 -0.1235 -0.0743
16349TIP3    H270539   3.015   3.450   1.612  2.5248  0.5523  1.1281
16350TIP3   OH270540   3.920   6.857   1.419  0.1211  0.6870  0.2704
16350TIP3    H170541   3.933   6.777   1.367  0.2213  0.7479  0.2026
16350TIP3    H270542   3.873   6.916   1.360 -0.0491  0.6394  0.3568
16351TIP3   OH270543   2.832   4.531   5.202  0.5301 -0.3793 -0.7374
16351TIP3    H170544   2.851   4.590   5.276  0.2813 -0.9438 -0.2151
16351TIP3    H270545   2.737   4.530   5.196  0.5440 -0.5013 -0.9311
16352TIP3   OH270546   6.912   6.781  13.710  0.2328 -0.2298 -0.4430
16352TIP3    H170547   6.844   6.800  13.775  2.1305  0.5946  1.4285
16352TIP3    H270548   6.936   6.690  13.726 -0.3753 -0.5135 -1.0886
16353TIP3   OH270549   2.027   6.815  10.602 -0.2868 -0.2188 -0.7434
16353TIP3    H170550   2.073   6.785  10.524 -0.1213 -1.5298 -0.1693
16353TIP3    H270551   1.970   6.885  10.571 -0.1447 -0.6481 -2.0188
16354TIP3   OH270552   1.285   1.772   5.231  0.4948 -0.0160 -0.8467
16354TIP3    H170553   1.282   1.823   5.311 -1.4690  0.6511 -1.3023
16354TIP3    H270554   1.235   1.693   5.251  0.2814  0.0002 -1.2998
16355TIP3   OH270555   2.389   3.219  11.339 -0.4702  0.1679  0.4752
16355TIP3    H170556   2.448   3.155  11.299  1.1297  1.1144  1.2579
16355TIP3    H270557   2.304   3.174  11.341  0.3415 -1.4806 -0.0785
16356TIP3   OH270558   1.249   5.681   3.974 -0.3321  0.1412 -0.4076
16356TIP3    H170559   1.236   5.755   4.033 -0.4287  0.4754 -0.8451
16356TIP3    H270560   1.343   5.665   3.975 -0.3556  0.0212 -0.0145
16357TIP3   OH270561   7.192   6.856  10.641 -0.2498  0.6301 -0.1627
16357TIP3    H170562   7.138   6.858  10.720  0.6653  0.2984  0.4827
16357TIP3    H270563   7.169   6.773  10.598 -0.5794  0.7048 -0.1324
16358TIP3   OH270564   5.975   4.415  13.895  0.3218 -0.7641  0.2665
16358TIP3    H170565   5.971   4.396  13.801 -2.3034 -1.7438  0.4810
16358TIP3    H270566   6.028   4.344  13.931  0.0001 -1.3140 -0.3140
16359TIP3   OH270567   4.841   3.690   4.235  0.5882  0.2999 -0.2916
16359TIP3    H170568   4.826   3.618   4.297  1.1685  0.7002  0.3298
16359TIP3    H270569   4.793   3.763   4.272 -0.7736  0.0094 -1.4078
16360TIP3   OH270570   7.134   6.457   3.356  0.3416 -0.5690 -0.3618
16360TIP3    H170571   7.211   6.511   3.374  0.9959 -1.6144  0.0340
16360TIP3    H270572   7.110   6.479   3.266  1.8637 -1.1221 -0.9408
16361TIP3   OH270573   3.255   5.292  12.680 -0.8179 -0.4421 -0.2527
16361TIP3    H170574   3.169   5.251  12.684 -0.4885 -1.0455  1.6933
16361TIP3    H270575   3.317   5.219  12.673 -0.3618 -0.1483  0.5914
16362TIP3   OH270576   3.280   5.542   3.423  0.1977 -0.0914  0.5357
16362TIP3    H170577   3.189   5.517   3.407  0.2467 -0.6224  1.0462
16362TIP3    H270578   3.315   5.562   3.336 -0.1009 -0.9393  0.2047
16363TIP3   OH270579   3.312   1.054  15.097  0.0709  0.2633  0.4175
16363TIP3    H170580   3.389   1.107  15.119  2.5614 -1.3981 -3.1897
16363TIP3    H270581   3.284   1.087  15.012 -1.3846 -1.0728  0.3347
16364TIP3   OH270582   2.811   3.365   3.215 -0.1149  0.6570 -0.7135
16364TIP3    H170583   2.841   3.287   3.167  2.4584 -0.4896  2.3621
16364TIP3    H270584   2.721   3.378   3.186  0.0511 -2.1613 -2.9500
16365TIP3   OH270585   1.693   2.431   4.584 -0.3232 -0.0510  0.1560
16365TIP3    H170586   1.761   2.400   4.644 -1.3067  0.5676  1.6708
16365TIP3    H270587   1.644   2.495   4.635 -2.6417 -1.1602 -0.5085
16366TIP3   OH270588   3.225   1.117   5.141 -0.1599  0.3824 -0.0407
16366TIP3    H170589   3.130   1.127   5.135  0.0320  1.6739 -1.4009
16366TIP3    H270590   3.256   1.203   5.170  0.7229  0.5778 -1.4927
16367TIP3   OH270591   0.935   1.584   5.136  0.1058 -0.5939 -0.0397
16367TIP3    H170592   0.958   1.663   5.087 -0.8730 -0.3406 -0.1097
16367TIP3    H270593   0.901   1.617   5.219 -2.3603 -0.8205 -0.8986
16368TIP3   OH270594   1.298   6.154  14.320  0.9059  1.0702 -0.1244
16368TIP3    H170595   1.253   6.222  14.370 -1.5812 -0.3139 -0.3192
16368TIP3    H270596   1.262   6.161  14.231  0.9765 -0.1570 -0.2692
16369TIP3   OH270597   2.768   6.578   2.503  0.6426 -0.0164 -0.2024
16369TIP3    H170598   2.723   6.540   2.579  0.0006 -0.3772 -0.7511
16369TIP3    H270599   2.860   6.557   2.517  0.3959 -1.0909 -0.0851
16370TIP3   OH270600   7.098   2.070   4.036  0.0406  0.3105 -0.7682
16370TIP3    H170601   7.103   1.978   4.063 -0.0184  0.3942 -0.4804
16370TIP3    H270602   7.162   2.115   4.091 -1.3059  0.7831  0.4725
16371TIP3   OH270603   3.670   5.213   3.195 -0.4642  0.0165 -0.0982
16371TIP3    H170604   3.704   5.181   3.111 -1.0650  0.2555 -0.4357
16371TIP3    H270605   3.748   5.220   3.250 -0.2545 -1.5825 -0.1478
16372TIP3   OH270606   1.817   1.166   0.594 -0.3483  0.2876  0.0102
16372TIP3    H170607   1.888   1.226   0.570 -0.7861 -0.2884 -3.2592
16372TIP3    H270608   1.748   1.223   0.627  0.5420  1.1819  0.3839
16373TIP3   OH270609   1.838   2.513  15.109  0.2053  0.1001  0.4104
16373TIP3    H170610   1.779   2.527  15.183  2.1724  1.9476  1.7558
16373TIP3    H270611   1.908   2.458  15.143  0.4435 -0.1774 -0.4878
16374TIP3   OH270612   4.776   0.674  11.739 -0.2172 -0.2249  0.4911
16374TIP3    H170613   4.735   0.742  11.686 -1.1142 -2.2225 -1.5637
16374TIP3    H270614   4.703   0.632  11.786  0.1107 -0.6957  0.5967
16375TIP3   OH270615   5.215   2.556   2.760  0.4591 -0.2998  0.0985
16375TIP3    H170616   5.257   2.501   2.694 -1.5540  0.0660 -1.5795
16375TIP3    H270617   5.274   2.630   2.770  0.6957 -0.2390 -1.5185
16376TIP3   OH270618   5.511   5.507   3.880 -0.0733 -0.0574  0.1183
16376TIP3    H170619   5.504   5.447   3.805  0.7433 -0.2927  0.2238
16376TIP3    H270620   5.604   5.508   3.902 -0.5007 -1.4256  2.2922
16377TIP3   OH270621   0.060   5.746   1.237 -0.4885 -0.2805  0.0909
16377TIP3    H170622   0.136   5.745   1.296 -0.1215 -1.2165 -0.3798
16377TIP3    H270623  -0.016   5.742   1.296 -0.2180  1.1310  0.5905
16378TIP3   OH270624   2.124   2.411   2.233  0.2336  0.3618  0.4210
16378TIP3    H170625   2.032   2.425   2.212  0.2675  1.5781  1.0241
16378TIP3    H270626   2.172   2.458   2.165  0.4216 -0.0325  0.2738
16379TIP3   OH270627   6.560   6.048   4.345 -0.4296 -0.1423  0.4272
16379TIP3    H170628   6.595   6.019   4.429 -0.4251  0.3865  0.6106
16379TIP3    H270629   6.608   6.128   4.325 -0.1521 -0.4743 -0.2714
16380TIP3   OH270630   2.090   0.623   1.868 -0.1185 -0.5503  0.8109
16380TIP3    H170631   2.054   0.673   1.942 -1.9686 -1.4682  0.5851
16380TIP3    H270632   2.140   0.553   1.909 -0.2013 -0.3932  1.1891
16381TIP3   OH270633   5.356   5.513  12.057 -0.3608 -0.2244 -0.5542
16381TIP3    H170634   5.266   5.496  12.084 -1.2513  0.7518 -2.7161
16381TIP3    H270635   5.353   5.600  12.017  1.5057 -0.2494 -0.8422
16382TIP3   OH270636   5.585   6.444   2.751 -0.4272  0.0304 -0.8688
16382TIP3    H170637   5.496   6.446   2.786 -0.2313  1.0244 -0.4121
16382TIP3    H270638   5.577   6.477   2.662 -0.8679 -2.1509 -1.7032
16383TIP3   OH270639   0.622   6.460  13.309  0.0589 -0.2028 -0.1968
16383TIP3    H170640   0.616   6.542  13.260  1.5629  0.1236  0.0979
16383TIP3    H270641   0.602   6.484  13.399  0.6216 -0.1262 -0.0894
16384TIP3   OH270642   1.731   4.150  13.453 -0.5265  0.0214 -0.6237
16384TIP3    H170643   1.790   4.225  13.441  2.0901 -1.6429  0.9063
16384TIP3    H270644   1.737   4.130  13.547  0.4940 -3.2644 -1.2562
16385TIP3   OH270645   1.350   4.522   4.191 -0.6233 -0.2592 -0.0605
16385TIP3    H170646   1.333   4.434   4.158 -3.6198  0.0113  0.4797
16385TIP3    H270647   1.348   4.578   4.114 -1.5458 -0.3360 -0.0945
16386TIP3   OH270648   3.456   3.670   5.413 -0.1800 -0.2003  0.1164
16386TIP3    H170649   3.436   3.582   5.444 -0.0456 -0.2441  0.0785
16386TIP3    H270650   3.430   3.669   5.321  1.8291 -0.8653 -0.4765
16387TIP3   OH270651   2.093   6.797   4.435  0.2143  0.2195  0.3789
16387TIP3    H170652   2.062   6.707   4.435  0.1222  0.2174 -1.5757
16387TIP3    H270653   2.036   6.842   4.497  0.5334 -1.1258  1.6995
16388TIP3   OH270654   1.383   6.787   3.776 -0.4714  0.9902 -0.7380
16388TIP3    H170655   1.377   6.775   3.871  0.9051  0.3531 -0.7103
16388TIP3    H270656   1.292   6.783   3.745 -0.9536  1.4622  0.5742
16389TIP3   OH270657   2.755   6.538   0.278  0.0791 -0.1159  0.7025
16389TIP3    H170658   2.835   6.565   0.324 -0.7314  0.2015  1.9884
16389TIP3    H270659   2.719   6.620   0.243  0.1952 -0.2291  0.3119
16390TIP3   OH270660   6.817   5.271   2.881 -0.4985 -0.4165 -0.0138
16390TIP3    H170661   6.735   5.220   2.887 -1.9419  1.6809 -0.7924
16390TIP3    H270662   6.843   5.283   2.973 -1.6553 -0.2463  0.3167
16391TIP3   OH270663   1.733   1.257  10.143 -0.1773  0.6318 -0.1394
16391TIP3    H170664   1.821   1.254  10.180 -0.1992  0.4557 -0.1041
16391TIP3    H270665   1.680   1.299  10.211 -0.3831 -0.4152  0.3540
16392TIP3   OH270666   7.022   4.002   5.729 -0.8416 -0.1421 -0.5701
16392TIP3    H170667   6.938   4.008   5.774 -0.5128 -1.7135  0.3036
16392TIP3    H270668   7.070   3.935   5.776  1.6820  1.9873  0.1555
16393TIP3   OH270669   4.976   5.283   2.893 -0.1286 -0.1459  0.5994
16393TIP3    H170670   4.935   5.197   2.905  0.6363 -0.3782  1.6234
16393TIP3    H270671   4.918   5.344   2.938 -0.9283 -0.0341 -0.5360
16394TIP3   OH270672   5.369   6.293   1.908  0.5396  0.9326  0.0167
16394TIP3    H170673   5.325   6.225   1.958 -1.1819  1.4948 -0.6264
16394TIP3    H270674   5.413   6.348   1.974  1.3193 -0.3397  0.5848
16395TIP3   OH270675   6.999   7.104   5.337  0.2987  0.4371  0.1778
16395TIP3    H170676   6.938   7.177   5.342 -2.3660 -1.6351  0.0342
16395TIP3    H270677   7.005   7.084   5.243  3.4314  2.2358 -0.1427
16396TIP3   OH270678   0.253   3.353  14.296 -0.0943  0.3794  0.3176
16396TIP3    H170679   0.157   3.348  14.291 -0.2032  2.3066 -1.8713
16396TIP3    H270680   0.277   3.300  14.372 -2.8760 -0.2625  0.8547
16397TIP3   OH270681   7.078   1.020   5.684  0.4237 -0.7410 -0.2593
16397TIP3    H170682   7.105   0.930   5.668  1.2847 -0.4453 -0.5368
16397TIP3    H270683   6.993   1.028   5.641 -0.7102 -2.0232  1.6133
16398TIP3   OH270684   3.221   6.038   5.246 -0.4393  0.4006  0.2892
16398TIP3    H170685   3.185   6.087   5.172 -0.6445 -0.9579 -0.5334
16398TIP3    H270686   3.186   6.083   5.323 -0.2003  1.8607 -0.4040
16399TIP3   OH270687   3.807   1.431   2.175 -0.2113 -0.5005 -0.6208
16399TIP3    H170688   3.880   1.370   2.182 -1.0008 -1.5334 -1.1857
16399TIP3    H270689   3.731   1.376   2.156 -1.6167  0.2285  2.2571
16400TIP3   OH270690   6.968   0.808   0.268 -0.4734  0.5217 -0.1720
16400TIP3    H170691   6.889   0.804   0.322 -1.1893  0.1008 -1.2302
16400TIP3    H270692   6.936   0.828   0.180  0.8613  4.1063 -0.0138
16401TIP3   OH270693   4.398   4.369   1.712  0.4622  0.3618 -0.4620
16401TIP3    H170694   4.493   4.377   1.723  0.3825 -0.2885  0.9935
16401TIP3    H270695   4.385   4.279   1.681  0.2803  0.1106  0.3084
16402TIP3   OH270696   2.078   3.729  14.012  0.2272  0.2814  0.0987
16402TIP3    H170697   2.097   3.638  13.987 -0.4528 -0.0539  0.7488
16402TIP3    H270698   2.056   3.772  13.929  1.1202  0.0127 -0.2957
16403TIP3   OH270699   7.164   4.298   0.011  0.8084 -0.3709  0.0850
16403TIP3    H170700   7.128   4.307   0.099  2.0141 -0.6089  0.6240
16403TIP3    H270701   7.099   4.247  -0.037 -0.1507  0.2947  0.6452
16404TIP3   OH270702   5.784   5.145  12.497  0.8269 -0.0369 -0.3214
16404TIP3    H170703   5.715   5.169  12.558  0.4393 -2.6241  0.3995
16404TIP3    H270704   5.750   5.067  12.452  2.8799 -0.8337 -0.6089
16405TIP3   OH270705   4.564   3.133   4.711  0.2349 -0.1297 -0.0863
16405TIP3    H170706   4.550   3.039   4.699  0.4107 -0.1186 -0.4148
16405TIP3    H270707   4.579   3.143   4.805 -0.3125 -0.3553  0.0277
16406TIP3   OH270708   1.884   0.695  15.091 -0.4563 -0.2073  0.1461
16406TIP3    H170709   1.797   0.663  15.116  0.1417 -1.4381  0.7786
16406TIP3    H270710   1.941   0.666  15.163  0.5808 -0.0200 -0.5886
16407TIP3   OH270711   0.057   7.137   0.004 -0.1981  0.3269 -0.0583
16407TIP3    H170712   0.008   7.109  -0.073  0.2377  2.8983 -1.3724
16407TIP3    H270713   0.116   7.205  -0.028 -0.4723  1.9955  2.6560
16408TIP3   OH270714   5.390   4.448   4.570  0.3006  0.3326 -0.2534
16408TIP3    H170715   5.465   4.391   4.588 -0.2676 -0.5352 -0.5816
16408TIP3    H270716   5.399   4.471   4.478 -0.1585 -0.2621 -0.4501
16409TIP3   OH270717   1.096   4.578   3.867  0.2137 -0.6004  0.5099
16409TIP3    H170718   1.109   4.620   3.782  1.3312  1.3131  1.5694
16409TIP3    H270719   1.072   4.488   3.845 -1.5239  0.3374 -1.8514
16410TIP3   OH270720   4.403   5.145  13.436  0.0044 -0.1289  0.0671
16410TIP3    H170721   4.329   5.171  13.491  1.1381  0.2597  1.4878
16410TIP3    H270722   4.480   5.175  13.485  1.0832 -0.0059 -1.6406
16411TIP3   OH270723   7.254   1.282   1.888 -0.5279 -0.5309 -0.0879
16411TIP3    H170724   7.243   1.377   1.890  0.9708 -0.3141 -0.7285
16411TIP3    H270725   7.298   1.264   1.805  2.1419 -1.3795  1.3706
16412TIP3   OH270726   0.941   0.856  15.042 -0.1620  0.1213  0.0761
16412TIP3    H170727   0.951   0.917  14.969  0.7668  0.1640  0.2379
16412TIP3    H270728   0.998   0.890  15.110  0.3384 -0.9098  0.1844
16413TIP3   OH270729   2.177   3.592   3.867  0.1280 -0.2345 -0.0532
16413TIP3    H170730   2.134   3.565   3.786 -1.5421 -0.8870  0.9918
16413TIP3    H270731   2.206   3.681   3.851 -0.8965 -0.0692 -1.1179
16414TIP3   OH270732   6.435   4.631   4.746  0.2953  0.6839 -0.3324
16414TIP3    H170733   6.388   4.677   4.676 -0.7573  0.2314  0.0577
16414TIP3    H270734   6.383   4.649   4.825  1.8882  1.8360  0.5011
16415TIP3   OH270735   1.493   4.523   5.330 -0.7508  0.1093  0.1506
16415TIP3    H170736   1.518   4.434   5.356  1.5422  0.1139 -1.7005
16415TIP3    H270737   1.406   4.512   5.290 -0.6070 -1.2508  0.1527
16416TIP3   OH270738   1.946   5.978   3.924 -0.1130  0.1003 -0.3190
16416TIP3    H170739   1.939   5.934   4.008 -1.2047 -0.0962 -0.5079
16416TIP3    H270740   2.040   5.977   3.905 -0.1018 -2.4157 -0.4503
16417TIP3   OH270741   3.993   3.309   1.284  0.2730  0.4067  0.1388
16417TIP3    H170742   4.033   3.242   1.339 -1.6323 -1.3613 -0.4980
16417TIP3    H270743   4.022   3.289   1.195  0.1290  0.7733  0.0024
16418TIP3   OH270744   0.845   6.536   2.119  0.2302 -0.0279 -0.2388
16418TIP3    H170745   0.811   6.457   2.078 -0.1945 -0.4079  0.8127
16418TIP3    H270746   0.940   6.522   2.123  0.0230 -1.1965  1.3514
16419TIP3   OH270747   0.569   6.587   0.766  0.1571  0.0145 -0.2095
16419TIP3    H170748   0.531   6.623   0.846 -0.8102  1.6169 -1.3230
16419TIP3    H270749   0.645   6.642   0.748  0.7761 -0.7642 -0.0691
16420TIP3   OH270750   5.676   5.758  11.894 -0.1967  0.1491 -0.7195
16420TIP3    H170751   5.688   5.676  11.941  0.5463  0.5362 -0.2248
16420TIP3    H270752   5.675   5.733  11.802  1.7256 -0.2487 -0.6764
16421TIP3   OH270753   2.770   1.780   3.973  0.4541  0.7475 -0.4817
16421TIP3    H170754   2.736   1.720   4.039 -0.5295  0.8329 -0.8992
16421TIP3    H270755   2.839   1.730   3.929  0.7121  0.4874  0.2166
16422TIP3   OH270756   0.503   4.559   3.330  0.2047 -0.3317  0.4037
16422TIP3    H170757   0.543   4.484   3.285 -0.0666 -0.4764  0.4030
16422TIP3    H270758   0.417   4.527   3.359 -0.4864  0.3837 -0.7862
16423TIP3   OH270759   1.702   1.248   3.261 -0.6639 -0.1148  0.2112
16423TIP3    H170760   1.627   1.206   3.220 -0.5172 -1.1857  1.0176
16423TIP3    H270761   1.740   1.181   3.318  0.5152  0.6113  0.3196
16424TIP3   OH270762   4.510   1.408   3.821 -0.0522  0.0045 -0.2720
16424TIP3    H170763   4.596   1.400   3.779 -0.3954 -0.7460 -0.8397
16424TIP3    H270764   4.487   1.501   3.810  0.4763  0.1085 -0.5321
16425TIP3   OH270765   3.784   5.524   1.672 -0.1275  0.0027  0.5994
16425TIP3    H170766   3.730   5.587   1.625  0.2892  0.0922  0.2305
16425TIP3    H270767   3.767   5.440   1.629 -0.7201 -0.1566  1.1221
16426TIP3   OH270768   1.427   1.748  13.555  0.4016  0.1690  0.1216
16426TIP3    H170769   1.367   1.751  13.480 -0.7013  0.2333  0.9804
16426TIP3    H270770   1.501   1.802  13.528 -0.8262  1.7955 -0.2134
16427TIP3   OH270771   6.023   2.351   2.932  0.1026 -0.1779 -0.5692
16427TIP3    H170772   5.932   2.379   2.920 -0.1313 -1.0752 -1.0118
16427TIP3    H270773   6.031   2.336   3.027  0.3208  1.6009 -0.2862
16428TIP3   OH270774   2.949   0.087   2.904  0.5845 -0.2622  0.1610
16428TIP3    H170775   2.930   0.018   2.841  0.3149 -0.3894  0.3752
16428TIP3    H270776   3.042   0.075   2.925  0.6854 -0.1896 -0.2439
16429TIP3   OH270777   1.240   2.309   5.295  0.2875 -0.0044 -0.2052
16429TIP3    H170778   1.177   2.321   5.225  1.7565  1.7860 -1.3136
16429TIP3    H270779   1.218   2.377   5.359  0.5291  0.0289 -0.1557
16430TIP3   OH270780   5.549   0.777   4.045  0.8255  0.1144 -0.0962
16430TIP3    H170781   5.623   0.791   4.104  0.7014  0.7143 -0.0713
16430TIP3    H270782   5.472   0.782   4.102  0.7812 -0.9739 -0.0438
16431TIP3   OH270783   0.454   3.608  10.785 -0.2228 -0.1205 -0.5016
16431TIP3    H170784   0.476   3.701  10.790 -1.7157  0.2921 -1.1602
16431TIP3    H270785   0.507   3.568  10.854  1.0950  1.0632 -0.7552
16432TIP3   OH270786   3.326   4.602   4.354 -0.1039  0.2031  0.0853
16432TIP3    H170787   3.397   4.555   4.310  0.5230  0.4378  0.8238
16432TIP3    H270788   3.248   4.581   4.303  0.3761 -0.6415 -0.3238
16433TIP3   OH270789   7.036   5.450  13.861  0.1508 -0.3073 -0.1074
16433TIP3    H170790   7.111   5.412  13.816  0.6977  1.0092 -0.3522
16433TIP3    H270791   7.058   5.444  13.954  1.7073  2.2040 -0.2240
16434TIP3   OH270792   4.817   2.114   2.129 -0.0103 -0.1473 -0.4071
16434TIP3    H170793   4.801   2.031   2.086 -0.1947 -0.3440  0.0294
16434TIP3    H270794   4.886   2.096   2.193  1.5316  0.5407 -1.8034
16435TIP3   OH270795   5.515   7.002   3.373  0.1272  0.4592 -0.2349
16435TIP3    H170796   5.505   7.019   3.467  0.0649  0.7225 -0.2869
16435TIP3    H270797   5.490   7.085   3.332 -2.8393 -0.5217 -0.6494
16436TIP3   OH270798   4.226   1.756   4.391 -0.1302 -0.2890  0.1771
16436TIP3    H170799   4.150   1.768   4.333 -0.1090  1.7364  0.5016
16436TIP3    H270800   4.197   1.790   4.476  0.4468 -1.5579  0.9259
16437TIP3   OH270801   2.315   3.398   2.336  0.2299 -0.0784 -0.1961
16437TIP3    H170802   2.406   3.399   2.365  0.1958 -0.2897 -0.0767
16437TIP3    H270803   2.316   3.347   2.255  0.4124  0.9815 -0.8769
16438TIP3   OH270804   6.982   6.523   2.925 -0.0606 -0.0589 -0.2721
16438TIP3    H170805   7.035   6.480   2.857 -0.3656  1.0404 -1.2443
16438TIP3    H270806   7.008   6.615   2.921 -0.9092  0.2199  0.3281
16439TIP3   OH270807   7.243   7.185   5.454  0.0859  0.5593 -0.2349
16439TIP3    H170808   7.172   7.154   5.397  1.0080 -1.5093 -0.3671
16439TIP3    H270809   7.222   7.147   5.540  0.9803 -0.0194 -0.2643
16440TIP3   OH270810   5.250   5.361   3.126  0.7601  0.4737  0.1982
16440TIP3    H170811   5.210   5.420   3.062  1.8419  1.3701  0.3171
16440TIP3    H270812   5.299   5.419   3.185  1.7114 -0.5268  0.4231
16441TIP3   OH270813   6.015   0.283  14.688  0.0428 -0.2448  0.5116
16441TIP3    H170814   5.933   0.257  14.646 -0.4931 -0.8609  1.8816
16441TIP3    H270815   6.037   0.367  14.647 -0.4600 -0.7813 -0.9313
16442TIP3   OH270816   6.181   0.064   4.744 -0.0138  0.1591 -0.1374
16442TIP3    H170817   6.169  -0.026   4.715 -0.6147  0.1958 -0.0122
16442TIP3    H270818   6.133   0.069   4.826 -0.7977  0.8484 -0.6246
16443TIP3   OH270819   5.865   5.429   2.585  0.1724 -0.4082 -0.2407
16443TIP3    H170820   5.812   5.493   2.633  0.4111  0.0269 -0.5462
16443TIP3    H270821   5.801   5.376   2.538  0.0251  1.2564 -2.0591
16444TIP3   OH270822   0.895   6.979   1.311  0.3029 -0.0922  0.1213
16444TIP3    H170823   0.973   7.021   1.348  0.5625  0.7585 -1.3335
16444TIP3    H270824   0.826   7.045   1.319  0.1606 -0.2046 -0.1674
16445TIP3   OH270825   4.925   3.145  14.643  0.3833 -0.5523 -0.1355
16445TIP3    H170826   4.872   3.112  14.716 -0.6328 -1.9252 -1.4261
16445TIP3    H270827   4.952   3.066  14.596  2.8144  0.1657 -0.0871
16446TIP3   OH270828   7.088   3.688   3.801  0.2408 -0.3440  0.4360
16446TIP3    H170829   7.115   3.780   3.802 -1.4143  0.2400 -1.4994
16446TIP3    H270830   7.165   3.640   3.770  0.8100  0.5153  0.4974
16447TIP3   OH270831   4.852   3.506   4.500  0.3643  0.1273 -0.0261
16447TIP3    H170832   4.912   3.441   4.463 -0.3218  0.7965 -2.4857
16447TIP3    H270833   4.778   3.456   4.532  1.0560 -0.4942  0.6347
16448TIP3   OH270834   1.523   5.303   5.237 -0.3009 -0.1264 -0.3488
16448TIP3    H170835   1.463   5.285   5.310 -0.7472 -0.4549 -0.7965
16448TIP3    H270836   1.467   5.309   5.160  0.2944 -1.0710 -0.8792
16449TIP3   OH270837   3.653   1.950  11.659  0.4773  0.3171 -0.1033
16449TIP3    H170838   3.692   2.018  11.604 -2.0252 -0.2601 -2.8194
16449TIP3    H270839   3.671   1.869  11.613  0.5753 -0.5448  1.3833
16450TIP3   OH270840   0.499   2.178   1.459  0.1816  0.2683  0.2651
16450TIP3    H170841   0.561   2.244   1.490  1.3444 -0.9395  0.6012
16450TIP3    H270842   0.468   2.135   1.539 -0.2121  0.0957  0.0212
16451TIP3   OH270843   7.038   1.785  14.578 -0.0455  0.4641  0.0547
16451TIP3    H170844   7.028   1.761  14.670 -1.3990  1.3199  0.1495
16451TIP3    H270845   7.092   1.864  14.579 -1.0695  1.1748  0.2157
16452TIP3   OH270846   1.747   3.317  12.118 -0.7313  0.1394  0.1767
16452TIP3    H170847   1.706   3.364  12.191  1.8083  2.3943  0.2977
16452TIP3    H270848   1.718   3.365  12.041 -0.8337 -0.2602 -0.0367
16453TIP3   OH270849   0.337   6.575   1.462 -0.7627 -0.6414  0.0886
16453TIP3    H170850   0.284   6.634   1.516 -0.1861 -0.6167  0.6347
16453TIP3    H270851   0.345   6.495   1.514  2.1710  0.3443  1.3957
16454TIP3   OH270852   4.648   6.895   5.311 -0.0034 -0.3464  0.6122
16454TIP3    H170853   4.608   6.918   5.227 -0.9990 -0.9706  0.9005
16454TIP3    H270854   4.741   6.883   5.291 -0.4174 -1.7159 -0.6631
16455TIP3   OH270855   3.541   4.692  12.710 -0.1154  0.3578  0.1101
16455TIP3    H170856   3.521   4.613  12.660  2.4321 -0.5954  0.4351
16455TIP3    H270857   3.608   4.665  12.773  0.7293  2.7056  0.3439
16456TIP3   OH270858   4.260   6.168   3.338 -0.3319 -0.1943 -0.2441
16456TIP3    H170859   4.287   6.079   3.320 -1.6365 -0.3608 -1.5328
16456TIP3    H270860   4.188   6.159   3.401 -0.4085 -0.0588 -0.3104
16457TIP3   OH270861   2.267   3.583  11.502 -0.6671  0.0139 -0.1842
16457TIP3    H170862   2.312   3.635  11.568 -1.1276 -1.3293  1.2502
16457TIP3    H270863   2.235   3.507  11.549 -3.9444  0.5864 -1.2471
16458TIP3   OH270864   6.820   5.299   4.868 -0.1973 -0.0257 -0.5446
16458TIP3    H170865   6.900   5.305   4.920 -0.2438  0.2151 -0.4969
16458TIP3    H270866   6.850   5.301   4.777 -0.2654  2.7779 -0.6003
16459TIP3   OH270867   0.411   4.633   4.511 -0.0326  0.0793 -0.4538
16459TIP3    H170868   0.340   4.574   4.537 -0.1058  1.0326  1.6954
16459TIP3    H270869   0.486   4.604   4.562  1.2072 -0.9090 -2.6939
16460TIP3   OH270870   1.782   6.499   4.284  0.3874 -0.5120  0.3984
16460TIP3    H170871   1.812   6.469   4.198 -0.3812  0.3866 -0.1999
16460TIP3    H270872   1.733   6.425   4.320 -0.6049 -0.3755 -0.6154
16461TIP3   OH270873   5.763   5.465   5.507 -0.0439 -0.0310  0.2672
16461TIP3    H170874   5.731   5.381   5.539  1.2871 -0.9416 -0.6447
16461TIP3    H270875   5.723   5.530   5.564 -2.3355 -1.1527  0.0310
16462TIP3   OH270876   0.672   3.431   5.195  1.0586 -0.1913 -0.2138
16462TIP3    H170877   0.681   3.488   5.272 -0.7057 -0.0094 -0.1128
16462TIP3    H270878   0.752   3.378   5.196  3.3827  2.9885 -0.9658
16463TIP3   OH270879   3.966   4.657  11.996  0.5198 -0.9178  0.5573
16463TIP3    H170880   3.982   4.597  12.069 -0.0728 -1.0776  0.5635
16463TIP3    H270881   4.034   4.723  12.004 -0.7486  0.2480  2.5213
16464TIP3   OH270882   4.932   5.422  13.349  0.4389 -0.2149 -0.2650
16464TIP3    H170883   4.896   5.486  13.411 -0.6296 -0.9961 -0.0610
16464TIP3    H270884   4.870   5.424  13.275  1.3163  0.1895 -1.0131
16465TIP3   OH270885   5.312   4.155  13.052 -0.0682 -0.4614  0.4052
16465TIP3    H170886   5.344   4.101  13.125 -0.6009  0.2406  1.1679
16465TIP3    H270887   5.347   4.242  13.069  1.9058 -0.7959 -1.5346
16466TIP3   OH270888   1.355   5.933   3.363  0.4813 -0.2802 -0.2434
16466TIP3    H170889   1.450   5.938   3.351  0.5608 -0.6342  0.1951
16466TIP3    H270890   1.344   5.887   3.446 -0.0984 -1.7540 -1.1056
16467TIP3   OH270891   1.840   4.244   4.442 -0.3396  0.5310  0.1943
16467TIP3    H170892   1.892   4.248   4.362  0.2811 -1.4129  0.4506
16467TIP3    H270893   1.778   4.172   4.427 -1.3978  1.2781  0.8032
16468TIP3   OH270894   3.422   2.717  14.399 -0.2011 -0.2084  0.2584
16468TIP3    H170895   3.348   2.659  14.382 -0.1138 -0.5181  0.9213
16468TIP3    H270896   3.499   2.662  14.388 -0.0557  0.1152 -0.4375
16469TIP3   OH270897   6.554   4.988  13.555  0.4083 -0.0121 -0.0204
16469TIP3    H170898   6.518   4.911  13.598  0.1383 -0.7625 -1.4965
16469TIP3    H270899   6.571   4.959  13.465 -1.6038  2.1497 -1.2251
16470TIP3   OH270900   5.998   6.781  10.665  0.2233 -0.3953 -0.5668
16470TIP3    H170901   6.025   6.866  10.697  0.1993 -0.3080 -0.7782
16470TIP3    H270902   5.932   6.800  10.598  0.9612 -0.5428 -1.3455
16471TIP3   OH270903   2.318   2.506   1.117  0.8564 -0.2514  0.0411
16471TIP3    H170904   2.312   2.493   1.211  1.0775 -0.0154  0.0882
16471TIP3    H270905   2.382   2.442   1.087  1.8542  0.6213  0.2552
16472TIP3   OH270906   6.196   4.406   2.632  0.0298  0.4547 -0.3270
16472TIP3    H170907   6.187   4.441   2.720  0.7148 -0.4050  0.0956
16472TIP3    H270908   6.128   4.339   2.626  0.5105 -0.0535 -0.1595
16473TIP3   OH270909   1.691   0.551  11.266  0.6512 -0.7556 -0.2391
16473TIP3    H170910   1.623   0.618  11.250  1.9294  0.2423 -1.8787
16473TIP3    H270911   1.659   0.474  11.219 -0.2180 -0.9067  0.5712
16474TIP3   OH270912   6.978   6.505   5.598 -0.6050  0.7691  0.2943
16474TIP3    H170913   7.067   6.473   5.585 -0.6012  1.1337 -0.6280
16474TIP3    H270914   6.932   6.430   5.637  0.0349  0.5056  0.5725
16475TIP3   OH270915   7.192   5.882   4.858  0.3925  0.4708  0.1615
16475TIP3    H170916   7.114   5.880   4.913  0.1838 -0.8369 -0.1448
16475TIP3    H270917   7.247   5.811   4.893 -0.6684 -1.9231 -2.5558
16476TIP3   OH270918   6.535   6.135   0.075 -0.0694  0.3032  0.0185
16476TIP3    H170919   6.490   6.219   0.063 -0.5005 -0.0228 -0.7256
16476TIP3    H270920   6.474   6.070   0.041  0.5435 -0.2454 -0.0550
16477TIP3   OH270921   3.322   4.417  13.829 -0.2063 -0.4923  0.5037
16477TIP3    H170922   3.372   4.416  13.911  0.7880 -0.9635 -0.0892
16477TIP3    H270923   3.231   4.429  13.857  0.2399  0.6738  1.5998
16478TIP3   OH270924   3.138   2.447  14.642  0.4930 -0.4000 -0.3340
16478TIP3    H170925   3.190   2.429  14.721  0.0840 -1.6829 -0.3305
16478TIP3    H270926   3.062   2.495  14.674  1.0573  0.4048 -0.1689
16479TIP3   OH270927   4.986   1.551   0.525  0.2716 -0.6218  0.3310
16479TIP3    H170928   4.985   1.537   0.430 -1.0938 -2.8506  0.5824
16479TIP3    H270929   4.998   1.463   0.561  0.0105  0.0944  2.2314
16480TIP3   OH270930   0.900   5.743   3.267 -0.0515  0.2980 -0.0054
16480TIP3    H170931   0.921   5.655   3.300  0.4686 -0.0354 -1.1753
16480TIP3    H270932   0.941   5.746   3.180 -0.1094  1.6808 -0.0015
16481TIP3   OH270933   2.190   2.674   4.800  0.3511  0.3116  0.0535
16481TIP3    H170934   2.249   2.723   4.857  0.2164  0.3143  0.1888
16481TIP3    H270935   2.161   2.739   4.736  1.0708  0.1422 -0.4633
16482TIP3   OH270936   2.738   1.290   3.576  0.6503  0.6271  0.3206
16482TIP3    H170937   2.760   1.234   3.502  0.9623  1.2191 -0.0400
16482TIP3    H270938   2.725   1.377   3.538 -3.7162  0.1882  0.2257
16483TIP3   OH270939   4.800   6.684   2.365  0.9225  0.7028 -0.0529
16483TIP3    H170940   4.851   6.765   2.356  1.4402  0.9553  3.6228
16483TIP3    H270941   4.855   6.628   2.419 -1.2371 -0.3660  1.1498
16484TIP3   OH270942   3.152   1.528   1.781 -0.3955 -0.3550 -0.3559
16484TIP3    H170943   3.190   1.544   1.868 -0.1298 -1.2194 -0.3030
16484TIP3    H270944   3.184   1.441   1.757  1.7218  0.8830 -2.4587
16485TIP3   OH270945   2.870   1.096  13.804 -0.8052  0.3717 -0.1345
16485TIP3    H170946   2.794   1.090  13.747 -0.1880 -1.1609 -0.8495
16485TIP3    H270947   2.833   1.101  13.892 -1.7571  2.2675 -0.5869
16486TIP3   OH270948   0.315   4.077   2.275 -0.3919 -0.1847  0.2915
16486TIP3    H170949   0.229   4.099   2.311 -0.2131 -0.5689  0.9748
16486TIP3    H270950   0.367   4.156   2.289 -0.8932  0.4165 -1.0340
16487TIP3   OH270951   1.690   0.525   5.032  0.1393 -0.4372  0.0229
16487TIP3    H170952   1.693   0.540   4.937 -2.0257 -0.2967 -0.0842
16487TIP3    H270953   1.661   0.434   5.040 -0.4559 -0.2100  0.5191
16488TIP3   OH270954   6.361   0.394   3.309  0.1139 -0.3644 -0.5946
16488TIP3    H170955   6.281   0.411   3.358 -0.4180  1.6921 -2.0411
16488TIP3    H270956   6.414   0.472   3.323  1.9656 -1.7363  0.4168
16489TIP3   OH270957   6.315   7.178  12.680  0.4503  0.1830 -0.0622
16489TIP3    H170958   6.254   7.104  12.681  0.3454  0.2370  1.8280
16489TIP3    H270959   6.366   7.166  12.600 -1.3213 -0.4381 -1.1707
16490TIP3   OH270960   3.722   3.350   4.217 -0.0169  0.0627  0.4117
16490TIP3    H170961   3.659   3.293   4.261 -0.2822 -0.4005 -0.5271
16490TIP3    H270962   3.709   3.331   4.124 -0.1208  1.6664  0.0686
16491TIP3   OH270963   2.707   5.146   4.099 -0.4982  0.6939 -0.6738
16491TIP3    H170964   2.649   5.195   4.042 -2.3440 -0.3754  0.1970
16491TIP3    H270965   2.666   5.152   4.186  1.2896  0.8132  0.2164
16492TIP3   OH270966   1.476   0.233   0.816  0.3412 -0.1597 -0.9596
16492TIP3    H170967   1.405   0.297   0.821  0.5481 -0.0226  0.6615
16492TIP3    H270968   1.537   0.270   0.752 -0.7041  0.0476 -1.8703
16493TIP3   OH270969   4.989   3.668   1.049 -0.3616 -0.6750 -0.5085
16493TIP3    H170970   4.915   3.706   1.002 -0.2793 -0.0436 -0.1324
16493TIP3    H270971   5.063   3.679   0.990 -0.6074 -1.5920 -1.0223
16494TIP3   OH270972   6.058   2.310  12.368 -0.2383 -0.1807 -0.1155
16494TIP3    H170973   5.998   2.362  12.315  0.7771  2.2996  1.0183
16494TIP3    H270974   6.010   2.295  12.450 -0.5073 -1.0407 -0.4184
16495TIP3   OH270975   0.908   3.197   1.329 -0.1242 -0.6204  0.2209
16495TIP3    H170976   0.829   3.211   1.277  0.1326  0.3068  0.0597
16495TIP3    H270977   0.970   3.159   1.267 -0.4305 -1.3407  0.3453
16496TIP3   OH270978   2.596   2.651   0.862  0.4448  0.3260 -0.2631
16496TIP3    H170979   2.505   2.623   0.847  0.7277 -1.5410  1.1297
16496TIP3    H270980   2.630   2.670   0.775 -1.4760  1.8071 -0.7606
16497TIP3   OH270981   3.819   5.440   4.746  0.1001  0.3997  0.0437
16497TIP3    H170982   3.832   5.474   4.657 -0.6524  0.3345 -0.0964
16497TIP3    H270983   3.849   5.511   4.803 -1.1163  1.1918 -0.2477
16498TIP3   OH270984   3.375   0.363   0.971  0.2855  0.5462 -0.1538
16498TIP3    H170985   3.376   0.276   1.010  1.0649  0.3922 -0.5103
16498TIP3    H270986   3.282   0.388   0.972 -0.0121 -0.4877 -0.4985
16499TIP3   OH270987   2.300   2.673  13.538 -0.3258 -0.1470  0.3127
16499TIP3    H170988   2.285   2.622  13.618  0.4466  0.0518  0.5906
16499TIP3    H270989   2.356   2.618  13.484 -1.5052 -0.6351 -0.4722
16500TIP3   OH270990   5.487   4.930   1.519  0.2650  0.2928 -0.0009
16500TIP3    H170991   5.477   4.947   1.425 -0.2314 -0.8041 -0.1652
16500TIP3    H270992   5.398   4.917   1.551  0.5402 -1.2282  0.2201
16501TIP3   OH270993   6.124   0.094  11.712  0.2304  0.2692  0.3275
16501TIP3    H170994   6.187   0.025  11.689  2.4340  1.1820  2.9992
16501TIP3    H270995   6.054   0.048  11.758  0.7207 -0.4005  0.4202
16502TIP3   OH270996   5.962   5.959   1.058 -0.1899  0.3807 -0.7385
16502TIP3    H170997   5.997   6.019   0.992 -0.0325 -0.9084 -1.8562
16502TIP3    H270998   5.881   6.002   1.088 -0.5068  0.7815 -2.0898
16503TIP3   OH270999   4.470   4.905   3.464 -0.1551 -0.0622 -0.6307
16503TIP3    H171000   4.448   4.830   3.521 -0.5942 -0.4743 -1.3334
16503TIP3    H271001   4.515   4.866   3.389 -0.6458  0.3452 -1.1434
16504TIP3   OH271002   1.218   2.342  12.123 -0.3142  0.7412  0.0559
16504TIP3    H171003   1.211   2.270  12.186 -0.2573  2.1031  1.7013
16504TIP3    H271004   1.288   2.397  12.158 -0.9455  2.0536 -0.6651
16505TIP3   OH271005   4.696   3.285   1.597  0.4448 -0.3242 -0.4261
16505TIP3    H171006   4.732   3.328   1.674  1.8850  0.8585 -1.7066
16505TIP3    H271007   4.764   3.223   1.570 -1.1805 -2.7990  0.8041
16506TIP3   OH271008   1.990   1.376   1.289 -0.0788  0.0108  0.1861
16506TIP3    H171009   1.979   1.448   1.350  0.6069  0.3166 -0.0416
16506TIP3    H271010   1.928   1.394   1.218 -0.1833  0.1638  0.3163
16507TIP3   OH271011   7.240   5.622  12.450  0.2345  0.2736  0.1901
16507TIP3    H171012   7.214   5.714  12.456 -0.5778  0.0669 -0.0578
16507TIP3    H271013   7.225   5.587  12.538  1.4195  0.5857  0.5400
16508TIP3   OH271014   0.236   4.968  13.349 -0.3129 -0.8198  0.3881
16508TIP3    H171015   0.262   5.019  13.272  3.0406  0.1075  1.9105
16508TIP3    H271016   0.173   5.024  13.394 -1.1271 -0.6916 -0.8617
16509TIP3   OH271017   2.199   4.769   3.974  0.7386  0.0234  0.0595
16509TIP3    H171018   2.275   4.773   3.916  0.9219  1.8491  0.3664
16509TIP3    H271019   2.237   4.770   4.062  0.3949 -0.6240  0.2209
16510TIP3   OH271020   6.734   1.073   0.832 -0.1439 -0.4033  0.3455
16510TIP3    H171021   6.777   1.050   0.915 -1.5727  0.8890  1.4826
16510TIP3    H271022   6.656   1.018   0.830 -0.4213 -0.0018  0.1375
16511TIP3   OH271023   6.032   4.246  11.988 -0.1618 -0.2963  0.2727
16511TIP3    H171024   5.975   4.245  12.065 -0.5220  0.2381  0.0127
16511TIP3    H271025   6.119   4.266  12.024 -0.6112  1.7121  0.3783
16512TIP3   OH271026   2.198   2.821   4.341 -0.0004  0.0712  0.1047
16512TIP3    H171027   2.270   2.871   4.301 -1.2106  1.5329 -0.3150
16512TIP3    H271028   2.124   2.834   4.282 -0.4852 -1.9358  0.1928
16513TIP3   OH271029   4.916   5.059   2.364 -0.5952 -0.3126 -0.3846
16513TIP3    H171030   4.985   5.056   2.430  0.7438 -0.2020 -1.7089
16513TIP3    H271031   4.959   5.096   2.286 -1.9768 -0.8585 -1.4600
16514TIP3   OH271032   0.106   3.234  10.214 -0.7603  0.2079 -0.3111
16514TIP3    H171033   0.011   3.217  10.217 -0.4925 -1.3809  1.7868
16514TIP3    H271034   0.127   3.266  10.302  0.6203  0.9210 -0.8713
16515TIP3   OH271035   5.040   4.625  12.883  0.0965  0.7100  0.3160
16515TIP3    H171036   5.067   4.713  12.856  2.3888  0.1354  0.5470
16515TIP3    H271037   4.999   4.639  12.969 -0.5673  1.6541 -0.1287
16516TIP3   OH271038   0.490   3.365  11.816  0.1594  0.2669  0.4236
16516TIP3    H171039   0.566   3.314  11.846  1.2984  0.5480 -1.7571
16516TIP3    H271040   0.431   3.300  11.779 -0.3186  0.1326  1.3955
16517TIP3   OH271041   2.850   1.762  15.081  0.3028  0.2406  0.3394
16517TIP3    H171042   2.871   1.796  14.994 -1.4987  0.6515  0.0219
16517TIP3    H271043   2.851   1.838  15.138 -2.2286  0.6993 -0.0887
16518TIP3   OH271044   5.619   4.222   5.008  0.5549  0.0180  0.2869
16518TIP3    H171045   5.623   4.242   5.102  0.4234 -1.9683  0.7569
16518TIP3    H271046   5.709   4.232   4.977  0.5156  1.1559  0.4908
16519TIP3   OH271047   0.450   3.199   4.389 -0.5936  0.7755  0.2182
16519TIP3    H171048   0.539   3.166   4.398 -1.0106 -1.5747 -2.6714
16519TIP3    H271049   0.459   3.294   4.389  2.4904  0.7166 -3.4826
16520TIP3   OH271050   6.121   2.258   2.042 -0.0297  0.0527  0.2910
16520TIP3    H171051   6.155   2.310   2.115  2.1902 -0.1714 -0.4973
16520TIP3    H271052   6.081   2.322   1.984  0.0419  0.4980  0.7218
16521TIP3   OH271053   4.937   6.538   2.581 -0.5395  0.6231 -0.0094
16521TIP3    H171054   4.866   6.572   2.636  0.4087 -1.1331  2.4968
16521TIP3    H271055   5.002   6.608   2.580 -1.3797  1.4129 -0.5211
16522TIP3   OH271056   5.219   4.428  12.110 -0.1709 -0.0272 -0.3361
16522TIP3    H171057   5.219   4.367  12.183  0.7614  0.6020  0.2159
16522TIP3    H271058   5.176   4.381  12.039  0.5017 -1.3162  0.0832
16523TIP3   OH271059   6.752   2.491   0.832 -0.4316  0.3907  0.1967
16523TIP3    H171060   6.659   2.512   0.845 -0.4833  0.1803  0.1647
16523TIP3    H271061   6.792   2.574   0.807 -0.5450  0.5592  0.5706
16524TIP3   OH271062   1.460   0.706   4.843  0.3772  0.5092  0.2769
16524TIP3    H171063   1.552   0.721   4.866  0.7445 -2.3760  1.0870
16524TIP3    H271064   1.433   0.633   4.899 -1.0238 -1.8306 -3.1360
16525TIP3   OH271065   4.773   1.209   0.719  0.5861  0.0619 -0.6262
16525TIP3    H171066   4.742   1.190   0.631  1.4918  1.4591 -1.3005
16525TIP3    H271067   4.727   1.290   0.744  0.7569 -0.0110 -0.0516
16526TIP3   OH271068   2.747   1.304   1.246  0.0722  0.1097  0.1099
16526TIP3    H171069   2.713   1.240   1.307  0.8884 -1.2454 -0.7947
16526TIP3    H271070   2.747   1.387   1.294  0.2559 -0.8212  1.7522
16527TIP3   OH271071   5.577   1.796   0.298  0.2819 -0.3559  0.0515
16527TIP3    H171072   5.602   1.818   0.388 -0.6206 -2.5292  0.8985
16527TIP3    H271073   5.605   1.872   0.247  1.7594  0.5081  1.9923
16528TIP3   OH271074   5.357   4.338   1.281  0.0624  0.0574  0.4956
16528TIP3    H171075   5.424   4.379   1.226  0.2042 -1.7558 -0.7721
16528TIP3    H271076   5.407   4.291   1.348 -0.0683  1.0487  1.3144
16529TIP3   OH271077   1.178   5.205   1.881  0.1182  0.1182 -0.7098
16529TIP3    H171078   1.164   5.278   1.821  0.8168  1.1421  0.3323
16529TIP3    H271079   1.182   5.245   1.968 -0.6551 -1.3016  0.0172
16530TIP3   OH271080   3.956   6.186  14.836 -0.8192 -0.3375 -0.2443
16530TIP3    H171081   3.971   6.228  14.920 -1.1862  1.4789 -1.0308
16530TIP3    H271082   3.902   6.249  14.787 -1.5682 -1.8290 -1.4328
16531TIP3   OH271083   2.331   0.033   3.578 -0.2623 -0.0049 -0.0419
16531TIP3    H171084   2.364   0.095   3.513 -0.4215  0.7541  0.5766
16531TIP3    H271085   2.236   0.035   3.567 -0.2682 -0.1473 -0.0244
16532TIP3   OH271086   4.982   6.240  14.693  0.1163 -0.5650 -0.2727
16532TIP3    H171087   4.901   6.270  14.734  1.0525  2.4093 -0.3454
16532TIP3    H271088   5.014   6.170  14.750 -1.8974 -1.0322  0.3532
16533TIP3   OH271089   2.156   5.334   2.769  0.4850  0.8524  0.3219
16533TIP3    H171090   2.222   5.271   2.738  0.6829  1.9126 -1.5508
16533TIP3    H271091   2.204   5.389   2.831  1.4627  1.7145 -1.1351
16534TIP3   OH271092   0.875   6.781   2.437 -0.1258  0.3801  0.3325
16534TIP3    H171093   0.887   6.780   2.342  2.2121  1.0687  0.5705
16534TIP3    H271094   0.942   6.722   2.471  0.0597  1.2898  1.6306
16535TIP3   OH271095   6.169   2.281   5.005  0.7639  0.2072 -0.3236
16535TIP3    H171096   6.207   2.369   5.007  1.8707 -0.0805  4.5209
16535TIP3    H271097   6.087   2.289   5.055  0.6172 -1.3874 -0.2479
16536TIP3   OH271098   7.063   2.323   1.698 -0.3128  0.1343 -0.6188
16536TIP3    H171099   7.088   2.369   1.618 -1.0798  0.7211 -0.5303
16536TIP3    H271100   6.967   2.323   1.697 -0.3380  0.5272  0.5089
16537TIP3   OH271101   1.642   5.007   3.189 -0.0711  0.5806  0.1339
16537TIP3    H171102   1.550   4.990   3.212 -0.5487 -0.1306 -2.0743
16537TIP3    H271103   1.690   4.936   3.231 -0.4892  1.0151  1.3960
16538TIP3   OH271104   7.087   4.253   2.613 -0.0836  0.2917  0.1346
16538TIP3    H171105   7.176   4.247   2.648  0.2602  1.4667 -0.4880
16538TIP3    H271106   7.063   4.345   2.622 -0.6076  0.3152 -1.1642
16539TIP3   OH271107   3.059   0.669   4.692  0.0046 -0.1791  0.0956
16539TIP3    H171108   2.980   0.614   4.689 -0.7826  0.9680 -1.0454
16539TIP3    H271109   3.026   0.758   4.687  1.3744  0.3407  0.0975
16540TIP3   OH271110   6.500   4.098  12.915  0.3336  0.6967 -0.5435
16540TIP3    H171111   6.548   4.017  12.896  0.5660  0.6996  0.0224
16540TIP3    H271112   6.420   4.091  12.863  0.2071 -0.0453 -0.2601
16541TIP3   OH271113   3.730   2.774   3.358 -0.1561  0.1784 -0.0950
16541TIP3    H171114   3.771   2.706   3.305  3.8988  1.4704  1.0113
16541TIP3    H271115   3.704   2.841   3.295 -1.3113 -0.9643 -0.8967
16542TIP3   OH271116   3.423   0.477   0.262  0.3816 -0.3426 -0.0642
16542TIP3    H171117   3.344   0.517   0.227  0.7315 -0.6831 -1.3029
16542TIP3    H271118   3.494   0.511   0.207  1.0317 -0.5016  0.6446
16543TIP3   OH271119   6.241   1.192   3.027 -0.0508  0.0224 -0.4060
16543TIP3    H171120   6.237   1.251   2.952 -0.2417 -0.6667 -0.9427
16543TIP3    H271121   6.229   1.250   3.103  0.1700  0.7259 -0.8947
16544TIP3   OH271122   6.311   6.978   4.058  0.3539 -1.0389  0.0391
16544TIP3    H171123   6.359   6.900   4.085  1.3461 -0.6936 -0.6860
16544TIP3    H271124   6.303   7.031   4.137  1.8494 -0.7500  0.0127
16545TIP3   OH271125   0.812   6.679   1.298 -0.1259 -0.7291  0.5078
16545TIP3    H171126   0.883   6.742   1.287 -0.2148 -0.5937  0.7083
16545TIP3    H271127   0.784   6.690   1.389 -0.9033 -0.2595  0.2219
16546TIP3   OH271128   4.199   4.502   4.145 -0.0045  0.1180  0.0147
16546TIP3    H171129   4.132   4.435   4.154  0.0207  0.2550  1.3597
16546TIP3    H271130   4.156   4.572   4.094 -0.8796  0.1929  0.8369
16547TIP3   OH271131   3.465   7.108   3.388  0.0508  0.0896  0.7625
16547TIP3    H171132   3.495   7.162   3.316 -0.5287  0.1802  0.5840
16547TIP3    H271133   3.514   7.026   3.380 -0.3506 -0.0807 -0.0136
16548TIP3   OH271134   3.415   6.534   2.434 -0.1822 -0.1644 -0.7167
16548TIP3    H171135   3.472   6.562   2.362 -1.7675  0.5437 -1.7605
16548TIP3    H271136   3.414   6.609   2.494 -2.4343  1.1677 -2.2695
16549TIP3   OH271137   5.239   5.561   4.688 -0.2193  0.2447  0.8884
16549TIP3    H171138   5.318   5.554   4.741 -0.5098 -2.3954  1.1165
16549TIP3    H271139   5.268   5.541   4.599 -0.1306  2.5089  0.3301
16550TIP3   OH271140   3.102   7.142  13.067 -0.1927 -0.6234  0.2047
16550TIP3    H171141   3.015   7.132  13.106 -0.5465 -0.4116 -0.5219
16550TIP3    H271142   3.090   7.121  12.975 -0.0047  1.8919 -0.4598
16551TIP3   OH271143   4.710   3.375  11.016 -0.1636  0.3346 -0.3035
16551TIP3    H171144   4.706   3.282  11.039  0.7886  0.1044 -0.9993
16551TIP3    H271145   4.629   3.391  10.966 -0.4748 -0.0433  0.0765
16552TIP3   OH271146   3.188   0.047   3.611 -0.2559 -0.0482 -0.5782
16552TIP3    H171147   3.242   0.126   3.601  0.5180 -0.5929 -0.8271
16552TIP3    H271148   3.116   0.075   3.667 -0.2798  0.9733 -1.0770
16553TIP3   OH271149   5.203   6.790   0.668 -0.2437 -0.3191  0.1815
16553TIP3    H171150   5.288   6.816   0.705 -0.1662  0.2006 -0.3483
16553TIP3    H271151   5.142   6.856   0.700 -0.2371 -0.0558 -0.3385
16554TIP3   OH271152   1.218   1.917   4.109 -0.1075  0.3283  0.3899
16554TIP3    H171153   1.305   1.952   4.087  0.4040  0.4955  2.4463
16554TIP3    H271154   1.162   1.995   4.116 -0.3226  0.2593 -0.4227
16555TIP3   OH271155   5.433   1.658  13.880 -0.0007 -0.1202  0.4767
16555TIP3    H171156   5.524   1.671  13.908 -0.0566  0.8347  0.2520
16555TIP3    H271157   5.389   1.739  13.906 -0.2242  0.5033 -1.6737
16556TIP3   OH271158   6.343   5.128   2.542 -0.0607 -0.3001  1.0825
16556TIP3    H171159   6.433   5.097   2.547  0.0621 -0.0377  0.5966
16556TIP3    H271160   6.316   5.138   2.633  1.2405  2.0201  1.2893
16557TIP3   OH271161   2.888   6.176  14.239 -0.0577 -0.2033  0.5193
16557TIP3    H171162   2.917   6.092  14.204  0.0352  0.4906 -1.1972
16557TIP3    H271163   2.804   6.192  14.196 -0.6016  0.0997  1.6524
16558TIP3   OH271164   5.120   3.235  13.125  0.5738  0.9705 -0.3376
16558TIP3    H171165   5.027   3.255  13.131  0.3749  0.0127 -0.1638
16558TIP3    H271166   5.161   3.293  13.190  0.2515  2.2238 -1.2062
16559TIP3   OH271167   2.461   3.829   5.054  0.0092 -0.3897 -0.3548
16559TIP3    H171168   2.550   3.795   5.064  0.4551  1.0089  0.9321
16559TIP3    H271169   2.449   3.885   5.131 -0.0094  3.6247 -2.9622
16560TIP3   OH271170   1.502   2.922   4.186  0.2262  0.4785 -0.2020
16560TIP3    H171171   1.475   2.850   4.244  1.5918 -0.1008 -0.2252
16560TIP3    H271172   1.531   2.878   4.106  2.2487  0.8971  0.2284
16561TIP3   OH271173   5.109   1.517  13.643 -0.1180  0.3795 -0.4646
16561TIP3    H171174   5.059   1.460  13.584  0.4280 -2.1939  1.3680
16561TIP3    H271175   5.194   1.527  13.600  0.1821 -1.2378 -0.2959
16562TIP3   OH271176   6.662   6.844   4.931  0.2003 -0.6749  0.3821
16562TIP3    H171177   6.604   6.846   4.854  1.5899 -0.0863 -0.6934
16562TIP3    H271178   6.750   6.844   4.894  0.9123  0.4322  1.9874
16563TIP3   OH271179   2.207   2.408   4.865 -0.0723  0.6403 -0.6735
16563TIP3    H171180   2.140   2.378   4.804  1.8650  0.0789 -2.6812
16563TIP3    H271181   2.220   2.500   4.843 -0.7157  0.9552  0.2454
16564TIP3   OH271182   6.773   3.345   3.016 -0.2878 -0.0947  0.2160
16564TIP3    H171183   6.753   3.252   3.008 -0.7838  0.0560 -0.3908
16564TIP3    H271184   6.854   3.356   2.966 -0.3904 -0.1523  0.0336
16565TIP3   OH271185   2.284   1.037   2.783 -0.2998  0.0356  0.2062
16565TIP3    H171186   2.203   1.050   2.833  0.2948 -0.4781  1.3250
16565TIP3    H271187   2.260   0.973   2.716 -1.4307  1.6457 -1.0122
16566TIP3   OH271188   5.602   0.389   3.876 -0.3404  0.4646  0.2733
16566TIP3    H171189   5.552   0.381   3.957  0.0738  0.4629  0.5342
16566TIP3    H271190   5.660   0.312   3.876 -0.3239  0.4750 -0.0125
16567TIP3   OH271191   5.432   2.834  12.245  0.2518  0.3057 -0.0864
16567TIP3    H171192   5.350   2.883  12.251  0.0304 -0.0145 -0.4127
16567TIP3    H271193   5.464   2.829  12.335 -0.3949 -0.0733  0.1290
16568TIP3   OH271194   5.194   3.405   2.621  0.1249 -0.0818  0.1870
16568TIP3    H171195   5.195   3.501   2.617  1.0745 -0.0221  1.3676
16568TIP3    H271196   5.265   3.378   2.563 -0.2847 -0.1028 -0.3208
16569TIP3   OH271197   0.329   4.626   2.064 -0.9319 -0.0505 -0.3706
16569TIP3    H171198   0.234   4.611   2.060 -0.9847  0.4029 -0.8448
16569TIP3    H271199   0.339   4.720   2.051 -0.3271 -0.3019 -1.9648
16570TIP3   OH271200   0.505   0.777  11.811 -0.4050 -0.9900  0.5074
16570TIP3    H171201   0.432   0.743  11.862 -1.3454  1.4434  0.9253
16570TIP3    H271202   0.539   0.850  11.864 -1.0757  1.2994 -2.0033
16571TIP3   OH271203   4.546   5.186  15.139  0.0243  0.8789 -0.3187
16571TIP3    H171204   4.556   5.280  15.123 -0.1434  1.1341  0.9413
16571TIP3    H271205   4.551   5.146  15.052  1.4889  1.9196 -0.7548
16572TIP3   OH271206   3.531   5.932   3.536 -0.5465  0.4028 -0.1192
16572TIP3    H171207   3.450   5.884   3.520  0.5541 -1.7623  0.3457
16572TIP3    H271208   3.593   5.894   3.474  0.7046  0.2987  1.1493
16573TIP3   OH271209   0.138   4.837   2.296 -0.1389  0.0400  0.1421
16573TIP3    H171210   0.210   4.899   2.301 -0.7246  0.6654  1.2189
16573TIP3    H271211   0.155   4.775   2.367 -1.3792  1.0250  1.3679
16574TIP3   OH271212   2.193   3.801  14.888  0.1952  0.2305  0.6880
16574TIP3    H171213   2.178   3.786  14.982 -4.3915  1.2868  0.3382
16574TIP3    H271214   2.172   3.717  14.847 -0.2124  0.4338  0.4729
16575TIP3   OH271215   2.255   0.811   2.623  0.1911 -0.3852  0.5005
16575TIP3    H171216   2.307   0.732   2.640  1.1397  0.7603  3.5471
16575TIP3    H271217   2.167   0.778   2.606  0.5982 -2.1295  1.5086
16576TIP3   OH271218   3.862   1.698   0.097  0.4331  1.1372  0.4411
16576TIP3    H171219   3.805   1.730   0.167  1.2287  3.2850  0.1535
16576TIP3    H271220   3.946   1.740   0.113  1.1129  0.3207 -0.8450
16577TIP3   OH271221   3.946   5.315  12.548 -0.3278  0.5644 -0.1826
16577TIP3    H171222   4.009   5.378  12.514 -0.1727  0.2537 -0.4711
16577TIP3    H271223   3.997   5.260  12.608  0.2049 -1.1076 -2.0909
16578TIP3   OH271224   4.707   6.193   0.915  0.3642  0.1262  0.1626
16578TIP3    H171225   4.747   6.165   0.998 -2.1180 -0.6825  1.2136
16578TIP3    H271226   4.698   6.288   0.923  0.1835  0.0588  0.8377
16579TIP3   OH271227   6.268   3.823   4.438  0.4520 -0.6067 -0.0934
16579TIP3    H171228   6.253   3.914   4.462 -2.3236 -1.3782  1.5723
16579TIP3    H271229   6.203   3.804   4.371 -0.0632 -1.7440  0.6957
16580TIP3   OH271230   6.094   6.516  12.275  0.4978 -0.3023 -0.2895
16580TIP3    H171231   6.144   6.492  12.198  1.6755  0.3387  0.2531
16580TIP3    H271232   6.108   6.611  12.285  1.4996 -0.5785  1.4515
16581TIP3   OH271233   3.133   3.386   3.814  0.0115  0.2156  0.0305
16581TIP3    H171234   3.224   3.363   3.831 -0.0793  0.0803  0.3547
16581TIP3    H271235   3.124   3.382   3.719  0.1023 -0.7251  0.0470
16582TIP3   OH271236   2.750   0.225   4.254 -0.1494  0.8066  0.2736
16582TIP3    H171237   2.733   0.130   4.252 -0.4770  0.8482  0.7822
16582TIP3    H271238   2.743   0.253   4.163  2.4222 -0.0696 -0.2840
16583TIP3   OH271239   2.731   4.446   2.956  0.3828  0.0933 -0.2929
16583TIP3    H171240   2.690   4.378   3.009  3.1239 -1.5578 -0.0959
16583TIP3    H271241   2.748   4.404   2.872  0.9745  0.9474 -0.6132
16584TIP3   OH271242   4.549   5.812  13.379  0.0396  0.2509  0.1297
16584TIP3    H171243   4.529   5.747  13.311  4.4214  0.5475 -1.8167
16584TIP3    H271244   4.545   5.896  13.334  1.1687  0.6254  0.6823
16585TIP3   OH271245   1.602   5.495  14.719  0.0935 -0.5570 -0.2369
16585TIP3    H171246   1.663   5.421  14.728  1.8982  0.8572 -0.2159
16585TIP3    H271247   1.561   5.503  14.805 -0.3917 -1.7349 -0.3412
16586TIP3   OH271248   4.143   2.366  12.986  0.1848  0.4105  0.4762
16586TIP3    H171249   4.237   2.349  12.980 -0.1285 -1.3104 -0.1749
16586TIP3    H271250   4.109   2.293  13.037 -0.8496  0.8617  0.4568
16587TIP3   OH271251   6.787   2.718   1.687 -0.5953  0.1114 -0.7454
16587TIP3    H171252   6.737   2.642   1.716 -0.8522  0.8792  0.9667
16587TIP3    H271253   6.723   2.789   1.681  0.0254  0.7615  0.0764
16588TIP3   OH271254   5.667   5.098  13.789  0.3618  0.0943 -0.1532
16588TIP3    H171255   5.677   5.128  13.879 -1.3763 -1.0647  0.4834
16588TIP3    H271256   5.695   5.006  13.792  1.2837  0.3343 -1.0411
16589TIP3   OH271257   0.662   2.608   0.280  0.1015 -0.3575 -0.5664
16589TIP3    H171258   0.649   2.683   0.221 -0.3348 -0.7338 -0.9644
16589TIP3    H271259   0.755   2.586   0.271  0.3746  0.5344  0.0448
16590TIP3   OH271260   6.372   0.607   3.780  0.2696  0.2981 -0.0812
16590TIP3    H171261   6.288   0.640   3.811  0.0925 -0.8579  0.7601
16590TIP3    H271262   6.437   0.669   3.815 -0.1405  0.5388  0.2582
16591TIP3   OH271263   5.836   6.006  14.696  0.2508 -0.2612 -0.8433
16591TIP3    H171264   5.899   5.985  14.627  0.6761 -2.1606  0.0622
16591TIP3    H271265   5.770   5.938  14.690 -0.1361  0.0133  0.0911
16592TIP3   OH271266   4.559   1.534   5.675  0.3182  0.2568 -0.6445
16592TIP3    H171267   4.475   1.560   5.638  0.0133  0.5424  0.2191
16592TIP3    H271268   4.619   1.531   5.601 -0.9223 -2.0972 -1.6606
16593TIP3   OH271269   4.855   4.420   4.063  0.2472 -0.3164 -0.3418
16593TIP3    H171270   4.943   4.382   4.068  0.2264 -0.5059 -1.2240
16593TIP3    H271271   4.823   4.418   4.154  1.2515  0.0183  0.0376
16594TIP3   OH271272   2.064   1.617  13.677  0.4076 -0.0663 -0.4418
16594TIP3    H171273   2.156   1.611  13.653  0.4967  3.2873 -1.4916
16594TIP3    H271274   2.018   1.571  13.607  1.1971  0.6759 -1.4910
16595TIP3   OH271275   2.739   0.995  10.752 -0.3116 -0.3728 -0.9793
16595TIP3    H171276   2.709   1.079  10.717  0.9840 -0.4619 -2.4362
16595TIP3    H271277   2.675   0.972  10.819 -2.3802  0.3438 -2.5963
16596TIP3   OH271278   0.007   4.701   1.139  0.1767  0.5470  0.8976
16596TIP3    H171279  -0.081   4.713   1.101  0.4746 -0.1000 -0.0387
16596TIP3    H271280   0.057   4.776   1.107 -0.0450  0.9537  1.4893
16597TIP3   OH271281   2.011   2.391   3.528 -0.1937 -0.1961  0.8360
16597TIP3    H171282   2.041   2.300   3.535  0.3209 -0.0188  0.9682
16597TIP3    H271283   1.926   2.385   3.483  1.3593 -0.4792 -2.3101
16598TIP3   OH271284   2.120   2.125   0.618 -0.7124 -0.1421  0.4858
16598TIP3    H171285   2.171   2.202   0.643  1.0114 -0.7951 -0.8145
16598TIP3    H271286   2.061   2.110   0.692  0.7632  0.8729  1.9291
16599TIP3   OH271287   3.339   5.856  13.065  0.7421  0.3844 -0.4566
16599TIP3    H171288   3.336   5.777  13.011 -0.3256  0.7346 -0.9537
16599TIP3    H271289   3.430   5.863  13.094  0.8789 -0.9232 -0.5438
16600TIP3   OH271290   2.083   1.145   1.111 -0.3726 -0.1351  0.1777
16600TIP3    H171291   1.998   1.158   1.153 -0.4001  0.9002 -0.1647
16600TIP3    H271292   2.075   1.060   1.067 -1.6529  0.4660 -0.8288
16601TIP3   OH271293   3.673   4.953   4.713  0.2900  0.0323  0.3224
16601TIP3    H171294   3.623   4.875   4.688 -0.5582  0.8333 -0.6063
16601TIP3    H271295   3.639   4.976   4.799 -0.1534 -0.0792  0.1820
16602TIP3   OH271296   3.996   6.370   2.686  0.4486  0.5007 -0.2730
16602TIP3    H171297   3.933   6.298   2.688  0.1779  0.3835 -4.2595
16602TIP3    H271298   3.943   6.449   2.676  0.8612  0.9002  0.5432
16603TIP3   OH271299   6.242   2.864  14.350 -0.1039  0.3246 -0.2271
16603TIP3    H171300   6.147   2.861  14.364 -0.2047  0.3762 -0.8635
16603TIP3    H271301   6.256   2.815  14.269  0.4686 -0.0623  0.0964
16604TIP3   OH271302   4.526   2.694   1.288  0.0804 -0.0258  0.2237
16604TIP3    H171303   4.554   2.624   1.229 -0.3269 -0.2365  0.2750
16604TIP3    H271304   4.430   2.690   1.286  0.0605  0.1090  0.7196
16605TIP3   OH271305   6.245   3.470  13.521 -0.1011 -0.0373  0.7650
16605TIP3    H171306   6.287   3.527  13.457 -0.8348  1.6533  1.7408
16605TIP3    H271307   6.260   3.512  13.606 -1.3997 -0.8309  1.4273
16606TIP3   OH271308   2.796   3.192   2.136 -0.1460 -0.1144 -0.1344
16606TIP3    H171309   2.824   3.229   2.220 -0.4084  0.9714 -0.5130
16606TIP3    H271310   2.788   3.267   2.078  0.2841 -0.8776 -1.2175
16607TIP3   OH271311   1.297   2.419   3.940 -0.2534  0.1210 -0.7095
16607TIP3    H171312   1.288   2.393   3.848  1.0474  0.8089 -1.0549
16607TIP3    H271313   1.312   2.513   3.938  1.4396 -0.0789  0.0546
16608TIP3   OH271314   5.730   6.075   5.534  0.5029  0.3617 -1.0873
16608TIP3    H171315   5.670   6.007   5.566 -0.2978  1.0762 -1.0360
16608TIP3    H271316   5.804   6.026   5.497  0.5980 -0.5143  0.1974
16609TIP3   OH271317   5.009   0.328   3.115  0.9542 -0.2606  0.2195
16609TIP3    H171318   5.005   0.421   3.092  2.4138 -0.2933 -0.2488
16609TIP3    H271319   4.991   0.325   3.209 -1.1167  0.2692 -0.1167
16610TIP3   OH271320   5.354   1.623   3.760 -0.6223  0.5012 -0.4111
16610TIP3    H171321   5.309   1.540   3.775 -0.5043  0.4182 -0.5166
16610TIP3    H271322   5.379   1.654   3.847  1.3907 -0.7016 -0.5093
16611TIP3   OH271323   3.811   6.011  13.314 -0.0312  0.1176  0.3648
16611TIP3    H171324   3.788   6.075  13.381  0.3056  0.0733  0.5243
16611TIP3    H271325   3.846   6.064  13.242  1.5674  0.0278  1.0462
16612TIP3   OH271326   4.881   0.691   4.652  0.5942  0.3722 -0.4675
16612TIP3    H171327   4.818   0.761   4.666  2.0325  1.8113 -0.8743
16612TIP3    H271328   4.961   0.723   4.694  0.8287 -1.8259  0.8986
16613TIP3   OH271329   1.684   6.819   3.225  0.6229  0.2124 -0.1448
16613TIP3    H171330   1.666   6.900   3.178 -1.8495 -0.1679  0.0218
16613TIP3    H271331   1.709   6.848   3.313 -1.4282  0.8304  0.2846
16614TIP3   OH271332   5.480   1.594   4.714  0.1530  0.5286 -0.4454
16614TIP3    H171333   5.557   1.538   4.725  0.5302  1.1445  0.1391
16614TIP3    H271334   5.411   1.535   4.685 -0.0295 -0.6573  2.1536
16615TIP3   OH271335   4.405   5.592   5.469  0.1764  0.1724  0.0441
16615TIP3    H171336   4.412   5.550   5.555  0.1826  1.2366  0.5722
16615TIP3    H271337   4.326   5.554   5.431  0.6182 -0.9214  0.1669
16616TIP3   OH271338   5.572   0.738   2.052  0.5122  0.9346 -0.3879
16616TIP3    H171339   5.547   0.703   1.966 -2.6162  0.2075  0.6756
16616TIP3    H271340   5.534   0.826   2.053 -1.6729  0.0522  1.0550
16617TIP3   OH271341   1.851   4.233   2.275 -0.3222  0.1146  0.5146
16617TIP3    H171342   1.905   4.249   2.353 -0.1942  1.2762  0.1925
16617TIP3    H271343   1.882   4.148   2.243 -0.2432 -0.2990  1.6086
16618TIP3   OH271344   2.149   1.886   5.711  0.0929  0.2159 -0.1121
16618TIP3    H171345   2.199   1.840   5.779 -0.1742 -1.9401 -1.2969
16618TIP3    H271346   2.062   1.848   5.716  0.2102 -0.3443 -1.9938
16619TIP3   OH271347   4.280   5.175   5.030 -0.2325  0.2132 -0.2931
16619TIP3    H171348   4.250   5.137   5.113 -1.3438  1.7574  0.0503
16619TIP3    H271349   4.375   5.175   5.037 -0.3008 -0.0217  0.8275
16620TIP3   OH271350   2.358   2.901   3.805 -0.3472 -0.4017 -0.3129
16620TIP3    H171351   2.352   2.806   3.793  0.9860 -0.7404  1.3853
16620TIP3    H271352   2.395   2.932   3.722  1.9866 -1.7752  0.0980
16621TIP3   OH271353   2.635   6.133  13.528 -0.0023  0.5799 -0.3252
16621TIP3    H171354   2.588   6.216  13.528  0.1154  0.6649 -1.5312
16621TIP3    H271355   2.722   6.154  13.562  0.3611  1.1752 -1.5642
16622TIP3   OH271356   0.921   6.327  12.852  0.1890  0.2275 -0.3637
16622TIP3    H171357   0.935   6.245  12.899 -1.2409 -1.4422 -2.6314
16622TIP3    H271358   0.983   6.324  12.779  0.9064  1.7431  0.1454
16623TIP3   OH271359   6.459   4.690   5.071  0.1065 -0.2959  0.5928
16623TIP3    H171360   6.365   4.677   5.084  0.1322 -0.6697  0.4050
16623TIP3    H271361   6.499   4.660   5.153  0.0253  0.3375  0.8680
16624TIP3   OH271362   3.036   4.604   0.415 -0.0627 -0.7841 -0.4235
16624TIP3    H171363   3.089   4.614   0.495 -0.5883 -2.1883  0.1291
16624TIP3    H271364   3.031   4.692   0.379  2.0891 -0.4856 -0.1387
16625TIP3   OH271365   4.881   1.552   3.181  0.3481 -0.7339  0.0434
16625TIP3    H171366   4.957   1.599   3.217 -0.1203  0.0868 -0.0028
16625TIP3    H271367   4.911   1.518   3.097  0.4533  0.2189 -0.3178
16626TIP3   OH271368   1.022   4.405   3.561  0.0860 -0.5503 -0.0976
16626TIP3    H171369   0.977   4.479   3.602 -0.3780  0.2955 -2.0313
16626TIP3    H271370   1.052   4.352   3.635  0.5388  1.6143  1.3770
16627TIP3   OH271371   6.867   6.598   0.023 -0.5222  0.1465 -0.1604
16627TIP3    H171372   6.870   6.505   0.001 -0.4452  0.1448 -0.1423
16627TIP3    H271373   6.952   6.616   0.063 -0.4232  0.2971 -0.4442
16628TIP3   OH271374   3.061   4.069   4.671  0.0457 -0.4743  0.0798
16628TIP3    H171375   3.119   4.001   4.706 -0.7093 -1.1244  0.0900
16628TIP3    H271376   3.044   4.127   4.745  1.5893  0.3875 -0.1975
16629TIP3   OH271377   4.059   0.182   9.348  0.0029  0.2278  0.1779
16629TIP3    H171378   4.142   0.185   9.395 -0.0868  2.8231  0.2668
16629TIP3    H271379   4.083   0.206   9.258 -0.6414  1.0767  0.2263
16630TIP3   OH271380   1.755   4.247  15.009 -0.2029  0.2351  0.0434
16630TIP3    H171381   1.818   4.319  14.998 -0.2997  0.3054 -0.0526
16630TIP3    H271382   1.669   4.290  15.009 -0.1773  0.4547  2.6546
16631TIP3   OH271383   3.029   2.101   2.016 -0.3359  0.1096  0.3031
16631TIP3    H171384   3.066   2.031   1.963 -1.3881 -0.5663  0.4251
16631TIP3    H271385   3.055   2.079   2.106  0.1722  0.4240  0.2338
16632TIP3   OH271386   6.198   2.097   3.333  0.1303 -0.3802 -0.3930
16632TIP3    H171387   6.256   2.045   3.277 -0.5248 -0.8696 -0.6288
16632TIP3    H271388   6.219   2.067   3.422  0.6883 -0.0906 -0.4234
16633TIP3   OH271389   2.645   6.366   2.090 -0.0785  0.1456  0.7494
16633TIP3    H171390   2.683   6.338   2.173 -1.5545  1.7521  2.0697
16633TIP3    H271391   2.621   6.458   2.105 -0.2528  0.5300 -1.5247
16634TIP3   OH271392   6.316   5.687   2.812  0.4114  0.7505  0.1321
16634TIP3    H171393   6.305   5.592   2.817  3.2024  0.2592 -1.1897
16634TIP3    H271394   6.280   5.711   2.726  1.4240  0.5522 -0.3610
16635TIP3   OH271395   7.106   0.240   3.294 -0.2350  0.2316 -0.1884
16635TIP3    H171396   7.136   0.323   3.330 -1.4565  0.1827  1.0182
16635TIP3    H271397   7.037   0.263   3.232  0.0207  0.1471 -0.5129
16636TIP3   OH271398   4.514   1.731  12.141  0.2204 -0.4987  0.3851
16636TIP3    H171399   4.468   1.703  12.220  0.1879  0.2034  0.6203
16636TIP3    H271400   4.567   1.806  12.169 -1.3920  1.1301 -0.6799
16637TIP3   OH271401   5.270   0.131   2.210 -0.0252  0.0807  0.3734
16637TIP3    H171402   5.224   0.047   2.214 -0.0938  0.0962 -0.0944
16637TIP3    H271403   5.220   0.184   2.148  0.0190  0.4701  0.6662
16638TIP3   OH271404   2.746   4.234   2.417  0.1071  0.4306  0.1025
16638TIP3    H171405   2.655   4.259   2.436  0.1402  0.1318  0.6580
16638TIP3    H271406   2.751   4.235   2.321  0.2795  3.1927  0.0716
16639TIP3   OH271407   5.050   1.654   2.896  0.1402  0.6982  0.0620
16639TIP3    H171408   5.143   1.662   2.919  0.2129  1.3155 -0.4181
16639TIP3    H271409   5.011   1.735   2.928  0.2381  1.5723 -1.8866
16640TIP3   OH271410   6.761   0.641   3.566  0.0622  0.7219 -0.2995
16640TIP3    H171411   6.787   0.729   3.538  2.7573 -0.4890 -2.0121
16640TIP3    H271412   6.766   0.643   3.662  0.6144  2.2704 -0.3433
16641TIP3   OH271413   1.327   5.402   4.121 -0.3809  0.1896 -0.1365
16641TIP3    H171414   1.306   5.365   4.206  0.4862 -0.3680 -0.1555
16641TIP3    H271415   1.277   5.483   4.117  0.7337  1.0056  1.5258
16642TIP3   OH271416   3.801   1.908  14.039 -0.4169  0.0180  0.2262
16642TIP3    H171417   3.748   1.858  13.978 -1.1107  1.1907 -0.1593
16642TIP3    H271418   3.783   1.869  14.124  0.4487 -1.5320 -0.2713
16643TIP3   OH271419   3.891   6.597   2.885 -0.1265 -0.0770 -0.0948
16643TIP3    H171420   3.913   6.663   2.950 -1.4078  1.0102 -0.7123
16643TIP3    H271421   3.899   6.513   2.932 -2.8420  0.7281  2.0960
16644TIP3   OH271422   4.216   0.917  13.471 -0.6462  0.4660  0.2418
16644TIP3    H171423   4.287   0.854  13.484  1.1794  2.1509 -0.9083
16644TIP3    H271424   4.158   0.903  13.546  0.8337 -1.0700  1.1946
16645TIP3   OH271425   1.364   2.002   9.943  0.1970  0.1409  0.1065
16645TIP3    H171426   1.427   1.960   9.885  0.0116 -0.8851  0.6341
16645TIP3    H271427   1.381   2.096   9.933 -0.7273  0.0884 -2.5977
16646TIP3   OH271428   6.045   5.321  12.286 -1.2511 -0.7892 -0.9294
16646TIP3    H171429   6.065   5.265  12.361 -0.7873  0.0604 -0.4060
16646TIP3    H271430   6.058   5.264  12.209 -0.3435 -1.2702 -0.4353
16647TIP3   OH271431   4.718   7.200   4.255  0.3188  0.4112  0.2622
16647TIP3    H171432   4.753   7.219   4.168  0.4484  1.6445  0.5568
16647TIP3    H271433   4.757   7.267   4.311  1.4279 -1.2486  1.5803
16648TIP3   OH271434   5.001   3.583   5.836 -0.1105  0.3999  0.1668
16648TIP3    H171435   5.087   3.586   5.794  1.2045 -1.7260  2.4275
16648TIP3    H271436   4.985   3.490   5.850 -3.1932  0.6947 -0.8638
16649TIP3   OH271437   5.011   3.298   4.420  0.5330  0.8174 -0.3189
16649TIP3    H171438   4.955   3.288   4.343 -2.3372  3.8549  1.1737
16649TIP3    H271439   4.990   3.223   4.475 -0.1635  0.5797 -0.8899
16650TIP3   OH271440   5.596   5.077   4.864  0.2194  0.5125 -0.4864
16650TIP3    H171441   5.567   5.149   4.920 -1.0912  0.3988 -1.0035
16650TIP3    H271442   5.555   4.999   4.901 -0.8247  0.4632 -1.7080
16651TIP3   OH271443   4.927   3.606  15.145 -0.2377 -0.2373 -0.4355
16651TIP3    H171444   4.842   3.562  15.133 -0.5538  0.4370 -0.7233
16651TIP3    H271445   4.923   3.681  15.087  0.8939 -0.6389 -1.0656
16652TIP3   OH271446   1.204   6.966   5.360  0.1059 -0.3101 -0.2754
16652TIP3    H171447   1.212   7.007   5.446  1.9008 -0.9649 -0.0895
16652TIP3    H271448   1.117   6.925   5.362 -0.5313  1.0065  0.6033
16653TIP3   OH271449   5.888   3.917   3.632 -0.1541 -0.0706  0.1824
16653TIP3    H171450   5.901   4.011   3.648 -0.6637  0.3056 -1.4624
16653TIP3    H271451   5.794   3.909   3.614  0.2367 -0.5050 -1.8929
16654TIP3   OH271452   6.217   1.066   1.539 -0.6596  0.3397 -0.2375
16654TIP3    H171453   6.271   1.081   1.461 -3.1841 -2.4633 -2.8502
16654TIP3    H271454   6.166   1.147   1.549 -0.7904  0.5223 -2.0313
16655TIP3   OH271455   2.692   3.769  12.378  0.2294  0.1576 -0.6201
16655TIP3    H171456   2.618   3.732  12.427  1.8230  0.3974  2.1859
16655TIP3    H271457   2.651   3.815  12.305 -2.4069  0.0935  0.6752
16656TIP3   OH271458   1.403   0.936   4.278  0.0746 -0.1929 -0.1667
16656TIP3    H171459   1.320   0.912   4.319 -0.3064  0.9621 -0.2500
16656TIP3    H271460   1.379   0.996   4.208  1.0004  0.3194 -0.0579
16657TIP3   OH271461   5.655   4.418  10.931  0.0835 -0.5604 -0.2482
16657TIP3    H171462   5.640   4.404  11.025  0.6370  1.6125  0.2028
16657TIP3    H271463   5.741   4.379  10.915  1.0660  1.0857  0.7106
16658TIP3   OH271464   6.932   2.102   3.281  0.2447  0.3737 -0.1763
16658TIP3    H171465   6.995   2.100   3.353  0.7356  1.0037 -0.5791
16658TIP3    H271466   6.899   2.012   3.276 -0.7802  0.5956  1.6780
16659TIP3   OH271467   2.138   3.297  13.691  0.2319  0.2456 -0.5039
16659TIP3    H171468   2.113   3.216  13.735 -2.4729  1.0608 -0.3706
16659TIP3    H271469   2.206   3.270  13.629 -1.1576 -2.2876 -1.0745
16660TIP3   OH271470   6.467   4.562   4.023  0.0600  0.3263  0.1415
16660TIP3    H171471   6.531   4.512   4.074 -2.9552 -2.4701  1.5053
16660TIP3    H271472   6.471   4.524   3.935  1.2510  1.2085 -0.2089
16661TIP3   OH271473   2.882   2.625   0.849  0.0277  0.0788  0.3613
16661TIP3    H171474   2.797   2.612   0.890 -0.8682 -0.4578 -1.5658
16661TIP3    H271475   2.864   2.672   0.768  1.6943  0.8838  0.4027
16662TIP3   OH271476   5.678   2.126   4.955  0.4465 -0.2243 -0.2693
16662TIP3    H171477   5.663   2.171   5.038  2.7419  1.1455 -0.5328
16662TIP3    H271478   5.690   2.034   4.980 -0.2423 -0.0669  0.7265
16663TIP3   OH271479   6.811   3.505   4.523 -0.3741 -0.3549 -0.3148
16663TIP3    H171480   6.859   3.545   4.450  0.7713 -1.5295 -0.2443
16663TIP3    H271481   6.830   3.562   4.598  1.6993 -1.2596 -0.0905
16664TIP3   OH271482   2.568   5.148   0.251  0.3459 -0.3710 -0.0825
16664TIP3    H171483   2.631   5.077   0.267  0.2742 -0.2036  1.0403
16664TIP3    H271484   2.556   5.189   0.337  0.7037  1.2672 -0.7656
16665TIP3   OH271485   0.418   2.939  13.767  0.7115  0.3502 -0.2010
16665TIP3    H171486   0.486   2.975  13.823  0.8364  1.0052 -0.7626
16665TIP3    H271487   0.408   2.848  13.796  1.2876  0.4709  0.3811
16666TIP3   OH271488   1.610   1.675   3.192 -0.3401 -0.5328 -0.2674
16666TIP3    H171489   1.631   1.612   3.123 -1.2191 -1.1804  0.0424
16666TIP3    H271490   1.644   1.759   3.159  1.5432 -1.2834 -0.3438
16667TIP3   OH271491   5.248   2.034   2.781 -0.3362 -0.1924  0.0987
16667TIP3    H171492   5.176   1.973   2.767 -0.7816  0.1038  1.0465
16667TIP3    H271493   5.323   1.979   2.805 -0.5396 -0.4189  0.2102
16668TIP3   OH271494   6.314   2.223   4.139  0.2561  0.0799  1.0957
16668TIP3    H171495   6.233   2.256   4.176  0.4197 -0.0590  1.5758
16668TIP3    H271496   6.373   2.298   4.139 -0.1758  0.4592 -0.1927
16669TIP3   OH271497   3.353   3.481   2.685 -0.2384  0.2884 -0.8789
16669TIP3    H171498   3.387   3.490   2.774  0.1218 -1.8335 -0.7568
16669TIP3    H271499   3.258   3.492   2.694 -0.0561  1.7623 -0.5254
16670TIP3   OH271500   6.948   1.254   1.356  0.4443 -0.6716  0.0716
16670TIP3    H171501   6.941   1.260   1.260 -1.5842 -2.8211 -0.0016
16670TIP3    H271502   6.898   1.329   1.389  2.6362  1.1380 -0.4569
16671TIP3   OH271503   7.012   4.745  12.229  0.0708  0.4137  0.8823
16671TIP3    H171504   6.950   4.807  12.266 -1.1943 -0.0090 -0.4425
16671TIP3    H271505   6.975   4.659  12.248  0.1321  0.1575 -0.1213
16672TIP3   OH271506   4.811   3.306   1.853 -0.1866 -0.2847 -0.2551
16672TIP3    H171507   4.901   3.329   1.876 -0.9565  2.5304  0.3185
16672TIP3    H271508   4.807   3.211   1.865  2.5727 -0.4499  0.0801
16673TIP3   OH271509   0.499   4.157   4.915  0.2424  0.2455 -0.9565
16673TIP3    H171510   0.472   4.127   5.002  2.5726  0.3138 -0.1177
16673TIP3    H271511   0.552   4.235   4.933  1.2353 -0.0589 -2.3761
16674TIP3   OH271512   1.617   0.795   1.050  0.0407 -0.1889  0.7109
16674TIP3    H171513   1.688   0.845   1.011 -0.8403  0.5469  0.0177
16674TIP3    H271514   1.631   0.705   1.019  0.6570 -0.0562  0.5922
16675TIP3   OH271515   4.795   4.608   4.814 -0.0363  0.0300  0.2577
16675TIP3    H171516   4.854   4.537   4.837  0.3987  0.5150  0.6770
16675TIP3    H271517   4.718   4.565   4.776  0.9487 -0.5628 -1.1370
16676TIP3   OH271518   3.019   3.756  11.863  1.1383  0.2236 -0.2398
16676TIP3    H171519   3.028   3.686  11.798 -0.4222 -2.1267  1.8498
16676TIP3    H271520   3.085   3.735  11.929 -0.1798 -0.0760  1.0204
16677TIP3   OH271521   1.791   0.740   4.551  0.0277 -1.0613  0.0779
16677TIP3    H171522   1.771   0.802   4.480  0.8797 -0.9093 -0.0414
16677TIP3    H271523   1.852   0.678   4.511  1.1629 -0.4973  0.8888
16678TIP3   OH271524   1.684   6.928  15.169 -0.0673 -0.3978  0.6994
16678TIP3    H171525   1.659   6.837  15.185 -0.7634 -0.6122 -1.3532
16678TIP3    H271526   1.629   6.955  15.095 -0.7906  2.1084  2.0409
16679TIP3   OH271527   5.721   1.299   2.293 -0.5937  0.1853  0.1336
16679TIP3    H171528   5.737   1.207   2.310 -0.6893  0.2657  0.6687
16679TIP3    H271529   5.794   1.326   2.237 -1.0694 -0.4377 -0.8090
16680TIP3   OH271530   2.488   1.600   2.896 -0.2917 -0.6766  0.4185
16680TIP3    H171531   2.573   1.596   2.853 -0.3418 -0.0632  0.2547
16680TIP3    H271532   2.433   1.540   2.846 -0.3012 -0.1000 -0.2715
16681TIP3   OH271533   1.594   3.369   2.711  0.2014 -0.1219 -0.2418
16681TIP3    H171534   1.546   3.414   2.781 -0.6719  1.3141 -1.6847
16681TIP3    H271535   1.667   3.427   2.690  0.7932 -0.8169 -0.1658
16682TIP3   OH271536   1.619   0.846   3.501  0.4534  0.1044  0.5142
16682TIP3    H171537   1.587   0.925   3.544 -0.6528  0.4754 -0.9019
16682TIP3    H271538   1.546   0.784   3.507 -0.2432  0.5817 -1.7973
16683TIP3   OH271539   4.744   1.050   0.939  0.3950 -0.1869  0.3820
16683TIP3    H171540   4.714   1.078   1.025 -2.7621  1.9692 -1.2401
16683TIP3    H271541   4.768   1.131   0.894  2.6842 -1.3157 -0.6392
16684TIP3   OH271542   0.434   5.422   3.392  0.3389 -0.3100  0.2176
16684TIP3    H171543   0.472   5.334   3.389  2.1378  0.4423 -0.1893
16684TIP3    H271544   0.472   5.463   3.469 -0.5275  0.1193  0.4373
16685TIP3   OH271545   5.217   0.956   3.079 -0.2555 -0.1215  0.0225
16685TIP3    H171546   5.185   0.978   3.166 -2.1012 -2.7706  0.1095
16685TIP3    H271547   5.295   0.902   3.095  0.0854  0.3485 -0.0233
16686TIP3   OH271548   7.056   0.562   0.959 -0.1476 -0.5539  0.3219
16686TIP3    H171549   7.026   0.473   0.980  2.1984 -1.3172  0.7291
16686TIP3    H271550   7.120   0.582   1.028  0.0689  1.0664 -0.3273
16687TIP3   OH271551   0.017   6.531  15.135  0.2207 -0.1592  0.4950
16687TIP3    H171552   0.106   6.511  15.104  0.4764 -0.0145  1.1157
16687TIP3    H271553   0.031   6.591  15.208 -0.4497  0.8794 -0.2104
16688TIP3   OH271554   6.025   4.400   2.244  0.3898 -0.1423  0.2246
16688TIP3    H171555   5.975   4.479   2.223  1.1876  0.0380 -1.0995
16688TIP3    H271556   6.028   4.351   2.162  1.1206 -0.8669  0.6652
16689TIP3   OH271557   5.895   4.594   5.582 -0.2726  0.1389  0.1311
16689TIP3    H171558   5.918   4.501   5.591 -2.3061 -0.4725 -0.5058
16689TIP3    H271559   5.977   4.637   5.558  0.4338 -1.7071 -0.9349
16690TIP3   OH271560   3.104   6.981   1.623 -0.6675  0.1704  0.3731
16690TIP3    H171561   3.121   6.954   1.713  0.6080  0.5567  0.2732
16690TIP3    H271562   3.009   6.972   1.612 -0.6751 -1.1675  1.3181
16691TIP3   OH271563   1.641   3.146   0.259 -0.1955  0.0856 -0.0353
16691TIP3    H171564   1.609   3.126   0.171  0.5508 -2.4760  0.1868
16691TIP3    H271565   1.722   3.096   0.267  0.9268  2.0024  1.3677
16692TIP3   OH271566   1.284   5.889   5.007 -0.0388  0.3519 -0.2582
16692TIP3    H171567   1.246   5.939   5.080 -1.9075 -2.2728  0.7595
16692TIP3    H271568   1.240   5.924   4.929 -0.7039  0.8410  0.3109
16693TIP3   OH271569   3.776   2.466   2.161  0.3210 -0.6542 -0.2184
16693TIP3    H171570   3.709   2.504   2.104 -0.0140 -1.7011 -0.5496
16693TIP3    H271571   3.824   2.406   2.105  0.1202 -1.5488  0.5339
16694TIP3   OH271572   6.994   0.181   4.740 -0.5390  0.0236 -0.4923
16694TIP3    H171573   7.086   0.161   4.726 -0.3003  0.1161  0.7735
16694TIP3    H271574   6.963   0.110   4.797 -0.9749  0.5441 -0.0742
16695TIP3   OH271575   0.483   3.164   2.715  0.1753  0.0276 -0.4601
16695TIP3    H171576   0.390   3.186   2.724  0.2910  0.5708 -0.5819
16695TIP3    H271577   0.497   3.159   2.620 -0.3538 -2.7579 -0.4729
16696TIP3   OH271578   1.095   0.883   3.271  0.5218  0.3651  0.3733
16696TIP3    H171579   1.167   0.894   3.210  0.0325  1.2697 -0.0482
16696TIP3    H271580   1.016   0.882   3.217  0.2166 -1.0633  0.7805
16697TIP3   OH271581   5.421   0.318   4.081  0.6108 -0.2977 -0.1058
16697TIP3    H171582   5.446   0.228   4.057  0.3706  0.2678 -2.6854
16697TIP3    H271583   5.370   0.307   4.162 -0.7355 -2.6728 -1.1631
16698TIP3   OH271584   7.023   3.064  14.582  0.6878 -0.2838 -0.4833
16698TIP3    H171585   6.931   3.092  14.575  0.3428 -1.0176  0.6848
16698TIP3    H271586   7.073   3.136  14.546 -0.1265  2.0442  2.6209
16699TIP3   OH271587   6.220   5.329   4.864  0.0106 -0.0965  0.4005
16699TIP3    H171588   6.252   5.355   4.777  0.5528 -2.8510 -0.3249
16699TIP3    H271589   6.138   5.283   4.846 -1.9454  2.6276  1.7953
16700TIP3   OH271590   2.906   6.821   2.445 -0.0701 -0.1124 -0.3964
16700TIP3    H171591   2.870   6.898   2.489 -1.4308 -0.4116 -0.9304
16700TIP3    H271592   2.852   6.748   2.477 -0.9142 -0.3761 -2.2812
16701TIP3   OH271593   6.902   2.035   5.090  0.3021  0.2664 -0.0580
16701TIP3    H171594   6.902   2.109   5.029  0.3137  0.3287  0.0168
16701TIP3    H271595   6.995   2.016   5.106  0.2995  0.0621 -0.2863
16702TIP3   OH271596   4.941   0.855   1.167 -0.4064 -0.3665 -0.2185
16702TIP3    H171597   4.928   0.871   1.261  0.3894 -2.1800  0.2508
16702TIP3    H271598   4.952   0.942   1.129  1.7818  0.3528  1.8018
16703TIP3   OH271599   3.537   5.870   3.779  0.2933  0.5982 -0.3631
16703TIP3    H171600   3.521   5.897   3.689  0.4664 -1.1920 -0.9701
16703TIP3    H271601   3.454   5.883   3.824 -0.3970 -0.4249 -1.3140
16704TIP3   OH271602   6.681   3.532   4.926  0.2607  0.3137 -0.0733
16704TIP3    H171603   6.695   3.482   5.006 -0.7053  0.0203 -0.0784
16704TIP3    H271604   6.740   3.491   4.862 -0.1867 -0.5409  0.0415
16705TIP3   OH271605   5.872   7.199   0.231  0.4788  0.5231 -0.3433
16705TIP3    H171606   5.897   7.119   0.185  3.3825  0.6666  0.7907
16705TIP3    H271607   5.853   7.170   0.321  1.5611  1.0858  0.0763
16706TIP3   OH271608   1.310   2.218   5.011  0.0760 -0.9111 -0.1601
16706TIP3    H171609   1.274   2.154   4.949  0.5957 -2.2849  0.9047
16706TIP3    H271610   1.382   2.172   5.053  0.0081  0.1435  1.1597
16707TIP3   OH271611   6.026   1.835   2.331  0.1814 -0.0288  0.1830
16707TIP3    H171612   6.054   1.787   2.409  1.5071 -2.6088 -1.6996
16707TIP3    H271613   6.093   1.901   2.318  0.5920 -0.3576  0.5951
16708TIP3   OH271614   2.611   5.619  12.229 -0.6537  0.4319 -0.1761
16708TIP3    H171615   2.541   5.600  12.165 -0.7256  0.5795 -0.1432
16708TIP3    H271616   2.593   5.561  12.302 -0.2908 -0.0795 -0.4903
16709TIP3   OH271617   6.472   3.311   4.849  0.6884  0.4932  0.7266
16709TIP3    H171618   6.506   3.391   4.810 -0.0914  0.4798 -0.0305
16709TIP3    H271619   6.409   3.341   4.915  1.4379  0.5098  1.4409
16710TIP3   OH271620   4.558   2.908  13.825 -0.5215  0.7063  0.3573
16710TIP3    H171621   4.650   2.927  13.806 -0.0547 -0.6244  1.1947
16710TIP3    H271622   4.542   2.824  13.784 -1.4476  1.0330  0.0319
16711TIP3   OH271623   0.243   1.931   5.591  0.2359  0.5328  0.4695
16711TIP3    H171624   0.206   1.973   5.668 -1.8901  0.3131 -0.3588
16711TIP3    H271625   0.305   1.995   5.556  0.5271  1.0142  1.8013
16712TIP3   OH271626   5.033   5.145   2.130 -0.1046 -1.2143 -0.6186
16712TIP3    H171627   5.123   5.170   2.111  0.1729 -0.4839  1.4201
16712TIP3    H271628   4.986   5.228   2.139 -0.1454 -1.4237  1.8655
16713TIP3   OH271629   0.293   2.260   2.905 -0.0046  0.1732  0.3573
16713TIP3    H171630   0.344   2.234   2.982  1.1020  2.6073  0.5383
16713TIP3    H271631   0.273   2.352   2.920 -3.5044 -0.3552 -0.2871
16714TIP3   OH271632   4.494   4.053   5.035  0.6647 -0.5259 -0.2587
16714TIP3    H171633   4.479   3.959   5.029  2.8649 -0.9941  0.6344
16714TIP3    H271634   4.500   4.071   5.129  2.2934  0.0871 -0.4449
16715TIP3   OH271635   0.991   5.142   3.869  0.2426  0.8038 -0.3837
16715TIP3    H171636   1.047   5.154   3.946 -1.4346 -1.0988  1.2620
16715TIP3    H271637   1.031   5.069   3.821 -0.6689 -0.4892  0.7374
16716TIP3   OH271638   2.829   1.098   4.882 -0.5709 -0.0333  0.0485
16716TIP3    H171639   2.780   1.115   4.963  0.2262  1.7928  0.1945
16716TIP3    H271640   2.893   1.031   4.907 -1.8899 -1.2809  0.2602
16717TIP3   OH271641   5.721   2.863  14.073 -0.1457  0.2504  0.3083
16717TIP3    H171642   5.695   2.806  14.145  0.7102  1.4063  1.5920
16717TIP3    H271643   5.813   2.884  14.091  0.6957 -0.9147 -2.1671
16718TIP3   OH271644   0.899   2.166  11.827 -0.1083  0.4726  0.2050
16718TIP3    H171645   0.904   2.200  11.916  0.2386  0.1412  0.3165
16718TIP3    H271646   0.807   2.171  11.804 -0.2344  0.3585  0.6671
16719TIP3   OH271647   1.651   6.778   3.851 -0.0165  0.6194 -0.7392
16719TIP3    H171648   1.573   6.796   3.798 -0.2768  1.4545 -0.1027
16719TIP3    H271649   1.616   6.749   3.935  0.2496  3.1929  0.3452
16720TIP3   OH271650   5.086   5.931   2.993 -0.2910 -0.8153 -0.4028
16720TIP3    H171651   5.142   5.977   3.055 -2.3741  1.0885  0.1871
16720TIP3    H271652   5.055   5.855   3.041  2.2940 -2.3838 -1.0064
16721TIP3   OH271653   1.791   6.881   6.178  0.3176  0.1974 -0.7090
16721TIP3    H171654   1.886   6.885   6.187  0.2769 -0.3564  0.0478
16721TIP3    H271655   1.768   6.959   6.128  1.2347  0.0141 -1.4574
16722TIP3   OH271656   4.876   5.076  15.266 -0.2081 -0.5560  0.0508
16722TIP3    H171657   4.821   5.031  15.202 -1.8764  0.3534  0.7706
16722TIP3    H271658   4.855   5.168  15.255  1.2408 -0.1770  0.3347
16723TIP3   OH271659   6.934   3.612   2.588 -0.2564  0.6717 -0.1092
16723TIP3    H171660   7.027   3.631   2.599 -0.3457  0.9266  0.2495
16723TIP3    H271661   6.931   3.537   2.529  0.1632  0.8639 -0.3791
16724TIP3   OH271662   6.049   2.400   2.611  0.6118  0.7993  0.1423
16724TIP3    H171663   5.968   2.352   2.632  0.2873  1.9090  1.6272
16724TIP3    H271664   6.114   2.362   2.670  0.6535  1.3029  0.4276
16725TIP3   OH271665   1.000   1.897   1.281 -0.2459  0.1295 -0.2496
16725TIP3    H171666   0.944   1.967   1.246  0.0248  0.6340  0.3269
16725TIP3    H271667   0.939   1.838   1.326 -0.6457 -0.6956 -1.8001
16726TIP3   OH271668   0.254   7.086   1.109  0.2732  0.4639  0.1926
16726TIP3    H171669   0.178   7.051   1.155 -0.4416 -0.2080 -1.4219
16726TIP3    H271670   0.328   7.065   1.166 -0.5541 -0.4816  0.9580
16727TIP3   OH271671   5.237   5.304   2.734 -0.3593  0.2304 -0.5509
16727TIP3    H171672   5.254   5.248   2.658  0.2364 -0.5262  0.1216
16727TIP3    H271673   5.157   5.269   2.772 -0.2784  0.1687 -0.4362
16728TIP3   OH271674   1.387   4.502  10.147 -0.0194 -0.4520 -0.0738
16728TIP3    H171675   1.471   4.547  10.136  0.2839 -0.2436  2.6185
16728TIP3    H271676   1.342   4.516  10.063  2.5506 -0.5175 -1.5803
16729TIP3   OH271677   0.882   3.829   2.223 -0.1054  0.3257 -0.1043
16729TIP3    H171678   0.904   3.771   2.151 -0.2680 -0.5843  0.5615
16729TIP3    H271679   0.904   3.917   2.191  1.5836 -0.2362 -0.5774
16730TIP3   OH271680   4.577   5.306   5.400  0.1549  0.1424 -0.6356
16730TIP3    H171681   4.489   5.269   5.386  0.2935 -0.5459  0.1601
16730TIP3    H271682   4.621   5.240   5.453  1.0256  0.6725 -0.6899
16731TIP3   OH271683   4.510   5.963   0.987  0.0248 -0.0027 -0.5418
16731TIP3    H171684   4.593   6.010   0.996  0.6256 -1.1037 -0.1118
16731TIP3    H271685   4.519   5.914   0.905 -0.1489 -0.2364 -0.4208
16732TIP3   OH271686   6.966   1.256   3.052 -0.6849 -0.0860  0.4125
16732TIP3    H171687   6.922   1.341   3.055 -1.5374 -0.5140  0.5694
16732TIP3    H271688   6.982   1.240   2.959 -1.4430 -0.2032  0.2984
16733TIP3   OH271689   1.044   2.337   5.108  0.2251  0.3445 -0.1032
16733TIP3    H171690   1.028   2.415   5.055 -1.5928 -0.7853 -1.3364
16733TIP3    H271691   1.088   2.276   5.049 -1.1553 -0.6597 -0.1446
16734TIP3   OH271692   6.641   1.685   1.929 -0.1723  0.3313  0.2893
16734TIP3    H171693   6.694   1.764   1.941 -0.5060  0.4818  0.7644
16734TIP3    H271694   6.689   1.617   1.976  1.2809 -0.2798 -1.8968
16735TIP3   OH271695   1.337   6.862   3.154 -0.0602 -0.2094  0.1991
16735TIP3    H171696   1.302   6.807   3.225 -1.0488 -0.5007 -0.4951
16735TIP3    H271697   1.367   6.942   3.198 -0.6743 -0.3831  0.9499
16736TIP3   OH271698   1.545   5.265   5.537  0.1588  0.1411  0.2310
16736TIP3    H171699   1.537   5.352   5.575 -0.6862  0.1813 -0.0298
16736TIP3    H271700   1.503   5.207   5.601  1.0653 -0.1459  0.5961
16737TIP3   OH271701   6.265   5.030   2.298  1.0017  0.0550 -0.3573
16737TIP3    H171702   6.316   5.064   2.371 -1.0843  0.3700  1.0444
16737TIP3    H271703   6.269   4.935   2.307  0.5249  0.0955  0.3606
16738TIP3   OH271704   4.342   3.006   4.996 -0.1702  0.0709 -0.6861
16738TIP3    H171705   4.314   2.961   5.076  1.5417 -0.1804 -0.2035
16738TIP3    H271706   4.294   2.961   4.926 -1.7708  0.3603  0.1751
16739TIP3   OH271707   0.423   6.379   2.173  0.3972  0.6446 -0.5610
16739TIP3    H171708   0.474   6.455   2.201 -2.7734  2.1908  1.6082
16739TIP3    H271709   0.356   6.369   2.240 -0.6774 -2.7929 -1.9174
16740TIP3   OH271710   0.602   0.651   5.855 -0.4324  0.8584 -0.8029
16740TIP3    H171711   0.577   0.606   5.775  0.2593  0.5306 -0.8499
16740TIP3    H271712   0.697   0.660   5.849 -0.3802  0.9200 -0.0712
16741TIP3   OH271713   3.437   0.985  14.337  0.4119 -0.1410  0.0494
16741TIP3    H171714   3.506   1.002  14.272 -0.2372 -0.3160 -0.7059
16741TIP3    H271715   3.420   0.891  14.330 -1.7673  0.2952 -1.7410
16742TIP3   OH271716   0.802   2.286  15.015 -0.0251 -0.1024  0.2231
16742TIP3    H171717   0.783   2.369  15.058  0.8411 -0.4626  1.3583
16742TIP3    H271718   0.854   2.237  15.079 -0.1457 -1.3485 -0.5889
16743TIP3   OH271719   4.024   3.997   2.281  0.2429 -0.5968 -0.6946
16743TIP3    H171720   4.053   3.916   2.239  1.9736 -0.4553  0.1095
16743TIP3    H271721   4.024   3.976   2.375  0.2796  0.2042 -0.5070
16744TIP3   OH271722   3.692   5.199   1.959  0.6372  0.2948  0.1285
16744TIP3    H171723   3.656   5.172   1.875 -0.1338 -2.4211  1.2230
16744TIP3    H271724   3.778   5.234   1.938 -0.4459  1.8636 -1.9902
16745TIP3   OH271725   2.932   5.870   4.779 -0.4170 -0.2290  0.3650
16745TIP3    H171726   2.973   5.875   4.692 -0.2024 -1.1154  0.4101
16745TIP3    H271727   2.955   5.953   4.821  0.9541 -0.5166  0.2171
16746TIP3   OH271728   6.905   0.303   0.990  0.4781  0.2409  0.1816
16746TIP3    H171729   6.875   0.218   0.958 -1.1404  1.1429 -0.8676
16746TIP3    H271730   6.826   0.345   1.024  1.3698  1.0666  1.3237
16747TIP3   OH271731   0.216   3.801   1.207 -0.7247  0.5939 -0.2592
16747TIP3    H171732   0.241   3.825   1.296  1.2365  1.0311 -0.8700
16747TIP3    H271733   0.294   3.758   1.171 -1.6914 -0.1281 -1.5614
16748TIP3   OH271734   0.622   5.285   2.515  0.7249 -0.2741  0.0382
16748TIP3    H171735   0.582   5.372   2.519  0.3839 -0.4467  0.4388
16748TIP3    H271736   0.709   5.300   2.476  1.2898  0.4768  1.5170
16749TIP3   OH271737   5.738   4.410   0.245 -0.4114  0.2367  0.3230
16749TIP3    H171738   5.729   4.501   0.271 -0.2813  0.5949 -0.8206
16749TIP3    H271739   5.832   4.395   0.243 -0.4231  0.1790  0.1836
16750TIP3   OH271740   1.755   1.262  11.555 -0.6898 -0.1151  0.0774
16750TIP3    H171741   1.731   1.351  11.530  1.1718  0.2848 -0.5013
16750TIP3    H271742   1.683   1.231  11.610 -2.5790  0.8011 -1.7502
16751TIP3   OH271743   2.523   6.551   5.140 -0.0366 -0.0762  0.2874
16751TIP3    H171744   2.428   6.546   5.143 -0.0004 -1.2208 -0.1410
16751TIP3    H271745   2.549   6.488   5.073  1.0705 -0.5422  1.1133
16752TIP3   OH271746   1.749   4.305   4.707 -0.0564 -0.1307  0.0367
16752TIP3    H171747   1.729   4.396   4.729 -2.5865 -0.3226 -1.0306
16752TIP3    H271748   1.770   4.308   4.613  0.2678 -0.6000  0.0938
16753TIP3   OH271749   6.139   6.834   3.905 -0.1849 -0.1555 -0.0348
16753TIP3    H171750   6.089   6.908   3.871 -0.8154 -0.2239  0.7083
16753TIP3    H271751   6.194   6.872   3.974  1.9848  0.2069 -1.8506
16754TIP3   OH271752   4.643   3.784  14.135 -0.2882 -0.4002 -0.1339
16754TIP3    H171753   4.669   3.811  14.046 -2.9447 -0.5883 -1.0666
16754TIP3    H271754   4.670   3.857  14.190  0.1873  0.3671 -1.3252
16755TIP3   OH271755   2.963   3.214   4.812  0.0164 -0.9971 -0.1429
16755TIP3    H171756   2.907   3.184   4.884 -0.9260 -0.3039 -0.5648
16755TIP3    H271757   2.903   3.222   4.737  0.7649 -0.6112 -0.7119
16756TIP3   OH271758   5.271   7.172  10.933  0.0690  0.0800 -0.4679
16756TIP3    H171759   5.251   7.120  10.855  0.4120 -1.0362  0.1596
16756TIP3    H271760   5.359   7.144  10.958 -0.9610 -1.5102  1.7605
16757TIP3   OH271761   3.142   1.594   4.785 -0.2722  0.7542  0.2209
16757TIP3    H171762   3.050   1.575   4.802  0.6507 -2.0654  2.8560
16757TIP3    H271763   3.171   1.644   4.861  0.9233 -0.5637  0.6624
16758TIP3   OH271764   6.369   1.526   4.193  0.0174  0.2023 -0.3226
16758TIP3    H171765   6.361   1.621   4.182 -2.1444 -0.0562 -1.4335
16758TIP3    H271766   6.295   1.502   4.248 -0.6214 -1.0602 -1.6777
16759TIP3   OH271767   1.091   6.964   0.720  0.2522 -0.9198 -0.1436
16759TIP3    H171768   1.012   6.933   0.675 -0.0305 -0.7009  0.2023
16759TIP3    H271769   1.157   6.896   0.703  0.0518 -0.9936 -0.6146
16760TIP3   OH271770   7.181   6.455  12.225  0.0734  0.2598 -0.4952
16760TIP3    H171771   7.208   6.544  12.248 -0.4773  0.1091  0.8606
16760TIP3    H271772   7.153   6.461  12.134  0.1660  1.4461 -0.4644
16761TIP3   OH271773   5.389   1.666   4.035 -0.0364 -0.2976  0.1443
16761TIP3    H171774   5.327   1.721   4.084  1.6455  0.7317  1.1978
16761TIP3    H271775   5.433   1.614   4.102 -0.0183 -1.3243 -0.6352
16762TIP3   OH271776   6.185   4.097  13.531 -0.1774 -0.8999  0.0422
16762TIP3    H171777   6.102   4.053  13.512 -0.0761 -1.5566  1.0455
16762TIP3    H271778   6.234   4.034  13.585  1.1339 -0.6795 -0.8399
16763TIP3   OH271779   0.569   6.453  10.830 -0.3112  0.5881  0.1230
16763TIP3    H171780   0.545   6.361  10.841 -1.2635  0.8988  0.7327
16763TIP3    H271781   0.486   6.500  10.829  0.1218  1.3923 -0.8164
16764TIP3   OH271782   0.554   5.093  10.196  0.0466  0.4749  0.3276
16764TIP3    H171783   0.490   5.087  10.126  1.6450 -1.6634 -1.0574
16764TIP3    H271784   0.628   5.041  10.166  1.9713  1.8249  2.3872
16765TIP3   OH271785   7.201   6.475   4.445 -0.6211  0.0379 -0.0413
16765TIP3    H171786   7.189   6.549   4.505 -0.4609  0.2634 -0.2898
16765TIP3    H271787   7.291   6.447   4.460 -0.1235  0.9808 -1.1822
16766TIP3   OH271788   3.116   4.739   1.513  0.0416 -0.3758  0.6870
16766TIP3    H171789   3.156   4.702   1.592 -2.5744  0.7710  2.7161
16766TIP3    H271790   3.079   4.823   1.542 -0.7045  0.2733 -1.8679
16767TIP3   OH271791   6.794   3.671   2.824 -0.0109  0.0639 -0.0549
16767TIP3    H171792   6.723   3.725   2.787 -0.9842 -0.4070  1.0409
16767TIP3    H271793   6.852   3.655   2.750 -0.9419  0.6417 -0.9572
16768TIP3   OH271794   6.362   3.184   4.635  0.3506  0.2784  0.3407
16768TIP3    H171795   6.435   3.204   4.693 -0.6600 -2.4251  2.7537
16768TIP3    H271796   6.287   3.227   4.677 -0.2923 -1.2399  0.8053
16769TIP3   OH271797   6.538   0.424  13.256  0.2341  0.1404 -0.4949
16769TIP3    H171798   6.534   0.500  13.199  0.0080 -0.5992 -1.4831
16769TIP3    H271799   6.461   0.433  13.313  0.5464  0.9577 -0.1844
16770TIP3   OH271800   0.823   1.228   4.691 -0.2901 -0.6698  0.1641
16770TIP3    H171801   0.805   1.150   4.639 -0.0064 -1.1247  0.7387
16770TIP3    H271802   0.877   1.197   4.763 -0.2654  0.0423  0.4611
16771TIP3   OH271803   6.359   6.357   4.412 -0.4921  0.0730 -0.6766
16771TIP3    H171804   6.451   6.363   4.441 -0.8321  0.1283  0.4493
16771TIP3    H271805   6.343   6.263   4.406 -0.9840 -0.0108  1.3093
16772TIP3   OH271806   3.309   4.214   3.448  0.3784 -0.2271 -0.2592
16772TIP3    H171807   3.314   4.252   3.536  2.6115  0.3017 -0.5421
16772TIP3    H271808   3.251   4.271   3.399  0.2202  0.2800  0.5069
16773TIP3   OH271809   1.008   6.734   0.472 -0.1718 -0.2637 -0.3904
16773TIP3    H171810   1.049   6.690   0.397  2.4599  0.1375  0.6910
16773TIP3    H271811   0.978   6.817   0.436 -1.8880 -1.3609 -1.6492
16774TIP3   OH271812   1.473   3.747  13.219  0.9050 -0.7079 -0.0062
16774TIP3    H171813   1.503   3.834  13.246 -0.6607  0.0356 -0.5367
16774TIP3    H271814   1.383   3.742  13.251  1.3187 -2.6083  1.0007
16775TIP3   OH271815   3.541   1.603   0.007  0.0219 -0.0071  0.1373
16775TIP3    H171816   3.525   1.654   0.086  0.5841  0.2378  0.0968
16775TIP3    H271817   3.496   1.651  -0.063 -2.9734 -1.7109  0.7171
16776TIP3   OH271818   1.916   1.414   4.505 -0.5190 -0.6567 -0.4088
16776TIP3    H171819   1.852   1.430   4.574 -0.8370 -2.5610 -0.1860
16776TIP3    H271820   1.966   1.338   4.537  2.2791  1.0878 -0.3110
16777TIP3   OH271821   2.263   3.844   2.076 -0.4339  0.3116  0.2043
16777TIP3    H171822   2.298   3.772   2.129 -1.2687  0.2600  0.7003
16777TIP3    H271823   2.338   3.874   2.024  0.0930 -0.4495  0.5105
16778TIP3   OH271824   7.068   2.819  14.683  0.4443  0.0855 -0.4182
16778TIP3    H171825   7.090   2.779  14.599 -1.6075  0.7192 -1.2992
16778TIP3    H271826   7.045   2.910  14.662  2.3835  1.0507  1.1982
16779TIP3   OH271827   1.136   0.379   5.140  0.4394  0.8975 -0.2079
16779TIP3    H171828   1.136   0.440   5.214  0.1001  0.0125  0.5509
16779TIP3    H271829   1.120   0.293   5.180  1.8652  0.1646 -1.1386
16780TIP3   OH271830   3.340   6.251  13.935 -0.3399 -0.7331  0.4577
16780TIP3    H171831   3.324   6.342  13.912  0.8697  0.2646  3.2074
16780TIP3    H271832   3.266   6.226  13.991 -1.0514 -1.7364 -0.8639
16781TIP3   OH271833   3.136   7.035  14.853  0.0604 -0.1606 -0.1805
16781TIP3    H171834   3.082   7.103  14.813  0.0231 -0.0707  0.0215
16781TIP3    H271835   3.206   7.083  14.898 -0.1852 -0.2306  0.2891
16782TIP3   OH271836   4.229   5.200  11.808 -0.0051 -0.5765 -0.3803
16782TIP3    H171837   4.197   5.161  11.890  3.8985  1.5119  2.4572
16782TIP3    H271838   4.180   5.282  11.800  0.8079  0.0730  0.9612
16783TIP3   OH271839   1.979   6.431   1.779 -0.3255 -0.1425 -0.2622
16783TIP3    H171840   2.002   6.377   1.853  2.6754  1.7956  0.3840
16783TIP3    H271841   1.995   6.376   1.702 -0.2002 -1.0722  0.4216
16784TIP3   OH271842   2.018   1.720   3.643  0.2508 -0.6530  0.8710
16784TIP3    H171843   2.094   1.731   3.587 -1.3030  0.3338 -1.1961
16784TIP3    H271844   2.004   1.625   3.646 -0.2346 -0.7169 -1.4252
16785TIP3   OH271845   5.726   5.216   1.912 -0.0820 -0.1162 -0.3786
16785TIP3    H171846   5.688   5.142   1.865  2.0606 -0.3516 -1.8756
16785TIP3    H271847   5.726   5.189   2.004  0.5715 -1.9594 -0.8825
16786TIP3   OH271848   5.166   0.695   1.463 -0.3947 -0.3984  0.1427
16786TIP3    H171849   5.174   0.732   1.551 -2.5040  1.0923 -0.2167
16786TIP3    H271850   5.189   0.768   1.405 -3.1687  0.0187 -0.5562
16787TIP3   OH271851   5.210   1.844   4.156  0.2749  0.4369 -0.1868
16787TIP3    H171852   5.118   1.848   4.182  0.2464  2.2326 -0.3851
16787TIP3    H271853   5.257   1.880   4.231  0.7699  0.0187 -0.2955
16788TIP3   OH271854   5.168   3.733   1.586  0.0097  0.5130 -0.0559
16788TIP3    H171855   5.105   3.661   1.584 -0.1368  0.6230 -2.5250
16788TIP3    H271856   5.116   3.811   1.608  0.4614 -0.1898  4.6765
16789TIP3   OH271857   0.836   7.130  10.805 -0.3369 -0.1434 -0.3077
16789TIP3    H171858   0.881   7.105  10.723 -2.2752  2.7343 -2.4391
16789TIP3    H271859   0.907   7.163  10.861  0.8156 -0.2805 -1.6125
16790TIP3   OH271860   5.815   4.291  14.820  0.4758 -0.4467  0.0615
16790TIP3    H171861   5.756   4.220  14.846  0.1342 -0.2056 -0.0506
16790TIP3    H271862   5.864   4.311  14.899 -0.6252  0.3483  0.5766
16791TIP3   OH271863   6.042   5.691  10.015 -0.0916  0.7173 -0.4165
16791TIP3    H171864   6.077   5.718   9.930 -0.9005  1.4888 -0.5133
16791TIP3    H271865   5.967   5.748  10.029 -0.8059 -0.3403  0.1809
16792TIP3   OH271866   5.936   5.794   3.570 -0.7581  0.2450 -0.0889
16792TIP3    H171867   5.917   5.820   3.480  0.1063  1.5599  0.0827
16792TIP3    H271868   5.858   5.820   3.619 -0.2706  1.7705 -0.0740
16793TIP3   OH271869   0.162   3.939   4.159  0.1605 -0.4260  0.3682
16793TIP3    H171870   0.234   3.984   4.114 -1.1392  2.3329  0.8283
16793TIP3    H271871   0.196   3.920   4.246  0.7773 -0.4319  0.1324
16794TIP3   OH271872   4.792   5.290   5.031  0.0464 -0.3684 -0.4976
16794TIP3    H171873   4.808   5.218   4.970 -0.3698  0.0114 -1.0676
16794TIP3    H271874   4.700   5.312   5.019  0.2725  0.5331 -0.6434
16795TIP3   OH271875   4.775   3.946   0.304 -0.1774 -0.2253  0.7524
16795TIP3    H171876   4.758   4.040   0.308 -1.5264 -0.4253  0.2704
16795TIP3    H271877   4.719   3.915   0.233  0.4181 -1.3675  0.7677
16796TIP3   OH271878   2.486   5.646   3.482 -0.4235 -0.1843  0.0729
16796TIP3    H171879   2.394   5.630   3.460  0.5853 -3.7581 -2.4074
16796TIP3    H271880   2.534   5.611   3.407  3.0733 -0.3675  2.2192
16797TIP3   OH271881   6.758   6.844   3.925  0.1886 -0.1619  0.4060
16797TIP3    H171882   6.814   6.910   3.884 -0.6345  0.9066  0.9220
16797TIP3    H271883   6.692   6.896   3.972 -1.2241 -1.3651 -0.1754
16798TIP3   OH271884   1.227   5.400   2.811 -0.1007  0.0444 -0.2872
16798TIP3    H171885   1.249   5.361   2.896  0.6135 -1.5194 -1.1539
16798TIP3    H271886   1.312   5.425   2.774 -0.3614  0.2198 -0.7670
16799TIP3   OH271887   6.781   6.921   3.242  0.4730  0.4960 -0.5239
16799TIP3    H171888   6.809   7.010   3.260  1.4002  0.2832 -0.8380
16799TIP3    H271889   6.686   6.927   3.230  0.6824  1.6723 -1.8759
16800TIP3   OH271890   5.022   0.980   2.889  0.8315  0.5989 -0.0188
16800TIP3    H171891   5.085   0.995   2.960  0.5299  3.0343 -0.1930
16800TIP3    H271892   5.071   0.999   2.810  0.6059 -0.2007 -0.3665
16801TIP3   OH271893   6.060   2.193   1.456  0.1313  0.1681  0.3780
16801TIP3    H171894   6.143   2.197   1.408 -0.7993 -1.8132 -1.5545
16801TIP3    H271895   5.994   2.219   1.391 -1.2179 -2.9588  0.3594
16802TIP3   OH271896   5.994   3.247   2.860  0.1852 -0.4590  0.3704
16802TIP3    H171897   6.022   3.270   2.772 -1.2071 -0.9264 -0.2356
16802TIP3    H271898   6.029   3.316   2.916 -1.8842  1.8847 -1.0315
16803TIP3   OH271899   2.790   4.688   2.744  0.2889 -0.2534  0.6720
16803TIP3    H171900   2.837   4.629   2.685  1.6329 -0.1502  1.5748
16803TIP3    H271901   2.752   4.754   2.686  0.3906 -0.9240 -0.1837
16804TIP3   OH271902   4.021   1.906   0.764 -0.8426  0.0408 -0.4093
16804TIP3    H171903   3.937   1.869   0.736 -0.8071 -0.3772  0.0126
16804TIP3    H271904   4.060   1.838   0.818 -0.3565  0.3458 -0.3682
16805TIP3   OH271905   6.916   6.870   2.080  0.3373  0.0588  0.0051
16805TIP3    H171906   6.947   6.781   2.059  1.1437 -0.0652  1.5411
16805TIP3    H271907   6.974   6.899   2.150 -1.7669  0.6476  1.5882
16806TIP3   OH271908   2.908   3.351   2.783 -0.7878 -0.2712 -0.0172
16806TIP3    H171909   2.859   3.417   2.732  1.5660  1.3693 -0.2984
16806TIP3    H271910   2.982   3.328   2.727  0.8890  0.2457  1.8768
16807TIP3   OH271911   1.495   0.062   4.561  0.2207 -0.1419  0.1645
16807TIP3    H171912   1.455   0.058   4.474  1.1903 -1.0547 -0.2624
16807TIP3    H271913   1.535  -0.024   4.573  0.6914  0.2093  1.2376
16808TIP3   OH271914   7.140   1.635   2.472 -0.2432  0.0873  0.4275
16808TIP3    H171915   7.084   1.571   2.515  0.6566 -2.2423 -1.6315
16808TIP3    H271916   7.085   1.714   2.466 -2.4928 -1.3690  0.5048
16809TIP3   OH271917   2.534   1.476   4.458  0.1060  0.4378  0.3670
16809TIP3    H171918   2.535   1.571   4.444 -0.6336  0.2308 -1.2126
16809TIP3    H271919   2.546   1.466   4.553  2.4953  2.0145  0.3112
16810TIP3   OH271920   6.532   3.778   4.396 -0.1023  0.0635 -0.0661
16810TIP3    H171921   6.443   3.808   4.412 -0.6943 -1.3389 -0.5923
16810TIP3    H271922   6.523   3.708   4.332  1.4654  0.4447 -0.7483
16811TIP3   OH271923   4.253   0.100   2.693  0.7095 -0.2269 -0.7592
16811TIP3    H171924   4.195   0.163   2.736  3.0763  0.9987  0.8433
16811TIP3    H271925   4.234   0.017   2.737 -0.1319  0.0388 -0.5964
16812TIP3   OH271926   3.667   3.315   4.861  0.0713 -0.4409 -0.1751
16812TIP3    H171927   3.760   3.304   4.883  0.1353  2.1440  1.2794
16812TIP3    H271928   3.624   3.238   4.898  1.7858 -2.8003 -2.7131
16813TIP3   OH271929   5.783   2.119   1.529 -1.0539 -0.2121  0.8333
16813TIP3    H171930   5.763   2.060   1.457  0.1137  2.1832 -1.6287
16813TIP3    H271931   5.712   2.183   1.528  0.2959  1.3497 -0.0134
16814TIP3   OH271932   0.136   6.069   5.381  0.3164  0.4474 -0.1541
16814TIP3    H171933   0.134   5.999   5.315  0.7458  0.5735 -0.2991
16814TIP3    H271934   0.226   6.099   5.382  0.1820  0.8523  0.0699
16815TIP3   OH271935   3.362   2.203   3.755 -0.0782 -0.1123 -0.2444
16815TIP3    H171936   3.398   2.178   3.670 -1.0017 -2.4010 -0.0383
16815TIP3    H271937   3.281   2.250   3.735  0.2777  0.3575 -0.6117
16816TIP3   OH271938   6.966   4.605   3.386  0.2995 -0.1093  0.4543
16816TIP3    H171939   6.973   4.642   3.474 -1.5779  0.0376  0.5804
16816TIP3    H271940   7.018   4.525   3.390 -1.2771 -1.1346  2.3151
16817TIP3   OH271941   1.726   2.209   2.187 -0.4401  0.3228  0.3662
16817TIP3    H171942   1.715   2.180   2.096 -0.6233  0.2046  0.4257
16817TIP3    H271943   1.668   2.151   2.237  1.1206 -0.9411  0.7998
16818TIP3   OH271944   7.059   2.665   1.116 -0.1055  0.2527  0.9627
16818TIP3    H171945   7.072   2.710   1.199 -1.0953  0.7163  0.8799
16818TIP3    H271946   7.057   2.734   1.050 -0.8148  0.0277  0.7378
16819TIP3   OH271947   0.362   3.464  14.642  0.3138  0.8778 -0.2638
16819TIP3    H171948   0.312   3.386  14.620  0.6501  0.6423 -0.2050
16819TIP3    H271949   0.450   3.446  14.609  1.0221  0.2215  1.8047
16820TIP3   OH271950   4.582   6.466   0.779  0.0383 -0.8358 -0.1923
16820TIP3    H171951   4.501   6.421   0.756 -0.8890  0.6513  0.0369
16820TIP3    H271952   4.582   6.469   0.875 -0.9992  1.4025 -0.1820
16821TIP3   OH271953   0.641   1.462   4.491  0.0378 -0.2916 -0.5391
16821TIP3    H171954   0.657   1.555   4.503 -2.6895  0.1821  0.0349
16821TIP3    H271955   0.663   1.422   4.576  1.1825 -0.2225 -0.7798
16822TIP3   OH271956   2.317   6.175  14.793 -0.0141  0.0959 -0.3926
16822TIP3    H171957   2.281   6.253  14.751  1.4102  0.4267 -1.0394
16822TIP3    H271958   2.326   6.111  14.722  0.9401  0.1230 -0.3065
16823TIP3   OH271959   3.355   5.282   2.577 -0.3799  0.9114 -0.2021
16823TIP3    H171960   3.274   5.258   2.532  1.3889  0.0436 -3.2123
16823TIP3    H271961   3.333   5.361   2.625 -3.3853 -0.1683  0.4100
16824TIP3   OH271962   0.679   2.646   1.694  0.7771  0.0493  0.2211
16824TIP3    H171963   0.634   2.663   1.776 -0.7365  1.7802 -0.9072
16824TIP3    H271964   0.610   2.640   1.628  1.8926 -1.9938 -0.8780
16825TIP3   OH271965   3.670   3.096   5.139  0.4467  0.3426 -0.7404
16825TIP3    H171966   3.581   3.128   5.157  0.5608  0.1356  0.2143
16825TIP3    H271967   3.685   3.028   5.204  1.5617  0.8410 -0.4557
16826TIP3   OH271968   1.605   0.548  14.728  0.3420  0.2339  0.1851
16826TIP3    H171969   1.573   0.458  14.725  0.4972  0.1983 -0.6272
16826TIP3    H271970   1.678   0.550  14.666  0.7888  0.7536  0.6998
16827TIP3   OH271971   5.717   0.727   3.224  0.3199  0.8701  0.3046
16827TIP3    H171972   5.668   0.727   3.141 -1.8830 -1.9436  1.4196
16827TIP3    H271973   5.808   0.743   3.198 -0.0335 -1.3250 -2.8938
16828TIP3   OH271974   3.873   3.739   3.854  0.5558  0.7741  0.4435
16828TIP3    H171975   3.835   3.782   3.778 -0.1350  1.1385  0.9863
16828TIP3    H271976   3.965   3.767   3.854  0.8605 -0.1252 -0.8807
16829TIP3   OH271977   3.502   5.993  10.249  0.5110  0.3800  0.1409
16829TIP3    H171978   3.482   6.045  10.171  0.3451  1.3020  0.7828
16829TIP3    H271979   3.438   6.022  10.314 -1.3811 -2.4940 -0.2134
16830TIP3   OH271980   2.144   6.128   2.956  0.4767 -0.4117 -0.5334
16830TIP3    H171981   2.071   6.133   2.894  0.5508  2.3769 -0.5478
16830TIP3    H271982   2.220   6.104   2.903  0.0828 -0.5399 -1.0430
16831TIP3   OH271983   6.806   1.634   5.005 -0.2448  0.1035  0.1811
16831TIP3    H171984   6.807   1.677   5.091 -1.0195 -1.1865  0.8552
16831TIP3    H271985   6.716   1.604   4.995 -0.5672  1.5782 -1.7885
16832TIP3   OH271986   1.077   2.047   3.145  0.4617  0.0951 -0.8779
16832TIP3    H171987   1.080   2.008   3.057  3.3224 -1.1559 -0.3235
16832TIP3    H271988   1.068   1.972   3.204 -2.3342  0.9691 -0.0110
16833TIP3   OH271989   2.982   0.333   0.052 -0.0312 -0.0558 -0.1658
16833TIP3    H171990   2.888   0.316   0.058 -0.2287  0.3427 -1.7684
16833TIP3    H271991   3.006   0.307  -0.037  1.6994 -1.5438  0.6741
16834TIP3   OH271992   6.070   1.281  12.641 -0.1505  0.2642 -0.2515
16834TIP3    H171993   6.120   1.362  12.636 -0.6644  0.5487 -0.7846
16834TIP3    H271994   5.983   1.308  12.670 -0.4468 -0.0419 -0.8457
16835TIP3   OH271995   5.164   4.929   2.236 -0.1822  0.4307  0.5930
16835TIP3    H171996   5.144   4.929   2.329 -0.3598  1.2817  0.5639
16835TIP3    H271997   5.169   5.021   2.212  1.5456  0.2520  0.1222
16836TIP3   OH271998   6.587   4.498  14.493 -0.0272  0.1755 -1.0072
16836TIP3    H171999   6.649   4.479  14.564 -2.1092  0.5969  1.0415
16836TIP3    H272000   6.554   4.413  14.467 -0.5788  0.1225 -0.1748
16837TIP3   OH272001   2.312   0.391   3.068 -0.2515 -0.3521 -0.1157
16837TIP3    H172002   2.312   0.444   3.148 -1.0716 -0.1515 -0.2370
16837TIP3    H272003   2.270   0.309   3.093 -1.6929  0.1818 -0.6041
16838TIP3   OH272004   4.397   3.727  13.329  0.2741  0.2846  0.0121
16838TIP3    H172005   4.338   3.760  13.262  0.7381  0.6050 -0.2407
16838TIP3    H272006   4.481   3.715  13.285  0.5777  0.4723  0.5220
16839TIP3   OH272007   1.167   3.712   3.580 -0.0321  0.2515 -0.1282
16839TIP3    H172008   1.171   3.738   3.672 -0.9342  1.0898 -0.3036
16839TIP3    H272009   1.134   3.622   3.582 -0.8308  0.5473  0.3394
16840TIP3   OH272010   5.300   0.390   5.688 -0.0743 -0.0005 -0.1483
16840TIP3    H172011   5.359   0.465   5.697  1.0684 -0.8711 -0.1755
16840TIP3    H272012   5.240   0.416   5.618 -0.4945  1.3757  0.6738
16841TIP3   OH272013   4.294   6.868   2.660  0.2298  0.2101  0.8000
16841TIP3    H172014   4.237   6.936   2.695  2.8875  3.0325  0.1596
16841TIP3    H272015   4.368   6.865   2.721  0.5204 -1.6477  0.4211
16842TIP3   OH272016   6.443   3.723   0.009 -0.4256  0.0023  0.1326
16842TIP3    H172017   6.352   3.693   0.016  0.0333 -1.4363  0.1902
16842TIP3    H272018   6.495   3.646   0.027  0.8267  0.2290 -2.1325
16843TIP3   OH272019   2.098   3.052  12.427  0.6109 -0.1802 -0.3117
16843TIP3    H172020   2.072   3.105  12.351  0.7465  1.6226  0.8326
16843TIP3    H272021   2.095   3.113  12.501  0.5934 -1.8438  1.1333
16844TIP3   OH272022   3.486   2.442  13.617  0.0329  0.3805 -0.0720
16844TIP3    H172023   3.527   2.522  13.586  0.4890  1.2390  2.4865
16844TIP3    H272024   3.556   2.377  13.616 -0.5458 -0.3630 -3.0057
16845TIP3   OH272025   1.653   1.250   5.626 -0.1814  0.1184  0.0603
16845TIP3    H172026   1.679   1.166   5.590 -2.6899  0.1434 -2.1086
16845TIP3    H272027   1.682   1.248   5.718  3.3150 -1.4246 -0.9298
16846TIP3   OH272028   3.238   1.768   5.004  0.3532  0.6221 -0.2644
16846TIP3    H172029   3.293   1.806   5.072 -0.0679  0.0909  0.3748
16846TIP3    H272030   3.153   1.756   5.045  0.2526 -0.2547 -0.6976
16847TIP3   OH272031   1.335   3.861   1.067 -0.1005  0.5281  0.3902
16847TIP3    H172032   1.411   3.843   1.122  0.5119  2.6909  0.3128
16847TIP3    H272033   1.296   3.940   1.103 -1.4861  0.2701 -0.4526
16848TIP3   OH272034   5.109   1.241  10.277 -0.6668  0.3932 -0.1986
16848TIP3    H172035   5.172   1.260  10.207  1.8337  0.8113  2.0356
16848TIP3    H272036   5.030   1.211  10.230 -0.1606  3.2923 -3.3207
16849TIP3   OH272037   3.470   0.568   3.854  0.5005  0.1560  0.2238
16849TIP3    H172038   3.515   0.530   3.779  0.4163  0.2087  0.1470
16849TIP3    H272039   3.534   0.628   3.893  0.3492  0.5562 -0.1385
16850TIP3   OH272040   4.927   6.265   3.602  0.2138 -0.0712  0.2284
16850TIP3    H172041   4.882   6.293   3.522  0.2914  2.0929  0.8799
16850TIP3    H272042   5.019   6.290   3.587 -0.2437  3.5087  2.1543
16851TIP3   OH272043   1.316   1.431  13.828 -0.0151  0.7116 -0.4563
16851TIP3    H172044   1.255   1.460  13.760  0.7168  0.5849 -1.1843
16851TIP3    H272045   1.273   1.354  13.867 -0.5487  0.9221 -0.6156
16852TIP3   OH272046   6.511   4.240   6.072 -0.0262 -0.4273  0.4333
16852TIP3    H172047   6.471   4.274   5.992 -0.1314  1.6819  1.3309
16852TIP3    H272048   6.486   4.147   6.073 -2.8273  0.2083 -0.3310
16853TIP3   OH272049   0.221   5.519  13.480  0.4704  0.4879  0.1065
16853TIP3    H172050   0.221   5.427  13.454 -0.4509  0.6389 -0.4932
16853TIP3    H272051   0.135   5.533  13.520  0.7028  1.0208  0.4311
16854TIP3   OH272052   3.129   1.275   4.692  0.1322 -0.2061 -0.1867
16854TIP3    H172053   3.121   1.184   4.720 -0.7099 -0.3710 -0.8938
16854TIP3    H272054   3.093   1.326   4.765  0.0634 -0.4808 -0.0261
16855TIP3   OH272055   1.479   1.060   3.625  0.2010  0.0185 -0.2953
16855TIP3    H172056   1.417   1.129   3.601  2.0002  1.2676 -1.6471
16855TIP3    H272057   1.552   1.106   3.666 -0.2365 -1.5423  2.5264
16856TIP3   OH272058   5.043   6.041   3.708 -0.1768 -0.1536 -0.0135
16856TIP3    H172059   4.981   6.108   3.679  0.2360  0.0786 -0.3900
16856TIP3    H272060   5.039   5.974   3.640 -0.3389 -0.3483  0.1880
16857TIP3   OH272061   2.862   4.552   1.748  0.3267  0.4636 -0.1131
16857TIP3    H172062   2.786   4.525   1.799 -0.1427 -0.1791 -1.1359
16857TIP3    H272063   2.865   4.648   1.757  0.3883  0.3597  1.2773
16858TIP3   OH272064   1.963   3.316  13.964 -0.3459  0.1176 -0.0784
16858TIP3    H172065   1.878   3.283  13.996 -1.1979  0.5345 -1.8079
16858TIP3    H272066   2.027   3.278  14.023 -1.7335 -0.2290  1.2799
16859TIP3   OH272067   6.117   3.717   4.745  0.2729 -0.2751  0.1414
16859TIP3    H172068   6.129   3.667   4.664 -1.0511 -2.4350  1.1958
16859TIP3    H272069   6.039   3.770   4.730  1.7453  1.7054 -1.0221
16860TIP3   OH272070   1.902   2.915   1.145  0.2391 -0.0830  0.7710
16860TIP3    H172071   1.866   2.934   1.231  0.0425  1.7119  0.3348
16860TIP3    H272072   1.997   2.908   1.159  0.1929  0.0802  1.1696
16861TIP3   OH272073   4.144   0.038   2.070 -0.5367  0.4668  0.3599
16861TIP3    H172074   4.170   0.014   1.981 -1.0427  1.4618 -0.0611
16861TIP3    H272075   4.060  -0.005   2.083 -0.9593  1.1669 -0.0269
16862TIP3   OH272076   2.387   2.306   5.312  1.0303  0.5640 -0.3457
16862TIP3    H172077   2.322   2.303   5.242  1.5450 -3.5196 -0.9087
16862TIP3    H272078   2.444   2.231   5.295  1.3027 -0.6078  4.2721
16863TIP3   OH272079   1.672   5.210   0.821  0.9561 -0.0507  0.0091
16863TIP3    H172080   1.621   5.135   0.851 -0.4120  0.9572  0.2802
16863TIP3    H272081   1.626   5.286   0.857  0.9552  1.0587 -2.2119
16864TIP3   OH272082   0.560   1.776   3.931  0.3016  0.0735 -0.1385
16864TIP3    H172083   0.577   1.791   4.024  0.4388  2.2122 -0.4585
16864TIP3    H272084   0.618   1.837   3.886 -0.5226 -0.1806 -1.6081
16865TIP3   OH272085   0.972   5.659   1.845  0.2513 -0.5049 -0.6573
16865TIP3    H172086   1.040   5.614   1.896  1.1604  2.4175  0.9064
16865TIP3    H272087   0.890   5.617   1.874  0.9680 -0.5797  1.4325
16866TIP3   OH272088   0.885   1.206   6.090 -0.5919 -0.3470 -0.3132
16866TIP3    H172089   0.838   1.288   6.072 -0.4298 -0.0287  0.6813
16866TIP3    H272090   0.947   1.198   6.017 -2.4471 -1.0166 -1.9089
16867TIP3   OH272091   2.482   0.875   1.179 -0.8456 -0.1691  0.1056
16867TIP3    H172092   2.552   0.816   1.204  1.1863  1.7765 -0.6696
16867TIP3    H272093   2.455   0.846   1.091  1.6200  1.1982 -1.2061
16868TIP3   OH272094   6.657   1.075   3.851 -0.0202  0.1301 -0.1422
16868TIP3    H172095   6.562   1.069   3.853  0.0529 -1.4532 -0.0383
16868TIP3    H272096   6.676   1.148   3.792 -1.2562 -1.8881 -3.2492
16869TIP3   OH272097   2.316   4.261   3.899  0.1263  0.2728  0.0818
16869TIP3    H172098   2.320   4.213   3.816  0.9807  1.4159 -0.5676
16869TIP3    H272099   2.338   4.351   3.875 -1.9691  1.1425  1.1761
16870TIP3   OH272100   5.972   2.042   5.096  0.6211  0.2504 -0.0387
16870TIP3    H172101   5.895   2.005   5.138 -0.0616  1.4831 -0.1493
16870TIP3    H272102   5.972   2.134   5.122  0.9317  0.7297 -1.6256
16871TIP3   OH272103   3.943   7.017   5.402  0.4271 -0.0094 -0.2002
16871TIP3    H172104   3.907   7.020   5.490  1.0333 -0.0782  0.0561
16871TIP3    H272105   3.982   6.930   5.395  1.0819  0.2818 -0.2499
16872TIP3   OH272106   3.930   2.115   2.835 -0.0173  0.2585  0.1199
16872TIP3    H172107   3.898   2.161   2.913 -1.5199  0.1389 -0.3837
16872TIP3    H272108   3.980   2.181   2.788 -2.9855  1.8534 -1.1113
16873TIP3   OH272109   5.586   0.001   3.788  0.2251  0.1933 -0.3081
16873TIP3    H172110   5.650   0.068   3.812 -0.1867  0.6323 -0.4383
16873TIP3    H272111   5.524  -0.001   3.860  0.7671 -0.7408  0.1617
16874TIP3   OH272112   7.184   0.628   3.348 -0.6498  0.0147 -0.9859
16874TIP3    H172113   7.220   0.715   3.359  1.8450 -1.2159  1.9194
16874TIP3    H272114   7.252   0.579   3.301 -0.2833 -1.2755  0.7856
16875TIP3   OH272115   0.619   0.106   3.551 -0.6655  0.0727 -0.3205
16875TIP3    H172116   0.570   0.142   3.624 -1.7538  2.1732 -1.9652
16875TIP3    H272117   0.710   0.126   3.570 -0.8348 -0.2486  0.8757
16876TIP3   OH272118   6.082   1.967  12.828  0.1471  0.0497 -0.0085
16876TIP3    H172119   6.155   1.997  12.882  0.3277 -0.6421  0.1489
16876TIP3    H272120   6.094   1.872  12.822 -0.1771  0.0513 -0.8178
16877TIP3   OH272121   2.471   3.631   1.469  0.3407 -0.4613  0.3313
16877TIP3    H172122   2.466   3.637   1.565  1.7631  0.9166  0.3509
16877TIP3    H272123   2.420   3.706   1.438 -0.6622 -1.2649 -0.0484
16878TIP3   OH272124   1.596   1.571   5.671 -0.7495  0.0730  0.0913
16878TIP3    H172125   1.680   1.533   5.699 -1.6282 -0.4054  2.2600
16878TIP3    H272126   1.530   1.512   5.706 -2.0344  0.6729 -1.2275
16879TIP3   OH272127   5.638   5.026   3.805 -0.2785  0.3261 -0.1717
16879TIP3    H172128   5.600   5.072   3.730 -1.4752 -1.4280 -0.6877
16879TIP3    H272129   5.602   5.070   3.882  1.0910  2.2534 -0.5534
16880TIP3   OH272130   4.691   1.684   9.672 -0.1752 -0.1565  0.3873
16880TIP3    H172131   4.629   1.620   9.636 -0.8459 -0.6768  2.3603
16880TIP3    H272132   4.729   1.726   9.595 -0.1404 -2.4992 -0.9829
16881TIP3   OH272133   3.911   5.598  14.896 -0.3578  0.2395 -0.5239
16881TIP3    H172134   3.887   5.657  14.968 -1.9794 -0.7413 -0.2265
16881TIP3    H272135   3.957   5.525  14.939 -1.9547 -0.7027 -0.3419
16882TIP3   OH272136   1.388   3.740   1.481  0.0145  0.5396  0.0592
16882TIP3    H172137   1.413   3.673   1.417  0.6682 -0.0536  0.9084
16882TIP3    H272138   1.298   3.719   1.505 -0.2543  0.8013 -0.6972
16883TIP3   OH272139   1.978   2.460   2.681  0.1432  0.1513  0.5465
16883TIP3    H172140   1.998   2.551   2.660 -1.9477  1.0750  2.0708
16883TIP3    H272141   1.928   2.429   2.606 -0.7550  0.9185  0.8023
16884TIP3   OH272142   0.081   0.364   1.811  0.4392  0.1209  0.1120
16884TIP3    H172143   0.096   0.360   1.905 -0.7720  1.2615  0.3834
16884TIP3    H272144   0.100   0.276   1.780 -1.2400 -0.8913  1.7657
16885TIP3   OH272145   6.644   4.471  11.705 -0.4533 -0.3384 -0.1245
16885TIP3    H172146   6.566   4.417  11.703  0.4083 -1.6278 -0.1309
16885TIP3    H272147   6.697   4.434  11.776 -0.6301  1.6522  1.1098
16886TIP3   OH272148   2.108   1.794   2.530 -0.2628 -0.3788 -0.2475
16886TIP3    H172149   2.074   1.709   2.501  1.3142 -0.6478 -1.4802
16886TIP3    H272150   2.166   1.773   2.604 -1.1271 -0.1699  0.4991
16887TIP3   OH272151   2.446   2.699  14.079 -0.2422  0.5089 -0.4665
16887TIP3    H172152   2.416   2.726  14.166 -1.1306 -1.4106 -0.1286
16887TIP3    H272153   2.516   2.636  14.097  0.6962  1.3084 -1.2034
16888TIP3   OH272154   4.430   1.312   9.415 -0.1947 -0.0811 -0.5922
16888TIP3    H172155   4.426   1.270   9.329 -3.1849 -0.5788 -0.3214
16888TIP3    H272156   4.343   1.296   9.453  0.8564  0.5886  2.3138
16889TIP3   OH272157   5.142   6.340   3.112  0.4604  0.2836  0.4426
16889TIP3    H172158   5.091   6.420   3.123  0.1955  0.2457 -0.4301
16889TIP3    H272159   5.100   6.294   3.039  1.1496 -0.2173  0.3434
16890TIP3   OH272160   6.751   1.500   5.629 -0.1664 -0.2515 -0.3263
16890TIP3    H172161   6.761   1.547   5.712 -1.0433 -0.8966  0.1611
16890TIP3    H272162   6.736   1.569   5.564  0.0453  0.2286  0.1267
16891TIP3   OH272163   0.165   2.126  11.847  0.1606  0.5805 -0.1911
16891TIP3    H172164   0.192   2.105  11.758  0.0648 -0.9291  0.1136
16891TIP3    H272165   0.176   2.045  11.896 -0.2370  1.2543  1.0767
16892TIP3   OH272166   2.719   5.614   2.153  0.5467  0.3297 -0.4699
16892TIP3    H172167   2.695   5.595   2.243 -2.3169 -1.1769 -1.4116
16892TIP3    H272168   2.704   5.532   2.106 -1.3949  1.8651 -2.8507
16893TIP3   OH272169   6.689   2.208   3.346  0.1929 -0.2968  0.3033
16893TIP3    H172170   6.770   2.199   3.295 -0.1875 -1.5808 -0.1176
16893TIP3    H272171   6.717   2.240   3.431  1.1266 -0.5853  0.1133
16894TIP3   OH272172   6.032   0.759   2.139  0.0530 -0.1127  0.0468
16894TIP3    H172173   6.030   0.735   2.047  0.0240  1.3427 -0.3548
16894TIP3    H272174   6.111   0.716   2.174 -0.2800 -1.1885 -0.4806
16895TIP3   OH272175   0.855   4.470   0.574 -0.4733  0.2768  0.0467
16895TIP3    H172176   0.829   4.448   0.484 -2.0877  0.3478  0.4768
16895TIP3    H272177   0.894   4.390   0.608 -1.2983 -0.2416 -0.2074
16896TIP3   OH272178   3.266   3.722   3.719  0.4902  0.3479  0.7738
16896TIP3    H172179   3.203   3.652   3.702 -0.4880  1.5072 -0.6522
16896TIP3    H272180   3.229   3.770   3.793 -0.7444  1.4609 -0.5170
16897TIP3   OH272181   2.948   1.127   4.077  0.4525  0.3178 -0.2947
16897TIP3    H172182   2.888   1.054   4.064  0.2887  0.1549  1.2317
16897TIP3    H272183   2.949   1.173   3.992 -0.1033 -0.9402 -1.0024
16898TIP3   OH272184   0.316   4.945   2.011 -0.1802  0.0582 -0.5788
16898TIP3    H172185   0.280   5.033   2.000 -1.1438 -0.4310 -1.5642
16898TIP3    H272186   0.407   4.959   2.035 -0.6748  1.3247  0.6418
16899TIP3   OH272187   0.613   1.189   3.706 -0.0738 -0.5549  0.2677
16899TIP3    H172188   0.680   1.190   3.639  0.2649 -1.0613  0.5949
16899TIP3    H272189   0.660   1.207   3.788 -0.4281 -0.3080  0.4229
16900TIP3   OH272190   3.178   0.418   2.521  0.0506  0.0598 -0.2755
16900TIP3    H172191   3.149   0.422   2.430  0.9609 -0.3539 -0.5905
16900TIP3    H272192   3.189   0.509   2.547 -2.8510  0.3611  0.3188
16901TIP3   OH272193   4.247   2.381  13.961  0.2523  0.2412  0.0005
16901TIP3    H172194   4.310   2.326  13.913 -0.4523 -1.2661  0.7342
16901TIP3    H272195   4.210   2.323  14.028 -0.8207  1.5150  0.5632
16902TIP3   OH272196   0.903   0.580   0.414  0.3754  0.7186  0.1364
16902TIP3    H172197   0.945   0.533   0.486  1.5214 -0.1905 -1.0802
16902TIP3    H272198   0.975   0.627   0.371 -0.2641  1.1051 -0.5278
16903TIP3   OH272199   6.609   2.068   1.276 -0.8079 -0.4474  0.0736
16903TIP3    H172200   6.663   2.140   1.309 -1.4686 -0.3786  1.0397
16903TIP3    H272201   6.564   2.105   1.200  1.4524 -0.8935 -1.5988
16904TIP3   OH272202   1.243   0.254   3.109  0.1992 -0.0607 -0.7475
16904TIP3    H172203   1.224   0.167   3.143  0.5639  0.0367 -0.2866
16904TIP3    H272204   1.202   0.256   3.022 -1.8394  0.1108  0.1553
16905TIP3   OH272205   4.757   1.757   2.775 -0.3303  0.2409 -0.2841
16905TIP3    H172206   4.681   1.747   2.719 -1.0417 -0.6896  0.7991
16905TIP3    H272207   4.727   1.811   2.848  0.2862  0.5712 -0.2639
16906TIP3   OH272208   2.711   3.850  13.666  0.0233  0.0698  0.3212
16906TIP3    H172209   2.656   3.834  13.589  0.2835 -1.3611  0.3986
16906TIP3    H272210   2.782   3.786  13.658  0.2187  0.1032  1.6005
16907TIP3   OH272211   0.201   5.759   0.413  0.5187 -0.4041 -0.3570
16907TIP3    H172212   0.177   5.759   0.320 -0.6819 -1.4043 -0.0737
16907TIP3    H272213   0.236   5.672   0.428 -1.0296 -0.9077  0.5266
16908TIP3   OH272214   1.508   6.428  15.076  0.4858 -0.0566 -0.6174
16908TIP3    H172215   1.603   6.424  15.063  0.4571  0.2894 -0.9301
16908TIP3    H272216   1.494   6.389  15.162  0.8937 -0.2904 -0.6547
16909TIP3   OH272217   2.593   5.301  12.055  0.0320  0.3008  0.3099
16909TIP3    H172218   2.555   5.246  12.123 -0.8373  0.7938  0.2345
16909TIP3    H272219   2.641   5.241  12.000 -2.3719 -0.7050 -0.8227
16910TIP3   OH272220   4.807   4.039   4.161  0.4731 -0.3662  0.0267
16910TIP3    H172221   4.730   4.013   4.112 -0.1012  1.0468  0.1291
16910TIP3    H272222   4.785   4.125   4.197  1.9954 -0.0494  0.2709
16911TIP3   OH272223   0.389   2.389   4.948  0.5853  0.0108  0.2841
16911TIP3    H172224   0.407   2.296   4.962 -1.7835 -0.3967  0.9603
16911TIP3    H272225   0.303   2.403   4.986 -0.1378  1.9706 -1.8657
16912TIP3   OH272226   1.990   2.477   5.383  0.9582 -0.2357  0.1235
16912TIP3    H172227   2.003   2.476   5.478  1.3690 -1.5761  0.0711
16912TIP3    H272228   1.952   2.392   5.363  1.0992 -0.0617 -0.9445
16913TIP3   OH272229   1.303   4.259   4.096 -0.0594 -0.0383 -0.0193
16913TIP3    H172230   1.357   4.182   4.113  2.6474  1.2194 -2.2919
16913TIP3    H272231   1.265   4.243   4.010 -1.1647  0.3131  0.3834
16914TIP3   OH272232   6.303   7.159  11.648 -0.4333 -0.3607 -0.0321
16914TIP3    H172233   6.273   7.077  11.686 -0.6653 -0.3602 -0.2095
16914TIP3    H272234   6.304   7.143  11.553  2.5177 -1.1765  0.0434
16915TIP3   OH272235   4.975   6.914   0.719  0.3773  0.2543  0.0691
16915TIP3    H172236   4.930   6.853   0.777  1.2915  0.4473  1.0203
16915TIP3    H272237   4.916   6.989   0.713  0.7272  0.7055  1.6783
16916TIP3   OH272238   1.816   3.876  11.425  0.1534 -0.5532 -0.3390
16916TIP3    H172239   1.857   3.904  11.343  1.9423 -1.3570  0.2505
16916TIP3    H272240   1.778   3.790  11.405 -0.5387 -0.1879 -0.6465
16917TIP3   OH272241   0.724   2.728   4.538  0.1499  0.2305 -0.2294
16917TIP3    H172242   0.680   2.765   4.461 -0.6418  0.8550  0.4992
16917TIP3    H272243   0.653   2.710   4.599  0.3755 -3.1631 -0.7471
16918TIP3   OH272244   5.791   4.137   4.616  0.1943  0.0646  0.2476
16918TIP3    H172245   5.709   4.163   4.575 -0.4088 -1.9559  0.0664
16918TIP3    H272246   5.847   4.110   4.543  0.7682  0.7486  0.4283
16919TIP3   OH272247   4.493   4.228   3.023  0.1729  0.3530 -0.0505
16919TIP3    H172248   4.494   4.160   2.956  1.5254 -0.1997  0.4862
16919TIP3    H272249   4.401   4.253   3.032 -0.2966 -1.1071 -0.5527
16920TIP3   OH272250   6.347   2.548   2.794  0.7476  0.3791 -0.5582
16920TIP3    H172251   6.314   2.601   2.721  1.6455  1.2593 -0.3547
16920TIP3    H272252   6.306   2.585   2.871 -1.0756 -1.2682 -0.6821
16921TIP3   OH272253   0.220   7.103   3.703 -0.3058 -0.2499 -0.2807
16921TIP3    H172254   0.298   7.050   3.689 -0.8635 -1.1201 -0.1547
16921TIP3    H272255   0.237   7.151   3.784  0.1534 -0.3211 -0.3360
16922TIP3   OH272256   6.290   3.016   5.804 -0.6097  0.3330 -0.2641
16922TIP3    H172257   6.256   2.927   5.804 -2.5371  0.9818  1.8064
16922TIP3    H272258   6.349   3.019   5.879  0.1356  0.5799 -0.8534
16923TIP3   OH272259   0.020   6.627   1.346  0.4207  0.3311 -0.1853
16923TIP3    H172260  -0.023   6.546   1.375  0.0892  1.0905  1.5999
16923TIP3    H272261   0.044   6.671   1.427  2.9814  0.8123 -1.1118
16924TIP3   OH272262   6.576   6.326   3.456  0.0152  0.4753  0.2208
16924TIP3    H172263   6.620   6.329   3.541 -0.5793 -0.5546  0.5849
16924TIP3    H272264   6.623   6.257   3.408  0.9202  1.6454 -0.6393
16925TIP3   OH272265   5.403   7.252   1.676  0.7762  0.0274 -0.2353
16925TIP3    H172266   5.469   7.182   1.680 -0.0251 -0.8521 -1.5638
16925TIP3    H272267   5.395   7.272   1.583  0.9945  1.9319  0.1266
16926TIP3   OH272268   5.195   2.772   1.774 -0.2083 -0.2278  0.6085
16926TIP3    H172269   5.255   2.717   1.824 -0.8346 -0.5056  1.0649
16926TIP3    H272270   5.211   2.861   1.806 -0.0116 -0.2978  0.7035
16927TIP3   OH272271   1.834   1.909   3.416  0.1762  0.1444 -0.2603
16927TIP3    H172272   1.765   1.849   3.447  2.0213 -2.0466 -0.1166
16927TIP3    H272273   1.838   1.893   3.322 -0.4025  1.2749 -0.4859
16928TIP3   OH272274   6.106   4.090   2.860  0.2303 -0.4709  0.7558
16928TIP3    H172275   6.140   4.177   2.883  1.5701 -0.9704  0.7552
16928TIP3    H272276   6.146   4.070   2.776 -2.1846  0.0109 -0.6080
16929TIP3   OH272277   6.460   5.975   2.722 -0.2523  0.3564 -0.3028
16929TIP3    H172278   6.460   6.044   2.656 -2.0454 -1.3355 -2.2265
16929TIP3    H272279   6.372   5.979   2.760 -0.9613 -1.7362 -1.5449
16930TIP3   OH272280   4.288   3.484   1.023 -0.3215 -0.0564 -0.5220
16930TIP3    H172281   4.327   3.436   0.950 -2.2090  1.2896 -2.5457
16930TIP3    H272282   4.264   3.569   0.985 -0.3840  1.1278  1.9865
16931TIP3   OH272283   6.247   2.250   1.260 -0.1689  1.2213 -0.3063
16931TIP3    H172284   6.325   2.278   1.309  0.3674 -0.7217  0.0449
16931TIP3    H272285   6.280   2.233   1.171 -0.4389  1.4602 -0.4533
16932TIP3   OH272286   4.693   4.058   1.612  0.5581 -0.0816 -0.1264
16932TIP3    H172287   4.684   4.142   1.658 -2.2846 -0.8174  0.8036
16932TIP3    H272288   4.664   4.077   1.523  1.0328  0.1346 -0.2450
16933TIP3   OH272289   0.452   5.016   2.797 -0.0353  0.1274 -0.1677
16933TIP3    H172290   0.383   4.963   2.837  0.1845  0.5159  0.7590
16933TIP3    H272291   0.409   5.060   2.723 -0.4256 -0.6797 -0.4316
16934TIP3   OH272292   3.179   3.938   3.897 -0.2597  0.0996  0.0889
16934TIP3    H172293   3.170   4.032   3.908 -0.6015  0.0630  0.1527
16934TIP3    H272294   3.089   3.907   3.881 -0.2219 -0.2818  0.6002
16935TIP3   OH272295   1.801   4.374   5.265  0.0807  0.4620 -0.3139
16935TIP3    H172296   1.883   4.376   5.216  0.9168 -0.1469  1.0080
16935TIP3    H272297   1.799   4.458   5.312 -0.0640  0.4742 -0.3398
16936TIP3   OH272298   4.396   2.672   3.032 -0.0792  0.2464 -0.1611
16936TIP3    H172299   4.389   2.740   2.965 -0.1335 -0.6111 -1.0671
16936TIP3    H272300   4.317   2.682   3.085  0.4817  1.6076  0.4407
16937TIP3   OH272301   6.074   5.363   3.610  0.1004 -0.1598  0.4379
16937TIP3    H172302   6.069   5.317   3.526 -1.4892 -0.8503  0.8713
16937TIP3    H272303   6.010   5.318   3.666  0.3335  0.9802  1.6725
16938TIP3   OH272304   7.098   1.959   4.444  0.4111  0.6293  0.6554
16938TIP3    H172305   7.175   1.958   4.388  0.2238  0.6615  0.3949
16938TIP3    H272306   7.063   1.870   4.438  0.2214  0.7153  0.4844
16939TIP3   OH272307   0.723   0.568   3.605 -0.4682 -0.1410  0.7653
16939TIP3    H172308   0.723   0.652   3.560  0.2399  0.5954  2.1080
16939TIP3    H272309   0.663   0.514   3.553  0.9094  0.3917 -1.5430
16940TIP3   OH272310   3.786   2.524   0.494  0.5655  0.3041  0.1630
16940TIP3    H172311   3.767   2.462   0.564  1.1997  0.5558  0.5674
16940TIP3    H272312   3.881   2.536   0.497  0.3993  1.8181  0.5641
16941TIP3   OH272313   0.007   1.321   2.605  0.4355  0.0507  0.2683
16941TIP3    H172314  -0.042   1.355   2.530 -0.4489 -0.5673  0.5395
16941TIP3    H272315  -0.028   1.233   2.618  0.5787  0.1442  1.4018
16942TIP3   OH272316   5.212   2.533  15.295 -0.4130 -0.0165  0.3321
16942TIP3    H172317   5.165   2.521  15.378  0.1253  2.0383  0.9998
16942TIP3    H272318   5.143   2.536  15.229 -0.8406 -1.9161  0.6280
16943TIP3   OH272319   2.070   1.847   3.197 -0.0151 -0.8345 -0.2743
16943TIP3    H172320   2.146   1.893   3.232 -0.6266  1.7008 -1.9474
16943TIP3    H272321   2.106   1.785   3.133  0.6891  0.4774 -1.1953
16944TIP3   OH272322   3.000   0.433   2.893  0.0387  0.4535  0.0355
16944TIP3    H172323   2.945   0.366   2.932  1.0494 -0.5869 -0.2736
16944TIP3    H272324   3.089   0.401   2.907  0.4973  1.2373 -1.0219
16945TIP3   OH272325   4.587   4.748   5.364 -0.0042 -0.0326  0.4661
16945TIP3    H172326   4.621   4.741   5.452 -0.4780  1.1836  0.7676
16945TIP3    H272327   4.540   4.831   5.363 -0.8526 -0.4961 -0.6374
16946TIP3   OH272328   3.129   4.521  13.230 -0.0337  0.0243 -0.6857
16946TIP3    H172329   3.193   4.462  13.268 -0.5983 -0.3956 -0.3713
16946TIP3    H272330   3.170   4.608  13.234 -0.2145  0.0520  1.1829
16947TIP3   OH272331   5.104   6.011   2.364 -0.1149 -0.3056 -0.1284
16947TIP3    H172332   5.109   6.055   2.449  1.4257 -0.7557  0.0441
16947TIP3    H272333   5.020   6.037   2.328 -0.2167  0.9521  0.9631
16948TIP3   OH272334   1.102   0.206   3.614  0.3304  0.5935  0.6691
16948TIP3    H172335   1.181   0.205   3.560  0.8071  1.8083  1.3248
16948TIP3    H272336   1.078   0.298   3.620 -1.6574  0.1953 -0.2255
16949TIP3   OH272337   6.543   5.629  12.556 -0.0683  0.0513 -0.3805
16949TIP3    H172338   6.509   5.547  12.521 -2.6517  0.7605  0.2456
16949TIP3    H272339   6.575   5.676  12.478 -1.4462 -0.2948 -1.1975
16950TIP3   OH272340   5.327   1.807   5.219  0.1560  0.4219 -0.1360
16950TIP3    H172341   5.374   1.885   5.189  2.4852 -0.6363  0.5369
16950TIP3    H272342   5.383   1.769   5.287 -1.5400 -1.1425  0.4927
16951TIP3   OH272343   4.486   1.953   4.181  0.0344  0.2056 -0.3135
16951TIP3    H172344   4.442   1.868   4.169 -0.5295  0.4777 -0.2335
16951TIP3    H272345   4.516   1.977   4.093 -1.0720  0.5883 -0.6047
16952TIP3   OH272346   4.844   4.441   1.471 -0.5727  0.7711  0.5934
16952TIP3    H172347   4.787   4.383   1.419  0.1774  0.6860 -0.1644
16952TIP3    H272348   4.918   4.458   1.413 -0.1329  1.3910  1.3341
16953TIP3   OH272349   6.636   0.328   0.731  0.1750  0.0123 -0.5887
16953TIP3    H172350   6.702   0.274   0.688 -0.0813 -0.7628 -0.0427
16953TIP3    H272351   6.662   0.418   0.712  3.4989 -0.0321  2.4608
16954TIP3   OH272352   0.942   2.673   4.298  0.3198 -0.1920  0.1970
16954TIP3    H172353   0.916   2.583   4.277  1.7771 -0.2200 -1.7895
16954TIP3    H272354   0.867   2.709   4.347 -1.0400 -1.9162 -0.4981
16955TIP3   OH272355   4.753   3.257   3.530 -0.1329 -0.0956 -0.3916
16955TIP3    H172356   4.746   3.307   3.449  0.1447  1.4706  0.5029
16955TIP3    H272357   4.847   3.256   3.549 -0.1913 -0.4789 -0.1203
16956TIP3   OH272358   3.314   0.751   4.342  0.0252 -0.0520 -0.2132
16956TIP3    H172359   3.247   0.715   4.400 -0.2890 -0.1482 -0.6312
16956TIP3    H272360   3.337   0.835   4.381  0.5176 -0.5456  0.5837
16957TIP3   OH272361   5.790   4.953   4.591  0.3105 -0.5900  0.2469
16957TIP3    H172362   5.739   5.029   4.620  2.1581  1.2077 -0.8734
16957TIP3    H272363   5.725   4.890   4.562 -1.3001  0.9807  0.2555
16958TIP3   OH272364   4.553   0.270   0.956 -0.2340  0.6777  0.2067
16958TIP3    H172365   4.637   0.304   0.984 -0.1251  0.4059  0.2112
16958TIP3    H272366   4.496   0.279   1.032  0.5900 -1.9489  1.2448
16959TIP3   OH272367   6.874   6.925   4.769 -0.4639  0.4936  0.0902
16959TIP3    H172368   6.969   6.920   4.771 -0.5096 -0.5125 -0.1167
16959TIP3    H272369   6.854   7.008   4.813  0.5456  1.2720 -0.8485
16960TIP3   OH272370   1.384   2.629   4.260  0.6060  0.6872 -0.3857
16960TIP3    H172371   1.355   2.631   4.351 -0.1993 -0.1717 -0.6172
16960TIP3    H272372   1.473   2.595   4.264  0.0247 -0.8593 -0.0327
16961TIP3   OH272373   0.103   2.659   3.170 -0.2564 -0.6080 -0.3585
16961TIP3    H172374   0.160   2.582   3.166  0.6990 -0.1079  2.1984
16961TIP3    H272375   0.137   2.712   3.242 -0.8981  2.2494 -1.9626
16962TIP3   OH272376   5.895   2.496   4.994  0.6039 -0.2987  0.3615
16962TIP3    H172377   5.899   2.436   5.068  0.0345 -0.7805  0.0041
16962TIP3    H272378   5.814   2.474   4.949  1.1782 -0.3419 -0.6867
16963TIP3   OH272379   0.174   7.218   4.073  0.2706  0.2407 -0.1696
16963TIP3    H172380   0.129   7.138   4.047  0.3795  0.0974  0.0796
16963TIP3    H272381   0.207   7.200   4.161 -0.9575  1.0700  0.5041
16964TIP3   OH272382   0.469   0.051   4.287 -0.0385 -0.3158  0.2389
16964TIP3    H172383   0.521   0.023   4.213 -0.1487  1.7588 -0.7004
16964TIP3    H272384   0.393  -0.008   4.287  0.4000 -0.9000 -0.7326
16965TIP3   OH272385   4.037   6.744   3.389  0.4643  0.1146 -0.1681
16965TIP3    H172386   4.103   6.711   3.328  0.9759  0.6690  0.0606
16965TIP3    H272387   4.078   6.823   3.427 -0.1294  0.1800  0.3536
16966TIP3   OH272388   2.947   5.514   1.525 -0.3426  0.4278 -0.4926
16966TIP3    H172389   2.931   5.512   1.619  1.1475 -0.5754 -0.2336
16966TIP3    H272390   2.997   5.435   1.507 -0.1712  0.8543 -2.0610
16967TIP3   OH272391   4.776   3.706   3.960  0.6017  0.0618  0.1852
16967TIP3    H172392   4.838   3.644   3.922  1.0565  1.7751 -2.0400
16967TIP3    H272393   4.803   3.712   4.052  0.3945 -3.1118  0.5688
16968TIP3   OH272394   6.608   5.075   2.422  0.4279  0.1420 -0.3043
16968TIP3    H172395   6.666   5.148   2.401  1.1617 -0.8132 -1.8219
16968TIP3    H272396   6.653   5.028   2.493  1.5115 -0.4939 -1.3487
16969TIP3   OH272397   4.847   4.770   2.356 -0.5033 -0.1432  0.0207
16969TIP3    H172398   4.906   4.841   2.381  0.7666 -0.2421 -2.3921
16969TIP3    H272399   4.903   4.693   2.350 -1.2229 -0.6320 -0.6412
16970TIP3   OH272400   0.394   6.918   5.191 -0.4937 -0.0999 -0.2268
16970TIP3    H172401   0.329   6.976   5.232  1.0624  0.1316  2.1266
16970TIP3    H272402   0.455   6.978   5.148 -0.2419 -0.1199  0.0964
16971TIP3   OH272403   2.563   6.730  14.230 -0.6764  0.1955  0.0696
16971TIP3    H172404   2.603   6.718  14.144 -0.3376  1.2410  0.0673
16971TIP3    H272405   2.470   6.744  14.210 -1.3738 -3.3647  0.1444
16972TIP3   OH272406   5.789   3.201  14.712  0.9793 -1.0662  0.2663
16972TIP3    H172407   5.776   3.140  14.640 -1.9549  1.1742 -1.3153
16972TIP3    H272408   5.726   3.174  14.779 -0.0666 -0.0619 -0.2841
16973TIP3   OH272409   3.196   6.103   3.490  0.3825  0.3785  0.1892
16973TIP3    H172410   3.214   6.109   3.584 -0.1194  1.3053  0.2352
16973TIP3    H272411   3.107   6.136   3.480  0.0371 -0.7104 -0.4920
16974TIP3   OH272412   6.236   2.831   3.294 -0.3648 -0.0692 -0.1643
16974TIP3    H172413   6.186   2.902   3.334 -0.8244 -0.6042  0.2305
16974TIP3    H272414   6.213   2.754   3.345 -0.6840 -0.7062 -1.2379
16975TIP3   OH272415   7.025   1.600   2.083  0.1308 -0.1509  0.7625
16975TIP3    H172416   6.997   1.684   2.121 -0.4931  0.5450 -1.1013
16975TIP3    H272417   6.945   1.549   2.076  0.3035 -0.4180  0.7384
16976TIP3   OH272418   7.191   4.885  14.350 -0.1274 -0.3361 -0.3200
16976TIP3    H172419   7.209   4.838  14.432  0.0002  0.7311  0.2808
16976TIP3    H272420   7.123   4.948  14.372  1.5304  1.5795 -0.4099
16977TIP3   OH272421   2.896   0.932   0.023  0.5388  0.9406  0.6767
16977TIP3    H172422   2.939   1.018   0.026 -0.3570  1.4250  0.0861
16977TIP3    H272423   2.924   0.889   0.104  2.7527  0.9127 -0.0480
16978TIP3   OH272424   4.956   3.723  14.634 -0.3682 -0.1545 -0.2213
16978TIP3    H172425   4.878   3.745  14.584 -1.0575 -0.8670  0.5088
16978TIP3    H272426   4.936   3.639  14.675  0.3617  0.1625  0.8501
16979TIP3   OH272427   3.072   6.512  10.995 -0.4198 -0.6196  0.5138
16979TIP3    H172428   3.145   6.514  11.058 -0.6340 -0.4100  0.7582
16979TIP3    H272429   3.033   6.599  11.002 -0.7507 -0.7645  0.4492
16980TIP3   OH272430   5.100   4.982  13.092  0.0668  0.1978  0.5221
16980TIP3    H172431   5.171   4.922  13.072  1.2865  1.2055  1.5999
16980TIP3    H272432   5.096   5.042  13.018 -0.0029 -0.1682  0.2316
16981TIP3   OH272433   0.401   2.308   3.359  0.2385  0.2158 -0.6390
16981TIP3    H172434   0.428   2.229   3.407  2.0218 -0.1603 -2.1417
16981TIP3    H272435   0.423   2.380   3.418  0.6463 -0.3077 -0.1320
16982TIP3   OH272436   3.576   5.533   5.740 -0.2822  0.2408 -0.9283
16982TIP3    H172437   3.528   5.478   5.678 -0.8635  0.4762 -0.6882
16982TIP3    H272438   3.595   5.613   5.691 -1.1220  0.6019 -0.6644
16983TIP3   OH272439   0.782   0.907   1.117 -0.5989  0.1074  0.4014
16983TIP3    H172440   0.832   0.893   1.197  0.1251  1.9895  0.3176
16983TIP3    H272441   0.829   0.976   1.070 -1.3100 -0.5664 -1.3987
16984TIP3   OH272442   6.291   5.019   5.347  0.3606 -0.1506  0.4217
16984TIP3    H172443   6.305   5.108   5.377  1.2252  0.1630 -0.8256
16984TIP3    H272444   6.378   4.979   5.347  0.0784 -0.7943  0.3510
16985TIP3   OH272445   2.849   0.922   1.161 -0.5032 -0.2173 -0.3918
16985TIP3    H172446   2.833   0.948   1.252 -0.1036 -0.5375 -0.2295
16985TIP3    H272447   2.944   0.915   1.154 -0.4213  1.2947 -1.2601
16986TIP3   OH272448   0.821   3.951  11.660 -0.1003 -0.0736  0.5037
16986TIP3    H172449   0.855   3.934  11.747  1.7840 -1.5934 -0.4552
16986TIP3    H272450   0.791   3.866  11.628 -1.1170  0.5298 -0.2010
16987TIP3   OH272451   6.578   2.529   5.293  0.2182 -0.2329  0.4469
16987TIP3    H172452   6.543   2.513   5.381 -2.6648 -1.2849 -0.7703
16987TIP3    H272453   6.569   2.624   5.281 -0.9876 -0.3016  0.6849
16988TIP3   OH272454   6.467   4.220  12.335  0.4673  0.0445  0.0954
16988TIP3    H172455   6.378   4.192  12.354  0.6525  0.4346  1.7103
16988TIP3    H272456   6.523   4.159  12.384  1.0077  0.7811  0.4230
16989TIP3   OH272457   2.932   1.816  13.811  0.2477  0.3442  0.0234
16989TIP3    H172458   2.990   1.782  13.879  2.4055  0.7009 -1.5543
16989TIP3    H272459   2.914   1.906  13.838  1.9362  0.8236 -0.3308
16990TIP3   OH272460   5.220   0.921   5.031  0.6694 -0.1811  0.0441
16990TIP3    H172461   5.236   0.977   4.955  0.7749 -0.5208 -0.1877
16990TIP3    H272462   5.295   0.862   5.034 -0.0554 -1.1486 -0.4743
16991TIP3   OH272463   6.850   4.939  12.350 -0.0012 -0.1553  0.3211
16991TIP3    H172464   6.782   5.001  12.323 -0.8123 -1.6208 -1.2231
16991TIP3    H272465   6.898   4.984  12.420 -0.2323  2.3946 -1.0423
16992TIP3   OH272466   3.798   4.189   3.379  0.0533 -0.2440  0.2588
16992TIP3    H172467   3.706   4.170   3.393 -0.1341  0.0731 -0.4691
16992TIP3    H272468   3.807   4.194   3.284  1.0624 -1.4251  0.2677
16993TIP3   OH272469   2.635   6.519  14.779  0.0580  0.2230  0.0689
16993TIP3    H172470   2.727   6.510  14.803 -0.5030  1.9567  3.3652
16993TIP3    H272471   2.634   6.506  14.684  3.7082  0.4135 -0.1252
16994TIP3   OH272472   4.986   7.039  13.690  0.1427  0.5356  0.0265
16994TIP3    H172473   4.967   6.946  13.677  0.9085  0.4487 -0.5015
16994TIP3    H272474   4.921   7.084  13.636  0.8080  0.2628 -1.0133
16995TIP3   OH272475   1.626   0.568   5.607 -0.1992 -0.2418 -0.0293
16995TIP3    H172476   1.688   0.594   5.540  0.8214 -1.7506  0.2877
16995TIP3    H272477   1.540   0.584   5.567  0.3735 -1.0764 -1.6995
16996TIP3   OH272478   3.994   6.088  12.058 -0.2197 -0.4901  0.9272
16996TIP3    H172479   3.931   6.124  11.996  0.2245  1.9230  1.7787
16996TIP3    H272480   4.005   5.997  12.030 -1.0657  0.1067 -1.6686
16997TIP3   OH272481   6.208   4.332   4.001  0.2178 -0.1130  0.2061
16997TIP3    H172482   6.125   4.286   3.994  0.5156 -0.8282  1.2241
16997TIP3    H272483   6.208   4.394   3.927 -0.3456 -1.4680 -0.9726
16998TIP3   OH272484   3.275   2.577   3.828  0.2094  0.3036 -0.4953
16998TIP3    H172485   3.254   2.667   3.806 -0.8641  0.2859  0.3423
16998TIP3    H272486   3.366   2.580   3.858 -0.2496  1.3834  0.8992
16999TIP3   OH272487   3.205   0.027   2.957  0.2446  0.0052 -0.0697
16999TIP3    H172488   3.244   0.009   2.871 -0.8109  0.2827 -0.6131
16999TIP3    H272489   3.205  -0.058   3.001  3.5200  0.3354  0.8543
17000TIP3   OH272490   0.023   0.371   4.765 -0.1563  0.0211 -0.3396
17000TIP3    H172491  -0.011   0.397   4.679  0.2551  2.6796  0.2024
17000TIP3    H272492  -0.002   0.279   4.774 -1.7397  0.1460 -2.5563
17001TIP3   OH272493   6.433   0.936   1.652 -0.1871  0.8091 -0.0407
17001TIP3    H172494   6.354   0.973   1.614 -0.5256  0.3671  0.2307
17001TIP3    H272495   6.503   0.997   1.627  0.2257 -1.0657 -4.2486
17002TIP3   OH272496   4.832   1.362   4.205 -0.2230  0.2529  0.0112
17002TIP3    H172497   4.828   1.451   4.239  0.0904  0.8030 -1.3578
17002TIP3    H272498   4.813   1.370   4.112  3.7144 -0.5248 -1.0245
17003TIP3   OH272499   2.500   0.508   2.001  0.4570  0.1011  0.6183
17003TIP3    H172500   2.545   0.471   2.077  1.0298 -1.8608 -0.6015
17003TIP3    H272501   2.565   0.567   1.961 -0.2595  2.1273  2.2369
17004TIP3   OH272502   3.696   4.569   5.361  0.0862  0.1833 -0.1958
17004TIP3    H172503   3.742   4.486   5.374  0.8595  0.2021 -2.4191
17004TIP3    H272504   3.610   4.555   5.401  1.7262  0.0259  3.8187
17005TIP3   OH272505   5.756   1.628   5.162  0.4216  0.4439 -0.2681
17005TIP3    H172506   5.811   1.604   5.088 -0.1898 -1.0494 -0.2674
17005TIP3    H272507   5.742   1.547   5.210 -1.3743  0.8518 -0.0055
17006TIP3   OH272508   5.903   0.905   1.511 -0.5064 -0.2863 -0.4478
17006TIP3    H172509   5.946   0.981   1.549 -0.1988 -1.2331  1.2164
17006TIP3    H272510   5.873   0.855   1.587  0.3609 -2.4104 -1.4239
17007TIP3   OH272511   5.236   1.888  13.728 -0.0721  0.8330 -0.4751
17007TIP3    H172512   5.180   1.924  13.796  1.1040 -0.0007  0.9914
17007TIP3    H272513   5.302   1.956  13.713  1.0446  0.1199  0.9503
17008TIP3   OH272514   2.234   2.414   2.730  0.0240  0.0800 -0.3583
17008TIP3    H172515   2.235   2.404   2.825  0.1174 -3.4319 -0.6142
17008TIP3    H272516   2.142   2.410   2.707  0.0263  0.5716 -0.4614
17009TIP3   OH272517   3.541   6.701   4.669  0.1499 -0.0432  0.1403
17009TIP3    H172518   3.587   6.634   4.619 -1.2536 -1.1857  0.3402
17009TIP3    H272519   3.479   6.653   4.724 -0.6418  1.3935  0.5706
17010TIP3   OH272520   0.277   3.273   5.360  0.3385 -0.9758  0.3365
17010TIP3    H172521   0.243   3.350   5.314  0.8265 -0.7533  0.3496
17010TIP3    H272522   0.210   3.252   5.425  0.5809 -0.0784  0.8777
17011TIP3   OH272523   2.379   0.758   3.111  0.4279 -0.0845  0.0781
17011TIP3    H172524   2.289   0.727   3.121  0.4189  0.0050  0.2797
17011TIP3    H272525   2.370   0.841   3.064  0.5062 -0.7508 -1.1661
17012TIP3   OH272526   5.762   2.196   0.425  0.3308  0.2092  0.0859
17012TIP3    H172527   5.688   2.234   0.472  0.2403  2.3698 -1.6501
17012TIP3    H272528   5.819   2.271   0.405  1.8539 -1.0715 -0.5987
17013TIP3   OH272529   7.143   5.422   3.507 -0.7013 -0.1389  0.5108
17013TIP3    H172530   7.170   5.337   3.542  0.3476  0.0696  0.2473
17013TIP3    H272531   7.068   5.402   3.451 -0.8639 -0.8032  0.9535
17014TIP3   OH272532   0.060   4.883  10.025 -0.4155 -0.0959  0.2763
17014TIP3    H172533   0.052   4.958   9.966  0.0782 -0.6288 -0.4940
17014TIP3    H272534   0.018   4.811   9.978  0.8774 -0.7687  0.1091
17015TIP3   OH272535   6.824   0.168   3.167  0.2624 -0.3446  0.4220
17015TIP3    H172536   6.855   0.250   3.128  0.4270  0.4480  2.1600
17015TIP3    H272537   6.746   0.193   3.217  1.2407 -0.9316  2.2887
17016TIP3   OH272538   2.810   3.862   4.776  0.3846  0.2443 -0.1632
17016TIP3    H172539   2.827   3.780   4.730 -0.9474  0.6590 -1.4579
17016TIP3    H272540   2.839   3.930   4.716 -1.7280  0.8130 -0.6226
17017TIP3   OH272541   5.845   4.799  14.047  0.4964 -0.3690  0.3660
17017TIP3    H172542   5.877   4.819  13.959 -0.0500  0.3760  0.3249
17017TIP3    H272543   5.835   4.704  14.048 -1.5840 -0.2207 -1.1335
17018TIP3   OH272544   5.866   6.840   2.205 -0.3855 -0.0185 -0.2434
17018TIP3    H172545   5.843   6.932   2.211  0.7213  0.2190  0.7106
17018TIP3    H272546   5.961   6.839   2.196 -0.1807 -1.0914  1.5312
17019TIP3   OH272547   4.240   0.098  12.023  0.0911  0.1654 -0.2373
17019TIP3    H172548   4.203   0.168  12.077 -0.8874  0.0673 -0.7552
17019TIP3    H272549   4.258   0.027  12.084 -0.8921  0.1012 -0.0076
17020TIP3   OH272550   3.621   3.742   5.613  0.4811  0.2052 -0.5699
17020TIP3    H172551   3.599   3.676   5.679 -2.1931  1.0831 -0.4444
17020TIP3    H272552   3.553   3.732   5.546 -0.0831  2.8453 -0.5008
17021TIP3   OH272553   5.260   6.962   4.917  0.1152  0.2093  0.2033
17021TIP3    H172554   5.195   7.028   4.941  1.9076  1.6195  1.5356
17021TIP3    H272555   5.264   6.904   4.993  0.1716 -0.0861 -0.0229
17022TIP3   OH272556   4.861   5.803   4.584  0.0234  0.0576 -0.3262
17022TIP3    H172557   4.907   5.849   4.655 -0.5645 -1.7287  1.3165
17022TIP3    H272558   4.918   5.730   4.562 -0.5212 -0.2932 -0.5881
17023TIP3   OH272559   5.826   7.125   4.598 -0.2151 -0.3091  0.1765
17023TIP3    H172560   5.759   7.112   4.531 -1.4053 -1.1877  1.4805
17023TIP3    H272561   5.812   7.215   4.629  0.7785  0.3475 -1.1547
17024TIP3   OH272562   2.678   2.360   3.963 -0.0087 -0.7767 -0.3212
17024TIP3    H172563   2.629   2.406   4.032  0.1759 -0.1249 -0.6184
17024TIP3    H272564   2.647   2.270   3.968 -0.3969 -0.6188  0.2579
17025TIP3   OH272565   1.764   3.541   2.304  0.1288 -0.3978 -0.5897
17025TIP3    H172566   1.781   3.449   2.324 -2.3193 -0.6087  0.9465
17025TIP3    H272567   1.669   3.547   2.295  0.1006  2.1670  0.4415
17026TIP3   OH272568   2.712   0.687   1.240  0.3747  0.2297 -0.1317
17026TIP3    H172569   2.755   0.770   1.221  1.2528 -0.4587 -1.2462
17026TIP3    H272570   2.780   0.621   1.229 -1.0816 -1.0049 -2.9157
17027TIP3   OH272571   5.672   5.510  11.532 -0.3706  0.1163 -0.0315
17027TIP3    H172572   5.729   5.567  11.584  2.4254 -0.8881 -1.7311
17027TIP3    H272573   5.713   5.424  11.539 -2.6047 -1.0242 -0.1792
17028TIP3   OH272574   0.581   5.701  14.930  0.2133  0.3093  0.1753
17028TIP3    H172575   0.642   5.768  14.963  0.4647 -0.2366  0.8548
17028TIP3    H272576   0.596   5.699  14.836  2.5870 -1.0637  0.4992
17029TIP3   OH272577   1.976   3.065   5.226  0.0463 -0.0882  0.5623
17029TIP3    H172578   1.889   3.061   5.266 -0.0850 -0.6238  0.2286
17029TIP3    H272579   1.964   3.118   5.148  0.0012 -0.2142  0.4825
17030TIP3   OH272580   5.838   1.793   2.135  0.2603  0.5323  0.2110
17030TIP3    H172581   5.874   1.878   2.109  0.4894  1.5364  3.4299
17030TIP3    H272582   5.881   1.773   2.218 -1.0990 -1.9246  0.4191
17031TIP3   OH272583   0.470   1.679   0.158 -0.8111 -0.3844  0.9957
17031TIP3    H172584   0.399   1.641   0.210 -0.0245 -1.2126  1.4903
17031TIP3    H272585   0.549   1.634   0.187 -0.3945 -1.3202 -1.3455
17032TIP3   OH272586   6.897   2.691   2.606  0.1644 -0.1916 -0.2352
17032TIP3    H172587   6.817   2.739   2.629  0.9726  1.2664 -0.3190
17032TIP3    H272588   6.898   2.616   2.665  0.1548  1.2958  1.7361
17033TIP3   OH272589   1.157   0.816   4.371 -0.1958 -1.2572 -0.7499
17033TIP3    H172590   1.173   0.730   4.332  2.4174 -1.3909  0.3965
17033TIP3    H272591   1.174   0.803   4.465 -0.7312  0.2934 -0.4033
17034TIP3   OH272592   5.816   1.803   1.063  0.0033  0.5761 -0.4065
17034TIP3    H172593   5.848   1.830   0.977 -1.0960 -0.1080 -1.0526
17034TIP3    H272594   5.887   1.824   1.123  0.9169  0.7726 -1.5303
17035TIP3   OH272595   5.582   6.727   2.659 -0.2140 -0.2828 -0.5022
17035TIP3    H172596   5.600   6.667   2.586  0.8004  1.0587 -1.4061
17035TIP3    H272597   5.652   6.792   2.654  1.3215 -1.4103  3.1379
17036TIP3   OH272598   0.759   6.786   0.771 -0.0377  0.1953 -0.9585
17036TIP3    H172599   0.745   6.859   0.831  0.8777  0.8539 -1.5443
17036TIP3    H272600   0.731   6.819   0.686  0.4612 -0.1025 -1.2415
17037TIP3   OH272601   3.907   3.184   3.967 -0.2342 -0.1109 -0.1228
17037TIP3    H172602   3.920   3.277   3.953  0.6881 -0.0895  0.7431
17037TIP3    H272603   3.993   3.145   3.949 -0.8885 -0.9459 -1.5889
17038TIP3   OH272604   7.230   2.472  14.108 -0.0539  0.2678 -0.0626
17038TIP3    H172605   7.169   2.536  14.073  0.7385  1.1548  0.1352
17038TIP3    H272606   7.237   2.404  14.041 -0.1782  0.8719 -0.6832
17039TIP3   OH272607   3.089   0.535  13.732  0.3755  0.0284  0.3899
17039TIP3    H172608   3.119   0.539  13.822  0.7797 -0.4475  0.2829
17039TIP3    H272609   2.995   0.553  13.736  0.5122  0.6866  0.8240
17040TIP3   OH272610   2.773   0.422   2.744  0.2170  0.9586  0.4838
17040TIP3    H172611   2.707   0.408   2.812  0.0192 -2.8678 -0.2765
17040TIP3    H272612   2.854   0.440   2.792  0.1078 -1.7834  1.8852
17041TIP3   OH272613   6.520   1.561   2.135 -0.9320 -0.5745  0.0547
17041TIP3    H172614   6.524   1.548   2.230  0.1466 -0.6092  0.0260
17041TIP3    H272615   6.551   1.478   2.098 -0.6453 -0.3112 -0.3053
17042TIP3   OH272616   5.369   6.908   3.112 -0.8691 -0.5162 -0.3495
17042TIP3    H172617   5.364   6.875   3.022 -1.8209  1.2636 -0.9958
17042TIP3    H272618   5.354   7.002   3.104 -1.2511 -0.3571  1.7115
17043TIP3   OH272619   3.059   2.412   3.935 -0.3453 -0.2504  0.2812
17043TIP3    H172620   3.073   2.346   3.867 -1.5244  0.0612 -0.2887
17043TIP3    H272621   3.138   2.466   3.932  0.6972 -1.6626  0.8340
17044TIP3   OH272622   4.159   1.332   3.244 -0.4907  0.2685  0.0455
17044TIP3    H172623   4.218   1.342   3.319 -0.3726 -1.1522  0.1673
17044TIP3    H272624   4.211   1.284   3.180 -1.0809  0.1830 -0.3712
17045TIP3   OH272625   1.012   3.274  14.542 -0.2912 -0.3176 -0.2217
17045TIP3    H172626   1.041   3.250  14.454  0.4469  0.3015 -0.1590
17045TIP3    H272627   0.933   3.325  14.528 -0.7925 -1.1453 -0.4566
17046TIP3   OH272628   2.076   5.962   0.223 -0.3067  0.0332 -0.0994
17046TIP3    H172629   2.083   5.931   0.313  2.4792  0.1124 -0.2265
17046TIP3    H272630   2.029   6.046   0.230 -0.1753  0.0074  1.2442
17047TIP3   OH272631   6.129   6.469   4.061 -0.0775  0.3986  0.7218
17047TIP3    H172632   6.075   6.392   4.081 -0.1455 -0.0244 -0.9842
17047TIP3    H272633   6.066   6.541   4.055 -0.6394 -0.2044 -1.8956
17048TIP3   OH272634   3.588   4.315   2.459  0.2322 -0.2297 -0.2105
17048TIP3    H172635   3.496   4.329   2.479  0.1800 -0.0882 -0.5420
17048TIP3    H272636   3.619   4.399   2.424 -0.0808 -0.8931 -2.2031
17049TIP3   OH272637   2.011   2.188  14.477  0.5409  0.0887  0.3783
17049TIP3    H172638   2.033   2.277  14.505 -3.6049  0.8224  2.1478
17049TIP3    H272639   2.002   2.194  14.382 -2.0641  2.4075  0.6288
17050TIP3   OH272640   3.355   3.174   1.709 -0.2555  0.1962 -0.4515
17050TIP3    H172641   3.336   3.174   1.615 -0.7584 -0.0521 -0.3531
17050TIP3    H272642   3.350   3.266   1.735 -1.6478  0.1189 -0.3694
17051TIP3   OH272643   6.131   0.914   1.742  0.4394 -0.5082  0.1303
17051TIP3    H172644   6.057   0.962   1.780  1.3230  0.2437  0.9445
17051TIP3    H272645   6.161   0.969   1.671  0.0837 -0.9232 -0.3461
17052TIP3   OH272646   1.598   2.621  13.621 -0.0586 -0.7137  0.9117
17052TIP3    H172647   1.520   2.602  13.674 -0.6885 -2.2895 -0.5286
17052TIP3    H272648   1.567   2.619  13.531  2.1783 -4.6134  0.0391
17053TIP3   OH272649   2.129   5.622   4.591  0.3483 -0.2150  0.1740
17053TIP3    H172650   2.107   5.591   4.503  0.2401  1.4742 -0.4250
17053TIP3    H272651   2.117   5.717   4.587 -3.2574 -0.3304  3.0364
17054TIP3   OH272652   6.187   1.688  15.231  0.1511 -0.1083 -0.3305
17054TIP3    H172653   6.226   1.615  15.183  0.4865  0.0961 -0.3746
17054TIP3    H272654   6.173   1.755  15.164  0.0317 -0.0577 -0.2542
17055TIP3   OH272655   6.672   5.530  13.366 -0.1083  0.1051 -0.0040
17055TIP3    H172656   6.715   5.616  13.371  4.3635 -1.8320 -0.0169
17055TIP3    H272657   6.670   5.499  13.456  0.5859 -0.6721 -0.2363
17056TIP3   OH272658   2.560   4.562   5.213  0.0672 -1.2776  0.1458
17056TIP3    H172659   2.598   4.574   5.299 -0.3367 -2.5181  0.5164
17056TIP3    H272660   2.521   4.647   5.191  1.9800 -0.3287  0.2495
17057TIP3   OH272661   2.995   2.595  15.172  0.0473 -0.1105 -0.4243
17057TIP3    H172662   2.987   2.510  15.215 -0.3394  0.0479 -0.1800
17057TIP3    H272663   3.074   2.587  15.118  2.3025  0.6466  2.5234
17058TIP3   OH272664   4.872   5.826   5.452 -0.0358 -0.3723 -0.6212
17058TIP3    H172665   4.955   5.811   5.497 -0.8284 -1.1153  0.6504
17058TIP3    H272666   4.879   5.916   5.418 -0.2011  1.1599  2.9529
17059TIP3   OH272667   2.261   3.828  12.152 -0.4908 -0.1693 -0.7188
17059TIP3    H172668   2.312   3.788  12.222  0.5147  0.6373 -0.9587
17059TIP3    H272669   2.292   3.786  12.072  0.0398  0.5258 -0.8951
17060TIP3   OH272670   1.054   6.290   5.714  0.3120  0.2425  0.3712
17060TIP3    H172671   1.084   6.374   5.751  0.1970  0.8573 -0.8768
17060TIP3    H272672   1.135   6.243   5.693  0.3900  0.4801  0.1294
17061TIP3   OH272673   5.979   5.043   2.685 -0.3855 -0.1518 -0.1420
17061TIP3    H172674   5.993   5.068   2.593  1.3285 -0.9320 -0.1358
17061TIP3    H272675   5.954   4.951   2.680 -0.9002 -0.0245  0.1389
17062TIP3   OH272676   6.392   2.679  14.501  0.0394  0.4274  0.2545
17062TIP3    H172677   6.357   2.757  14.458 -1.1730 -0.2626 -0.0540
17062TIP3    H272678   6.412   2.620  14.428 -0.2523 -0.0310  0.5456
17063TIP3   OH272679   3.405   5.037   2.479  0.3086 -0.1322  0.0229
17063TIP3    H172680   3.412   5.131   2.495 -0.0976  0.2571 -1.7763
17063TIP3    H272681   3.344   5.005   2.545 -0.9021  1.2030 -0.4103
17064TIP3   OH272682   5.738   2.412   2.908  0.5743  0.5488  0.4339
17064TIP3    H172683   5.696   2.440   2.989 -0.5041  1.2166 -0.3332
17064TIP3    H272684   5.767   2.493   2.867  0.5889  0.2570 -0.1397
17065TIP3   OH272685   4.112   6.004   2.718 -0.5364 -0.3473  0.5603
17065TIP3    H172686   4.192   6.047   2.686 -0.3772 -1.1081 -0.1271
17065TIP3    H272687   4.042   6.065   2.698 -0.0928  0.4604  1.4436
17066TIP3   OH272688   4.856   4.133   4.573 -0.5073 -0.3542 -0.3674
17066TIP3    H172689   4.866   4.225   4.552  0.6784 -0.3186  0.2574
17066TIP3    H272690   4.913   4.087   4.511  0.7124 -0.4592  0.7719
17067TIP3   OH272691   6.384   3.127  13.955 -0.1799  0.3773  0.2526
17067TIP3    H172692   6.358   3.117  13.864  0.4980  0.5961  0.0266
17067TIP3    H272693   6.388   3.222  13.969  2.0194  0.4210 -0.2063
17068TIP3   OH272694   6.332   4.764   3.117 -0.0909  0.5120 -0.6275
17068TIP3    H172695   6.273   4.711   3.064 -0.8729  0.1692  0.5411
17068TIP3    H272696   6.275   4.821   3.167  0.2351 -1.7090  2.6208
17069TIP3   OH272697   0.570   7.042   2.085  0.4069  0.0813 -0.3971
17069TIP3    H172698   0.554   6.948   2.072  0.1034  0.1389 -0.4538
17069TIP3    H272699   0.662   7.047   2.112  0.4691 -0.2199 -0.5404
17070TIP3   OH272700   1.695   1.944   5.031  0.2718  0.2148  0.0795
17070TIP3    H172701   1.759   1.889   4.987  2.5054  1.1596  1.9361
17070TIP3    H272702   1.704   2.030   4.989  1.3766  0.7419  1.3290
17071TIP3   OH272703   2.553   0.624   1.470 -0.4019  0.6672 -0.4769
17071TIP3    H172704   2.610   0.637   1.394 -1.5349  0.8226 -1.3238
17071TIP3    H272705   2.508   0.541   1.452 -1.7412  1.4192 -0.6947
17072TIP3   OH272706   1.993   3.240   1.288 -0.0865  0.1247  0.0220
17072TIP3    H172707   1.997   3.191   1.370 -0.7324  1.6348  0.9995
17072TIP3    H272708   2.046   3.189   1.227  1.3150 -0.4683  1.6620
17073TIP3   OH272709   0.700   0.795   2.823 -0.3760 -0.0077 -0.3045
17073TIP3    H172710   0.718   0.732   2.754 -0.1159  1.0707 -1.2524
17073TIP3    H272711   0.714   0.880   2.782 -1.8996  0.7115  0.5900
17074TIP3   OH272712   3.561   1.168  15.110 -0.6184 -0.0411 -0.4788
17074TIP3    H172713   3.584   1.244  15.164  0.3512 -0.6918  0.0598
17074TIP3    H272714   3.615   1.097  15.144 -2.7246 -1.4357  0.1685
17075TIP3   OH272715   4.010   0.635   4.759 -0.3057  0.4410  0.0011
17075TIP3    H172716   3.980   0.606   4.673 -1.5098 -0.5585  0.7238
17075TIP3    H272717   4.104   0.649   4.749 -0.3506 -0.1275 -1.3519
17076TIP3   OH272718   2.580   2.745   2.441  0.4328  0.2754 -0.2381
17076TIP3    H172719   2.669   2.720   2.416  0.2833 -0.5272  0.0179
17076TIP3    H272720   2.541   2.665   2.477 -1.2891 -0.1689 -2.8119
17077TIP3   OH272721   6.957   2.668   4.639  0.7493  0.3839 -0.2619
17077TIP3    H172722   7.044   2.632   4.658  0.2688 -0.1840  0.9946
17077TIP3    H272723   6.902   2.591   4.625  0.3640  0.7311 -0.6719
17078TIP3   OH272724   2.766   2.416   5.792 -0.0863 -0.1621 -0.3158
17078TIP3    H172725   2.836   2.379   5.738  0.3629  0.5357 -0.2346
17078TIP3    H272726   2.745   2.499   5.749 -1.3947 -0.6930 -0.7574
17079TIP3   OH272727   4.681   1.643   3.360  0.1947  0.3727  0.2479
17079TIP3    H172728   4.682   1.735   3.334  1.4340  0.0265 -1.0680
17079TIP3    H272729   4.753   1.603   3.311  0.1878 -1.1489  1.3839
17080TIP3   OH272730   6.308   0.899   1.319  0.0409  0.5134  0.6791
17080TIP3    H172731   6.223   0.883   1.278 -0.0677  0.1612  1.0274
17080TIP3    H272732   6.326   0.819   1.369  0.2262  0.8820  1.2141
17081TIP3   OH272733   2.293   6.229  12.850 -0.1899  0.2602  0.3078
17081TIP3    H172734   2.295   6.167  12.776  0.8414  0.6275  0.0087
17081TIP3    H272735   2.329   6.310  12.814 -0.4322  0.6844  1.0123
17082TIP3   OH272736   4.455   1.104   3.026  0.0468  0.3374  0.5688
17082TIP3    H172737   4.416   1.181   2.984  2.6382  0.9515 -0.9154
17082TIP3    H272738   4.549   1.115   3.014  0.5682 -2.5392  1.2750
17083TIP3   OH272739   1.550   0.145   1.588 -0.6918  0.2460 -0.2305
17083TIP3    H172740   1.638   0.182   1.591 -0.3952 -0.5262  1.4304
17083TIP3    H272741   1.499   0.197   1.650 -0.5840 -1.2856  1.1999
17084TIP3   OH272742   3.309   3.859   2.343 -0.0902  0.2596  0.0921
17084TIP3    H172743   3.326   3.766   2.360  0.5544  0.2871 -0.3597
17084TIP3    H272744   3.386   3.904   2.378  1.0296  0.3614 -2.2751
17085TIP3   OH272745   6.798   6.360  10.549 -0.4271 -0.2648  0.0724
17085TIP3    H172746   6.711   6.388  10.578 -0.2371  0.1641  0.2344
17085TIP3    H272747   6.785   6.333  10.458 -0.7272 -0.1815  0.0895
17086TIP3   OH272748   1.265   3.959   2.975 -0.1529  0.2042 -0.2186
17086TIP3    H172749   1.290   3.897   3.043  0.4107 -0.3842 -0.9406
17086TIP3    H272750   1.333   4.027   2.979 -0.8591  0.8797  0.6789
17087TIP3   OH272751   2.385   0.600  14.602 -0.2842  0.2306 -0.4171
17087TIP3    H172752   2.415   0.622  14.690  0.0464 -3.1117  0.4196
17087TIP3    H272753   2.388   0.505  14.598 -2.2997  0.1448 -3.3581
17088TIP3   OH272754   0.624   2.719   5.214 -0.2684 -0.6535  0.8224
17088TIP3    H172755   0.639   2.739   5.306  0.4496 -0.9431  0.7690
17088TIP3    H272756   0.632   2.803   5.169 -0.0259 -0.6116  0.9462
17089TIP3   OH272757   3.648   1.036   1.340 -0.3425  0.4853  0.0524
17089TIP3    H172758   3.628   0.959   1.288 -0.6456  0.1127  0.7135
17089TIP3    H272759   3.621   1.110   1.285 -1.5068  0.0723  0.0433
17090TIP3   OH272760   5.828   2.242   3.185  0.7928 -0.0140 -0.3094
17090TIP3    H172761   5.898   2.307   3.184  0.9101  0.0145  2.2897
17090TIP3    H272762   5.868   2.164   3.224 -0.2637 -0.4532 -0.0678
17091TIP3   OH272763   0.847   6.993  12.367 -0.5281 -0.1759  0.0756
17091TIP3    H172764   0.935   6.955  12.369  0.0542  1.0592 -0.7478
17091TIP3    H272765   0.855   7.074  12.418 -0.9765  0.3345 -0.6402
17092TIP3   OH272766   1.727   2.806  10.624  0.1324 -0.0923 -0.7747
17092TIP3    H172767   1.665   2.744  10.586 -2.6654 -0.5236  3.7298
17092TIP3    H272768   1.775   2.755  10.690  0.3400  1.7074  0.5382
17093TIP3   OH272769   6.579   4.457   2.640  0.2545 -0.2201  0.0800
17093TIP3    H172770   6.658   4.429   2.686  1.7947 -0.8134 -2.7085
17093TIP3    H272771   6.539   4.376   2.609 -1.4965  0.0780  1.4370
17094TIP3   OH272772   4.841   5.208   4.309  0.6573  1.0181  0.4636
17094TIP3    H172773   4.799   5.284   4.349 -2.2247 -0.0339 -0.3046
17094TIP3    H272774   4.845   5.229   4.215 -0.2282  0.2230  0.2343
17095TIP3   OH272775   6.731   3.181  12.384 -0.0646  0.4155 -0.4412
17095TIP3    H172776   6.729   3.087  12.367 -0.7256 -0.1128  2.1619
17095TIP3    H272777   6.787   3.190  12.461  1.0888  2.3475 -1.4235
17096TIP3   OH272778   1.897   4.077   3.889 -0.0333 -0.7039  0.0639
17096TIP3    H172779   1.833   4.006   3.885 -1.2997  0.4523 -1.3245
17096TIP3    H272780   1.935   4.080   3.802  0.9848 -0.5200  0.5024
17097TIP3   OH272781   4.696   3.875   4.390  0.2108 -0.6917  0.3243
17097TIP3    H172782   4.717   3.962   4.424 -1.9712 -0.7478  2.0378
17097TIP3    H272783   4.737   3.815   4.452 -0.2905 -0.8507  0.5047
17098TIP3   OH272784   2.705   4.033   3.342  0.2768  0.3565 -0.2103
17098TIP3    H172785   2.631   4.000   3.292 -0.6000 -1.2874  2.0220
17098TIP3    H272786   2.776   3.971   3.323  0.0924  0.0193  0.1998
17099TIP3   OH272787   0.800   1.964   0.376  0.0528  0.0381  0.2233
17099TIP3    H172788   0.717   1.959   0.328  1.0834 -1.5919 -1.5299
17099TIP3    H272789   0.774   1.980   0.467 -2.0410  2.0830 -0.6424
17100TIP3   OH272790   1.494   2.623  11.814 -0.0247 -0.5564  0.1134
17100TIP3    H172791   1.532   2.653  11.897 -0.1190 -0.1949  0.0258
17100TIP3    H272792   1.419   2.570  11.839  0.0322 -0.5666  0.2627
17101TIP3   OH272793   3.600   3.165   2.879 -0.4889 -0.3743  0.3705
17101TIP3    H172794   3.600   3.176   2.784  0.7844 -0.9450  0.2844
17101TIP3    H272795   3.692   3.179   2.904 -0.5393 -1.6082  1.3323
17102TIP3   OH272796   1.214   2.237   1.189 -0.3168  0.2692  0.4261
17102TIP3    H172797   1.162   2.317   1.186  0.1200  0.5259 -1.2020
17102TIP3    H272798   1.216   2.214   1.282 -1.1351  1.6854  0.8346
17103TIP3   OH272799   6.878   3.943   3.225  0.0963  0.0253  0.2077
17103TIP3    H172800   6.885   3.931   3.320 -0.7393  2.4615  0.6634
17103TIP3    H272801   6.788   3.917   3.205  0.5144 -1.2578 -0.0961
17104TIP3   OH272802   6.934   3.090  15.050  0.1137  0.1426  0.2205
17104TIP3    H172803   6.845   3.124  15.055 -0.4937 -1.3351 -0.0771
17104TIP3    H272804   6.985   3.162  15.013 -0.9131  1.0609  0.5317
17105TIP3   OH272805   3.091   5.510   4.312 -1.0654 -0.0584  0.1883
17105TIP3    H172806   3.054   5.540   4.230 -0.4802 -1.4153 -0.6090
17105TIP3    H272807   3.020   5.462   4.355 -1.0158 -0.3716 -0.0826
17106TIP3   OH272808   1.224   3.479   3.146 -0.1133 -0.3175 -0.0774
17106TIP3    H172809   1.304   3.433   3.172 -0.3371 -0.9533 -0.4931
17106TIP3    H272810   1.236   3.497   3.053 -0.4439 -0.3966 -0.1359
17107TIP3   OH272811   1.373   5.058   2.840 -0.3486 -0.2101  0.2683
17107TIP3    H172812   1.316   5.083   2.913  0.1016  0.7181  0.3184
17107TIP3    H272813   1.315   5.052   2.764 -0.6930 -0.4276  0.5445
17108TIP3   OH272814   1.810   0.128   1.495 -0.1840 -0.0698 -0.3583
17108TIP3    H172815   1.888   0.176   1.524  1.1319 -1.5798 -1.1967
17108TIP3    H272816   1.826   0.108   1.403 -1.2504 -0.9875 -0.3766
17109TIP3   OH272817   6.122   3.791   1.031  0.0546 -0.5591 -0.4144
17109TIP3    H172818   6.197   3.733   1.048 -0.4031 -1.2163 -0.5924
17109TIP3    H272819   6.161   3.869   0.993  0.7403 -0.5262  0.3128
17110TIP3   OH272820   3.023   0.009  14.717  0.3463  0.2129 -0.3400
17110TIP3    H172821   2.971   0.012  14.797  0.6876 -2.9481  0.1497
17110TIP3    H272822   2.959  -0.006  14.647  0.2865 -0.3253 -0.1788
17111TIP3   OH272823   5.956   5.742   0.921 -0.1004 -0.1241 -0.0658
17111TIP3    H172824   5.963   5.802   0.996 -3.2685  0.0718  0.1794
17111TIP3    H272825   6.002   5.787   0.850  0.0559  1.2573  0.8717
17112TIP3   OH272826   0.112   6.103  11.318 -0.9717  0.1361 -0.0724
17112TIP3    H172827   0.126   6.010  11.332  1.2851  0.2799 -1.0500
17112TIP3    H272828   0.126   6.143  11.404 -1.5985 -0.3651  0.2733
17113TIP3   OH272829   7.076   3.429  13.247  0.0650 -0.3370 -0.4993
17113TIP3    H172830   7.149   3.487  13.228 -1.0508  0.8278 -1.3635
17113TIP3    H272831   7.015   3.442  13.175 -0.8356 -1.5673  0.0024
17114TIP3   OH272832   2.590   0.360   1.076 -0.1096 -0.3139  0.6139
17114TIP3    H172833   2.510   0.325   1.038 -1.1573  1.4420  1.0709
17114TIP3    H272834   2.596   0.449   1.040  0.7025  0.1801  1.9030
17115TIP3   OH272835   1.896   0.250  13.484 -0.2105 -0.6220 -0.2985
17115TIP3    H172836   1.826   0.301  13.442  1.6640  4.2432  1.7167
17115TIP3    H272837   1.855   0.213  13.562 -0.8519  1.4542  0.4175
17116TIP3   OH272838   4.906   5.717   5.115  0.8336  0.0674 -0.2215
17116TIP3    H172839   4.903   5.813   5.124 -0.5914  0.0449 -0.1015
17116TIP3    H272840   4.954   5.702   5.034  1.9217  0.8340  0.2536
17117TIP3   OH272841   2.645   1.919   1.585 -0.0411 -0.0257  0.5545
17117TIP3    H172842   2.599   1.998   1.610 -0.3562  0.6971 -2.0327
17117TIP3    H272843   2.578   1.851   1.580 -0.2333  0.1834  0.2619
17118TIP3   OH272844   3.184   2.721   2.293 -0.0771  0.5263 -0.2669
17118TIP3    H172845   3.108   2.681   2.252 -0.2416  0.1290  0.4253
17118TIP3    H272846   3.182   2.812   2.263 -1.6097  0.8906  0.8250
17119TIP3   OH272847   4.788   3.004   0.810  0.2529  0.1684 -0.2548
17119TIP3    H172848   4.823   3.088   0.781 -0.9849  0.2343 -1.6336
17119TIP3    H272849   4.729   3.027   0.883  1.7836  0.2042  1.0343
17120TIP3   OH272850   6.514   1.016   4.269  0.3367  0.6161 -0.3124
17120TIP3    H172851   6.550   1.104   4.256  1.0003  0.4119  0.0833
17120TIP3    H272852   6.561   0.962   4.206  0.8035  0.3282  0.2730
17121TIP3   OH272853   2.318   0.087   4.937 -0.1046 -0.3980  0.4676
17121TIP3    H172854   2.304  -0.003   4.908 -1.6945  0.2308 -0.8942
17121TIP3    H272855   2.236   0.132   4.917  0.4582  1.2372  1.6139
17122TIP3   OH272856   6.205   3.021   3.718 -0.0339 -0.4607  0.1672
17122TIP3    H172857   6.268   2.949   3.725 -1.1452 -1.8788 -2.7549
17122TIP3    H272858   6.119   2.978   3.726 -0.7167  0.7234 -0.4999
17123TIP3   OH272859   6.210   5.910   3.300  0.2007 -0.3285  0.3308
17123TIP3    H172860   6.199   5.997   3.337  0.8716  1.1188 -2.5394
17123TIP3    H272861   6.304   5.900   3.288  0.1289 -1.4337  0.5496
17124TIP3   OH272862   0.468   1.890   0.883 -0.1044 -0.3166 -0.0803
17124TIP3    H172863   0.454   1.979   0.852 -1.2162 -0.1519  0.8644
17124TIP3    H272864   0.539   1.897   0.947  0.3889 -0.2566 -0.6224
17125TIP3   OH272865   4.008   4.390  11.140  0.3000 -0.1043  0.8588
17125TIP3    H172866   4.031   4.299  11.159  2.4887 -0.0560 -1.1084
17125TIP3    H272867   4.060   4.442  11.202 -1.1016 -0.1478  2.1173
17126TIP3   OH272868   4.392   6.957   4.810  0.2760 -0.4146  0.3222
17126TIP3    H172869   4.334   6.902   4.759  0.9224 -1.3521  0.5834
17126TIP3    H272870   4.342   6.977   4.890 -0.7986  1.1894 -0.6856
17127TIP3   OH272871   6.021   3.691  14.779  0.1908  0.5588  0.2100
17127TIP3    H172872   6.006   3.611  14.829  3.3537  0.8081  1.7734
17127TIP3    H272873   5.933   3.724  14.759 -1.1815 -1.9259  1.7284
17128TIP3   OH272874   0.833   1.175   3.147  0.8238 -0.0624 -0.3367
17128TIP3    H172875   0.814   1.083   3.166 -0.9108  0.4533  0.5724
17128TIP3    H272876   0.865   1.210   3.230  0.2929  0.4483 -0.3469
17129TIP3   OH272877   6.104   2.726   2.228 -0.0519 -0.2612  0.0855
17129TIP3    H172878   6.185   2.772   2.251 -0.8348  0.6918  1.0441
17129TIP3    H272879   6.086   2.754   2.138  0.2099  0.2051  0.1752
17130TIP3   OH272880   3.042   2.860   1.035  0.0075  0.7459  0.1904
17130TIP3    H172881   3.034   2.775   0.991  0.0077  1.2007 -0.7205
17130TIP3    H272882   3.104   2.844   1.106 -1.3495 -0.4352  1.1785
17131TIP3   OH272883   0.919   1.885   5.039 -0.1422 -1.2052 -0.5208
17131TIP3    H172884   0.916   1.977   5.063  1.3366 -1.4947  0.9587
17131TIP3    H272885   0.914   1.884   4.943 -0.9059  0.3442 -0.5155
17132TIP3   OH272886   4.045   6.458   0.466  0.2239  0.3855 -0.3408
17132TIP3    H172887   4.079   6.414   0.544  0.4204 -1.1630 -1.2565
17132TIP3    H272888   3.976   6.515   0.499  1.2232  0.8042  1.1153
17133TIP3   OH272889   7.231   5.105   2.027 -0.5080  0.0435  0.0617
17133TIP3    H172890   7.311   5.113   2.080 -0.3118  1.2960 -0.3843
17133TIP3    H272891   7.183   5.033   2.067  2.0712 -2.6303 -1.2880
17134TIP3   OH272892   6.335   0.793   3.361  0.5898  0.0096  0.0079
17134TIP3    H172893   6.390   0.721   3.392  0.5261 -0.6542 -1.3325
17134TIP3    H272894   6.397   0.856   3.323  0.4588 -1.7841 -3.6435
17135TIP3   OH272895   7.127   3.547   4.533 -0.5011 -0.4558 -0.2164
17135TIP3    H172896   7.110   3.453   4.541  0.8010 -0.6663  0.3511
17135TIP3    H272897   7.069   3.577   4.463 -0.9807 -1.6691 -0.3483
17136TIP3   OH272898   3.213   0.711   0.821  0.4291  0.4027  0.8826
17136TIP3    H172899   3.137   0.748   0.777  1.0638  1.0351  0.2937
17136TIP3    H272900   3.177   0.665   0.897 -0.6300 -0.2209  0.0288
17137TIP3   OH272901   4.033   6.326   3.033 -0.0110 -0.0560 -0.4008
17137TIP3    H172902   4.102   6.263   3.015  0.0956 -0.1315  0.2538
17137TIP3    H272903   3.953   6.283   3.004  0.0632 -0.4838  0.0346
17138TIP3   OH272904   1.060   2.830  14.150 -0.0058  0.1816  0.7273
17138TIP3    H172905   1.098   2.768  14.088  1.6453 -0.7142  2.4942
17138TIP3    H272906   1.021   2.774  14.218 -2.2228  1.1193  0.2970
17139TIP3   OH272907   0.592   5.015   2.106 -0.0011  0.2492  0.3067
17139TIP3    H172908   0.660   5.075   2.138  0.7877 -0.9107  0.8451
17139TIP3    H272909   0.628   4.928   2.120 -1.4070 -0.3834  0.1366
17140TIP3   OH272910   1.949   0.477   3.275  0.4581 -0.3772  0.4917
17140TIP3    H172911   1.940   0.417   3.200  1.1905 -0.2820  0.3124
17140TIP3    H272912   1.901   0.555   3.248  2.2232  0.3652 -0.6845
17141TIP3   OH272913   2.848   4.260   4.904  0.7681  0.0114 -0.0144
17141TIP3    H172914   2.790   4.336   4.907  0.7277 -0.0238  0.1363
17141TIP3    H272915   2.821   4.212   4.826  2.2938  1.3271 -1.4077
17142TIP3   OH272916   0.048   0.952  14.714 -0.4478 -0.4010 -0.1499
17142TIP3    H172917   0.108   1.002  14.659 -1.2732  1.3141  0.4409
17142TIP3    H272918   0.039   0.868  14.669 -0.4191  0.6185 -2.1891
17143TIP3   OH272919   3.487   2.850   1.653  0.7837  0.0067  0.3260
17143TIP3    H172920   3.411   2.870   1.708  0.7593  1.7428 -0.2838
17143TIP3    H272921   3.550   2.920   1.673  1.6541 -0.6082 -0.2182
17144TIP3   OH272922   2.372   5.061   5.281  0.0924  0.2384 -0.4327
17144TIP3    H172923   2.336   5.147   5.260  0.5248  0.1759 -1.4489
17144TIP3    H272924   2.298   5.014   5.322 -0.6726  0.4881 -1.4872
17145TIP3   OH272925   7.018   5.872   0.224 -0.2069 -0.1258 -0.4829
17145TIP3    H172926   7.064   5.956   0.217 -0.2076 -0.2105 -1.6414
17145TIP3    H272927   6.937   5.885   0.174 -0.0969 -0.8931 -0.8674
17146TIP3   OH272928   7.058   5.052   1.557  0.1815 -0.3517 -0.0309
17146TIP3    H172929   6.991   5.116   1.581  1.0231  0.5946 -0.1620
17146TIP3    H272930   7.133   5.073   1.612  1.5156  0.7105 -2.0866
17147TIP3   OH272931   2.231   5.134   4.128 -0.2536  0.4607 -0.1154
17147TIP3    H172932   2.170   5.065   4.101  0.9395 -0.3868 -0.7584
17147TIP3    H272933   2.227   5.134   4.223 -0.5520 -0.2437 -0.1236
17148TIP3   OH272934   5.225   4.113   3.135  0.0086  0.2531 -0.6175
17148TIP3    H172935   5.224   4.108   3.040 -0.5987  0.0068 -0.6001
17148TIP3    H272936   5.304   4.064   3.161 -0.3218 -0.4680 -0.9500
17149TIP3   OH272937   3.417   6.543  12.064 -0.2048 -0.0237 -0.1319
17149TIP3    H172938   3.501   6.498  12.052 -0.8150 -0.7806 -2.0694
17149TIP3    H272939   3.439   6.636  12.063  0.7053 -0.2230  0.3434
17150TIP3   OH272940   5.325   3.231   3.472  0.4697 -0.2548 -0.5701
17150TIP3    H172941   5.420   3.220   3.466  0.7501  0.1200  2.1716
17150TIP3    H272942   5.313   3.308   3.526 -1.4650  0.6867 -2.2174
17151TIP3   OH272943   4.621   3.241   2.416 -0.7426  0.8085 -0.2373
17151TIP3    H172944   4.640   3.327   2.454 -2.0941  0.9498  0.1498
17151TIP3    H272945   4.595   3.260   2.326 -3.1642  1.0766  0.4434
17152TIP3   OH272946   5.150   2.783   5.182 -0.0588 -0.5793  0.0732
17152TIP3    H172947   5.222   2.730   5.218 -0.6904 -2.0232 -0.7082
17152TIP3    H272948   5.072   2.752   5.229 -0.1896  1.1008  1.0476
17153TIP3   OH272949   3.309   0.625   2.243  0.1858  0.1778 -0.2192
17153TIP3    H172950   3.303   0.704   2.190  3.2451  0.1736 -0.7177
17153TIP3    H272951   3.227   0.579   2.226 -0.4814  1.8951 -2.0631
17154TIP3   OH272952   6.466   2.342  14.300 -0.1959 -0.2332 -0.3661
17154TIP3    H172953   6.541   2.348  14.359  0.3879  1.4307 -1.1978
17154TIP3    H272954   6.393   2.312  14.355  0.7262 -0.4053  0.7856
17155TIP3   OH272955   1.011   3.462   4.411  0.1487 -0.5606 -0.1198
17155TIP3    H172956   0.967   3.544   4.386  1.8160  0.3683 -0.1094
17155TIP3    H272957   1.078   3.450   4.345  0.0593 -1.8224  0.0106
17156TIP3   OH272958   4.896   3.302   0.668  0.6089 -0.4894 -0.2648
17156TIP3    H172959   4.946   3.381   0.684  0.7362 -0.7723  0.7952
17156TIP3    H272960   4.856   3.316   0.582 -0.8691  1.5068  0.6768
17157TIP3   OH272961   5.296   6.392   1.201  0.1347  0.4104 -0.6009
17157TIP3    H172962   5.315   6.331   1.130 -3.0004  0.3632 -1.5958
17157TIP3    H272963   5.307   6.342   1.281  1.8218 -0.1289 -1.1452
17158TIP3   OH272964   0.981   7.077   5.048  0.5346  0.2156 -0.4545
17158TIP3    H172965   0.970   7.149   5.110  0.4801  0.3509 -0.6186
17158TIP3    H272966   0.918   7.011   5.076 -1.0713  1.1683 -1.6480
17159TIP3   OH272967   4.084   6.771   4.953 -0.2731 -0.4633 -0.4833
17159TIP3    H172968   4.144   6.843   4.971 -1.0975  0.0709  0.2299
17159TIP3    H272969   4.111   6.701   5.013  0.4705 -0.7197 -1.1121
17160TIP3   OH272970   2.165   3.028   2.403  0.6222 -0.2017 -0.2622
17160TIP3    H172971   2.128   3.062   2.484  3.0924  0.2396  0.7640
17160TIP3    H272972   2.216   2.951   2.429  1.8701  0.2333 -1.2726
17161TIP3   OH272973   3.362   7.006  12.173  0.5116  0.0196 -0.0621
17161TIP3    H172974   3.375   6.926  12.224 -0.8112 -1.1011 -1.3893
17161TIP3    H272975   3.446   7.021  12.129  1.3684  0.4727  1.6385
17162TIP3   OH272976   0.225   3.890  14.733 -0.1419 -0.0524  0.1974
17162TIP3    H172977   0.304   3.925  14.775  0.7667  1.4356 -2.5143
17162TIP3    H272978   0.257   3.819  14.677 -1.1153 -1.0451  0.8598
17163TIP3   OH272979   4.528   3.596  14.327 -0.6003  0.0218  0.3577
17163TIP3    H172980   4.547   3.503  14.313 -0.0970  0.2600 -0.6174
17163TIP3    H272981   4.581   3.642  14.261 -0.3394  1.0449  1.2475
17164TIP3   OH272982   6.016   6.431   5.495 -0.0360 -0.8168  0.3786
17164TIP3    H172983   5.980   6.348   5.463  0.3698 -0.6117 -0.6554
17164TIP3    H272984   6.110   6.418   5.497 -0.0308 -0.7359  1.3011
17165TIP3   OH272985   0.304   6.307   1.540 -0.8663  0.1950  0.2460
17165TIP3    H172986   0.254   6.292   1.460 -2.7344  1.1039  1.1699
17165TIP3    H272987   0.299   6.224   1.587 -0.6654 -0.0166 -0.1002
17166TIP3   OH272988   7.221   4.758   0.129  0.2992 -0.4396  0.1058
17166TIP3    H172989   7.223   4.686   0.192 -1.4379  0.6872  1.5538
17166TIP3    H272990   7.128   4.772   0.112  0.5332  2.0790  0.5986
17167TIP3   OH272991   6.668   0.059   2.689 -0.2844 -0.1442  0.2524
17167TIP3    H172992   6.649   0.113   2.612  0.5029 -0.4602 -0.1783
17167TIP3    H272993   6.763   0.065   2.700 -0.2099 -1.2538  0.3291
17168TIP3   OH272994   5.797   1.856   2.528  0.2193  0.5430  0.4176
17168TIP3    H172995   5.768   1.765   2.521 -0.1393  0.4894  2.0935
17168TIP3    H272996   5.891   1.853   2.513 -0.1224  0.2984 -2.1350
17169TIP3   OH272997   4.489   2.185   2.951 -0.4637 -0.3852  0.3029
17169TIP3    H172998   4.547   2.230   2.890  0.3182  1.7925  2.4725
17169TIP3    H272999   4.405   2.181   2.907  0.2426  0.4448 -1.1738
17170TIP3   OH273000   5.884   1.557   4.678  0.2987 -0.2572 -0.0142
17170TIP3    H173001   5.817   1.550   4.746  0.1185 -0.1016 -0.1756
17170TIP3    H273002   5.948   1.619   4.712 -1.6640  2.8174 -1.5155
17171TIP3   OH273003   1.354   1.109   1.881  0.1261 -0.3148 -0.2772
17171TIP3    H173004   1.422   1.168   1.911 -0.1256 -0.6410  1.0058
17171TIP3    H273005   1.297   1.096   1.958 -0.8059 -0.8337 -1.0234
17172TIP3   OH273006   0.760   4.644  13.933 -0.3666  0.7722  0.4342
17172TIP3    H173007   0.845   4.668  13.970 -0.5978  0.5974  1.0816
17172TIP3    H273008   0.775   4.642  13.838  1.2613 -2.6621  0.6308
17173TIP3   OH273009   6.272   1.508   4.636 -0.0924 -0.3641 -0.2797
17173TIP3    H173010   6.252   1.456   4.558 -1.8724 -0.8103  0.4199
17173TIP3    H273011   6.321   1.583   4.604 -1.8337  0.1076 -2.0272
17174TIP3   OH273012   1.452   1.347   5.098  0.2354  0.3328 -0.2666
17174TIP3    H173013   1.409   1.415   5.047 -0.8424 -0.0950  0.0456
17174TIP3    H273014   1.473   1.389   5.182 -0.7535  0.1999  0.0610
17175TIP3   OH273015   1.658   3.310   4.724 -0.3121  0.2687  0.2517
17175TIP3    H173016   1.723   3.241   4.737 -0.7347  0.0690  1.5352
17175TIP3    H273017   1.605   3.280   4.650 -0.4092 -0.7446  0.7128
17176TIP3   OH273018   3.542   2.616  10.510  0.2996 -0.0449 -0.8944
17176TIP3    H173019   3.611   2.672  10.473  1.1803  0.2203  1.0218
17176TIP3    H273020   3.464   2.671  10.509  1.5252  2.0730  2.6038
17177TIP3   OH273021   6.753   6.376   5.067 -0.1085 -0.8588 -0.5822
17177TIP3    H173022   6.833   6.428   5.061 -0.0181 -0.4519  2.4327
17177TIP3    H273023   6.682   6.440   5.063 -0.1634 -0.9319 -0.7707
17178TIP3   OH273024   5.126   2.813   5.527  0.4660 -0.2033  0.5001
17178TIP3    H173025   5.101   2.775   5.443 -0.6703 -0.8720  1.1107
17178TIP3    H273026   5.045   2.812   5.578  1.2854 -0.4799  1.8376
17179TIP3   OH273027   2.770   0.499  15.123 -0.0054 -0.0104  0.1204
17179TIP3    H173028   2.806   0.568  15.066 -1.2664 -0.9307 -1.9103
17179TIP3    H273029   2.780   0.418  15.072 -0.5461 -0.9935  1.5169
17180TIP3   OH273030   1.668   2.411   1.918  0.3227  0.6190 -0.4433
17180TIP3    H173031   1.740   2.351   1.937  1.1794  1.7832  0.1047
17180TIP3    H273032   1.657   2.461   1.998 -1.0479  0.5335 -0.5568
17181TIP3   OH273033   0.930   6.587   0.690  0.7045  0.5011 -0.5791
17181TIP3    H173034   0.866   6.652   0.719  0.6437  0.5907 -0.9129
17181TIP3    H273035   0.956   6.616   0.603  1.1486  0.4298 -0.4750
17182TIP3   OH273036   5.757   0.052   5.333 -0.1573 -0.4782  0.3577
17182TIP3    H173037   5.836   0.104   5.351 -0.8642 -0.0114  2.3729
17182TIP3    H273038   5.758  -0.016   5.400 -1.0229 -0.9871 -0.1418
17183TIP3   OH273039   4.038   5.499   5.577  0.1885  0.2341 -0.7846
17183TIP3    H173040   4.066   5.451   5.500  0.9849 -0.5706 -0.0095
17183TIP3    H273041   3.981   5.568   5.543 -0.6202 -0.9739 -1.9516
17184TIP3   OH273042   0.885   6.679   3.793 -0.1652  0.0009  0.1375
17184TIP3    H173043   0.955   6.684   3.858  1.9165 -1.9998 -1.7488
17184TIP3    H273044   0.874   6.585   3.777 -1.5236  0.3791 -1.4482
17185TIP3   OH273045   4.359   3.048   4.298  0.2340 -0.1048 -0.2887
17185TIP3    H173046   4.448   3.028   4.270 -0.1273  0.0241 -1.5761
17185TIP3    H273047   4.328   3.112   4.235 -0.4844  0.5182  0.6610
17186TIP3   OH273048   4.355   5.287   4.674 -0.4975  0.0321 -0.7154
17186TIP3    H173049   4.398   5.348   4.734  2.5213 -2.1617 -0.3669
17186TIP3    H273050   4.272   5.266   4.717  0.4154  0.4989  1.4073
17187TIP3   OH273051   5.320   4.866  13.611  0.3558 -0.4694 -0.3331
17187TIP3    H173052   5.334   4.787  13.663 -1.7972 -0.4836  0.3350
17187TIP3    H273053   5.324   4.836  13.520  2.4239 -0.7607 -0.1952
17188TIP3   OH273054   0.089   5.802   3.853  0.8111  0.2829  0.0202
17188TIP3    H173055   0.070   5.768   3.766  0.9201  1.0340 -0.3006
17188TIP3    H273056   0.105   5.895   3.840  1.1573  0.3414  0.7949
17189TIP3   OH273057   7.034   0.021   4.112  0.1725 -0.3780  0.0227
17189TIP3    H173058   7.030   0.102   4.161  2.2065 -0.5089  0.4656
17189TIP3    H273059   6.967   0.031   4.044 -1.3654  0.5891  1.6023
17190TIP3   OH273060   1.849   5.327   1.516 -0.1282 -0.2242  0.2194
17190TIP3    H173061   1.841   5.356   1.425 -1.3320 -1.0252  0.0544
17190TIP3    H273062   1.812   5.398   1.568  2.0008  0.9532  0.2416
17191TIP3   OH273063   5.034   0.752  13.366 -0.0488  0.6480  0.1961
17191TIP3    H173064   4.994   0.780  13.449  1.6212  1.7386  0.6895
17191TIP3    H273065   5.106   0.695  13.393  0.3799  0.8516 -0.5154
17192TIP3   OH273066   0.756   4.688   2.971 -0.0749 -0.1831 -0.1285
17192TIP3    H173067   0.812   4.745   3.024 -1.3923  0.2690  0.8337
17192TIP3    H273068   0.745   4.736   2.889  1.4617 -0.5913 -0.6027
17193TIP3   OH273069   1.760   1.973   2.468 -0.2935  0.8282  0.1179
17193TIP3    H173070   1.779   1.975   2.562  1.9753 -0.0175 -0.2465
17193TIP3    H273071   1.673   2.012   2.460 -0.0130  2.1486  2.4427
17194TIP3   OH273072   6.352   4.039   1.591  0.1319  0.1405  0.2639
17194TIP3    H173073   6.297   4.098   1.539 -0.7205 -2.2602 -1.7304
17194TIP3    H273074   6.441   4.060   1.565 -0.0947  1.0676  0.2000
17195TIP3   OH273075   6.505   4.687   2.824 -0.2199 -0.2935 -0.2165
17195TIP3    H173076   6.559   4.659   2.899 -2.9741 -1.1735  1.5890
17195TIP3    H273077   6.496   4.608   2.770 -0.4245 -0.3923 -0.0390
17196TIP3   OH273078   4.743   6.150  15.229 -0.1266  0.0505 -0.4337
17196TIP3    H173079   4.735   6.244  15.212  0.2434 -0.0309 -1.0599
17196TIP3    H273080   4.706   6.108  15.151 -1.9264 -0.3456  0.5672
17197TIP3   OH273081   3.615   0.913   1.576 -0.0753  0.5224 -0.2630
17197TIP3    H173082   3.678   0.946   1.640  0.6282  1.1478 -1.2523
17197TIP3    H273083   3.626   0.969   1.499 -1.4816  0.3171 -0.6554
17198TIP3   OH273084   0.840   1.844   2.754 -0.3183  0.3437 -0.3181
17198TIP3    H173085   0.776   1.792   2.706 -0.3637  0.9239 -0.8884
17198TIP3    H273086   0.798   1.863   2.838 -0.2529 -0.6335 -0.0570
17199TIP3   OH273087   7.206   2.914  14.427  0.5590 -0.1512 -0.5405
17199TIP3    H173088   7.238   2.910  14.518 -1.5403 -0.9109  0.2251
17199TIP3    H273089   7.188   3.007  14.412  1.5690  0.0734 -0.4458
17200TIP3   OH273090   5.344   5.110   3.605  0.5559 -0.4231  0.3200
17200TIP3    H173091   5.275   5.174   3.622  1.1488  0.1395  0.6159
17200TIP3    H273092   5.298   5.036   3.565 -0.1175  0.2344 -0.1487
17201TIP3   OH273093   0.710   2.540   3.975 -0.1844 -0.2615 -0.2174
17201TIP3    H173094   0.666   2.537   4.060 -0.4930 -1.4572 -0.3957
17201TIP3    H273095   0.713   2.633   3.953 -0.6571  0.0193  0.8109
17202TIP3   OH273096   0.849   3.576   5.843 -0.3329  0.1048 -0.0407
17202TIP3    H173097   0.941   3.553   5.853 -0.3180  0.6153  1.2093
17202TIP3    H273098   0.834   3.643   5.910 -1.5098  0.3301 -0.5047
17203TIP3   OH273099   3.485   5.128   2.763  0.4621 -0.0306  0.6892
17203TIP3    H173100   3.440   5.161   2.685  0.4897 -1.9960 -0.2227
17203TIP3    H273101   3.416   5.091   2.817  0.5740  0.3670  1.1175
17204TIP3   OH273102   5.830   1.870   5.276 -0.2179  0.1574  0.3286
17204TIP3    H173103   5.839   1.779   5.249  0.8216  0.7240 -1.4028
17204TIP3    H273104   5.861   1.871   5.367 -1.2764 -1.3703  0.7415
17205TIP3   OH273105   6.434   3.463   1.440 -0.2655 -0.4278  0.2118
17205TIP3    H173106   6.448   3.395   1.506 -1.7017 -0.2004  0.8047
17205TIP3    H273107   6.340   3.482   1.446 -0.2265  0.3120 -1.2187
17206TIP3   OH273108   6.294   6.959   1.068  0.0657  0.4279 -0.1376
17206TIP3    H173109   6.275   6.874   1.107  0.9265  0.3272  0.0774
17206TIP3    H273110   6.389   6.961   1.058 -0.0751  0.6542 -1.7774
17207TIP3   OH273111   0.999   2.630   5.195  0.0299  0.2966 -0.0154
17207TIP3    H173112   1.018   2.603   5.105  0.9991  0.2189  0.2041
17207TIP3    H273113   0.978   2.724   5.188  1.3065  0.5868 -0.1759
17208TIP3   OH273114   5.185   2.541   2.242 -0.3633  0.2614 -0.2961
17208TIP3    H173115   5.162   2.516   2.332  1.4055  0.3819  0.2281
17208TIP3    H273116   5.178   2.637   2.241  0.9977  0.3775  0.1459
17209TIP3   OH273117   2.512   2.333  10.864  0.0088 -0.0930 -0.1877
17209TIP3    H173118   2.435   2.277  10.864 -0.4589  0.4882  1.2789
17209TIP3    H273119   2.527   2.352  10.957  0.3535  1.9099 -0.6034
17210TIP3   OH273120   5.936   5.443   4.469 -0.3882  1.4411  0.2323
17210TIP3    H173121   5.939   5.475   4.559  0.1221 -0.7381  1.0293
17210TIP3    H273122   5.993   5.504   4.421 -0.3740  2.4222  1.4237
17211TIP3   OH273123   6.835   0.207   1.577  0.3270  0.4416 -0.0338
17211TIP3    H173124   6.927   0.188   1.595  0.3652 -0.1703 -0.8140
17211TIP3    H273125   6.803   0.250   1.656  0.8600 -0.8345  0.9024
17212TIP3   OH273126   0.085   4.973  15.330  0.2765  0.1395  0.4310
17212TIP3    H173127   0.031   5.049  15.350 -0.6764 -0.8075  1.6604
17212TIP3    H273128   0.051   4.904  15.388  1.9691 -0.8499  0.3090
17213TIP3   OH273129   1.074   5.538   5.078 -0.1679  0.1688  0.3588
17213TIP3    H173130   1.059   5.630   5.096 -1.0490  0.4673 -1.6272
17213TIP3    H273131   1.016   5.492   5.139 -0.6361  0.9727  0.5343
17214TIP3   OH273132   1.370   2.964   5.009 -0.3407  0.0268 -0.4893
17214TIP3    H173133   1.351   2.940   5.100  0.0172 -0.3436 -0.5090
17214TIP3    H273134   1.416   3.048   5.016  0.4567 -0.4255 -0.2733
17215TIP3   OH273135   0.400   1.265   4.389  0.1147 -0.2760  0.4167
17215TIP3    H173136   0.431   1.261   4.479  0.6486 -1.2065  0.2019
17215TIP3    H273137   0.470   1.225   4.338  0.9502  2.4225 -0.7276
17216TIP3   OH273138   5.821   7.139   1.961 -0.2308  0.1477  0.0207
17216TIP3    H173139   5.819   7.167   2.053  1.4121  3.5569 -0.8369
17216TIP3    H273140   5.888   7.070   1.959  0.9506  1.2110  1.1483
17217TIP3   OH273141   1.374   0.315   4.135  0.1248  0.1333 -0.2318
17217TIP3    H173142   1.304   0.344   4.193  1.1612  0.6456  0.8051
17217TIP3    H273143   1.369   0.374   4.060 -0.3193  0.3936 -0.0035
17218TIP3   OH273144   1.485   4.036   4.120 -0.0556 -0.5410 -0.5336
17218TIP3    H173145   1.555   4.100   4.113 -0.5491  0.1653  0.6505
17218TIP3    H273146   1.530   3.951   4.122  0.7232 -0.1326 -0.3400
17219TIP3   OH273147   5.179   1.262  12.891 -0.1008  0.3461  0.3905
17219TIP3    H173148   5.097   1.217  12.870  0.0287 -1.0540  2.5931
17219TIP3    H273149   5.247   1.209  12.849 -0.1697  0.2419  0.4106
17220TIP3   OH273150   6.274   0.688   4.360  0.2552 -0.2893 -0.0203
17220TIP3    H173151   6.308   0.657   4.276 -2.1447  0.5676 -1.4196
17220TIP3    H273152   6.234   0.610   4.399 -0.4752 -0.2715 -0.6996
17221TIP3   OH273153   2.265   4.987   4.906 -0.5110  0.9321 -0.2076
17221TIP3    H173154   2.185   4.987   4.853 -1.7825 -1.0114  1.5287
17221TIP3    H273155   2.239   4.944   4.988  1.9932  1.5023  0.9757
17222TIP3   OH273156   0.193   4.594   3.804 -0.3479 -0.1747 -0.1568
17222TIP3    H173157   0.124   4.535   3.775 -0.0506 -0.0431 -1.1638
17222TIP3    H273158   0.194   4.584   3.900 -0.5677 -1.5030 -0.2670
17223TIP3   OH273159   6.730   3.082  14.619 -0.4870  0.0089 -0.1040
17223TIP3    H173160   6.666   3.086  14.691 -2.1272  0.7298 -1.5380
17223TIP3    H273161   6.725   2.991  14.589  1.2478 -0.6933  1.5297
17224TIP3   OH273162   4.814   3.131  11.432  0.1531 -0.2837 -0.1523
17224TIP3    H173163   4.768   3.101  11.510  0.6468 -0.8587 -0.0831
17224TIP3    H273164   4.744   3.153  11.371 -0.2387  0.2439  0.4704
17225TIP3   OH273165   5.905   6.567  12.456  0.3268 -0.9208  0.0804
17225TIP3    H173166   5.976   6.533  12.401  0.9622 -1.5271  1.2470
17225TIP3    H273167   5.949   6.605  12.531 -0.5546 -0.5305  0.4057
17226TIP3   OH273168   4.930   6.049   4.105  0.1704 -0.2940  0.7676
17226TIP3    H173169   4.870   5.975   4.117 -0.8966  0.3532 -0.4264
17226TIP3    H273170   4.879   6.126   4.131 -0.9233  0.7176 -3.6687
17227TIP3   OH273171   3.062   4.960   1.810  0.0582  0.3247  0.2695
17227TIP3    H173172   3.139   4.913   1.841  0.4357  0.3954 -0.5334
17227TIP3    H273173   2.993   4.893   1.805  0.1913  0.1658  0.5350
17228TIP3   OH273174   0.149   6.294   4.976  0.9061 -0.3150 -0.3220
17228TIP3    H173175   0.119   6.346   4.901  0.4166 -0.8429 -0.4928
17228TIP3    H273176   0.069   6.267   5.021  1.1981  0.6325  0.8422
17229TIP3   OH273177   3.458   2.871   0.371 -0.3682 -0.1017 -0.0767
17229TIP3    H173178   3.404   2.927   0.428  0.1457  2.0094 -1.5566
17229TIP3    H273179   3.489   2.801   0.429 -1.2203  1.0044  1.8217
17230TIP3   OH273180   4.473   3.404   2.165  0.3724 -0.0914  0.5664
17230TIP3    H173181   4.399   3.363   2.121  0.2960 -0.7000  1.2393
17230TIP3    H273182   4.517   3.454   2.097  0.1991 -0.9313 -0.1789
17231TIP3   OH273183   2.260   4.966   3.260 -0.4312  0.1331  0.3696
17231TIP3    H173184   2.220   5.026   3.196  0.8394 -0.0871 -0.6829
17231TIP3    H273185   2.194   4.956   3.328 -1.6657  0.7483 -0.6858
17232TIP3   OH273186   4.779   5.563   5.543 -0.7169  0.3580 -0.0184
17232TIP3    H173187   4.760   5.652   5.574 -0.2883 -0.2345  2.0518
17232TIP3    H273188   4.873   5.553   5.555 -0.9126 -0.7144  0.7424
17233TIP3   OH273189   2.598   2.027  12.452  0.2369 -0.0387  0.1003
17233TIP3    H173190   2.607   1.948  12.507 -0.8291 -1.3057 -1.4424
17233TIP3    H273191   2.654   2.092  12.495  1.7243 -1.8274  1.0525
17234TIP3   OH273192   0.327   5.512   0.201 -0.0210 -0.3094 -0.2483
17234TIP3    H173193   0.268   5.440   0.179 -0.6790  0.7523 -2.1778
17234TIP3    H273194   0.367   5.486   0.284 -0.0518 -2.9778 -0.9926
17235TIP3   OH273195   4.647   2.123   4.560  0.4877  0.6554 -0.2280
17235TIP3    H173196   4.638   2.039   4.516  0.0981  0.4038  0.3216
17235TIP3    H273197   4.562   2.165   4.549 -0.3234 -0.2566  1.9788
17236TIP3   OH273198   6.039   6.384  15.085 -0.3697  0.1975  0.9805
17236TIP3    H173199   5.957   6.362  15.129  0.4361 -2.7596  1.2101
17236TIP3    H273200   6.014   6.398  14.994 -1.0467 -1.8764  0.7979
17237TIP3   OH273201   2.080   3.993   2.368 -1.1662 -0.4220  0.3278
17237TIP3    H173202   2.123   4.078   2.375 -1.0141 -0.5127  0.5156
17237TIP3    H273203   2.053   3.987   2.277 -0.9086 -0.3014  0.2421
17238TIP3   OH273204   3.482   4.259  14.652 -0.0949  0.6024 -0.5540
17238TIP3    H173205   3.425   4.209  14.709  0.7029 -0.5058 -0.6955
17238TIP3    H273206   3.542   4.194  14.614 -0.0209  1.4289 -1.9434
17239TIP3   OH273207   5.251   2.266   3.598  0.0141 -0.7402 -0.3806
17239TIP3    H173208   5.277   2.294   3.511 -0.6451 -2.5259 -1.1881
17239TIP3    H273209   5.155   2.274   3.598 -0.0276 -1.2190  0.0147
17240TIP3   OH273210   6.520   3.135   3.595 -0.2832 -0.0947 -0.0189
17240TIP3    H173211   6.475   3.167   3.516  2.2654  1.0545 -1.0950
17240TIP3    H273212   6.490   3.192   3.665 -0.5505  0.6012 -0.6898
17241TIP3   OH273213   4.815   0.595  12.500  0.3688  0.4224 -0.2614
17241TIP3    H173214   4.824   0.677  12.452  0.8446 -0.2267 -1.3140
17241TIP3    H273215   4.888   0.595  12.561 -0.3863  1.3747  0.6790
17242TIP3   OH273216   3.257   6.616   3.265 -0.1330 -0.1805  0.5291
17242TIP3    H173217   3.321   6.554   3.298 -0.3873 -0.9361 -0.3565
17242TIP3    H273218   3.178   6.598   3.315  0.0345  0.0026  0.8583
17243TIP3   OH273219   2.883   1.436   5.608 -0.0259  0.7609 -0.3632
17243TIP3    H173220   2.807   1.420   5.664 -0.6784  2.6061 -0.6387
17243TIP3    H273221   2.941   1.491   5.661  0.3753  0.6949 -0.7249
17244TIP3   OH273222   3.085   0.228   2.106 -0.2091 -0.1917 -0.1188
17244TIP3    H173223   3.173   0.191   2.115 -0.3233 -1.3946 -2.8674
17244TIP3    H273224   3.042   0.172   2.042 -3.3752 -0.2161  1.8321
17245TIP3   OH273225   5.310   3.614   2.371 -0.2639  0.1505  0.9566
17245TIP3    H173226   5.359   3.532   2.374 -0.7714 -0.2089 -0.0360
17245TIP3    H273227   5.364   3.673   2.319  0.6105  0.8325  2.5574
17246TIP3   OH273228   2.972   1.679   4.324 -0.3228 -0.1989 -0.2616
17246TIP3    H173229   2.994   1.704   4.414 -0.2457 -0.6988 -0.1414
17246TIP3    H273230   2.911   1.747   4.295 -2.7066 -1.5894  1.1725
17247TIP3   OH273231   0.739   3.346   3.205  0.0199 -0.2032  0.1367
17247TIP3    H173232   0.667   3.404   3.178  0.2057  1.0225  2.0751
17247TIP3    H273233   0.714   3.317   3.293  2.2179  0.9199  1.2169
17248TIP3   OH273234   2.502   5.165   3.296 -0.6173 -0.1629  0.1119
17248TIP3    H173235   2.475   5.186   3.386  2.2555  2.1819  0.6125
17248TIP3    H273236   2.492   5.070   3.289 -4.8824 -0.0114  1.3768
17249TIP3   OH273237   4.423   1.205  14.819 -0.0613 -0.4024 -0.4233
17249TIP3    H173238   4.400   1.234  14.731 -1.2864 -1.2439 -0.4235
17249TIP3    H273239   4.476   1.275  14.856 -3.6909  2.4543  0.0021
17250TIP3   OH273240   2.868   7.037   2.256  0.3865 -0.3521 -0.0778
17250TIP3    H173241   2.943   7.091   2.282 -0.3443 -0.0314  1.4966
17250TIP3    H273242   2.898   6.947   2.267  1.3438 -0.3193 -1.9312
17251TIP3   OH273243   0.411   6.758   3.217  0.9682 -0.4192  0.5772
17251TIP3    H173244   0.499   6.723   3.228  0.8250 -0.6618  1.0039
17251TIP3    H273245   0.399   6.817   3.292  1.8708  2.0115 -1.0726
17252TIP3   OH273246   1.008   3.407   0.454 -0.1219 -0.2515  0.1951
17252TIP3    H173247   1.096   3.445   0.449  0.1651 -1.0566 -1.5935
17252TIP3    H273248   0.996   3.386   0.547  1.1236  0.8631  0.6377
17253TIP3   OH273249   0.488   0.202   3.777  0.1233  0.0518  0.3755
17253TIP3    H173250   0.564   0.249   3.813 -0.7927  1.1319  0.9531
17253TIP3    H273251   0.424   0.203   3.847 -0.7486 -0.1053 -0.4034
17254TIP3   OH273252   2.987   2.496  14.087 -0.0040 -0.3142 -0.1886
17254TIP3    H173253   3.006   2.555  14.160 -0.6525 -0.7524  0.3492
17254TIP3    H273254   2.956   2.416  14.129 -2.1232  0.0266 -0.9531
17255TIP3   OH273255   4.015   0.766   4.506 -0.3619 -0.5063 -0.3433
17255TIP3    H173256   4.067   0.826   4.559  0.4122  0.1878 -1.8046
17255TIP3    H273257   3.934   0.813   4.488  0.2601  0.1547 -1.5199
17256TIP3   OH273258   5.055   0.866  15.237 -0.4981 -0.4833 -0.2333
17256TIP3    H173259   4.966   0.899  15.227 -0.3321 -0.1554 -0.6203
17256TIP3    H273260   5.045   0.771  15.236 -0.6392 -0.4751 -2.2072
17257TIP3   OH273261   5.430   6.701  14.544 -0.1841 -0.6751  0.6603
17257TIP3    H173262   5.523   6.696  14.563 -0.1389  0.2124  0.7098
17257TIP3    H273263   5.414   6.630  14.482  0.5975 -0.6092  0.3724
17258TIP3   OH273264   2.640   6.772   4.272  0.5450  0.3421 -0.8813
17258TIP3    H173265   2.557   6.724   4.264  0.6403 -0.3464  1.4669
17258TIP3    H273266   2.635   6.840   4.205 -1.3679 -0.4749 -1.6391
17259TIP3   OH273267   2.704   3.532   4.286  0.2968  0.2035 -0.2089
17259TIP3    H173268   2.774   3.514   4.222  2.3147  2.0945  1.3051
17259TIP3    H273269   2.661   3.611   4.253 -0.1331 -0.0807 -0.3400
17260TIP3   OH273270   6.071   2.517   4.801  0.0726 -0.2395 -0.1342
17260TIP3    H173271   5.991   2.507   4.853 -0.3731  0.0331 -0.7602
17260TIP3    H273272   6.043   2.562   4.721  0.7059 -0.8732 -0.7262
17261TIP3   OH273273   4.988   4.391   3.058 -0.2268 -0.0805  0.1736
17261TIP3    H173274   4.996   4.356   3.146 -1.2654 -1.5521 -0.2751
17261TIP3    H273275   4.991   4.486   3.069  0.0355 -0.2454  1.7381
17262TIP3   OH273276   4.130   5.997   4.303  0.5062 -0.1427  0.1999
17262TIP3    H173277   4.066   6.034   4.364  0.6106  1.1484 -0.4519
17262TIP3    H273278   4.215   6.019   4.341  0.5678 -0.4526  0.2414
17263TIP3   OH273279   6.660   1.928   2.701 -0.2612  0.6894  0.6096
17263TIP3    H173280   6.673   2.019   2.728  0.7240  0.4251  1.0674
17263TIP3    H273281   6.685   1.876   2.778 -2.3192  0.0430  0.9188
17264TIP3   OH273282   0.070   4.485   2.857  0.2527 -0.0795 -0.0615
17264TIP3    H173283   0.025   4.435   2.925  1.0374 -0.2694  0.3390
17264TIP3    H273284   0.003   4.541   2.818 -0.3684 -0.5397  0.3404
17265TIP3   OH273285   1.081   6.780   4.890 -0.7257  0.3822 -0.2305
17265TIP3    H173286   1.119   6.698   4.858  0.9132  0.7470  0.6459
17265TIP3    H273287   0.988   6.761   4.902 -0.9852 -0.4094 -2.9826
17266TIP3   OH273288   1.655   0.094   5.297  0.1639  0.6306  0.2703
17266TIP3    H173289   1.691   0.007   5.313  2.4395  1.5864  0.7718
17266TIP3    H273290   1.609   0.086   5.214  1.6811 -0.6979 -0.4937
17267TIP3   OH273291   3.590   6.762  14.617 -0.4270  0.1053  0.2656
17267TIP3    H173292   3.500   6.795  14.614 -0.5109 -0.1012  0.4675
17267TIP3    H273293   3.625   6.794  14.700 -0.1370  0.6292 -0.0514
17268TIP3   OH273294   0.887   3.657   1.147  0.0831 -0.0306 -0.1933
17268TIP3    H173295   0.844   3.738   1.119  0.5886  0.1475 -0.4622
17268TIP3    H273296   0.966   3.652   1.093 -0.0562 -0.8183 -0.3325
17269TIP3   OH273297   4.893   2.819   3.748  0.0204 -0.2972 -0.3074
17269TIP3    H173298   4.924   2.781   3.831  3.6720  0.7874 -0.9901
17269TIP3    H273299   4.949   2.779   3.682  0.3163  2.1664 -1.6658
17270TIP3   OH273300   3.433   1.760   5.945 -0.2259  0.3268  0.2143
17270TIP3    H173301   3.392   1.795   5.867 -0.9997 -0.5827  0.1847
17270TIP3    H273302   3.440   1.834   6.005  0.1341  0.9696 -0.6130
17271TIP3   OH273303   2.438   5.167   1.922 -0.8704  0.0392 -0.4302
17271TIP3    H173304   2.421   5.157   1.828 -2.3619 -0.8070 -0.0996
17271TIP3    H273305   2.353   5.186   1.960 -0.3031  0.2249  0.7793
17272TIP3   OH273306   6.733   0.592   1.230  0.4599  0.1660 -0.1135
17272TIP3    H173307   6.740   0.591   1.325  2.7841 -0.1475 -0.2152
17272TIP3    H273308   6.709   0.502   1.207  1.2424 -0.1127  0.1324
17273TIP3   OH273309   5.400   2.432   5.367  0.6576 -0.1511 -0.0766
17273TIP3    H173310   5.335   2.417   5.436  0.7478 -1.2499 -0.2164
17273TIP3    H273311   5.481   2.450   5.414  0.2242  1.4811  0.1016
17274TIP3   OH273312   6.823   0.891   3.500  0.0543  0.0275 -0.0043
17274TIP3    H173313   6.832   0.982   3.471  0.2298  0.0130  0.0042
17274TIP3    H273314   6.846   0.894   3.593  1.5808 -0.2834 -0.3435
17275TIP3   OH273315   3.098   6.853   3.343 -0.5212  0.4851 -0.9235
17275TIP3    H173316   3.126   6.928   3.395 -3.4007  0.0128  1.6544
17275TIP3    H273317   3.164   6.786   3.360  0.2007  1.3276 -0.3382
17276TIP3   OH273318   5.974   6.973  12.911  0.2335 -0.3780  0.1007
17276TIP3    H173319   6.059   6.930  12.912  0.9205  0.8249  2.8969
17276TIP3    H273320   5.994   7.066  12.924 -1.4672  0.0463 -0.0781
17277TIP3   OH273321   6.015   4.723   0.596  0.1818 -0.3186  0.2032
17277TIP3    H173322   5.963   4.688   0.523 -1.2507  0.2786  0.9001
17277TIP3    H273323   6.092   4.667   0.599 -1.5808 -2.8617  0.7103
17278TIP3   OH273324   3.603   5.821   4.043 -0.0902  0.5416  0.0608
17278TIP3    H173325   3.512   5.814   4.074  0.0813  0.5756  0.5919
17278TIP3    H273326   3.595   5.847   3.952 -0.6353 -0.7913 -0.2937
17279TIP3   OH273327   3.822   2.740  15.302  0.2631  0.5767 -0.7768
17279TIP3    H173328   3.808   2.827  15.341 -0.4300  0.1684 -0.0889
17279TIP3    H273329   3.806   2.679  15.374 -0.6639 -0.1816 -1.6113
17280TIP3   OH273330   7.038   2.889   3.499 -0.5899  0.1282  0.6811
17280TIP3    H173331   6.980   2.961   3.525 -0.2082  0.8017 -0.2671
17280TIP3    H273332   6.978   2.819   3.472 -0.9659  0.4423  0.6903
17281TIP3   OH273333   5.207   1.934   4.751  0.1822  0.1639 -0.3051
17281TIP3    H173334   5.171   1.974   4.672 -0.4962 -1.2822 -0.7664
17281TIP3    H273335   5.167   1.982   4.823  0.6491  1.3660 -0.8190
17282TIP3   OH273336   4.246   5.752   2.905  0.1415  0.2602 -0.8314
17282TIP3    H173337   4.239   5.829   2.848  2.1780  0.7399 -0.5328
17282TIP3    H273338   4.284   5.684   2.849  0.4472  0.1768 -0.5271
17283TIP3   OH273339   0.412   0.256   1.423  0.4608  0.1028 -0.0998
17283TIP3    H173340   0.406   0.346   1.392  1.2228  0.0466 -0.4310
17283TIP3    H273341   0.321   0.228   1.432  0.1617  1.4118  1.5177
17284TIP3   OH273342   6.913   2.485   3.322 -0.2036 -0.1751  0.0987
17284TIP3    H173343   6.874   2.490   3.409 -0.5665 -1.3083  0.0163
17284TIP3    H273344   7.008   2.488   3.337 -0.2406 -1.1051  0.6112
17285TIP3   OH273345   5.171   3.470  15.244  0.1196  0.7354 -0.0544
17285TIP3    H173346   5.130   3.383  15.250  0.1028  0.7683  0.3781
17285TIP3    H273347   5.102   3.527  15.210  0.2786  0.4840 -0.8095
17286TIP3   OH273348   2.884   6.059   0.281 -0.2952 -0.2069 -0.4707
17286TIP3    H173349   2.938   6.083   0.206 -0.2280  1.2433  0.0111
17286TIP3    H273350   2.816   6.003   0.245  0.5738 -0.7116 -1.3609
17287TIP3   OH273351   2.386   2.761   3.554  0.0726  0.0879 -0.0565
17287TIP3    H173352   2.420   2.703   3.622  2.1249  0.0870 -1.0192
17287TIP3    H273353   2.426   2.729   3.473  0.4227  2.1696 -0.7614
17288TIP3   OH273354   0.187   5.287   0.114 -0.4871 -0.7198 -0.2424
17288TIP3    H173355   0.188   5.209   0.170 -1.3608 -0.4693  0.1378
17288TIP3    H273356   0.126   5.265   0.044  1.0433 -1.2586 -1.4669
17289TIP3   OH273357   2.462   3.998   4.442 -0.0256 -0.4304  0.1742
17289TIP3    H173358   2.531   3.995   4.507  1.0872  4.8936 -0.2974
17289TIP3    H273359   2.382   3.977   4.490  1.0700  0.7409  2.6676
17290TIP3   OH273360   3.796   5.792   2.972 -0.0032 -0.1303 -0.0292
17290TIP3    H173361   3.884   5.773   3.004  0.9229  2.4305 -0.8429
17290TIP3    H273362   3.738   5.741   3.029  1.8670 -0.0959  2.0182
17291TIP3   OH273363   2.636   4.049   4.644  0.0740 -0.6696  0.4984
17291TIP3    H173364   2.647   4.142   4.627 -1.6192 -0.2582  1.4749
17291TIP3    H273365   2.600   4.044   4.733  2.4465 -2.3975  1.4814
17292TIP3   OH273366   4.342   5.179   3.716  0.1905  0.0314  0.6651
17292TIP3    H173367   4.295   5.220   3.643 -0.7425  1.9378  2.2320
17292TIP3    H273368   4.320   5.086   3.710  1.6789 -0.2578 -2.5322
17293TIP3   OH273369   6.203   1.693   3.264 -0.0442  0.1566  0.4918
17293TIP3    H173370   6.239   1.760   3.322  0.0787  1.2463 -0.7785
17293TIP3    H273371   6.108   1.701   3.273 -0.0195  0.0362  0.8531
17294TIP3   OH273372   1.080   0.762   1.445 -0.6105  0.1387 -0.0842
17294TIP3    H173373   1.133   0.774   1.524 -0.2108 -0.7228 -0.2079
17294TIP3    H273374   1.020   0.837   1.445  0.3188  0.9198  0.2832
17295TIP3   OH273375   3.220   5.157   1.212  0.2174  0.1859  0.0133
17295TIP3    H173376   3.210   5.079   1.157  0.7594  0.6418 -0.7634
17295TIP3    H273377   3.164   5.223   1.169 -0.3373  0.1958  0.7338
17296TIP3   OH273378   5.227   3.963   2.472  0.3129 -0.4797 -0.5317
17296TIP3    H173379   5.263   3.945   2.385  1.3730  2.4090 -0.8217
17296TIP3    H273380   5.286   4.030   2.508 -0.0235 -1.6591  2.4958
17297TIP3   OH273381   3.365   1.834   4.760  0.8293 -0.0008 -0.1569
17297TIP3    H173382   3.326   1.811   4.844  1.9352  0.4632  0.4972
17297TIP3    H273383   3.347   1.758   4.704  0.8734 -0.7058  0.7665
17298TIP3   OH273384   2.343   6.272   5.020  0.3058 -0.1101 -0.1974
17298TIP3    H173385   2.408   6.231   4.964 -1.1788 -0.1783 -1.9489
17298TIP3    H273386   2.325   6.206   5.088  0.8974 -0.7099 -0.6153
17299TIP3   OH273387   0.150   1.225   3.445 -0.5103  0.3810 -0.0419
17299TIP3    H173388   0.198   1.219   3.363 -2.0680 -0.7172 -0.9359
17299TIP3    H273389   0.058   1.216   3.420 -1.0699  0.4620  1.7836
17300TIP3   OH273390   3.824   3.715   2.589 -0.2831  0.1347 -0.3629
17300TIP3    H173391   3.918   3.699   2.580 -0.4647 -1.6423  0.4160
17300TIP3    H273392   3.783   3.658   2.524 -0.8903 -0.6224  0.6589
17301TIP3   OH273393   1.057   5.571  11.853 -0.6855  0.4824 -0.5245
17301TIP3    H173394   1.041   5.664  11.839 -0.0906  0.9496  1.6027
17301TIP3    H273395   0.970   5.530  11.841 -0.6826  1.0096 -3.0310
17302TIP3   OH273396   4.645   6.369  14.072  0.3750  0.1655  0.1467
17302TIP3    H173397   4.642   6.273  14.072  0.9801  0.0805  2.6918
17302TIP3    H273398   4.554   6.395  14.091  0.4135  0.0560  0.4893
17303TIP3   OH273399   1.433   0.389   1.426  0.0163 -0.2169 -0.0456
17303TIP3    H173400   1.409   0.383   1.333 -1.6454  0.2262  0.3222
17303TIP3    H273401   1.359   0.351   1.473  0.3387  0.5688  1.1508
17304TIP3   OH273402   5.779   0.775   1.308  0.0287 -0.1083 -0.2425
17304TIP3    H173403   5.865   0.796   1.344  0.0607 -0.9847  0.2095
17304TIP3    H273404   5.718   0.789   1.380 -0.5705  2.8574 -1.1949
17305TIP3   OH273405   6.386   3.983   6.073  0.1585 -0.5403  0.0529
17305TIP3    H173406   6.325   4.028   6.014 -0.7742 -1.3417  0.4002
17305TIP3    H273407   6.441   3.931   6.015 -1.4538 -2.1722 -0.0719
17306TIP3   OH273408   5.817   7.196   2.765 -0.0633  0.1076  0.0689
17306TIP3    H173409   5.893   7.251   2.780  1.5289 -1.9289 -0.0600
17306TIP3    H273410   5.757   7.250   2.714  1.5849  1.5508 -0.4262
17307TIP3   OH273411   6.257   5.516   3.739 -0.0551 -0.1430 -0.3568
17307TIP3    H173412   6.279   5.563   3.659 -0.0414  0.9721  0.2796
17307TIP3    H273413   6.217   5.435   3.709 -0.6850  0.5600 -1.4889
17308TIP3   OH273414   2.159   2.641   3.441  0.4119  0.2183 -0.3881
17308TIP3    H173415   2.136   2.556   3.480  1.3926 -0.5720 -1.4502
17308TIP3    H273416   2.239   2.667   3.487  1.0318 -0.2470 -1.1883
17309TIP3   OH273417   4.980   4.254   1.654 -0.0921 -0.6351  0.4383
17309TIP3    H173418   4.929   4.324   1.614  0.0686 -0.2948  0.8250
17309TIP3    H273419   5.071   4.273   1.630 -0.2478 -2.0243 -1.4509
17310TIP3   OH273420   7.216   7.223   2.862 -0.1934  0.2612  0.7561
17310TIP3    H173421   7.137   7.254   2.908  0.8831  1.8427  1.6243
17310TIP3    H273422   7.278   7.205   2.933 -0.2562 -2.6391  0.2087
17311TIP3   OH273423   3.630   6.322   1.243  0.2740  0.0620 -0.3492
17311TIP3    H173424   3.719   6.290   1.256 -0.5908 -1.3055  3.2271
17311TIP3    H273425   3.585   6.302   1.325 -3.5084  0.1846 -2.2022
17312TIP3   OH273426   6.913   1.068   4.340 -0.4142  0.1134  0.2802
17312TIP3    H173427   6.934   1.037   4.252 -3.1418  1.8032 -1.1165
17312TIP3    H273428   6.969   1.144   4.353  1.2724 -1.1757  0.8080
17313TIP3   OH273429   2.999   3.035   3.306 -0.0397 -0.2251 -0.4104
17313TIP3    H173430   3.039   3.122   3.302 -2.9165  1.1535 -1.5846
17313TIP3    H273431   2.951   3.035   3.389  0.0606 -0.7573 -0.3489
17314TIP3   OH273432   5.713   5.906  10.108 -0.4800  0.3373  0.0557
17314TIP3    H173433   5.690   5.881  10.018  0.6510 -1.1579  0.1371
17314TIP3    H273434   5.799   5.947  10.100 -0.0891 -0.3770  0.5165
17315TIP3   OH273435   3.672   2.538   4.313  0.0981 -0.0466  0.0593
17315TIP3    H173436   3.599   2.481   4.337 -0.5294  0.4720 -0.5728
17315TIP3    H273437   3.680   2.598   4.387 -0.8726  0.6202 -0.3619
17316TIP3   OH273438   0.087   1.407   4.077 -0.1908  0.1478  0.0823
17316TIP3    H173439   0.171   1.363   4.091  0.3577  1.3836  0.8027
17316TIP3    H273440   0.102   1.467   4.005 -0.1518  1.0736  0.8362
17317TIP3   OH273441   0.742   1.031   3.999  0.0888  0.4110 -0.2563
17317TIP3    H173442   0.781   0.944   3.993  2.1222  1.2916 -0.6080
17317TIP3    H273443   0.740   1.049   4.093  2.2571  1.0262 -0.2710
17318TIP3   OH273444   6.718   6.111   0.737  0.1342  0.1102  0.2006
17318TIP3    H173445   6.695   6.196   0.699  1.2254  0.3236 -0.0313
17318TIP3    H273446   6.788   6.131   0.800 -0.4059 -0.4752  1.0166
17319TIP3   OH273447   5.416   2.230   5.791  0.5015  0.8248 -0.6691
17319TIP3    H173448   5.497   2.276   5.811  0.7452  0.4781 -0.8551
17319TIP3    H273449   5.348   2.283   5.833  1.0088 -0.0359  1.3618
17320TIP3   OH273450   6.833   2.612   5.155 -0.1781 -0.2531 -0.4683
17320TIP3    H173451   6.825   2.602   5.060 -0.9401 -0.8197 -0.3564
17320TIP3    H273452   6.754   2.571   5.190 -0.6869  1.3131  0.3328
17321TIP3   OH273453   4.284   2.554   0.632 -0.5855  0.4346  0.5344
17321TIP3    H173454   4.341   2.542   0.556 -0.2245 -1.8364  1.1013
17321TIP3    H273455   4.338   2.599   0.697 -0.6231  1.5925 -0.2099
17322TIP3   OH273456   0.352   6.254   3.201 -0.0136 -0.1802 -0.0386
17322TIP3    H173457   0.417   6.248   3.270 -0.4019  0.7892  0.4231
17322TIP3    H273458   0.285   6.190   3.226 -0.4074  0.5309  0.7715
17323TIP3   OH273459   6.782   3.317   3.792 -0.2858 -0.4937  0.0519
17323TIP3    H173460   6.803   3.401   3.750  1.7149  0.6388  3.0122
17323TIP3    H273461   6.867   3.276   3.806 -1.0900 -2.0191  0.6384
17324TIP3   OH273462   3.775   0.247  13.855 -0.4723  0.2349  0.3962
17324TIP3    H173463   3.737   0.164  13.828  0.4826 -1.6883  4.3581
17324TIP3    H273464   3.701   0.307  13.860 -1.3354 -0.5876 -1.5053
17325TIP3   OH273465   5.289   0.202   5.861 -0.3890 -0.0958 -0.0720
17325TIP3    H173466   5.274   0.292   5.834  0.2947 -0.3917 -1.5203
17325TIP3    H273467   5.295   0.206   5.957 -0.0058  1.4429 -0.1423
17326TIP3   OH273468   1.682   4.455  14.631 -0.0823 -0.0545  0.2906
17326TIP3    H173469   1.605   4.399  14.624 -0.3627  0.2667  0.7059
17326TIP3    H273470   1.740   4.427  14.561 -0.3353 -0.6812  0.3317
17327TIP3   OH273471   0.254   4.100   0.082 -0.2407 -0.4761 -0.7929
17327TIP3    H173472   0.279   4.007   0.083  0.8276 -0.2023 -0.0377
17327TIP3    H273473   0.162   4.101   0.108  0.0302 -1.2565  0.2652
17328TIP3   OH273474   0.918   0.932   4.287 -0.6656 -0.0814  0.5821
17328TIP3    H173475   0.906   0.869   4.216  0.1458  2.1836 -1.7112
17328TIP3    H273476   0.982   0.891   4.344 -0.4952 -1.5271 -0.5667
17329TIP3   OH273477   0.908   1.721  12.973  0.4298 -0.6063 -0.3595
17329TIP3    H173478   0.842   1.763  12.917  0.4067 -2.1443 -1.5583
17329TIP3    H273479   0.949   1.793  13.019 -2.7708  0.3790  1.2645
17330TIP3   OH273480   1.787   5.739   4.509  0.3420  0.7738 -0.5599
17330TIP3    H173481   1.730   5.814   4.492 -0.2760 -0.0562 -2.5897
17330TIP3    H273482   1.783   5.726   4.604 -3.1605  0.5852 -0.5994
17331TIP3   OH273483   2.983   0.493  10.576 -0.7896 -0.7729  0.1025
17331TIP3    H173484   3.049   0.561  10.590 -2.5063  1.0140 -0.0327
17331TIP3    H273485   3.018   0.416  10.620  1.4125  0.0573 -0.0495
17332TIP3   OH273486   4.136   7.213   4.101  0.0793 -0.0461  0.3183
17332TIP3    H173487   4.135   7.137   4.043 -1.1546 -0.6663  1.1121
17332TIP3    H273488   4.220   7.207   4.147  1.0039  0.3588 -1.2301
17333TIP3   OH273489   3.393   5.466  13.512 -0.2317  0.3583 -0.1017
17333TIP3    H173490   3.468   5.526  13.510  0.6786 -0.7204  0.5284
17333TIP3    H273491   3.341   5.496  13.587  0.9743 -0.4784  1.1122
17334TIP3   OH273492   1.457   1.465   5.372  0.0980  0.2920  0.1585
17334TIP3    H173493   1.465   1.481   5.466  0.5681  2.4659 -0.2001
17334TIP3    H273494   1.432   1.549   5.335  1.1814 -0.1923 -1.8274
17335TIP3   OH273495   5.139   4.357   1.092 -0.5405 -0.2837 -0.5858
17335TIP3    H173496   5.142   4.442   1.048 -1.9282 -0.6802 -1.5300
17335TIP3    H273497   5.209   4.360   1.156 -1.8945  2.4046  0.9412
17336TIP3   OH273498   4.388   6.250   4.715  0.3177 -0.4208 -0.0915
17336TIP3    H173499   4.476   6.226   4.686  0.5680  0.7638 -0.3555
17336TIP3    H273500   4.399   6.333   4.761 -0.8728  0.5600 -1.4893
17337TIP3   OH273501   0.812   6.301   1.974  0.4108 -0.6221  0.1645
17337TIP3    H173502   0.865   6.232   1.935  0.4842 -0.8586  0.6764
17337TIP3    H273503   0.736   6.256   2.011 -0.9309 -0.1364 -1.8393
17338TIP3   OH273504   0.404   6.298  10.536  0.1148 -0.1176 -0.5298
17338TIP3    H173505   0.384   6.207  10.514  0.2783 -0.2729 -0.0477
17338TIP3    H273506   0.430   6.296  10.628  1.5386  0.1906 -0.8989
17339TIP3   OH273507   6.155   6.279  10.028 -0.2171  0.2365  0.1606
17339TIP3    H173508   6.115   6.320   9.952 -1.2747  1.2498  1.2251
17339TIP3    H273509   6.200   6.202   9.993 -2.8831 -0.8413 -1.1747
17340TIP3   OH273510   1.628   2.942   2.015 -0.0612  0.1542  0.1588
17340TIP3    H173511   1.568   2.996   1.964  1.3849  0.7042 -1.0387
17340TIP3    H273512   1.574   2.871   2.049 -1.5880  1.1948  0.0307
17341TIP3   OH273513   6.668   2.374  14.489  0.5419 -0.1686 -0.0476
17341TIP3    H173514   6.628   2.372  14.576 -0.2354  0.0307 -0.3883
17341TIP3    H273515   6.673   2.467  14.468 -0.0104 -0.2451 -0.5410
17342TIP3   OH273516   1.283   1.383   3.229  0.3906 -0.0476  0.4924
17342TIP3    H173517   1.249   1.363   3.317  0.5438 -0.1532  0.5274
17342TIP3    H273518   1.327   1.303   3.202 -1.8179 -0.9280 -0.7289
17343TIP3   OH273519   4.122   1.660   1.308 -0.0109  0.4777 -0.3058
17343TIP3    H173520   4.107   1.587   1.368  0.7807 -0.1565 -0.8525
17343TIP3    H273521   4.212   1.649   1.278 -0.0369  1.4095 -0.7730
17344TIP3   OH273522   1.555   2.001   0.963 -0.0710  0.2374 -0.0916
17344TIP3    H173523   1.528   1.984   1.053  0.3503  0.1726  0.0252
17344TIP3    H273524   1.650   1.988   0.963  0.3068  2.4617  0.0097
17345TIP3   OH273525   2.276   0.564   5.009  0.2193 -0.6852 -0.1830
17345TIP3    H173526   2.233   0.479   5.000 -0.7498 -0.2296 -0.0502
17345TIP3    H273527   2.215   0.626   4.968  0.7957 -0.0264 -0.0635
17346TIP3   OH273528   6.511   0.257   3.062  0.6918  0.4462  0.1802
17346TIP3    H173529   6.578   0.324   3.077  1.0051 -0.1249  1.4448
17346TIP3    H273530   6.436   0.287   3.115  0.9067 -0.2874  0.9168
17347TIP3   OH273531   0.283   4.177   1.364 -0.5997 -0.4027  0.1132
17347TIP3    H173532   0.349   4.146   1.301  2.4388  0.9016  2.4031
17347TIP3    H273533   0.301   4.126   1.443 -1.5947  0.8219  1.1554
17348TIP3   OH273534   2.514   2.930   0.176 -0.1579 -0.2027  0.3072
17348TIP3    H173535   2.450   2.949   0.244  0.0958 -0.2269  0.5561
17348TIP3    H273536   2.598   2.958   0.213 -0.0858  0.2721 -0.2017
17349TIP3   OH273537   7.058   1.742   3.429 -0.1088  0.0108  0.3552
17349TIP3    H173538   6.984   1.753   3.369 -1.7942  0.5175  2.3946
17349TIP3    H273539   7.064   1.648   3.442 -0.2692 -0.0486  0.0297
17350TIP3   OH273540   4.007   5.577   5.840  0.1850  0.0147 -0.1822
17350TIP3    H173541   3.930   5.630   5.823  1.2219  1.7640  0.2766
17350TIP3    H273542   4.036   5.548   5.754 -1.6460 -1.7336 -0.2709
17351TIP3   OH273543   4.294   3.930   0.314 -0.2250 -0.2086  0.2815
17351TIP3    H173544   4.342   3.879   0.249 -0.8969 -1.4589  0.7341
17351TIP3    H273545   4.340   4.013   0.318 -0.3161  0.0133 -1.9740
17352TIP3   OH273546   5.725   1.249  13.072 -0.1706  0.0908 -0.4977
17352TIP3    H173547   5.807   1.204  13.051 -0.7236  0.0576 -2.9057
17352TIP3    H273548   5.660   1.209  13.014 -1.6292  1.0066  0.4306
17353TIP3   OH273549   0.971   0.890   5.848  0.1402  0.2578 -0.0426
17353TIP3    H173550   1.060   0.926   5.848 -1.1149  3.6968  0.3653
17353TIP3    H273551   0.926   0.935   5.776 -1.6706 -0.2653  0.7033
17354TIP3   OH273552   5.719   5.338   0.916 -0.7870 -0.7701  0.0477
17354TIP3    H173553   5.705   5.259   0.968 -0.0335 -0.7873  0.2335
17354TIP3    H273554   5.797   5.378   0.954 -0.4174 -0.6136 -0.8607
17355TIP3   OH273555   5.750   1.670   1.907 -0.3664 -0.1100  0.2625
17355TIP3    H173556   5.771   1.712   1.991  0.4933  0.8314 -0.4024
17355TIP3    H273557   5.791   1.584   1.913  0.9391  0.4967  0.2548
17356TIP3   OH273558   5.612   2.490   5.515 -0.0910 -0.4421 -0.4252
17356TIP3    H173559   5.623   2.576   5.555  1.7085 -0.6888 -0.3329
17356TIP3    H273560   5.690   2.477   5.462 -0.4012 -1.9582 -0.5679
17357TIP3   OH273561   4.066   6.669   2.620 -0.3028  0.5031 -0.0119
17357TIP3    H173562   4.017   6.746   2.649 -0.5447  0.6610 -0.8152
17357TIP3    H273563   4.072   6.614   2.698 -2.0421  0.3290  0.0436
17358TIP3   OH273564   2.473   2.420   0.269  0.4244 -0.0346  0.0074
17358TIP3    H173565   2.477   2.498   0.325  1.5692  0.2815 -0.4671
17358TIP3    H273566   2.460   2.347   0.330  0.9907  0.3653  0.6287
17359TIP3   OH273567   4.959   2.377  14.632  0.0593 -0.7214 -0.3194
17359TIP3    H173568   5.028   2.424  14.678 -0.1145  0.7945 -1.5137
17359TIP3    H273569   4.963   2.412  14.542 -2.3839 -0.4152 -0.3625
17360TIP3   OH273570   7.116   6.938  12.714 -0.2164  0.1675 -0.0305
17360TIP3    H173571   7.101   6.995  12.789 -2.4517 -0.2929 -0.0808
17360TIP3    H273572   7.092   6.851  12.745  0.5308 -0.3217 -0.7766
17361TIP3   OH273573   6.424   3.143   2.399 -0.2415  0.1341 -0.3601
17361TIP3    H173574   6.427   3.126   2.305 -0.6876 -1.8647 -0.0548
17361TIP3    H273575   6.425   3.238   2.406 -2.7192  0.4353 -2.5134
17362TIP3   OH273576   7.225   6.886  13.620  0.0500  0.2287  0.3896
17362TIP3    H173577   7.267   6.814  13.666  0.8528  0.6114  0.2785
17362TIP3    H273578   7.178   6.934  13.689 -0.8893 -0.6524  0.3898
17363TIP3   OH273579   6.927   2.569   3.615 -0.3545 -0.2302 -0.1961
17363TIP3    H173580   7.000   2.507   3.608 -0.5801 -0.5221  0.0256
17363TIP3    H273581   6.947   2.621   3.693  0.9254  1.4168 -1.5432
17364TIP3   OH273582   6.666   7.252  14.898  0.4897 -0.1621  0.3015
17364TIP3    H173583   6.667   7.158  14.878 -1.7702 -0.3932  1.0092
17364TIP3    H273584   6.758   7.278  14.892  1.5387 -2.8871  2.2096
17365TIP3   OH273585   1.096   0.776   2.826  0.2652 -0.4872  0.2934
17365TIP3    H173586   1.034   0.731   2.882  0.6296 -1.2210  0.1168
17365TIP3    H273587   1.066   0.758   2.736 -0.7961  1.3612  0.2263
17366TIP3   OH273588   1.087   6.431   3.418 -0.1599  0.6656  0.0012
17366TIP3    H173589   0.992   6.428   3.410 -0.1524  0.2176  0.0957
17366TIP3    H273590   1.116   6.342   3.401  0.3435  1.0576 -1.3440
17367TIP3   OH273591   3.801   1.239  14.166  0.4908  0.4018  0.5994
17367TIP3    H173592   3.875   1.298  14.152 -1.1029  2.2742 -0.3257
17367TIP3    H273593   3.735   1.268  14.104 -0.1878 -2.8121 -0.3923
17368TIP3   OH273594   4.306   4.520   2.840  0.4861  0.1143  0.3636
17368TIP3    H173595   4.227   4.497   2.792  0.4736  1.6446 -0.3808
17368TIP3    H273596   4.276   4.537   2.930 -0.0209  0.6060  0.1059
17369TIP3   OH273597   5.361   2.837   2.066 -0.0533 -0.1245  0.4846
17369TIP3    H173598   5.274   2.873   2.083  0.2341  0.6425  0.3513
17369TIP3    H273599   5.417   2.913   2.052  0.6029 -0.6157  0.3634
17370TIP3   OH273600   1.121   1.695   4.583 -0.1693 -0.2159  0.2260
17370TIP3    H173601   1.103   1.629   4.516  1.1760 -0.0195 -0.3514
17370TIP3    H273602   1.104   1.779   4.540  0.6473 -0.0920  0.1324
17371TIP3   OH273603   0.987   5.912   5.408  0.2777  0.0454  0.2375
17371TIP3    H173604   0.895   5.884   5.409  0.5097 -0.8509  2.1899
17371TIP3    H273605   1.004   5.941   5.497  2.5148 -2.1512  0.6450
17372TIP3   OH273606   2.606   4.160  11.496 -0.0074  0.3457  0.1240
17372TIP3    H173607   2.694   4.145  11.531  0.3278  0.6938 -0.5713
17372TIP3    H273608   2.596   4.094  11.427  0.3236  1.3434 -0.8917
17373TIP3   OH273609   6.787   2.742  13.707 -0.2773  0.1766  0.4410
17373TIP3    H173610   6.786   2.790  13.790  0.5907 -0.1143  0.6285
17373TIP3    H273611   6.699   2.755  13.671 -0.0929  1.8346  0.5100
17374TIP3   OH273612   0.173   4.235   3.181 -0.0635 -0.1648  0.0544
17374TIP3    H173613   0.206   4.295   3.249 -0.2431  2.3779 -1.9442
17374TIP3    H273614   0.225   4.257   3.104 -2.1967 -0.4894 -1.5321
17375TIP3   OH273615   0.469   1.971   1.265  0.4242 -0.1507 -0.0756
17375TIP3    H173616   0.373   1.976   1.257  0.3375 -1.7482 -0.4469
17375TIP3    H273617   0.492   2.041   1.325 -1.1775 -0.7848  1.3482
17376TIP3   OH273618   6.726   2.615   4.352  0.1108 -0.4624 -0.1110
17376TIP3    H173619   6.725   2.608   4.447  1.4766 -0.8715 -0.1067
17376TIP3    H273620   6.771   2.536   4.322 -0.7455 -0.5964 -1.1375
17377TIP3   OH273621   5.086   5.748  10.447 -0.1244  0.3449  0.3342
17377TIP3    H173622   5.140   5.820  10.412 -0.5038 -0.9118 -3.2579
17377TIP3    H273623   5.007   5.791  10.478 -0.7967  1.5965 -2.6807
17378TIP3   OH273624   1.898   3.612   4.853 -0.8115  0.6072 -0.4130
17378TIP3    H173625   1.960   3.682   4.834 -0.3663  0.2326 -0.3479
17378TIP3    H273626   1.837   3.613   4.779  0.2798 -0.1395 -1.3441
17379TIP3   OH273627   7.209   2.543   4.636  0.4063  0.5024  0.0602
17379TIP3    H173628   7.226   2.576   4.724  0.6288 -0.9289  0.5798
17379TIP3    H273629   7.276   2.476   4.622 -1.3888 -1.3603 -0.0339
17380TIP3   OH273630   1.689   6.862  11.398 -0.0480  0.4090  0.3573
17380TIP3    H173631   1.663   6.778  11.435  0.1992  1.0752  2.1546
17380TIP3    H273632   1.753   6.897  11.460 -1.5411  2.7655  0.7351
17381TIP3   OH273633   5.138   0.543   2.132  0.7084 -0.2975 -0.5087
17381TIP3    H173634   5.081   0.611   2.168  1.0093  0.0053 -0.5998
17381TIP3    H273635   5.201   0.525   2.202 -0.8118 -2.2139  0.4482
17382TIP3   OH273636   2.910   1.465  14.567 -0.1780 -0.0377 -0.3070
17382TIP3    H173637   2.997   1.492  14.598  0.0060 -0.2102 -0.6688
17382TIP3    H273638   2.870   1.422  14.643  0.0414  0.0671 -0.1288
17383TIP3   OH273639   3.074   7.177   2.473 -0.1967 -0.1446 -0.3279
17383TIP3    H173640   3.072   7.261   2.519 -1.6851 -0.4584  0.2352
17383TIP3    H273641   3.002   7.128   2.511  0.0991 -1.3535 -1.2886
17384TIP3   OH273642   7.107   4.515   2.137  0.0624  1.1332 -0.5964
17384TIP3    H173643   7.029   4.463   2.121 -1.3356  3.0640 -0.3984
17384TIP3    H273644   7.092   4.596   2.089  2.6664  0.9887 -1.8295
17385TIP3   OH273645   2.749   0.953   0.897 -0.5248 -0.2147  0.2752
17385TIP3    H173646   2.782   0.964   0.986 -0.8637  1.0240  0.2650
17385TIP3    H273647   2.713   1.038   0.874  1.8777  0.3017 -2.0311
17386TIP3   OH273648   1.893   6.875   2.956  0.2116 -0.0912 -0.4868
17386TIP3    H173649   1.798   6.880   2.957  0.2288  0.2854 -0.4852
17386TIP3    H273650   1.913   6.801   2.899 -0.0945 -0.6122  0.0741
17387TIP3   OH273651   2.400   0.642  14.895  0.2205  0.0499 -0.0516
17387TIP3    H173652   2.450   0.683  14.966 -0.3188 -0.8632  0.8843
17387TIP3    H273653   2.316   0.619  14.935  0.0674 -0.8680 -0.8719
17388TIP3   OH273654   2.350   7.048   2.836  0.3752 -0.0622  0.1559
17388TIP3    H173655   2.433   7.011   2.806  0.0447  0.0554 -0.9652
17388TIP3    H273656   2.299   6.973   2.867  0.8614 -0.1432  0.7708
17389TIP3   OH273657   6.048   1.681   1.761 -0.2889 -0.4044 -0.3579
17389TIP3    H173658   6.015   1.616   1.823  1.7542 -0.8356  0.3594
17389TIP3    H273659   6.134   1.706   1.795  0.6177 -0.1216 -2.6304
17390TIP3   OH273660   4.704   1.112   3.884 -0.0268  0.2020 -0.0347
17390TIP3    H173661   4.743   1.025   3.892  0.4104  0.5592  2.3325
17390TIP3    H273662   4.641   1.117   3.956 -2.5282  0.6748 -2.0869
17391TIP3   OH273663   0.740   5.625  13.577 -0.2966  0.2251 -0.3520
17391TIP3    H173664   0.808   5.639  13.643 -1.4365 -1.0518  1.1692
17391TIP3    H273665   0.788   5.613  13.495  1.4219 -1.7629  0.8455
17392TIP3   OH273666   1.974   2.189  15.212  0.3121  0.3358  0.8521
17392TIP3    H173667   1.933   2.142  15.139 -0.6596 -0.0402  1.6161
17392TIP3    H273668   2.053   2.228  15.174 -0.0112 -0.1040 -0.3220
17393TIP3   OH273669   1.565   1.499   3.405 -0.0932 -0.2108 -0.0589
17393TIP3    H173670   1.557   1.415   3.360 -0.7823 -0.5553  0.6835
17393TIP3    H273671   1.577   1.563   3.335  1.7798 -1.0485 -0.5891
17394TIP3   OH273672   1.691   3.020   5.060 -0.0163  0.4326 -0.0160
17394TIP3    H173673   1.721   3.110   5.074 -1.0023  1.0953 -1.8334
17394TIP3    H273674   1.600   3.029   5.033  0.1719 -1.0256 -1.2871
17395TIP3   OH273675   1.132   4.733   3.637  0.0056  1.1000  0.4392
17395TIP3    H173676   1.132   4.744   3.542  3.2595 -0.2954  0.1729
17395TIP3    H273677   1.173   4.812   3.670  1.9601  0.1777  0.3473
17396TIP3   OH273678   4.337   1.869   0.881  0.1003  0.0114  0.2532
17396TIP3    H173679   4.258   1.816   0.891  1.0274 -1.4734  0.0364
17396TIP3    H273680   4.309   1.941   0.825 -1.7637  1.0716  2.3976
17397TIP3   OH273681   5.260   2.699  14.481 -0.5194  0.1424 -0.2439
17397TIP3    H173682   5.297   2.705  14.569  0.7429 -0.7277 -0.6895
17397TIP3    H273683   5.165   2.699  14.495 -0.3432  0.3615  1.0816
17398TIP3   OH273684   4.854   2.877   5.045  0.3215 -0.0113 -0.4531
17398TIP3    H173685   4.871   2.788   5.016 -1.6494  0.2304 -2.7253
17398TIP3    H273686   4.794   2.868   5.119  2.6510 -0.5649  1.4796
17399TIP3   OH273687   6.180   5.639  12.462  0.0178 -0.1986 -0.4799
17399TIP3    H173688   6.097   5.592  12.450  0.5639 -1.9203  1.8151
17399TIP3    H273689   6.155   5.730  12.477 -1.5302 -0.8124  0.8864
17400TIP3   OH273690   3.807   2.164   4.054  0.1641  0.2039  0.3297
17400TIP3    H173691   3.764   2.083   4.080  1.5939 -0.8820 -0.5793
17400TIP3    H273692   3.877   2.176   4.118  0.1814  0.5268  0.2520
17401TIP3   OH273693   3.774   1.701   2.805 -0.2042 -0.0560 -0.2403
17401TIP3    H173694   3.838   1.697   2.733  0.2832  0.7500  0.1241
17401TIP3    H273695   3.742   1.612   2.813  1.5741 -0.7072  0.1650
17402TIP3   OH273696   4.221   3.377   1.659 -0.3772  0.4917  0.1231
17402TIP3    H173697   4.303   3.426   1.650 -0.8628  1.6487  1.6414
17402TIP3    H273698   4.212   3.331   1.575  2.2839 -0.4424  0.2431
17403TIP3   OH273699   4.337   4.694   3.316  0.2354  0.4870 -0.4623
17403TIP3    H173700   4.299   4.712   3.402  0.1161 -0.7228 -0.2389
17403TIP3    H273701   4.401   4.625   3.333  1.0805  1.0892 -1.1616
17404TIP3   OH273702   2.169   0.742   4.497  0.6767 -0.2619  0.6956
17404TIP3    H173703   2.159   0.828   4.456  2.0162 -0.3583  0.1165
17404TIP3    H273704   2.263   0.726   4.497  0.3601 -2.4652 -0.7474
17405TIP3   OH273705   1.455   2.133   5.318  0.0527  0.0688  1.0048
17405TIP3    H173706   1.419   2.106   5.403 -0.3564 -1.3157  0.4079
17405TIP3    H273707   1.387   2.190   5.280  0.0659  0.3695  1.4187
17406TIP3   OH273708   1.106   0.957  11.199  0.1122  0.2364  0.0281
17406TIP3    H173709   1.078   1.043  11.166  1.8118  0.3024 -1.3584
17406TIP3    H273710   1.073   0.895  11.134  0.0434 -0.0319  0.3203
17407TIP3   OH273711   3.593   4.187   0.190  0.4419 -0.7991 -0.5375
17407TIP3    H173712   3.541   4.254   0.146  0.8744 -0.2549 -0.2332
17407TIP3    H273713   3.682   4.222   0.190  0.1121  0.3819  2.9391
17408TIP3   OH273714   3.735   1.331   4.775  0.0144 -0.2817 -0.4350
17408TIP3    H173715   3.756   1.246   4.815 -0.3873  0.3132  1.1034
17408TIP3    H273716   3.732   1.392   4.848 -0.6107  0.8967 -1.4081
17409TIP3   OH273717   0.489   3.587   4.747  0.3864 -0.3538  0.1672
17409TIP3    H173718   0.448   3.545   4.823  1.5149 -0.2160  0.8862
17409TIP3    H273719   0.451   3.542   4.672 -1.8750  0.5107  0.7087
17410TIP3   OH273720   3.225   6.776   2.201 -0.1598 -0.4126 -0.1547
17410TIP3    H173721   3.191   6.811   2.283 -0.0027 -1.6140  0.4458
17410TIP3    H273722   3.149   6.737   2.158  0.0715 -1.3051  0.2359
17411TIP3   OH273723   3.895   3.460   3.910  0.6515  0.2735  0.0996
17411TIP3    H173724   3.840   3.426   3.840  1.0032 -0.2497  0.0651
17411TIP3    H273725   3.889   3.555   3.903  1.0497  0.2301 -0.9369
17412TIP3   OH273726   6.314   4.598   0.050 -0.0730  0.2848  0.1310
17412TIP3    H173727   6.308   4.505   0.027  2.4220  0.4554 -1.6728
17412TIP3    H273728   6.396   4.605   0.099  0.2255  1.6305 -0.5307
17413TIP3   OH273729   3.933   3.221  14.459 -0.1288 -0.4169 -0.2222
17413TIP3    H173730   3.935   3.245  14.366 -0.4923 -0.6788 -0.3019
17413TIP3    H273731   4.020   3.243  14.492 -0.5093  1.2329 -0.2338
17414TIP3   OH273732   3.492   1.600   1.084 -0.4458  0.5000  0.5581
17414TIP3    H173733   3.529   1.680   1.123 -0.1539 -0.6129  2.6511
17414TIP3    H273734   3.500   1.615   0.989  0.8419  2.3791  0.8990
17415TIP3   OH273735   3.940   3.861   5.095 -0.8874 -0.1642 -0.6856
17415TIP3    H173736   4.033   3.861   5.118 -1.0825  0.3987  0.1594
17415TIP3    H273737   3.926   3.776   5.054 -0.1323 -0.5149 -0.2505
17416TIP3   OH273738   6.203   6.892   0.448  0.9352  0.1051  0.0814
17416TIP3    H173739   6.191   6.799   0.471  0.2374  0.3293  0.7059
17416TIP3    H273740   6.240   6.891   0.360  1.9936 -0.7851  0.5188
17417TIP3   OH273741   5.323   5.763   1.736  0.8074 -0.4102 -0.2979
17417TIP3    H173742   5.415   5.748   1.715  1.0441 -0.1935  0.5517
17417TIP3    H273743   5.309   5.856   1.719  0.3092 -0.7514 -1.9663
17418TIP3   OH273744   3.192   0.309   1.820  0.1499 -0.2198 -0.3358
17418TIP3    H173745   3.213   0.284   1.910  0.9962  1.9208  0.1080
17418TIP3    H273746   3.159   0.398   1.826  1.4955  0.4834 -2.2686
17419TIP3   OH273747   3.115   4.558  11.206 -0.4012 -0.7456  0.2125
17419TIP3    H173748   3.090   4.575  11.116 -2.0283 -2.6258  0.2550
17419TIP3    H273749   3.038   4.582  11.258  0.7157  0.8947  1.2232
17420TIP3   OH273750   4.609   0.863   1.846 -0.7305 -0.0121  0.6320
17420TIP3    H173751   4.688   0.849   1.795 -0.6378  2.2666  0.0384
17420TIP3    H273752   4.574   0.775   1.861  0.4835 -0.9011 -1.3638
17421TIP3   OH273753   5.523   4.877   0.255  0.4015 -0.1242 -0.2283
17421TIP3    H173754   5.461   4.861   0.326  2.4100  0.0940  1.6810
17421TIP3    H273755   5.470   4.914   0.184 -1.8382 -1.2779  0.7711
17422TIP3   OH273756   2.198   0.068   0.860  0.1345  0.0651 -0.2930
17422TIP3    H173757   2.149   0.040   0.937 -0.2463 -0.3691 -0.6889
17422TIP3    H273758   2.230  -0.013   0.821 -0.3966  0.2146 -1.0688
17423TIP3   OH273759   2.591   0.794   0.464  0.1197  0.6569  0.4003
17423TIP3    H173760   2.613   0.802   0.371 -0.3255 -1.3581  0.0851
17423TIP3    H273761   2.517   0.854   0.476 -0.0794  0.6402 -0.6338
17424TIP3   OH273762   0.681   3.840  13.648  0.6768 -0.4257  0.8600
17424TIP3    H173763   0.634   3.907  13.598  1.8605 -0.7185 -0.7624
17424TIP3    H273764   0.613   3.792  13.695 -1.3698 -3.2727 -4.1670
17425TIP3   OH273765   2.919   6.003   1.111  0.2510 -0.0336 -0.1337
17425TIP3    H173766   2.972   6.073   1.073  0.4369 -1.4440 -2.7151
17425TIP3    H273767   2.917   5.935   1.043 -1.6485 -1.6600  1.4259
17426TIP3   OH273768   6.177   5.992   2.549 -0.4871  0.1714  0.1082
17426TIP3    H173769   6.111   6.014   2.482  0.6204 -0.1737 -1.1462
17426TIP3    H273770   6.259   5.987   2.500  0.2059 -1.0617  1.3329
17427TIP3   OH273771   1.663   1.310   3.614 -0.0022 -0.8915  0.2332
17427TIP3    H173772   1.636   1.363   3.689  1.9579 -0.0113  0.3793
17427TIP3    H273773   1.637   1.361   3.538 -0.0592 -0.7458  0.3502
17428TIP3   OH273774   1.225   1.464   2.736 -0.1646 -0.2516  0.2636
17428TIP3    H173775   1.148   1.520   2.733 -1.0086 -1.3902 -0.1598
17428TIP3    H273776   1.191   1.378   2.762  0.8313 -0.9644 -0.6909
17429TIP3   OH273777   2.052   6.485  15.274 -0.0561  0.5196  0.0228
17429TIP3    H173778   2.060   6.412  15.213 -1.8279  0.1655  0.1595
17429TIP3    H273779   1.978   6.461  15.330  0.1595  1.8311  0.9120
17430TIP3   OH273780   4.854   0.887   3.976  0.3833  0.0240  0.2178
17430TIP3    H173781   4.844   0.879   4.071  1.8081 -1.1873  0.3001
17430TIP3    H273782   4.938   0.844   3.957  0.5519  1.0358 -1.4860
17431TIP3   OH273783   6.638   4.426   3.089  0.8004 -0.2681  0.6449
17431TIP3    H173784   6.591   4.351   3.125 -0.4163  0.2025  0.0923
17431TIP3    H273785   6.730   4.409   3.108  0.5237 -1.8208  0.6760
17432TIP3   OH273786   2.177   4.501   1.618  0.2806  0.6624  0.0630
17432TIP3    H173787   2.268   4.515   1.591 -0.5001  0.1959 -3.3231
17432TIP3    H273788   2.162   4.407   1.602 -0.7604  0.7233  0.6301
17433TIP3   OH273789   7.235   3.779   1.702 -0.3143 -0.4453  0.3267
17433TIP3    H173790   7.241   3.719   1.627 -0.8176 -0.7775  0.5469
17433TIP3    H273791   7.213   3.723   1.776  0.9650 -0.2298  0.8955
17434TIP3   OH273792   2.259   3.845  15.157  0.2706 -0.4132  0.1543
17434TIP3    H173793   2.299   3.864  15.241  0.5456 -1.3469  0.2456
17434TIP3    H273794   2.191   3.912  15.147 -0.8391 -1.2298  1.8622
17435TIP3   OH273795   3.024   0.973   1.620 -0.4607 -0.0222  0.0533
17435TIP3    H173796   3.017   0.925   1.537 -0.4620 -1.0662  0.6404
17435TIP3    H273797   2.972   0.922   1.682 -0.3534  0.6754  0.7338
17436TIP3   OH273798   1.630   1.527   4.653 -0.1386 -0.1101  0.6847
17436TIP3    H173799   1.545   1.535   4.696 -0.2197 -2.3156  1.0534
17436TIP3    H273800   1.693   1.563   4.715 -0.5923 -0.4013  1.3177
17437TIP3   OH273801   2.717   4.726   1.485 -0.0461 -0.9648  0.1510
17437TIP3    H173802   2.805   4.692   1.467  0.4202  0.0706  0.4392
17437TIP3    H273803   2.659   4.665   1.440  0.6448 -3.1168  1.9510
17438TIP3   OH273804   0.567   2.018  14.961  0.1142  0.3347  0.1525
17438TIP3    H173805   0.630   2.077  15.003  0.6564  1.8379 -2.5665
17438TIP3    H273806   0.619   1.971  14.896 -0.9564 -0.9221  0.1775
17439TIP3   OH273807   3.402   2.084   1.048  0.4666 -0.1284 -0.9305
17439TIP3    H173808   3.407   2.180   1.050  1.0002 -0.0812  2.6306
17439TIP3    H273809   3.309   2.066   1.061  0.6194  0.0113  0.5882
17440TIP3   OH273810   4.692   2.793   0.666 -0.1108 -1.0407  0.4660
17440TIP3    H173811   4.732   2.827   0.746 -0.0625  0.8296 -0.2924
17440TIP3    H273812   4.752   2.820   0.596 -1.3344 -0.5291 -0.4263
17441TIP3   OH273813   5.239   3.669  14.292 -0.8828  0.0025 -0.3141
17441TIP3    H173814   5.178   3.737  14.321  0.1422  0.8932 -0.2055
17441TIP3    H273815   5.240   3.676  14.197 -2.0591 -1.0162 -0.4343
17442TIP3   OH273816   4.333   1.844   5.272 -0.3207  0.5809  0.1088
17442TIP3    H173817   4.311   1.937   5.262  0.7349  0.9369  0.9757
17442TIP3    H273818   4.329   1.809   5.183 -2.8211  0.9477  0.0142
17443TIP3   OH273819   4.442   1.778   1.491 -0.3566  0.3551 -0.0840
17443TIP3    H173820   4.431   1.757   1.398  2.6339 -2.9742  0.1038
17443TIP3    H273821   4.385   1.715   1.536 -0.2683  0.6049  0.3861
17444TIP3   OH273822   3.331   3.845   1.469  0.1826  0.6904  0.2750
17444TIP3    H173823   3.367   3.832   1.557  0.3936  1.4485  0.3086
17444TIP3    H273824   3.306   3.937   1.467 -1.5556  0.2526  0.1765
17445TIP3   OH273825   0.426   5.624   4.717  0.2285 -0.0121 -0.2753
17445TIP3    H173826   0.466   5.683   4.781 -0.3171 -0.7496  0.7828
17445TIP3    H273827   0.500   5.587   4.669  0.5857  1.3516 -0.8124
17446TIP3   OH273828   3.665   2.741   4.910 -0.9945 -0.3811 -0.2727
17446TIP3    H173829   3.644   2.664   4.857 -0.7948  0.3167 -1.3963
17446TIP3    H273830   3.655   2.815   4.851 -0.4669  0.4053  0.5852
17447TIP3   OH273831   1.244   1.464   0.997  0.0240 -0.2886  0.3532
17447TIP3    H173832   1.186   1.535   0.968  2.8569  2.5136  0.9952
17447TIP3    H273833   1.234   1.397   0.930 -2.3267  0.9615 -0.6837
17448TIP3   OH273834   5.899   0.495   3.654  0.0187 -0.0169  0.0945
17448TIP3    H173835   5.809   0.493   3.686  0.4770 -2.0025  1.4970
17448TIP3    H273836   5.891   0.491   3.559 -1.3762  0.5984  0.1629
17449TIP3   OH273837   4.210   1.098  12.286 -0.1362 -0.5049  0.0765
17449TIP3    H173838   4.219   1.057  12.200  0.8030  0.9213 -0.5614
17449TIP3    H273839   4.290   1.074  12.333  0.2290  0.2070 -0.1547
17450TIP3   OH273840   2.160   4.199   4.308  0.3481  0.1908 -0.2300
17450TIP3    H173841   2.178   4.277   4.255 -0.6994  0.6246  0.0321
17450TIP3    H273842   2.125   4.135   4.246  2.2324 -0.4922 -0.6551
17451TIP3   OH273843   7.158   1.977   5.536 -0.0398  0.5722  0.2462
17451TIP3    H173844   7.126   1.892   5.567 -0.1108  1.2034  1.9900
17451TIP3    H273845   7.247   1.958   5.504 -0.4156 -0.3241 -0.3023
17452TIP3   OH273846   5.279   6.816   4.016 -0.0319 -0.5546 -0.0118
17452TIP3    H173847   5.218   6.779   3.952  1.6195 -0.4296 -1.7638
17452TIP3    H273848   5.340   6.745   4.035  0.5368 -0.0703  0.0211
17453TIP3   OH273849   6.708   5.165   1.883  0.0763 -0.2639  0.3099
17453TIP3    H173850   6.682   5.086   1.929 -0.7072 -0.2476 -0.0932
17453TIP3    H273851   6.680   5.236   1.941  1.1125 -0.2692  0.8477
17454TIP3   OH273852   0.797   4.631   2.180  0.2897  0.0556  0.0793
17454TIP3    H173853   0.865   4.659   2.118  0.7433  1.0057  0.9766
17454TIP3    H273854   0.821   4.674   2.262 -0.0484 -1.5424  1.0472
17455TIP3   OH273855   3.948   1.357   0.671  0.3302  0.9414 -0.5948
17455TIP3    H173856   3.872   1.323   0.718  0.7309 -1.4149 -1.5213
17455TIP3    H273857   4.000   1.402   0.738 -0.2326 -0.3369  0.7447
17456TIP3   OH273858   6.596   6.745  14.702 -0.0306  0.1666 -0.4762
17456TIP3    H173859   6.592   6.807  14.629  0.8045 -0.1363 -0.7907
17456TIP3    H273860   6.576   6.661  14.663 -1.1581  0.2251 -0.0517
17457TIP3   OH273861   4.363   3.502  14.522  0.2869 -0.2786  0.0400
17457TIP3    H173862   4.418   3.540  14.453 -2.5843  2.0437 -1.1716
17457TIP3    H273863   4.363   3.568  14.591 -0.7587 -0.3626  0.1285
17458TIP3   OH273864   0.698   6.590   3.075 -0.0636 -0.3041  0.6128
17458TIP3    H173865   0.618   6.539   3.064 -1.5809  2.0845 -0.0907
17458TIP3    H273866   0.696   6.618   3.166  0.2407 -0.6213  0.7210
17459TIP3   OH273867   4.100   6.563   3.176 -0.8019 -0.0676 -0.1177
17459TIP3    H173868   4.133   6.616   3.104 -3.8400 -0.5269 -2.0075
17459TIP3    H273869   4.090   6.475   3.139 -0.9616 -0.7046  1.3663
17460TIP3   OH273870   1.901   5.030  13.589  0.3555 -0.1303 -0.0755
17460TIP3    H173871   1.993   5.046  13.613  0.3656 -1.2232  0.7000
17460TIP3    H273872   1.852   5.092  13.643  0.7021  2.2126 -2.2568
17461TIP3   OH273873   7.252   3.613   4.775 -0.0468  0.1003 -0.0309
17461TIP3    H173874   7.311   3.539   4.758  0.3165  0.3976 -0.0676
17461TIP3    H273875   7.196   3.617   4.698 -0.5166 -0.5659  0.2712
17462TIP3   OH273876   3.564   1.565   4.438 -0.0578  0.1184  0.0371
17462TIP3    H173877   3.614   1.493   4.478  1.0497  0.7867 -0.0738
17462TIP3    H273878   3.514   1.602   4.511  2.0877  1.4433  0.9596
17463TIP3   OH273879   5.195   4.742   0.193  0.3545 -0.2088  0.1100
17463TIP3    H173880   5.239   4.761   0.110  1.1849 -0.7838  0.4060
17463TIP3    H273881   5.121   4.802   0.195  1.2093  0.9081 -0.3450
17464TIP3   OH273882   2.155   4.126  11.530  0.0813 -0.4161 -0.3689
17464TIP3    H173883   2.072   4.087  11.556 -0.5689  1.0542 -0.1604
17464TIP3    H273884   2.168   4.096  11.440 -1.9936  1.3546 -1.3358
17465TIP3   OH273885   4.959   2.686   3.964 -0.9809 -0.4352 -0.1156
17465TIP3    H173886   5.018   2.711   4.036 -1.1416 -0.1945 -0.0647
17465TIP3    H273887   4.991   2.601   3.935 -1.2706 -0.8060  0.6318
17466TIP3   OH273888   5.139   1.234   3.466 -0.0099  0.1040  0.2408
17466TIP3    H173889   5.098   1.211   3.382 -0.5336 -2.0787  1.0383
17466TIP3    H273890   5.065   1.248   3.525  0.3519 -0.4558  0.8381
17467TIP3   OH273891   2.047   0.746   2.112 -0.0681 -0.6292  0.0165
17467TIP3    H173892   1.975   0.712   2.165  1.4023 -0.3181  2.3752
17467TIP3    H273893   2.027   0.839   2.101 -0.1910 -0.6081  0.3972
17468TIP3   OH273894   1.173   5.528  13.353 -0.5076  0.0845  0.4328
17468TIP3    H173895   1.217   5.516  13.269 -1.5490  1.1889 -0.2940
17468TIP3    H273896   1.240   5.563  13.411  0.2949 -0.9586  0.1623
17469TIP3   OH273897   2.355   2.568  15.104  0.4598  0.4271 -0.2051
17469TIP3    H173898   2.347   2.663  15.094  1.2559  0.5723  0.3773
17469TIP3    H273899   2.433   2.545  15.054 -1.1603 -0.3429 -2.5233
17470TIP3   OH273900   4.626   5.200   1.140  0.0357 -0.2346  0.7614
17470TIP3    H173901   4.552   5.143   1.157  0.5719 -1.1482  0.0934
17470TIP3    H273902   4.600   5.251   1.063  0.6708 -1.6174 -0.3989
17471TIP3   OH273903   1.425   1.788   2.399  0.2295 -0.5144 -0.3428
17471TIP3    H173904   1.382   1.793   2.485  4.3003 -0.0835  1.8883
17471TIP3    H273905   1.456   1.877   2.383  0.1558 -0.7573 -1.9967
17472TIP3   OH273906   6.897   1.109   5.082  0.6715  0.5360 -0.1408
17472TIP3    H173907   6.825   1.140   5.028 -0.2900  1.7303  1.7283
17472TIP3    H273908   6.909   1.177   5.148  0.7928 -1.4707  2.0512
17473TIP3   OH273909   0.191   4.473   2.564  0.2294 -0.3848 -0.4069
17473TIP3    H173910   0.261   4.524   2.607  2.8786 -1.5713 -2.9580
17473TIP3    H273911   0.138   4.440   2.637  2.9248 -0.2179  1.8136
17474TIP3   OH273912   0.945   4.961  13.800 -0.8701 -0.1805  0.0254
17474TIP3    H173913   0.924   4.875  13.765  0.3790 -0.8165  0.7801
17474TIP3    H273914   1.033   4.979  13.768 -0.9363  0.6232  0.2695
17475TIP3   OH273915   1.990   0.351   5.588 -0.0835  0.1131  0.2225
17475TIP3    H173916   2.047   0.298   5.533 -0.9919 -1.3432  0.6040
17475TIP3    H273917   1.969   0.428   5.536  2.8047  1.1139  0.3587
17476TIP3   OH273918   3.081   2.395   4.460  0.2830  0.6917 -0.8993
17476TIP3    H173919   3.063   2.385   4.367  0.0326 -1.4309 -0.6847
17476TIP3    H273920   3.042   2.317   4.500 -0.3790  1.9769  1.1049
17477TIP3   OH273921   2.227   0.577   4.090  0.0483  0.5714  0.0866
17477TIP3    H173922   2.273   0.661   4.088 -0.4247  0.8393  0.1559
17477TIP3    H273923   2.250   0.539   4.175  2.3519 -0.5871 -0.9768
17478TIP3   OH273924   0.483   1.255  11.018  0.4630  0.0318 -0.7804
17478TIP3    H173925   0.471   1.207  11.099  3.2945 -0.7943 -0.7584
17478TIP3    H273926   0.541   1.328  11.041  1.3194 -0.2182 -2.0189
17479TIP3   OH273927   2.367   5.889   1.972 -0.5510 -0.4502  0.4856
17479TIP3    H173928   2.446   5.914   1.924  0.3681  0.7655  2.5324
17479TIP3    H273929   2.351   5.798   1.945  0.0412  0.0662 -1.8615
17480TIP3   OH273930   1.895   3.402  12.491 -0.6019 -0.1725 -0.2676
17480TIP3    H173931   1.821   3.383  12.434  0.2361 -0.3285 -1.3170
17480TIP3    H273932   1.867   3.480  12.541 -1.4808 -0.2603 -0.6071
17481TIP3   OH273933   5.672   5.900   4.087  0.4203  0.0416 -0.1695
17481TIP3    H173934   5.754   5.931   4.050 -0.3100  1.9142 -0.3409
17481TIP3    H273935   5.622   5.867   4.013  0.1112  1.0842 -0.4399
17482TIP3   OH273936   4.835   1.752   4.927 -0.4732  0.4355  0.2227
17482TIP3    H173937   4.882   1.823   4.883  0.4868  0.6048  1.4934
17482TIP3    H273938   4.828   1.684   4.860  0.5050  0.8819 -0.3605
17483TIP3   OH273939   0.605   1.795   4.239 -0.3709  0.0600  0.6904
17483TIP3    H173940   0.510   1.784   4.245 -0.3643 -1.8087 -1.3727
17483TIP3    H273941   0.621   1.886   4.266 -2.3093 -0.4813  4.3413
17484TIP3   OH273942   3.131   4.523   3.212  0.5357 -0.0827  0.2428
17484TIP3    H173943   3.220   4.560   3.215  0.1405  0.8994  0.0481
17484TIP3    H273944   3.093   4.559   3.132 -0.8580  1.4032  1.5078
17485TIP3   OH273945   2.494   2.442  14.705  0.5088  0.3053  0.3514
17485TIP3    H173946   2.553   2.431  14.779 -0.7490  1.9334  1.6920
17485TIP3    H273947   2.445   2.359  14.700  1.6941 -0.4087  0.2942
17486TIP3   OH273948   3.823   0.724   2.745  0.3144 -0.1207 -0.4481
17486TIP3    H173949   3.732   0.698   2.752  0.5932 -1.0823 -0.1987
17486TIP3    H273950   3.864   0.653   2.695  0.7524  0.7322 -1.3288
17487TIP3   OH273951   4.749   2.148  15.210  0.4179 -0.0536  0.4108
17487TIP3    H173952   4.841   2.151  15.235  0.8141 -1.5014 -0.8123
17487TIP3    H273953   4.712   2.078  15.263 -0.1142  0.8060  1.2174
17488TIP3   OH273954   4.280   2.132   3.587 -0.5353 -0.1533 -0.0356
17488TIP3    H173955   4.260   2.225   3.577 -1.6196 -0.5397 -1.9484
17488TIP3    H273956   4.200   2.087   3.559  0.1942 -1.6629  0.2071
17489TIP3   OH273957   1.515   3.702   4.982 -0.2447 -0.3346 -0.1101
17489TIP3    H173958   1.446   3.637   4.969 -1.2175  0.0994  2.3031
17489TIP3    H273959   1.579   3.658   5.038 -0.6100  0.5558  1.0318
17490TIP3   OH273960   3.942   5.603   4.950  0.2466 -0.3938  0.9875
17490TIP3    H173961   3.848   5.618   4.952  0.2517  0.5041 -1.3572
17490TIP3    H273962   3.980   5.691   4.942  1.0509 -0.8529 -0.9403
17491TIP3   OH273963   7.240   7.128   3.577 -0.1586 -0.2952  0.3126
17491TIP3    H173964   7.227   7.222   3.570 -1.6071 -0.4933  0.0110
17491TIP3    H273965   7.312   7.118   3.639 -1.7543  0.9760  2.5252
17492TIP3   OH273966   3.859   2.931   3.811 -0.0646  0.3075 -0.2940
17492TIP3    H173967   3.831   3.022   3.809  0.3649  0.4523 -2.5253
17492TIP3    H273968   3.898   2.916   3.725 -0.9218 -2.2309 -0.3233
17493TIP3   OH273969   0.349   6.190   0.069 -0.4664 -0.0428  0.1908
17493TIP3    H173970   0.439   6.157   0.077 -0.3001  0.3778  0.0845
17493TIP3    H273971   0.297   6.113   0.045  0.1535  0.0606 -1.5885
17494TIP3   OH273972   6.984   3.121  15.354  0.4978  0.1264  0.3196
17494TIP3    H173973   7.010   3.041  15.400  1.0017 -0.4614 -0.9383
17494TIP3    H273974   6.962   3.092  15.265  0.1974  1.3169 -0.0212
17495TIP3   OH273975   6.462   5.250   3.070 -0.2501  0.0899 -0.7822
17495TIP3    H173976   6.534   5.235   3.009  0.0956 -0.6674 -0.1877
17495TIP3    H273977   6.470   5.342   3.094 -2.1150  1.3135 -4.0936
17496TIP3   OH273978   6.108   0.551   4.671 -0.0297 -0.3564  0.1803
17496TIP3    H173979   6.168   0.619   4.703 -1.1796 -0.1360  2.0003
17496TIP3    H273980   6.045   0.598   4.618 -1.6162  0.3183  2.5139
17497TIP3   OH273981   4.677   2.888  13.235 -0.0538  0.4365  0.5836
17497TIP3    H173982   4.660   2.981  13.215 -0.6691  0.4092  0.9645
17497TIP3    H273983   4.767   2.887  13.267  0.0071  0.8821  0.4420
17498TIP3   OH273984   4.837   1.820   5.388  0.5116  0.2056 -0.1057
17498TIP3    H173985   4.742   1.836   5.387  0.3972 -0.3340  0.9193
17498TIP3    H273986   4.853   1.774   5.470  1.4120 -1.3104 -1.0754
17499TIP3   OH273987   1.658   6.319   1.203 -0.4112 -0.0526  0.0625
17499TIP3    H173988   1.682   6.408   1.227 -1.1517  0.4965 -1.0997
17499TIP3    H273989   1.568   6.326   1.170  0.1803 -0.8545 -1.8917
17500TIP3   OH273990   4.410   4.595   5.667  0.2532  0.1188  0.6358
17500TIP3    H173991   4.495   4.636   5.684  0.2532 -0.5617  2.5503
17500TIP3    H273992   4.421   4.505   5.700 -0.7830 -0.3950 -0.3727
17501TIP3   OH273993   6.380   3.130   5.545  0.3038  0.2300  0.3101
17501TIP3    H173994   6.391   3.053   5.601 -0.2803  1.4466  2.1916
17501TIP3    H273995   6.419   3.201   5.595 -1.8729  1.7126  0.0145
17502TIP3   OH273996   1.035   0.584   3.954 -0.6370 -0.1580  0.1898
17502TIP3    H173997   1.007   0.513   3.897 -0.2895 -0.7509  0.7445
17502TIP3    H273998   1.114   0.552   3.996  0.4796  1.2074 -0.7852
17503TIP3   OH273999   2.739   6.000   2.713  0.1477  0.5964 -0.2680
17503TIP3    H174000   2.796   5.955   2.650  0.1762  1.1400 -0.6341
17503TIP3    H274001   2.792   6.011   2.791  0.4955  0.9560 -0.5517
17504TIP3   OH274002   3.015   2.513  11.998  0.1507  0.7482 -0.5940
17504TIP3    H174003   3.081   2.553  11.942  0.4155 -0.1961 -0.9834
17504TIP3    H274004   3.009   2.423  11.967  1.7359 -0.4219  2.1194
17505TIP3   OH274005   4.182   3.414   3.638  0.2234 -0.0947 -0.0055
17505TIP3    H174006   4.262   3.390   3.591 -0.7203 -2.0543 -0.7492
17505TIP3    H274007   4.212   3.455   3.719  1.9734 -0.5575 -0.3885
17506TIP3   OH274008   2.951   3.170  13.693 -0.0248  0.1391 -0.3044
17506TIP3    H174009   2.970   3.123  13.774 -0.5696 -1.0591 -0.8553
17506TIP3    H274010   3.033   3.167  13.644  0.0971  0.2428 -0.1096
17507TIP3   OH274011   3.236   6.998   4.966 -0.1240  0.2271  0.2781
17507TIP3    H174012   3.243   6.993   5.062 -2.2457  0.4198  0.5022
17507TIP3    H274013   3.262   7.088   4.945 -0.0890  0.3255  0.7232
17508TIP3   OH274014   6.056   7.030   4.744 -0.0783 -0.5431 -0.0932
17508TIP3    H174015   6.020   6.984   4.820  0.3049  1.5693  1.4645
17508TIP3    H274016   5.980   7.051   4.690 -0.5829 -0.5839  0.5884
17509TIP3   OH274017   2.388   3.819   5.914  0.3752 -0.2608 -0.0236
17509TIP3    H174018   2.415   3.770   5.991 -0.3849 -0.5763  0.0527
17509TIP3    H274019   2.429   3.905   5.924 -1.9633  0.7325  2.2135
17510TIP3   OH274020   5.300   5.981  14.167 -0.2573 -0.1247 -0.1360
17510TIP3    H174021   5.317   6.076  14.165  1.5663 -0.3803 -2.9197
17510TIP3    H274022   5.372   5.945  14.219  0.5139 -0.1497 -1.1927
17511TIP3   OH274023   1.952   5.476  11.853 -0.1155 -0.0206  0.0489
17511TIP3    H174024   1.883   5.410  11.854 -0.2843  0.1555  0.1485
17511TIP3    H274025   2.006   5.455  11.928 -0.5975  0.4029  0.5191
17512TIP3   OH274026   2.696   4.000   4.995 -0.3465  0.3741  0.2599
17512TIP3    H174027   2.632   4.059   4.955 -1.2115 -1.1011 -0.5820
17512TIP3    H274028   2.723   3.942   4.924  1.0361  0.1903  0.9073
17513TIP3   OH274029   4.882   7.115   1.579 -0.7443 -0.2190  0.5671
17513TIP3    H174030   4.888   7.211   1.582 -0.3412 -0.2400  0.5152
17513TIP3    H274031   4.806   7.098   1.523 -0.9638  0.0703  0.7699
17514TIP3   OH274032   3.969   4.406   2.850 -0.2415 -0.3746 -0.1891
17514TIP3    H174033   3.966   4.442   2.939  0.6818 -0.3213 -0.1685
17514TIP3    H274034   3.877   4.389   2.828 -0.6759  1.4732  0.0062
17515TIP3   OH274035   4.121   4.400   1.511 -0.8044  0.5732  0.1445
17515TIP3    H174036   4.126   4.313   1.552 -2.6186  0.5862  0.4842
17515TIP3    H274037   4.053   4.446   1.560  0.3023  2.3037  0.1312
17516TIP3   OH274038   1.462   6.418  10.966 -0.1459 -0.3291 -0.1628
17516TIP3    H174039   1.373   6.413  11.001 -0.1569 -1.9708 -0.3364
17516TIP3    H274040   1.497   6.330  10.978  1.4992  0.3107 -0.0120
17517TIP3   OH274041   0.233   4.430   4.636  0.2660 -0.2392  0.4544
17517TIP3    H174042   0.181   4.447   4.715 -1.8635 -1.4491 -0.6030
17517TIP3    H274043   0.249   4.335   4.638  1.8411 -0.0121  0.3452
17518TIP3   OH274044   6.428   2.775   5.601  0.5277  0.5949  0.0557
17518TIP3    H174045   6.342   2.770   5.643  0.4851  3.4732  0.5349
17518TIP3    H274046   6.482   2.711   5.648 -1.1073 -0.6822  0.2806
17519TIP3   OH274047   6.816   5.201   1.266 -0.2262 -0.5389  0.7964
17519TIP3    H174048   6.827   5.113   1.302 -0.6971 -0.9338  0.0028
17519TIP3    H274049   6.723   5.206   1.244  0.0917 -0.4244 -0.5982
17520TIP3   OH274050   2.802   5.941  11.514  0.2478 -0.2764 -0.7774
17520TIP3    H174051   2.803   5.913  11.605  1.7959 -0.9022 -0.9445
17520TIP3    H274052   2.850   5.872  11.468  0.5231  0.6123 -1.8694
17521TIP3   OH274053   0.971   0.131  14.291  0.4399  0.0937  0.1288
17521TIP3    H174054   0.949   0.139  14.384 -0.3976 -0.8322  0.0247
17521TIP3    H274055   0.955   0.039  14.270  3.5492 -0.4658 -0.2152
17522TIP3   OH274056   0.186   3.656  14.611 -0.4325 -0.8330 -0.0524
17522TIP3    H174057   0.257   3.594  14.625  0.9043  0.3094 -1.3986
17522TIP3    H274058   0.135   3.617  14.540  0.5688 -0.3068 -1.0927
17523TIP3   OH274059   5.094   5.737   1.235 -0.2188  0.3961  0.0134
17523TIP3    H174060   5.129   5.668   1.179  0.6156  0.9566 -0.1609
17523TIP3    H274061   5.007   5.705   1.260  0.5893 -1.2960  0.9056
17524TIP3   OH274062   6.988   2.104   1.505 -0.0492  0.0086 -0.3917
17524TIP3    H174063   7.046   2.150   1.565 -2.0286  1.0333  0.8228
17524TIP3    H274064   6.960   2.171   1.443  0.6545 -0.6622 -1.4616
17525TIP3   OH274065   2.126   0.348   5.055  0.2865 -0.4337  0.0857
17525TIP3    H174066   2.062   0.282   5.030  0.5957 -0.4713 -0.6604
17525TIP3    H274067   2.165   0.315   5.136  0.0463 -0.8853  0.0210
17526TIP3   OH274068   3.450   4.092  14.388 -0.3550  0.1350  0.0135
17526TIP3    H174069   3.525   4.040  14.361 -1.3519 -1.2942 -0.1196
17526TIP3    H274070   3.408   4.041  14.457 -0.6653  1.3780  0.7919
17527TIP3   OH274071   3.937   7.231   0.482 -0.2660 -0.5763  0.0252
17527TIP3    H174072   3.846   7.259   0.499 -0.3407  0.2142 -1.5131
17527TIP3    H274073   3.935   7.136   0.491 -1.6264 -0.7315 -1.5095
17528TIP3   OH274074   2.964   4.703   4.071 -0.4361  0.3977  0.1154
17528TIP3    H174075   2.939   4.781   4.022  1.0537 -0.5762 -2.3992
17528TIP3    H274076   2.882   4.655   4.085 -1.0882  1.4313 -0.0707
17529TIP3   OH274077   0.356   6.895   1.816 -0.2936 -0.8485  0.2538
17529TIP3    H174078   0.443   6.855   1.820 -0.0908 -0.4353  0.0349
17529TIP3    H274079   0.295   6.821   1.812 -0.1711 -1.2724  3.4996
17530TIP3   OH274080   2.536   3.330   3.219 -0.6549 -0.3938  0.7135
17530TIP3    H174081   2.489   3.249   3.200  0.5766 -0.6847 -1.3881
17530TIP3    H274082   2.495   3.395   3.161  0.7184 -0.4028 -0.3238
17531TIP3   OH274083   7.062   5.866   2.570  0.2212  0.2850 -0.3402
17531TIP3    H174084   6.997   5.936   2.563  0.0267  0.1657  0.2826
17531TIP3    H274085   7.017   5.795   2.616  0.9250  0.3814  0.5228
17532TIP3   OH274086   2.097   1.040   3.144  0.4288 -0.4029  1.1560
17532TIP3    H174087   2.048   1.120   3.167  1.3912  0.1319  1.3763
17532TIP3    H274088   2.143   1.063   3.064 -0.5111 -1.2674  0.3374
17533TIP3   OH274089   2.454   6.758   0.030  0.1200 -0.2744 -0.5925
17533TIP3    H174090   2.430   6.826  -0.033  1.7331 -1.2772 -2.4319
17533TIP3    H274091   2.371   6.720   0.057 -0.6501 -0.5440 -3.0377
17534TIP3   OH274092   5.690   1.605   2.537  1.2795  0.1800 -0.3814
17534TIP3    H174093   5.710   1.589   2.629 -2.0018  0.5781  0.5437
17534TIP3    H274094   5.701   1.520   2.495  2.3053 -0.1370  0.4661
17535TIP3   OH274095   2.492   6.907  13.560  0.5178 -0.0039 -0.0274
17535TIP3    H174096   2.442   6.860  13.627 -1.4436  1.4155 -0.3920
17535TIP3    H274097   2.556   6.844  13.528  0.6612 -1.1207  2.2678
17536TIP3   OH274098   1.935   6.706   3.872 -0.5285 -0.5839 -0.5104
17536TIP3    H174099   1.939   6.791   3.916 -0.1202 -1.4626  1.2186
17536TIP3    H274100   1.844   6.698   3.844 -0.7913  0.0156  0.1367
17537TIP3   OH274101   1.971   6.638   2.340 -0.0703 -0.4052  0.2561
17537TIP3    H174102   1.946   6.643   2.248  0.1347 -0.5636  0.1929
17537TIP3    H274103   2.062   6.666   2.342  0.0946 -0.9351  0.3394
17538TIP3   OH274104   2.508   3.209   6.182 -0.1284 -0.0070  0.2946
17538TIP3    H174105   2.561   3.167   6.250  0.5844  1.4389  0.6603
17538TIP3    H274106   2.440   3.144   6.162  1.5812 -1.8164 -0.0037
17539TIP3   OH274107   2.137   5.536  14.722 -0.5423 -0.6397 -0.3571
17539TIP3    H174108   2.166   5.623  14.747  0.0859 -0.6095 -1.1380
17539TIP3    H274109   2.058   5.551  14.669 -1.0853 -0.6251  0.4359
17540TIP3   OH274110   1.569   4.324   5.790  0.6589  0.5087 -0.4964
17540TIP3    H174111   1.562   4.229   5.776  0.7849  0.3289  0.5863
17540TIP3    H274112   1.515   4.362   5.721 -1.9781 -0.4651  0.8708
17541TIP3   OH274113   2.445   4.234  14.597 -0.3622  0.0399 -0.5196
17541TIP3    H174114   2.498   4.249  14.675 -0.1084  0.2286 -0.7279
17541TIP3    H274115   2.382   4.167  14.624  0.7652 -1.0949 -0.6248
17542TIP3   OH274116   4.546   3.967  14.493 -0.5360  0.0984 -0.2137
17542TIP3    H174117   4.489   4.030  14.449 -1.0091  0.9052  1.4415
17542TIP3    H274118   4.550   3.999  14.584  3.6655  0.9096 -0.4786
17543TIP3   OH274119   5.749   3.731   3.325  0.7426  0.0268 -0.0329
17543TIP3    H174120   5.757   3.743   3.230  0.6441 -0.9440 -0.1787
17543TIP3    H274121   5.688   3.657   3.335  1.6531 -0.6532  0.7469
17544TIP3   OH274122   0.032   2.868   3.577  0.4076 -0.1557  0.1406
17544TIP3    H174123  -0.058   2.861   3.547  0.7671  0.8636 -1.2772
17544TIP3    H274124   0.025   2.905   3.665 -0.5393  0.7156 -0.2718
17545TIP3   OH274125   5.298   3.728   3.402 -0.3454  0.1590  0.0227
17545TIP3    H174126   5.221   3.759   3.354 -0.2131 -0.8308 -0.8800
17545TIP3    H274127   5.352   3.686   3.335  0.8082  0.5183  0.7164
17546TIP3   OH274128   3.470   6.226  14.659  0.9067 -0.2420  0.4740
17546TIP3    H174129   3.469   6.132  14.643  1.1270 -0.1282 -0.2361
17546TIP3    H274130   3.405   6.261  14.598  1.1497  0.1117  0.4135
17547TIP3   OH274131   5.358   3.306   2.166  0.0126  0.1219  0.1763
17547TIP3    H174132   5.374   3.382   2.110 -1.4671 -0.8230 -1.6373
17547TIP3    H274133   5.407   3.325   2.246  2.5728  1.3925 -1.5261
17548TIP3   OH274134   2.164   2.377  13.603  0.2558  0.5150  0.4027
17548TIP3    H174135   2.085   2.370  13.655 -0.1327  1.3211 -0.0604
17548TIP3    H274136   2.141   2.337  13.519  0.7619 -0.4378  0.6905
17549TIP3   OH274137   0.532   3.558  14.403 -0.3268 -0.4205 -0.2213
17549TIP3    H174138   0.470   3.523  14.339 -2.5227  1.7750  0.5681
17549TIP3    H274139   0.617   3.552  14.360 -1.2126 -2.2851 -1.8828
17550TIP3   OH274140   4.323   2.669   5.837 -0.1872  0.2052 -0.5134
17550TIP3    H174141   4.354   2.742   5.784  3.2891  0.5623  1.6898
17550TIP3    H274142   4.378   2.595   5.811 -2.4857 -1.2866 -1.4846
17551TIP3   OH274143   1.374   2.574  14.845 -0.4038 -0.3859 -0.3569
17551TIP3    H174144   1.294   2.555  14.893 -0.3156 -1.3147 -0.5581
17551TIP3    H274145   1.425   2.493  14.850  0.4387  0.1282 -0.3929
17552TIP3   OH274146   3.316   3.629  15.101 -0.0502 -0.3019  0.1859
17552TIP3    H174147   3.367   3.560  15.143 -2.1924 -0.8821  2.0535
17552TIP3    H274148   3.225   3.608  15.122 -1.2108  0.3789 -3.3876
17553TIP3   OH274149   6.454   5.939   2.119  0.0980  0.0001  0.2119
17553TIP3    H174150   6.387   5.905   2.060 -0.2265  1.7135 -0.4629
17553TIP3    H274151   6.514   5.987   2.061  1.0128 -0.1333  1.0147
17554TIP3   OH274152   5.917   6.416   4.683 -0.0796 -0.0146  0.5959
17554TIP3    H174153   5.930   6.447   4.773 -0.9962 -1.2248  1.1613
17554TIP3    H274154   5.978   6.343   4.673 -1.2680 -1.0648  0.8614
17555TIP3   OH274155   0.778   5.416   4.706 -0.6663  0.2232  0.0552
17555TIP3    H174156   0.746   5.328   4.726 -0.4963 -0.1699 -1.3102
17555TIP3    H274157   0.798   5.454   4.792 -0.6814 -1.0795  0.6637
17556TIP3   OH274158   4.348   2.452   2.886  0.2950 -0.1133  0.2411
17556TIP3    H174159   4.415   2.449   2.817  1.0122 -0.3767  0.9358
17556TIP3    H274160   4.366   2.534   2.933 -0.0434 -0.0514  0.2650
17557TIP3   OH274161   1.887   2.207   1.183  0.3660 -0.8096 -0.2688
17557TIP3    H174162   1.904   2.295   1.215  2.1532 -1.3849  0.4563
17557TIP3    H274163   1.808   2.216   1.129  0.8513  1.3301 -0.7130
17558TIP3   OH274164   1.830   2.346   2.479  0.0254  0.4277 -0.4563
17558TIP3    H174165   1.817   2.415   2.414  0.2724 -0.0021 -0.9603
17558TIP3    H274166   1.866   2.273   2.430 -0.7539 -0.2649 -0.0222
17559TIP3   OH274167   6.553   2.823  13.968  0.0671 -0.5231  0.3325
17559TIP3    H174168   6.596   2.877  13.902 -0.8451 -0.2928 -0.0949
17559TIP3    H274169   6.529   2.884  14.038  0.0970 -0.5790  0.3913
17560TIP3   OH274170   2.392   5.082   5.554 -0.0041 -0.3249 -0.8337
17560TIP3    H174171   2.422   5.043   5.471  0.4395 -0.5435 -0.5729
17560TIP3    H274172   2.314   5.031   5.577  0.6218 -1.1413 -0.4505
17561TIP3   OH274173   6.600   5.796  14.107  0.9910 -0.4829 -0.1297
17561TIP3    H174174   6.624   5.771  14.197 -0.0008 -2.5446 -0.3638
17561TIP3    H274175   6.634   5.724  14.053 -0.3784 -0.4075 -1.1292
17562TIP3   OH274176   4.003   6.816  13.005  0.5449  0.0739 -0.1813
17562TIP3    H174177   3.937   6.782  12.945  2.5610 -3.1703 -0.7671
17562TIP3    H274178   4.076   6.842  12.949  0.0519  3.3456  0.4756
17563TIP3   OH274179   2.449   1.182   2.617 -0.1928 -0.3923 -0.4554
17563TIP3    H174180   2.537   1.146   2.626 -0.5855 -1.2561 -0.0307
17563TIP3    H274181   2.396   1.135   2.680 -0.6451  1.2541  0.4651
17564TIP3   OH274182   0.524   3.220  13.610 -0.4455 -0.5296 -0.3443
17564TIP3    H174183   0.440   3.226  13.563 -0.5212 -1.4486 -0.3407
17564TIP3    H274184   0.538   3.126  13.621  0.5355 -0.3748 -0.2472
17565TIP3   OH274185   1.725   7.086   5.275 -0.2908  0.1061 -0.3625
17565TIP3    H174186   1.634   7.060   5.263 -0.8706  1.9677 -0.3207
17565TIP3    H274187   1.749   7.051   5.361 -1.2845  0.3868  0.0520
17566TIP3   OH274188   5.611   6.652   3.597  0.4143  0.9481 -0.1046
17566TIP3    H174189   5.591   6.559   3.603  0.4038  1.0370  2.0532
17566TIP3    H274190   5.573   6.680   3.514 -1.0644 -0.6097  0.0008
17567TIP3   OH274191   2.103   3.431   0.976  0.3881  0.2213  0.0244
17567TIP3    H174192   2.008   3.429   0.984  0.5172  0.0342  2.0793
17567TIP3    H274193   2.128   3.513   1.019  1.1509  0.5046 -0.9212
17568TIP3   OH274194   0.616   3.535   0.798 -0.5357  0.1122  0.1703
17568TIP3    H174195   0.535   3.564   0.756 -1.2253 -2.6870 -0.7043
17568TIP3    H274196   0.671   3.503   0.725  0.2536 -0.4292  0.9797
17569TIP3   OH274197   6.678   0.154  13.193  0.2577  0.6549 -0.0864
17569TIP3    H174198   6.648   0.154  13.103  0.5028  1.9780 -0.1848
17569TIP3    H274199   6.620   0.216  13.238  0.1598  0.0393  0.6527
17570TIP3   OH274200   6.073   6.775   1.605  0.1999 -0.2128  0.0739
17570TIP3    H174201   6.142   6.748   1.544 -0.1802  1.9367 -1.4432
17570TIP3    H274202   6.006   6.707   1.597 -0.1365  0.2913 -2.5291
17571TIP3   OH274203   4.957   2.024   3.711 -0.0628  0.2443  0.2616
17571TIP3    H174204   4.889   2.079   3.674 -0.0494  0.9150  1.1993
17571TIP3    H274205   5.007   1.992   3.636 -1.3118 -0.1359 -0.4194
17572TIP3   OH274206   0.672   6.691   2.681 -0.0486  0.4668  0.1369
17572TIP3    H174207   0.763   6.664   2.687  0.2505  1.0713 -1.3265
17572TIP3    H274208   0.641   6.690   2.772  1.0627 -0.8717  0.5343
17573TIP3   OH274209   0.245   1.017   3.960 -0.3639  0.1860 -0.0513
17573TIP3    H174210   0.252   1.050   3.871  0.6237  0.7530  0.2172
17573TIP3    H274211   0.189   1.079   4.005 -0.6718  0.0283 -0.2155
17574TIP3   OH274212   0.151   3.985   3.331  0.1851 -0.4843  0.1992
17574TIP3    H174213   0.225   3.925   3.332  1.6058  1.2063  1.1192
17574TIP3    H274214   0.176   4.055   3.270 -0.8758 -0.1319  0.1316
17575TIP3   OH274215   0.355   2.866   3.207 -0.0940  0.0842 -0.7795
17575TIP3    H174216   0.286   2.854   3.271 -0.0064  2.6628 -0.0889
17575TIP3    H274217   0.331   2.808   3.134 -2.5979  0.3722 -0.2743
17576TIP3   OH274218   5.134   4.295  13.621  0.1363  0.1581 -0.3092
17576TIP3    H174219   5.042   4.321  13.611  0.2957  0.5191 -0.8877
17576TIP3    H274220   5.171   4.362  13.679  0.1946  0.3927 -0.6172
17577TIP3   OH274221   0.955   5.194   4.806 -0.0638  0.3652  0.2504
17577TIP3    H174222   0.991   5.189   4.895 -0.6698 -0.9344  0.4427
17577TIP3    H274223   0.979   5.110   4.766 -3.1801 -0.7842  0.5267
17578TIP3   OH274224   2.960   6.399   3.141 -0.2042  0.0962  0.1565
17578TIP3    H174225   2.977   6.433   3.229 -0.5477  1.4477 -0.2804
17578TIP3    H274226   2.886   6.339   3.152  0.3653 -0.4849  0.9290
17579TIP3   OH274227   0.195   3.525   4.409  0.3824  0.1235  0.2766
17579TIP3    H174228   0.290   3.513   4.408  1.0942  3.9937 -2.4567
17579TIP3    H274229   0.182   3.606   4.459 -0.9584  1.6643 -2.3593
17580TIP3   OH274230   6.651   1.403   5.335  0.1156 -0.5102 -0.2958
17580TIP3    H174231   6.606   1.383   5.417 -0.9088 -1.3060 -1.0219
17580TIP3    H274232   6.680   1.494   5.345 -2.0543  0.2050  0.0496
17581TIP3   OH274233   5.031   2.807   1.134 -0.5672  0.5189  0.3931
17581TIP3    H174234   4.940   2.826   1.113 -1.4564  0.5610  3.8137
17581TIP3    H274235   5.078   2.889   1.117 -1.0498  0.4565 -1.5106
17582TIP3   OH274236   4.005   4.124   2.860  0.2487  0.3683 -0.4146
17582TIP3    H174237   4.026   4.188   2.792  1.3911  0.9654  0.4512
17582TIP3    H274238   4.056   4.153   2.936 -0.9457 -0.3057  0.6822
17583TIP3   OH274239   1.706   4.523   5.893  0.1954 -0.1035  0.7147
17583TIP3    H174240   1.646   4.449   5.882 -1.1702  0.9293  0.9774
17583TIP3    H274241   1.789   4.491   5.858 -0.5070 -1.5629  0.2794
17584TIP3   OH274242   3.991   6.711   0.672  0.3364  0.0419 -0.2670
17584TIP3    H174243   4.077   6.748   0.652  0.3825  0.3802  0.5201
17584TIP3    H274244   4.010   6.625   0.710  0.2495 -0.5994 -1.6245
17585TIP3   OH274245   3.530   2.856  12.644 -0.1259 -0.7025  0.3110
17585TIP3    H174246   3.532   2.762  12.662  0.4133 -0.4113  1.9802
17585TIP3    H274247   3.621   2.879  12.627 -0.2583 -0.4868 -0.1020
17586TIP3   OH274248   5.957   4.298  11.740 -0.5974 -0.1280 -0.2317
17586TIP3    H174249   5.957   4.394  11.744 -1.6776 -0.1259 -0.0660
17586TIP3    H274250   5.963   4.270  11.832  0.0733 -0.2244 -0.3017
17587TIP3   OH274251   0.719   6.463  14.421 -0.5589  0.0351  0.0533
17587TIP3    H174252   0.773   6.493  14.494  0.4468 -0.3541 -0.5063
17587TIP3    H274253   0.730   6.530  14.354 -0.1024 -0.4467 -0.3649
17588TIP3   OH274254   2.368   2.001   3.091 -0.3307  0.0466 -0.1417
17588TIP3    H174255   2.417   1.919   3.092  5.2930  2.9656  0.8064
17588TIP3    H274256   2.342   2.016   3.182  0.1322  0.1015 -0.0194
17589TIP3   OH274257   5.767   0.473   4.950 -0.5282  0.0275  0.3305
17589TIP3    H174258   5.753   0.440   5.038 -2.6370  1.1814  0.4967
17589TIP3    H274259   5.736   0.564   4.953 -0.1305  0.2638 -1.4648
17590TIP3   OH274260   1.371   0.493   3.881 -0.2939 -0.3711  0.6417
17590TIP3    H174261   1.396   0.462   3.794  1.4186 -1.3280  1.4307
17590TIP3    H274262   1.415   0.577   3.890  1.3164 -1.2471  1.3538
17591TIP3   OH274263   1.006   3.962   1.996  0.4616 -0.3866 -0.2511
17591TIP3    H174264   1.092   4.004   1.986 -0.4302  1.3826 -0.9215
17591TIP3    H274265   0.964   3.973   1.911 -1.4796  1.3340  0.8285
17592TIP3   OH274266   2.066   5.802   3.128  0.1150  0.0136  0.3879
17592TIP3    H174267   2.085   5.784   3.220  1.3905  0.7269  0.2883
17592TIP3    H274268   2.150   5.830   3.091 -0.6079  0.8149 -0.7295
17593TIP3   OH274269   5.559   5.292   3.664 -0.2487 -0.1233 -0.7495
17593TIP3    H174270   5.477   5.243   3.653 -0.9273  0.6077  0.7551
17593TIP3    H274271   5.602   5.286   3.579 -0.4839 -2.9575 -0.7766
17594TIP3   OH274272   4.705   6.968   4.392  0.3529  0.6659 -0.1202
17594TIP3    H174273   4.625   6.976   4.443 -0.2994  1.1928 -1.1940
17594TIP3    H274274   4.704   7.044   4.333  1.1426  0.1476 -0.8248
17595TIP3   OH274275   4.394   3.835   3.970  0.3157  0.1195  0.1987
17595TIP3    H174276   4.331   3.845   4.042 -0.2247 -0.0142 -0.2443
17595TIP3    H274277   4.344   3.858   3.892  0.6737 -0.4820 -0.2135
17596TIP3   OH274278   5.870   0.109   4.407  0.2869  0.3662  0.6719
17596TIP3    H174279   5.953   0.080   4.370 -0.5584 -0.5974 -0.5427
17596TIP3    H274280   5.812   0.033   4.402 -0.3558  0.6581  2.5892
17597TIP3   OH274281   1.253   0.321  13.566 -0.2346 -0.4763 -0.5546
17597TIP3    H174282   1.265   0.402  13.616  1.3597 -0.8575 -0.2651
17597TIP3    H274283   1.253   0.252  13.631  0.6553 -0.8805 -0.9672
17598TIP3   OH274284   2.180   1.954   4.154  0.2180  0.1596 -0.0519
17598TIP3    H174285   2.221   2.006   4.085 -2.4358  1.6295 -0.6535
17598TIP3    H274286   2.089   1.982   4.155 -0.1672 -0.7214  3.2185
17599TIP3   OH274287   3.549   5.826   4.648  0.5659  0.3694 -0.0015
17599TIP3    H174288   3.601   5.857   4.722 -0.8370  0.2404  1.0965
17599TIP3    H274289   3.495   5.756   4.684 -0.5944  0.7201 -0.9819
17600TIP3   OH274290   2.929   3.977  13.433 -0.5702  0.4222  0.4950
17600TIP3    H174291   2.884   4.059  13.452 -1.5567  0.3325 -1.2669
17600TIP3    H274292   2.873   3.933  13.369  1.0445 -0.6321 -0.2528
17601TIP3   OH274293   4.685   0.692   0.786 -0.0443 -0.2311 -0.1489
17601TIP3    H174294   4.597   0.668   0.815 -0.1173 -0.6813 -0.7334
17601TIP3    H274295   4.673   0.774   0.738 -0.0380  0.0837  0.3763
17602TIP3   OH274296   4.851   1.023   3.096  0.5997  0.0930 -0.3904
17602TIP3    H174297   4.882   0.988   3.013  1.2120 -1.0859  0.2998
17602TIP3    H274298   4.766   0.980   3.110  0.5776  0.1569 -0.3243
17603TIP3   OH274299   2.682   2.668  14.456 -0.7705 -0.3141 -0.0800
17603TIP3    H174300   2.697   2.573  14.457 -0.5060 -0.2813  1.3374
17603TIP3    H274301   2.684   2.693  14.548  1.5944  1.4630 -0.5374
17604TIP3   OH274302   2.340   0.892   4.884 -0.1092  0.1517 -0.0450
17604TIP3    H174303   2.259   0.843   4.875 -1.0266  1.6069 -0.0304
17604TIP3    H274304   2.313   0.982   4.904  1.3769  1.2622 -2.4434
17605TIP3   OH274305   0.633   6.030  13.865  0.3129 -0.2168 -0.0518
17605TIP3    H174306   0.553   6.068  13.900  0.4921 -0.5123  0.7083
17605TIP3    H274307   0.608   5.994  13.780  0.1201  1.4681 -0.7268
17606TIP3   OH274308   2.489   1.408   5.652  0.0800  0.1307 -0.4009
17606TIP3    H174309   2.572   1.415   5.699  2.2116 -1.3367 -3.5836
17606TIP3    H274310   2.473   1.314   5.645 -2.6205  0.3676  1.1696
17607TIP3   OH274311   6.276   1.581   5.265 -0.2769  0.3465 -0.8431
17607TIP3    H174312   6.351   1.603   5.320 -0.1426 -1.2631 -0.3209
17607TIP3    H274313   6.220   1.659   5.268 -0.1867  0.3931  1.4518
17608TIP3   OH274314   6.838   0.340   5.033 -0.3375 -0.4657 -0.7827
17608TIP3    H174315   6.797   0.253   5.029 -0.1288 -0.5255 -2.5357
17608TIP3    H274316   6.768   0.401   5.010 -0.2877 -0.2292 -0.3198
17609TIP3   OH274317   5.787   2.152  12.514 -0.2468 -0.3079 -0.1472
17609TIP3    H174318   5.825   2.180  12.598 -0.6631 -1.6198  0.5093
17609TIP3    H274319   5.761   2.234  12.471  0.0621  0.3979  0.9587
17610TIP3   OH274320   2.974   5.150   4.536  0.1406  0.4058 -0.2166
17610TIP3    H174321   2.951   5.061   4.510  2.4102  0.0723 -1.3135
17610TIP3    H274322   2.936   5.205   4.468 -1.5176  0.3583  0.6167
17611TIP3   OH274323   3.295   4.668   5.398 -1.0589 -0.3971  0.2722
17611TIP3    H174324   3.336   4.746   5.361 -0.4702 -0.0572  1.5951
17611TIP3    H274325   3.360   4.599   5.387 -0.3443 -0.0024  1.7907
17612TIP3   OH274326   6.443   2.123  11.184 -0.1463 -0.0578 -0.3036
17612TIP3    H174327   6.539   2.127  11.185 -0.1796  1.2782  0.4054
17612TIP3    H274328   6.421   2.065  11.257  0.1239  0.3987  0.1536
17613TIP3   OH274329   5.801   0.168   3.842  0.0439  0.0380 -0.2990
17613TIP3    H174330   5.838   0.154   3.755  0.4879 -1.8572  0.1528
17613TIP3    H274331   5.875   0.198   3.895  0.4213 -1.3773  0.0204
17614TIP3   OH274332   7.013   1.358   3.678 -0.6289 -0.5396 -0.2059
17614TIP3    H174333   6.974   1.414   3.745 -0.5841 -1.2368  0.4181
17614TIP3    H274334   7.064   1.418   3.623 -2.0642  0.3000 -0.6821
17615TIP3   OH274335   1.758   3.555   4.613  0.5313 -0.1895 -0.6304
17615TIP3    H174336   1.829   3.550   4.549  1.1711  0.2723  0.0252
17615TIP3    H274337   1.732   3.463   4.626  1.5354 -0.4456 -0.3129
17616TIP3   OH274338   5.179   3.260   3.243  0.2354 -0.2504 -0.0382
17616TIP3    H174339   5.250   3.277   3.181  0.1458 -0.2532 -0.1433
17616TIP3    H274340   5.223   3.233   3.323  0.4214  1.1398  0.3523
17617TIP3   OH274341   6.430   3.987   1.155 -0.3393 -0.1644  0.2569
17617TIP3    H174342   6.411   4.019   1.067 -2.3855  0.3730  0.8330
17617TIP3    H274343   6.360   4.024   1.209  1.5718  0.5872  2.3598
17618TIP3   OH274344   5.714   4.942   1.968 -0.0981  0.1119 -0.8078
17618TIP3    H174345   5.689   4.945   1.876 -1.8416 -2.6118 -0.5277
17618TIP3    H274346   5.642   4.897   2.011 -0.2225  2.8776  2.2818
17619TIP3   OH274347   6.518   0.791   3.934  0.2915  0.0359 -0.4436
17619TIP3    H174348   6.597   0.829   3.972  1.1469 -0.6589 -1.4679
17619TIP3    H274349   6.447   0.845   3.968  1.0995  0.1142  1.2302
17620TIP3   OH274350   7.164   5.228   2.360 -0.1843 -0.3950  0.0133
17620TIP3    H174351   7.143   5.232   2.454  0.5103  0.9692  0.1436
17620TIP3    H274352   7.186   5.319   2.337  3.3140 -1.2654 -0.6114
17621TIP3   OH274353   1.203   6.021  14.736  0.0762 -0.4628  0.3276
17621TIP3    H174354   1.167   5.992  14.653  0.1054 -1.4711  0.6545
17621TIP3    H274355   1.290   5.982  14.741  0.3340  0.1244  0.5410
17622TIP3   OH274356   4.058   2.744   4.523  0.1557  0.0974 -0.3048
17622TIP3    H174357   4.139   2.794   4.518  0.2963 -0.1432 -0.4155
17622TIP3    H274358   4.056   2.691   4.443  1.3284 -2.0752  1.0031
17623TIP3   OH274359   6.722   6.420   2.919 -0.3483 -0.3034 -0.8266
17623TIP3    H174360   6.807   6.460   2.935  0.4441 -2.2508  0.1553
17623TIP3    H274361   6.689   6.463   2.840  0.3696  2.2851  0.1678
17624TIP3   OH274362   6.468   7.104   0.448 -0.3985 -0.3789  0.5331
17624TIP3    H174363   6.453   7.109   0.542  0.0276 -0.9823  0.6413
17624TIP3    H274364   6.509   7.018   0.435 -1.7415 -0.9069 -0.3725
17625TIP3   OH274365   4.332   5.892   3.612 -0.0482 -0.0806  0.3225
17625TIP3    H174366   4.250   5.930   3.640 -0.4606 -0.7399  0.0396
17625TIP3    H274367   4.363   5.842   3.689 -0.3453 -0.5283  0.1566
17626TIP3   OH274368   2.199   7.193  15.184  0.2883 -0.1501 -0.1976
17626TIP3    H174369   2.263   7.237  15.240  0.3004 -0.1528 -0.2095
17626TIP3    H274370   2.219   7.222  15.096  1.4899 -1.6210 -0.4445
17627TIP3   OH274371   6.242   5.858   3.747  0.1266 -0.7821 -0.2951
17627TIP3    H174372   6.274   5.834   3.660  3.1272  1.2890  0.0705
17627TIP3    H274373   6.177   5.927   3.730 -0.4499 -1.4641 -0.9261
17628TIP3   OH274374   1.963   4.747   4.867 -0.3344  0.3002  0.3348
17628TIP3    H174375   1.949   4.731   4.960 -0.7571 -1.8871 -0.0416
17628TIP3    H274376   1.913   4.678   4.823  0.2097  1.0160 -1.5082
17629TIP3   OH274377   3.358   2.032   0.749 -0.1575  0.1287 -0.2649
17629TIP3    H174378   3.304   2.103   0.782 -1.6002 -1.0855  0.1104
17629TIP3    H274379   3.341   2.030   0.655  0.1315  0.4863 -0.3230
17630TIP3   OH274380   3.249   0.356   2.916 -0.1795 -0.1379  0.4034
17630TIP3    H174381   3.267   0.354   3.010  2.9670  1.7927 -0.0054
17630TIP3    H274382   3.322   0.307   2.877 -0.3942  0.6772 -1.1061
17631TIP3   OH274383   5.089   3.510   4.756  0.0925  0.4322 -0.1471
17631TIP3    H174384   5.050   3.538   4.839  0.3593  1.8966 -0.4881
17631TIP3    H274385   5.060   3.419   4.745 -0.5870  0.4714  1.1562
17632TIP3   OH274386   0.124   1.769   0.029  0.4681 -0.2005  0.0320
17632TIP3    H174387   0.181   1.845   0.046  2.0165 -1.2084 -0.4603
17632TIP3    H274388   0.147   1.707   0.098 -0.3838 -0.4501  0.0921
17633TIP3   OH274389   0.536   0.396   0.614  0.2141 -0.6115 -0.0781
17633TIP3    H174390   0.533   0.379   0.709  0.2991 -0.8277 -0.1137
17633TIP3    H274391   0.628   0.416   0.596 -0.3360  2.9644  0.4848
17634TIP3   OH274392   6.103   0.479   1.909 -0.1376  0.4721 -0.8299
17634TIP3    H174393   6.137   0.394   1.880 -0.4440  0.4660 -1.1700
17634TIP3    H274394   6.124   0.539   1.838 -0.4256  0.5670 -0.8332
17635TIP3   OH274395   1.310   0.543   2.814  0.2316 -0.4690  0.0970
17635TIP3    H174396   1.351   0.457   2.808 -0.2211 -0.5768 -2.9742
17635TIP3    H274397   1.348   0.582   2.893  2.1651 -2.5924  0.3137
17636TIP3   OH274398   2.823   4.733   5.490  0.1909  0.3964  0.4419
17636TIP3    H174399   2.755   4.666   5.483  1.1308 -0.5731  0.4328
17636TIP3    H274400   2.855   4.726   5.580  0.1714  0.9675  0.5003
17637TIP3   OH274401   2.894   1.930   5.059 -0.4648 -0.2907  0.4162
17637TIP3    H174402   2.935   1.852   5.095 -1.3086 -1.0707 -0.2609
17637TIP3    H274403   2.890   1.991   5.133 -0.4072 -1.1379  1.1418
17638TIP3   OH274404   5.153   1.356   5.871 -0.0163  0.4603  0.0979
17638TIP3    H174405   5.074   1.396   5.907 -0.0054  1.7598 -1.2311
17638TIP3    H274406   5.220   1.373   5.937 -0.6755 -0.1265  0.9591
17639TIP3   OH274407   5.976   0.420   2.587  0.4909 -0.7908  0.2828
17639TIP3    H174408   6.019   0.339   2.558  1.5432  0.5911 -2.4566
17639TIP3    H274409   5.942   0.459   2.506 -3.0351 -0.1125  1.9373
17640TIP3   OH274410   2.290   3.594   3.248 -0.0846  0.1766  0.3435
17640TIP3    H174411   2.275   3.512   3.294 -0.8442  1.0170  1.6651
17640TIP3    H274412   2.288   3.571   3.155 -2.0212 -1.0317  0.6397
17641TIP3   OH274413   0.229   4.860   1.753 -0.4904 -0.0546 -0.2113
17641TIP3    H174414   0.167   4.790   1.775 -0.7502  0.1923 -0.1511
17641TIP3    H274415   0.265   4.888   1.838 -1.5868  0.9855 -0.0645
17642TIP3   OH274416   5.566   5.327   5.026  0.3621 -0.0087  0.2023
17642TIP3    H174417   5.605   5.403   5.070 -1.4692  1.5953 -0.7608
17642TIP3    H274418   5.519   5.280   5.095  0.6176  0.3515  0.6259
17643TIP3   OH274419   2.676   0.963   3.962 -0.3509 -0.6614  0.4405
17643TIP3    H174420   2.583   0.975   3.943 -0.3039  0.0268  0.6288
17643TIP3    H274421   2.714   1.050   3.952  0.2264 -0.8888  0.6290
17644TIP3   OH274422   6.232   3.699  13.977 -0.1264 -0.0904 -0.0847
17644TIP3    H174423   6.278   3.781  13.994 -2.0339  1.0981 -0.3340
17644TIP3    H274424   6.142   3.715  14.005 -0.2986 -2.5528  1.0802
17645TIP3   OH274425   5.607   4.015   4.830  0.6935  0.6530 -0.2004
17645TIP3    H174426   5.596   4.099   4.875  0.9672  1.0084 -0.7836
17645TIP3    H274427   5.571   4.029   4.742 -0.6358 -0.2935  0.1557
17646TIP3   OH274428   1.201   3.195   5.003  0.2717 -0.6063 -0.1670
17646TIP3    H174429   1.245   3.143   5.070  0.5632  0.4597  0.4969
17646TIP3    H274430   1.182   3.133   4.933  1.8767 -1.3084 -0.0142
17647TIP3   OH274431   4.215   0.074   1.324  0.3781  0.2946  0.5446
17647TIP3    H174432   4.302   0.094   1.288 -1.2542  1.0286 -3.5299
17647TIP3    H274433   4.207  -0.021   1.317  0.7679  0.2316  0.8675
17648TIP3   OH274434   3.638   1.317   5.242 -0.9499  0.4918  0.1182
17648TIP3    H174435   3.573   1.278   5.300  0.4902 -0.3361  1.2228
17648TIP3    H274436   3.651   1.405   5.276 -1.8764  0.8707 -0.4579
17649TIP3   OH274437   4.384   1.076   3.659 -0.7733  0.3256 -0.1362
17649TIP3    H174438   4.420   1.010   3.718 -0.7844  0.9998  0.6450
17649TIP3    H274439   4.373   1.154   3.714 -1.3066  0.8036 -0.9014
17650TIP3   OH274440   0.619   0.108   1.516 -0.1125  0.2149  0.2570
17650TIP3    H174441   0.650   0.174   1.579 -0.1000  1.3034 -0.8545
17650TIP3    H274442   0.545   0.149   1.472 -0.9828 -1.0562  0.4751
17651TIP3   OH274443   4.366   0.269   9.398  0.1447 -0.6143 -0.4394
17651TIP3    H174444   4.409   0.206   9.455  1.2719  1.0232  0.6227
17651TIP3    H274445   4.295   0.305   9.450  0.5914  0.2076 -0.3731
17652TIP3   OH274446   5.983   3.519   2.772 -0.4063  0.6879 -0.3516
17652TIP3    H174447   6.013   3.442   2.724 -1.3818  0.7934 -1.1475
17652TIP3    H274448   6.030   3.592   2.732 -1.5486  0.8330 -1.4898
17653TIP3   OH274449   4.330   1.234   4.673  0.0261  0.3533  0.2643
17653TIP3    H174450   4.253   1.269   4.717  1.9191  2.3817  2.2362
17653TIP3    H274451   4.373   1.181   4.739  0.9647  0.2835 -0.3863
17654TIP3   OH274452   2.289   3.497   4.929 -0.1289  0.5181  0.1861
17654TIP3    H174453   2.340   3.421   4.957  0.1148  0.4588 -0.3941
17654TIP3    H274454   2.341   3.535   4.858 -0.8522  0.5061 -0.3553
17655TIP3   OH274455   1.423   5.273   3.431  0.0842 -0.2957 -0.1086
17655TIP3    H174456   1.425   5.291   3.337 -1.5552  0.1436 -0.0966
17655TIP3    H274457   1.514   5.255   3.454  0.5266 -0.3567 -1.7627
17656TIP3   OH274458   4.443   3.346   1.472  0.2073 -0.3075  0.1650
17656TIP3    H174459   4.506   3.334   1.543  0.1116  1.7809  0.6429
17656TIP3    H274460   4.488   3.403   1.409 -0.9334  0.6092  0.1616
17657TIP3   OH274461   7.209   4.109   2.965  0.0460  0.2539 -0.6551
17657TIP3    H174462   7.302   4.107   2.990  0.2735 -0.5609 -1.5442
17657TIP3    H274463   7.179   4.196   2.993  1.0358  0.4716 -0.2338
17658TIP3   OH274464   6.780   2.122   4.852 -0.1723 -0.0331  0.4520
17658TIP3    H174465   6.739   2.157   4.773 -0.3295  0.0742  0.5807
17658TIP3    H274466   6.758   2.185   4.920  0.5616  0.2524  0.4388
17659TIP3   OH274467   0.532   6.914   2.773  0.1119 -0.1063  0.1075
17659TIP3    H174468   0.555   6.838   2.720  1.4955  0.6857 -0.4743
17659TIP3    H274469   0.603   6.922   2.837  0.3100  1.0473 -0.2314
17660TIP3   OH274470   1.099   5.360   3.563 -0.1919  0.1310  0.1163
17660TIP3    H174471   1.115   5.390   3.653 -0.7967 -1.3979  0.7575
17660TIP3    H274472   1.178   5.311   3.540  0.0899  0.7693 -0.3199
17661TIP3   OH274473   1.487   6.782   1.535 -0.4830  0.3467 -0.4304
17661TIP3    H174474   1.544   6.708   1.513 -0.5546  0.2200 -0.1917
17661TIP3    H274475   1.493   6.840   1.459  1.0966  1.0317  0.1808
17662TIP3   OH274476   2.268   0.489   0.593  0.6783 -0.2794  0.1889
17662TIP3    H174477   2.209   0.424   0.632  0.6435 -0.8671 -0.8126
17662TIP3    H274478   2.229   0.508   0.508  0.6904  1.0760  0.4638
17663TIP3   OH274479   0.044   6.266   5.830 -0.4036  0.2400 -0.2072
17663TIP3    H174480   0.135   6.297   5.825  0.2304 -0.9436  2.2026
17663TIP3    H274481   0.050   6.171   5.815 -0.9375 -0.1351  1.7029
17664TIP3   OH274482   3.341   1.416   3.544  0.0632 -0.2084 -0.1385
17664TIP3    H174483   3.362   1.345   3.605  0.9974 -1.3090 -1.6743
17664TIP3    H274484   3.279   1.378   3.483  1.6293 -0.1996 -1.8219
17665TIP3   OH274485   4.659   2.307   0.623  0.3659  0.0690  0.2039
17665TIP3    H174486   4.722   2.299   0.695  0.1327 -2.1409  0.2332
17665TIP3    H274487   4.701   2.367   0.561  1.7125 -0.0009  1.0093
17666TIP3   OH274488   2.630   2.160   3.431  0.1327  0.0313  0.1498
17666TIP3    H174489   2.659   2.176   3.341  1.8965 -0.3666  0.6178
17666TIP3    H274490   2.677   2.224   3.483 -1.9475  1.2303  0.6938
17667TIP3   OH274491   6.964   0.401   3.043  0.0263  0.6655 -0.3318
17667TIP3    H174492   7.027   0.467   3.072  0.1123  0.0365  0.9506
17667TIP3    H274493   6.883   0.450   3.031  0.5213  1.3158 -1.1106
17668TIP3   OH274494   0.114   2.890  14.647 -0.1780 -0.3166  0.2849
17668TIP3    H174495   0.143   2.981  14.649  1.8658 -0.9072  1.4382
17668TIP3    H274496   0.181   2.845  14.594 -1.5591 -1.0568 -0.9032
17669TIP3   OH274497   2.566   4.806   4.161 -0.3280 -0.1413 -0.4854
17669TIP3    H174498   2.608   4.794   4.076  2.3132  0.8492  0.5809
17669TIP3    H274499   2.606   4.739   4.217  0.7494  1.5469  0.8549
17670TIP3   OH274500   1.307   6.801   0.651 -0.4510  0.1101  0.5316
17670TIP3    H174501   1.354   6.863   0.594 -0.1719  0.5644  1.2419
17670TIP3    H274502   1.374   6.739   0.679 -0.5996 -0.1440  0.3275
17671TIP3   OH274503   6.176   0.856  14.291 -0.0517 -0.6889  0.2436
17671TIP3    H174504   6.187   0.944  14.327 -0.5463 -0.5014 -0.0541
17671TIP3    H274505   6.082   0.848  14.277 -0.6375 -2.7154  3.9864
17672TIP3   OH274506   2.053   3.050   1.549  0.6071  0.2867  0.5473
17672TIP3    H174507   2.135   3.024   1.591 -0.3898 -2.9930  0.7591
17672TIP3    H274508   2.048   2.994   1.472 -1.9208 -0.4013  1.1385
17673TIP3   OH274509   4.771   0.537   3.208  0.6563  0.3970  0.0206
17673TIP3    H174510   4.824   0.604   3.250  0.1530  0.2974  0.8428
17673TIP3    H274511   4.786   0.458   3.260  1.2244 -0.1335 -0.9239
17674TIP3   OH274512   6.882   2.632   0.067 -0.6743  0.6369  0.2407
17674TIP3    H174513   6.891   2.714   0.017 -1.3747  1.9463  2.1510
17674TIP3    H274514   6.846   2.570   0.004 -0.1881  1.7861 -1.2600
17675TIP3   OH274515   0.918   1.339   0.259  0.2728  0.1390  0.2423
17675TIP3    H174516   0.841   1.345   0.316  1.0739  0.3854  1.3390
17675TIP3    H274517   0.987   1.384   0.309  0.9219  0.6389 -1.0736
17676TIP3   OH274518   4.373   5.928   0.550 -0.4610 -0.1868  0.4817
17676TIP3    H174519   4.323   5.986   0.492  0.4438 -0.3248 -0.4638
17676TIP3    H274520   4.418   5.987   0.610 -0.1578  0.0454  0.0277
17677TIP3   OH274521   6.304   6.039  15.263  0.0692  0.0167 -0.5672
17677TIP3    H174522   6.312   6.028  15.168  0.5724  1.8425 -0.7812
17677TIP3    H274523   6.210   6.039  15.279 -0.0097 -0.8705 -0.9761
17678TIP3   OH274524   2.291   6.673   4.663  0.2525 -0.3713  0.1856
17678TIP3    H174525   2.265   6.745   4.721  2.0880 -0.4592  1.2087
17678TIP3    H274526   2.225   6.606   4.677 -0.9271  0.7142 -0.0144
17679TIP3   OH274527   6.817   2.380  12.915 -0.5177  0.3596 -0.1391
17679TIP3    H174528   6.748   2.320  12.943  0.6265  0.1290  2.4350
17679TIP3    H274529   6.874   2.389  12.991  2.8104 -0.1435 -2.3437
17680TIP3   OH274530   0.113   6.670   5.408 -0.2225  0.1042 -0.1046
17680TIP3    H174531   0.146   6.752   5.444 -0.8641  0.1691  0.3555
17680TIP3    H274532   0.173   6.650   5.336 -0.3193  1.2140 -0.5269
17681TIP3   OH274533   4.895   4.556   2.122 -0.3437  0.1649 -0.2996
17681TIP3    H174534   4.978   4.598   2.099  0.5762 -2.5505 -2.4618
17681TIP3    H274535   4.910   4.520   2.210  1.3014 -1.3686 -1.1495
17682TIP3   OH274536   0.287   2.305   2.317 -0.2014  0.5575  0.5321
17682TIP3    H174537   0.215   2.366   2.332 -0.8456 -0.5261  2.2337
17682TIP3    H274538   0.352   2.327   2.384 -1.0242 -1.3669  2.0883
17683TIP3   OH274539   0.156   0.587   1.045 -0.3073 -0.4181  0.1898
17683TIP3    H174540   0.118   0.621   0.964  0.0823  2.0377  0.9537
17683TIP3    H274541   0.093   0.609   1.113  0.8122  0.4541  0.9800
17684TIP3   OH274542   5.756   6.808   3.762  0.2705 -0.4895  0.4402
17684TIP3    H174543   5.691   6.755   3.715  0.6697 -1.0847  0.5450
17684TIP3    H274544   5.796   6.747   3.824  0.9764 -0.1483  0.3304
17685TIP3   OH274545   1.516   3.981   2.654  0.7497  0.1143  0.1251
17685TIP3    H174546   1.508   4.066   2.697 -2.4909 -0.3188  0.6489
17685TIP3    H274547   1.568   3.928   2.714  0.7430  1.0483  0.9831
17686TIP3   OH274548   6.409   2.260   5.167 -0.3404  0.0926 -0.0198
17686TIP3    H174549   6.349   2.249   5.094  0.0644  1.2132 -0.5417
17686TIP3    H274550   6.362   2.224   5.242 -1.5916  0.7418 -0.4560
17687TIP3   OH274551   3.956   5.134   5.208 -0.1580 -0.2318  0.6310
17687TIP3    H174552   3.944   5.070   5.138 -1.8934 -1.4279  1.9498
17687TIP3    H274553   4.046   5.120   5.238  0.4936  0.0457 -1.0542
17688TIP3   OH274554   2.690   0.842   2.841  0.0508  0.2600 -0.4904
17688TIP3    H174555   2.722   0.907   2.778  0.7867  1.3292  0.9474
17688TIP3    H274556   2.712   0.878   2.927 -0.4435 -1.4164  0.3871
17689TIP3   OH274557   4.637   1.126   4.263 -0.4015 -0.7297 -0.2769
17689TIP3    H174558   4.558   1.179   4.249 -0.0006 -0.1640 -0.4201
17689TIP3    H274559   4.709   1.183   4.237 -0.0011 -1.6161 -1.1745
17690TIP3   OH274560   3.483   2.405   4.438  0.1646  0.6535  0.7814
17690TIP3    H174561   3.531   2.380   4.517 -0.1960 -0.6281  0.6243
17690TIP3    H274562   3.407   2.347   4.437 -1.0000  2.1136  0.6216
17691TIP3   OH274563   0.238   0.796  14.858  0.0974  0.5520  0.1906
17691TIP3    H174564   0.268   0.710  14.829 -0.7768  0.8626 -1.8202
17691TIP3    H274565   0.169   0.819  14.796 -0.6489  2.1057  1.5374
17692TIP3   OH274566   5.515   2.699   2.243 -0.6920  0.2180  0.2655
17692TIP3    H174567   5.455   2.754   2.193 -1.6051  0.7370  1.8704
17692TIP3    H274568   5.583   2.759   2.273  1.7889 -0.6575 -3.0440
17693TIP3   OH274569   0.108   1.426   0.574 -0.1424 -0.1297 -0.4459
17693TIP3    H174570   0.079   1.344   0.615  3.0624 -1.4044 -0.4570
17693TIP3    H274571   0.069   1.495   0.628 -1.8657 -1.6614  0.3525
17694TIP3   OH274572   2.291   1.995   3.337  0.2698  0.4215 -0.0572
17694TIP3    H174573   2.282   2.067   3.399 -1.1943  0.7594 -0.6381
17694TIP3    H274574   2.353   1.935   3.379  1.1152  1.7621  0.6584
17695TIP3   OH274575   2.856   6.405   0.640 -0.5149 -0.0861  0.0845
17695TIP3    H174576   2.776   6.385   0.689 -0.3119 -2.3685 -0.4344
17695TIP3    H274577   2.874   6.326   0.589  1.9761  0.4421  0.0298
17696TIP3   OH274578   0.765   5.345   4.179 -0.0247  0.2810  0.2798
17696TIP3    H174579   0.809   5.408   4.237  0.5660  1.1427 -1.0592
17696TIP3    H274580   0.687   5.319   4.228  1.4616 -0.5840  2.3407
17697TIP3   OH274581   4.935   2.301   2.569  0.3808 -0.0422 -0.5438
17697TIP3    H174582   5.011   2.296   2.511  1.2164  2.3716  0.2149
17697TIP3    H274583   4.971   2.296   2.657 -0.3078  1.2373 -0.1705
17698TIP3   OH274584   3.758   5.386  15.326  0.2585 -0.1862 -0.1787
17698TIP3    H174585   3.805   5.468  15.338 -0.1223 -0.1301  1.0981
17698TIP3    H274586   3.818   5.319  15.359 -0.4967 -0.1216  1.3805
17699TIP3   OH274587   0.593   0.302   0.183 -0.1982  0.3232 -0.2679
17699TIP3    H174588   0.615   0.330   0.095 -0.1208 -0.4187 -0.4930
17699TIP3    H274589   0.534   0.370   0.217 -2.5916 -0.7507 -1.9459
17700TIP3   OH274590   0.302   5.010   3.130  0.3045  0.1420 -0.2087
17700TIP3    H174591   0.391   5.003   3.097  0.2176 -2.2280 -0.0858
17700TIP3    H274592   0.311   5.004   3.225 -0.0313 -0.8319 -0.2338
17701TIP3   OH274593   6.788   3.259   0.777 -0.0390  0.5884 -0.2216
17701TIP3    H174594   6.805   3.266   0.683  1.2864  2.6504  0.1119
17701TIP3    H274595   6.844   3.187   0.806 -2.0411 -1.5158 -1.2845
17702TIP3   OH274596   2.479   6.753   4.961 -0.5591 -0.1312 -0.2054
17702TIP3    H174597   2.517   6.732   5.047 -1.8537  1.3719  0.7781
17702TIP3    H274598   2.385   6.761   4.978 -0.9524 -0.6056 -1.9553
17703TIP3   OH274599   2.937   4.637  12.561  0.4756  0.3057 -0.0488
17703TIP3    H174600   2.989   4.573  12.611  0.1059 -1.5500 -1.8885
17703TIP3    H274601   2.980   4.641  12.476 -1.4885 -0.1693 -1.1194
17704TIP3   OH274602   5.367   4.404   0.861 -0.0331 -0.3248 -0.0446
17704TIP3    H174603   5.362   4.312   0.888 -1.6891 -1.0593 -2.5534
17704TIP3    H274604   5.290   4.417   0.806  0.2131  2.5837  0.1551
17705TIP3   OH274605   7.154   0.011   1.108 -0.2204 -0.0042  0.6019
17705TIP3    H174606   7.229   0.070   1.101  1.3789 -2.0515 -0.2163
17705TIP3    H274607   7.089   0.062   1.157  2.4615  1.0832  3.3512
17706TIP3   OH274608   0.522   0.588   5.022  0.4468 -0.5967 -0.2294
17706TIP3    H174609   0.438   0.549   4.999  1.4313 -3.4062  0.4744
17706TIP3    H274610   0.511   0.616   5.113 -0.1270  0.4181 -0.5915
17707TIP3   OH274611   2.032   6.001   2.722 -0.3156  0.7425 -0.0966
17707TIP3    H174612   2.097   6.033   2.660  0.7371 -0.7508  0.1804
17707TIP3    H274613   1.950   5.999   2.672  0.5941 -0.9071 -1.6375
17708TIP3   OH274614   2.429   1.747   1.548  0.2966 -0.8318  0.1930
17708TIP3    H174615   2.347   1.771   1.590  0.1945 -0.1500 -0.3736
17708TIP3    H274616   2.404   1.683   1.481  0.3328 -1.1689  0.4936
17709TIP3   OH274617   5.148   3.049   1.113  0.1785 -0.1773  0.1308
17709TIP3    H174618   5.220   3.105   1.142  0.8029 -0.0825 -1.4802
17709TIP3    H274619   5.071   3.082   1.160  0.3601  2.6006 -1.3453
17710TIP3   OH274620   4.710   0.099   0.803 -0.4661 -0.3392  0.2693
17710TIP3    H174621   4.710   0.125   0.710  0.4283  0.0410  0.3711
17710TIP3    H274622   4.665   0.171   0.847  1.4957  0.8159  0.4723
17711TIP3   OH274623   3.949   2.718   2.554  0.1652 -0.5664 -0.4250
17711TIP3    H174624   3.977   2.692   2.642  0.2167  0.6699 -0.0464
17711TIP3    H274625   4.018   2.776   2.523 -0.7224  0.5164 -0.4872
17712TIP3   OH274626   5.657   4.731   0.059 -0.1117  1.4093  0.4379
17712TIP3    H174627   5.737   4.778   0.039  1.0733 -0.2750  1.0332
17712TIP3    H274628   5.619   4.778   0.134  1.1974  1.2661  1.2100
17713TIP3   OH274629   1.953   5.745   0.073 -0.0932  0.5420 -0.3692
17713TIP3    H174630   1.880   5.799   0.104  1.1522  1.7380  0.5754
17713TIP3    H274631   2.031   5.793   0.099  1.0690 -1.3634 -0.1762
17714TIP3   OH274632   4.963   3.889   2.500  0.7568 -0.2100 -0.2500
17714TIP3    H174633   4.932   3.908   2.412 -2.5607  1.3900  1.0917
17714TIP3    H274634   5.036   3.950   2.513  0.4091  0.4869 -1.4456
17715TIP3   OH274635   5.574   6.638   0.546 -0.4816 -0.8002 -0.0958
17715TIP3    H174636   5.639   6.628   0.476  1.3958  0.0039  1.4458
17715TIP3    H274637   5.593   6.723   0.585 -0.7326 -1.6764  2.0951
17716TIP3   OH274638   7.006   2.921   0.957 -0.3958 -0.4280 -0.2304
17716TIP3    H174639   6.988   2.961   1.042 -2.6983  0.3774 -1.0396
17716TIP3    H274640   7.074   2.978   0.919  2.1156 -1.8723  1.7226
17717TIP3   OH274641   6.125   2.046  13.810 -0.1301 -0.3005  0.3056
17717TIP3    H174642   6.152   2.111  13.874  2.6397 -1.6488  0.6528
17717TIP3    H274643   6.186   2.056  13.737  0.4973 -2.5378  0.4392
17718TIP3   OH274644   2.556   1.422   2.004 -0.0020 -0.4397  0.6019
17718TIP3    H174645   2.576   1.482   2.076  2.5666 -0.1688 -0.2295
17718TIP3    H274646   2.523   1.478   1.934  0.4136 -0.2533  0.5477
17719TIP3   OH274647   0.058   3.660   5.042 -0.2887 -0.0647  0.5397
17719TIP3    H174648   0.062   3.663   4.946 -0.8639  1.6066  0.5292
17719TIP3    H274649   0.115   3.731   5.071 -1.4634  0.5814  1.3589
17720TIP3   OH274650   6.946   1.326   4.134 -0.6079 -0.6555  0.4024
17720TIP3    H174651   6.953   1.247   4.080 -0.2066 -0.6912  0.5014
17720TIP3    H274652   7.022   1.322   4.193 -0.0001  0.3305 -0.2826
17721TIP3   OH274653   3.045   1.602   2.612  0.5503  0.4338 -0.2058
17721TIP3    H174654   3.003   1.644   2.687 -0.1572  1.1418 -0.9736
17721TIP3    H274655   3.114   1.548   2.650  0.4872  1.1159  0.9129
17722TIP3   OH274656   7.214   4.863   0.830 -0.5926  0.7392  0.2516
17722TIP3    H174657   7.220   4.774   0.795 -1.9441  0.2870  1.0899
17722TIP3    H274658   7.133   4.864   0.880  0.8669  1.5240  2.8242
17723TIP3   OH274659   1.292   3.970   3.394 -0.0881  0.1670  0.5377
17723TIP3    H174660   1.222   4.034   3.383 -0.3920 -0.3318 -0.4969
17723TIP3    H274661   1.248   3.886   3.399  0.3910 -0.0816  0.6617
17724TIP3   OH274662   3.609   1.946   3.262 -0.1482  0.3400 -0.8271
17724TIP3    H174663   3.627   1.910   3.175 -0.6302 -0.6741 -0.5221
17724TIP3    H274664   3.625   2.040   3.253 -0.0655  0.2283 -1.9729
17725TIP3   OH274665   0.554   1.684  13.175 -0.0581  0.3169 -0.4263
17725TIP3    H174666   0.590   1.623  13.110  0.5879  0.5302 -0.2705
17725TIP3    H274667   0.631   1.726  13.213 -0.4710  0.6842 -0.0001
17726TIP3   OH274668   5.842   2.980   2.095 -0.1703  0.2065  0.0686
17726TIP3    H174669   5.897   2.973   2.017  1.0684  2.3473  0.6572
17726TIP3    H274670   5.786   3.056   2.078 -3.2792 -2.0500 -0.6158
17727TIP3   OH274671   3.568   6.418   0.958 -0.2533 -0.4793 -0.0302
17727TIP3    H174672   3.589   6.327   0.979 -0.7151 -1.2321 -2.4558
17727TIP3    H274673   3.527   6.452   1.037 -0.3106 -2.4697  0.8593
17728TIP3   OH274674   1.248   3.746   5.381 -0.0146  0.2550 -0.0870
17728TIP3    H174675   1.164   3.791   5.388  0.2151  0.5759  0.7103
17728TIP3    H274676   1.293   3.793   5.310 -0.1359  0.6983  0.1232
17729TIP3   OH274677   2.222   1.171   4.093 -0.5454  0.3172  0.2046
17729TIP3    H174678   2.217   1.225   4.014 -2.0024 -0.6668 -0.4305
17729TIP3    H274679   2.302   1.121   4.083  0.6502  2.0472  0.6339
17730TIP3   OH274680   2.814   4.371  14.657  0.1365  0.4882 -0.1982
17730TIP3    H174681   2.852   4.283  14.650  0.5096  0.7250 -1.3082
17730TIP3    H274682   2.750   4.363  14.728  0.7697 -0.4524  0.3040
17731TIP3   OH274683   5.929   6.897   3.585  0.0493 -0.7474  0.1632
17731TIP3    H174684   5.925   6.817   3.531 -0.0464 -0.9689  0.4935
17731TIP3    H274685   5.875   6.876   3.661 -0.0616 -0.3232  0.1996
17732TIP3   OH274686   6.089   6.101   3.678 -0.0374 -0.7406  0.0213
17732TIP3    H174687   6.033   6.124   3.604  0.6860  0.0576 -0.3006
17732TIP3    H274688   6.165   6.159   3.670  0.0006 -0.5409  1.4612
17733TIP3   OH274689   0.527   6.403   3.521 -0.1036 -0.3729 -0.0864
17733TIP3    H174690   0.434   6.426   3.513 -0.4631 -1.4032  0.7953
17733TIP3    H274691   0.536   6.323   3.469  0.5618  0.3584 -1.1130
17734TIP3   OH274692   5.952   0.301   4.754  0.0448  0.2458  0.3712
17734TIP3    H174693   5.966   0.293   4.848  1.7387 -0.7243  0.0642
17734TIP3    H274694   6.007   0.375   4.728 -1.4576  1.3937  0.3168
17735TIP3   OH274695   1.493   0.954   0.286 -0.0663 -0.0353  0.4305
17735TIP3    H174696   1.469   0.908   0.366 -0.0484  0.8358  0.9502
17735TIP3    H274697   1.524   1.040   0.316 -0.9581  0.6564 -0.5595
17736TIP3   OH274698   1.552   7.048   4.527 -0.1239  0.2170  0.1077
17736TIP3    H174699   1.548   6.984   4.598 -0.7010  0.2279  0.0922
17736TIP3    H274700   1.480   7.023   4.469 -0.8132  1.2945  0.4560
17737TIP3   OH274701   1.346   4.774   0.728  0.5373  0.0046 -0.6153
17737TIP3    H174702   1.284   4.719   0.776  1.6733 -1.8541 -1.1633
17737TIP3    H274703   1.314   4.773   0.638  0.5458  0.2734 -0.6215
17738TIP3   OH274704   1.705   5.424   4.258 -0.1972 -0.3140 -0.2507
17738TIP3    H174705   1.623   5.413   4.306 -1.0867 -0.2998 -1.7179
17738TIP3    H274706   1.678   5.455   4.171  1.2750 -1.3632 -1.1277
17739TIP3   OH274707   5.611   4.722   2.710 -0.7587  0.5047  0.0583
17739TIP3    H174708   5.563   4.646   2.677  0.1790  0.5809 -1.5810
17739TIP3    H274709   5.627   4.702   2.803 -2.1507 -0.4317  0.1185
17740TIP3   OH274710   0.500   6.908   1.537  0.2919 -0.3529 -0.3341
17740TIP3    H174711   0.435   6.891   1.606 -0.6210 -0.6365 -1.2338
17740TIP3    H274712   0.448   6.936   1.462  1.1161 -1.5464 -1.3992
17741TIP3   OH274713   6.383   6.432   4.151 -0.4257  0.4341 -0.0281
17741TIP3    H174714   6.363   6.430   4.245 -1.2061  0.5776 -0.1862
17741TIP3    H274715   6.298   6.442   4.109 -0.0535  0.6133 -0.7456
17742TIP3   OH274716   4.485   6.437  11.084  0.0189  0.1953  0.4507
17742TIP3    H174717   4.497   6.471  11.172  0.2224  0.7612  0.2065
17742TIP3    H274718   4.462   6.345  11.097  1.8599 -0.2169  1.0283
17743TIP3   OH274719   0.739   2.466  12.786 -0.2759  0.2417 -0.4165
17743TIP3    H174720   0.764   2.558  12.781 -0.0402  0.1699 -0.5460
17743TIP3    H274721   0.651   2.467  12.825 -0.2006  0.5098 -0.2548
17744TIP3   OH274722   4.482   0.646   3.105  0.5280  0.0224 -0.3082
17744TIP3    H174723   4.547   0.633   3.174  1.6095  1.8300 -0.9228
17744TIP3    H274724   4.399   0.621   3.145  1.4261 -1.1437  0.9015
17745TIP3   OH274725   1.616   3.045   5.716 -0.2907  0.3205  0.2187
17745TIP3    H174726   1.564   3.101   5.657  1.4326  0.9634 -0.7807
17745TIP3    H274727   1.580   3.062   5.803 -1.3780  1.1652 -0.3644
17746TIP3   OH274728   1.471   2.023   2.071  0.1660  0.0626  0.2749
17746TIP3    H174729   1.545   2.036   2.012  0.3755 -1.0494  0.2771
17746TIP3    H274730   1.474   1.931   2.094 -0.8339  0.1444  0.8046
17747TIP3   OH274731   0.412   7.151   0.358  0.3785 -0.1987 -0.2855
17747TIP3    H174732   0.457   7.210   0.297 -0.5793  1.0302  0.1420
17747TIP3    H274733   0.440   7.180   0.445 -1.4906  0.8863  0.0096
17748TIP3   OH274734   2.637   6.756   2.032 -0.0348  0.3315 -0.4932
17748TIP3    H174735   2.659   6.731   2.122 -1.2730  0.8801 -0.0122
17748TIP3    H274736   2.640   6.673   1.983 -1.4426 -0.3511  0.5067
17749TIP3   OH274737   2.991   6.755   0.028  0.7600  1.2496 -0.3906
17749TIP3    H174738   3.022   6.824  -0.030  0.1459  2.6772  0.9181
17749TIP3    H274739   2.905   6.786   0.058 -0.3700 -0.9165 -1.1398
17750TIP3   OH274740   5.930   6.510   4.950  0.3065 -0.4257  0.0954
17750TIP3    H174741   5.865   6.444   4.973  0.9478 -1.9653 -2.1590
17750TIP3    H274742   6.000   6.498   5.015 -0.5183 -0.4780  0.9971
17751TIP3   OH274743   0.127   2.098  10.637 -0.0897 -0.0662 -0.3967
17751TIP3    H174744   0.054   2.040  10.659  0.4917 -0.5340  0.3343
17751TIP3    H274745   0.085   2.181  10.614 -0.8284 -0.1286  0.6557
17752TIP3   OH274746   7.098   3.317   4.267  0.0043 -0.6046 -0.6531
17752TIP3    H174747   7.019   3.274   4.233 -0.6101  0.4309 -0.5830
17752TIP3    H274748   7.132   3.368   4.193  0.0320 -0.2639 -0.4102
17753TIP3   OH274749   7.243   0.211   5.670  0.3842  0.5745  0.5087
17753TIP3    H174750   7.260   0.206   5.764  1.5495 -1.8426  0.2374
17753TIP3    H274751   7.255   0.121   5.639 -0.3521  1.2492 -1.8985
17754TIP3   OH274752   6.619   4.172   3.224  0.7578  0.3762  0.3940
17754TIP3    H174753   6.574   4.095   3.190  1.5760 -0.1385  0.4372
17754TIP3    H274754   6.622   4.158   3.319 -0.1792  1.0717  0.5410
17755TIP3   OH274755   7.035   5.663   1.078 -0.5442 -0.1271 -0.5391
17755TIP3    H174756   6.952   5.617   1.093 -1.2375  1.9234  3.1073
17755TIP3    H274757   7.010   5.755   1.071  1.3712  0.6378  1.4889
17756TIP3   OH274758   0.662   2.014   3.819  0.3577 -0.5194 -0.3996
17756TIP3    H174759   0.720   2.001   3.894 -1.1698 -1.3868  0.6791
17756TIP3    H274760   0.720   2.045   3.749  1.7063  1.0918  1.3318
17757TIP3   OH274761   1.975   0.576   4.418  0.5726 -0.3824 -0.0148
17757TIP3    H174762   2.057   0.624   4.424  0.8698 -0.8148 -0.5399
17757TIP3    H274763   1.996   0.498   4.366  0.1111 -1.1032  0.8552
17758TIP3   OH274764   2.276   5.811   5.876  0.0953 -0.7619 -0.1528
17758TIP3    H174765   2.310   5.777   5.959 -0.7413  2.4127  1.7044
17758TIP3    H274766   2.189   5.845   5.899  0.7133  2.2383 -1.6925
17759TIP3   OH274767   6.524   5.139  15.057  0.2619 -0.3448  0.3053
17759TIP3    H174768   6.536   5.201  14.985  0.4492  1.1476  1.5594
17759TIP3    H274769   6.449   5.085  15.030 -0.6121  1.1379 -0.3807
17760TIP3   OH274770   2.567   0.369   2.226 -0.0559  0.1964 -0.3247
17760TIP3    H174771   2.609   0.343   2.308  1.4645  1.0251 -0.8001
17760TIP3    H274772   2.551   0.287   2.180 -1.1320 -0.2970  0.8749
17761TIP3   OH274773   3.137   1.032  13.867 -0.8773 -0.8768 -0.1187
17761TIP3    H174774   3.153   1.027  13.962 -1.7651 -0.3079  0.0791
17761TIP3    H274775   3.042   1.037  13.860 -0.7897  3.1435 -0.7799
17762TIP3   OH274776   0.876   0.083   3.676 -0.2212 -0.5263 -0.7074
17762TIP3    H174777   0.900   0.012   3.617  2.0755  0.2067 -0.7350
17762TIP3    H274778   0.935   0.155   3.654 -1.0997  0.7031  0.6979
17763TIP3   OH274779   3.693   6.058  10.452 -0.1060 -0.1728 -0.4853
17763TIP3    H174780   3.651   6.119  10.513  0.1241 -0.8038  0.3356
17763TIP3    H274781   3.627   6.043  10.384 -0.3173  0.6615 -0.4760
17764TIP3   OH274782   0.900   0.452   0.111  0.4633  0.6807  0.6875
17764TIP3    H174783   0.955   0.419   0.181 -1.1078 -1.7267  0.9195
17764TIP3    H274784   0.811   0.445   0.145 -0.3775 -0.7801 -1.5488
17765TIP3   OH274785   5.025   4.316  13.259  0.0395  0.1327  0.1170
17765TIP3    H174786   5.071   4.233  13.269 -0.1840  0.0226  0.2162
17765TIP3    H274787   4.997   4.318  13.168 -0.2703 -0.0602  0.2099
17766TIP3   OH274788   0.689   2.515   5.452 -0.2243  0.4297 -0.2970
17766TIP3    H174789   0.764   2.459   5.467  0.3753  0.5516 -2.4452
17766TIP3    H274790   0.718   2.602   5.479  0.5273  0.5189 -1.3213
17767TIP3   OH274791   4.616   0.187   9.664  0.1994 -0.6168 -0.6380
17767TIP3    H174792   4.639   0.181   9.571 -1.9833  1.6765 -1.4215
17767TIP3    H274793   4.575   0.102   9.683 -0.5505 -0.6470 -2.1707
17768TIP3   OH274794   2.421   2.995   4.336 -0.2917  0.0277 -0.6813
17768TIP3    H174795   2.451   3.085   4.326  2.9472 -0.6721  1.2757
17768TIP3    H274796   2.457   2.949   4.259 -0.0551  0.0114 -0.5621
17769TIP3   OH274797   0.884   1.276   0.753 -0.4057 -0.3992 -0.3480
17769TIP3    H174798   0.807   1.333   0.748 -0.2400 -0.2368 -1.0814
17769TIP3    H274799   0.863   1.200   0.700 -0.8584 -1.3361  1.1023
17770TIP3   OH274800   2.110   3.484   4.607 -0.1132 -0.6107 -0.1297
17770TIP3    H174801   2.180   3.420   4.612 -0.9985 -1.5834  0.2595
17770TIP3    H274802   2.100   3.515   4.697 -1.7235 -2.2214  0.2952
17771TIP3   OH274803   2.675   3.924   3.590 -0.4016  0.0886 -0.0949
17771TIP3    H174804   2.588   3.886   3.589 -0.7149  0.7946 -0.6233
17771TIP3    H274805   2.690   3.952   3.499 -0.4217  1.7314  0.3798
17772TIP3   OH274806   5.746   3.206  12.051 -0.0749 -0.1899  0.1844
17772TIP3    H174807   5.765   3.127  12.002 -1.9419 -0.1215 -0.7547
17772TIP3    H274808   5.789   3.194  12.136 -0.5857 -2.3559  0.1803
17773TIP3   OH274809   6.970   1.666   4.674 -0.3669  0.1723 -0.6487
17773TIP3    H174810   7.039   1.642   4.736 -1.4114 -1.3596 -0.0160
17773TIP3    H274811   6.906   1.714   4.727 -0.1885  0.8763 -1.0587
17774TIP3   OH274812   5.833   2.949   1.307 -0.4235 -0.0686  0.5289
17774TIP3    H174813   5.889   2.884   1.264  0.4762  0.8098  0.3294
17774TIP3    H274814   5.894   3.008   1.351 -1.2904 -0.5166  2.4313
17775TIP3   OH274815   4.456   0.157  14.833  0.3418  0.6026  0.3098
17775TIP3    H174816   4.484   0.139  14.743  0.8150  0.0601  0.5624
17775TIP3    H274817   4.414   0.243  14.828 -0.2003  0.3015 -0.5483
17776TIP3   OH274818   1.267   6.306   1.336  0.1607 -0.4612  0.2202
17776TIP3    H174819   1.196   6.369   1.323  0.8228 -0.2901 -3.8227
17776TIP3    H274820   1.347   6.359   1.331  0.6715 -1.0930  1.2978
17777TIP3   OH274821   0.665   4.016   4.052 -0.0644  0.6193  0.0050
17777TIP3    H174822   0.710   4.064   3.983  0.7190 -1.5173 -1.0811
17777TIP3    H274823   0.672   3.924   4.026 -1.6285 -0.1099  1.8573
17778TIP3   OH274824   4.218   6.123   2.948 -0.2787 -0.6429  0.3063
17778TIP3    H174825   4.265   6.064   2.888  1.2418 -0.9463  1.6950
17778TIP3    H274826   4.275   6.128   3.025 -1.5892  0.6725  1.2454
17779TIP3   OH274827   5.553   6.312   1.675  0.3247 -0.3076  0.2130
17779TIP3    H174828   5.499   6.382   1.712 -0.0090 -0.4865  0.0747
17779TIP3    H274829   5.584   6.263   1.750  1.9789  0.9954  0.4276
17780TIP3   OH274830   2.992   6.194  13.868  0.5388 -0.0029 -0.1281
17780TIP3    H174831   3.002   6.268  13.809 -2.2780 -0.4343 -1.3346
17780TIP3    H274832   2.935   6.133  13.820  1.7005 -2.3952  1.3263
17781TIP3   OH274833   6.876   1.162   3.518  0.4997  0.1206  1.0588
17781TIP3    H174834   6.797   1.174   3.571 -0.3941  0.7252 -0.3384
17781TIP3    H274835   6.943   1.215   3.561 -0.4184  1.2562  1.1290
17782TIP3   OH274836   3.828   4.098  14.343  0.7690  0.4055  0.2231
17782TIP3    H174837   3.898   4.107  14.278 -0.6496  0.7433 -1.3397
17782TIP3    H274838   3.748   4.111  14.292 -0.4678 -0.8182  1.7937
17783TIP3   OH274839   3.769   3.256   5.637  0.4553 -0.2458  0.2009
17783TIP3    H174840   3.802   3.334   5.683  0.3450  0.8374 -1.4596
17783TIP3    H274841   3.680   3.246   5.669  0.8614 -0.4453  1.3293
17784TIP3   OH274842   5.446   2.111   1.105 -0.5304  0.0088  0.2495
17784TIP3    H174843   5.377   2.046   1.118  0.0143 -0.8422 -0.8986
17784TIP3    H274844   5.497   2.108   1.186 -1.4558  0.2033  0.8629
17785TIP3   OH274845   2.692   7.230   4.289 -0.0738 -0.0110  0.5683
17785TIP3    H174846   2.609   7.184   4.297  0.4959 -0.7038  3.8396
17785TIP3    H274847   2.747   7.170   4.238 -0.7207 -0.8640  0.8565
17786TIP3   OH274848   6.803   4.161   1.747 -0.3568 -0.3229 -0.0044
17786TIP3    H174849   6.865   4.123   1.809 -0.1005 -0.6841 -0.4775
17786TIP3    H274850   6.721   4.167   1.796 -0.2103 -0.8008  0.3083
17787TIP3   OH274851   3.206   0.492   4.928  0.1564  0.0049 -0.2578
17787TIP3    H174852   3.172   0.459   4.844  0.2951 -0.8751  0.0178
17787TIP3    H274853   3.276   0.552   4.904 -0.3901  0.4411 -0.7919
17788TIP3   OH274854   3.096   4.916   2.345  0.4931  0.8324  0.1333
17788TIP3    H174855   3.125   4.846   2.403 -0.9020  0.2952  0.2110
17788TIP3    H274856   3.013   4.885   2.309 -0.5084  2.7211  0.6903
17789TIP3   OH274857   2.586   0.129   2.082  0.5986 -0.6357 -0.4168
17789TIP3    H174858   2.671   0.086   2.095  0.2223 -1.0929  0.6792
17789TIP3    H274859   2.527   0.058   2.055  0.3950 -0.4633 -0.4299
17790TIP3   OH274860   4.609   3.115   4.147 -0.3209 -0.4703 -0.2946
17790TIP3    H174861   4.644   3.152   4.228  0.8781 -0.2836 -0.8719
17790TIP3    H274862   4.550   3.183   4.112  0.0067 -0.1024 -0.1322
17791TIP3   OH274863   5.434   1.099   1.099  0.6782  0.2046 -0.2243
17791TIP3    H174864   5.354   1.138   1.135  1.1341  0.8779  0.0807
17791TIP3    H274865   5.435   1.010   1.136 -0.3347 -0.0962 -0.8774
17792TIP3   OH274866   0.364   1.351   3.782  0.0430 -0.3375 -0.2363
17792TIP3    H174867   0.305   1.284   3.816 -0.0881  0.2588  0.7590
17792TIP3    H274868   0.437   1.302   3.744 -0.7337 -1.0604 -0.8144
17793TIP3   OH274869   4.090   5.164   3.901 -0.2491  0.7225  0.5109
17793TIP3    H174870   4.117   5.102   3.834  3.1330  0.2069  2.1753
17793TIP3    H274871   4.122   5.249   3.871  0.6230  0.6102  1.0970
17794TIP3   OH274872   4.475   2.602   3.564  0.0812 -0.2182 -0.0001
17794TIP3    H174873   4.538   2.673   3.548  2.0146 -2.0046 -0.7775
17794TIP3    H274874   4.407   2.616   3.499 -0.6795  2.0579  1.1759
17795TIP3   OH274875   5.940   5.099   1.785  0.2848 -0.3520  0.1204
17795TIP3    H174876   5.871   5.127   1.844  0.0574 -1.9942  0.6809
17795TIP3    H274877   5.935   5.160   1.712 -0.6502  0.5766  0.9334
17796TIP3   OH274878   5.914   2.604   2.817  0.8266  0.7316 -0.1746
17796TIP3    H174879   5.955   2.646   2.892  1.2389  1.1110 -0.6065
17796TIP3    H274880   5.982   2.550   2.778  0.5391  0.3264 -0.1267
17797TIP3   OH274881   2.076   4.750   0.168  0.2561 -0.2807  0.8954
17797TIP3    H174882   1.988   4.714   0.153  0.4970 -1.2720  1.7166
17797TIP3    H274883   2.079   4.829   0.114 -0.3204 -1.4655 -0.9801
17798TIP3   OH274884   4.902   5.136  14.884  0.1278 -0.1055 -0.7326
17798TIP3    H174885   4.938   5.214  14.925 -1.4232  0.4465 -0.3612
17798TIP3    H274886   4.901   5.070  14.953 -0.5760  0.2073 -0.4395
17799TIP3   OH274887   7.111   0.613   2.460 -0.0412 -0.1459  0.2747
17799TIP3    H174888   7.145   0.670   2.391  0.4105 -1.5969 -0.7422
17799TIP3    H274889   7.159   0.640   2.538  0.0939  0.9224 -0.1598
17800TIP3   OH274890   1.333   3.521   4.846 -0.0175  0.0608  0.0771
17800TIP3    H174891   1.342   3.445   4.787  1.7586 -0.0398  0.4334
17800TIP3    H274892   1.287   3.586   4.793  2.0082  0.1787 -1.7005
17801TIP3   OH274893   4.095   0.359   4.005  0.0684 -0.4516  0.0147
17801TIP3    H174894   4.008   0.393   3.982 -0.8973 -1.6129  1.7252
17801TIP3    H274895   4.103   0.279   3.954  0.5146  0.0707 -0.7604
17802TIP3   OH274896   0.283   3.676   1.703  0.3706 -0.3824 -0.0425
17802TIP3    H174897   0.377   3.693   1.708  0.0978  0.9071  1.5596
17802TIP3    H274898   0.266   3.613   1.773 -0.1352  0.4355  0.5952
17803TIP3   OH274899   6.571   3.523   2.102  0.6029 -0.3553 -0.2638
17803TIP3    H174900   6.605   3.609   2.125 -0.0713  0.1649 -1.0962
17803TIP3    H274901   6.632   3.489   2.036  0.8494 -0.5001  0.0387
17804TIP3   OH274902   6.640   3.652   3.623 -0.2546 -0.4229 -0.0063
17804TIP3    H174903   6.715   3.603   3.656 -0.8059 -1.6576 -0.5111
17804TIP3    H274904   6.564   3.603   3.655 -0.8238  0.0299 -0.6321
17805TIP3   OH274905   1.774   6.285   2.788 -0.2608  0.1304 -1.1451
17805TIP3    H174906   1.793   6.272   2.695  1.7422 -2.3094 -0.5009
17805TIP3    H274907   1.851   6.330   2.822 -0.4759  0.0050 -0.4792
17806TIP3   OH274908   6.757   4.805   3.572 -0.2053 -0.0085  0.5761
17806TIP3    H174909   6.666   4.784   3.553  0.2744 -1.3274 -0.4542
17806TIP3    H274910   6.770   4.775   3.662 -0.5411 -0.6859  0.4021
17807TIP3   OH274911   1.642   2.491   3.895  0.4864 -0.6633 -0.4404
17807TIP3    H174912   1.705   2.562   3.885 -0.5658  0.5258  1.0019
17807TIP3    H274913   1.666   2.428   3.826  1.4710  1.0449 -1.7415
17808TIP3   OH274914   6.604   3.450   3.967 -0.5882  0.1500 -0.1666
17808TIP3    H174915   6.655   3.505   4.027 -0.2820  0.5001 -0.7389
17808TIP3    H274916   6.669   3.412   3.908 -0.9055 -0.0342 -0.4019
17809TIP3   OH274917   5.846   3.145   4.658 -0.1112  0.6974  0.2765
17809TIP3    H174918   5.860   3.238   4.641 -0.4762  0.8603  0.8585
17809TIP3    H274919   5.766   3.123   4.612  0.8519  0.2585 -1.2807
17810TIP3   OH274920   6.426   0.267   5.318  0.3912  0.3450 -0.3640
17810TIP3    H174921   6.439   0.212   5.240 -1.3329 -0.9203  0.1946
17810TIP3    H274922   6.506   0.254   5.370  1.5089  1.1024 -1.8015
17811TIP3   OH274923   2.583   2.085   9.870 -0.5307 -0.3853  0.0780
17811TIP3    H174924   2.619   2.169   9.841 -1.1993 -0.1093  0.0273
17811TIP3    H274925   2.527   2.057   9.798  0.5308 -1.4175 -0.3760
17812TIP3   OH274926   1.366   6.429   4.584  0.4625 -0.6190  0.0341
17812TIP3    H174927   1.424   6.364   4.543  1.5148 -0.2597  0.8957
17812TIP3    H274928   1.412   6.455   4.663 -0.3728  0.5156  0.1732
17813TIP3   OH274929   3.503   2.725   3.129  0.4082 -0.2789  0.4861
17813TIP3    H174930   3.435   2.733   3.063 -0.0980 -2.0486  0.7247
17813TIP3    H274931   3.545   2.811   3.132  0.4916 -0.1512 -2.1528
17814TIP3   OH274932   2.815   2.780   2.997  0.2417 -0.0621 -0.1379
17814TIP3    H174933   2.741   2.833   2.966 -0.6171 -0.3636  1.3377
17814TIP3    H274934   2.801   2.694   2.959 -0.4734 -0.2622  0.5607
17815TIP3   OH274935   3.801   4.036   3.901  0.3037  0.2215 -0.2776
17815TIP3    H174936   3.743   3.959   3.895 -0.0866  0.4507  0.4367
17815TIP3    H274937   3.845   4.039   3.816  1.7291 -1.8799  0.2937
17816TIP3   OH274938   2.477   6.377   5.967 -0.2835 -0.0611 -0.2109
17816TIP3    H174939   2.428   6.392   5.887 -1.9270  0.0253  0.7714
17816TIP3    H274940   2.417   6.400   6.038  1.2539  0.2743  1.0592
17817TIP3   OH274941   6.839   1.980   0.994 -0.1285 -0.8115  0.1501
17817TIP3    H174942   6.775   1.913   0.971  0.2438 -1.8494  1.9911
17817TIP3    H274943   6.887   1.944   1.069  1.7973  0.4498 -0.3935
17818TIP3   OH274944   1.189   5.702   3.249 -0.2223  0.2732 -0.3503
17818TIP3    H174945   1.283   5.722   3.254 -0.2337  0.5908 -1.1925
17818TIP3    H274946   1.151   5.746   3.325 -0.0934  2.6686 -1.5566
17819TIP3   OH274947   2.973   5.701   4.108  0.0954  0.6709  0.3059
17819TIP3    H174948   2.975   5.712   4.013  0.9045  1.7154  0.4162
17819TIP3    H274949   2.881   5.711   4.132 -0.1920 -0.1208 -0.4091
17820TIP3   OH274950   2.041   0.401   2.480  0.9128  0.2986  0.1233
17820TIP3    H174951   1.975   0.405   2.411  0.3659 -2.5242  0.3554
17820TIP3    H274952   2.115   0.355   2.441  1.5242  0.6986  0.7692
17821TIP3   OH274953   1.618   0.337   4.318 -0.2246  0.0354 -0.2590
17821TIP3    H174954   1.590   0.283   4.245 -0.4855  0.7134 -0.6696
17821TIP3    H274955   1.659   0.413   4.277  0.8416 -0.2082  0.3148
17822TIP3   OH274956   5.319   2.648  11.959  0.1887 -0.4620  0.5205
17822TIP3    H174957   5.345   2.740  11.960 -0.3054 -0.2770  2.9534
17822TIP3    H274958   5.225   2.649  11.977  0.1738 -1.4490  0.5443
17823TIP3   OH274959   4.397   6.423   0.380 -0.1065 -0.1606  0.0156
17823TIP3    H174960   4.488   6.441   0.404 -0.2177  2.5122 -1.2223
17823TIP3    H274961   4.363   6.507   0.350 -2.4566 -1.4830 -1.3109
17824TIP3   OH274962   6.978   5.966   1.068  0.0707  0.2767  0.3542
17824TIP3    H174963   7.004   6.052   1.035  0.1246  0.3543  0.5946
17824TIP3    H274964   6.911   5.984   1.133 -0.0059  0.1284  0.3171
17825TIP3   OH274965   2.373   6.098   4.496 -0.0344  0.1087 -0.0097
17825TIP3    H174966   2.337   6.072   4.581 -1.8537  1.1033 -0.4306
17825TIP3    H274967   2.441   6.163   4.517  1.2119 -1.3713  0.7667
17826TIP3   OH274968   0.462   4.871   0.735 -0.0505 -0.0971  0.0359
17826TIP3    H174969   0.464   4.902   0.644  2.0939  1.1385  0.4169
17826TIP3    H274970   0.395   4.926   0.777 -0.8860 -0.5122 -0.7247
17827TIP3   OH274971   0.404   1.703   3.044  0.4424  0.6338 -0.0500
17827TIP3    H174972   0.498   1.724   3.042  0.2477  1.5789 -1.9752
17827TIP3    H274973   0.372   1.732   2.958 -1.2556 -1.3861 -0.1575
17828TIP3   OH274974   5.113   0.641   2.909 -0.7236 -0.4686  0.1626
17828TIP3    H174975   5.178   0.608   2.971  2.1128  0.9923 -1.8191
17828TIP3    H274976   5.103   0.734   2.931  0.7327  0.2115 -1.7318
17829TIP3   OH274977   6.923   4.055  14.496  0.2823 -0.9870  0.4954
17829TIP3    H174978   6.966   4.139  14.478  2.2076 -1.9932  0.0981
17829TIP3    H274979   6.955   4.031  14.583  1.2305 -2.1438 -0.1454
17830TIP3   OH274980   4.756   4.544   1.864  0.7509 -0.2549 -0.1019
17830TIP3    H174981   4.811   4.543   1.942 -0.0023 -1.4913  0.4419
17830TIP3    H274982   4.715   4.630   1.864  0.6927 -0.2775  0.9095
17831TIP3   OH274983   0.478   1.515   1.194  0.2811 -0.0756  0.2699
17831TIP3    H174984   0.532   1.581   1.238  0.8465 -0.8846  0.8406
17831TIP3    H274985   0.391   1.555   1.187  1.1182  1.6022 -1.4469
17832TIP3   OH274986   5.633   0.921  15.230  0.1729 -0.9719 -0.6669
17832TIP3    H174987   5.711   0.871  15.210 -0.2297 -1.4861 -0.9793
17832TIP3    H274988   5.615   0.970  15.149 -0.4030 -1.6427 -0.9635
17833TIP3   OH274989   5.286   2.425   0.802  0.2109  0.2157  0.1004
17833TIP3    H174990   5.330   2.417   0.886  0.6661  1.4351  0.0063
17833TIP3    H274991   5.348   2.474   0.747 -0.8002  1.0123 -0.3686
17834TIP3   OH274992   0.872   2.570   5.843 -0.6373  0.4134 -0.1021
17834TIP3    H174993   0.873   2.619   5.761  0.9237  0.7273  0.0689
17834TIP3    H274994   0.804   2.612   5.895 -0.8967  0.9045 -0.8202
17835TIP3   OH274995   7.209   4.530   0.291  0.2463  0.6363  0.2639
17835TIP3    H174996   7.296   4.513   0.326  0.5213  0.8219 -0.3288
17835TIP3    H274997   7.172   4.443   0.275  0.2094  0.5525  0.7784
17836TIP3   OH274998   0.196   1.086   4.576 -0.0195 -0.2482 -0.2601
17836TIP3    H174999   0.228   1.044   4.495  0.9305 -2.2590  1.0628
17836TIP3    H275000   0.137   1.021   4.614  0.9037 -0.1057  1.5101
17837TIP3   OH275001   4.892   1.397   2.941  0.7704 -0.2744  0.1151
17837TIP3    H175002   4.842   1.318   2.922 -0.5390  0.3356  0.8756
17837TIP3    H275003   4.972   1.365   2.983  0.3641 -1.2068  0.2097
17838TIP3   OH275004   0.250   6.808   2.471  0.0079 -0.1229  0.6867
17838TIP3    H175005   0.204   6.747   2.528  0.4410 -0.5670  0.5692
17838TIP3    H275006   0.209   6.795   2.385  0.2837 -0.4632  0.5993
17839TIP3   OH275007   0.574   2.575  10.671  0.4215  0.2713 -0.3086
17839TIP3    H175008   0.663   2.609  10.684  0.1894  0.4871  0.7531
17839TIP3    H275009   0.517   2.642  10.708 -0.0871 -0.7927  0.9009
17840TIP3   OH275010   0.877   7.150   1.713  0.7712  0.1567  0.2135
17840TIP3    H175011   0.791   7.188   1.696  0.7347  0.1616  0.4125
17840TIP3    H275012   0.938   7.203   1.661  0.6923  0.3407  0.3091
17841TIP3   OH275013   5.820   3.972   0.853  0.6291  0.1427  0.3175
17841TIP3    H175014   5.749   3.971   0.788  2.2995  0.1492 -1.5998
17841TIP3    H275015   5.779   4.007   0.932 -1.9006 -1.3796 -0.1923
17842TIP3   OH275016   0.676   1.190   4.295 -0.1676 -0.2480  0.2190
17842TIP3    H175017   0.763   1.230   4.302  0.3935 -1.4654  0.4729
17842TIP3    H275018   0.681   1.113   4.351 -0.4931 -1.8946 -1.9193
17843TIP3   OH275019   1.614   4.290   3.305  0.2266 -0.1306  0.0696
17843TIP3    H175020   1.596   4.207   3.261  0.6283 -0.3020  0.2261
17843TIP3    H275021   1.529   4.318   3.339  0.2867 -1.0926  1.0799
17844TIP3   OH275022   2.856   7.133   4.099  0.5345 -0.2052  0.0329
17844TIP3    H175023   2.803   7.206   4.067  1.1793  0.0077 -0.5614
17844TIP3    H275024   2.930   7.175   4.144  0.0006 -0.4974  1.2419
17845TIP3   OH275025   1.907   5.861   1.948 -0.2761 -0.1874  0.0869
17845TIP3    H175026   1.896   5.855   2.043 -1.2073  1.5888  0.1274
17845TIP3    H275027   1.990   5.815   1.931  0.9814  1.2022  2.0099
17846TIP3   OH275028   0.263   2.507   3.556 -0.0954 -0.1589 -0.4073
17846TIP3    H175029   0.237   2.533   3.645 -1.1862 -1.9780 -0.1639
17846TIP3    H275030   0.358   2.517   3.556  0.0735 -1.3179  1.3942
17847TIP3   OH275031   2.665   1.459  13.662  0.1281 -0.1127  0.5104
17847TIP3    H175032   2.654   1.537  13.716  3.8620  1.0028 -0.0277
17847TIP3    H275033   2.617   1.478  13.582 -2.3724 -0.2046  1.9055
17848TIP3   OH275034   3.944   2.849   3.553 -0.2166 -0.0228  0.0671
17848TIP3    H175035   3.876   2.819   3.493 -0.5883 -0.7372  0.8115
17848TIP3    H275036   4.001   2.773   3.564  2.5254  1.3718 -2.8568
17849TIP3   OH275037   1.877   0.361   3.016 -0.2995 -0.1281  0.5666
17849TIP3    H175038   1.870   0.266   3.005 -3.1249  0.0967 -0.4806
17849TIP3    H275039   1.928   0.391   2.941 -1.0539 -0.6842 -0.1909
17850TIP3   OH275040   3.234   1.589   3.750  0.6239 -0.5900  0.6300
17850TIP3    H175041   3.271   1.566   3.665 -0.2154  1.2394 -0.2684
17850TIP3    H275042   3.272   1.524   3.810  0.9252 -2.1731 -1.1694
17851TIP3   OH275043   5.314   0.265   5.284  0.2164 -0.2813 -0.5952
17851TIP3    H175044   5.251   0.207   5.240  0.1754 -1.4736  0.9572
17851TIP3    H275045   5.264   0.309   5.352  0.8538 -0.6120  0.1076
17852TIP3   OH275046   0.007   0.140   3.089  0.6221  0.5545  0.4115
17852TIP3    H175047   0.048   0.057   3.111  1.7807  0.9049 -0.3359
17852TIP3    H275048  -0.056   0.155   3.160  0.1599 -1.0922  0.3851
17853TIP3   OH275049   1.688   0.505   1.457 -0.2310  0.5629 -0.4580
17853TIP3    H175050   1.610   0.460   1.423 -1.1610 -1.5310  3.7844
17853TIP3    H275051   1.681   0.594   1.422 -3.0946 -0.2487 -2.3468
17854TIP3   OH275052   5.816   5.852   5.401 -0.5525  0.4932  0.5631
17854TIP3    H175053   5.819   5.797   5.480 -1.6334  0.9188  0.9237
17854TIP3    H275054   5.871   5.806   5.338 -2.1359 -1.5274  0.5503
17855TIP3   OH275055   0.510   4.598   4.059 -0.1666 -0.3299 -0.0627
17855TIP3    H175056   0.444   4.578   4.125 -0.5251 -0.5643 -0.4834
17855TIP3    H275057   0.590   4.616   4.109 -0.5199 -0.1448  0.4459
17856TIP3   OH275058   6.320   7.139   5.856  0.3137 -0.2840 -0.6002
17856TIP3    H175059   6.407   7.168   5.829  0.6919 -0.4438  0.4209
17856TIP3    H275060   6.336   7.078   5.927 -0.6699  0.2935  0.1402
17857TIP3   OH275061   1.080   1.783   3.272 -0.5361  0.1165 -0.5765
17857TIP3    H175062   1.075   1.794   3.367 -0.5276 -1.2650 -0.4027
17857TIP3    H275063   1.155   1.725   3.258 -1.2300 -0.6268 -1.3357
17858TIP3   OH275064   5.205   0.607   2.646 -0.4853 -0.2119  0.1288
17858TIP3    H175065   5.274   0.552   2.683 -0.1969  0.2541  0.3014
17858TIP3    H275066   5.162   0.645   2.723 -1.9248 -1.6531  0.0895
17859TIP3   OH275067   6.917   0.020   4.485  0.0397 -0.2454  0.5695
17859TIP3    H175068   6.867   0.101   4.474  0.6184  0.0248 -0.1826
17859TIP3    H275069   6.990   0.045   4.542  1.0829  0.1837 -0.8769
17860TIP3   OH275070   3.928   0.576   3.704 -0.1541  0.0072  0.0953
17860TIP3    H175071   3.894   0.498   3.662 -0.3494  0.9561 -1.5865
17860TIP3    H275072   3.850   0.629   3.723  0.0696  0.3639  0.0277
17861TIP3   OH275073   3.945   1.783   1.494  0.4678  0.2981 -0.4165
17861TIP3    H175074   4.000   1.724   1.441 -0.5252  1.2893 -2.6752
17861TIP3    H275075   3.918   1.729   1.568  3.0129 -0.7583 -0.1206
17862TIP3   OH275076   4.322   5.512  14.651  0.3480 -0.1395  0.6569
17862TIP3    H175077   4.312   5.499  14.557  0.2468 -0.9296  0.7721
17862TIP3    H275078   4.236   5.545  14.680 -0.1777 -1.5386  0.7411
17863TIP3   OH275079   4.033   6.262  15.343  1.0866  0.0443  0.3463
17863TIP3    H175080   3.995   6.281  15.257  1.4128 -0.1701  0.1525
17863TIP3    H275081   4.000   6.175  15.365 -1.2178  1.1594  1.6848
17864TIP3   OH275082   4.917   4.138   2.292  0.0077 -0.3257 -0.7564
17864TIP3    H175083   4.946   4.056   2.252  1.2988 -0.0390 -0.4666
17864TIP3    H275084   4.863   4.179   2.225 -1.2154 -1.7007 -0.6523
17865TIP3   OH275085   5.977   3.449   1.160 -0.2118  0.3986 -0.1998
17865TIP3    H175086   6.020   3.424   1.078  0.2793  0.0053  0.1665
17865TIP3    H275087   5.900   3.498   1.133  0.2250  0.7228 -0.8902
17866TIP3   OH275088   4.273   2.944   5.785 -0.4908  0.2601  0.0469
17866TIP3    H175089   4.289   2.959   5.691  0.4291 -1.5802 -0.1188
17866TIP3    H275090   4.328   3.009   5.829 -0.0509  0.3915 -0.6780
17867TIP3   OH275091   6.912   1.997   2.927  0.2262 -0.6398 -0.2782
17867TIP3    H175092   6.820   2.021   2.930  0.3198 -0.2665 -0.2013
17867TIP3    H275093   6.917   1.912   2.971  0.3548  0.8498  2.9136
17868TIP3   OH275094   1.433   5.106  13.805 -0.3597  0.3048 -0.2043
17868TIP3    H175095   1.393   5.041  13.862  0.6129 -1.6305 -1.6042
17868TIP3    H275096   1.391   5.188  13.829 -1.7737 -0.8505  1.5306
17869TIP3   OH275097   5.364   0.943   4.505  0.1670  0.2339 -0.1157
17869TIP3    H175098   5.356   0.917   4.597 -0.9663  0.2099 -0.2064
17869TIP3    H275099   5.344   1.037   4.506  0.4538  0.2961 -0.2963
17870TIP3   OH275100   4.888   6.639   5.331 -0.0762 -0.3441  1.0132
17870TIP3    H175101   4.823   6.639   5.402 -0.2518  0.5487  0.8756
17870TIP3    H275102   4.962   6.687   5.367 -0.1080 -0.0167  0.6567
17871TIP3   OH275103   3.288   5.806   3.533  0.0095  0.0979 -0.5939
17871TIP3    H175104   3.289   5.713   3.509  1.2151 -0.4471  1.3571
17871TIP3    H275105   3.197   5.823   3.556 -0.3403 -0.4380 -1.5306
17872TIP3   OH275106   6.630   2.967   4.511  0.0045  0.2863  0.1033
17872TIP3    H175107   6.560   2.936   4.453 -1.1814  1.5799  0.7869
17872TIP3    H275108   6.703   2.908   4.494 -1.6903 -2.0629  0.3778
17873TIP3   OH275109   5.918   4.158  14.593  0.4422  0.1998 -0.4189
17873TIP3    H175110   5.913   4.211  14.514  1.1710 -0.3802 -0.8751
17873TIP3    H275111   5.868   4.206  14.659  0.2613  0.9431 -1.0934
17874TIP3   OH275112   5.347   2.003   2.014  0.1140  0.2986 -0.0981
17874TIP3    H175113   5.429   1.966   1.981  0.1217  0.9776 -0.8916
17874TIP3    H275114   5.374   2.060   2.086  0.8716  3.4528 -2.6430
17875TIP3   OH275115   2.460   4.189  11.104  0.4343 -0.1465 -0.2077
17875TIP3    H175116   2.494   4.111  11.148 -0.1205 -0.9792 -1.2055
17875TIP3    H275117   2.485   4.262  11.161  1.5855 -0.9776  0.3831
17876TIP3   OH275118   4.263   5.624   3.149 -0.0507  0.5610  0.4025
17876TIP3    H175119   4.314   5.544   3.162 -0.5489  0.4404  1.7486
17876TIP3    H275120   4.282   5.650   3.059  0.5854 -0.7415  0.1363
17877TIP3   OH275121   2.031   5.598   2.618 -0.1500 -0.0482 -0.0907
17877TIP3    H175122   2.066   5.516   2.653  0.0492  0.7739  1.7746
17877TIP3    H275123   2.015   5.652   2.696 -2.0555  1.0014 -1.1249
17878TIP3   OH275124   5.391   3.653  11.725 -0.0376  0.4156  0.2010
17878TIP3    H175125   5.468   3.677  11.673 -0.4047 -1.2344 -1.1718
17878TIP3    H275126   5.413   3.568  11.763 -0.3748  0.9109  1.5840
17879TIP3   OH275127   1.489   2.090   2.467 -0.2790  0.6779 -0.0731
17879TIP3    H175128   1.417   2.135   2.423 -0.6206  1.2704  1.0452
17879TIP3    H275129   1.456   2.073   2.556  0.0382 -1.3142 -0.2872
17880TIP3   OH275130   2.099   5.827  11.512 -0.0641 -0.6223  0.0539
17880TIP3    H175131   2.044   5.786  11.446 -1.5353  0.0542  0.8157
17880TIP3    H275132   2.104   5.764  11.583 -0.4255 -0.4204  0.2628
17881TIP3   OH275133   2.409   2.104  12.843 -0.5472  0.5407  0.6587
17881TIP3    H175134   2.451   2.035  12.895  2.0357  0.3590 -1.4296
17881TIP3    H275135   2.438   2.186  12.883 -0.2261  0.3989  0.7180
17882TIP3   OH275136   6.000   5.198   4.776  0.0412 -0.2377 -0.2442
17882TIP3    H175137   5.911   5.182   4.746 -1.3652  3.4565  1.4209
17882TIP3    H275138   6.028   5.113   4.812 -1.9771 -2.0023 -2.4963
17883TIP3   OH275139   3.686   2.071  14.394  0.3048  0.6833 -0.4977
17883TIP3    H175140   3.752   2.108  14.452  1.6017 -0.2966 -1.2931
17883TIP3    H275141   3.691   1.976  14.408 -0.2135  0.5196 -1.3326
17884TIP3   OH275142   5.320   1.411   2.505  0.1814 -0.1016 -0.4906
17884TIP3    H175143   5.304   1.471   2.578  0.8709 -1.0662  0.4889
17884TIP3    H275144   5.393   1.450   2.458  0.5005 -0.0581  0.0292
17885TIP3   OH275145   4.215   2.922  12.404  0.5077  0.7144 -0.4403
17885TIP3    H175146   4.179   2.954  12.487  0.0505  3.5034 -1.5939
17885TIP3    H275147   4.184   2.831  12.398 -0.1252  0.6919  2.0316
17886TIP3   OH275148   4.797   1.880   1.914 -0.2109  0.0353  0.2024
17886TIP3    H175149   4.870   1.858   1.856 -0.5843 -0.0282 -0.2547
17886TIP3    H275150   4.719   1.854   1.864 -0.5207 -0.4638  0.9315
17887TIP3   OH275151   1.871   2.590  14.780 -0.1346  0.1760  1.2152
17887TIP3    H175152   1.800   2.651  14.801 -1.0996 -0.9327  1.2914
17887TIP3    H275153   1.950   2.643  14.781 -1.1863  1.9940 -1.1620
17888TIP3   OH275154   1.955   5.128   2.350 -0.1826 -0.4819 -0.3241
17888TIP3    H175155   1.871   5.170   2.334 -0.7049 -1.1741  0.4902
17888TIP3    H275156   1.970   5.140   2.444 -0.0266 -1.5064 -0.2031
17889TIP3   OH275157   1.512   7.052  14.977 -0.5256 -0.1159 -0.6846
17889TIP3    H175158   1.485   7.123  14.919 -2.3338 -1.4365 -1.5687
17889TIP3    H275159   1.432   7.002  14.992 -0.4274  0.6565  3.7964
17890TIP3   OH275160   4.981   6.687   3.332 -0.0960 -0.1760 -0.0982
17890TIP3    H175161   4.993   6.660   3.423  0.0325 -0.6257 -0.2470
17890TIP3    H275162   5.041   6.761   3.321  1.2285 -1.2482 -0.3161
17891TIP3   OH275163   1.698   5.680   3.396 -0.1233 -0.0717 -0.4586
17891TIP3    H175164   1.723   5.588   3.384  0.8017  0.2004 -0.6819
17891TIP3    H275165   1.689   5.689   3.491  2.0939  0.1492 -0.2043
17892TIP3   OH275166   2.455   2.116   5.115  0.8214  0.0700 -0.1898
17892TIP3    H175167   2.428   2.031   5.081 -0.6502 -1.1475  3.5279
17892TIP3    H275168   2.400   2.179   5.067 -1.7989 -1.5808  0.4291
17893TIP3   OH275169   1.194   2.517  13.246  0.5126  0.4385  0.1549
17893TIP3    H175170   1.248   2.439  13.239  1.6351  1.2520 -0.4171
17893TIP3    H275171   1.163   2.517  13.337  3.1237  0.9882  1.1354
17894TIP3   OH275172   2.742   1.022  15.168 -0.2520  0.4907 -0.1224
17894TIP3    H175173   2.733   1.106  15.212  1.7330  1.2395 -1.0387
17894TIP3    H275174   2.810   0.976  15.219  1.0559  0.8115 -1.5124
17895TIP3   OH275175   0.542   4.049   5.440 -0.1416  0.4776  0.4641
17895TIP3    H175176   0.469   3.999   5.477  1.0885 -1.7517  0.0508
17895TIP3    H275177   0.557   4.119   5.504 -2.1151  0.5561  0.9275
17896TIP3   OH275178   7.152   3.957  10.682 -0.1463  0.3533 -0.6767
17896TIP3    H175179   7.195   4.022  10.627  0.8306  0.4081  0.1164
17896TIP3    H275180   7.083   4.006  10.726  1.0738  1.0948  0.5054
17897TIP3   OH275181   4.891   2.072   2.990 -1.2449  0.1930 -0.2679
17897TIP3    H175182   4.804   2.044   2.960 -1.2603  0.8333 -0.8509
17897TIP3    H275183   4.885   2.070   3.085 -1.6018 -0.6552 -0.2926
17898TIP3   OH275184   0.018   1.673   4.527 -0.0124 -0.2322 -0.1059
17898TIP3    H175185   0.061   1.626   4.456 -2.1195 -0.6974 -1.1450
17898TIP3    H275186   0.065   1.756   4.534  0.8412 -0.5943 -1.3608
17899TIP3   OH275187   5.131   3.044  13.808  0.4643 -0.2059 -0.2365
17899TIP3    H175188   5.203   2.984  13.828 -0.7400 -1.4578  0.5140
17899TIP3    H275189   5.172   3.131  13.805  2.3475 -1.0754 -1.8936
17900TIP3   OH275190   4.691   4.260   4.297 -0.5970 -0.1148  0.2245
17900TIP3    H175191   4.665   4.255   4.389 -1.4392 -0.2786 -0.0092
17900TIP3    H275192   4.608   4.265   4.249 -0.1836 -0.6205 -0.5623
17901TIP3   OH275193   2.649   1.505   2.505  0.1606  0.1071  0.0910
17901TIP3    H175194   2.680   1.596   2.506  1.0201 -0.1198 -1.7834
17901TIP3    H275195   2.634   1.484   2.597  0.1499  2.0762  0.5836
17902TIP3   OH275196   6.860   3.520   0.550 -0.0595 -0.1372 -0.2030
17902TIP3    H175197   6.809   3.449   0.510 -0.8506 -1.8241  3.3334
17902TIP3    H275198   6.802   3.554   0.619  0.3780  3.9664 -1.6312
17903TIP3   OH275199   3.739   3.327   3.711  0.6113 -0.4353 -0.1714
17903TIP3    H175200   3.682   3.343   3.636 -0.4676  1.4953  0.9709
17903TIP3    H275201   3.699   3.252   3.756  1.8656 -2.3117 -1.9904
17904TIP3   OH275202   3.353   1.071   4.343  0.0748  0.0326  0.3577
17904TIP3    H175203   3.307   1.093   4.262  1.0782 -2.1483 -0.8835
17904TIP3    H275204   3.422   1.137   4.349 -0.3687  0.5708 -0.2431
17905TIP3   OH275205   2.821   6.983   0.771  0.0131  0.2468 -0.6337
17905TIP3    H175206   2.793   6.892   0.780 -1.8047  0.8320  0.1906
17905TIP3    H275207   2.796   7.008   0.682  0.8128 -0.1390 -0.9726
17906TIP3   OH275208   6.066   4.832   4.583 -0.4592  0.2235  0.4898
17906TIP3    H175209   5.971   4.830   4.571 -0.4152 -2.8725 -0.1888
17906TIP3    H275210   6.078   4.871   4.670 -2.4721 -0.8832  1.3293
17907TIP3   OH275211   1.904   2.673   4.837 -0.2892  0.0646 -0.1916
17907TIP3    H175212   1.995   2.660   4.864  0.2240 -1.2953 -2.3333
17907TIP3    H275213   1.871   2.740   4.897  1.4237 -0.9783  2.0939
17908TIP3   OH275214   6.034   5.032  13.538 -0.4155  0.0704  0.1856
17908TIP3    H175215   6.110   5.010  13.592 -1.0512 -0.8414  0.7560
17908TIP3    H275216   6.062   5.105  13.484  0.4352  0.6373  1.3494
17909TIP3   OH275217   2.747   1.823   3.278  0.6822 -0.6093  0.3175
17909TIP3    H175218   2.790   1.753   3.327  0.3222 -1.3034 -0.3200
17909TIP3    H275219   2.687   1.864   3.340  0.1520 -1.5462  0.4407
17910TIP3   OH275220   5.209   2.072   3.995  0.3322  0.0477 -0.2965
17910TIP3    H175221   5.120   2.082   3.962  1.0156  0.0134 -2.3015
17910TIP3    H275222   5.202   2.007   4.064 -1.3046  0.6552  0.1606
17911TIP3   OH275223   0.393   1.951  15.171 -0.2434 -0.2516  0.7546
17911TIP3    H175224   0.413   1.859  15.190  1.5815 -0.0126  0.2473
17911TIP3    H275225   0.376   1.952  15.077 -0.7078 -0.1294  0.8383
17912TIP3   OH275226   7.175   5.771   4.062  0.0907  0.0178 -0.7673
17912TIP3    H175227   7.230   5.779   3.984 -0.0353 -0.6529 -0.9286
17912TIP3    H275228   7.154   5.861   4.086  1.2513  0.2901 -0.7112
17913TIP3   OH275229   1.425   3.281  14.507 -0.0649  0.0384 -0.7266
17913TIP3    H175230   1.506   3.330  14.520  0.4167 -0.6786 -0.9182
17913TIP3    H275231   1.454   3.191  14.490 -0.9049 -0.2431 -0.7377
17914TIP3   OH275232   3.475   1.641   3.529  0.4514  1.3617  0.4984
17914TIP3    H175233   3.429   1.557   3.521  1.0044  0.8701  1.9910
17914TIP3    H275234   3.546   1.635   3.466  2.5539 -0.8134  2.7882
17915TIP3   OH275235   3.862   4.755   4.824 -0.2246  0.1413 -0.6977
17915TIP3    H175236   3.847   4.730   4.915  2.1114  0.8613 -0.0282
17915TIP3    H275237   3.774   4.766   4.787 -1.4142  3.2091  2.4329
17916TIP3   OH275238   6.391   2.233   1.704 -0.2468  0.2178  0.1279
17916TIP3    H175239   6.425   2.316   1.669  0.3099 -1.5023 -4.0119
17916TIP3    H275240   6.426   2.166   1.645 -4.4038 -2.5210  0.3227
17917TIP3   OH275241   4.520   0.678   2.038 -0.2866  0.8139  0.0330
17917TIP3    H175242   4.511   0.590   2.076 -0.7923  1.4543  1.4770
17917TIP3    H275243   4.446   0.686   1.979 -1.1134  0.7959  1.0329
17918TIP3   OH275244   2.329   4.962   2.224 -0.0418 -0.1581  0.3596
17918TIP3    H175245   2.321   4.976   2.318 -0.0730 -2.7046  0.8112
17918TIP3    H275246   2.269   5.025   2.185 -0.2578  0.7335  2.0470
17919TIP3   OH275247   6.087   3.281  11.349 -0.3322 -0.3665 -0.4039
17919TIP3    H175248   6.081   3.236  11.433 -0.3137  1.9462  0.9186
17919TIP3    H275249   6.176   3.265  11.319  0.3736  0.5032  1.1044
17920TIP3   OH275250   6.502   4.303   4.410 -0.1576 -0.0102  0.0861
17920TIP3    H175251   6.579   4.274   4.362 -1.4503 -1.7139 -1.0904
17920TIP3    H275252   6.503   4.398   4.403  1.0230 -0.0913 -1.1969
17921TIP3   OH275253   1.889   2.635   1.763  0.0475  0.4364  0.0409
17921TIP3    H175254   1.971   2.601   1.727 -0.1488  0.5408 -0.5188
17921TIP3    H275255   1.822   2.609   1.699 -0.9346 -2.7057  2.1076
17922TIP3   OH275256   0.385   2.470   1.433  0.6292  0.9414  0.4744
17922TIP3    H175257   0.394   2.414   1.510 -1.2720  0.3350  0.3083
17922TIP3    H275258   0.430   2.423   1.363  0.4490  0.4077  0.7132
17923TIP3   OH275259   4.614   0.844   2.254  0.1566 -0.1553 -0.3173
17923TIP3    H175260   4.548   0.803   2.198 -2.7050  0.0955  2.5643
17923TIP3    H275261   4.679   0.775   2.270 -1.6903 -1.8796  0.1081
17924TIP3   OH275262   1.100   7.040   3.391 -0.8944 -0.8016  0.5475
17924TIP3    H175263   1.014   7.058   3.428 -1.8313 -0.9289 -1.4350
17924TIP3    H275264   1.088   7.049   3.296  1.6294  0.7155  0.2538
17925TIP3   OH275265   5.159   0.120   0.551  0.2259 -0.6718  0.9435
17925TIP3    H175266   5.234   0.068   0.522 -0.0674 -0.0781 -0.9893
17925TIP3    H275267   5.178   0.139   0.643  1.8637 -1.5324  0.8236
17926TIP3   OH275268   7.125   1.238   4.403 -0.2767  0.4087 -0.4792
17926TIP3    H175269   7.090   1.276   4.483  1.0746  3.3602 -1.1636
17926TIP3    H275270   7.208   1.198   4.429 -0.8683 -0.5989 -0.0723
17927TIP3   OH275271   4.255   0.196   4.612 -0.6440 -0.2523  0.0557
17927TIP3    H175272   4.207   0.134   4.557 -0.6009  0.4566 -0.7846
17927TIP3    H275273   4.197   0.271   4.621 -0.7549 -0.4533  1.2003
17928TIP3   OH275274   4.633   5.096   5.568 -0.9417 -0.3754  0.1064
17928TIP3    H175275   4.541   5.108   5.595 -0.4660  1.9082  0.9623
17928TIP3    H275276   4.674   5.051   5.642 -0.9285  0.5487  0.6745
17929TIP3   OH275277   6.046   3.123   3.311 -0.2370 -0.0332 -0.0048
17929TIP3    H175278   6.065   3.161   3.397 -0.4962  1.4510 -0.5596
17929TIP3    H275279   5.951   3.114   3.309 -0.2250 -0.1455 -0.0938
17930TIP3   OH275280   3.443   2.368   0.782 -0.0804  0.2219 -0.3482
17930TIP3    H175281   3.478   2.403   0.863 -1.1527  0.0796  0.1953
17930TIP3    H275282   3.376   2.306   0.809 -0.0988 -0.2188 -1.3385
17931TIP3   OH275283   3.890   0.448   2.404  0.2992 -0.3752  0.4181
17931TIP3    H175284   3.891   0.355   2.426  1.7344 -0.5897 -0.4262
17931TIP3    H275285   3.896   0.493   2.489 -2.7318 -0.9448  1.0337
17932TIP3   OH275286   1.994   1.869   1.910 -0.3945 -0.4740 -0.3668
17932TIP3    H175287   1.968   1.795   1.965 -0.0681  0.0605  0.5201
17932TIP3    H275288   2.089   1.874   1.919 -0.5627  1.0748  0.9283
17933TIP3   OH275289   2.432   2.242  13.316  0.0020  0.7376 -0.7422
17933TIP3    H175290   2.396   2.327  13.339 -1.0590  0.0219  0.3949
17933TIP3    H275291   2.518   2.239  13.358 -0.3418  0.9018 -0.0264
17934TIP3   OH275292   4.028   2.516   1.071  0.3943  0.4397  0.2381
17934TIP3    H175293   4.032   2.612   1.078 -1.4432  0.5850 -0.2644
17934TIP3    H275294   3.938   2.494   1.095  1.0323 -1.2690  1.2036
17935TIP3   OH275295   5.790   2.545   0.736 -0.5794 -0.0222  0.2549
17935TIP3    H175296   5.839   2.466   0.760  0.2758  0.1661 -0.8006
17935TIP3    H275297   5.811   2.608   0.805 -0.1434 -0.2632  0.3458
17936TIP3   OH275298   3.897   3.656   2.068 -0.4298  0.6407 -0.1255
17936TIP3    H175299   3.882   3.612   2.151 -0.5231  0.2044 -0.3713
17936TIP3    H275300   3.977   3.707   2.082 -0.3502  0.4312  0.1758
17937TIP3   OH275301   6.392   5.821   2.394 -0.2654 -0.0219  0.5322
17937TIP3    H175302   6.440   5.872   2.328 -0.4476  0.4541  0.7706
17937TIP3    H275303   6.460   5.767   2.435 -0.1754 -0.4462 -0.1545
17938TIP3   OH275304   0.748   0.123  10.179  0.0755  0.0180  0.0689
17938TIP3    H175305   0.750   0.028  10.186 -1.8680  0.0457  2.2243
17938TIP3    H275306   0.819   0.153  10.235 -0.0120 -0.1676  0.2824
17939TIP3   OH275307   2.038   6.357   1.078 -0.5516 -0.0517  0.7764
17939TIP3    H175308   2.051   6.381   1.170 -1.7887 -0.2614  1.0233
17939TIP3    H275309   2.117   6.387   1.034 -0.1856  0.5627  1.8214
17940TIP3   OH275310   5.569   4.265   4.488  0.0539 -0.1783  0.5479
17940TIP3    H175311   5.521   4.185   4.506 -2.2329  0.5968 -1.5355
17940TIP3    H275312   5.576   4.269   4.392 -0.6912  2.4775  0.5088
17941TIP3   OH275313   2.498   0.599  12.328  1.0483 -0.2293 -0.1657
17941TIP3    H175314   2.527   0.611  12.238  3.2602  0.0700  0.5236
17941TIP3    H275315   2.562   0.647  12.380  0.5543 -1.4402  1.6391
17942TIP3   OH275316   5.983   5.651  12.129  0.5857  0.2972 -0.7230
17942TIP3    H175317   6.020   5.729  12.170  1.6101  0.0183 -1.1014
17942TIP3    H275318   5.936   5.607  12.201  1.2654  0.4898 -0.1479
17943TIP3   OH275319   0.087   1.135   4.917  0.2483  0.4576 -0.3700
17943TIP3    H175320   0.039   1.218   4.925  1.3035  1.0356  0.2676
17943TIP3    H275321   0.023   1.068   4.938 -0.5077  1.1444 -0.4138
17944TIP3   OH275322   2.357   3.743   1.701  0.3223  0.6488  0.1480
17944TIP3    H175323   2.278   3.699   1.733  0.7778 -0.8541 -0.6538
17944TIP3    H275324   2.329   3.832   1.681 -1.3906 -0.0711 -0.8545
17945TIP3   OH275325   7.015   5.552   4.030 -0.6376  0.1548  0.4660
17945TIP3    H175326   7.071   5.501   4.088 -0.4168  1.3993  1.3973
17945TIP3    H275327   7.053   5.640   4.031 -0.3756  0.1476 -1.9220
17946TIP3   OH275328   3.145   5.694   5.728 -0.4631 -0.2336 -0.4328
17946TIP3    H175329   3.150   5.611   5.776 -0.1409 -0.6597 -1.1843
17946TIP3    H275330   3.210   5.750   5.770 -0.0486 -0.6656 -0.4944
17947TIP3   OH275331   1.260   2.382   1.666  0.1972  0.4836  1.0116
17947TIP3    H175332   1.338   2.336   1.698  0.1701 -0.8288 -0.6708
17947TIP3    H275333   1.294   2.456   1.616  0.3124  0.8049  1.5584
17948TIP3   OH275334   1.775   4.631   5.412  0.1165 -0.2729  0.2132
17948TIP3    H175335   1.858   4.681   5.416 -0.3127  0.4808 -0.0327
17948TIP3    H275336   1.736   4.644   5.498  0.3797 -0.8728  0.4312
17949TIP3   OH275337   4.025   3.104   4.353  0.0830 -0.0799  0.1706
17949TIP3    H175338   3.962   3.044   4.313  0.1521  0.8311 -1.3778
17949TIP3    H275339   4.072   3.142   4.279  1.3010  0.5211  1.2138
17950TIP3   OH275340   0.494   5.495   2.092  0.3865 -0.5242 -0.2168
17950TIP3    H175341   0.476   5.563   2.157 -1.4526  0.7303 -1.8959
17950TIP3    H275342   0.479   5.413   2.137 -0.1420  0.2834  1.1235
17951TIP3   OH275343   3.144   4.849  12.822  0.1664 -0.1249  0.1710
17951TIP3    H175344   3.082   4.778  12.841 -0.3447  0.2183 -0.1633
17951TIP3    H275345   3.133   4.910  12.895  0.6607 -0.4197  0.4971
17952TIP3   OH275346   5.601   3.029   4.593  0.3333 -0.2716  0.0234
17952TIP3    H175347   5.516   3.035   4.551  1.0253  0.9775 -1.2519
17952TIP3    H275348   5.625   2.936   4.585 -1.1992 -0.8044  1.0849
17953TIP3   OH275349   5.510   1.034  14.999  0.0668  0.3227  0.3703
17953TIP3    H175350   5.444   1.074  14.943  0.2454  1.3027  0.8466
17953TIP3    H275351   5.551   1.107  15.045  1.8217 -0.2026 -0.2521
17954TIP3   OH275352   6.137   6.800   2.180  0.2134  0.1903  0.4581
17954TIP3    H175353   6.219   6.799   2.229  0.9050  0.0943 -0.6519
17954TIP3    H275354   6.158   6.755   2.098 -1.3288 -1.0423  0.6980
17955TIP3   OH275355   0.483   0.490   4.430 -0.1350  0.1605  0.2694
17955TIP3    H175356   0.446   0.526   4.350 -0.9408  0.2079  0.6590
17955TIP3    H275357   0.531   0.412   4.401  0.3098  0.6616 -0.3647
17956TIP3   OH275358   0.000   5.401   4.942 -0.0638  0.0670 -0.4123
17956TIP3    H175359  -0.052   5.451   4.879  0.5917  0.7997 -0.3803
17956TIP3    H275360  -0.060   5.334   4.975 -0.5950  0.0612 -1.3561
17957TIP3   OH275361   6.458   6.269   5.634  0.0848 -0.0010  0.1845
17957TIP3    H175362   6.480   6.201   5.698  1.3665  0.7494  0.5800
17957TIP3    H275363   6.515   6.251   5.559  0.4038  0.5922  0.2751
17958TIP3   OH275364   7.104   1.122   0.202 -0.6524  0.0214 -0.0579
17958TIP3    H175365   7.122   1.209   0.165 -0.6223 -0.2682 -0.7393
17958TIP3    H275366   7.067   1.073   0.128 -1.9288 -0.1383  0.6593
17959TIP3   OH275367   6.687   3.760   3.083  0.2289 -0.3607 -0.1535
17959TIP3    H175368   6.698   3.769   2.988 -0.9883 -0.3551 -0.3026
17959TIP3    H275369   6.761   3.706   3.111  0.9473  0.1680 -1.0109
17960TIP3   OH275370   1.905   1.214   5.152  0.3824  0.2150  0.2393
17960TIP3    H175371   1.849   1.185   5.224  1.5831  1.3367  1.6905
17960TIP3    H275372   1.886   1.308   5.144 -0.9313 -0.1736 -2.0682
17961TIP3   OH275373   2.974   0.834   0.274 -0.1689 -0.2135  0.0079
17961TIP3    H175374   2.953   0.742   0.256  0.8991 -0.5382  0.3504
17961TIP3    H275375   3.021   0.832   0.357 -1.4300  0.8215  0.7903
17962TIP3   OH275376   6.286   0.882   2.353 -0.6606 -0.3133 -0.1566
17962TIP3    H175377   6.202   0.861   2.395 -0.5627 -1.5543 -0.5351
17962TIP3    H275378   6.310   0.802   2.307  1.2320 -0.3380  0.7764
17963TIP3   OH275379   3.414   4.457   2.790 -0.7488  0.3156 -0.7961
17963TIP3    H175380   3.354   4.427   2.722 -0.5766  1.8409 -1.6767
17963TIP3    H275381   3.373   4.537   2.824 -0.8800 -0.4678  0.9766
17964TIP3   OH275382   6.940   0.891   5.269 -0.0213 -0.7591 -0.0036
17964TIP3    H175383   6.938   0.926   5.358 -1.1609 -1.6437  0.3495
17964TIP3    H275384   6.902   0.960   5.215  0.6580 -0.2239  0.1962
17965TIP3   OH275385   0.592   5.998   1.502 -1.0425 -0.4437  0.2316
17965TIP3    H175386   0.585   6.090   1.528  1.3220 -0.1600  0.0414
17965TIP3    H275387   0.597   6.000   1.407 -0.3968 -0.7025  0.2528
17966TIP3   OH275388   3.300   5.293   4.564  0.7660  0.0188 -0.0054
17966TIP3    H175389   3.214   5.258   4.539  0.3475  1.6509 -0.9908
17966TIP3    H275390   3.337   5.226   4.621 -0.7596 -1.1591 -0.3236
17967TIP3   OH275391   1.004   3.965   3.582 -0.4127 -0.6401 -0.2887
17967TIP3    H175392   1.082   4.019   3.596 -1.1116  0.1114  0.8866
17967TIP3    H275393   1.038   3.882   3.548  0.9570 -0.5536  0.7835
17968TIP3   OH275394   1.067   2.532   4.932 -0.1880 -0.4675  0.3909
17968TIP3    H175395   1.004   2.576   4.875 -0.6702 -0.8200  0.6403
17968TIP3    H275396   1.151   2.542   4.888 -0.5253 -0.5683 -0.2794
17969TIP3   OH275397   0.466   0.462   2.205 -0.1301 -0.5310 -0.1938
17969TIP3    H175398   0.435   0.538   2.156 -1.8780 -0.7679  0.4697
17969TIP3    H275399   0.442   0.482   2.296  1.0143 -1.0886  0.2396
17970TIP3   OH275400   0.508   6.308   4.812 -0.0175 -0.3618  0.1085
17970TIP3    H175401   0.458   6.349   4.883  0.2123 -0.9403  0.6130
17970TIP3    H275402   0.442   6.276   4.751 -0.2782 -1.0839  0.7488
17971TIP3   OH275403   4.154   4.695   0.876 -0.4090 -0.3452  0.1867
17971TIP3    H175404   4.154   4.759   0.804  1.6770  0.4709  0.8331
17971TIP3    H275405   4.091   4.729   0.939 -1.4308 -0.4811 -0.7314
17972TIP3   OH275406   3.816   5.253   1.604  0.2897  0.2346  1.0714
17972TIP3    H175407   3.876   5.178   1.599  0.5041  0.3612  1.7642
17972TIP3    H275408   3.739   5.219   1.649 -0.0160  0.1708  0.5072
17973TIP3   OH275409   4.493   3.352   2.724 -0.1123 -0.5912  0.4323
17973TIP3    H175410   4.562   3.364   2.658 -1.3299 -1.1413 -1.0150
17973TIP3    H275411   4.457   3.439   2.737  0.3366 -0.4288  0.6111
17974TIP3   OH275412   3.740   6.836   3.715  0.3328 -0.2359  0.2680
17974TIP3    H175413   3.648   6.843   3.741  0.6893  1.8422  1.2388
17974TIP3    H275414   3.738   6.829   3.620 -0.8494 -2.1658  0.3770
17975TIP3   OH275415   2.989   0.228   1.625 -0.3561 -1.1178 -0.3987
17975TIP3    H175416   2.968   0.311   1.582  0.2880 -0.7065  0.0617
17975TIP3    H275417   3.041   0.253   1.702  0.7390 -2.0187 -0.8247
17976TIP3   OH275418   5.518   6.587   4.313 -0.2016  0.1182 -0.0326
17976TIP3    H175419   5.554   6.667   4.352 -1.4174  1.8363 -2.2067
17976TIP3    H275420   5.435   6.573   4.359 -0.4487  0.6908 -0.2937
17977TIP3   OH275421   2.992   0.017  14.059  0.1655 -0.3921  0.0211
17977TIP3    H175422   2.935   0.021  14.136  1.8799  0.2842  1.2909
17977TIP3    H275423   3.008   0.108  14.036  2.8119 -0.4453  1.3199
17978TIP3   OH275424   7.206   3.209   2.952  0.3314 -0.0210 -0.4008
17978TIP3    H175425   7.209   3.228   3.046 -0.2442 -0.7951 -0.2191
17978TIP3    H275426   7.186   3.293   2.912 -1.4571 -0.0548  0.3370
17979TIP3   OH275427   3.391   6.153   3.130  0.1682  0.2677 -0.2938
17979TIP3    H175428   3.317   6.201   3.093  1.0240  1.0977 -1.0060
17979TIP3    H275429   3.352   6.094   3.194 -1.3016 -0.6466 -1.9408
17980TIP3   OH275430   5.611   5.164  10.122  0.5753 -0.0441  0.1571
17980TIP3    H175431   5.636   5.074  10.139  1.0863  0.2280  0.9169
17980TIP3    H275432   5.646   5.213  10.196  0.2647  0.7719 -0.2187
17981TIP3   OH275433   5.613   3.401   5.433  0.6174  0.7024  0.2250
17981TIP3    H175434   5.598   3.324   5.489 -1.0283  1.1729  0.4842
17981TIP3    H275435   5.555   3.468   5.469 -0.2370  1.1411 -1.8068
17982TIP3   OH275436   0.945   7.133   2.857 -0.1787 -0.0497  0.0395
17982TIP3    H175437   0.951   7.040   2.833  1.1218 -0.2570  1.0818
17982TIP3    H275438   0.872   7.137   2.918  0.3028 -0.5715  0.6791
17983TIP3   OH275439   3.253   4.291   4.285 -0.5103 -0.0317  0.0599
17983TIP3    H175440   3.215   4.206   4.263 -0.5709  0.3295 -1.2966
17983TIP3    H275441   3.178   4.346   4.307 -0.3737 -0.7476  2.6369
17984TIP3   OH275442   2.688   2.475   3.020 -0.4829 -0.2500 -0.4711
17984TIP3    H175443   2.630   2.399   3.032 -0.1774 -0.2702  1.1237
17984TIP3    H275444   2.755   2.444   2.958  0.5170 -1.8675  1.2744
17985TIP3   OH275445   0.659   3.439   1.048 -0.1372 -0.1455  0.1520
17985TIP3    H175446   0.674   3.452   0.955  1.4660  2.4359  0.6574
17985TIP3    H275447   0.683   3.523   1.088  2.4387 -2.1106  3.2255
17986TIP3   OH275448   5.579   0.215  13.414  0.7346  0.3949  0.1791
17986TIP3    H175449   5.600   0.160  13.338 -1.0368  0.4244 -0.3745
17986TIP3    H275450   5.633   0.179  13.485  0.0844 -1.6900 -0.3169
17987TIP3   OH275451   2.825   6.431   5.247  0.0873 -0.0565  0.9006
17987TIP3    H175452   2.916   6.448   5.225  0.0997 -2.0480 -0.8763
17987TIP3    H275453   2.828   6.362   5.313 -0.0607 -1.9355 -0.9262
17988TIP3   OH275454   5.829   5.178   5.673  0.4398 -0.4174  0.5076
17988TIP3    H175455   5.888   5.157   5.745 -1.1434 -1.4591  1.5727
17988TIP3    H275456   5.775   5.250   5.706 -0.0548 -0.6547  0.2252
17989TIP3   OH275457   3.554   6.396   3.191  0.3485 -0.1476 -0.3397
17989TIP3    H175458   3.493   6.323   3.177  0.4052 -0.7378  1.9883
17989TIP3    H275459   3.528   6.462   3.128 -2.3121 -0.6324  0.1341
17990TIP3   OH275460   3.845   5.964   4.677 -0.1324 -0.0714  0.7227
17990TIP3    H175461   3.794   6.045   4.666  0.5049  0.4340  1.3480
17990TIP3    H275462   3.815   5.929   4.761 -0.1468 -0.2850  0.6265
17991TIP3   OH275463   2.654   1.719   5.505 -0.0827 -0.1662  0.2117
17991TIP3    H175464   2.664   1.625   5.492  1.0062 -0.0692  0.2525
17991TIP3    H275465   2.676   1.733   5.597 -0.4322  0.1064  0.2561
17992TIP3   OH275466   6.719   6.012   1.774 -0.2033 -0.0071 -0.2966
17992TIP3    H175467   6.768   5.994   1.694 -1.3835  1.7454 -1.4877
17992TIP3    H275468   6.631   5.979   1.756  0.0193 -1.4974  1.1308
17993TIP3   OH275469   4.921   0.036  10.681  0.7896  0.0982  0.7305
17993TIP3    H175470   4.982   0.090  10.630 -1.5605  1.2302 -1.1436
17993TIP3    H275471   4.908  -0.042  10.628 -1.8170  1.3658 -0.7292
17994TIP3   OH275472   3.836   4.586  14.972 -0.7183  0.1004  0.2020
17994TIP3    H175473   3.823   4.577  14.878  1.2192 -1.2880  0.0103
17994TIP3    H275474   3.918   4.635  14.981  0.4150 -1.8199  1.0735
17995TIP3   OH275475   1.210   2.205   5.787 -0.2004  0.1832 -0.1228
17995TIP3    H175476   1.210   2.288   5.741 -0.8541 -0.4283 -1.2812
17995TIP3    H275477   1.164   2.223   5.869 -0.0392  1.0280 -0.2079
17996TIP3   OH275478   6.431   2.059   4.532  0.0721 -0.3073  0.8895
17996TIP3    H175479   6.417   2.149   4.560 -1.4895  0.1034 -1.0276
17996TIP3    H275480   6.494   2.024   4.595  3.4352  3.0917 -0.1989
17997TIP3   OH275481   6.040   2.269   4.591  0.6671  1.0419 -0.5922
17997TIP3    H175482   5.988   2.238   4.665  2.8590  2.7029  1.8589
17997TIP3    H275483   6.002   2.354   4.568  1.6537  1.8619  0.6379
17998TIP3   OH275484   0.228   5.288   0.907  0.1622 -0.5423  0.4202
17998TIP3    H175485   0.251   5.308   0.998 -0.0983  1.7209  0.0447
17998TIP3    H275486   0.297   5.329   0.855 -0.1363 -1.1162 -0.4596
17999TIP3   OH275487   5.835   0.115   3.577  0.9323 -0.3141 -0.0469
17999TIP3    H175488   5.869   0.180   3.516  0.6788 -0.3214 -0.1930
17999TIP3    H275489   5.837   0.033   3.528  0.8664 -0.3462  0.0052
18000TIP3   OH275490   3.137   0.501   1.007 -0.0919  0.3365 -0.5141
18000TIP3    H175491   3.097   0.574   1.055  0.7059 -0.8102  2.0112
18000TIP3    H275492   3.064   0.443   0.986 -0.4924  1.0120 -1.0256
18001TIP3   OH275493   3.187   5.041   5.034 -0.3743  0.3625 -0.0375
18001TIP3    H175494   3.223   5.130   5.037  0.1741  0.1795 -0.7674
18001TIP3    H275495   3.246   4.994   4.975 -1.0265 -0.3193 -0.1559
18002TIP3   OH275496   1.131   4.819   0.159 -0.1443 -0.7323 -0.4407
18002TIP3    H175497   1.099   4.765   0.087 -0.3531  2.0401 -2.5506
18002TIP3    H275498   1.065   4.887   0.170  1.7850  1.2614 -0.4363
18003TIP3   OH275499   3.260   6.479   4.381 -0.0289  0.5738  0.2650
18003TIP3    H175500   3.337   6.528   4.352 -0.4973 -0.0618 -2.2489
18003TIP3    H275501   3.194   6.546   4.400  1.0097  1.1135  2.2718
18004TIP3   OH275502   2.639   1.819   5.258 -0.2743 -1.1605 -0.6605
18004TIP3    H175503   2.606   1.747   5.205 -1.8125 -0.5786 -0.5657
18004TIP3    H275504   2.647   1.782   5.346  0.0108 -1.5059 -0.8310
18005TIP3   OH275505   2.239   6.076   3.611 -0.1919 -0.3225 -0.5698
18005TIP3    H175506   2.242   6.135   3.537 -1.3660 -0.8340 -1.0534
18005TIP3    H275507   2.145   6.060   3.626 -0.2003  1.6590  2.5580
18006TIP3   OH275508   1.467   3.327   1.686 -0.3819 -0.4517  0.1541
18006TIP3    H175509   1.383   3.324   1.639 -0.1492  0.1699 -0.3098
18006TIP3    H275510   1.459   3.403   1.744 -0.0897 -0.3094  0.0091
18007TIP3   OH275511   5.749   3.514  13.810  0.4876  0.3506  0.7903
18007TIP3    H175512   5.805   3.466  13.749  0.5244 -0.5480  1.5035
18007TIP3    H275513   5.808   3.570  13.859  0.5819  0.4055  0.6108
18008TIP3   OH275514   4.433   5.999   2.200  0.0169 -0.1179 -0.1462
18008TIP3    H175515   4.518   6.043   2.208 -0.2864  0.3843  0.3757
18008TIP3    H275516   4.388   6.019   2.282  0.1172 -1.9580  0.3928
18009TIP3   OH275517   2.049   4.368   5.159  0.3186  0.2208  0.4272
18009TIP3    H175518   2.101   4.408   5.089 -0.9001 -0.7405 -1.1056
18009TIP3    H275519   2.099   4.290   5.184 -0.8130 -1.3579 -1.8585
18010TIP3   OH275520   3.575   2.045   5.184  0.1008  0.2702 -0.3449
18010TIP3    H175521   3.482   2.038   5.162  0.1702 -1.5572 -0.1819
18010TIP3    H275522   3.579   2.023   5.277  0.5629  1.7079  0.0050
18011TIP3   OH275523   7.235   0.625   1.913 -0.1916  0.2279  0.3428
18011TIP3    H175524   7.156   0.638   1.860  0.0923  1.3148  0.1467
18011TIP3    H275525   7.289   0.565   1.861 -0.2061  0.7502 -0.2984
18012TIP3   OH275526   2.988   0.975   2.272  0.3595  0.3219 -0.1876
18012TIP3    H175527   2.977   0.894   2.321 -0.6844  0.0661 -0.8150
18012TIP3    H275528   3.021   1.037   2.336  0.5939 -0.4407  0.4430
18013TIP3   OH275529   6.129   6.750  13.578  0.2033 -0.4315 -0.1166
18013TIP3    H175530   6.209   6.786  13.615 -0.8005  2.4599 -0.4754
18013TIP3    H275531   6.137   6.766  13.484 -0.9997  0.4691 -0.0940
18014TIP3   OH275532   5.223   3.082   2.933 -0.2904  0.0435 -0.3966
18014TIP3    H175533   5.150   3.021   2.921 -1.2154  1.0517 -0.1468
18014TIP3    H275534   5.187   3.166   2.906  0.5743  0.6791  0.3756
18015TIP3   OH275535   3.941   6.595   1.978 -0.4934 -0.7630  0.4045
18015TIP3    H175536   4.030   6.625   1.957 -0.8651  1.4761  1.6778
18015TIP3    H275537   3.952   6.538   2.053  0.0294 -2.2203 -0.7318
18016TIP3   OH275538   4.115   7.020   3.467  0.1222 -0.3251 -1.8106
18016TIP3    H175539   4.116   6.982   3.555 -1.9306  0.1096 -1.5484
18016TIP3    H275540   4.207   7.026   3.443  0.8521  0.6669  0.8017
18017TIP3   OH275541   0.848   3.200  13.159 -0.4145 -0.8443  0.3887
18017TIP3    H175542   0.895   3.125  13.197  1.2990 -0.0534 -0.0951
18017TIP3    H275543   0.804   3.164  13.082 -1.2116 -1.7494  1.2368
18018TIP3   OH275544   0.284   0.815   5.043  0.3614  0.4170 -0.2451
18018TIP3    H175545   0.236   0.847   4.967 -1.2807 -2.2240 -0.4843
18018TIP3    H275546   0.238   0.734   5.067  2.1092  0.0574  2.2742
18019TIP3   OH275547   4.520   3.854   1.542 -0.5739 -0.2410 -0.6325
18019TIP3    H175548   4.510   3.840   1.447 -1.4610 -1.1192 -0.4246
18019TIP3    H275549   4.611   3.881   1.552 -0.5976  0.3700 -1.7898
18020TIP3   OH275550   0.736   5.002   3.864 -0.2419  0.0572  0.7200
18020TIP3    H175551   0.788   4.922   3.873  0.5999  0.4380 -0.5329
18020TIP3    H275552   0.794   5.072   3.894 -0.6623  0.2982  0.9778
18021TIP3   OH275553   3.751   0.174   5.025 -0.2725 -0.7838 -0.4077
18021TIP3    H175554   3.757   0.124   5.106  0.3734  0.4578  0.3359
18021TIP3    H275555   3.767   0.109   4.956  0.0059 -1.7035  0.4872
18022TIP3   OH275556   0.332   4.682   0.923  0.3309 -0.2316  0.1388
18022TIP3    H175557   0.391   4.607   0.918  1.2146  0.5209 -1.3114
18022TIP3    H275558   0.386   4.754   0.956  0.9363  1.0112 -3.1458
18023TIP3   OH275559   3.347   2.082  14.498  0.1594  0.5734  0.4867
18023TIP3    H175560   3.312   2.166  14.468 -2.1623  0.0603  1.4753
18023TIP3    H275561   3.336   2.023  14.424 -0.3856  0.6138  0.5297
18024TIP3   OH275562   3.386   6.522   1.127  0.2671  0.7170  0.0240
18024TIP3    H175563   3.340   6.589   1.077 -1.5293 -1.7093 -1.7882
18024TIP3    H275564   3.329   6.503   1.201  0.5727  0.8568  0.3017
18025TIP3   OH275565   1.058   0.287   4.212  0.4603  0.1932  0.1183
18025TIP3    H175566   1.037   0.352   4.145  1.1588  0.8267  0.4965
18025TIP3    H275567   0.974   0.264   4.251  0.2732  1.3560  0.4209
18026TIP3   OH275568   4.849   1.250  13.436 -0.3199 -0.7055 -0.5074
18026TIP3    H175569   4.866   1.202  13.517  0.5085 -2.5548 -1.7101
18026TIP3    H275570   4.932   1.247  13.388 -1.1331 -0.8020 -1.9749
18027TIP3   OH275571   0.238   0.647   3.576  0.4066 -0.4615 -0.3092
18027TIP3    H175572   0.309   0.710   3.570  0.7872 -0.9391 -1.0490
18027TIP3    H275573   0.252   0.603   3.660  0.6521 -0.1567 -0.1904
18028TIP3   OH275574   6.494   2.338   1.348 -0.3700 -0.2478  0.4420
18028TIP3    H175575   6.582   2.308   1.369 -0.1864  0.1501  0.2634
18028TIP3    H275576   6.498   2.433   1.359 -1.0138 -0.3020  1.2943
18029TIP3   OH275577   2.579   1.988   2.008  0.5572 -0.2631 -0.2121
18029TIP3    H175578   2.653   2.030   2.053 -1.8717  2.9059  1.1936
18029TIP3    H275579   2.590   2.013   1.917  0.3950  1.6844  0.2520
18030TIP3   OH275580   6.298   4.135  13.111  0.2334  0.8582  0.3334
18030TIP3    H175581   6.294   4.153  13.205 -1.7664  0.5946  0.3502
18030TIP3    H275582   6.368   4.070  13.101  1.2978  1.7944  1.4532
18031TIP3   OH275583   3.598   3.447   1.823  0.8198 -0.2132 -0.3182
18031TIP3    H175584   3.563   3.532   1.850  0.4146  0.3600 -2.4858
18031TIP3    H275585   3.589   3.392   1.901 -2.2083  0.7164  0.1166
18032TIP3   OH275586   1.735   5.733   4.782  0.2156  0.0049 -0.2860
18032TIP3    H175587   1.673   5.661   4.777  0.7038 -0.4029 -0.5481
18032TIP3    H275588   1.681   5.812   4.778 -0.2928 -0.3443 -0.3663
18033TIP3   OH275589   3.532   4.673  14.705  0.2418  0.0298  0.1950
18033TIP3    H175590   3.504   4.591  14.744  0.6924 -0.7491 -1.0601
18033TIP3    H275591   3.454   4.729  14.709 -1.3556 -1.7621 -2.3858
18034TIP3   OH275592   3.324   3.853  15.296 -0.1026 -0.3155  0.2290
18034TIP3    H175593   3.325   3.795  15.220 -2.0365 -0.9958  0.6637
18034TIP3    H275594   3.346   3.796  15.370  0.9252  0.1571  0.2930
18035TIP3   OH275595   7.167   1.643   3.766  0.1106 -0.2397  0.0816
18035TIP3    H175596   7.209   1.675   3.686  1.5315 -0.0425  0.8707
18035TIP3    H275597   7.079   1.680   3.764  0.0148 -0.4865 -1.5233
18036TIP3   OH275598   6.209   0.537   3.508 -0.1884 -0.6860  0.0121
18036TIP3    H175599   6.258   0.523   3.589 -0.1678  1.5245  0.4590
18036TIP3    H275600   6.237   0.624   3.479  0.7125 -1.8680 -3.0637
18037TIP3   OH275601   1.996   2.562   1.257 -0.4852 -0.4432 -0.2412
18037TIP3    H175602   2.019   2.634   1.314 -0.3664 -0.4333 -0.3010
18037TIP3    H275603   2.063   2.495   1.273  0.6887  0.3006 -1.7546
18038TIP3   OH275604   2.747   3.911   4.429 -0.6018 -0.0170  0.4084
18038TIP3    H175605   2.790   3.948   4.352  0.3875 -0.9636  0.4816
18038TIP3    H275606   2.736   3.986   4.488  0.8370  0.3110  0.3177
18039TIP3   OH275607   1.730   0.521   2.829 -0.4791  0.3180 -0.0147
18039TIP3    H175608   1.760   0.489   2.744  2.0167  1.8368  0.1819
18039TIP3    H275609   1.793   0.486   2.892 -0.7448  1.2993  0.8408
18040TIP3   OH275610   6.345   0.519  15.242 -0.2887  0.3433  0.2697
18040TIP3    H175611   6.274   0.517  15.306 -1.5244  2.3152 -0.9145
18040TIP3    H275612   6.343   0.608  15.207  0.4479 -0.5634 -2.3219
18041TIP3   OH275613   6.937   1.787  12.830  0.4275 -0.0267 -0.6596
18041TIP3    H175614   6.997   1.783  12.755 -0.3156 -1.6599 -1.2164
18041TIP3    H275615   6.991   1.761  12.905  0.4505 -1.5501 -1.1669
18042TIP3   OH275616   4.018   5.117   3.132  0.2619  0.1944 -0.1715
18042TIP3    H175617   3.951   5.131   3.066 -1.2513  2.5487  1.6839
18042TIP3    H275618   4.080   5.189   3.120  2.0471 -1.4366 -1.2743
18043TIP3   OH275619   2.672   2.319   3.702 -0.1143  0.0235 -0.5747
18043TIP3    H175620   2.731   2.252   3.669 -1.7914 -1.7705 -0.1463
18043TIP3    H275621   2.706   2.340   3.789  0.8483  0.3255 -1.0043
18044TIP3   OH275622   7.006   4.758   3.120 -0.3933  0.0746  0.0827
18044TIP3    H175623   7.047   4.842   3.143  0.6134  0.0952 -1.5613
18044TIP3    H275624   6.971   4.724   3.202  1.7551  0.7262  1.3529
18045TIP3   OH275625   2.032   6.997   5.266 -0.3209 -0.6978  0.0216
18045TIP3    H175626   2.005   6.969   5.353 -0.8807 -0.3201 -0.0310
18045TIP3    H275627   2.104   7.058   5.282 -0.7850 -0.2017  0.2501
18046TIP3   OH275628   7.121   0.982   4.978 -0.2236  0.6939 -0.1902
18046TIP3    H175629   7.069   1.043   5.030  1.9836  2.4978  0.0053
18046TIP3    H275630   7.063   0.956   4.906 -2.6215 -0.2587  1.9363
18047TIP3   OH275631   7.121   3.861   2.277  0.8704 -0.2776 -0.2390
18047TIP3    H175632   7.089   3.773   2.297  2.1351 -0.5953  0.5299
18047TIP3    H275633   7.194   3.847   2.216  0.8307  0.2590 -0.4157
18048TIP3   OH275634   0.712   0.337   2.996  0.4315  0.3885  0.2280
18048TIP3    H175635   0.691   0.317   3.088 -0.3954 -1.5970 -0.3213
18048TIP3    H275636   0.806   0.323   2.990  0.2011 -1.5985  0.3684
18049TIP3   OH275637   6.797   3.352  14.464  0.2667 -0.3123  0.1796
18049TIP3    H175638   6.765   3.311  14.384  0.3079  0.9199 -0.4944
18049TIP3    H275639   6.777   3.290  14.534 -2.0386 -0.3338 -0.4357
18050TIP3   OH275640   5.779   2.278   2.650 -0.2801  0.1359  0.2248
18050TIP3    H175641   5.731   2.220   2.591 -0.8979  0.2700  0.5976
18050TIP3    H275642   5.742   2.263   2.736  0.0643  0.5386  0.4507
18051TIP3   OH275643   6.000   4.108  13.889  0.2603  0.0205 -0.2656
18051TIP3    H175644   5.970   4.057  13.964 -0.1787 -0.9641 -1.0901
18051TIP3    H275645   5.922   4.124  13.837  0.4022  1.4973 -0.0722
18052TIP3   OH275646   4.900   4.395   5.949 -0.3636 -0.3992 -0.0427
18052TIP3    H175647   4.981   4.387   5.899  0.7797 -1.3010  1.8276
18052TIP3    H275648   4.848   4.319   5.924  0.1646 -0.8053  0.0747
18053TIP3   OH275649   2.813   2.208   1.117 -0.4097 -0.2120  0.2644
18053TIP3    H175650   2.800   2.136   1.178 -0.6075 -1.0106 -0.6916
18053TIP3    H275651   2.797   2.169   1.031  0.7574  0.6456 -0.3731
18054TIP3   OH275652   2.780   0.627   5.058 -0.2860  0.0883  0.3256
18054TIP3    H175653   2.702   0.668   5.021  1.6013  3.2302 -0.6645
18054TIP3    H275654   2.810   0.689   5.125  2.9400  0.7505 -1.4807
18055TIP3   OH275655   3.055   4.491   4.239 -0.1092 -0.2322  0.1253
18055TIP3    H175656   3.011   4.575   4.232  1.4017  0.5179 -0.8907
18055TIP3    H275657   2.996   4.430   4.194  0.0344  0.8279 -1.6110
18056TIP3   OH275658   4.709   1.724   3.833 -0.0946  0.0972 -0.2813
18056TIP3    H175659   4.677   1.807   3.868  1.4336  0.6842 -0.1841
18056TIP3    H275660   4.668   1.657   3.887 -1.1051  0.8006 -0.1547
18057TIP3   OH275661   1.656   4.539   2.786  0.2119 -0.2803 -0.3761
18057TIP3    H175662   1.685   4.591   2.712  0.2963 -0.8396 -0.7456
18057TIP3    H275663   1.561   4.544   2.784  0.2340  0.4092 -0.0011
18058TIP3   OH275664   1.004   5.942   4.233  0.3201  1.0119 -0.0678
18058TIP3    H175665   0.980   5.991   4.154  2.0265  1.8870 -0.0877
18058TIP3    H275666   0.952   5.982   4.303 -1.0505  0.3711 -0.6789
18059TIP3   OH275667   3.304   1.563   1.319  0.0328  0.8096 -0.2907
18059TIP3    H175668   3.285   1.473   1.347  0.1848  1.2044  1.1398
18059TIP3    H275669   3.351   1.552   1.236 -2.0900 -0.3422 -1.4406
18060TIP3   OH275670   2.939   2.457   4.986  0.2158 -0.3469  0.1108
18060TIP3    H175671   2.896   2.540   5.001  1.0937  0.0365  0.6031
18060TIP3    H275672   2.991   2.470   4.907 -2.2657 -1.5159 -1.8591
18061TIP3   OH275673   3.210   2.236  15.071  0.2138 -0.5594  0.4231
18061TIP3    H175674   3.269   2.249  14.997  0.7119  0.2621  0.9545
18061TIP3    H275675   3.245   2.160  15.117  1.2395  0.2836  1.0810
18062TIP3   OH275676   0.331   2.051  12.183  0.0325  0.3867  0.6210
18062TIP3    H175677   0.307   1.999  12.107  0.6785  2.8955 -1.4374
18062TIP3    H275678   0.424   2.032  12.196  0.0340  0.2912  0.4750
18063TIP3   OH275679   3.197   4.876   2.658  0.0522  0.4002 -0.4339
18063TIP3    H175680   3.246   4.799   2.686  0.0846  0.0626 -1.3912
18063TIP3    H275681   3.113   4.869   2.704 -0.6032 -1.1090 -1.7617
18064TIP3   OH275682   1.374   5.408  10.323 -0.2946  0.6178  0.3736
18064TIP3    H175683   1.409   5.472  10.385  0.7538  0.1317  0.2917
18064TIP3    H275684   1.409   5.324  10.352  0.1984  0.3768 -0.8605
18065TIP3   OH275685   1.092   4.654   2.808  0.2892 -0.1542  0.5736
18065TIP3    H175686   1.046   4.612   2.881  1.8582 -2.2857  0.3986
18065TIP3    H275687   1.029   4.651   2.736  0.4141 -2.4530  0.5127
18066TIP3   OH275688   0.483   4.871   5.075  0.1660 -0.6955 -0.2470
18066TIP3    H175689   0.477   4.960   5.041 -0.1816 -0.4646  0.4037
18066TIP3    H275690   0.572   4.864   5.110  0.4239 -0.8372 -0.9191
18067TIP3   OH275691   0.196   6.562   3.646  0.0082 -0.3306 -0.1074
18067TIP3    H175692   0.170   6.572   3.554  0.0800 -0.9421 -0.2023
18067TIP3    H275693   0.113   6.552   3.693 -0.0142 -0.3697 -0.1547
18068TIP3   OH275694   2.253   1.876   5.065  0.0150 -0.0531  0.1115
18068TIP3    H175695   2.172   1.926   5.053  1.6749  2.7758 -0.3310
18068TIP3    H275696   2.290   1.870   4.976  0.8869 -0.1777  0.4742
18069TIP3   OH275697   0.727   0.403   1.050  0.3223 -0.1712  0.2187
18069TIP3    H175698   0.794   0.436   0.990 -0.1792  0.8439  0.2166
18069TIP3    H275699   0.649   0.393   0.996  0.7273 -2.4723 -0.0570
18070TIP3   OH275700   6.104   0.067   5.802  0.3981 -0.3753 -0.0143
18070TIP3    H175701   6.139   0.156   5.810  1.9179 -0.7118 -2.1476
18070TIP3    H275702   6.180   0.010   5.811  0.1398 -1.2457 -2.5215
18071TIP3   OH275703   2.550   5.604  12.826  0.3251 -0.0069  1.1015
18071TIP3    H175704   2.471   5.658  12.821  0.7512  0.6487  1.2945
18071TIP3    H275705   2.622   5.667  12.832  0.7746 -0.6029  2.2209
18072TIP3   OH275706   4.386   3.126  11.378  0.2068 -0.8232  0.1156
18072TIP3    H175707   4.466   3.141  11.327 -0.2874  0.9222 -0.2328
18072TIP3    H275708   4.415   3.129  11.469  0.4780  0.5667  0.0179
18073TIP3   OH275709   5.364   0.553   3.092  0.1406 -0.2160 -0.2685
18073TIP3    H175710   5.419   0.478   3.070  0.6747  0.2480 -0.5609
18073TIP3    H275711   5.425   0.617   3.129 -0.3368  0.0061  0.1538
18074TIP3   OH275712   2.933   4.955   4.304  0.2150  0.4969 -0.1100
18074TIP3    H175713   3.022   4.925   4.286  0.2835  0.4992  0.2149
18074TIP3    H275714   2.880   4.918   4.234  0.1728 -0.9818  0.6747
18075TIP3   OH275715   5.765   3.112   4.143 -0.6676  0.2866 -0.5468
18075TIP3    H175716   5.727   3.041   4.195  0.8664  0.4361  0.8347
18075TIP3    H275717   5.857   3.089   4.134 -0.4932  1.2671 -1.5571
18076TIP3   OH275718   3.714   1.473   2.935  0.3354 -0.0474  0.1887
18076TIP3    H175719   3.804   1.449   2.961 -0.0334 -1.0217  0.6256
18076TIP3    H275720   3.660   1.446   3.009 -0.2929  0.8463  0.0670
18077TIP3   OH275721   4.887   0.552   5.483  0.9377  0.2411 -0.2546
18077TIP3    H175722   4.953   0.572   5.549  0.7965 -0.2726  0.0461
18077TIP3    H275723   4.935   0.505   5.415  1.3728  1.9617 -1.1954
18078TIP3   OH275724   4.653   3.418   4.959 -0.4679 -0.5007  0.2735
18078TIP3    H175725   4.558   3.406   4.964 -0.7458  0.4031 -1.8355
18078TIP3    H275726   4.688   3.332   4.935 -0.5864 -1.1292  2.2023
18079TIP3   OH275727   3.262   2.943   1.838 -0.0508 -0.0192 -0.0470
18079TIP3    H175728   3.285   2.964   1.929  0.4402  0.3592 -0.2491
18079TIP3    H275729   3.280   3.024   1.790 -1.3981  0.1417 -0.3013
18080TIP3   OH275730   0.642   1.792   1.078 -0.4509  0.2533 -0.2765
18080TIP3    H175731   0.696   1.733   1.130  1.6872  1.4994 -0.9558
18080TIP3    H275732   0.558   1.795   1.124 -0.7039 -3.3157 -0.2821
18081TIP3   OH275733   3.451   5.726   2.110 -0.0599 -0.7489 -0.3353
18081TIP3    H175734   3.491   5.754   2.028  0.9417  1.3329  0.7702
18081TIP3    H275735   3.526   5.709   2.168 -0.7430 -0.5717  0.6258
18082TIP3   OH275736   0.450   2.007  13.006 -0.0289 -0.1893 -0.4803
18082TIP3    H175737   0.538   1.989  13.041  0.4814 -3.4354 -3.0067
18082TIP3    H275738   0.395   1.940  13.047 -0.6607 -0.1423 -1.2511
18083TIP3   OH275739   5.091   1.370   2.144 -0.3717 -0.0921  0.1147
18083TIP3    H175740   5.039   1.300   2.104  0.7023 -0.7099 -0.2225
18083TIP3    H275741   5.128   1.332   2.223 -1.3600  0.7097  0.9921
18084TIP3   OH275742   4.834   7.189   4.794  0.7085  0.3308  0.2445
18084TIP3    H175743   4.777   7.232   4.731  0.2588  1.2725  1.2498
18084TIP3    H275744   4.790   7.106   4.813 -0.2668  0.9725  0.8809
18085TIP3   OH275745   5.192   2.703  14.973  0.3644  0.2569  0.0582
18085TIP3    H175746   5.140   2.711  15.053 -0.9094  0.3303 -0.7453
18085TIP3    H275747   5.281   2.726  14.999 -0.0009  0.1335  1.4793
18086TIP3   OH275748   4.429   4.325  14.583  0.3354  0.1842  0.0290
18086TIP3    H175749   4.503   4.288  14.535  0.2365 -0.3737  0.3050
18086TIP3    H275750   4.354   4.312  14.526  0.1824 -0.6628  0.4163
18087TIP3   OH275751   1.539   5.542   0.351 -0.0934  0.1277  0.1779
18087TIP3    H175752   1.522   5.542   0.445  2.2668 -1.2331  0.6988
18087TIP3    H275753   1.535   5.449   0.326  2.6041  0.0289 -0.2637
18088TIP3   OH275754   1.891   2.715   2.040  0.1882 -0.2093  0.1531
18088TIP3    H175755   1.864   2.646   2.100 -2.2226  1.2215  0.8455
18088TIP3    H275756   1.874   2.680   1.953  2.3408 -1.7425  0.2651
18089TIP3   OH275757   6.570   4.859   4.416  0.2762  0.0809  0.4790
18089TIP3    H175758   6.482   4.832   4.444  0.5245 -1.5912 -0.2558
18089TIP3    H275759   6.555   4.917   4.341 -0.1924 -1.4447 -0.6469
18090TIP3   OH275760   3.556   1.955   3.687 -0.1566  0.0588  0.1890
18090TIP3    H175761   3.596   1.868   3.677 -0.2007 -0.2891  2.5201
18090TIP3    H275762   3.507   1.949   3.769 -1.5565  1.7888 -0.4728
18091TIP3   OH275763   2.545   3.100   2.324  0.1767 -0.4558  0.4305
18091TIP3    H175764   2.554   3.005   2.319  0.7691 -0.3953  0.2026
18091TIP3    H275765   2.534   3.128   2.233 -1.4882 -0.4295  0.6197
18092TIP3   OH275766   5.928   0.900   5.312 -0.1124 -0.5430 -0.2600
18092TIP3    H175767   5.898   0.989   5.331 -0.1788 -0.8508  1.1997
18092TIP3    H275768   5.898   0.848   5.386 -0.9564 -2.0049 -1.5646
18093TIP3   OH275769   4.304   6.033   4.088  1.0203  0.4868 -0.0668
18093TIP3    H175770   4.323   5.949   4.129  0.9022  0.3593 -0.2759
18093TIP3    H275771   4.241   6.074   4.147  2.0924  1.0204  0.7680
18094TIP3   OH275772   0.023   2.259   4.714  0.5238 -0.5719 -0.1832
18094TIP3    H175773  -0.067   2.229   4.701 -0.3891  1.2160  1.3452
18094TIP3    H275774   0.069   2.184   4.749 -0.3829 -1.5071 -0.9312
18095TIP3   OH275775   0.784   3.267   4.702 -0.0769 -0.5212  0.0604
18095TIP3    H175776   0.730   3.300   4.774 -0.4472 -0.3217 -0.3039
18095TIP3    H275777   0.762   3.175   4.695 -0.1087 -0.5200  0.1419
18096TIP3   OH275778   1.423   4.875   4.366  0.1177  0.6869 -0.4436
18096TIP3    H175779   1.331   4.851   4.376 -0.0484  1.3387 -0.3413
18096TIP3    H275780   1.471   4.793   4.378 -0.5418 -0.0226 -2.4036
18097TIP3   OH275781   6.065   5.355   5.610 -0.1857  0.3306 -0.2524
18097TIP3    H175782   6.007   5.281   5.595  0.4721  0.0060 -1.2726
18097TIP3    H275783   6.144   5.316   5.647 -0.8749  0.8595  1.9385
18098TIP3   OH275784   6.042   3.785   0.330  0.7105 -0.1140 -0.3365
18098TIP3    H175785   6.011   3.871   0.356  0.5563  0.0369 -1.0010
18098TIP3    H275786   5.963   3.730   0.330  0.3431  0.3389 -2.3144
18099TIP3   OH275787   2.992   4.539   2.963 -0.2590  0.8850  0.3874
18099TIP3    H175788   2.927   4.470   2.952  0.0048  0.4908  1.3040
18099TIP3    H275789   2.940   4.619   2.974 -0.5879  0.6117  0.8448
18100TIP3   OH275790   1.900   0.194   4.980  0.3898 -0.1138  0.1148
18100TIP3    H175791   1.912   0.110   5.025  2.3702 -0.9404 -1.7513
18100TIP3    H275792   1.843   0.172   4.906  1.6084 -0.0436 -0.8662
18101TIP3   OH275793   0.018   4.936   2.761 -0.0737  0.5030 -0.4066
18101TIP3    H175794  -0.064   4.961   2.803 -0.6481 -0.6787 -0.7938
18101TIP3    H275795   0.015   4.980   2.676  0.3732  1.6196  0.1282
18102TIP3   OH275796   0.123   6.882   3.360 -0.6447  0.0225 -0.4323
18102TIP3    H175797   0.108   6.886   3.265  0.1476  2.4163 -0.5153
18102TIP3    H275798   0.207   6.926   3.373  0.7688 -2.8152  1.1512
18103TIP3   OH275799   7.198   2.090   1.950  0.0793 -0.0640  0.3295
18103TIP3    H175800   7.188   2.003   1.912 -0.2177 -0.5996  1.5859
18103TIP3    H275801   7.113   2.109   1.990  0.1218  0.8284  0.0238
18104TIP3   OH275802   3.744   1.905   2.132  0.1758  0.2263 -0.3442
18104TIP3    H175803   3.830   1.906   2.173 -0.2888  1.7989  0.6761
18104TIP3    H275804   3.712   1.815   2.145  1.5377 -0.3028 -0.5389
18105TIP3   OH275805   6.476   0.720   0.908 -0.6171  0.1715 -0.5228
18105TIP3    H175806   6.485   0.625   0.920  1.1654  0.2783 -0.7524
18105TIP3    H275807   6.389   0.740   0.942 -0.5156 -1.3526  0.7591
18106TIP3   OH275808   6.453   4.147   0.393  0.5538  0.1417  0.4431
18106TIP3    H175809   6.469   4.241   0.385 -1.4776  0.5198  0.0929
18106TIP3    H275810   6.420   4.136   0.482 -1.1964  0.1541 -0.1579
18107TIP3   OH275811   6.023   5.122   5.834  0.0751 -0.1281 -0.0238
18107TIP3    H175812   6.021   5.041   5.886  0.3306 -0.4354 -0.4832
18107TIP3    H275813   6.115   5.131   5.808 -0.4241 -1.3795 -2.5497
18108TIP3   OH275814   3.035   1.819   2.457 -0.4267 -0.3353 -0.3764
18108TIP3    H175815   3.095   1.872   2.510 -1.2034 -0.4446  0.6659
18108TIP3    H275816   3.069   1.730   2.463 -0.2838 -0.2802 -0.3792
18109TIP3   OH275817   4.656   1.138   2.841  0.5236 -1.1840 -0.4776
18109TIP3    H175818   4.584   1.174   2.789 -2.3112 -1.6303  2.7858
18109TIP3    H275819   4.682   1.059   2.794 -2.0520 -1.7259 -1.1582
18110TIP3   OH275820   3.669   4.018   1.515  0.3677  0.7271 -0.1540
18110TIP3    H175821   3.668   3.954   1.586 -1.3686  0.7675 -0.0960
18110TIP3    H275822   3.580   4.054   1.514  0.6600  1.4892 -1.6649
18111TIP3   OH275823   3.276   0.039  14.628 -0.1193 -0.2277 -0.4443
18111TIP3    H175824   3.188   0.052  14.662  0.3222 -0.3040  0.7613
18111TIP3    H275825   3.263   0.024  14.534 -1.3523  0.0776 -0.3433
18112TIP3   OH275826   1.548   5.011  12.269  0.1162  0.2139  0.3020
18112TIP3    H175827   1.468   5.047  12.231  0.4294  1.2615  0.6170
18112TIP3    H275828   1.577   4.946  12.205 -0.1764  0.8843 -0.5376
18113TIP3   OH275829   5.015   1.932   5.911 -0.9015  0.5120  0.2251
18113TIP3    H175830   5.098   1.963   5.875 -0.3463  0.6825  1.5860
18113TIP3    H275831   4.948   1.980   5.863 -0.2580  0.0441 -1.2091
18114TIP3   OH275832   6.356   4.022   3.244  0.1291 -0.1007  0.0291
18114TIP3    H175833   6.393   3.944   3.204 -0.0367 -0.5072  0.6565
18114TIP3    H275834   6.314   3.991   3.324 -0.3830  0.5536  0.0257
18115TIP3   OH275835   3.143   5.433   1.900  0.1804  0.6653 -0.5149
18115TIP3    H175836   3.236   5.436   1.877  0.8372  0.3239  1.8420
18115TIP3    H275837   3.130   5.509   1.956 -0.4689 -0.3525  0.7611
18116TIP3   OH275838   4.223   0.435   2.504 -0.0381  0.7482  0.5733
18116TIP3    H175839   4.226   0.340   2.500 -1.1447  0.7398 -1.3772
18116TIP3    H275840   4.306   0.460   2.544  0.9841 -0.9687 -0.3610
18117TIP3   OH275841   6.890   6.238   4.677 -0.0167  0.0193 -0.3386
18117TIP3    H175842   6.934   6.281   4.750  0.5306 -0.5869 -0.2911
18117TIP3    H275843   6.798   6.262   4.685  0.0142 -0.1587  0.6467
18118TIP3   OH275844   1.080   0.921   5.556 -0.2889 -0.1588  0.0538
18118TIP3    H175845   1.137   0.979   5.606  1.0727  0.8524 -2.4655
18118TIP3    H275846   1.140   0.863   5.509 -1.4425 -0.5039 -1.0581
18119TIP3   OH275847   5.723   4.798   3.933  0.0318 -0.3221  0.4740
18119TIP3    H175848   5.704   4.877   3.882 -1.0434  0.9366  2.7011
18119TIP3    H275849   5.648   4.789   3.992  0.4760 -2.6271  0.7640
18120TIP3   OH275850   3.150   3.681   0.487  0.5233  0.1642  0.8270
18120TIP3    H175851   3.187   3.597   0.517  2.0158  0.7926  0.8627
18120TIP3    H275852   3.218   3.745   0.509 -0.0674  1.2109 -0.3122
18121TIP3   OH275853   0.549   7.221   2.377 -0.1794 -0.4065  0.2157
18121TIP3    H175854   0.622   7.161   2.367  0.7611  0.5740  0.9713
18121TIP3    H275855   0.545   7.239   2.471 -0.8938  0.1565  0.0922
18122TIP3   OH275856   5.503   0.716   3.430  0.3933 -0.1455  0.1596
18122TIP3    H175857   5.558   0.712   3.351 -1.5243  1.9350 -1.3967
18122TIP3    H275858   5.517   0.804   3.464 -0.4944 -0.2601  0.8531
18123TIP3   OH275859   2.095   3.102   2.841  0.5974  0.2835 -0.1234
18123TIP3    H175860   2.088   3.040   2.913  0.6510  0.3088 -0.0963
18123TIP3    H275861   2.168   3.069   2.788  0.6644  0.3557 -0.0769
18124TIP3   OH275862   4.816   7.086  12.848 -0.0437  0.2935 -0.3167
18124TIP3    H175863   4.848   7.009  12.800  0.7995  0.0622  0.5710
18124TIP3    H275864   4.722   7.088  12.832 -0.3985 -1.9614  1.0397
18125TIP3   OH275865   2.747   3.607   3.839 -0.2453  0.3348  0.8079
18125TIP3    H175866   2.761   3.583   3.748  1.8052 -0.7504  1.3465
18125TIP3    H275867   2.652   3.605   3.850 -0.5596  0.7293 -1.3348
18126TIP3   OH275868   6.436   2.702   4.102  0.2011  0.4018 -0.0539
18126TIP3    H175869   6.351   2.673   4.136 -0.5781  0.2794 -1.9570
18126TIP3    H275870   6.450   2.787   4.143  0.1430 -0.4463  1.8186
18127TIP3   OH275871   5.907   4.614   4.390 -0.4085 -0.1248 -0.0956
18127TIP3    H175872   5.965   4.675   4.345 -0.7580  1.4612  1.5240
18127TIP3    H275873   5.964   4.541   4.415  0.1048 -0.3026 -1.6264
18128TIP3   OH275874   1.926   4.821   3.542 -0.5989 -0.1579  0.3930
18128TIP3    H175875   1.921   4.802   3.449 -0.5834 -0.5082  0.4622
18128TIP3    H275876   1.893   4.742   3.585 -1.3203  0.2859  0.6657
18129TIP3   OH275877   0.851   2.992  14.095 -0.3053  0.1118  0.1649
18129TIP3    H175878   0.930   2.937  14.092  0.2285  0.7809  1.1692
18129TIP3    H275879   0.885   3.081  14.083 -0.7339  0.5360  1.9206
18130TIP3   OH275880   3.837   0.151   1.154  0.0746  0.1472  0.2864
18130TIP3    H175881   3.916   0.187   1.193  1.2180 -3.2758  1.4362
18130TIP3    H275882   3.765   0.194   1.201  1.2658  1.6055  0.8389
18131TIP3   OH275883   2.040   0.401   4.711  0.0718 -0.0042  0.4176
18131TIP3    H175884   2.133   0.426   4.711 -0.5553  2.6606  1.2777
18131TIP3    H275885   2.000   0.461   4.774 -2.1543 -1.5154  0.5163
18132TIP3   OH275886   4.849   1.501   1.173  0.4341 -0.3489  0.2902
18132TIP3    H175887   4.762   1.465   1.157  0.0809 -0.1325  1.5853
18132TIP3    H275888   4.879   1.456   1.252  1.2765 -0.0477  0.1443
18133TIP3   OH275889   2.969   0.055  13.663 -0.4517 -0.1471 -0.2789
18133TIP3    H175890   3.033   0.036  13.594  0.1299 -1.3324  0.5383
18133TIP3    H275891   2.950   0.148  13.654  0.6125 -0.0010 -1.1995
18134TIP3   OH275892   2.283   3.856   3.794  0.3142 -0.2027  0.0649
18134TIP3    H175893   2.360   3.842   3.740  0.9639  0.6642  0.7408
18134TIP3    H275894   2.317   3.871   3.882 -0.6320 -0.0244  0.4213
18135TIP3   OH275895   3.125   3.480   9.956  0.2638  0.5152  0.1804
18135TIP3    H175896   3.044   3.451   9.914  0.4672 -1.3894  0.9634
18135TIP3    H275897   3.192   3.468   9.889  0.5999 -2.5767  0.9181
18136TIP3   OH275898   2.785   0.801   4.170  0.0690  0.4337  0.1919
18136TIP3    H175899   2.750   0.713   4.164  2.0927 -0.3702 -0.6386
18136TIP3    H275900   2.734   0.852   4.107 -1.1731 -0.0803  0.7520
18137TIP3   OH275901   4.100   6.503   4.841  0.1721 -0.2731  0.0916
18137TIP3    H175902   4.088   6.485   4.934  0.9980  0.5166  0.3653
18137TIP3    H275903   4.195   6.508   4.830  0.0614  1.5895 -0.3954
18138TIP3   OH275904   5.377   2.753   2.841  0.9000  0.0284 -0.0322
18138TIP3    H175905   5.472   2.761   2.839  0.7900  1.4218 -0.7214
18138TIP3    H275906   5.351   2.795   2.923  0.8818 -0.3737  0.1676
18139TIP3   OH275907   4.109   1.718   0.999  0.1328 -0.2936  0.5000
18139TIP3    H175908   4.076   1.786   1.058  0.1594 -0.0713  0.2592
18139TIP3    H275909   4.110   1.639   1.053  0.7248  0.0285  0.9742
18140TIP3   OH275910   6.210   7.009   0.800  0.4049 -0.1501 -0.3828
18140TIP3    H175911   6.117   7.031   0.803 -0.3773 -3.1532 -0.0569
18140TIP3    H275912   6.234   6.989   0.890  0.9597 -0.8611 -0.6737
18141TIP3   OH275913   1.573   5.935   2.141  0.4033 -0.2735 -0.2623
18141TIP3    H175914   1.554   6.020   2.182  0.8159  0.6358 -1.8812
18141TIP3    H275915   1.641   5.896   2.196 -1.2220 -0.5418  1.7086
18142TIP3   OH275916   3.221   4.001   4.895 -0.4800  0.4234 -0.2065
18142TIP3    H175917   3.162   3.949   4.949  1.3418 -0.2793  1.2304
18142TIP3    H275918   3.287   3.939   4.866  0.1411  1.3754 -0.8823
18143TIP3   OH275919   4.441   4.395   4.245 -0.1155  0.3724  0.2442
18143TIP3    H175920   4.384   4.445   4.187 -0.1242  0.9132  0.7043
18143TIP3    H275921   4.411   4.417   4.333 -0.9499 -1.4326  0.4641
18144TIP3   OH275922   5.476   1.335   1.363 -0.5994  0.2071 -0.2574
18144TIP3    H175923   5.511   1.318   1.276  0.1074 -1.0529  0.2425
18144TIP3    H275924   5.546   1.307   1.423 -2.2118 -1.9424  0.7757
18145TIP3   OH275925   1.311   1.885  11.033 -0.1621 -0.1059  0.1452
18145TIP3    H175926   1.385   1.887  10.973 -0.2444 -0.2706  0.0364
18145TIP3    H275927   1.351   1.887  11.120 -0.0710  0.8053  0.0861
18146TIP3   OH275928   6.768   4.385   0.666 -0.3304 -0.3257  0.2255
18146TIP3    H175929   6.676   4.398   0.690  0.3267  0.6689  2.5706
18146TIP3    H275930   6.785   4.293   0.686 -0.5385 -0.2131  0.9767
18147TIP3   OH275931   5.302   5.848   4.602  0.6916 -0.0321  0.3004
18147TIP3    H175932   5.280   5.758   4.580  0.6563 -0.2393  1.1517
18147TIP3    H275933   5.219   5.895   4.596  0.9757  0.3167 -1.7752
18148TIP3   OH275934   5.544   0.956   3.831 -0.0798  0.1393 -0.0096
18148TIP3    H175935   5.626   0.993   3.863  0.7561 -0.4370 -1.3869
18148TIP3    H275936   5.514   0.899   3.902  1.3167 -0.5198  0.0850
18149TIP3   OH275937   3.935   3.429   5.787 -0.1836 -0.2196  0.4287
18149TIP3    H175938   4.004   3.423   5.852  0.3592  1.9854  0.1312
18149TIP3    H275939   3.975   3.473   5.712 -1.5394 -0.0815 -0.2612
18150TIP3   OH275940   6.438   6.357  10.766  0.0632  0.0803 -0.0015
18150TIP3    H175941   6.361   6.324  10.720 -0.2403  0.6933  0.0592
18150TIP3    H275942   6.413   6.358  10.858  0.1329  0.3067  0.0157
18151TIP3   OH275943   3.221   4.262  14.575 -0.0490  0.2102  0.3720
18151TIP3    H175944   3.148   4.306  14.531  0.1829  1.0776  0.8320
18151TIP3    H275945   3.295   4.272  14.515  0.0302  0.5504  0.5240
18152TIP3   OH275946   6.860   4.256  15.144 -0.2313 -0.5456  0.0719
18152TIP3    H175947   6.909   4.195  15.089 -0.9699 -1.1579  0.0613
18152TIP3    H275948   6.886   4.233  15.233 -1.3727 -1.6980  0.1380
18153TIP3   OH275949   1.594   1.277   4.507  0.2792 -0.1267 -0.2891
18153TIP3    H175950   1.589   1.357   4.559  1.0224 -0.3160  0.0939
18153TIP3    H275951   1.558   1.301   4.422  0.9722  0.7639 -0.3469
18154TIP3   OH275952   4.015   0.072   4.484 -0.7661 -0.0822 -0.2324
18154TIP3    H175953   4.009   0.118   4.401  1.6356 -1.3686 -1.2387
18154TIP3    H275954   4.088   0.012   4.473  0.2959  0.3404  3.1492
18155TIP3   OH275955   5.281   1.402   2.866  0.1327 -0.2259  0.4280
18155TIP3    H175956   5.297   1.488   2.905 -1.0419  0.9892 -1.6174
18155TIP3    H275957   5.200   1.413   2.816  0.3181 -2.3450 -0.4284
18156TIP3   OH275958   6.828   1.858   4.825 -0.2028  0.4004  0.1659
18156TIP3    H175959   6.827   1.790   4.892 -2.3121  0.0326 -0.1773
18156TIP3    H275960   6.845   1.939   4.872 -1.8500  0.1775  1.2191
18157TIP3   OH275961   4.226   1.074   2.716 -0.5358 -0.7440 -0.2035
18157TIP3    H175962   4.151   1.021   2.744  0.7564 -1.4283  2.2900
18157TIP3    H275963   4.297   1.010   2.703 -0.1373 -0.0357 -1.7292
18158TIP3   OH275964   7.126   5.413   2.058 -0.0775  0.1271 -0.0312
18158TIP3    H175965   7.139   5.435   2.150 -1.6404 -0.7095  0.4206
18158TIP3    H275966   7.155   5.323   2.050 -0.1459  0.1292 -0.3119
18159TIP3   OH275967   0.362   3.712   2.999 -0.7952  0.0139 -0.0885
18159TIP3    H175968   0.411   3.783   2.960  1.1639 -1.2222  0.0039
18159TIP3    H275969   0.338   3.656   2.924  0.2275 -0.7195  0.1114
18160TIP3   OH275970   5.354   6.990  13.139  0.3014  0.8324 -0.2934
18160TIP3    H175971   5.281   6.961  13.193  0.0536  1.5338 -0.2343
18160TIP3    H275972   5.317   6.996  13.051  0.9539 -1.2709 -0.7738
18161TIP3   OH275973   7.161   1.813  14.821 -0.2781  0.1809  0.3996
18161TIP3    H175974   7.247   1.794  14.785 -0.6894  0.9378 -1.0531
18161TIP3    H275975   7.171   1.799  14.916  1.8298  1.6793  0.4604
18162TIP3   OH275976   0.184   6.449  11.458  0.3820  0.4965 -0.1276
18162TIP3    H175977   0.152   6.443  11.368 -1.4419  1.0946  0.4272
18162TIP3    H275978   0.145   6.374  11.503  0.7123  0.5875  0.3190
18163TIP3   OH275979   3.174   5.089  14.746  0.0424  0.0229 -0.1119
18163TIP3    H175980   3.154   5.009  14.796  0.3398 -0.2363 -0.4031
18163TIP3    H275981   3.091   5.137  14.745 -1.0632 -1.7004 -2.4962
18164TIP3   OH275982   3.292   0.060   1.351 -0.4650  0.7431  0.2944
18164TIP3    H175983   3.236  -0.011   1.382  0.7358 -0.0939  0.6087
18164TIP3    H275984   3.297   0.120   1.426 -0.0859  0.2874  0.6376
18165TIP3   OH275985   6.400   3.083   6.068 -0.1212 -0.5310  0.3153
18165TIP3    H175986   6.493   3.064   6.062 -0.3154 -1.0259 -1.6692
18165TIP3    H275987   6.394   3.178   6.061  0.2125 -0.5352 -0.0456
18166TIP3   OH275988   1.696   5.157   2.709 -0.5861  1.1134 -0.0859
18166TIP3    H175989   1.706   5.106   2.790  2.4032 -0.1609 -1.1264
18166TIP3    H275990   1.614   5.125   2.671 -1.1858  0.5187  1.5845
18167TIP3   OH275991   0.887   6.888   2.695  0.2695 -0.1964 -0.7167
18167TIP3    H175992   0.941   6.946   2.642 -0.9529 -0.7952 -2.7106
18167TIP3    H275993   0.833   6.841   2.632 -0.8154 -1.4180  1.0377
18168TIP3   OH275994   3.319   7.156   1.667  0.2457  0.4920  0.4126
18168TIP3    H175995   3.247   7.112   1.622  2.1411 -1.6112 -0.7282
18168TIP3    H275996   3.313   7.126   1.758  0.9253 -1.4731 -0.1417
18169TIP3   OH275997   4.831   3.817   2.914 -0.0991  0.6151 -0.0386
18169TIP3    H175998   4.736   3.824   2.910 -0.3404 -0.1443  2.3890
18169TIP3    H275999   4.861   3.906   2.933 -0.6185  0.4045  1.9703
18170TIP3   OH276000   1.552   0.594   0.534  0.4230 -0.4959 -0.0092
18170TIP3    H176001   1.647   0.592   0.541  0.4692  1.3078  0.5355
18170TIP3    H276002   1.531   0.687   0.520 -1.2870 -0.7798  0.3959
18171TIP3   OH276003   1.752   2.293   3.746  0.0165  0.1620 -0.0108
18171TIP3    H176004   1.843   2.314   3.764  0.9766 -3.0469 -0.5056
18171TIP3    H276005   1.752   2.255   3.658 -1.6029 -0.7591  0.3311
18172TIP3   OH276006   5.780   1.317   3.269 -0.1561 -0.6521  0.1159
18172TIP3    H176007   5.786   1.338   3.176 -0.3454 -0.8723  0.0538
18172TIP3    H276008   5.871   1.310   3.298 -0.0948 -0.3307  0.0052
18173TIP3   OH276009   4.925   5.426  12.777 -0.2112  0.4435  0.6097
18173TIP3    H176010   4.967   5.476  12.847  1.4818  0.5311 -0.4349
18173TIP3    H276011   4.896   5.492  12.714  0.5440  0.2326  0.0261
18174TIP3   OH276012   5.159   4.441   5.737 -0.2486  0.0068  0.3004
18174TIP3    H176013   5.126   4.361   5.695 -0.1726  0.4016 -0.5294
18174TIP3    H276014   5.123   4.512   5.685  0.6853  0.4825  0.2936
18175TIP3   OH276015   1.944   6.645   2.823 -0.4014  0.3558 -0.0863
18175TIP3    H176016   1.952   6.556   2.857 -0.0429  0.4648  0.1254
18175TIP3    H276017   1.854   6.651   2.791 -1.2115  0.6430  2.0352
18176TIP3   OH276018   0.013   1.883   1.587  0.4445  0.0393  0.3113
18176TIP3    H176019   0.007   1.978   1.573  1.4215 -0.1715 -2.0852
18176TIP3    H276020  -0.065   1.861   1.638 -0.0057  2.0806  0.5811
18177TIP3   OH276021   6.475   0.632   2.998  0.6519 -0.3071  0.3230
18177TIP3    H176022   6.512   0.590   2.921  1.7323  0.6529  0.2965
18177TIP3    H276023   6.512   0.721   2.998 -1.7243  0.7647  0.2342
18178TIP3   OH276024   3.996   6.145   4.525  0.5059  0.1533 -0.8576
18178TIP3    H176025   3.939   6.086   4.573  3.2549 -0.2546  2.2284
18178TIP3    H276026   4.001   6.224   4.580  2.4115  0.3902 -1.3041
18179TIP3   OH276027   6.153   4.248   0.308  0.4174 -0.5317  0.0865
18179TIP3    H176028   6.231   4.222   0.259  2.6339  0.9406  2.5655
18179TIP3    H276029   6.118   4.165   0.342  0.5788 -1.2591 -1.4180
18180TIP3   OH276030   3.384   6.567   0.799 -0.1246 -0.9072  0.1461
18180TIP3    H176031   3.446   6.535   0.864 -0.5986  0.2024  1.2024
18180TIP3    H276032   3.324   6.623   0.849 -2.3437 -2.3843 -0.7059
18181TIP3   OH276033   6.134   0.499   1.148  0.4270  0.5972 -0.2817
18181TIP3    H176034   6.165   0.423   1.198  1.3388 -0.6482 -2.5683
18181TIP3    H276035   6.169   0.574   1.195 -0.1440 -0.3934  1.8241
18182TIP3   OH276036   4.883   6.771   3.667  0.5203 -0.0267  0.1321
18182TIP3    H176037   4.839   6.702   3.717 -0.1203 -0.0755 -0.4819
18182TIP3    H276038   4.941   6.724   3.607 -1.3849 -0.1912 -1.7087
18183TIP3   OH276039   1.827   3.996   4.842  0.0239  0.0523 -0.0805
18183TIP3    H176040   1.872   3.982   4.925 -1.1805 -2.3689  0.2571
18183TIP3    H276041   1.875   3.941   4.780 -0.9070 -0.5633 -0.2736
18184TIP3   OH276042   3.183   5.997   2.492 -0.4094  0.1218 -0.3135
18184TIP3    H176043   3.109   6.058   2.485  0.2954  1.1032  0.4389
18184TIP3    H276044   3.255   6.044   2.450 -0.3109 -1.0307 -1.4954
18185TIP3   OH276045   2.781   0.491  13.092  0.5364  0.5010 -0.5348
18185TIP3    H176046   2.760   0.397  13.089  1.9153  0.1909 -1.8337
18185TIP3    H276047   2.849   0.502  13.025  0.1964  2.4921 -0.6069
18186TIP3   OH276048   2.510   3.501   3.466 -0.2058 -0.0799 -0.4332
18186TIP3    H176049   2.548   3.458   3.390  0.1348 -0.7438  0.1021
18186TIP3    H276050   2.426   3.458   3.479 -0.0842 -0.2426 -0.1912
18187TIP3   OH276051   1.419   0.318   1.127 -0.2116  0.0375 -0.2171
18187TIP3    H176052   1.410   0.413   1.131  0.0056  0.0553 -0.1151
18187TIP3    H276053   1.349   0.289   1.069 -0.1278  0.2855 -0.4436
18188TIP3   OH276054   0.091   1.643   1.473 -0.2602  0.1161  1.0162
18188TIP3    H176055   0.092   1.736   1.496 -1.8125 -0.2627  2.8059
18188TIP3    H276056   0.000   1.626   1.447 -0.0464 -0.9712  0.9648
18189TIP3   OH276057   0.646   1.697   3.296 -0.1178 -0.1163  0.5340
18189TIP3    H176058   0.621   1.660   3.381  1.7254 -0.6075  0.9083
18189TIP3    H276059   0.664   1.789   3.315  0.7978 -0.3431  0.8001
18190TIP3   OH276060   6.401   5.690   1.863 -0.0013  0.5888  0.2556
18190TIP3    H176061   6.328   5.685   1.802  0.1681  0.9022  0.0179
18190TIP3    H276062   6.402   5.606   1.908  1.6496 -0.8685 -2.2352
18191TIP3   OH276063   4.119   0.654   3.276 -0.3775  0.2260  0.1435
18191TIP3    H176064   4.034   0.622   3.309 -0.0754  0.9887  1.7444
18191TIP3    H276065   4.181   0.633   3.346  0.8613 -0.6441 -1.1639
18192TIP3   OH276066   4.185   3.459   5.906 -0.0258  0.1957 -0.3283
18192TIP3    H176067   4.263   3.498   5.943 -0.3643 -0.3792  1.0409
18192TIP3    H276068   4.216   3.416   5.826  1.2219 -0.6796  0.5901
18193TIP3   OH276069   2.729   0.007  14.597 -0.0614  0.3272 -0.0579
18193TIP3    H176070   2.656  -0.032  14.645  2.1301 -2.6590  1.1548
18193TIP3    H276071   2.713  -0.016  14.505 -2.2256  2.5972 -0.3381
18194TIP3   OH276072   2.564   3.044   4.958  0.3050 -0.3412  0.1109
18194TIP3    H176073   2.602   3.047   4.870  0.0786 -0.8698 -0.0059
18194TIP3    H276074   2.485   2.990   4.948  0.7778 -1.1832  0.8272
18195TIP3   OH276075   4.489   3.650   4.191  0.3201  0.1220 -0.0424
18195TIP3    H176076   4.448   3.714   4.132 -1.2890  0.5354  1.4681
18195TIP3    H276077   4.478   3.687   4.278  0.6099 -1.5686  0.7420
18196TIP3   OH276078   2.497   2.667   3.294 -0.2046  0.0865 -0.0457
18196TIP3    H176079   2.557   2.708   3.231 -0.4604  1.8026  0.7669
18196TIP3    H276080   2.490   2.577   3.264  1.9636  0.0891 -0.7820
18197TIP3   OH276081   6.027   5.593   2.377 -0.1441 -0.0767 -0.0223
18197TIP3    H176082   5.986   5.569   2.460  0.8450  1.9116  1.1243
18197TIP3    H276083   6.108   5.542   2.374 -0.2872 -0.3137  0.1282
18198TIP3   OH276084   0.259   0.976   1.573  0.7323 -0.3137 -0.6078
18198TIP3    H176085   0.172   0.982   1.533 -0.5489 -1.0241  1.8668
18198TIP3    H276086   0.291   1.066   1.573 -1.1829  0.4428  0.7588
18199TIP3   OH276087   2.697   1.114   4.540  1.2435 -0.1936 -0.4498
18199TIP3    H176088   2.731   1.166   4.468  0.6238  0.0482 -0.5778
18199TIP3    H276089   2.736   1.153   4.618  1.4969 -0.1168 -0.6120
18200TIP3   OH276090   5.640   1.045   1.384 -0.1384  0.0748 -0.4642
18200TIP3    H176091   5.609   1.004   1.303  0.3474  0.7286 -0.9956
18200TIP3    H276092   5.638   0.975   1.449  3.7022 -1.7616 -2.0368
18201TIP3   OH276093   0.813   2.099   1.192  0.1480 -0.3958 -0.4426
18201TIP3    H176094   0.776   2.180   1.156  2.4118  1.3365  0.8698
18201TIP3    H276095   0.772   2.089   1.278 -0.3058 -0.8216 -0.6987
18202TIP3   OH276096   1.844   5.387   3.075  0.4804 -0.6473 -0.4581
18202TIP3    H176097   1.930   5.362   3.042  0.5708  0.4919 -1.1504
18202TIP3    H276098   1.784   5.368   3.003  0.3175 -0.4177 -0.3841
18203TIP3   OH276099   5.758   1.118   5.409  0.0622  0.3952  0.4323
18203TIP3    H176100   5.689   1.133   5.474 -0.0026 -1.1399  0.7665
18203TIP3    H276101   5.715   1.131   5.325 -0.8771 -1.2167  0.6126
18204TIP3   OH276102   5.141   2.082   1.305  0.0722 -0.2512 -0.4215
18204TIP3    H176103   5.048   2.101   1.315 -0.2516 -2.6263  2.5171
18204TIP3    H276104   5.185   2.164   1.328 -1.3056  0.2137  0.6886
18205TIP3   OH276105   6.641   1.785  14.806 -0.4238  0.0311 -0.0754
18205TIP3    H176106   6.623   1.878  14.792  1.8645  0.4715 -0.5007
18205TIP3    H276107   6.665   1.752  14.720 -0.1745 -0.7019  0.2658
18206TIP3   OH276108   4.136   1.719   1.809 -0.4115  0.1869 -0.8178
18206TIP3    H176109   4.064   1.780   1.826 -1.9668 -2.1879  1.9413
18206TIP3    H276110   4.203   1.744   1.873 -0.8113 -0.5491 -0.0880
18207TIP3   OH276111   0.278   2.886   2.906 -0.1343 -0.2481 -0.0382
18207TIP3    H176112   0.251   2.904   2.816  2.0293 -1.2356 -0.9833
18207TIP3    H276113   0.273   2.791   2.914  1.9258 -0.4151  0.0124
18208TIP3   OH276114   1.993   1.576   1.487 -0.2464 -0.4378  0.3311
18208TIP3    H176115   2.009   1.670   1.494 -3.0977  0.0770  1.3587
18208TIP3    H276116   2.018   1.541   1.573  0.1243 -0.5068  0.1970
18209TIP3   OH276117   0.245   7.011   1.545  0.0943 -0.2299  0.5706
18209TIP3    H176118   0.316   7.075   1.541  1.4628 -1.5829  1.6717
18209TIP3    H276119   0.228   7.002   1.639 -0.8943 -0.6213  0.3574
18210TIP3   OH276120   3.014   2.398   0.769 -0.0547  0.3815 -0.3295
18210TIP3    H176121   2.961   2.472   0.796 -0.6364 -0.4733  0.9758
18210TIP3    H276122   3.011   2.400   0.673  0.8320  2.6330 -0.3715
18211TIP3   OH276123   2.224   2.772   1.076  0.3499  0.6146  0.5404
18211TIP3    H176124   2.263   2.688   1.098 -1.6761 -0.5719 -0.2006
18211TIP3    H276125   2.270   2.799   0.996 -0.3050 -0.7360 -0.3059
18212TIP3   OH276126   6.616   0.234   3.930  0.5662  0.2804  0.2375
18212TIP3    H176127   6.637   0.181   3.853  0.1350 -0.7429  0.8134
18212TIP3    H276128   6.568   0.309   3.895 -0.9834 -0.9453 -0.3505
18213TIP3   OH276129   2.725   3.859  14.638  0.1455 -0.3943  0.0787
18213TIP3    H176130   2.630   3.846  14.641  0.2033 -0.7348  0.5288
18213TIP3    H276131   2.750   3.832  14.549  0.3338 -4.1308  1.0905
18214TIP3   OH276132   5.663   5.557  14.871 -0.0688  0.3466  0.5862
18214TIP3    H176133   5.640   5.646  14.898 -1.0144  0.4059 -0.3221
18214TIP3    H276134   5.747   5.565  14.827  0.2346  0.6568  1.2186
18215TIP3   OH276135   6.365   0.345   1.327  0.2573  0.0010 -0.0620
18215TIP3    H176136   6.405   0.317   1.409  1.0791  1.4377  0.0492
18215TIP3    H276137   6.283   0.296   1.323  1.7964 -2.8076 -0.1474
18216TIP3   OH276138   6.256   1.935   4.911  0.6361 -0.4162 -0.5032
18216TIP3    H176139   6.258   2.010   4.852 -3.3215 -1.2128 -2.0057
18216TIP3    H276140   6.179   1.950   4.967  1.3225 -2.0892  0.9887
18217TIP3   OH276141   5.856   3.443   2.228  0.3135  0.4330 -0.2701
18217TIP3    H176142   5.871   3.494   2.149  0.6625  0.2939 -0.2952
18217TIP3    H276143   5.943   3.428   2.265  0.0791  1.5191  0.7953
18218TIP3   OH276144   3.965   4.082  12.603 -0.1325 -0.2014 -0.2281
18218TIP3    H176145   3.895   4.048  12.547  1.1847  2.9031 -4.2852
18218TIP3    H276146   3.936   4.171  12.625  1.3992  0.2120  0.2216
18219TIP3   OH276147   2.664   4.974   4.416  0.5929 -0.0842  0.0083
18219TIP3    H176148   2.634   4.902   4.360 -0.1656  1.0603 -1.1245
18219TIP3    H276149   2.756   4.986   4.391  0.4472 -0.0238 -0.5257
18220TIP3   OH276150   5.935   0.840   6.027  0.4151  0.2467  0.1728
18220TIP3    H176151   6.024   0.875   6.035 -0.2946  2.5496 -1.1783
18220TIP3    H276152   5.880   0.901   6.075 -0.4414 -1.3908  1.3558
18221TIP3   OH276153   1.952   6.927   4.043 -0.3572 -0.0670 -0.0721
18221TIP3    H176154   2.021   6.865   4.068  0.3197  0.0706 -1.4739
18221TIP3    H276155   1.942   6.983   4.120  1.5561  0.2857 -0.0164
18222TIP3   OH276156   1.933   5.938   4.253  0.4503  0.5682 -0.6183
18222TIP3    H176157   1.853   5.990   4.247  1.5322  2.3494 -0.2113
18222TIP3    H276158   2.004   6.001   4.237  1.7233 -1.3889 -3.6345
18223TIP3   OH276159   4.928   5.903   1.490 -0.0123 -0.4372  0.4197
18223TIP3    H176160   4.979   5.836   1.445 -1.5779 -0.2642 -1.7959
18223TIP3    H276161   4.954   5.985   1.448 -1.4728 -0.2606 -0.1915
18224TIP3   OH276162   2.511   3.933   2.008 -0.1841  0.5437  0.1682
18224TIP3    H176163   2.524   4.017   1.964  1.3171 -1.0064 -2.6297
18224TIP3    H276164   2.600   3.901   2.024 -0.6523 -1.3590 -0.7143
18225TIP3   OH276165   2.990   1.071  10.928 -0.3165 -0.4063  0.3049
18225TIP3    H176166   2.997   0.993  10.873  0.3050  0.1727 -0.4543
18225TIP3    H276167   3.078   1.107  10.931 -0.6267  0.3568  0.5170
18226TIP3   OH276168   5.956   6.924  14.513  0.1836 -0.0764  0.2433
18226TIP3    H176169   5.950   6.923  14.609  1.1255 -0.2065  0.3048
18226TIP3    H276170   5.868   6.947  14.484  0.5540  3.0308  1.2342
18227TIP3   OH276171   2.764   3.806  14.377  0.3875 -0.2504  0.2131
18227TIP3    H176172   2.798   3.856  14.303 -2.2185  0.0132 -0.9096
18227TIP3    H276173   2.760   3.716  14.345 -1.7660  0.0328 -0.4106
18228TIP3   OH276174   6.272   1.507   4.955  0.0801  0.5636  0.1880
18228TIP3    H176175   6.184   1.546   4.963 -0.3377 -0.5150  1.1218
18228TIP3    H276176   6.299   1.492   5.045 -0.2066 -2.1983 -0.0915
18229TIP3   OH276177   1.425   1.537   0.116 -0.4453  0.6144 -0.3984
18229TIP3    H176178   1.402   1.589   0.038  0.5188 -0.2982 -1.3273
18229TIP3    H276179   1.351   1.478   0.128 -1.5919  2.1835  0.7152
18230TIP3   OH276180   3.210   5.320   3.685 -0.3691  0.0799 -0.1621
18230TIP3    H176181   3.260   5.390   3.727 -2.1372  1.3640 -0.0397
18230TIP3    H276182   3.158   5.282   3.756 -0.7724 -0.1077 -0.5492
18231TIP3   OH276183   6.459   1.102   1.297  0.1804  0.1922  0.3603
18231TIP3    H176184   6.403   1.025   1.299  1.2787 -0.6207  0.7068
18231TIP3    H276185   6.513   1.095   1.375  1.5042  0.3809 -0.5087
18232TIP3   OH276186   2.920   4.654  14.346  0.9603 -0.4995  0.1175
18232TIP3    H176187   2.888   4.743  14.361 -0.3018 -0.5515 -1.7892
18232TIP3    H276188   3.015   4.662  14.344  0.9067  0.5895  1.0633
18233TIP3   OH276189   4.611   3.052   1.456 -0.1387  0.2315 -0.2637
18233TIP3    H176190   4.699   3.019   1.437 -0.5152 -0.0312 -1.6676
18233TIP3    H276191   4.625   3.136   1.499  0.8004  0.0454 -0.1947
18234TIP3   OH276192   4.204   2.174   0.210 -0.2042  0.2425 -0.8009
18234TIP3    H176193   4.240   2.260   0.231 -0.9173 -0.1972  2.7548
18234TIP3    H276194   4.152   2.150   0.286  0.2820 -3.5574 -1.4793
18235TIP3   OH276195   4.668   0.015  13.380 -0.5898  0.7892  0.0199
18235TIP3    H176196   4.692   0.104  13.355  0.4291  0.8922  1.2791
18235TIP3    H276197   4.610  -0.015  13.310  0.8815  1.6108 -1.6208
18236TIP3   OH276198   7.151   3.645   1.940 -0.3567  0.1786 -0.0552
18236TIP3    H176199   7.206   3.607   2.008  0.7911  0.8032 -0.5992
18236TIP3    H276200   7.062   3.635   1.972  0.0816 -0.7329  0.9193
18237TIP3   OH276201   2.613   5.841   3.222 -0.0890  0.1371  0.3521
18237TIP3    H176202   2.564   5.923   3.216  1.0022  0.9840  2.1658
18237TIP3    H276203   2.546   5.773   3.225 -1.0094  0.8025 -2.1749
18238TIP3   OH276204   4.124   4.990  13.048  0.0946  0.3739 -0.4427
18238TIP3    H176205   4.170   4.933  13.109 -0.5575  1.9408  1.5944
18238TIP3    H276206   4.071   5.047  13.103 -3.9720 -0.9290 -2.5358
18239TIP3   OH276207   2.236   7.164   1.790 -0.4637  0.4819  0.2673
18239TIP3    H176208   2.179   7.241   1.784 -0.3948  0.6666  1.6282
18239TIP3    H276209   2.235   7.141   1.883  0.3035 -0.5719  0.0310
18240TIP3   OH276210   3.993   2.405   1.541  0.3172  0.1881 -0.0673
18240TIP3    H176211   4.071   2.374   1.495  1.7063  0.1726  2.1030
18240TIP3    H276212   4.026   2.473   1.600 -1.4699  0.7790  0.3125
18241TIP3   OH276213   3.335   6.102   4.894  0.6907  0.3003  0.3998
18241TIP3    H176214   3.329   6.010   4.918  0.2375  0.3939  0.6641
18241TIP3    H276215   3.376   6.102   4.808 -1.5850 -0.3205 -0.7707
18242TIP3   OH276216   5.104   4.070   3.450 -0.1246 -0.2267 -0.1874
18242TIP3    H176217   5.130   4.079   3.542 -0.5068  0.8743 -0.1766
18242TIP3    H276218   5.182   4.034   3.407 -0.6904 -3.1304  0.9595
18243TIP3   OH276219   1.535   4.020  13.327  0.2262 -0.2155 -0.0894
18243TIP3    H176220   1.616   4.052  13.367  0.8518 -0.8909 -0.7979
18243TIP3    H276221   1.509   4.089  13.266  0.1941  0.0546  0.2252
18244TIP3   OH276222   0.230   1.388   4.765  0.2226  0.2960  0.0240
18244TIP3    H176223   0.139   1.415   4.760  0.3618  1.2588  1.7722
18244TIP3    H276224   0.230   1.299   4.731 -1.0891  0.7833 -1.3824
18245TIP3   OH276225   1.797   6.920   2.104  0.1573 -0.0303  0.2152
18245TIP3    H176226   1.811   6.881   2.018  0.4297  0.1165  0.1922
18245TIP3    H276227   1.815   7.013   2.092 -0.0596  0.0323  0.3707
18246TIP3   OH276228   0.324   5.026   2.369  0.4258 -0.2469 -0.8261
18246TIP3    H176229   0.406   4.977   2.375  0.2971 -0.3538  0.2357
18246TIP3    H276230   0.289   5.026   2.458 -0.4531  0.2777 -1.1541
18247TIP3   OH276231   1.352   5.714  13.491  0.3088 -0.0481  0.2050
18247TIP3    H176232   1.403   5.770  13.549  0.2526 -0.2070  0.4081
18247TIP3    H276233   1.339   5.633  13.540 -2.8927  1.0863  1.5225
18248TIP3   OH276234   1.127   2.372  14.869 -0.0045 -0.1726 -0.1534
18248TIP3    H176235   1.129   2.280  14.896 -2.6928 -0.3845 -0.4059
18248TIP3    H276236   1.138   2.370  14.774  0.2316 -0.1997 -0.1258
18249TIP3   OH276237   0.750   4.519  14.801  0.3463 -0.2490  0.1829
18249TIP3    H176238   0.704   4.436  14.794  2.0227 -1.2741  0.7928
18249TIP3    H276239   0.843   4.496  14.796  1.0142  1.1854  3.4606
18250TIP3   OH276240   6.482   2.423   4.124  0.7201 -0.1540 -0.2315
18250TIP3    H176241   6.569   2.445   4.092  1.6266 -0.2566  2.0053
18250TIP3    H276242   6.440   2.508   4.140  0.7961 -0.0980 -0.3288
18251TIP3   OH276243   4.763   4.552  13.097 -0.1795 -0.0056  0.2959
18251TIP3    H176244   4.796   4.597  13.019 -1.4222 -1.2895 -1.0374
18251TIP3    H276245   4.742   4.623  13.158  1.3801  1.0052 -0.2793
18252TIP3   OH276246   2.310   6.937   3.473  0.5569  0.6625 -0.0226
18252TIP3    H176247   2.308   6.886   3.555 -0.2021 -0.0032 -0.4389
18252TIP3    H276248   2.389   6.991   3.480  1.3147 -0.4759  0.5014
18253TIP3   OH276249   6.247   0.883   0.988  0.4562 -0.1769 -0.2233
18253TIP3    H176250   6.195   0.870   1.067  0.9341 -2.4615 -0.2211
18253TIP3    H276251   6.255   0.978   0.980 -1.5050  0.1731  1.1965
18254TIP3   OH276252   3.172   2.153   6.086  0.5748 -0.3766 -0.0135
18254TIP3    H176253   3.084   2.162   6.050 -0.0604  0.4433  1.6047
18254TIP3    H276254   3.165   2.081   6.149  1.8002 -2.1741 -1.8092
18255TIP3   OH276255   1.054   1.678   2.774 -0.0785  0.0087 -0.3084
18255TIP3    H176256   1.052   1.619   2.850 -1.4992  1.3612  0.7657
18255TIP3    H276257   0.982   1.739   2.789 -0.4548  0.2762 -2.8261
18256TIP3   OH276258   1.919   0.632   1.094 -0.3054  0.1635  0.1548
18256TIP3    H176259   1.964   0.567   1.148 -1.6895  0.0266  1.2124
18256TIP3    H276260   1.988   0.693   1.066  0.3836  0.7622  2.8627
18257TIP3   OH276261   3.336   5.585  14.458  0.2084 -0.6721  0.1528
18257TIP3    H176262   3.363   5.611  14.370  1.4877 -1.6608  0.2207
18257TIP3    H276263   3.253   5.539  14.445  0.6390 -1.2557 -0.6051
18258TIP3   OH276264   7.236   3.887  10.937 -0.0773 -0.1346 -0.0345
18258TIP3    H176265   7.223   3.903  10.844 -0.6946  1.9165  0.3482
18258TIP3    H276266   7.285   3.805  10.941 -0.9752 -0.8325 -2.1072
18259TIP3   OH276267   7.174   1.032   2.573 -0.0105  0.1053 -0.1167
18259TIP3    H176268   7.101   1.074   2.618 -0.2154 -1.3619  1.0200
18259TIP3    H276269   7.132   0.981   2.503  0.1129  0.7403 -0.6586
18260TIP3   OH276270   2.418   5.667   0.893  0.2005 -0.4514  0.0968
18260TIP3    H176271   2.380   5.709   0.970  0.1211  2.2434 -1.2589
18260TIP3    H276272   2.456   5.740   0.843  0.4201 -2.0977 -2.2996
18261TIP3   OH276273   3.887   4.048   1.392  0.4381 -0.2021  0.4739
18261TIP3    H176274   3.813   4.036   1.452  0.1935  1.3104  0.4978
18261TIP3    H276275   3.889   3.968   1.340 -0.3696 -0.8329  1.3878
18262TIP3   OH276276   4.388   0.705   5.016  0.1340  0.1976  0.5504
18262TIP3    H176277   4.316   0.740   4.964 -1.2202  0.1215  2.3027
18262TIP3    H276278   4.392   0.762   5.093 -0.4219 -1.8785  2.2090
18263TIP3   OH276279   4.221   7.256  13.962 -0.2732 -0.0501  0.1694
18263TIP3    H176280   4.182   7.307  13.891  1.2429  0.2330 -0.5065
18263TIP3    H276281   4.237   7.321  14.031  1.1656  0.3496 -0.4880
18264TIP3   OH276282   2.825   3.812   0.390  0.1182  0.2522  0.4964
18264TIP3    H176283   2.762   3.746   0.418  0.9368 -0.8164 -0.0588
18264TIP3    H276284   2.787   3.850   0.311 -1.4626  2.1712  2.0964
18265TIP3   OH276285   3.980   4.048  13.440 -0.0002 -0.6486 -0.4534
18265TIP3    H176286   3.998   3.956  13.457  2.3437 -0.3822 -1.2255
18265TIP3    H276287   4.064   4.085  13.414 -0.5306  2.0544  1.2274
18266TIP3   OH276288   5.274   7.236  11.299  0.0948 -0.2088  0.1266
18266TIP3    H176289   5.355   7.264  11.256  0.7039 -1.3718  0.4689
18266TIP3    H276290   5.204   7.266  11.242  0.7654  0.7331 -0.2284
18267TIP3   OH276291   2.496   5.344   5.535 -0.4159  0.0288 -0.5177
18267TIP3    H176292   2.443   5.366   5.459 -2.7000  0.1646  1.0306
18267TIP3    H276293   2.480   5.251   5.550 -0.9300  0.2613  0.4641
18268TIP3   OH276294   4.198   7.151   4.421 -0.7209  0.3836 -0.8892
18268TIP3    H176295   4.272   7.120   4.474 -1.3640 -1.2457 -0.8919
18268TIP3    H276296   4.178   7.078   4.364 -2.5493  0.6768 -0.6638
18269TIP3   OH276297   3.579   4.441  13.991  0.5146  0.2670 -0.5255
18269TIP3    H176298   3.594   4.452  13.897  0.8599  0.9644 -0.3993
18269TIP3    H276299   3.558   4.529  14.022  1.0881  0.1758  0.1641
18270TIP3   OH276300   2.584   6.638   5.389  0.3289  0.0386 -0.0539
18270TIP3    H176301   2.612   6.547   5.400 -0.4094 -0.2227 -0.2569
18270TIP3    H276302   2.565   6.646   5.296 -2.1936 -0.3861  0.3635
18271TIP3   OH276303   7.193   3.683   2.602 -0.1923 -0.5250 -0.9798
18271TIP3    H176304   7.239   3.647   2.526  0.0535  1.3809 -1.8088
18271TIP3    H276305   7.229   3.772   2.612 -3.1392  0.8142 -1.2320
18272TIP3   OH276306   5.570   7.246   5.750  0.6683  0.1506 -0.1987
18272TIP3    H176307   5.619   7.218   5.672 -0.4077 -1.4570 -0.3314
18272TIP3    H276308   5.498   7.184   5.757 -1.1734  2.2262  0.2029
18273TIP3   OH276309   1.411   6.105   4.892  0.2715 -0.4355 -0.2933
18273TIP3    H176310   1.329   6.137   4.929  1.1075  0.2861  0.9981
18273TIP3    H276311   1.444   6.042   4.956  0.7393 -0.7311 -0.8119
18274TIP3   OH276312   0.895   4.989   1.183  0.3657  0.3967  0.1744
18274TIP3    H176313   0.946   4.931   1.240 -0.4840 -0.3942  0.1654
18274TIP3    H276314   0.864   4.932   1.113 -1.2983  0.6155  0.6751
18275TIP3   OH276315   3.900   5.176   0.700 -0.1111 -0.3180  0.0559
18275TIP3    H176316   3.829   5.179   0.763 -0.3247 -1.3374 -0.1240
18275TIP3    H276317   3.972   5.222   0.743 -0.0189 -1.6038  1.3371
18276TIP3   OH276318   1.535   0.218   2.321 -0.3143 -0.3982 -0.0092
18276TIP3    H176319   1.585   0.138   2.302 -0.6294 -0.6494  0.2206
18276TIP3    H276320   1.452   0.206   2.275  0.1944  0.4522 -1.2150
18277TIP3   OH276321   0.522   2.248  15.185  0.2162 -0.1582 -0.0257
18277TIP3    H176322   0.574   2.229  15.263  0.3017 -0.0302 -0.0511
18277TIP3    H276323   0.496   2.162  15.152  0.8281 -0.2533 -0.2924
18278TIP3   OH276324   0.490   0.047   2.620  0.3512 -0.3462 -0.2285
18278TIP3    H176325   0.395   0.042   2.618  0.3622 -1.7427  0.7251
18278TIP3    H276326   0.510   0.131   2.662 -0.4560  0.0342 -0.6061
18279TIP3   OH276327   4.804   2.771   2.871 -0.1835  0.2416 -0.2816
18279TIP3    H176328   4.763   2.748   2.788  1.2539 -0.0499 -0.9421
18279TIP3    H276329   4.845   2.856   2.856  1.0839 -0.3422 -0.2698
18280TIP3   OH276330   5.514   5.957  14.336  0.1747  0.3579 -0.0119
18280TIP3    H176331   5.581   6.025  14.324  0.5307  0.2166  1.0544
18280TIP3    H276332   5.462   5.988  14.411  0.6487 -0.7533  0.8141
18281TIP3   OH276333   2.861   5.711  14.048  0.1356  0.0687 -0.0769
18281TIP3    H176334   2.846   5.628  14.003 -3.1008  0.1666  0.5431
18281TIP3    H276335   2.850   5.777  13.980  2.0098  0.0742 -0.4241
18282TIP3   OH276336   1.687   6.598  12.787 -0.0249  0.5972  0.1267
18282TIP3    H176337   1.736   6.679  12.778  1.3581 -0.1688  0.5702
18282TIP3    H276338   1.734   6.547  12.853  0.0951 -1.2354 -1.2641
18283TIP3   OH276339   1.012   1.147  14.228 -0.5592  0.6950  0.1189
18283TIP3    H176340   0.955   1.072  14.212  0.5196  0.1574 -1.3823
18283TIP3    H276341   1.087   1.134  14.171  0.6476  1.8773  1.3345
18284TIP3   OH276342   3.186   5.303  11.712 -0.5738  0.1683 -0.3653
18284TIP3    H176343   3.150   5.233  11.767 -0.6763  0.8837  0.4914
18284TIP3    H276344   3.184   5.381  11.768 -0.8441  0.9510 -1.4415
18285TIP3   OH276345   0.162   2.867   5.356 -1.3501 -0.7779  0.3320
18285TIP3    H176346   0.215   2.946   5.348 -0.6995 -1.2867 -0.6426
18285TIP3    H276347   0.108   2.881   5.434  0.0024 -0.1174  1.1743
18286TIP3   OH276348   0.591   3.111   2.273 -0.0549 -0.0010 -0.2250
18286TIP3    H176349   0.598   3.190   2.327  1.6869 -0.4103  0.2255
18286TIP3    H276350   0.574   3.041   2.336  0.7849 -0.3073 -0.3243
18287TIP3   OH276351   6.915   3.963   2.099  0.2326  0.6211 -0.0095
18287TIP3    H176352   6.981   3.925   2.156  1.9932  0.1263 -2.2395
18287TIP3    H276353   6.868   4.025   2.155  3.0700  1.5706  1.5362
18288TIP3   OH276354   1.812   6.047  15.199 -0.3521 -0.6992  0.6651
18288TIP3    H176355   1.766   6.069  15.280 -1.9631 -1.7487  0.0852
18288TIP3    H276356   1.755   6.080  15.129  0.1657 -1.3275 -0.0724
18289TIP3   OH276357   0.596   6.286   1.408  0.3117 -0.4159  0.0868
18289TIP3    H176358   0.583   6.326   1.494 -0.9197 -0.3831 -0.0975
18289TIP3    H276359   0.532   6.330   1.352 -0.6989 -2.2466 -0.2456
18290TIP3   OH276360   2.554   3.300   4.340 -0.0081 -0.6336  0.1350
18290TIP3    H176361   2.605   3.246   4.280  0.7385 -0.6722  0.7942
18290TIP3    H276362   2.598   3.384   4.340 -0.3337 -0.4590  0.2153
18291TIP3   OH276363   1.880   0.433  13.074 -1.0332  0.0670 -0.5233
18291TIP3    H176364   1.866   0.525  13.098 -0.5372 -0.3020  1.3595
18291TIP3    H276365   1.951   0.435  13.011 -0.5222  0.9431  0.0555
18292TIP3   OH276366   7.193   0.473  10.691  0.4356 -0.3160 -0.7232
18292TIP3    H176367   7.188   0.421  10.771  0.3209  1.5045  0.5278
18292TIP3    H276368   7.102   0.484  10.663  0.3345  0.3538 -0.1718
18293TIP3   OH276369   1.050   4.675  15.290  0.4051  0.4710  0.3504
18293TIP3    H176370   1.083   4.671  15.200  1.1702  2.3903  0.4893
18293TIP3    H276371   1.082   4.595  15.332 -0.6801 -0.8728 -1.2858
18294TIP3   OH276372   3.360   0.484   5.301  0.0569 -0.2336  0.7065
18294TIP3    H176373   3.317   0.459   5.382 -1.3831  0.4650  0.1901
18294TIP3    H276374   3.427   0.417   5.287  0.6979 -0.0673  2.7273
18295TIP3   OH276375   1.747   4.199  12.285 -0.0476 -0.0432 -0.8421
18295TIP3    H176376   1.829   4.213  12.238 -0.0523  1.8115 -0.3714
18295TIP3    H276377   1.748   4.106  12.307  1.8428 -0.1064 -0.9967
18296TIP3   OH276378   1.502   2.101   1.526 -0.0933 -0.3843 -0.1242
18296TIP3    H176379   1.417   2.110   1.482 -0.6487 -1.1333  0.7674
18296TIP3    H276380   1.484   2.118   1.618  0.6838 -0.7376  0.1041
18297TIP3   OH276381   1.637   3.542   1.127 -0.4575  0.1911 -0.3132
18297TIP3    H176382   1.554   3.500   1.146 -0.1938 -0.8402 -1.3368
18297TIP3    H276383   1.633   3.626   1.173 -2.1457  0.2623 -0.5285
18298TIP3   OH276384   6.186   3.646   0.133  0.1298  0.0019  0.1050
18298TIP3    H176385   6.157   3.710   0.198 -0.7491  0.1206 -0.3842
18298TIP3    H276386   6.124   3.574   0.142  0.4058 -0.2676 -0.1496
18299TIP3   OH276387   6.725   2.374  13.969  0.1710 -0.3502 -0.1952
18299TIP3    H176388   6.671   2.437  14.016 -0.0509  0.2721 -1.2378
18299TIP3    H276389   6.793   2.348  14.031 -0.1455  0.4030  0.4731
18300TIP3   OH276390   2.050   5.161   1.567 -0.5916  0.4048 -0.1750
18300TIP3    H176391   2.088   5.216   1.636 -1.2754 -0.6068  1.0438
18300TIP3    H276392   1.969   5.205   1.542 -0.5013  0.6065 -0.1139
18301TIP3   OH276393   2.333   3.411   3.052 -0.0541  0.0158 -0.0295
18301TIP3    H176394   2.251   3.363   3.038 -1.2864  1.8241  0.6696
18301TIP3    H276395   2.353   3.449   2.967 -0.3940  0.2577 -0.0007
18302TIP3   OH276396   1.255   1.178   1.418 -0.0473  0.3747  0.6236
18302TIP3    H176397   1.270   1.100   1.471 -1.9974  1.2078  2.5815
18302TIP3    H276398   1.322   1.240   1.447  0.1193  0.1658  0.6878
18303TIP3   OH276399   2.018   0.750  14.278 -0.0547  0.2419  0.2926
18303TIP3    H176400   2.067   0.690  14.223 -0.9815  0.7640 -1.1624
18303TIP3    H276401   2.074   0.827  14.287  0.3155 -0.0545  0.5339
18304TIP3   OH276402   2.831   3.383   2.334 -0.0782  0.1384  0.0405
18304TIP3    H176403   2.798   3.430   2.257  0.8671  1.0841  0.1856
18304TIP3    H276404   2.852   3.452   2.396  0.2929 -0.5587  0.7023
18305TIP3   OH276405   4.291   1.014  14.054  0.5709 -0.2949  0.0644
18305TIP3    H176406   4.256   1.103  14.058  0.7289 -0.1837 -0.8018
18305TIP3    H276407   4.240   0.965  14.119  1.4109  0.7298  1.5512
18306TIP3   OH276408   2.090   5.210   4.663  0.3782  0.1149 -0.1844
18306TIP3    H176409   2.056   5.130   4.704  1.0891  0.1400  0.4796
18306TIP3    H276410   2.012   5.259   4.637 -0.1037  0.0736  1.1040
18307TIP3   OH276411   0.791   5.776   0.055 -0.0815  0.0635  0.0060
18307TIP3    H176412   0.815   5.851   0.110 -1.6090  0.7148 -0.1924
18307TIP3    H276413   0.736   5.721   0.111 -2.5338  1.2468 -1.0942
18308TIP3   OH276414   2.092   0.515   1.619 -0.6740  0.1551 -0.5705
18308TIP3    H176415   2.064   0.575   1.687 -0.7725 -0.2432 -0.2557
18308TIP3    H276416   2.179   0.486   1.646 -0.5596  0.2734 -0.8036
18309TIP3   OH276417   6.522   2.949   3.944 -0.0199  0.2828  0.0074
18309TIP3    H176418   6.482   2.863   3.931 -0.1328 -0.2464  3.1446
18309TIP3    H276419   6.580   2.960   3.869 -0.5637 -2.1799 -0.8645
18310TIP3   OH276420   1.600   4.604   0.241  0.4871 -0.2927  0.9791
18310TIP3    H176421   1.513   4.636   0.264  0.9197  0.0733  2.1937
18310TIP3    H276422   1.660   4.656   0.295  1.3499 -1.6696  1.3956
18311TIP3   OH276423   6.833   0.613   2.791 -0.2555  0.6230 -0.7862
18311TIP3    H176424   6.823   0.655   2.877  0.3103  0.7510 -0.7757
18311TIP3    H276425   6.839   0.685   2.729  2.4034  0.6750 -0.5880
18312TIP3   OH276426   5.073   1.063  12.232  0.3010  0.4587  0.7406
18312TIP3    H176427   4.992   1.101  12.266 -0.9826  0.6532 -2.2195
18312TIP3    H276428   5.136   1.135  12.234  0.1195  0.6023  2.0955
18313TIP3   OH276429   5.046   6.659   3.929  0.0108 -0.1908  0.1723
18313TIP3    H176430   5.024   6.586   3.987  1.3453 -0.7413  0.0393
18313TIP3    H276431   5.103   6.620   3.862 -0.1383  0.7607 -0.5348
18314TIP3   OH276432   0.129   0.757   3.973 -0.0748  0.4547 -0.1667
18314TIP3    H176433   0.172   0.837   3.944  0.5732 -0.5919 -2.2303
18314TIP3    H276434   0.066   0.737   3.904 -0.6191 -0.5278  0.5942
18315TIP3   OH276435   1.368   6.631   2.294  0.3503 -0.1911  0.2396
18315TIP3    H176436   1.398   6.673   2.375  0.1088  2.2395 -0.8554
18315TIP3    H276437   1.389   6.694   2.225 -3.3007 -0.2235 -1.1148
18316TIP3   OH276438   6.118   1.720   2.562  0.6490 -0.2315  0.5375
18316TIP3    H176439   6.209   1.728   2.591  0.2640 -0.5388  1.9561
18316TIP3    H276440   6.067   1.735   2.642 -0.5006 -1.1894  0.0157
18317TIP3   OH276441   0.998   4.209  15.121 -0.2160 -0.3329  0.5295
18317TIP3    H176442   0.937   4.178  15.055  1.3219  0.3270 -1.2989
18317TIP3    H276443   0.947   4.270  15.175 -1.9322 -2.1757  1.0646
18318TIP3   OH276444   6.767   1.162  11.064  0.3883  0.1251 -0.1895
18318TIP3    H176445   6.773   1.124  11.152  0.4488 -1.1402 -0.7204
18318TIP3    H276446   6.772   1.087  11.005 -0.2659  0.8989 -1.2640
18319TIP3   OH276447   0.901   1.404   4.940  0.2734 -0.1433  0.3747
18319TIP3    H176448   0.987   1.362   4.949  0.0711 -0.9405 -1.0702
18319TIP3    H276449   0.894   1.461   5.016  1.4051 -1.2704  1.3622
18320TIP3   OH276450   5.185   1.102   0.835  0.3374  0.6276 -0.1008
18320TIP3    H176451   5.223   1.182   0.797  0.5568  0.4515 -0.2587
18320TIP3    H276452   5.258   1.039   0.835 -0.1204  0.0729 -1.0281
18321TIP3   OH276453   0.872   6.388   0.362 -0.5261  0.7488  0.2811
18321TIP3    H176454   0.852   6.296   0.346 -0.4190  0.9242 -0.9313
18321TIP3    H276455   0.931   6.386   0.437  0.5024 -0.2699 -0.5201
18322TIP3   OH276456   4.949   4.283  14.174 -0.0324 -0.1237 -0.0798
18322TIP3    H176457   4.986   4.353  14.120  1.5002 -1.7056 -1.1638
18322TIP3    H276458   4.979   4.202  14.133 -1.5313 -1.4442  1.2951
18323TIP3   OH276459   2.995   0.277   0.688  0.4841 -0.1279 -0.0192
18323TIP3    H176460   3.031   0.293   0.601 -0.7101  0.0098 -0.5028
18323TIP3    H276461   2.947   0.194   0.680  0.8491 -0.4182  0.6699
18324TIP3   OH276462   4.185   2.821   2.351 -0.1157  0.0453 -0.1814
18324TIP3    H176463   4.251   2.831   2.282  0.9419 -2.8226  0.2762
18324TIP3    H276464   4.133   2.746   2.324 -1.5500  0.6676  0.7687
18325TIP3   OH276465   4.314   2.818   4.519 -0.1093 -0.1868  0.0789
18325TIP3    H176466   4.325   2.884   4.451 -0.0666 -0.2397  0.0344
18325TIP3    H276467   4.397   2.772   4.522 -0.2121 -0.3787 -0.0385
18326TIP3   OH276468   4.856   3.298   4.187  0.0556 -0.4397  0.2009
18326TIP3    H176469   4.857   3.256   4.101  0.2409  0.8407 -0.4451
18326TIP3    H276470   4.775   3.349   4.188 -0.2917 -0.9910  1.0713
18327TIP3   OH276471   3.121   6.600  13.366  0.3538 -0.0337  0.3315
18327TIP3    H176472   3.165   6.516  13.356 -2.0972 -1.5431  1.4509
18327TIP3    H276473   3.029   6.578  13.382 -0.6643  2.9010 -0.7346
18328TIP3   OH276474   4.713   1.922   3.607  0.3755 -0.0506 -0.1634
18328TIP3    H176475   4.707   1.827   3.602  0.6126 -0.3122  2.9634
18328TIP3    H276476   4.768   1.939   3.682  0.6662  2.6005 -0.8821
18329TIP3   OH276477   4.824   0.916   4.252  0.7013  0.3611 -0.4667
18329TIP3    H176478   4.899   0.939   4.307 -0.2304 -0.2344  1.1079
18329TIP3    H276479   4.766   0.992   4.257  0.3452  0.0730 -0.1260
18330TIP3   OH276480   1.505   6.850  11.146 -0.5613 -0.3421 -0.2123
18330TIP3    H176481   1.495   6.912  11.219  0.4202  0.0023 -0.3560
18330TIP3    H276482   1.478   6.900  11.069 -0.6569 -0.3899 -0.2094
18331TIP3   OH276483   1.407   1.852   3.492 -0.6507  0.4749  0.4966
18331TIP3    H176484   1.412   1.831   3.399  0.7983 -1.6337  0.9804
18331TIP3    H276485   1.386   1.769   3.535 -0.2705  1.1666  2.1298
18332TIP3   OH276486   2.420   3.618  15.130  0.4232 -0.4295 -0.2660
18332TIP3    H176487   2.407   3.590  15.220  0.8783  2.7065  0.8964
18332TIP3    H276488   2.350   3.681  15.113  1.1778  0.1245 -1.5712
18333TIP3   OH276489   2.728   2.930   3.252 -0.1260 -0.4868  0.0963
18333TIP3    H176490   2.824   2.928   3.248 -0.0598 -0.2469  1.2635
18333TIP3    H276491   2.708   2.935   3.345 -1.2747 -0.0363 -0.1588
18334TIP3   OH276492   0.744   6.985   4.513  0.1294 -0.0284 -0.3336
18334TIP3    H176493   0.827   7.018   4.478  0.7576  1.4117  2.2200
18334TIP3    H276494   0.760   6.892   4.529  1.7831  0.4670  1.2901
18335TIP3   OH276495   5.026   6.790  13.180 -0.0927  0.0948  0.3621
18335TIP3    H176496   5.040   6.875  13.139 -2.5182  0.9349  1.0832
18335TIP3    H276497   5.081   6.791  13.258  0.6906  0.5487 -0.1854
18336TIP3   OH276498   6.102   0.068   2.792  0.3649 -0.2289 -0.4691
18336TIP3    H176499   6.196   0.048   2.790 -0.0703 -2.5416 -0.4713
18336TIP3    H276500   6.086   0.113   2.709  1.3414 -0.4060 -0.7751
18337TIP3   OH276501   2.568   6.662   4.597 -0.6567 -0.3788  0.4867
18337TIP3    H176502   2.562   6.668   4.501  2.2812  1.0938  0.2789
18337TIP3    H276503   2.488   6.703   4.628 -1.2126  0.0471 -1.3581
18338TIP3   OH276504   3.382   3.837   0.513  0.3096  0.1331  0.3204
18338TIP3    H176505   3.408   3.907   0.453  1.6057 -0.5964  0.0002
18338TIP3    H276506   3.465   3.802   0.546 -0.3410  0.9447  3.0647
18339TIP3   OH276507   5.555   0.238  14.341  0.6831  0.7491 -0.3606
18339TIP3    H176508   5.488   0.253  14.408  0.3947  1.2085 -0.7489
18339TIP3    H276509   5.550   0.315  14.284 -1.1000 -0.9044 -2.6299
18340TIP3   OH276510   6.723   6.614   0.257 -0.0659 -0.1286 -0.0029
18340TIP3    H176511   6.632   6.587   0.267 -1.2817  2.4395 -2.7668
18340TIP3    H276512   6.749   6.584   0.170  0.4374  2.2427 -0.7550
18341TIP3   OH276513   3.413   4.574  13.552 -0.6218 -0.0645 -0.3484
18341TIP3    H176514   3.436   4.660  13.587 -1.3797  0.2017 -0.5012
18341TIP3    H276515   3.376   4.527  13.627 -1.7763  0.3323 -0.6503
18342TIP3   OH276516   1.692   1.587  13.651  0.6106 -1.2445 -0.5186
18342TIP3    H176517   1.745   1.623  13.580  0.5720  0.9560  0.4702
18342TIP3    H276518   1.611   1.639  13.649 -0.7287 -3.2345 -0.7846
18343TIP3   OH276519   2.196   2.588   2.480  0.3527  0.6163  0.1049
18343TIP3    H176520   2.125   2.638   2.520 -0.5221  1.1386 -1.9755
18343TIP3    H276521   2.174   2.585   2.387  0.7230 -3.0270 -0.0298
18344TIP3   OH276522   6.243   0.367   0.901  0.3249  0.4833 -0.0222
18344TIP3    H176523   6.304   0.414   0.957  0.1340  0.3443  0.3083
18344TIP3    H276524   6.161   0.366   0.951  0.6688 -1.3338  0.5652
18345TIP3   OH276525   1.933   1.475   3.624  0.2823 -0.0134  0.2069
18345TIP3    H176526   1.959   1.385   3.608  2.6868  0.6867 -0.2835
18345TIP3    H276527   1.890   1.473   3.710 -0.7662 -1.7589 -0.3197
18346TIP3   OH276528   3.062   0.563   1.801 -0.3082 -0.2318  0.2071
18346TIP3    H176529   3.021   0.567   1.714 -1.1603  1.2862  0.6267
18346TIP3    H276530   2.988   0.564   1.862  0.2873  1.9420  0.9798
18347TIP3   OH276531   3.409   2.844   2.391 -0.5717  0.0934 -0.6452
18347TIP3    H176532   3.400   2.916   2.454  0.4077  0.6692 -1.1393
18347TIP3    H276533   3.326   2.796   2.397 -0.2683 -0.2705  1.5581
18348TIP3   OH276534   3.072   0.557   5.180 -0.0355  0.3145 -0.2988
18348TIP3    H176535   3.004   0.576   5.116 -0.5265 -1.7122 -0.4330
18348TIP3    H276536   3.148   0.531   5.129  0.5961  1.6893 -0.1147
18349TIP3   OH276537   3.861   1.350   3.870  0.3640 -0.0602  0.5621
18349TIP3    H176538   3.825   1.386   3.788 -0.6167  1.5615  1.6458
18349TIP3    H276539   3.954   1.339   3.852  0.0333 -0.6647 -1.0618
18350TIP3   OH276540   1.914   2.103   4.128 -0.2679  0.2963  0.1380
18350TIP3    H176541   1.855   2.060   4.067 -0.5359  1.9468 -0.8250
18350TIP3    H276542   1.902   2.056   4.211 -2.3144  0.0630 -0.2543
18351TIP3   OH276543   5.553   1.966   2.440 -0.1514 -0.6145 -0.3704
18351TIP3    H176544   5.645   1.968   2.466 -0.0277 -0.2437 -0.8180
18351TIP3    H276545   5.542   1.883   2.394 -0.1667 -0.8918  0.1356
18352TIP3   OH276546   7.182   6.430  13.958 -0.3520  0.3611 -0.1484
18352TIP3    H176547   7.237   6.353  13.950  0.8206  1.2654 -1.3383
18352TIP3    H276548   7.095   6.396  13.976  0.2027 -1.2098 -0.2988
18353TIP3   OH276549   2.659   3.051  13.215  0.0747 -0.6464  0.2334
18353TIP3    H176550   2.682   2.959  13.224  0.3489 -0.3788  3.1289
18353TIP3    H276551   2.736   3.099  13.245 -0.3994  0.5153 -0.3240
18354TIP3   OH276552   7.242   0.270   2.583 -0.1061  0.0973 -0.3297
18354TIP3    H176553   7.300   0.331   2.537 -0.1640 -0.6365 -1.3958
18354TIP3    H276554   7.184   0.327   2.635 -0.8371  1.0318 -2.0954
18355TIP3   OH276555   2.594   7.036   3.823 -0.4781 -0.1353 -0.0789
18355TIP3    H176556   2.621   6.991   3.743  1.0464 -1.7041  1.2261
18355TIP3    H276557   2.558   7.119   3.793 -0.5866 -0.9463 -2.4195
18356TIP3   OH276558   6.216   0.552   3.115  0.1209  0.2825  0.1772
18356TIP3    H176559   6.299   0.594   3.095  0.1618  0.2410  0.2619
18356TIP3    H276560   6.239   0.463   3.141 -0.0607 -0.2643 -1.3988
18357TIP3   OH276561   0.644   2.817   2.642  0.3302  0.4779  0.0652
18357TIP3    H176562   0.675   2.841   2.730 -0.8073  0.0422  0.6099
18357TIP3    H276563   0.692   2.737   2.621 -0.9112 -0.6283  1.2273
18358TIP3   OH276564   6.235   4.036   2.302  0.8177  0.0034  0.1230
18358TIP3    H176565   6.268   4.106   2.245 -1.3494 -0.4003 -1.7770
18358TIP3    H276566   6.147   4.018   2.269 -0.3079 -0.7801  3.2093
18359TIP3   OH276567   5.862   6.775   4.864  0.6498 -0.0901 -0.5345
18359TIP3    H176568   5.882   6.683   4.880  1.2620 -0.1206 -1.4106
18359TIP3    H276569   5.839   6.779   4.771  1.1609  0.7296 -0.6377
18360TIP3   OH276570   7.206   6.170   5.134 -0.1633  0.1614  0.6996
18360TIP3    H176571   7.243   6.086   5.163 -0.0097 -0.9329 -2.3273
18360TIP3    H276572   7.116   6.149   5.109 -0.1336  0.9023 -0.0712
18361TIP3   OH276573   6.881   0.597  14.139  0.6521 -0.7948 -0.6650
18361TIP3    H176574   6.876   0.692  14.145 -0.2032 -0.8997  0.7683
18361TIP3    H276575   6.790   0.568  14.130  0.7985 -1.5187  0.0227
18362TIP3   OH276576   6.717   5.866   0.981  0.6525 -0.3505 -0.1561
18362TIP3    H176577   6.727   5.920   0.903  3.3518  0.4557  0.6345
18362TIP3    H276578   6.776   5.793   0.968 -0.1792 -1.1538  0.4230
18363TIP3   OH276579   0.333   7.086   2.831 -0.2720 -0.0071 -0.4314
18363TIP3    H176580   0.268   7.092   2.761  0.0996 -0.6441 -0.8356
18363TIP3    H276581   0.401   7.028   2.797  1.1207  1.5838 -0.4850
18364TIP3   OH276582   2.087   0.781   3.223  0.0590 -0.0028 -0.3513
18364TIP3    H176583   2.020   0.762   3.158  0.1151  0.7448 -0.6311
18364TIP3    H276584   2.092   0.877   3.226  0.4076 -0.0364  0.3869
18365TIP3   OH276585   0.390   4.074   4.078 -0.1524  0.6560  0.2246
18365TIP3    H176586   0.479   4.038   4.070 -1.1865 -1.5885 -2.9314
18365TIP3    H276587   0.404   4.168   4.087  2.5605  0.3432  0.2069
18366TIP3   OH276588   3.842   4.213   2.281 -0.4673  0.3426  0.2483
18366TIP3    H176589   3.884   4.127   2.288 -0.4676  0.2734 -0.5342
18366TIP3    H276590   3.748   4.194   2.283 -0.4672  0.4426  1.3758
18367TIP3   OH276591   3.780   6.832   5.154  0.3606  0.1948 -0.4270
18367TIP3    H176592   3.705   6.780   5.125 -0.7124  2.7461 -2.6428
18367TIP3    H276593   3.846   6.767   5.179 -1.7209 -2.1620 -0.6759
18368TIP3   OH276594   3.380   1.893  14.305 -0.1941  0.3862  0.1703
18368TIP3    H176595   3.343   1.886  14.217  1.1439 -1.8462 -0.2895
18368TIP3    H276596   3.473   1.908  14.290  0.2286 -1.0813  1.1590
18369TIP3   OH276597   1.823   4.635   3.005  0.1922 -0.0151  0.0699
18369TIP3    H176598   1.787   4.609   2.921  1.0272  0.8065 -0.5648
18369TIP3    H276599   1.802   4.563   3.064 -1.6297  0.0210 -0.4868
18370TIP3   OH276600   1.036   5.901   2.355  0.0133  0.2440 -0.1443
18370TIP3    H176601   1.026   5.958   2.430  1.8470  0.2597  0.1281
18370TIP3    H276602   1.028   5.959   2.279 -2.1020  0.1845 -0.0049
18371TIP3   OH276603   1.650   6.594   2.488  0.1965 -0.0626 -0.8033
18371TIP3    H176604   1.681   6.542   2.413  0.7907  0.4544 -0.9294
18371TIP3    H276605   1.729   6.638   2.520 -0.1258  0.0109 -0.1027
18372TIP3   OH276606   2.705   5.027   3.773  0.1058  0.0627  0.3132
18372TIP3    H176607   2.622   5.016   3.820 -0.2448 -1.1805 -0.5669
18372TIP3    H276608   2.695   4.975   3.693  1.0627  1.3343 -0.6831
18373TIP3   OH276609   4.887   0.134   4.106 -0.4866 -0.5768  0.2303
18373TIP3    H176610   4.942   0.086   4.168  0.6936 -0.0555 -0.3895
18373TIP3    H276611   4.868   0.217   4.150 -0.1067 -0.4316  0.1238
18374TIP3   OH276612   0.672   6.424  12.962  0.1990  0.0406  0.1339
18374TIP3    H176613   0.681   6.516  12.986 -0.5332  0.2004 -0.1781
18374TIP3    H276614   0.757   6.402  12.923  0.7935  0.2489  1.2542
18375TIP3   OH276615   1.219   4.438   3.070 -0.1362  0.2657 -0.0557
18375TIP3    H176616   1.187   4.422   3.158 -1.1255 -2.0557 -0.7680
18375TIP3    H276617   1.142   4.467   3.021  0.4445  1.7406 -0.1698
18376TIP3   OH276618   1.653   1.611  14.745 -0.1867  0.2113 -0.7286
18376TIP3    H176619   1.667   1.517  14.731  0.1193  0.1407 -0.0079
18376TIP3    H276620   1.673   1.651  14.661  1.0750 -0.2369 -0.6579
18377TIP3   OH276621   4.277   1.414   2.096  0.2468  0.0277 -0.1429
18377TIP3    H176622   4.202   1.447   2.145 -0.1730 -0.5667 -0.3780
18377TIP3    H276623   4.353   1.435   2.151  0.0238  1.5903 -0.3937
18378TIP3   OH276624   3.514   3.254   2.018 -0.3262  1.0888  1.2096
18378TIP3    H176625   3.450   3.325   2.013 -0.9418  0.6110  1.9848
18378TIP3    H276626   3.510   3.224   2.109 -1.3749 -1.0825  0.5300
18379TIP3   OH276627   6.067   3.727   3.128 -0.2385  0.2912  0.5778
18379TIP3    H176628   6.148   3.748   3.081 -0.6600  0.8396  0.0757
18379TIP3    H276629   6.096   3.692   3.212  0.5108  0.9451  0.5997
18380TIP3   OH276630   1.654   0.645   4.131 -0.4077 -0.8470  0.1180
18380TIP3    H176631   1.747   0.646   4.109 -0.5608  2.0795 -0.8610
18380TIP3    H276632   1.644   0.715   4.195 -2.1138 -0.0685 -0.9144
18381TIP3   OH276633   6.155   4.714   5.565  0.8897 -0.4116  0.2292
18381TIP3    H176634   6.204   4.687   5.643 -0.3182 -2.4367  0.3786
18381TIP3    H276635   6.126   4.803   5.584 -0.2364 -1.1949  2.6184
18382TIP3   OH276636   0.865   6.756   4.586 -0.1553 -0.1069  0.0543
18382TIP3    H176637   0.908   6.670   4.583  2.0811  0.8376  2.1596
18382TIP3    H276638   0.836   6.765   4.677 -0.0814  1.4723 -0.0519
18383TIP3   OH276639   2.643   3.307   0.056 -0.4763  0.0006 -0.7276
18383TIP3    H176640   2.659   3.360  -0.022  0.0048  0.8759 -0.0492
18383TIP3    H276641   2.564   3.258   0.036 -0.6431  0.5947 -1.5689
18384TIP3   OH276642   1.957   1.565   2.506 -0.2073  0.3408  0.4273
18384TIP3    H176643   1.972   1.485   2.456  0.8621  0.1227  1.0468
18384TIP3    H276644   1.917   1.626   2.444  1.8352  0.3709 -0.9722
18385TIP3   OH276645   2.563   2.508  12.896  0.6012  0.4736 -0.3728
18385TIP3    H176646   2.570   2.583  12.955 -1.6833  0.1649  0.3829
18385TIP3    H276647   2.514   2.543  12.821  2.2443  0.4888 -1.5039
18386TIP3   OH276648   4.518   6.278   4.159  0.7602 -0.3532  0.0216
18386TIP3    H176649   4.467   6.219   4.105  0.6557 -1.4774  1.2820
18386TIP3    H276650   4.458   6.348   4.182  0.1017 -1.0748  0.5568
18387TIP3   OH276651   6.085   5.974   4.205 -0.1422 -0.4372  0.3804
18387TIP3    H176652   6.053   6.063   4.188  2.2066  0.7709  1.6914
18387TIP3    H276653   6.167   5.969   4.156 -0.6566 -2.2440 -0.3722
18388TIP3   OH276654   6.860   3.250   4.136 -0.5348 -0.6983 -0.2041
18388TIP3    H176655   6.811   3.232   4.217 -0.3950 -0.0550  0.0281
18388TIP3    H276656   6.805   3.310   4.087  0.7636  1.5216  0.8843
18389TIP3   OH276657   0.336   0.146  14.524 -0.0503  0.0941  0.3652
18389TIP3    H176658   0.269   0.204  14.561  1.6710  0.8127  2.6081
18389TIP3    H276659   0.326   0.156  14.430 -2.6658  0.6310  0.6079
18390TIP3   OH276660   4.453   5.129   0.572  0.6435  0.5443 -0.3279
18390TIP3    H176661   4.432   5.130   0.479  0.9162  2.2198 -0.4102
18390TIP3    H276662   4.540   5.090   0.576  0.2112 -0.4803 -0.6542
18391TIP3   OH276663   1.724   3.691   5.605 -0.3063 -0.3577  0.1639
18391TIP3    H176664   1.815   3.700   5.634 -0.3990  2.2603 -0.1576
18391TIP3    H276665   1.698   3.604   5.637  1.7880 -0.5172  1.6880
18392TIP3   OH276666   3.753   0.928   0.628  0.3162  0.4187  0.2613
18392TIP3    H176667   3.726   1.017   0.607  0.4911  0.4577  0.2032
18392TIP3    H276668   3.686   0.872   0.589 -0.3786  0.5667  1.2137
18393TIP3   OH276669   4.837   1.901   4.183  0.2618 -0.3257  0.0082
18393TIP3    H176670   4.901   1.937   4.122 -0.7211 -0.0389 -0.8894
18393TIP3    H276671   4.752   1.917   4.141 -0.4182 -0.4729  1.2768
18394TIP3   OH276672   3.636   3.117   0.740  1.2613  0.0081 -0.9124
18394TIP3    H176673   3.680   3.198   0.766  4.7512 -1.7850 -0.6749
18394TIP3    H276674   3.685   3.086   0.664 -0.3914 -1.6010 -1.3865
18395TIP3   OH276675   3.067   4.655   2.474 -0.5472  0.3194  0.4013
18395TIP3    H176676   3.087   4.572   2.518 -1.5057 -0.2237 -0.1626
18395TIP3    H276677   2.972   4.658   2.472 -0.5374  0.2359 -1.7999
18396TIP3   OH276678   0.508   3.740  15.193  0.0004 -0.4956 -0.1098
18396TIP3    H176679   0.470   3.674  15.135 -0.0013 -1.0544  0.5216
18396TIP3    H276680   0.564   3.691  15.252  1.7725  0.3099 -1.0306
18397TIP3   OH276681   4.299   4.765   4.051  0.3208 -0.5468 -0.2787
18397TIP3    H176682   4.368   4.699   4.056  2.1636  1.3291  0.2188
18397TIP3    H276683   4.280   4.788   4.143  0.1887  0.0959 -0.4578
18398TIP3   OH276684   6.885   1.274   5.559  0.9564  0.8282 -0.5054
18398TIP3    H176685   6.847   1.355   5.591 -0.2117  0.3980 -0.7502
18398TIP3    H276686   6.967   1.300   5.516  1.2373  1.7066  0.5247
18399TIP3   OH276687   4.965   0.136   5.911  1.0798  0.2612  0.2918
18399TIP3    H176688   4.944   0.173   5.825 -0.1919 -0.9315  0.0455
18399TIP3    H276689   5.059   0.120   5.908  0.8693 -0.8862 -1.3744
18400TIP3   OH276690   3.663   6.589   1.269  0.3133 -0.1726 -0.1810
18400TIP3    H176691   3.593   6.595   1.334 -0.2118  0.3276 -0.7844
18400TIP3    H276692   3.661   6.498   1.240 -1.1818  0.1864 -1.3647
18401TIP3   OH276693   0.626   3.010   4.650  0.2713 -0.0613 -0.0324
18401TIP3    H176694   0.719   3.002   4.671  0.0889 -0.4453  0.6435
18401TIP3    H276695   0.619   2.979   4.559  1.0569  1.5635 -0.6970
18402TIP3   OH276696   4.444   6.786   4.443  0.6620  0.1646  0.2386
18402TIP3    H176697   4.511   6.828   4.389  0.0513  0.0478 -0.6319
18402TIP3    H276698   4.491   6.756   4.520  1.2712  1.7595  0.5391
18403TIP3   OH276699   6.220   2.581   4.248 -0.0919 -0.2091  0.0003
18403TIP3    H176700   6.215   2.561   4.341 -2.0745 -1.8992 -0.3866
18403TIP3    H276701   6.144   2.537   4.210  1.1816 -0.3707 -2.5718
18404TIP3   OH276702   5.864   1.873   4.320  0.3297  0.1007 -0.4762
18404TIP3    H176703   5.925   1.841   4.386  0.6882 -0.0824 -0.8926
18404TIP3    H276704   5.835   1.958   4.353  2.0414  0.9573 -1.0224
18405TIP3   OH276705   4.437   4.870  13.436  0.1404  0.2540  0.7140
18405TIP3    H176706   4.397   4.861  13.522 -0.9168  1.2418  0.3578
18405TIP3    H276707   4.438   4.965  13.420 -0.6835  0.0559 -0.7876
18406TIP3   OH276708   5.446   0.549   0.354  0.1583 -0.2260  0.1801
18406TIP3    H176709   5.391   0.486   0.401 -1.4449  1.6468  0.9661
18406TIP3    H276710   5.460   0.619   0.417  3.0016 -0.3244 -0.2208
18407TIP3   OH276711   1.751   4.111   5.385  0.3103 -0.2304  0.0881
18407TIP3    H176712   1.814   4.067   5.328 -1.0444 -1.1624 -0.7539
18407TIP3    H276713   1.773   4.204   5.378  0.5772 -0.3837 -1.4504
18408TIP3   OH276714   1.936   0.613  13.417  0.6892  0.3341  0.4595
18408TIP3    H176715   1.908   0.540  13.362  0.2838 -0.1894  1.3422
18408TIP3    H276716   2.025   0.631  13.389  0.8345 -0.5726  0.3081
18409TIP3   OH276717   6.657   6.586   3.137 -0.2041  0.5242 -0.2975
18409TIP3    H176718   6.674   6.516   3.073 -3.1761  0.5812 -1.3286
18409TIP3    H276719   6.583   6.553   3.189 -0.6842  2.2776  0.1944
18410TIP3   OH276720   1.842   3.271  15.093  0.4671  0.5899 -0.5149
18410TIP3    H176721   1.772   3.324  15.053 -1.2620 -0.3509  1.1071
18410TIP3    H276722   1.862   3.205  15.028 -0.2224  0.8335 -0.9894
18411TIP3   OH276723   1.116   1.383   3.500  0.4947  0.7039  0.0800
18411TIP3    H176724   1.051   1.330   3.452  1.4030 -0.0699 -0.3224
18411TIP3    H276725   1.162   1.319   3.555  2.0754  0.9384 -0.9123
18412TIP3   OH276726   0.319   2.888   5.031  0.6777  0.0213  0.7625
18412TIP3    H176727   0.358   2.802   5.045 -2.9918 -1.4794  3.1357
18412TIP3    H276728   0.329   2.932   5.116 -1.0816  0.2788  0.8605
18413TIP3   OH276729   2.393   5.338   5.191  0.2102  0.2423 -0.3000
18413TIP3    H176730   2.464   5.401   5.197  1.2680 -0.8026 -1.2733
18413TIP3    H276731   2.355   5.353   5.104 -0.3026  0.3213 -0.0657
18414TIP3   OH276732   1.106   2.195   4.018  0.4590 -0.6590  0.2167
18414TIP3    H176733   1.170   2.223   3.953  1.2216 -1.9748  0.3587
18414TIP3    H276734   1.027   2.245   3.998  1.8716  2.0194  0.8520
18415TIP3   OH276735   7.107   0.680   5.270 -0.2834 -0.3472  0.4932
18415TIP3    H176736   7.137   0.696   5.359 -1.6199  1.3104  0.7013
18415TIP3    H276737   7.030   0.736   5.260 -0.9011 -1.4135 -1.3059
18416TIP3   OH276738   6.860   3.230   1.620  0.1325 -0.1132  0.0724
18416TIP3    H176739   6.830   3.319   1.634  0.2457 -0.0536 -0.0609
18416TIP3    H276740   6.791   3.175   1.658  1.1981  0.0417  2.3351
18417TIP3   OH276741   6.784   1.457   0.645  0.3946  0.3455  0.3241
18417TIP3    H176742   6.832   1.374   0.645  0.9420  0.6580  0.0151
18417TIP3    H276743   6.758   1.470   0.554  0.0559  0.3690  0.4229
18418TIP3   OH276744   0.801   3.635   3.386  0.6305  0.3245 -0.1170
18418TIP3    H176745   0.750   3.677   3.456  0.8207  1.3126 -0.5496
18418TIP3    H276746   0.816   3.705   3.322  1.1983 -0.3468 -0.7364
18419TIP3   OH276747   6.785   2.731   6.033  0.6456 -0.0540  0.1596
18419TIP3    H176748   6.749   2.644   6.045 -1.1337  0.5898 -0.2844
18419TIP3    H276749   6.800   2.738   5.938  0.7658  0.1323  0.1916
18420TIP3   OH276750   4.104   6.537   5.109 -0.0588 -0.2299  0.3076
18420TIP3    H176751   4.153   6.467   5.152 -1.8265 -1.8123 -0.1161
18420TIP3    H276752   4.056   6.579   5.181  1.7716  1.2946  0.7165
18421TIP3   OH276753   6.421   6.500  13.686  0.2833 -0.4863 -0.3163
18421TIP3    H176754   6.429   6.572  13.749 -1.0165 -0.9664  0.4300
18421TIP3    H276755   6.485   6.435  13.716  1.5422  0.3454 -1.0551
18422TIP3   OH276756   3.934   3.866  14.817  0.2684 -0.5569 -0.6743
18422TIP3    H176757   3.895   3.780  14.804  0.5417 -0.6301 -1.0501
18422TIP3    H276758   3.861   3.928  14.810 -0.0834 -0.8152  0.5494
18423TIP3   OH276759   6.434   3.167   2.135 -0.0605 -0.0440 -0.1734
18423TIP3    H176760   6.501   3.222   2.094 -0.7140  0.8675 -0.0507
18423TIP3    H276761   6.369   3.154   2.066  0.7338 -1.8497 -0.6425
18424TIP3   OH276762   1.725   1.561   1.444 -0.0436 -0.0044 -0.1900
18424TIP3    H176763   1.668   1.619   1.495 -0.4523  1.8356 -2.5613
18424TIP3    H276764   1.812   1.577   1.478 -0.1684  1.9775 -0.6272
18425TIP3   OH276765   0.320   2.722   4.625  0.3722  0.2145  0.0908
18425TIP3    H176766   0.299   2.762   4.709  0.9614  2.1849 -0.6303
18425TIP3    H276767   0.249   2.750   4.567  1.3523  1.1438 -0.6897
18426TIP3   OH276768   6.088   6.490   5.199  0.3104  0.2319 -0.0191
18426TIP3    H176769   6.022   6.462   5.263  0.8998  0.5929  0.7782
18426TIP3    H276770   6.151   6.541   5.251  1.7236 -0.8819 -0.5624
18427TIP3   OH276771   0.756   5.883   2.427 -0.3787  0.9318  0.8548
18427TIP3    H176772   0.708   5.803   2.447 -0.8620  1.4255  1.7599
18427TIP3    H276773   0.847   5.855   2.414 -0.4952  0.2681  1.4286
18428TIP3   OH276774   2.968   2.437   2.557 -0.2510 -0.3870  0.1519
18428TIP3    H176775   2.888   2.385   2.550 -0.2328 -0.4421  0.3617
18428TIP3    H276776   2.997   2.448   2.466 -1.4700  1.1348 -0.0983
18429TIP3   OH276777   5.781   5.529   3.834 -0.0002  0.2892  0.0734
18429TIP3    H176778   5.866   5.572   3.824 -0.5499  1.5918  0.7491
18429TIP3    H276779   5.764   5.489   3.749 -0.0906  2.6198 -1.0701
18430TIP3   OH276780   3.011   1.628  12.189  0.2637  0.0697  0.3518
18430TIP3    H176781   3.097   1.622  12.149 -1.7701  0.6863 -4.8829
18430TIP3    H276782   2.990   1.721  12.188 -0.0032  0.1520  3.1657
18431TIP3   OH276783   4.140   0.669   1.118 -0.1463 -0.5534 -0.0274
18431TIP3    H176784   4.088   0.598   1.080  1.2163 -0.8487 -1.4194
18431TIP3    H276785   4.084   0.746   1.110 -1.2013 -1.2339  0.4638
18432TIP3   OH276786   3.568   0.167   0.988  0.0379 -0.3328  0.3187
18432TIP3    H176787   3.513   0.127   0.920 -0.0793  0.1589  0.1206
18432TIP3    H276788   3.584   0.096   1.051  1.0770 -1.1042 -0.7744
18433TIP3   OH276789   1.224   3.057   4.017 -0.1286 -0.2815  0.7059
18433TIP3    H176790   1.211   2.998   3.942  1.6622 -0.7851  0.7603
18433TIP3    H276791   1.194   3.006   4.092  0.2145 -0.6408  0.6021
18434TIP3   OH276792   6.420   1.901  13.117  0.0027 -0.6113 -0.6269
18434TIP3    H176793   6.460   1.879  13.201  0.6179 -1.0458 -1.0272
18434TIP3    H276794   6.333   1.860  13.122 -0.7354  0.9819  0.5446
18435TIP3   OH276795   5.078   7.166   2.245  0.2198 -0.5309  0.5807
18435TIP3    H176796   5.015   7.221   2.292  0.4519 -1.1724  1.6832
18435TIP3    H276797   5.077   7.083   2.293  0.1053 -1.3912 -0.8587
18436TIP3   OH276798   6.942   3.670   4.354  0.2928 -1.0843  0.1864
18436TIP3    H176799   6.916   3.756   4.387 -0.4928 -0.5949 -1.5682
18436TIP3    H276800   6.961   3.685   4.261  1.8187 -2.4878  0.2279
18437TIP3   OH276801   3.098   1.860  13.416  0.2294  0.7344  0.0951
18437TIP3    H176802   3.156   1.797  13.373 -2.7130 -0.7293 -2.0492
18437TIP3    H276803   3.141   1.945  13.402  1.9414 -0.2859 -1.2116
18438TIP3   OH276804   6.994   5.816  11.374  0.2645 -0.0326 -0.1930
18438TIP3    H176805   6.964   5.799  11.285  0.6548  0.0129 -0.3318
18438TIP3    H276806   6.948   5.752  11.427 -2.0617  1.6075 -0.0476
18439TIP3   OH276807   0.118   2.251  15.204  0.2173 -0.2355  0.9187
18439TIP3    H176808   0.135   2.174  15.149 -0.4259 -0.3237  0.8345
18439TIP3    H276809   0.183   2.315  15.177  0.0156 -0.3412  0.1646
18440TIP3   OH276810   4.466   0.051   3.530 -0.1185  0.4407 -0.1190
18440TIP3    H176811   4.421   0.081   3.609 -0.2987  1.5805 -0.6387
18440TIP3    H276812   4.437   0.111   3.461  2.7863  1.7287 -0.3361
18441TIP3   OH276813   3.777   3.457   1.458 -0.3435  0.2781  0.9147
18441TIP3    H176814   3.850   3.403   1.427 -0.7047 -0.8081  1.8664
18441TIP3    H276815   3.811   3.546   1.458  0.3515  0.0406 -0.4695
18442TIP3   OH276816   0.248   5.471  10.555 -0.4628 -0.2822  0.6202
18442TIP3    H176817   0.318   5.429  10.506 -0.2182  1.6715 -0.8120
18442TIP3    H276818   0.268   5.452  10.647  1.1833 -0.9041  0.1670
18443TIP3   OH276819   2.678   0.357   2.490  0.2233 -0.7135  0.8487
18443TIP3    H176820   2.739   0.369   2.563 -0.9845 -1.7619  2.0746
18443TIP3    H276821   2.596   0.328   2.531 -0.7226 -0.5850 -0.8609
18444TIP3   OH276822   4.938   6.111   5.390 -0.1794 -0.1979 -0.1850
18444TIP3    H176823   5.019   6.126   5.440  1.4083  0.0678 -2.6584
18444TIP3    H276824   4.890   6.193   5.396  1.0102  0.5660 -0.8041
18445TIP3   OH276825   6.857   6.303   1.358 -0.0169  0.3360 -0.1473
18445TIP3    H176826   6.844   6.330   1.267 -2.0747  2.0973  0.5769
18445TIP3    H276827   6.770   6.276   1.387  0.3225  1.0221  1.6369
18446TIP3   OH276828   6.682   0.454   2.214  0.4166  0.0688  0.3710
18446TIP3    H176829   6.739   0.529   2.230 -0.1419 -0.0284  3.5364
18446TIP3    H276830   6.743   0.380   2.208  0.8144  0.1615  2.3043
18447TIP3   OH276831   0.752   1.647   4.688  0.4026  0.5765  0.0701
18447TIP3    H176832   0.806   1.568   4.698 -0.5161 -0.1492 -0.5241
18447TIP3    H276833   0.804   1.717   4.729  2.1543  0.0760 -1.1791
18448TIP3   OH276834   3.284   0.934   4.587  0.1602 -0.7495  0.1853
18448TIP3    H176835   3.290   0.980   4.503 -1.3025  1.5493  1.2204
18448TIP3    H276836   3.240   0.997   4.644  1.2291 -2.1881  2.7234
18449TIP3   OH276837   2.812   6.604   5.666  0.5565  0.0280  0.3677
18449TIP3    H176838   2.859   6.546   5.725  1.3642  1.2227  0.9564
18449TIP3    H276839   2.751   6.547   5.619 -0.1080 -0.9735  2.3122
18450TIP3   OH276840   6.718   1.572   2.633  0.0556 -0.2476 -0.3756
18450TIP3    H176841   6.663   1.637   2.676 -2.8648 -2.3422 -0.6781
18450TIP3    H276842   6.658   1.521   2.579  2.5556 -1.8420 -1.8662
18451TIP3   OH276843   1.104   3.419   1.909 -0.0403 -0.0362  0.0639
18451TIP3    H176844   1.180   3.476   1.899 -0.7208  0.7663 -0.7147
18451TIP3    H276845   1.141   3.331   1.913  0.9339  0.3361 -0.3903
18452TIP3   OH276846   2.015   6.694   1.035  0.1372  0.8631 -0.1116
18452TIP3    H176847   2.021   6.684   1.130  0.8653 -0.2329 -0.2487
18452TIP3    H276848   2.101   6.668   1.002  1.0142  4.3121 -0.8981
18453TIP3   OH276849   0.457   4.083   5.190  0.5077  0.7780 -0.0721
18453TIP3    H176850   0.456   4.175   5.217 -1.0643  0.7276  0.1225
18453TIP3    H276851   0.473   4.034   5.271 -1.4010  0.7741  0.3553
18454TIP3   OH276852   5.866   0.707   4.792  0.4262 -0.3457  0.2112
18454TIP3    H176853   5.923   0.631   4.802  1.4990  0.6671  2.6749
18454TIP3    H276854   5.875   0.755   4.875  0.0836  2.6602 -1.3553
18455TIP3   OH276855   5.539   2.386   0.962  0.0912  0.1805  0.1295
18455TIP3    H176856   5.525   2.310   1.019 -0.8331  1.0793  1.1778
18455TIP3    H276857   5.590   2.353   0.889 -1.5739 -1.8068 -0.2333
18456TIP3   OH276858   6.492   0.362   3.727 -0.1845 -0.1038  0.0873
18456TIP3    H176859   6.442   0.444   3.734 -1.1799 -0.7131  0.3013
18456TIP3    H276860   6.559   0.381   3.662 -1.3209  0.4464 -0.9791
18457TIP3   OH276861   0.800   5.400  14.886  0.7319  0.3221 -0.1293
18457TIP3    H176862   0.709   5.376  14.872  0.3987  2.4872 -2.2310
18457TIP3    H276863   0.814   5.387  14.980 -1.4612 -0.8188  0.1052
18458TIP3   OH276864   4.031   3.573   1.238 -0.1768  0.4617 -0.2534
18458TIP3    H176865   4.016   3.483   1.269  3.6586 -0.4602 -0.5184
18458TIP3    H276866   4.025   3.566   1.142  2.1901 -0.1173 -0.4213
18459TIP3   OH276867   1.175   2.171   3.611 -0.0141 -0.3489 -0.0101
18459TIP3    H176868   1.206   2.203   3.526 -0.2015  0.1010  0.0854
18459TIP3    H276869   1.250   2.126   3.649 -0.5029 -2.3605 -1.2791
18460TIP3   OH276870   0.705   6.140   5.849  0.3107  0.2912  0.2928
18460TIP3    H176871   0.610   6.151   5.846  0.5275  2.3181 -1.5385
18460TIP3    H276872   0.721   6.092   5.931 -2.1524  1.2670  1.4561
18461TIP3   OH276873   0.256   1.117   3.205  0.2308 -0.4445  0.0329
18461TIP3    H176874   0.221   1.206   3.192 -0.7697 -0.8783 -0.3339
18461TIP3    H276875   0.230   1.070   3.125  1.4236 -0.8682 -0.1226
18462TIP3   OH276876   3.729   6.964  15.299  0.3755  0.1961  0.1604
18462TIP3    H176877   3.683   6.916  15.230  1.2215  0.5035 -0.6473
18462TIP3    H276878   3.694   7.053  15.294 -1.8819 -0.4618  2.2823
18463TIP3   OH276879   5.703   2.083   3.851  0.0471 -0.1654  0.1127
18463TIP3    H176880   5.610   2.090   3.871 -0.0222 -1.7622  0.4662
18463TIP3    H276881   5.707   2.036   3.768  0.5431 -0.9371  0.5565
18464TIP3   OH276882   2.701   1.059   2.638 -0.0361  0.2264  0.4150
18464TIP3    H176883   2.784   1.091   2.675  1.2584 -0.5479 -1.6177
18464TIP3    H276884   2.721   1.043   2.546 -2.8560  1.2857 -0.4874
18465TIP3   OH276885   2.808   2.970   2.716 -0.1834 -0.4548 -0.1159
18465TIP3    H176886   2.891   2.984   2.762 -1.1862 -1.2130  2.0483
18465TIP3    H276887   2.828   2.990   2.625  1.8140  1.6190  0.6636
18466TIP3   OH276888   2.539   5.199   4.324  0.6320  0.1744 -0.2337
18466TIP3    H176889   2.443   5.193   4.333  0.6075  1.7440  1.0857
18466TIP3    H276890   2.572   5.127   4.377  0.1874  0.7808  0.9019
18467TIP3   OH276891   6.425   0.679   5.030  0.0116 -0.0862  0.8094
18467TIP3    H176892   6.438   0.773   5.046 -1.5788  0.4505 -0.6409
18467TIP3    H276893   6.350   0.676   4.970  0.0295 -2.3015  0.8300
18468TIP3   OH276894   2.537   4.456   3.981  0.0826  0.1960  0.4782
18468TIP3    H176895   2.597   4.396   3.936  0.2305  0.7170 -0.0446
18468TIP3    H276896   2.553   4.541   3.939 -2.2816  0.0341 -0.9278
18469TIP3   OH276897   2.445   1.381   4.202 -0.6613 -0.2608 -0.3619
18469TIP3    H176898   2.477   1.418   4.284  1.4892 -1.4728 -0.5842
18469TIP3    H276899   2.385   1.312   4.229 -0.5975 -0.1190  0.1550
18470TIP3   OH276900   6.907   6.345   3.174  0.7931  0.0493  0.1069
18470TIP3    H176901   6.975   6.392   3.125  2.6518 -0.3692  2.1416
18470TIP3    H276902   6.895   6.397   3.254  0.4648 -1.1542  0.8675
18471TIP3   OH276903   0.643   0.512   1.273 -0.6117  0.0522  0.5274
18471TIP3    H176904   0.685   0.524   1.188  1.5056 -0.7509  1.3952
18471TIP3    H276905   0.549   0.514   1.254 -0.1995  0.3115 -1.7495
18472TIP3   OH276906   3.124   3.928   5.371  0.7865  0.9479 -0.4322
18472TIP3    H176907   3.181   3.913   5.446 -0.2963  0.7029  0.3703
18472TIP3    H276908   3.052   3.866   5.382  0.7898  0.6562 -1.8757
18473TIP3   OH276909   4.360   2.867   0.940  0.1043  0.1361  0.0967
18473TIP3    H176910   4.348   2.772   0.942  0.2844  0.0183  4.0092
18473TIP3    H276911   4.272   2.903   0.929 -0.3166 -0.5544  1.0884
18474TIP3   OH276912   3.028   2.318  13.498  0.4976  0.2540 -0.1335
18474TIP3    H176913   3.006   2.266  13.575  1.1473  1.5262  0.9414
18474TIP3    H276914   2.987   2.403  13.513  1.9603  1.0528 -0.3913
18475TIP3   OH276915   0.859   1.028   3.665  0.2925  0.2214 -0.0625
18475TIP3    H176916   0.911   0.969   3.720 -1.2088  1.2740  2.6858
18475TIP3    H276917   0.852   1.108   3.717 -2.2572  0.8633 -1.2551
18476TIP3   OH276918   7.049   2.506   1.499  0.7043 -0.1480 -0.4566
18476TIP3    H176919   7.080   2.477   1.413 -0.0028  0.6605 -1.0075
18476TIP3    H276920   6.961   2.539   1.482  1.3571  2.0541  0.1680
18477TIP3   OH276921   7.255   0.142   3.684  0.7960  0.0414  0.6213
18477TIP3    H176922   7.241   0.122   3.777  1.6008  0.9780  0.9669
18477TIP3    H276923   7.319   0.213   3.685 -0.7008  1.4722 -0.5832
18478TIP3   OH276924   4.166   3.381   5.168  0.0083 -0.0634 -0.7082
18478TIP3    H176925   4.191   3.361   5.258  0.1695  0.8570 -0.5388
18478TIP3    H276926   4.071   3.370   5.166 -0.0150  0.0712 -0.3772
18479TIP3   OH276927   2.482   3.956   5.298  0.7102 -0.1621 -0.0034
18479TIP3    H176928   2.489   4.044   5.336  1.0883  0.7622 -2.0722
18479TIP3    H276929   2.495   3.897   5.372 -1.4458  1.4685  1.8022
18480TIP3   OH276930   0.769   0.694   0.848 -0.1611 -0.4670  0.1872
18480TIP3    H176931   0.722   0.766   0.888 -2.0320 -1.1151 -0.7215
18480TIP3    H276932   0.746   0.699   0.755  2.2579 -0.3344 -0.4772
18481TIP3   OH276933   6.297   1.183   5.116 -0.1892 -0.0471 -0.1691
18481TIP3    H176934   6.365   1.247   5.092  0.1196 -0.0607  0.6450
18481TIP3    H276935   6.345   1.114   5.162 -0.6396 -0.4814 -0.3441
18482TIP3   OH276936   4.401   0.384   0.690  0.4331  0.7687  0.2842
18482TIP3    H176937   4.367   0.299   0.717  1.4088  0.1132 -0.4317
18482TIP3    H276938   4.327   0.443   0.696 -0.0431  0.0714  1.6853
18483TIP3   OH276939   2.678   0.210   1.280  0.9745  0.2961  0.7364
18483TIP3    H176940   2.767   0.180   1.262  1.0980  0.9952  0.1145
18483TIP3    H276941   2.648   0.246   1.197  0.9515  2.1425  1.4917
18484TIP3   OH276942   1.932   5.505   3.560  0.0296  0.7314 -0.3263
18484TIP3    H176943   1.905   5.459   3.640 -2.5871  1.4110 -0.7313
18484TIP3    H276944   1.887   5.458   3.489  1.9796  0.3902 -1.3933
18485TIP3   OH276945   1.780   3.513   3.803 -0.8573  0.6558  0.1991
18485TIP3    H176946   1.690   3.517   3.772 -1.3359 -0.0978  1.4288
18485TIP3    H276947   1.777   3.549   3.892  0.0910  0.7908  0.1945
18486TIP3   OH276948   6.140   4.979  12.275 -0.4003 -0.3008 -0.2314
18486TIP3    H176949   6.218   4.947  12.230 -0.3239  0.8543 -0.9539
18486TIP3    H276950   6.068   4.931  12.234 -0.3472  0.8508 -1.7586
18487TIP3   OH276951   2.161   0.617  11.947 -0.2368  0.0123  0.2306
18487TIP3    H176952   2.071   0.631  11.976 -0.1459 -0.8920  1.0063
18487TIP3    H276953   2.158   0.628  11.852 -1.2557 -0.4444  0.1994
18488TIP3   OH276954   3.123   5.487   4.693  0.1882 -0.2062 -0.6925
18488TIP3    H176955   3.208   5.468   4.655  0.7103 -0.8429  0.7470
18488TIP3    H276956   3.128   5.579   4.719  1.1826 -0.7652  1.2080
18489TIP3   OH276957   4.857   0.972   2.408 -0.1339  0.3657 -0.0881
18489TIP3    H176958   4.826   0.887   2.375  1.0277 -0.3616  0.6085
18489TIP3    H276959   4.952   0.963   2.409 -0.0684  0.8691  2.0683
18490TIP3   OH276960   0.359   0.976   1.325  0.0521 -0.0780 -0.4507
18490TIP3    H176961   0.354   0.954   1.418 -1.0257 -0.6862 -0.6279
18490TIP3    H276962   0.316   1.062   1.318 -1.6247 -0.8841 -0.6156
18491TIP3   OH276963   7.102   2.047   4.682  0.1126  0.0771 -0.3718
18491TIP3    H176964   7.086   2.016   4.592  0.1267 -3.5406  0.6914
18491TIP3    H276965   7.021   2.025   4.729  0.0938  1.9688  0.5299
18492TIP3   OH276966   2.111   3.354   3.985  0.3106  0.8091  0.2612
18492TIP3    H176967   2.065   3.317   3.909 -1.2253  0.7114  1.1981
18492TIP3    H276968   2.152   3.434   3.951  1.1263 -0.1196 -1.0642
18493TIP3   OH276969   3.929   5.768   3.790  0.7452 -0.2331 -0.1250
18493TIP3    H176970   4.003   5.766   3.850  1.9261  0.7909 -1.4847
18493TIP3    H276971   3.907   5.676   3.775  0.4020 -0.5180  1.8264
18494TIP3   OH276972   4.551   5.710   3.297 -0.3729  0.1507 -0.0046
18494TIP3    H176973   4.490   5.637   3.307 -0.8147  0.5330  0.1325
18494TIP3    H276974   4.578   5.730   3.386 -0.1612  0.0795 -0.0526
18495TIP3   OH276975   7.207   0.732  10.221  0.0042  0.3562 -0.1316
18495TIP3    H176976   7.158   0.772  10.149  0.3143  1.0285  0.0234
18495TIP3    H276977   7.152   0.658  10.249 -0.0514 -0.0182 -1.1524
18496TIP3   OH276978   5.990   4.955   2.054 -0.7712  0.3267 -0.2432
18496TIP3    H176979   6.004   4.879   2.111  1.1140  1.1820  0.5165
18496TIP3    H276980   5.897   4.951   2.031 -1.3162 -0.7415  1.9132
18497TIP3   OH276981   0.440   6.011  14.457 -0.2044  0.1004  0.0429
18497TIP3    H176982   0.375   5.991  14.526  0.5814 -0.7812  0.5424
18497TIP3    H276983   0.501   6.071  14.500  0.2876 -0.4520  0.1147
18498TIP3   OH276984   4.408   1.535   2.287  0.3891  0.2981 -0.3679
18498TIP3    H176985   4.388   1.544   2.380 -3.1043 -0.4487 -0.9062
18498TIP3    H276986   4.443   1.620   2.262  1.0010  0.6459  1.5255
18499TIP3   OH276987   5.522   0.084   1.019 -0.3150  0.3032 -0.2829
18499TIP3    H176988   5.454   0.144   0.989 -0.9643  0.4520  1.4156
18499TIP3    H276989   5.475   0.012   1.060  0.5164 -0.3170 -0.3898
18500TIP3   OH276990   5.578   6.332   0.497  0.3816  0.1826 -0.0242
18500TIP3    H176991   5.488   6.303   0.488  0.3927  0.7475 -3.1505
18500TIP3    H276992   5.584   6.366   0.586 -2.1366 -0.9229  0.6505
18501TIP3   OH276993   3.846   6.252   4.280 -0.1754 -0.4052  0.3274
18501TIP3    H176994   3.886   6.212   4.357 -0.6413 -0.3023  0.6280
18501TIP3    H276995   3.802   6.180   4.235  0.1720 -0.4821  0.1015
18502TIP3   OH276996   0.002   5.568   4.702  0.5111 -0.3677 -0.0787
18502TIP3    H176997  -0.063   5.633   4.674 -0.7938 -0.0301  3.2269
18502TIP3    H276998   0.072   5.619   4.742 -0.1455 -0.8938  1.8327
18503TIP3   OH276999   0.860   7.074   3.490  0.3965 -0.1320  0.0575
18503TIP3    H177000   0.801   7.083   3.416  0.8045  1.3142 -0.1121
18503TIP3    H277001   0.803   7.062   3.566 -0.1276  1.3016 -0.0960
18504TIP3   OH277002   0.506   4.316   0.799  0.1350 -0.9047  0.1195
18504TIP3    H177003   0.500   4.412   0.802 -1.9648 -0.9300 -1.4277
18504TIP3    H277004   0.470   4.287   0.883  0.6372 -0.3615  0.5325
18505TIP3   OH277005   7.182   1.344   4.933  0.4115 -0.4253 -0.4691
18505TIP3    H177006   7.090   1.341   4.959  0.6072 -0.6000  0.2321
18505TIP3    H277007   7.184   1.403   4.858 -0.0236  1.0832  0.6326
18506TIP3   OH277008   1.240   5.089   3.505  0.0784  0.1332  0.2743
18506TIP3    H177009   1.306   5.149   3.469 -0.7414  1.7328  1.3485
18506TIP3    H277010   1.156   5.128   3.480 -0.4778 -0.0753  1.7643
18507TIP3   OH277011   6.068   6.031  12.721 -0.1817  0.1295 -0.3467
18507TIP3    H177012   6.003   5.962  12.708  0.4947 -0.4740 -0.6472
18507TIP3    H277013   6.142   5.987  12.762  0.9489  0.2709 -2.1111
18508TIP3   OH277014   3.032   1.751   4.573  0.5104 -0.0168 -0.1251
18508TIP3    H177015   2.955   1.808   4.577  0.9933  0.7601 -1.4670
18508TIP3    H277016   3.050   1.730   4.665  0.1007  1.7179  0.3926
18509TIP3   OH277017   5.497   4.602   4.823 -0.3189 -0.5932 -0.3892
18509TIP3    H177018   5.515   4.511   4.798  1.0191  0.2351 -2.7941
18509TIP3    H277019   5.411   4.621   4.785 -1.2242 -1.1660  1.2477
18510TIP3   OH277020   7.081   5.289  11.138  0.2853 -0.2189  0.5118
18510TIP3    H177021   7.103   5.378  11.112  0.0279  0.2590  1.8503
18510TIP3    H277022   7.130   5.233  11.078  0.3240  0.8118 -0.4530
18511TIP3   OH277023   1.567   1.772   5.469 -0.5808  0.2259 -0.4766
18511TIP3    H177024   1.598   1.847   5.521  1.4444  0.4429 -1.8741
18511TIP3    H277025   1.569   1.698   5.530  1.7064  0.4783 -0.1357
18512TIP3   OH277026   4.454   1.924   1.896 -0.0164 -0.2135  0.5441
18512TIP3    H177027   4.365   1.899   1.923 -0.3363  0.2926 -0.0188
18512TIP3    H277028   4.461   2.017   1.919  0.7606 -0.5101  1.5828
18513TIP3   OH277029   2.932   0.862  14.770 -0.4520 -0.1298 -0.0068
18513TIP3    H177030   2.881   0.868  14.690 -0.9757 -1.1649  0.2302
18513TIP3    H277031   2.972   0.948  14.780 -0.7080  0.1357 -1.1532
18514TIP3   OH277032   3.544   6.226   3.766  0.5759 -0.2643 -0.0402
18514TIP3    H177033   3.497   6.208   3.685  1.7515  1.5492 -1.2116
18514TIP3    H277034   3.626   6.265   3.738  1.6999 -0.9875  2.0107
18515TIP3   OH277035   5.307   6.025   1.652 -0.4506  0.4487  0.0750
18515TIP3    H177036   5.257   6.007   1.572  0.5609  0.8940 -0.6703
18515TIP3    H277037   5.329   6.118   1.647  1.8622 -0.0519 -0.4735
18516TIP3   OH277038   3.496   2.282   1.452  0.3667 -0.0601 -0.1386
18516TIP3    H177039   3.533   2.207   1.406  1.0270  0.1859 -0.0211
18516TIP3    H277040   3.540   2.283   1.537 -0.8185 -0.4929  0.5046
18517TIP3   OH277041   6.678   0.472   3.117  0.0381  0.7639  0.3289
18517TIP3    H177042   6.732   0.505   3.189 -1.3898  1.4968  1.1099
18517TIP3    H277043   6.612   0.540   3.103 -2.0348 -1.0023  0.8931
18518TIP3   OH277044   6.892   6.072   1.536 -0.0312 -0.0725 -0.1400
18518TIP3    H177045   6.878   6.073   1.441 -0.2163 -0.2963 -0.1167
18518TIP3    H277046   6.895   5.979   1.558 -0.2836 -0.0208  0.1163
18519TIP3   OH277047   4.334   4.308   0.762  1.1517 -0.0234 -0.2616
18519TIP3    H177048   4.251   4.340   0.798  0.7232 -0.8925 -0.4598
18519TIP3    H277049   4.392   4.300   0.838  0.6096 -0.7545  0.0849
18520TIP3   OH277050   4.335   0.857   1.439  0.5417 -0.5492  0.0635
18520TIP3    H177051   4.293   0.823   1.518 -1.8951  0.6579 -0.6134
18520TIP3    H277052   4.338   0.782   1.379 -0.4410 -0.7197  0.2219
18521TIP3   OH277053   1.395   5.476   1.613  0.2113  0.1764 -0.1179
18521TIP3    H177054   1.478   5.432   1.630 -0.3256 -1.0610 -0.6328
18521TIP3    H277055   1.407   5.563   1.651  1.5772 -0.1255  0.2159
18522TIP3   OH277056   3.342   2.451   5.253 -0.0671  0.4230  0.8157
18522TIP3    H177057   3.431   2.470   5.280  0.1677 -0.4877  0.7385
18522TIP3    H277058   3.306   2.535   5.225  0.8506  0.7580  0.6041
18523TIP3   OH277059   4.865   3.129   4.650 -0.6925 -0.2904  0.3156
18523TIP3    H177060   4.895   3.180   4.725  0.9536 -1.2827  0.3929
18523TIP3    H277061   4.794   3.075   4.684 -0.9986  0.3792  0.7567
18524TIP3   OH277062   6.511   1.313   1.969  0.2820 -0.0617 -0.0461
18524TIP3    H177063   6.585   1.325   1.909 -1.1354  1.1465 -1.6415
18524TIP3    H277064   6.543   1.250   2.034  2.2914 -0.5162 -1.3803
18525TIP3   OH277065   3.157   5.294  10.551 -0.0984 -0.2692 -0.1787
18525TIP3    H177066   3.102   5.236  10.604 -0.2762  0.1285  0.0729
18525TIP3    H277067   3.244   5.253  10.553 -0.0567 -0.1570  0.5770
18526TIP3   OH277068   5.096   6.630   0.450  0.1959  0.2199  0.3440
18526TIP3    H177069   5.122   6.676   0.530 -0.1122  0.2057  0.4538
18526TIP3    H277070   5.170   6.643   0.390 -0.6767  2.6231 -0.3635
18527TIP3   OH277071   0.008   0.172   5.946 -0.0809  0.0012 -0.3527
18527TIP3    H177072  -0.073   0.188   5.995 -0.1612 -1.6066  0.1048
18527TIP3    H277073   0.067   0.133   6.010  0.8206  0.5148 -0.8573
18528TIP3   OH277074   7.017   2.742   2.207  0.3995 -0.0283  0.6013
18528TIP3    H177075   7.104   2.761   2.242  0.4233  0.0788  0.4867
18528TIP3    H277076   7.033   2.692   2.127  0.3621  0.1400  0.4874
18529TIP3   OH277077   5.492   5.075   4.038 -0.5372 -0.1311  0.2779
18529TIP3    H177078   5.399   5.096   4.048 -0.4233 -0.7367  4.1090
18529TIP3    H277079   5.497   4.980   4.046  0.2383 -0.4840 -3.0408
18530TIP3   OH277080   4.714   5.498   3.442  0.4686  0.0310  0.3764
18530TIP3    H177081   4.781   5.457   3.496 -0.8239 -0.7315  1.4632
18530TIP3    H277082   4.670   5.426   3.398 -0.8117  0.3232  1.1066
18531TIP3   OH277083   2.387   6.444   3.843  0.1685 -0.4724 -0.1555
18531TIP3    H177084   2.295   6.431   3.820  0.0241 -0.4665  0.4014
18531TIP3    H277085   2.425   6.357   3.839 -0.0932 -0.6280  0.5779
18532TIP3   OH277086   4.281   4.045  13.599  0.1732  0.5303 -0.0263
18532TIP3    H177087   4.262   4.062  13.507 -1.4215 -0.4468  0.0771
18532TIP3    H277088   4.344   3.973  13.598  0.4669  0.7925 -0.3561
18533TIP3   OH277089   3.330   5.736   0.435 -0.3654  0.1212  0.2868
18533TIP3    H177090   3.281   5.725   0.353 -0.6535 -0.1077  0.4877
18533TIP3    H277091   3.264   5.726   0.504 -0.1513  0.4603  0.5451
18534TIP3   OH277092   2.556   3.342   2.484  0.0766  0.2481  0.6442
18534TIP3    H177093   2.590   3.258   2.454 -0.0781  0.0772  0.9396
18534TIP3    H277094   2.500   3.320   2.559 -2.4069  0.2865 -1.0758
18535TIP3   OH277095   3.525   0.199   4.760 -0.2769  0.2065  0.3247
18535TIP3    H177096   3.589   0.243   4.816  0.9034 -1.9427  0.8015
18535TIP3    H277097   3.578   0.144   4.702 -1.6192  0.1651 -0.9273
18536TIP3   OH277098   2.104   4.066  14.173  0.4228 -0.2437  0.3353
18536TIP3    H177099   2.113   3.972  14.158 -1.0204 -0.4135  0.3906
18536TIP3    H277100   2.096   4.075  14.268 -1.4383 -0.3087  0.2310
18537TIP3   OH277101   1.686   0.941   0.726 -0.0779 -0.7617  0.2626
18537TIP3    H177102   1.747   1.000   0.682 -2.0962  1.8222  0.7269
18537TIP3    H277103   1.726   0.925   0.811  0.1821  0.5668  0.4107
18538TIP3   OH277104   6.196   2.621  15.332  0.2996 -0.0186  0.2681
18538TIP3    H177105   6.234   2.548  15.283  0.3869  0.0259  0.2698
18538TIP3    H277106   6.160   2.581  15.411 -0.6186 -0.2201 -0.2400
18539TIP3   OH277107   7.243   6.033   3.756  0.0052 -0.4811 -0.0976
18539TIP3    H177108   7.277   6.046   3.667  0.5836  1.3045  0.3345
18539TIP3    H277109   7.168   5.975   3.744  0.3717 -0.6919 -1.6880
18540TIP3   OH277110   4.645   2.304  13.032  0.8102 -0.1622 -0.1566
18540TIP3    H177111   4.719   2.362  13.047  0.1892  0.9709 -1.2700
18540TIP3    H277112   4.680   2.233  12.978  0.8917  0.8812 -1.5125
18541TIP3   OH277113   6.540   4.481  14.881  0.0831  0.2701  0.3418
18541TIP3    H177114   6.513   4.421  14.811  0.0291  0.6838  0.0025
18541TIP3    H277115   6.531   4.430  14.961 -1.3749  0.2889  0.2041
18542TIP3   OH277116   2.512   0.693   4.996 -0.2262  0.2247 -0.6764
18542TIP3    H177117   2.468   0.770   4.961 -1.2519  0.3541  0.8389
18542TIP3    H277118   2.442   0.640   5.034  0.6571 -0.7100 -0.2981
18543TIP3   OH277119   0.541   3.700  13.271 -0.6267  0.2124 -0.1040
18543TIP3    H177120   0.610   3.686  13.336 -0.3459  1.9859  0.0293
18543TIP3    H277121   0.465   3.728  13.322 -0.5908  1.0033 -0.4758
18544TIP3   OH277122   6.210   3.324  14.682 -0.6548  0.0670  0.0412
18544TIP3    H177123   6.154   3.380  14.628 -0.5970  1.3564  1.2772
18544TIP3    H277124   6.208   3.239  14.638 -3.2116  0.1761 -0.2013
18545TIP3   OH277125   6.810   0.338   4.071 -0.7684 -0.0099  0.1475
18545TIP3    H177126   6.885   0.279   4.073 -1.0189 -0.3212  0.4600
18545TIP3    H277127   6.741   0.288   4.028 -1.8914 -1.0662  2.9602
18546TIP3   OH277128   3.751   4.157  14.601  0.4965  0.2701 -0.4379
18546TIP3    H177129   3.728   4.250  14.604 -0.3301  0.0770 -0.4996
18546TIP3    H277130   3.784   4.143  14.512 -0.1274  0.3478 -0.6905
18547TIP3   OH277131   5.737   1.036   4.990 -0.2049  0.7943  0.0499
18547TIP3    H177132   5.770   1.097   4.924  0.7125 -1.9378 -2.2151
18547TIP3    H277133   5.801   0.965   4.991 -2.7556 -1.6746  0.1863
18548TIP3   OH277134   2.083   4.404   2.906  0.5812 -0.1592  0.1264
18548TIP3    H177135   2.087   4.462   2.830  1.3084 -0.0445  0.2523
18548TIP3    H277136   2.172   4.401   2.940  0.4850 -1.0778  0.3292
18549TIP3   OH277137   1.101   6.751   2.867  0.1724 -0.5411  0.1738
18549TIP3    H177138   1.086   6.658   2.852 -1.1966 -0.5070  1.1545
18549TIP3    H277139   1.044   6.795   2.804  0.1785 -0.3770  0.2809
18550TIP3   OH277140   7.147   6.340   2.344  0.0315  0.4826  0.0500
18550TIP3    H177141   7.146   6.265   2.403  1.2892  0.9402  0.7130
18550TIP3    H277142   7.135   6.303   2.257  0.0193 -0.4129  0.4244
18551TIP3   OH277143   3.912   0.852   1.760 -0.3912  0.2075  0.3319
18551TIP3    H177144   3.977   0.787   1.735  1.1114  2.1952 -1.1959
18551TIP3    H277145   3.907   0.845   1.856  1.0338 -0.9038  0.3574
18552TIP3   OH277146   6.422   7.136   0.733 -0.0409 -0.0979  0.0374
18552TIP3    H177147   6.345   7.087   0.763 -0.6667  0.1266 -1.1433
18552TIP3    H277148   6.400   7.227   0.751 -0.3930  0.0328 -0.9988
18553TIP3   OH277149   3.307   0.088   1.090  0.1441  0.3988  0.1509
18553TIP3    H177150   3.390   0.042   1.082 -0.3778 -0.5549 -0.0609
18553TIP3    H277151   3.280   0.074   1.181  0.1293  0.5511  0.1704
18554TIP3   OH277152   6.050   5.639   1.468  0.3596  0.4240 -0.0142
18554TIP3    H177153   6.058   5.679   1.381 -0.9507  0.2112 -0.2556
18554TIP3    H277154   5.974   5.681   1.507  1.2074  0.8429  1.2423
18555TIP3   OH277155   5.132   5.701   3.147 -0.0963  0.3322  0.6518
18555TIP3    H177156   5.081   5.694   3.228 -0.8767  1.0489  0.2308
18555TIP3    H277157   5.085   5.647   3.084 -0.2306  0.8440  0.3110
18556TIP3   OH277158   6.496   5.059  13.928  0.2206  0.5519  0.1324
18556TIP3    H177159   6.524   4.968  13.943 -0.3351  0.5558  1.3100
18556TIP3    H277160   6.405   5.060  13.956  0.7134  1.8710  1.8888
18557TIP3   OH277161   3.319   1.897   5.516 -0.4269 -0.0846  0.1942
18557TIP3    H177162   3.252   1.963   5.537  0.2913  0.7014  0.0960
18557TIP3    H277163   3.289   1.817   5.560 -2.3973 -0.2833 -1.3739
18558TIP3   OH277164   3.740   3.300   0.936  0.7869  0.1590  0.0208
18558TIP3    H177165   3.834   3.289   0.921  0.9521  0.1359  0.9838
18558TIP3    H277166   3.726   3.263   1.023 -0.7551 -3.1393 -1.4905
18559TIP3   OH277167   5.763   2.462   3.997  0.0652 -0.0458  0.3647
18559TIP3    H177168   5.824   2.390   3.986 -1.2784 -1.0016 -1.2067
18559TIP3    H277169   5.722   2.447   4.082  1.0588 -0.1032  0.8471
18560TIP3   OH277170   6.224   1.132   2.283  0.5409 -0.1410  0.5638
18560TIP3    H177171   6.262   1.130   2.195  2.5596  0.9360  1.3544
18560TIP3    H277172   6.217   1.040   2.308  0.3320 -0.4449 -0.5529
18561TIP3   OH277173   3.248   0.401  15.322 -0.0849 -0.5436 -0.0204
18561TIP3    H177174   3.209   0.435  15.241 -1.1096 -2.3803 -0.3619
18561TIP3    H277175   3.326   0.454  15.335 -0.1038  0.0543 -2.0125
18562TIP3   OH277176   3.443   4.382   1.680  0.0203  0.1434  0.0737
18562TIP3    H177177   3.435   4.384   1.585  2.4608 -0.1825 -0.1929
18562TIP3    H277178   3.379   4.446   1.711  1.1226  2.3990 -1.9661
18563TIP3   OH277179   1.187   6.313   1.921 -0.0610 -0.4696  0.0552
18563TIP3    H177180   1.198   6.407   1.908  1.6030 -0.4101  1.5321
18563TIP3    H277181   1.148   6.305   2.008 -1.3512 -1.1292 -0.5592
18564TIP3   OH277182   4.521   4.117   5.310 -0.3517 -0.2739  0.4211
18564TIP3    H177183   4.571   4.114   5.391 -0.9781  1.0484  0.8712
18564TIP3    H277184   4.443   4.063   5.328  0.2568 -1.2817  0.1424
18565TIP3   OH277185   3.418   6.104   4.627 -0.4923 -0.1396 -0.0119
18565TIP3    H177186   3.447   6.175   4.570  0.4738 -0.0887  0.5216
18565TIP3    H277187   3.453   6.025   4.587 -2.3109 -0.4564 -1.0980
18566TIP3   OH277188   1.420   3.898   2.084  0.2837 -0.2932 -0.1223
18566TIP3    H177189   1.371   3.827   2.042  0.6419 -0.5585 -0.1054
18566TIP3    H277190   1.361   3.933   2.150  0.6324 -1.6208  0.9563
18567TIP3   OH277191   7.109   3.833   6.044  0.2986 -0.0093  0.3686
18567TIP3    H177192   7.174   3.805   6.108 -0.2611 -1.2475  0.4322
18567TIP3    H277193   7.153   3.823   5.959  0.3807 -0.2982  0.4456
18568TIP3   OH277194   3.849   3.681   5.478 -0.1712 -0.3211 -0.0240
18568TIP3    H177195   3.886   3.593   5.483 -0.7056 -0.6428 -1.3189
18568TIP3    H277196   3.774   3.679   5.537  0.6267 -0.2963  1.0173
18569TIP3   OH277197   3.602   0.778   5.285 -0.0552 -0.5766  0.0793
18569TIP3    H177198   3.635   0.858   5.325  0.2647 -0.2242 -0.8566
18569TIP3    H277199   3.659   0.709   5.319 -1.2028 -0.6468  1.9890
18570TIP3   OH277200   1.392   3.328   0.043 -0.4281  0.1558  0.4348
18570TIP3    H177201   1.468   3.282   0.079 -0.3632 -1.9837 -2.2041
18570TIP3    H277202   1.317   3.288   0.086 -0.2789 -1.1517 -0.5048
18571TIP3   OH277203   0.096   4.927   0.482 -0.3189  0.4080  0.2000
18571TIP3    H177204   0.022   4.869   0.464 -0.6366  0.6111  0.8243
18571TIP3    H277205   0.106   4.925   0.577  0.1787  0.7511  0.1598
18572TIP3   OH277206   1.609   2.689   4.657 -0.6829  0.6966  0.2688
18572TIP3    H177207   1.677   2.748   4.688  0.9266 -1.4948  1.1645
18572TIP3    H277208   1.529   2.717   4.702  0.7204  0.2365  3.2725
18573TIP3   OH277209   5.126   0.311   1.311  0.3290  0.4803 -0.3585
18573TIP3    H177210   5.118   0.319   1.406 -0.5819 -0.1667 -0.3623
18573TIP3    H277211   5.037   0.324   1.278  0.0554 -2.0340 -0.8846
18574TIP3   OH277212   1.392   1.153   4.833 -0.0649  0.1551 -0.0605
18574TIP3    H177213   1.471   1.145   4.886  0.5119 -1.1809 -1.0726
18574TIP3    H277214   1.416   1.118   4.748 -1.7525 -0.2839 -0.3960
18575TIP3   OH277215   6.263   0.202   4.196  0.1804 -0.0403 -0.3768
18575TIP3    H177216   6.358   0.208   4.208  0.2941  3.6258 -1.7580
18575TIP3    H277217   6.252   0.190   4.101 -0.7087 -0.1616 -0.2639
18576TIP3   OH277218   6.294   0.121   5.579  0.5068 -0.4835  0.0627
18576TIP3    H177219   6.350   0.198   5.571  0.4656 -0.5681 -1.4169
18576TIP3    H277220   6.351   0.048   5.554  0.3562 -0.8519  0.7825
18577TIP3   OH277221   3.823   3.607  14.555 -0.1795  0.2705  0.3358
18577TIP3    H177222   3.890   3.538  14.549  1.3811  1.8155 -1.2013
18577TIP3    H277223   3.808   3.617  14.649  0.4691 -1.2968  0.6436
18578TIP3   OH277224   6.870   3.174   5.911  0.3301  0.1040  0.3400
18578TIP3    H177225   6.792   3.225   5.889  1.5008  1.2168 -1.4478
18578TIP3    H277226   6.943   3.233   5.896  1.7097 -1.8121 -1.0266
18579TIP3   OH277227   6.124   3.796   4.202 -0.0622 -0.2452 -0.5192
18579TIP3    H177228   6.067   3.857   4.154 -0.7643 -0.6449 -0.2084
18579TIP3    H277229   6.174   3.751   4.134 -0.1217  0.1011 -0.7954
18580TIP3   OH277230   1.535   0.688   6.132 -0.0736  0.5765  0.7387
18580TIP3    H177231   1.550   0.594   6.126 -1.4307  0.2852  1.3209
18580TIP3    H277232   1.580   0.714   6.212 -0.3977  0.2463  1.0347
18581TIP3   OH277233   0.900   6.134   4.827 -1.1456 -0.5536 -0.8383
18581TIP3    H177234   0.812   6.096   4.835 -1.5111  0.0714 -1.7495
18581TIP3    H277235   0.955   6.062   4.795 -1.1150 -1.1947  0.5962
18582TIP3   OH277236   2.583   2.485   5.163 -0.3794 -0.0480  0.1149
18582TIP3    H177237   2.667   2.470   5.119  1.1783  1.0383  2.4930
18582TIP3    H277238   2.579   2.416   5.229 -0.9206  0.4703  0.6259
18583TIP3   OH277239   1.982   1.052   1.403 -0.3890  0.4992 -0.6698
18583TIP3    H177240   2.062   1.032   1.354 -0.4882  0.0469 -0.6525
18583TIP3    H277241   1.984   1.147   1.415  1.6082  0.2696  1.7443
18584TIP3   OH277242   6.630   5.933   2.921  0.2269  0.2769 -0.0136
18584TIP3    H177243   6.587   6.005   2.968  1.7616  2.3680 -1.6041
18584TIP3    H277244   6.585   5.929   2.837  0.1016 -0.7159  0.0938
18585TIP3   OH277245   4.709   7.244   5.528 -0.1388  0.1046  0.3121
18585TIP3    H177246   4.748   7.206   5.449 -0.6328  1.5228 -0.6602
18585TIP3    H277247   4.618   7.211   5.527  0.1218 -0.6749  0.8630
18586TIP3   OH277248   1.211   6.012   4.551  0.3844  0.1660  0.0108
18586TIP3    H177249   1.290   6.029   4.499  0.4281 -0.5143 -0.1496
18586TIP3    H277250   1.226   5.926   4.590 -0.4502 -0.1394 -0.3350
18587TIP3   OH277251   7.169   1.267   0.889  0.2427  0.0548  0.7236
18587TIP3    H177252   7.185   1.235   0.800 -1.4367  1.4535 -0.1418
18587TIP3    H277253   7.146   1.188   0.939 -1.2322 -0.4676 -0.7027
18588TIP3   OH277254   5.428   4.158   2.486  0.5331 -0.6911 -0.5271
18588TIP3    H177255   5.515   4.167   2.448  0.6956  0.1400  0.0243
18588TIP3    H277256   5.373   4.220   2.439  0.1355 -1.4785 -1.1320
18589TIP3   OH277257   1.424   3.418   5.141  0.1333 -0.1502  0.7215
18589TIP3    H177258   1.482   3.419   5.217  1.8446  0.5389 -0.5296
18589TIP3    H277259   1.361   3.488   5.158  1.6811  1.3094  0.6844
18590TIP3   OH277260   6.901   2.918   4.038 -0.1861 -0.3051 -0.0523
18590TIP3    H177261   6.837   2.981   4.007  3.3357  4.5224  1.3945
18590TIP3    H277262   6.856   2.869   4.107 -2.7495  1.6599 -0.2062
18591TIP3   OH277263   0.779   0.360   5.523 -0.7839 -0.6152 -0.0629
18591TIP3    H177264   0.750   0.451   5.528  0.7406  0.0594 -1.9278
18591TIP3    H277265   0.819   0.342   5.608 -0.6750  0.6229  0.1652
18592TIP3   OH277266   0.736   0.122  12.823 -0.5150  0.5202 -0.4767
18592TIP3    H177267   0.817   0.171  12.807  0.3208 -0.6682 -0.1268
18592TIP3    H277268   0.764   0.030  12.822 -1.9007  0.0777 -0.4936
18593TIP3   OH277269   6.053   5.739   5.234  0.3185 -0.0727 -0.0024
18593TIP3    H177270   6.075   5.668   5.294  3.2867  0.4367 -0.3568
18593TIP3    H277271   6.111   5.811   5.259 -0.0690  0.9860 -1.9485
18594TIP3   OH277272   2.859   1.360   1.577  0.1131  0.0156  0.2610
18594TIP3    H177273   2.827   1.409   1.653 -1.8212  1.7416 -1.5473
18594TIP3    H277274   2.795   1.289   1.567  1.6726 -1.6789  1.5343
18595TIP3   OH277275   7.104   6.995   0.362 -0.7223  0.0944 -0.4438
18595TIP3    H177276   7.013   6.984   0.387 -1.4037 -0.1408 -2.7764
18595TIP3    H277277   7.105   7.075   0.309  0.3612 -0.0596 -0.6891
18596TIP3   OH277278   0.971   7.135   4.403 -0.1578 -0.1254 -0.1328
18596TIP3    H177279   1.050   7.142   4.350 -0.0967 -0.4669 -0.0846
18596TIP3    H277280   0.901   7.166   4.346 -0.0741 -0.3707 -0.3701
18597TIP3   OH277281   6.482   7.104   2.621  0.0048  0.2020 -0.2456
18597TIP3    H177282   6.507   7.030   2.676 -2.4926  0.6717  1.6747
18597TIP3    H277283   6.551   7.169   2.636 -0.0885 -0.0757  1.5708
18598TIP3   OH277284   3.001   0.042   0.274  0.2098 -0.1120  0.0997
18598TIP3    H177285   3.053   0.121   0.262  0.9689 -0.6135  0.0042
18598TIP3    H277286   3.065  -0.025   0.300 -0.4770 -0.5986  0.5611
18599TIP3   OH277287   3.101   5.422   3.992 -0.6567 -0.3401 -0.5703
18599TIP3    H177288   3.036   5.375   3.939 -1.5147 -0.9024  0.8974
18599TIP3    H277289   3.052   5.494   4.031  0.1096  0.4258 -0.9889
18600TIP3   OH277290   0.844   0.201   4.337 -0.9388 -0.0347 -0.3076
18600TIP3    H177291   0.768   0.260   4.342 -0.6542  0.3041  0.0310
18600TIP3    H277292   0.811   0.124   4.291 -1.1775  0.6139 -1.2662
18601TIP3   OH277293   4.384   3.286   0.053 -0.6149 -0.4141  0.1608
18601TIP3    H177294   4.453   3.220   0.057 -1.3672 -1.2087  0.3823
18601TIP3    H277295   4.426   3.362   0.014  0.8659 -0.2605  1.9070
18602TIP3   OH277296   0.913   5.970  14.282 -0.6010  0.6945 -0.4190
18602TIP3    H177297   0.924   5.995  14.191  0.0691  3.5759  0.3348
18602TIP3    H277298   0.826   5.930  14.286 -0.9542  1.1984 -2.1735
18603TIP3   OH277299   4.143   3.238   1.079 -0.3934 -0.5282  0.3315
18603TIP3    H177300   4.093   3.222   0.999 -0.3892 -0.5973  0.3426
18603TIP3    H277301   4.191   3.319   1.063 -1.6255  0.3416  0.8478
18604TIP3   OH277302   1.394   2.411   5.523  0.1286 -0.5240  0.2324
18604TIP3    H177303   1.422   2.350   5.455 -0.6612 -0.8148  0.1637
18604TIP3    H277304   1.461   2.403   5.592  0.7096 -0.5221 -0.3231
18605TIP3   OH277305   3.678   3.769   3.321  0.6208  0.0380 -0.6100
18605TIP3    H177306   3.742   3.719   3.271 -1.6508 -0.9457 -2.6888
18605TIP3    H277307   3.651   3.839   3.262 -1.1226 -0.3142 -0.2679
18606TIP3   OH277308   3.758   3.187   4.634  0.9744 -0.0819  0.5852
18606TIP3    H177309   3.694   3.231   4.690  1.9806  1.9201  0.2696
18606TIP3    H277310   3.711   3.170   4.552  0.2295 -0.6863  1.1296
18607TIP3   OH277311   6.171   2.823   3.975 -0.6090  0.1240  0.5184
18607TIP3    H177312   6.112   2.753   4.003 -0.4454  0.3181  1.3633
18607TIP3    H277313   6.254   2.778   3.957 -1.1717 -0.2556 -1.3398
18608TIP3   OH277314   1.199   0.937  13.094 -0.4440 -0.0591 -0.0806
18608TIP3    H177315   1.163   0.848  13.090  0.7721 -0.5276 -1.2477
18608TIP3    H277316   1.184   0.972  13.006  1.9236 -0.2963 -0.6314
18609TIP3   OH277317   4.045   5.073   1.721 -0.1307  0.1330 -0.1769
18609TIP3    H177318   4.127   5.051   1.677 -0.2632  1.4604 -1.1265
18609TIP3    H277319   4.064   5.058   1.814  1.6472  1.7056 -0.2298
18610TIP3   OH277320   0.473   5.009  14.264  0.9106  0.2091 -0.2741
18610TIP3    H177321   0.500   4.922  14.234  2.1445 -0.2519  1.9894
18610TIP3    H277322   0.553   5.060  14.265  0.8328  0.3654  1.5432
18611TIP3   OH277323   5.459   0.364   0.716 -0.6265 -0.2079 -0.3729
18611TIP3    H177324   5.549   0.392   0.696 -0.6319 -1.1153 -1.7924
18611TIP3    H277325   5.408   0.445   0.715  0.1555  0.3116  0.4122
18612TIP3   OH277326   6.277   3.218  14.249  0.2911  0.2687 -0.2718
18612TIP3    H177327   6.288   3.295  14.194  2.9035  0.3238  0.2082
18612TIP3    H277328   6.365   3.193  14.275 -0.6569 -1.1650  1.9831
18613TIP3   OH277329   3.946   2.624   4.283  0.9761  0.0427 -0.4811
18613TIP3    H177330   3.983   2.621   4.194 -0.0956  1.9007 -1.0437
18613TIP3    H277331   3.853   2.643   4.270  0.1955 -2.3145  0.9935
18614TIP3   OH277332   1.667   6.466   2.238  0.7239 -0.3805 -0.0598
18614TIP3    H177333   1.598   6.413   2.199  0.6040  0.5089 -1.0804
18614TIP3    H277334   1.677   6.541   2.179  0.4565  1.0861  1.6390
18615TIP3   OH277335   5.447   3.817   1.566 -0.3474 -0.2404 -0.2995
18615TIP3    H177336   5.491   3.853   1.643  0.0279  0.5896 -0.8755
18615TIP3    H277337   5.355   3.841   1.577 -0.3480 -0.4063  0.0451
18616TIP3   OH277338   3.747   4.391   5.854  0.5301  0.3846  0.3080
18616TIP3    H177339   3.753   4.309   5.806 -1.2216  0.6272 -0.4034
18616TIP3    H277340   3.795   4.454   5.800  2.2146 -0.2002  1.0504
18617TIP3   OH277341   7.052   0.087   5.075 -0.1593 -0.8172  0.2863
18617TIP3    H177342   6.958   0.105   5.073  0.2336  1.5598 -1.2048
18617TIP3    H277343   7.089   0.159   5.126  1.1381  0.5463 -2.3359
18618TIP3   OH277344   5.949   6.692   3.403 -0.3293  0.1596  0.3235
18618TIP3    H177345   5.957   6.708   3.309 -1.9445 -2.0706 -0.2659
18618TIP3    H277346   5.877   6.629   3.411  1.1304 -1.3661  2.8548
18619TIP3   OH277347   2.766   6.594   3.032 -0.0534 -0.2106 -0.0993
18619TIP3    H177348   2.739   6.657   3.099 -0.1355 -1.3077  0.9509
18619TIP3    H277349   2.848   6.558   3.066  1.1244  0.8072 -1.7116
18620TIP3   OH277350   1.861   0.091   3.028  0.0851 -0.4485  0.1045
18620TIP3    H177351   1.891   0.011   3.072 -0.9595 -1.7701 -1.4711
18620TIP3    H277352   1.808   0.060   2.955  1.2843  1.6442 -1.8091
18621TIP3   OH277353   6.231   3.814   5.563  0.3939 -0.5015 -0.1751
18621TIP3    H177354   6.175   3.786   5.636  0.7052 -2.0593 -0.4945
18621TIP3    H277355   6.284   3.885   5.599  1.8991 -2.4576  1.7724
18622TIP3   OH277356   3.672   2.524   3.052  0.1617 -0.4635 -0.0108
18622TIP3    H177357   3.723   2.478   3.119 -1.4595 -1.5914  0.5118
18622TIP3    H277358   3.609   2.577   3.101 -1.3244 -1.6266 -0.5815
18623TIP3   OH277359   6.214   2.014  14.761 -0.0555  0.1084  0.1186
18623TIP3    H177360   6.247   2.003  14.672 -0.5521 -1.3640  0.0843
18623TIP3    H277361   6.291   2.040  14.812  1.0048 -2.1341 -0.1738
18624TIP3   OH277362   5.541   1.405   3.631 -0.1054  0.2264 -0.2811
18624TIP3    H177363   5.480   1.347   3.585  2.1878  0.2321 -3.6548
18624TIP3    H277364   5.512   1.493   3.610 -0.5441  0.2755  0.4926
18625TIP3   OH277365   0.082   2.296  14.298  0.5381 -0.2313  0.1804
18625TIP3    H177366   0.051   2.379  14.261  0.6769 -0.1421  0.2661
18625TIP3    H277367   0.169   2.284  14.261  0.5897 -0.2506  0.3095
18626TIP3   OH277368   2.818   3.615   2.772 -0.3342  0.2954 -0.7557
18626TIP3    H177369   2.814   3.705   2.803  1.3313  0.9084 -2.1790
18626TIP3    H277370   2.910   3.601   2.749 -0.4931 -1.8749 -0.3105
18627TIP3   OH277371   3.267   7.134   4.046 -0.2100 -0.1176  0.3994
18627TIP3    H177372   3.295   7.053   4.090  1.6151 -0.5608 -1.4251
18627TIP3    H277373   3.236   7.190   4.117  2.6551 -0.7591  2.3554
18628TIP3   OH277374   6.770   2.443   4.019  0.3831 -0.3214  0.5807
18628TIP3    H177375   6.735   2.522   3.979 -2.4152 -0.4011  2.5626
18628TIP3    H277376   6.861   2.439   3.990 -0.2901  1.7896 -2.2284
18629TIP3   OH277377   1.040   2.492   2.459 -0.0721  0.0434  0.8807
18629TIP3    H177378   0.959   2.541   2.476  0.5244  1.5991 -0.4037
18629TIP3    H277379   1.017   2.431   2.390 -0.4599 -0.4382  1.4309
18630TIP3   OH277380   4.131   1.709   4.066  0.0856 -0.2917  0.4785
18630TIP3    H177381   4.116   1.803   4.080 -1.0825 -0.1975 -1.1506
18630TIP3    H277382   4.058   1.666   4.110 -1.5415 -0.1801 -1.9268
18631TIP3   OH277383   2.619   3.176   3.726 -0.3861 -0.5402 -0.6783
18631TIP3    H177384   2.698   3.208   3.769 -0.2830 -2.9255  1.0840
18631TIP3    H277385   2.547   3.211   3.778 -0.4906  0.5466 -1.5097
18632TIP3   OH277386   3.618   2.271   2.333 -0.1571 -0.0242 -0.2941
18632TIP3    H177387   3.696   2.318   2.303 -0.2016  0.3524  0.1528
18632TIP3    H277388   3.631   2.263   2.427 -0.6842  0.0934 -0.2109
18633TIP3   OH277389   1.404   2.162   2.801  0.1442  0.3761 -0.2743
18633TIP3    H177390   1.483   2.210   2.773 -0.2852  0.7336 -0.9053
18633TIP3    H277391   1.437   2.076   2.825  0.6657  0.3332 -1.0799
18634TIP3   OH277392   2.647   4.121   3.875  0.2508 -0.0760  0.3200
18634TIP3    H177393   2.592   4.094   3.801 -0.6927  0.0977  0.9364
18634TIP3    H277394   2.700   4.192   3.841  0.1658 -0.3136 -0.3226
18635TIP3   OH277395   1.532   0.252   0.111 -0.2382 -0.0592 -0.4195
18635TIP3    H177396   1.608   0.194   0.119 -0.4156 -0.3393 -0.7319
18635TIP3    H277397   1.538   0.287   0.022  0.1357  0.7905 -0.0737
18636TIP3   OH277398   6.611   6.992   4.101  0.3868 -0.3689 -0.0393
18636TIP3    H177399   6.616   7.051   4.177 -0.8173 -0.4014  0.0842
18636TIP3    H277400   6.532   7.019   4.055  0.3827 -1.2171 -0.5509
18637TIP3   OH277401   6.601   3.966   9.982  0.1330  0.1289 -0.9325
18637TIP3    H177402   6.524   3.943   9.930 -1.2596  0.5262  0.8312
18637TIP3    H277403   6.572   3.956  10.073  2.3001 -0.0546 -0.2110
18638TIP3   OH277404   6.152   5.378   4.043  0.1079  0.6748 -0.3344
18638TIP3    H177405   6.193   5.465   4.045  0.7802  0.3688  1.7445
18638TIP3    H277406   6.213   5.322   4.090 -1.7287 -0.2442  1.0920
18639TIP3   OH277407   6.166   4.821   5.193  0.0823  0.5023 -0.6563
18639TIP3    H177408   6.088   4.871   5.170 -1.9942 -1.0743  2.2437
18639TIP3    H277409   6.212   4.876   5.257 -0.8549 -0.1574  0.6301
18640TIP3   OH277410   4.042   3.547   4.268  0.0565  0.2608  0.4582
18640TIP3    H177411   4.063   3.486   4.198 -1.4825  0.6633 -0.4113
18640TIP3    H277412   4.030   3.492   4.345  0.7937 -0.2985  0.1776
18641TIP3   OH277413   1.148   0.781   4.655  0.1129  0.2601  0.0712
18641TIP3    H177414   1.175   0.807   4.743 -0.9215  1.8058 -0.0294
18641TIP3    H277415   1.064   0.736   4.669  0.3011 -0.1363 -0.0666
18642TIP3   OH277416   1.993   5.188  12.542 -0.0113  0.0243  0.1895
18642TIP3    H177417   1.939   5.113  12.517  0.4331  0.4345 -2.1688
18642TIP3    H277418   2.070   5.182  12.486  1.1819  0.9373  1.6499
18643TIP3   OH277419   6.536   5.178   4.650 -0.2505 -0.3933 -0.0499
18643TIP3    H177420   6.517   5.100   4.701  0.7858 -0.1710  0.7012
18643TIP3    H277421   6.631   5.182   4.646 -0.2844  0.8417 -0.0685
18644TIP3   OH277422   2.916   5.804   0.926  0.2080  0.4151 -0.0655
18644TIP3    H177423   2.959   5.867   0.868  1.7229  0.9426  1.5524
18644TIP3    H277424   2.904   5.726   0.872 -0.0876  1.4690 -1.5902
18645TIP3   OH277425   4.032   3.942   0.290 -0.0838 -0.7672  0.0854
18645TIP3    H177426   4.005   3.881   0.221  1.2871 -1.3589  0.0477
18645TIP3    H277427   4.126   3.930   0.297 -0.1116 -0.2434  1.6268
18646TIP3   OH277428   4.345   1.398   3.430  0.1690 -0.3298 -0.1040
18646TIP3    H177429   4.433   1.374   3.401 -0.2271  1.5553 -3.5019
18646TIP3    H277430   4.353   1.490   3.455 -1.0537  0.3492 -2.0271
18647TIP3   OH277431   3.460   5.001  14.901 -0.1494  0.3024  0.6042
18647TIP3    H177432   3.392   4.951  14.854  0.0971 -0.5354  1.1237
18647TIP3    H277433   3.450   5.090  14.868 -0.3510 -0.1548 -0.6332
18648TIP3   OH277434   4.127   6.399   3.991 -1.3630 -0.3928  0.2020
18648TIP3    H177435   4.150   6.365   4.078 -1.4275  0.8093  0.6989
18648TIP3    H277436   4.209   6.436   3.958 -1.5997  0.1767  0.2385
18649TIP3   OH277437   0.020   6.065   2.749 -0.2210  0.0683  0.3743
18649TIP3    H177438  -0.036   5.987   2.750 -0.3471  0.0525 -1.9532
18649TIP3    H277439   0.025   6.092   2.840 -2.0130 -1.3621  0.9575
18650TIP3   OH277440   6.609   2.988   1.398 -0.4286  0.5311 -0.2129
18650TIP3    H177441   6.590   2.941   1.479  0.2798  0.1202 -0.2705
18650TIP3    H277442   6.633   2.918   1.336 -1.4787  0.7842 -0.9350
18651TIP3   OH277443   5.529   5.933   2.944 -0.0788 -0.6179 -0.5486
18651TIP3    H177444   5.500   5.842   2.935 -0.3924 -0.7935  1.6092
18651TIP3    H277445   5.457   5.976   2.992  1.3440 -0.0034  1.1346
18652TIP3   OH277446   4.331   3.847  14.958  0.1999 -0.2857  0.1105
18652TIP3    H177447   4.320   3.773  15.019 -0.7377  1.2729  1.9459
18652TIP3    H277448   4.411   3.891  14.987 -0.6744  0.9239  0.7679
18653TIP3   OH277449   3.121   5.036   1.459  0.3241  0.2039 -0.5216
18653TIP3    H177450   3.108   5.106   1.523 -0.6602 -0.3031 -0.1338
18653TIP3    H277451   3.141   5.081   1.377  1.1538  0.8815  0.0397
18654TIP3   OH277452   1.209   0.380   0.939  0.2491 -0.0495 -0.4420
18654TIP3    H177453   1.135   0.415   0.988 -0.4229 -1.5823 -0.3059
18654TIP3    H277454   1.224   0.444   0.869 -1.3535  0.1738 -0.6090
18655TIP3   OH277455   0.151   5.401   5.404 -0.3626 -0.0851  0.5811
18655TIP3    H177456   0.133   5.311   5.375 -0.4932 -0.3312  1.3972
18655TIP3    H277457   0.246   5.403   5.418 -0.5913 -0.7110  2.4942
18656TIP3   OH277458   2.722   4.996   2.878 -0.2361  0.0325 -0.4569
18656TIP3    H177459   2.627   4.993   2.866 -0.1756 -2.1793 -0.7879
18656TIP3    H277460   2.734   5.038   2.963 -1.8732 -4.1472  2.1583
18657TIP3   OH277461   0.947   2.418   3.941 -0.2958  0.2231  0.1162
18657TIP3    H177462   1.004   2.444   3.869  0.8163  0.0919  0.9165
18657TIP3    H277463   0.872   2.478   3.936 -0.3771  0.0241 -1.2993
18658TIP3   OH277464   6.840   3.410  13.686 -0.0608  0.0455  0.2715
18658TIP3    H177465   6.898   3.431  13.612 -0.2747 -0.1892  0.0339
18658TIP3    H277466   6.754   3.398  13.645 -0.1203 -0.3794  0.5255
18659TIP3   OH277467   4.121   5.691   4.447 -0.7778 -0.2600 -0.0727
18659TIP3    H177468   4.113   5.744   4.526 -2.7916  1.5777 -1.4036
18659TIP3    H277469   4.122   5.754   4.375 -2.2256 -1.9490 -1.6839
18660TIP3   OH277470   2.161   3.991   5.392 -0.2541 -0.4997  0.3579
18660TIP3    H177471   2.129   4.060   5.450  0.8070  0.0589  0.3123
18660TIP3    H277472   2.211   3.933   5.450 -0.6580 -0.9072  0.2972
18661TIP3   OH277473   6.922   3.125   5.224 -0.0708  0.2084  0.2135
18661TIP3    H177474   7.007   3.157   5.193 -0.4455  0.2305 -0.8311
18661TIP3    H277475   6.929   3.128   5.320  1.3731 -0.5421  0.1533
18662TIP3   OH277476   1.108   3.964   3.939  0.3151 -0.1666 -0.2191
18662TIP3    H177477   1.099   4.055   3.912  2.2124 -0.4226 -1.9654
18662TIP3    H277478   1.054   3.957   4.018 -2.2253  1.7020 -1.6558
18663TIP3   OH277479   5.981   3.835   5.144 -0.7213 -0.6323  0.0271
18663TIP3    H177480   5.989   3.898   5.216  0.0690 -1.7094  0.9346
18663TIP3    H277481   6.022   3.879   5.070  0.1978 -0.2134  0.7514
18664TIP3   OH277482   5.940   7.150   5.518  0.5726 -0.3959 -0.0906
18664TIP3    H177483   5.863   7.115   5.563  0.5467  0.1401  0.2851
18664TIP3    H277484   5.947   7.097   5.438  0.2759 -0.9650  0.2521
18665TIP3   OH277485   2.156   6.100   4.175 -0.3417 -0.1241 -0.3399
18665TIP3    H177486   2.165   6.143   4.090 -0.6414 -0.5690 -0.6056
18665TIP3    H277487   2.221   6.030   4.173  0.5868  0.6882  0.3437
18666TIP3   OH277488   0.284   5.556  11.653  0.4808 -0.1540  0.1738
18666TIP3    H177489   0.210   5.513  11.610 -1.3314  3.1213 -0.2788
18666TIP3    H277490   0.327   5.607  11.585  0.8078  0.9512  1.1555
18667TIP3   OH277491   2.033   3.420   4.984 -0.3390 -0.3223  0.4406
18667TIP3    H177492   1.983   3.492   4.945  0.4651 -0.2384 -0.4814
18667TIP3    H277493   2.124   3.443   4.967 -0.0973 -2.1925 -1.0649
18668TIP3   OH277494   1.363   1.363   0.508  0.7008  0.0975  0.7536
18668TIP3    H177495   1.273   1.384   0.481  1.2081 -0.0673 -1.2262
18668TIP3    H277496   1.353   1.288   0.567 -0.3841 -1.2222 -0.9918
18669TIP3   OH277497   2.529   3.782   2.614 -0.1104 -0.4910  0.7702
18669TIP3    H177498   2.546   3.689   2.603  0.2112 -0.2901 -0.6682
18669TIP3    H277499   2.555   3.821   2.531 -1.4204  0.7185  0.8912
18670TIP3   OH277500   3.750   0.378  15.239  0.2570 -0.4290  0.2034
18670TIP3    H177501   3.754   0.330  15.156  2.6974  0.8770 -0.5517
18670TIP3    H277502   3.766   0.311  15.306  0.4723 -1.1622 -0.5559
18671TIP3   OH277503   2.082   6.456   4.640  0.0544 -0.4619 -0.0072
18671TIP3    H177504   2.033   6.495   4.568 -0.0544 -0.3521  0.1270
18671TIP3    H277505   2.117   6.374   4.603  0.9612  0.1499 -0.5413
18672TIP3   OH277506   2.921   6.139   3.876  0.0924  0.6006  0.2076
18672TIP3    H177507   2.889   6.072   3.936  1.9434  0.9686  1.7165
18672TIP3    H277508   2.853   6.147   3.810 -0.9049 -1.6033  0.8818
18673TIP3   OH277509   4.627   0.841   4.703  0.4603 -0.0219  0.1725
18673TIP3    H177510   4.585   0.891   4.633 -0.3724 -1.0068 -0.0612
18673TIP3    H277511   4.642   0.905   4.772 -1.7964  0.3245  0.4072
18674TIP3   OH277512   4.461   5.102   4.468 -0.8952  0.3098 -0.0158
18674TIP3    H177513   4.407   5.147   4.533  0.6406  4.9106 -1.5627
18674TIP3    H277514   4.428   5.133   4.384  1.6894  0.3086 -1.1286
18675TIP3   OH277515   0.950   1.017   1.837 -0.1236 -0.1907  0.4880
18675TIP3    H177516   0.854   1.015   1.844 -0.0848  0.1019  1.2614
18675TIP3    H277517   0.976   1.090   1.893  0.4646  0.8122 -1.0286
18676TIP3   OH277518   6.969   1.463   2.615 -0.3902 -0.1049 -0.5222
18676TIP3    H177519   6.946   1.381   2.657 -0.4695  1.1357  2.0850
18676TIP3    H277520   6.896   1.522   2.634  1.9600  2.1661  2.7579
18677TIP3   OH277521   3.260   1.588   2.406 -0.3303 -0.4918  0.3942
18677TIP3    H177522   3.316   1.640   2.348 -0.7675 -1.1635 -0.6554
18677TIP3    H277523   3.294   1.606   2.494  1.2908 -0.5711 -0.1752
18678TIP3   OH277524   2.908   0.453   4.540 -0.4222  0.2011  0.0406
18678TIP3    H177525   2.818   0.474   4.517 -0.7864 -1.8175 -0.5602
18678TIP3    H277526   2.901   0.391   4.613  0.4794  0.1317  0.0835
18679TIP3   OH277527   3.908   3.237  14.860 -0.3523 -0.1019  0.4700
18679TIP3    H177528   3.861   3.239  14.943 -2.1418  1.2783 -0.5004
18679TIP3    H277529   3.971   3.309  14.866 -2.3132  1.7834 -0.2937
18680TIP3   OH277530   1.695   3.310   3.264 -0.2203 -0.6774 -0.1245
18680TIP3    H177531   1.613   3.359   3.263  0.4889  0.6048  0.6931
18680TIP3    H277532   1.763   3.378   3.270  0.9672 -1.6480 -1.7898
18681TIP3   OH277533   4.517   1.694   2.644  0.3698 -0.6953 -0.4101
18681TIP3    H177534   4.517   1.783   2.611 -1.9675 -0.5833 -0.2538
18681TIP3    H277535   4.489   1.641   2.570 -1.2128 -0.8964  0.2916
18682TIP3   OH277536   2.994   2.388   2.040 -0.0511  0.0644  0.0396
18682TIP3    H177537   3.004   2.299   2.005 -3.4574  0.0783 -1.3520
18682TIP3    H277538   3.040   2.444   1.977  0.2012 -0.5275 -0.3053
18683TIP3   OH277539   6.453   6.536   3.310 -0.2216  0.1007  0.0536
18683TIP3    H177540   6.461   6.605   3.376 -0.1067 -0.1188  0.2714
18683TIP3    H277541   6.495   6.460   3.350 -2.9846 -1.0010  1.0922
18684TIP3   OH277542   7.255   4.745  14.599 -0.4893  0.1957  0.4885
18684TIP3    H177543   7.319   4.794  14.651 -1.0883  0.3804  1.0700
18684TIP3    H277544   7.249   4.660  14.643  1.5635 -0.9432 -1.3146
18685TIP3   OH277545   2.117   5.795   2.455 -0.3338  0.4414 -0.0398
18685TIP3    H177546   2.057   5.824   2.387  0.2555 -1.6526 -1.5472
18685TIP3    H277547   2.063   5.743   2.514 -0.6424  1.4163  0.5580
18686TIP3   OH277548   4.864   5.274  12.441 -0.3400  0.5801  0.3855
18686TIP3    H177549   4.874   5.179  12.436  2.2929  0.8007 -0.1398
18686TIP3    H277550   4.773   5.288  12.465 -1.2999 -2.0363 -1.2956
18687TIP3   OH277551   0.538   3.576   2.445  0.3337 -0.0157 -0.0311
18687TIP3    H177552   0.511   3.554   2.356  0.0010 -0.3802  0.1556
18687TIP3    H277553   0.456   3.594   2.492  0.5036  0.1578  0.2054
18688TIP3   OH277554   5.730   2.020  14.613  0.8736  0.2259 -0.0986
18688TIP3    H177555   5.787   1.990  14.684  0.6881  0.2066  0.0416
18688TIP3    H277556   5.718   1.942  14.558  2.7850  0.7539 -1.3518
18689TIP3   OH277557   6.755   6.719   1.030 -0.3305  0.0281 -0.4128
18689TIP3    H177558   6.764   6.756   1.118  0.6018 -1.2280  0.0446
18689TIP3    H277559   6.699   6.642   1.041  0.5035 -0.6414 -0.7574
18690TIP3   OH277560   4.301   3.325   1.977  0.0480 -0.3011 -0.3740
18690TIP3    H177561   4.275   3.244   1.934  0.8473  0.6041 -2.7000
18690TIP3    H277562   4.355   3.371   1.913 -0.4579  2.1367  0.8179
18691TIP3   OH277563   0.023   5.476   0.898 -0.2383  0.0045 -0.2273
18691TIP3    H177564   0.092   5.413   0.876 -0.9998 -0.5483 -1.1412
18691TIP3    H277565   0.017   5.473   0.993 -0.2401 -1.3091 -0.2455
18692TIP3   OH277566   4.489   3.121  13.632 -0.1801 -0.1072 -0.1283
18692TIP3    H177567   4.570   3.150  13.589  0.5853  0.1623  1.4232
18692TIP3    H277568   4.517   3.051  13.691 -1.1329 -0.2013  0.2305
18693TIP3   OH277569   0.982   2.461   5.397  0.1321  0.4339 -0.8419
18693TIP3    H177570   0.990   2.511   5.316  2.8218 -1.0924 -1.6569
18693TIP3    H277571   0.931   2.384   5.373 -2.3216  1.7100 -0.0611
18694TIP3   OH277572   0.283   4.665   1.578 -0.1204 -0.1523 -0.2555
18694TIP3    H177573   0.328   4.749   1.578 -1.2814  0.5331  1.3054
18694TIP3    H277574   0.203   4.681   1.629 -1.1723 -1.7932 -1.2834
18695TIP3   OH277575   0.477   6.826   2.291 -0.1302  0.3829 -0.5968
18695TIP3    H177576   0.404   6.809   2.351  0.9531 -1.7482  0.2207
18695TIP3    H277577   0.493   6.920   2.298 -0.3904  0.2960  2.0726
18696TIP3   OH277578   3.543   1.275   4.321  0.0272  0.7039 -0.6259
18696TIP3    H177579   3.566   1.341   4.385 -1.5722  0.8569 -0.1675
18696TIP3    H277580   3.480   1.318   4.263 -0.2403 -0.1018 -0.9511
18697TIP3   OH277581   7.145   3.345   5.188  0.6499 -0.6297  0.0330
18697TIP3    H177582   7.212   3.393   5.237 -0.8478  0.6350  0.9300
18697TIP3    H277583   7.117   3.406   5.119  0.6161 -1.2615 -0.5243
18698TIP3   OH277584   5.791   6.775  11.463  0.0833  0.0839  0.0527
18698TIP3    H177585   5.730   6.832  11.415 -0.5417 -0.7616 -0.1629
18698TIP3    H277586   5.870   6.774  11.408 -0.8204 -1.3318 -1.3051
18699TIP3   OH277587   5.028   1.325   1.782  0.0539 -0.2448 -0.8975
18699TIP3    H177588   4.990   1.276   1.855  0.7238 -1.4684 -1.3376
18699TIP3    H277589   4.954   1.345   1.726 -0.1373 -1.4747 -1.1057
18700TIP3   OH277590   5.323   1.206  14.940 -0.2619  0.1033  0.3834
18700TIP3    H177591   5.249   1.150  14.961 -2.1032  2.0566 -0.5020
18700TIP3    H277592   5.301   1.291  14.979  1.2019  0.9020 -0.4232
18701TIP3   OH277593   0.695   5.821   3.683  0.3383  1.1770  0.0614
18701TIP3    H177594   0.609   5.863   3.689 -0.3559 -0.2872  1.1181
18701TIP3    H277595   0.751   5.872   3.742 -0.6069  0.4127  1.6885
18702TIP3   OH277596   1.790   3.591   4.051  0.4881  0.1269  0.0635
18702TIP3    H177597   1.846   3.542   4.111 -0.4690 -0.7463  0.2719
18702TIP3    H277598   1.722   3.629   4.107  0.1136  0.0723 -0.3441
18703TIP3   OH277599   2.234   6.316   3.455 -0.1053 -0.1262 -0.7206
18703TIP3    H177600   2.196   6.274   3.378 -0.4228 -1.3860  0.0877
18703TIP3    H277601   2.186   6.398   3.464 -0.0972  0.0071 -1.8282
18704TIP3   OH277602   0.775   3.304  11.453  0.1289 -0.3443 -0.1260
18704TIP3    H177603   0.682   3.320  11.442 -0.2629 -1.0860  1.8245
18704TIP3    H277604   0.801   3.359  11.527  1.1395 -0.5023 -0.3432
18705TIP3   OH277605   1.177   1.764   4.999 -0.1126  0.0218  0.4816
18705TIP3    H177606   1.102   1.817   5.029 -0.5220  0.0568 -0.5682
18705TIP3    H277607   1.242   1.774   5.069 -1.1973 -0.2762  1.5861
18706TIP3   OH277608   3.302   6.116   2.217  0.5365 -0.7465  0.4476
18706TIP3    H177609   3.340   6.134   2.131 -0.5406 -1.3832 -0.1860
18706TIP3    H277610   3.274   6.025   2.212  0.1707 -0.6925  1.3609
18707TIP3   OH277611   5.695   3.784  14.839  0.5890 -0.4558  0.0130
18707TIP3    H177612   5.603   3.791  14.865  0.6543 -0.0251  0.1296
18707TIP3    H277613   5.699   3.824  14.752  0.9020  0.6887  0.5437
18708TIP3   OH277614   6.500   2.076   0.051  0.8473  0.1704  0.2710
18708TIP3    H177615   6.476   2.086   0.143  1.7866 -1.3458  0.7207
18708TIP3    H277616   6.594   2.095   0.049  0.5943  1.4387 -0.6237
18709TIP3   OH277617   0.422   2.149   5.282 -0.7001 -0.4853 -0.3343
18709TIP3    H177618   0.384   2.231   5.314  1.1247  0.2027  0.2124
18709TIP3    H277619   0.458   2.107   5.360  0.0371 -0.8878 -0.8760
18710TIP3   OH277620   4.958   5.920  13.753 -0.1993  0.0533  0.0884
18710TIP3    H177621   4.882   5.978  13.753  0.6301  1.1731  0.7975
18710TIP3    H277622   4.921   5.833  13.734 -1.5481  0.6836 -0.3392
18711TIP3   OH277623   4.569   3.128   4.960  0.0429 -0.9417 -0.4969
18711TIP3    H177624   4.592   3.160   5.048 -1.1921  0.5301 -0.6563
18711TIP3    H277625   4.498   3.066   4.976  0.8739 -1.8820 -0.3619
18712TIP3   OH277626   1.582   4.512   3.602 -0.0085  0.2367  0.0668
18712TIP3    H177627   1.487   4.524   3.592  0.0246 -0.2135 -0.9040
18712TIP3    H277628   1.592   4.424   3.637  0.0899 -0.2142 -1.0567
18713TIP3   OH277629   4.300   1.556   1.587  0.1781 -0.0537  0.4726
18713TIP3    H177630   4.369   1.496   1.614  1.4522  0.5444 -1.2205
18713TIP3    H277631   4.219   1.507   1.597  1.0927 -1.7019  0.0861
18714TIP3   OH277632   0.980   1.728   0.413  0.1223 -0.3195  0.5327
18714TIP3    H177633   0.914   1.779   0.365  1.3895  1.7568  0.8736
18714TIP3    H277634   0.995   1.778   0.493  1.9166 -0.8583  0.5790
18715TIP3   OH277635   5.076   1.860   1.124  0.2595 -0.0510  0.0036
18715TIP3    H177636   5.080   1.955   1.138  0.9556  0.0381 -0.6948
18715TIP3    H277637   5.061   1.823   1.211  2.2524  0.5762  0.6691
18716TIP3   OH277638   0.331   0.760   4.531  0.3691 -0.3869 -0.3280
18716TIP3    H177639   0.406   0.764   4.471 -0.2675  0.4154 -1.0905
18716TIP3    H277640   0.354   0.820   4.602  0.9991 -1.1250  0.1168
18717TIP3   OH277641   6.238   1.988   0.367 -0.2369  0.2601 -0.1396
18717TIP3    H177642   6.231   1.942   0.451 -1.4852  0.8597  0.1058
18717TIP3    H277643   6.196   1.929   0.304  2.1335 -0.9488 -0.7123
18718TIP3   OH277644   2.945   3.940   1.874 -1.0603  0.3242 -0.2626
18718TIP3    H177645   2.925   3.869   1.813 -1.8485  0.8850 -0.6771
18718TIP3    H277646   3.017   3.906   1.927 -0.4211 -0.2259 -1.4312
18719TIP3   OH277647   4.700   5.607   2.473 -0.1292  0.0414  0.6076
18719TIP3    H177648   4.771   5.651   2.426 -0.4906  0.7512  0.7201
18719TIP3    H277649   4.742   5.573   2.553  0.4714 -1.1167 -0.1717
18720TIP3   OH277650   5.617   6.036   4.932  0.1707 -0.5147 -0.0013
18720TIP3    H177651   5.602   6.037   5.027 -0.7278  2.3868 -0.1042
18720TIP3    H277652   5.701   6.079   4.920  0.9696 -2.1256 -0.4949
18721TIP3   OH277653   1.851   3.817   2.782 -0.8274  0.2701 -0.1964
18721TIP3    H177654   1.759   3.822   2.804 -1.0259 -2.2065 -0.1777
18721TIP3    H277655   1.853   3.794   2.689 -0.3894 -2.3025  0.3584
18722TIP3   OH277656   4.716   6.518   3.985  0.4443 -0.3264 -0.0568
18722TIP3    H177657   4.675   6.524   4.071 -2.6264  0.1213 -1.4170
18722TIP3    H277658   4.725   6.424   3.969  0.7241 -0.4155  0.6361
18723TIP3   OH277659   0.742   2.383   5.158 -0.1049  0.4610  0.4297
18723TIP3    H177660   0.749   2.478   5.164 -2.3279  0.6447  1.2310
18723TIP3    H277661   0.699   2.357   5.240 -0.5889 -1.0914 -0.2766
18724TIP3   OH277662   2.391   0.713   3.422 -0.4411 -0.3983 -0.7200
18724TIP3    H177663   2.367   0.801   3.449 -0.7361 -0.4383 -0.8444
18724TIP3    H277664   2.484   0.706   3.441 -0.7899 -0.7099  1.0507
18725TIP3   OH277665   1.364   1.568   3.570  0.2288 -0.2755  0.4977
18725TIP3    H177666   1.329   1.495   3.622  1.7417  0.0613  2.0819
18725TIP3    H277667   1.395   1.527   3.489 -3.7226 -0.5807 -1.0601
18726TIP3   OH277668   6.555   0.503  10.675  0.3313  0.7605  0.4333
18726TIP3    H177669   6.479   0.448  10.655  0.6472 -0.3384  2.0392
18726TIP3    H277670   6.552   0.572  10.609 -1.0908 -0.1966 -0.5855
18727TIP3   OH277671   3.072   6.550   3.456  0.3272  0.1110  0.4428
18727TIP3    H177672   3.082   6.455   3.465 -0.5739 -0.1325 -0.8230
18727TIP3    H277673   3.003   6.573   3.517 -2.5586 -0.7975 -2.2221
18728TIP3   OH277674   0.085   1.796   2.262  0.1440  0.3163 -0.7014
18728TIP3    H177675   0.041   1.735   2.321  1.3575 -1.5458 -1.5999
18728TIP3    H277676   0.092   1.878   2.311 -2.4197  0.0672  0.1963
18729TIP3   OH277677   3.844   4.024   0.990 -0.8396  0.0568  0.1685
18729TIP3    H177678   3.926   4.072   0.991 -1.9601  2.0688 -0.3068
18729TIP3    H277679   3.802   4.046   1.074 -1.2942 -0.2545  0.0297
18730TIP3   OH277680   5.003   0.550   2.461 -0.1950  0.1006 -0.3504
18730TIP3    H177681   5.019   0.459   2.434 -0.4618 -0.0125 -0.1260
18730TIP3    H277682   5.071   0.568   2.526  0.5732  0.4356 -1.2135
18731TIP3   OH277683   6.351   6.221   3.677  0.2254  0.1862 -0.2444
18731TIP3    H177684   6.437   6.254   3.703  0.2949  0.6359 -1.0259
18731TIP3    H277685   6.292   6.295   3.691  0.1663  0.2465 -0.7864
18732TIP3   OH277686   6.064   1.132   5.433  0.1586 -0.3600 -0.8953
18732TIP3    H177687   5.969   1.120   5.426 -0.2221  1.0377  0.9151
18732TIP3    H277688   6.093   1.149   5.344 -0.9185 -2.9040 -1.8146
18733TIP3   OH277689   0.762   5.190   2.733  0.3706  0.5468  0.2232
18733TIP3    H177690   0.841   5.151   2.695 -0.0409 -0.1765  0.0814
18733TIP3    H277691   0.721   5.237   2.660  0.5139  0.6645  0.2197
18734TIP3   OH277692   2.719   5.527   1.223 -0.3223  0.5324 -0.1019
18734TIP3    H177693   2.811   5.553   1.210  0.1405 -1.6125 -1.5530
18734TIP3    H277694   2.683   5.596   1.280  1.8524  2.0591 -0.4360
18735TIP3   OH277695   5.135   0.397   4.523  0.0588  0.3729  0.5697
18735TIP3    H177696   5.047   0.435   4.525 -0.8072 -1.5256  0.0698
18735TIP3    H277697   5.193   0.473   4.513 -1.5389  1.6239  0.3626
18736TIP3   OH277698   2.219   0.932   0.537  0.0150 -0.3851 -0.8920
18736TIP3    H177699   2.267   0.926   0.455  1.8471 -1.2847  0.1887
18736TIP3    H277700   2.188   0.843   0.554  0.5557 -0.4380 -0.1155
18737TIP3   OH277701   0.725   2.429  12.509  0.6795 -0.1235 -0.1244
18737TIP3    H177702   0.691   2.340  12.517  0.1837  0.0313 -0.4820
18737TIP3    H277703   0.750   2.453  12.599  0.6726 -0.5620 -0.0030
18738TIP3   OH277704   1.136   1.112   3.863  0.3691  0.1284  0.1945
18738TIP3    H177705   1.103   1.023   3.857 -0.4998  0.4210  0.3673
18738TIP3    H277706   1.058   1.167   3.853  0.6450  0.8436  1.7001
18739TIP3   OH277707   3.950   4.632   1.062  0.3851  0.4285 -0.6461
18739TIP3    H177708   4.007   4.573   1.110  0.5319  1.2013  0.1545
18739TIP3    H277709   3.872   4.641   1.117 -0.8160 -1.0796 -1.9902
18740TIP3   OH277710   0.059   6.232  15.350  0.1610 -0.8957  0.6114
18740TIP3    H177711   0.090   6.312  15.392  0.4486 -0.7504  0.1286
18740TIP3    H277712   0.128   6.208  15.289  1.1460 -2.8091  2.3759
18741TIP3   OH277713   7.224   0.032   4.408 -0.1144  0.3697  0.3493
18741TIP3    H177714   7.157   0.021   4.340 -0.9130 -1.2681  1.3210
18741TIP3    H277715   7.247   0.125   4.404 -1.1073  0.5910 -1.2470
18742TIP3   OH277716   3.643   4.870   2.952  0.8594  0.4444  0.8298
18742TIP3    H177717   3.571   4.855   2.890  0.7749 -1.7173  1.3427
18742TIP3    H277718   3.704   4.798   2.935  1.2215  0.2747  2.6676
18743TIP3   OH277719   0.649   6.266   3.750  0.1102 -0.1116 -0.4316
18743TIP3    H177720   0.717   6.224   3.698  3.4507  2.7782  1.1386
18743TIP3    H277721   0.602   6.322   3.688  2.0017  0.9529 -0.9940
18744TIP3   OH277722   5.684   5.016   1.708 -0.0603  0.4647 -0.3347
18744TIP3    H177723   5.767   5.056   1.685 -0.3247  1.2929  0.1038
18744TIP3    H277724   5.655   4.972   1.628  1.1958 -0.5761 -0.2531
18745TIP3   OH277725   3.028   2.968   1.329 -0.8347 -0.6299 -0.3150
18745TIP3    H177726   3.012   3.033   1.261 -0.6492 -1.1417 -0.8542
18745TIP3    H277727   3.096   2.911   1.292 -0.6004 -0.8052  0.3678
18746TIP3   OH277728   1.901   2.128  13.011 -0.3962 -0.2113  0.5686
18746TIP3    H177729   1.988   2.155  12.980 -0.5962  0.4619  0.5705
18746TIP3    H277730   1.869   2.069  12.943  1.2872 -2.9622  1.9900
18747TIP3   OH277731   0.787   0.875   3.139  0.2040  0.3707 -0.0978
18747TIP3    H177732   0.692   0.881   3.139 -0.0065 -1.5128  1.6771
18747TIP3    H277733   0.807   0.808   3.074  0.3827  1.1201 -0.8308
18748TIP3   OH277734   0.445   3.153  12.570 -0.3999  0.1002 -0.0177
18748TIP3    H177735   0.392   3.130  12.494  0.5760  1.7519 -1.2592
18748TIP3    H277736   0.419   3.242  12.591  1.8404  0.9710 -0.6785
18749TIP3   OH277737   0.366   6.724   3.830  0.0823  0.2981  0.0024
18749TIP3    H177738   0.320   6.675   3.762  0.5617  0.7510 -0.6725
18749TIP3    H277739   0.410   6.658   3.882 -0.1870 -0.0516 -0.2122
18750TIP3   OH277740   6.799   2.118  12.120 -0.2256  0.2565  0.0495
18750TIP3    H177741   6.720   2.108  12.174  0.1601  0.5532  0.6820
18750TIP3    H277742   6.842   2.196  12.155  0.9317 -0.5404  0.4682
18751TIP3   OH277743   3.707   2.646   1.861  0.2618  0.5601  0.6971
18751TIP3    H177744   3.734   2.711   1.926  1.1343  0.2326  0.6672
18751TIP3    H277745   3.611   2.654   1.859  0.1475  0.1260  2.5117
18752TIP3   OH277746   4.591   3.446  15.312 -0.7898 -0.1686 -0.3559
18752TIP3    H177747   4.591   3.503  15.388 -0.5831  2.3601 -2.1277
18752TIP3    H277748   4.609   3.504  15.238 -0.7593 -2.5216 -2.3347
18753TIP3   OH277749   2.494   4.617   3.366  0.5838 -0.2795  0.1718
18753TIP3    H177750   2.399   4.615   3.367  0.5887 -0.3986  0.8710
18753TIP3    H277751   2.520   4.536   3.410  1.0077 -0.3217 -0.1515
18754TIP3   OH277752   5.019   2.513   0.837 -0.3269 -1.1624  0.6461
18754TIP3    H177753   5.113   2.527   0.830 -0.6679  0.6191 -2.1124
18754TIP3    H277754   4.984   2.598   0.865 -1.1914 -1.5231  0.6876
18755TIP3   OH277755   0.655   0.371   1.930 -0.1747  0.1320  0.3089
18755TIP3    H177756   0.701   0.453   1.945 -1.6601  0.5480  3.4698
18755TIP3    H277757   0.660   0.325   2.013 -3.5335 -0.7302  0.2023
18756TIP3   OH277758   3.801   1.442   4.118  0.3291  0.3272  0.0112
18756TIP3    H177759   3.710   1.468   4.102  0.2984 -0.7185 -1.7538
18756TIP3    H277760   3.838   1.427   4.031  1.3207 -2.0691  0.7545
18757TIP3   OH277761   2.158   1.251  13.735  0.1171  0.3465  0.0711
18757TIP3    H177762   2.067   1.241  13.710 -0.0059  0.2765  0.5387
18757TIP3    H277763   2.155   1.287  13.824  0.5299 -0.9676  0.6385
18758TIP3   OH277764   1.886   4.241   3.036 -0.0889 -0.1529  0.1183
18758TIP3    H177765   1.936   4.165   3.064 -0.0989 -0.9248 -1.8058
18758TIP3    H277766   1.949   4.297   2.991 -0.1308  0.8991  1.3138
18759TIP3   OH277767   1.868   1.497   5.678  0.4808  0.3430 -0.2929
18759TIP3    H177768   1.895   1.408   5.657  1.2109  0.8706 -1.7538
18759TIP3    H277769   1.902   1.550   5.606 -2.4906  1.4111 -1.0629
18760TIP3   OH277770   5.353   6.163   4.516  1.0352 -0.2855 -0.0641
18760TIP3    H177771   5.428   6.140   4.461  1.3115  0.8345 -0.1787
18760TIP3    H277772   5.390   6.180   4.602  1.2169  2.0528 -0.5393
18761TIP3   OH277773   3.910   3.856  14.501 -0.0674  0.3534  0.3186
18761TIP3    H177774   3.997   3.881  14.530  0.4187 -0.5446 -0.3194
18761TIP3    H277775   3.902   3.763  14.524 -0.1542 -0.0464 -1.2035
18762TIP3   OH277776   2.515   6.196   2.349 -0.6931 -0.0940 -0.4269
18762TIP3    H177777   2.471   6.117   2.318 -0.7166  0.0170 -0.6791
18762TIP3    H277778   2.522   6.184   2.444 -0.7282 -0.3813 -0.4595
18763TIP3   OH277779   5.299   0.816   1.676 -0.0281  0.1137  0.2745
18763TIP3    H177780   5.341   0.734   1.702  0.4826  0.2361 -0.1502
18763TIP3    H277781   5.354   0.885   1.713 -0.3205  0.2728  0.4218
18764TIP3   OH277782   6.500   0.028  15.124 -0.6325  0.4175 -0.6488
18764TIP3    H177783   6.424   0.076  15.089 -0.2628  0.9690 -0.7013
18764TIP3    H277784   6.551   0.004  15.047 -0.6461  0.2272 -0.5994
18765TIP3   OH277785   6.045   3.322   1.595 -0.0875 -0.7920 -0.1465
18765TIP3    H177786   5.963   3.344   1.639  0.7280  0.3921  0.8443
18765TIP3    H277787   6.099   3.282   1.663  1.7199  2.3265  0.4581
18766TIP3   OH277788   1.200   4.905  14.921  0.2276  0.0564  0.0528
18766TIP3    H177789   1.180   4.813  14.902 -1.3423 -0.0420  1.8157
18766TIP3    H277790   1.168   4.952  14.845 -0.2594 -0.7516 -0.2614
18767TIP3   OH277791   2.432   1.887   0.451 -0.4764 -0.2158  0.2279
18767TIP3    H177792   2.418   1.899   0.545  0.5030 -3.4740  0.9399
18767TIP3    H277793   2.354   1.924   0.410 -0.5259  2.0930  2.1885
18768TIP3   OH277794   0.149   5.722   0.131  0.1135  0.0596 -0.1191
18768TIP3    H177795   0.090   5.683   0.066 -2.1990  0.8489  1.4000
18768TIP3    H277796   0.208   5.651   0.155 -1.0757 -1.1906 -0.7340
18769TIP3   OH277797   6.448   4.781   5.579  0.4011  0.0249 -0.0243
18769TIP3    H177798   6.403   4.733   5.649  2.4336  0.2913  1.5766
18769TIP3    H277799   6.411   4.869   5.582  0.5033  0.0497  0.8058
18770TIP3   OH277800   6.297   5.603   4.110 -0.2651  0.5224 -0.1935
18770TIP3    H177801   6.383   5.641   4.128 -0.6099  1.3484 -0.2286
18770TIP3    H277802   6.251   5.671   4.059 -1.0692  0.2494  0.1520
18771TIP3   OH277803   2.097   6.950   5.903 -0.5749 -0.0680 -0.7725
18771TIP3    H177804   2.080   6.920   5.993  0.2000 -0.9510 -0.9097
18771TIP3    H277805   2.009   6.966   5.867 -0.8756  1.3224  0.4556
18772TIP3   OH277806   6.192   3.377   4.923  0.1267 -0.1642 -0.0612
18772TIP3    H177807   6.152   3.380   4.836 -0.3729 -1.6777  0.0789
18772TIP3    H277808   6.173   3.462   4.962 -1.4221 -0.2010 -0.6717
18773TIP3   OH277809   7.007   0.713   2.122 -0.0610  0.2226  0.4852
18773TIP3    H177810   6.971   0.662   2.049 -0.5922  0.2873  0.6960
18773TIP3    H277811   7.097   0.730   2.097 -0.1376 -0.0577  0.0020
18774TIP3   OH277812   0.977   1.061   4.954  0.2245 -0.0246 -0.0440
18774TIP3    H177813   1.001   1.044   4.863 -1.3020  1.5585 -0.8101
18774TIP3    H277814   1.039   1.127   4.983  0.5225 -0.3082 -0.0326
18775TIP3   OH277815   5.417   1.835   4.607  0.0615  0.0017  0.8713
18775TIP3    H177816   5.435   1.743   4.630  0.6056 -0.7611 -2.2378
18775TIP3    H277817   5.332   1.853   4.647  0.2089 -1.6570  2.0358
18776TIP3   OH277818   3.758   0.770   4.462  0.7699 -0.3075 -0.6945
18776TIP3    H177819   3.694   0.710   4.501  0.2903  0.6900  0.0915
18776TIP3    H277820   3.730   0.780   4.371 -1.3275  1.5457  0.0676
18777TIP3   OH277821   0.159   3.745   4.568  0.2623  0.1694 -0.0358
18777TIP3    H177822   0.096   3.782   4.507 -1.0394 -0.7231  0.7370
18777TIP3    H277823   0.120   3.757   4.654  1.5774  0.4225  0.5621
18778TIP3   OH277824   3.686   5.146   5.257  0.0588 -0.2837 -0.0106
18778TIP3    H177825   3.675   5.055   5.285  1.0188 -0.3454  0.1939
18778TIP3    H277826   3.780   5.163   5.266 -0.3373  1.3083  1.7488
18779TIP3   OH277827   2.846   7.107   0.064  0.3642  0.2670  0.0057
18779TIP3    H177828   2.832   7.121   0.158 -0.8009 -0.3048 -0.0706
18779TIP3    H277829   2.803   7.181   0.022  1.3746  0.8300 -0.0765
18780TIP3   OH277830   1.480   6.501   4.811  0.4482  0.1685  0.1782
18780TIP3    H177831   1.547   6.562   4.841  0.3540 -0.3388  1.4748
18780TIP3    H277832   1.516   6.414   4.831  0.4064 -0.2166 -1.2688
18781TIP3   OH277833   6.234   5.111   3.728 -0.0896  0.2492  0.0006
18781TIP3    H177834   6.200   5.177   3.788 -0.7139  0.2364 -0.3298
18781TIP3    H277835   6.271   5.160   3.655 -0.3779  0.2436 -0.1518
18782TIP3   OH277836   5.212   6.578  14.761 -0.6438  0.1738  0.0877
18782TIP3    H177837   5.177   6.496  14.725 -2.3056  1.1850 -0.7460
18782TIP3    H277838   5.274   6.609  14.695 -1.4592  0.5267 -0.5357
18783TIP3   OH277839   5.879   6.423   3.131 -0.3924  0.0687 -0.1656
18783TIP3    H177840   5.883   6.431   3.226  1.7492  0.2105 -0.2176
18783TIP3    H277841   5.786   6.408   3.112 -0.8981  0.2642  1.9079
18784TIP3   OH277842   6.753   6.212  13.728 -0.0582  0.4305  0.1737
18784TIP3    H177843   6.742   6.214  13.633  0.5060  2.1250  0.1043
18784TIP3    H277844   6.778   6.122  13.747 -1.2751 -0.2246 -1.1384
18785TIP3   OH277845   2.693   5.090   4.757 -0.7592 -0.7346 -0.7953
18785TIP3    H177846   2.736   5.170   4.726 -2.9807  0.9175  0.0693
18785TIP3    H277847   2.765   5.030   4.777  0.9582  0.5931 -2.5702
18786TIP3   OH277848   3.924   1.670   5.287 -0.1655 -0.3787  0.1706
18786TIP3    H177849   3.835   1.644   5.264 -0.6382  0.2215  1.2525
18786TIP3    H277850   3.920   1.766   5.290  0.7805 -0.2917 -0.7532
18787TIP3   OH277851   5.604   7.192  13.677 -0.2314 -0.2185 -0.3904
18787TIP3    H177852   5.534   7.169  13.615  0.2011 -0.1211 -0.9235
18787TIP3    H277853   5.599   7.287  13.684 -0.5111 -0.2593  0.0103
18788TIP3   OH277854   3.669   5.270   5.021 -0.0723 -0.3013  0.4428
18788TIP3    H177855   3.749   5.267   4.967 -0.0698 -0.2210  0.4424
18788TIP3    H277856   3.697   5.238   5.107  0.6990  2.6438  1.3886
18789TIP3   OH277857   4.640   6.233   4.922  0.5613 -0.6294 -0.2006
18789TIP3    H177858   4.688   6.156   4.953 -0.8636 -0.5118  2.6383
18789TIP3    H277859   4.553   6.225   4.961 -0.3910  1.2693 -1.7471
18790TIP3   OH277860   3.314   1.993   2.979 -0.2262  0.0732  0.2384
18790TIP3    H177861   3.373   2.031   2.913 -2.1676 -1.2698 -2.4235
18790TIP3    H277862   3.228   2.028   2.957 -1.0509 -1.0291  1.5903
18791TIP3   OH277863   1.043   3.304   3.295  0.2733 -0.0032 -0.2474
18791TIP3    H177864   1.084   3.381   3.255 -1.2798  1.1953  0.3813
18791TIP3    H277865   0.976   3.277   3.232  0.0200 -0.1041  0.0636
18792TIP3   OH277866   1.685   0.034  13.750 -0.3108  0.1999  0.4926
18792TIP3    H177867   1.613   0.048  13.688  0.3773  0.7074 -0.2019
18792TIP3    H277868   1.662   0.088  13.826 -1.6916 -1.2414  1.1544
18793TIP3   OH277869   3.577   3.806   2.648  0.1387  0.1030  0.1781
18793TIP3    H177870   3.663   3.769   2.631 -0.1992  0.4437 -2.7730
18793TIP3    H277871   3.538   3.750   2.715  3.0579  0.6925  2.5589
18794TIP3   OH277872   5.082   6.221   2.879  0.0100 -0.5467 -0.0023
18794TIP3    H177873   5.052   6.141   2.923 -0.0838 -0.2993  0.3878
18794TIP3    H277874   5.045   6.215   2.791 -0.5172 -0.6385  0.2197
18795TIP3   OH277875   4.143   1.591  12.007 -0.4567 -0.1144 -0.0913
18795TIP3    H177876   4.070   1.555  11.955 -1.4368  1.8396 -0.1395
18795TIP3    H277877   4.141   1.541  12.088 -0.7311 -1.2677 -0.7820
18796TIP3   OH277878   5.172   6.022   3.312 -0.8059 -0.3701  0.2362
18796TIP3    H177879   5.097   5.985   3.358  0.1034 -0.1878  1.9797
18796TIP3    H277880   5.166   6.116   3.329 -1.7172  0.0299 -2.0339
18797TIP3   OH277881   4.842   2.784   5.668 -0.0870 -0.0390  0.2742
18797TIP3    H177882   4.758   2.828   5.683 -0.3946 -0.5723  0.1584
18797TIP3    H277883   4.824   2.724   5.595  0.1388 -0.8482  0.8758
18798TIP3   OH277884   0.963   0.460  14.671 -0.4102 -0.0146 -0.2427
18798TIP3    H177885   0.972   0.527  14.739 -0.1247  0.3925 -0.6714
18798TIP3    H277886   0.892   0.491  14.615 -1.2093 -0.7646  0.3335
18799TIP3   OH277887   1.891   5.456   5.136  0.3611  0.7805  0.7933
18799TIP3    H177888   1.957   5.481   5.072 -0.7581 -0.1744 -0.8249
18799TIP3    H277889   1.872   5.364   5.117  0.8399  0.0725  3.3366
18800TIP3   OH277890   3.633   4.994   5.893 -0.2486  0.2315  0.4999
18800TIP3    H177891   3.664   5.028   5.809  0.9752 -0.6244  0.5769
18800TIP3    H277892   3.670   5.053   5.958 -1.3084  0.9747  0.4531
18801TIP3   OH277893   5.362   1.945   4.360 -0.2041 -0.2491 -0.4389
18801TIP3    H177894   5.431   1.888   4.327 -1.1385 -1.2851 -0.6588
18801TIP3    H277895   5.366   1.934   4.455  1.0283  1.0265 -0.3014
18802TIP3   OH277896   0.162   1.729   1.785 -0.3160  0.1379  0.0738
18802TIP3    H177897   0.174   1.800   1.848  1.6396  0.7833 -0.9561
18802TIP3    H277898   0.145   1.773   1.702  0.1308 -0.6257 -0.4292
18803TIP3   OH277899   0.220   3.125   4.244 -0.1194  0.1793 -0.6741
18803TIP3    H177900   0.148   3.154   4.299 -0.8692 -2.5335 -0.0833
18803TIP3    H277901   0.299   3.154   4.289 -0.7851  1.3025 -0.2014
18804TIP3   OH277902   0.527   2.807   3.448 -0.2413 -0.6677  0.0122
18804TIP3    H177903   0.510   2.814   3.354 -0.3758 -1.2730 -0.0095
18804TIP3    H277904   0.525   2.897   3.479 -0.6194 -0.5000 -0.4911
18805TIP3   OH277905   4.747   1.060   5.058 -0.5205 -0.1128 -0.3918
18805TIP3    H177906   4.752   1.065   4.963  2.4965  2.6153 -0.2714
18805TIP3    H277907   4.834   1.031   5.085 -1.0179  0.0783  1.5600
18806TIP3   OH277908   1.880   1.931   4.347 -0.1396  0.4002 -0.2947
18806TIP3    H177909   1.893   1.842   4.381 -1.1320  1.1966  2.5275
18806TIP3    H277910   1.793   1.929   4.307  0.3551 -0.1795 -1.3565
18807TIP3   OH277911   4.091   4.179  14.240 -0.0687  1.0883 -0.0256
18807TIP3    H177912   4.097   4.254  14.299 -1.2976  0.2452  1.2355
18807TIP3    H277913   4.083   4.103  14.298  0.3115  0.0577 -1.2742
18808TIP3   OH277914   4.989   5.950  15.198  0.5008  0.7032  0.4011
18808TIP3    H177915   4.948   5.983  15.119 -0.2283 -1.2768 -0.1185
18808TIP3    H277916   5.078   5.986  15.196  0.9606 -0.3732 -2.0728
18809TIP3   OH277917   0.946   4.885   2.968 -0.0104  0.2903 -0.1870
18809TIP3    H177918   0.919   4.976   2.952 -1.0446  0.0135 -0.0791
18809TIP3    H277919   1.006   4.865   2.897  1.9396  1.7273  0.9322
18810TIP3   OH277920   2.463   0.053   5.179 -0.8360  0.1258  0.8679
18810TIP3    H177921   2.556   0.040   5.194 -0.1335  2.6309 -0.6496
18810TIP3    H277922   2.456   0.062   5.084 -2.8747 -1.3810  0.8152
18811TIP3   OH277923   0.410   5.340   5.421 -0.1252 -0.1466 -0.1055
18811TIP3    H177924   0.481   5.384   5.468  1.0354  0.3424 -2.1876
18811TIP3    H277925   0.427   5.247   5.433  0.9023 -0.0317 -0.5845
18812TIP3   OH277926   5.878   6.659  14.958 -0.1600  0.1772  0.0387
18812TIP3    H177927   5.972   6.668  14.943  0.1794 -0.9958  1.3059
18812TIP3    H277928   5.854   6.735  15.010  0.2922 -0.0288  0.5531
18813TIP3   OH277929   2.478   3.575   1.059 -0.3111  0.1696 -0.0210
18813TIP3    H177930   2.531   3.549   0.984 -1.5070 -0.1769 -0.7764
18813TIP3    H277931   2.390   3.583   1.024 -1.0892 -0.9871  1.5448
18814TIP3   OH277932   4.196   2.872   1.929 -0.2165  0.6483  0.2966
18814TIP3    H177933   4.288   2.876   1.956 -0.2755  0.8452  0.4686
18814TIP3    H277934   4.177   2.959   1.896 -0.4225  0.6931  0.5302
18815TIP3   OH277935   2.907   4.935   4.818 -0.6452  0.4078  0.4163
18815TIP3    H177936   2.993   4.944   4.777 -0.5362 -0.0889  0.5303
18815TIP3    H277937   2.925   4.922   4.911 -0.7981 -0.6159  0.3152
18816TIP3   OH277938   5.662   0.020   3.025 -0.1385 -0.7142 -0.6367
18816TIP3    H177939   5.575  -0.010   3.002 -0.3414 -1.1284  0.5960
18816TIP3    H277940   5.708   0.029   2.942 -0.5005 -3.1315 -1.1628
18817TIP3   OH277941   3.555   3.905   3.130 -0.2244 -0.0343 -0.4689
18817TIP3    H177942   3.604   3.962   3.071  0.2462 -1.8095 -1.8803
18817TIP3    H277943   3.473   3.887   3.084 -0.0550 -1.0628 -0.3860
18818TIP3   OH277944   3.389   3.275  14.281 -0.3018  0.1062 -0.2380
18818TIP3    H177945   3.381   3.229  14.364 -2.1173  0.8000  0.0278
18818TIP3    H277946   3.452   3.345  14.298 -0.0037 -0.2933  0.3060
18819TIP3   OH277947   2.818   6.519   4.963  0.1526  0.3047 -0.7305
18819TIP3    H177948   2.776   6.484   5.042  2.0096  1.0771  0.7045
18819TIP3    H277949   2.901   6.470   4.957  1.7482  2.7407  0.0180
18820TIP3   OH277950   0.449   2.599   3.874  0.1661  0.2018  0.1721
18820TIP3    H177951   0.533   2.559   3.895 -0.7537 -1.3159  1.1522
18820TIP3    H277952   0.431   2.657   3.948  0.9068  1.5298 -0.6469
18821TIP3   OH277953   0.353   7.229  14.857 -0.3803  0.7513 -0.3125
18821TIP3    H177954   0.342   7.160  14.791 -0.4790  0.8733 -0.4265
18821TIP3    H277955   0.354   7.310  14.806  0.4133  0.7893 -0.2364
18822TIP3   OH277956   0.914   4.751   5.445  0.2054 -0.4509 -0.2312
18822TIP3    H177957   0.919   4.677   5.384  2.4923  1.8833 -3.2136
18822TIP3    H277958   1.005   4.773   5.463 -0.3048  2.5561 -0.8073
18823TIP3   OH277959   5.921   0.603   4.313  0.0777 -0.3075  0.4852
18823TIP3    H177960   5.943   0.637   4.400 -0.0411 -1.8673  1.1637
18823TIP3    H277961   5.844   0.548   4.328  1.1982 -2.1724 -0.2014
18824TIP3   OH277962   4.108   3.769   4.428 -0.0373  0.1572  0.2366
18824TIP3    H177963   4.053   3.695   4.402  0.0252  0.0705  0.3514
18824TIP3    H277964   4.172   3.777   4.358  0.9793 -0.9402  1.0137
18825TIP3   OH277965   5.640   0.136   2.711  0.4598 -0.2008 -0.3331
18825TIP3    H177966   5.707   0.204   2.720 -0.2019  0.5433 -0.8886
18825TIP3    H277967   5.562   0.183   2.679  0.1998 -1.3317 -1.4259
18826TIP3   OH277968   6.463   6.393  15.321  0.4354 -0.0015 -0.2839
18826TIP3    H177969   6.537   6.448  15.294  0.1692  1.3422  1.5276
18826TIP3    H277970   6.387   6.433  15.280  0.3244  0.6174  0.5051
18827TIP3   OH277971   6.794   4.012  12.702 -0.4532 -0.2362  0.1209
18827TIP3    H177972   6.816   4.080  12.766  1.0368  0.2692 -0.8576
18827TIP3    H277973   6.734   3.954  12.748  0.7432 -0.0289  2.0800
18828TIP3   OH277974   2.280   3.415   4.200  0.0924 -0.6213 -0.3922
18828TIP3    H177975   2.222   3.425   4.125 -0.3831 -1.2844 -0.1255
18828TIP3    H277976   2.362   3.454   4.172 -0.7849  1.2930 -0.4031
18829TIP3   OH277977   4.196   0.856  12.541  0.7914  0.0451  0.5411
18829TIP3    H177978   4.243   0.835  12.622  0.7635  0.0150  0.5490
18829TIP3    H277979   4.162   0.944  12.555  1.9021  0.5691  0.0520
18830TIP3   OH277980   0.808   4.223   4.851 -0.6470 -0.6891  0.0516
18830TIP3    H177981   0.779   4.294   4.909 -0.2642 -2.2778  2.3327
18830TIP3    H277982   0.730   4.201   4.800 -1.6903 -0.6459  1.5391
18831TIP3   OH277983   3.207   3.447   4.723  0.5420 -0.2316 -0.2352
18831TIP3    H177984   3.126   3.463   4.676 -0.4655 -1.0467  1.1550
18831TIP3    H277985   3.275   3.447   4.655 -0.9924 -2.7566 -1.9417
18832TIP3   OH277986   7.167   6.865   1.705  0.3854 -0.0131  0.0453
18832TIP3    H177987   7.153   6.941   1.649 -1.6224  1.1181  1.9203
18832TIP3    H277988   7.079   6.831   1.722  1.0338 -1.0888  1.4619
18833TIP3   OH277989   5.362   0.144  13.956  0.5605 -0.5234 -0.2704
18833TIP3    H177990   5.383   0.227  13.912 -0.6956 -1.3952 -2.6749
18833TIP3    H277991   5.307   0.097  13.894  1.5509 -3.3648  0.8649
18834TIP3   OH277992   3.406   4.749   1.460 -0.1635  0.0809 -0.2349
18834TIP3    H177993   3.434   4.743   1.368  0.4689  1.7137 -0.1767
18834TIP3    H277994   3.484   4.727   1.511  0.1961  1.5806 -0.0963
18835TIP3   OH277995   5.172   2.373   5.544 -0.6730 -0.2438  0.2605
18835TIP3    H177996   5.220   2.367   5.627  1.3332  1.0723 -0.7106
18835TIP3    H277997   5.088   2.412   5.567 -0.0749  0.2843  1.6523
18836TIP3   OH277998   1.654   6.869  13.096  0.1679 -0.0034  0.0643
18836TIP3    H177999   1.578   6.827  13.056 -0.1025  2.4237 -2.2384
18836TIP3    H278000   1.628   6.883  13.188 -0.6108 -2.5347  0.3155
18837TIP3   OH278001   5.013   3.344   2.432 -0.5951 -0.4987  0.7458
18837TIP3    H178002   4.926   3.351   2.471 -0.2987  0.5549  1.2431
18837TIP3    H278003   5.073   3.377   2.499  0.1092 -0.4477  0.1095
18838TIP3   OH278004   6.480   5.867   0.355  0.4360  0.1114 -0.1662
18838TIP3    H178005   6.549   5.897   0.414  0.2875 -1.0203  0.6130
18838TIP3    H278006   6.526   5.825   0.283  0.5804  0.1390 -0.0899
18839TIP3   OH278007   4.646   4.981   5.153 -0.5906  0.1303  0.6488
18839TIP3    H178008   4.574   4.969   5.215  0.1326 -1.7355  1.1836
18839TIP3    H278009   4.605   5.023   5.077 -1.9082  0.5721  1.5611
18840TIP3   OH278010   5.764   0.129   4.672  0.0122 -0.4441  0.1888
18840TIP3    H178011   5.788   0.163   4.586 -0.9596  1.2123  0.5270
18840TIP3    H278012   5.839   0.149   4.728  0.4004 -0.9810 -0.1354
18841TIP3   OH278013   7.058   3.453   1.703 -0.0062  0.2760 -0.1178
18841TIP3    H178014   6.973   3.455   1.658 -0.5160 -0.0113  0.7957
18841TIP3    H278015   7.037   3.470   1.794  0.7408 -1.2116  0.3700
18842TIP3   OH278016   6.745   6.434   2.438  0.0315 -0.1146  0.6369
18842TIP3    H178017   6.776   6.414   2.526 -0.3882 -0.9503  0.6035
18842TIP3    H278018   6.825   6.439   2.385  0.2897  0.5005  1.0730
18843TIP3   OH278019   2.672   2.373   2.481  0.5690  0.1435  0.4558
18843TIP3    H178020   2.614   2.437   2.524  3.5731  2.7220  1.0132
18843TIP3    H278021   2.674   2.402   2.389  0.5437 -0.3106  0.3117
18844TIP3   OH278022   6.192   0.823   5.253  0.4810 -0.3532  0.1762
18844TIP3    H178023   6.206   0.761   5.324 -1.2375  0.3325  1.1972
18844TIP3    H278024   6.111   0.868   5.277  0.7276  1.0409 -1.4176
18845TIP3   OH278025   2.982   3.481   4.917  1.1756 -0.0238 -0.5119
18845TIP3    H178026   3.016   3.414   4.857  0.1439 -1.5435  0.5200
18845TIP3    H278027   3.061   3.526   4.949  1.7419  1.3489 -3.4504
18846TIP3   OH278028   6.678   0.026  12.928  0.4526 -0.0284  0.4180
18846TIP3    H178029   6.691   0.101  12.870 -2.4462  0.5761  0.4018
18846TIP3    H278030   6.751  -0.032  12.909  0.1853  0.5824 -3.1510
18847TIP3   OH278031   5.633   3.970   1.744 -0.1045 -0.0086 -0.1296
18847TIP3    H178032   5.643   3.997   1.836 -1.4906 -0.6201  0.2329
18847TIP3    H278033   5.593   4.045   1.701 -0.6369 -0.1656  0.0744
18848TIP3   OH278034   0.442   0.778   0.821  0.0127 -0.7438 -0.1715
18848TIP3    H178035   0.384   0.847   0.788  3.5991  2.3096 -0.8881
18848TIP3    H278036   0.427   0.777   0.916  0.7711  2.1715  0.0744
18849TIP3   OH278037   3.560   4.669   3.172  0.4213  0.7921  0.1594
18849TIP3    H178038   3.618   4.624   3.110 -0.6593  0.3092 -0.5516
18849TIP3    H278039   3.527   4.600   3.229  1.2009  1.1967  1.1240
18850TIP3   OH278040   3.735   4.899   4.382  0.3271  0.2128 -0.1535
18850TIP3    H178041   3.745   4.944   4.466 -1.8331 -1.3824  1.0663
18850TIP3    H278042   3.668   4.949   4.335 -0.7246 -0.6047  0.4274
18851TIP3   OH278043   6.613   4.150  11.085  0.3003  0.0463  0.3156
18851TIP3    H178044   6.646   4.192  11.006  0.6067 -1.0809 -0.1878
18851TIP3    H278045   6.645   4.059  11.078 -1.3292 -0.5944  0.7473
18852TIP3   OH278046   4.968   1.654   2.568 -0.3886 -0.0622 -0.0696
18852TIP3    H178047   5.034   1.719   2.548 -1.4123  0.8850 -0.4541
18852TIP3    H278048   4.949   1.611   2.485 -0.7674  0.1620 -0.1014
18853TIP3   OH278049   4.003   6.191   3.507 -0.7117 -0.1391 -0.2337
18853TIP3    H178050   4.004   6.272   3.456 -2.2139  0.0381 -0.0141
18853TIP3    H278051   3.973   6.124   3.445 -0.3753 -0.3616 -0.1614
18854TIP3   OH278052   3.898   5.056  13.994  0.3036 -0.1026  0.8102
18854TIP3    H178053   3.812   5.098  14.006 -0.6483 -1.3767 -0.9789
18854TIP3    H278054   3.951   5.124  13.953 -1.0739 -0.3631 -1.6157
18855TIP3   OH278055   2.264   7.014   1.155  0.0226  0.1083 -0.0379
18855TIP3    H178056   2.290   7.104   1.176  1.2466 -0.5305  1.2898
18855TIP3    H278057   2.317   6.992   1.078  2.4487 -0.6586  1.7480
18856TIP3   OH278058   4.161   0.781   3.644  0.2179  0.3017  0.1253
18856TIP3    H178059   4.083   0.737   3.609 -0.9927  2.4063 -0.0178
18856TIP3    H278060   4.149   0.778   3.739 -0.0863  0.6465  0.1034
18857TIP3   OH278061   1.055   0.205  10.691 -0.2867 -0.2119 -0.3490
18857TIP3    H178062   1.056   0.157  10.608  1.9502  0.0963 -0.5692
18857TIP3    H278063   1.122   0.161  10.744  1.2372  2.0602 -0.2523
18858TIP3   OH278064   2.028   0.031   3.891 -0.1836 -0.0506 -0.1527
18858TIP3    H178065   2.078  -0.050   3.894 -2.2601 -1.4279 -0.5838
18858TIP3    H278066   2.010   0.045   3.798 -1.6756 -0.3119  0.0800
18859TIP3   OH278067   0.794   7.218   4.189 -0.8019  0.4626 -0.1662
18859TIP3    H178068   0.718   7.188   4.139  0.1995 -0.1603 -1.3845
18859TIP3    H278069   0.862   7.231   4.123  0.9360 -1.4876  1.1130
18860TIP3   OH278070   6.563   0.425   2.800  0.3024 -0.5131 -0.6658
18860TIP3    H178071   6.561   0.463   2.712 -0.9306 -0.0373 -0.4468
18860TIP3    H278072   6.642   0.370   2.800  1.7059  1.3643 -1.2521
18861TIP3   OH278073   3.030   0.153   4.360 -0.1682 -0.0257 -0.4605
18861TIP3    H178074   3.094   0.220   4.336 -0.6669  0.2278 -1.1002
18861TIP3    H278075   2.946   0.199   4.357 -0.4502 -0.5284 -0.2899
18862TIP3   OH278076   4.984   2.345   3.225  0.2000 -1.0450 -0.1453
18862TIP3    H178077   5.036   2.410   3.177 -0.0329 -0.6744  0.0971
18862TIP3    H278078   5.024   2.261   3.202  1.7156 -0.6803  1.0353
18863TIP3   OH278079   1.052   6.308   4.687  0.1082 -0.1963 -0.3043
18863TIP3    H178080   1.005   6.229   4.714 -0.7353  0.4538  0.1963
18863TIP3    H278081   1.144   6.285   4.696 -0.1274 -0.7566  1.0197
18864TIP3   OH278082   3.895   3.419   5.449 -0.0253 -0.0950  0.1071
18864TIP3    H178083   3.982   3.389   5.422 -0.3955 -1.1337  0.0231
18864TIP3    H278084   3.850   3.340   5.478 -2.0464 -0.2099 -2.8142
18865TIP3   OH278085   3.402   1.412   3.880  0.3291 -0.0435  0.4144
18865TIP3    H178086   3.421   1.438   3.970  0.6525  0.3474  0.2344
18865TIP3    H278087   3.408   1.316   3.880 -1.2204 -0.1677  1.1644
18866TIP3   OH278088   2.284   5.414   4.010  0.5997  0.1730  0.2386
18866TIP3    H178089   2.260   5.335   4.059  1.4649 -0.4261 -0.2720
18866TIP3    H278090   2.271   5.486   4.071 -1.0136 -0.2642  0.4598
18867TIP3   OH278091   2.271   2.803   9.593  0.2293  0.0995 -0.0144
18867TIP3    H178092   2.195   2.849   9.627 -0.3668  0.3301 -1.5625
18867TIP3    H278093   2.324   2.781   9.670  0.1233  2.6341  0.8479
18868TIP3   OH278094   2.745   1.739   1.840  0.7373  0.0546 -0.0031
18868TIP3    H178095   2.770   1.672   1.904  1.1301  1.6427  1.5972
18868TIP3    H278096   2.650   1.744   1.846  0.7060 -0.3503 -0.1284
18869TIP3   OH278097   4.543   1.708   5.876  0.3716  0.8008  0.2896
18869TIP3    H178098   4.632   1.708   5.911  1.1302  2.3949 -1.3998
18869TIP3    H278099   4.540   1.631   5.818  1.8963  2.4750 -2.2347
18870TIP3   OH278100   4.252   1.322  14.630  0.1945 -0.2370 -0.0802
18870TIP3    H178101   4.207   1.337  14.547  0.1614  0.9295  0.1275
18870TIP3    H278102   4.187   1.280  14.685  0.0802 -0.6235 -0.5040
18871TIP3   OH278103   6.050   3.598   2.055 -0.7852  0.3279  0.6806
18871TIP3    H178104   6.139   3.595   2.091 -0.9106 -1.6087  0.9398
18871TIP3    H278105   6.060   3.641   1.970  1.1677 -3.1501 -1.0919
18872TIP3   OH278106   4.655   5.752   5.321  0.4276 -0.5983  0.0342
18872TIP3    H178107   4.724   5.788   5.376 -2.2425  1.7840  2.1350
18872TIP3    H278108   4.667   5.795   5.236  1.5260 -0.2481  0.3501
18873TIP3   OH278109   1.338   7.248   1.457 -0.4697  0.3013 -0.2959
18873TIP3    H178110   1.390   7.323   1.430 -0.8669  0.4539 -0.6289
18873TIP3    H278111   1.401   7.190   1.501  0.3850 -0.3719 -2.2916
18874TIP3   OH278112   2.083   2.853   4.082 -0.3883  0.3680 -0.0440
18874TIP3    H178113   2.150   2.787   4.066  0.0186  0.9965 -1.0281
18874TIP3    H278114   2.016   2.808   4.134  0.6816 -0.3308  0.7600
18875TIP3   OH278115   3.521   5.329   4.787 -0.1360 -0.6329  0.0289
18875TIP3    H178116   3.427   5.315   4.793 -0.2495  0.2937  0.5376
18875TIP3    H278117   3.555   5.305   4.873  0.4312 -3.2316 -0.8462
18876TIP3   OH278118   0.654   3.300  15.343  0.8849  0.5101  0.3594
18876TIP3    H178119   0.731   3.297  15.400  1.3168 -0.5296 -0.2491
18876TIP3    H278120   0.663   3.223  15.287  0.3367  1.3582 -0.9392
18877TIP3   OH278121   5.749   3.788   1.396 -0.3297 -0.6496  0.2257
18877TIP3    H178122   5.709   3.704   1.372 -2.1621  0.5520 -1.1764
18877TIP3    H278123   5.825   3.796   1.339 -0.5690 -1.0257 -0.1529
18878TIP3   OH278124   0.562   0.251   2.786 -0.1612  0.6726 -0.3450
18878TIP3    H178125   0.634   0.294   2.834  0.6078 -1.6451  0.7507
18878TIP3    H278126   0.505   0.217   2.855  0.0028 -1.1834 -1.0690
18879TIP3   OH278127   4.029   2.189   1.771  0.6580 -0.0346 -0.3653
18879TIP3    H178128   4.081   2.130   1.717  0.8659  1.1572 -1.5230
18879TIP3    H278129   3.979   2.241   1.708 -1.9331 -1.0792  0.6817
18880TIP3   OH278130   3.192   6.312   4.607 -0.0180 -0.2016  0.5748
18880TIP3    H178131   3.181   6.225   4.644 -1.6145  0.5104  1.8872
18880TIP3    H278132   3.207   6.297   4.514 -1.7728 -1.8384  0.5101
18881TIP3   OH278133   1.555   1.490  12.240 -0.0887 -0.3339 -0.0367
18881TIP3    H178134   1.613   1.558  12.273 -0.5593  0.0466  0.0153
18881TIP3    H278135   1.478   1.537  12.206 -0.6793 -0.8671  0.5291
18882TIP3   OH278136   6.947   1.254   1.078 -0.0504 -0.5972  0.5683
18882TIP3    H178137   6.869   1.200   1.093 -0.6194  0.4431  1.4316
18882TIP3    H278138   6.919   1.317   1.012  0.0170 -0.1295  0.9879
18883TIP3   OH278139   4.719   5.341   2.639 -0.1978 -0.2776  0.3628
18883TIP3    H178140   4.769   5.264   2.612 -0.6746 -0.4734  0.0211
18883TIP3    H278141   4.785   5.409   2.651  0.4368 -1.1950  2.4718
18884TIP3   OH278142   5.653   4.772   5.652  0.7374 -0.2687 -0.5416
18884TIP3    H178143   5.739   4.730   5.649  1.4370  1.0154  0.4230
18884TIP3    H278144   5.599   4.712   5.704  0.8995 -1.2990 -1.5276
18885TIP3   OH278145   0.836   6.542   2.840  0.4093 -0.2996  0.1729
18885TIP3    H178146   0.802   6.499   2.919 -0.2955  0.3471  0.2375
18885TIP3    H278147   0.924   6.507   2.830  0.1344 -1.1789  0.6547
18886TIP3   OH278148   0.217   4.178   5.024 -0.5159  0.6850 -0.7722
18886TIP3    H178149   0.254   4.171   4.936  1.0674 -1.1801 -0.0338
18886TIP3    H278150   0.236   4.268   5.051 -1.7007  1.5237 -2.5771
18887TIP3   OH278151   3.857   7.167   1.033  0.0770 -0.2866  0.3039
18887TIP3    H178152   3.858   7.263   1.035 -0.6383 -0.2538 -0.1989
18887TIP3    H278153   3.847   7.146   0.940  0.4622 -0.8544  0.3890
18888TIP3   OH278154   5.585   1.363   3.898  0.1915 -0.1688  0.1703
18888TIP3    H178155   5.638   1.289   3.868  3.0335  2.2461 -1.3382
18888TIP3    H278156   5.561   1.409   3.818  2.0537  2.6794  1.0943
18889TIP3   OH278157   3.116   4.942  13.416 -0.9684 -0.0486  0.5192
18889TIP3    H178158   3.071   5.025  13.428 -2.2180 -0.1257 -2.7355
18889TIP3    H278159   3.188   4.945  13.479 -2.1110  2.6025  1.8635
18890TIP3   OH278160   1.830   1.184  15.205 -0.3950  0.2937 -0.5086
18890TIP3    H178161   1.758   1.133  15.241 -0.0498 -0.1908 -0.4876
18890TIP3    H278162   1.873   1.124  15.143  1.8850 -0.5723  1.7328
18891TIP3   OH278163   1.435   6.086  12.371  0.3436 -0.3935 -0.1639
18891TIP3    H178164   1.491   6.037  12.431  1.1170 -0.0789 -0.6026
18891TIP3    H278165   1.492   6.106  12.297 -0.6768 -1.0796 -1.1744
18892TIP3   OH278166   4.823   1.741   5.646 -0.6507  0.2398 -0.6791
18892TIP3    H178167   4.795   1.707   5.731  0.1372 -0.6877 -0.7776
18892TIP3    H278168   4.864   1.825   5.667 -0.6554  0.1193 -0.1639
18893TIP3   OH278169   0.567   4.650   5.459  0.0158  0.1489 -0.0446
18893TIP3    H178170   0.627   4.650   5.384  0.9710 -1.2302  0.6817
18893TIP3    H278171   0.481   4.665   5.420  0.4906 -0.5204 -1.4281
18894TIP3   OH278172   3.535   4.512  13.317 -0.5867  0.4769  0.1164
18894TIP3    H178173   3.493   4.547  13.396 -2.4761 -0.1504 -0.5461
18894TIP3    H278174   3.609   4.461  13.350 -0.0044  2.0443  1.3151
18895TIP3   OH278175   3.320   6.515   4.784  0.3253  0.2739 -0.4236
18895TIP3    H178176   3.390   6.473   4.834 -0.8524 -0.5933  0.5783
18895TIP3    H278177   3.301   6.453   4.714 -0.0870  0.0442 -0.1126
18896TIP3   OH278178   3.096   0.601   3.099  0.2569 -0.0016  0.2149
18896TIP3    H178179   3.053   0.550   3.031  0.8149 -0.0988 -0.0696
18896TIP3    H278180   3.119   0.537   3.166 -0.5227  0.1323  0.6206
18897TIP3   OH278181   3.812   0.039  14.471 -0.1112 -0.0676  0.2724
18897TIP3    H178182   3.760   0.119  14.473 -2.3171 -1.3375 -1.7368
18897TIP3    H278183   3.863   0.045  14.391  0.7172 -0.1449  0.7758
18898TIP3   OH278184   3.701   5.881   4.874 -0.4055 -0.6096  0.1448
18898TIP3    H178185   3.696   5.799   4.922 -1.8316 -0.2879  0.5822
18898TIP3    H278186   3.690   5.949   4.940  0.3231 -0.0611 -0.2744
18899TIP3   OH278187   3.590   5.024  14.397 -0.1109  0.1883 -0.1718
18899TIP3    H178188   3.508   5.008  14.350 -0.6067 -1.5228  1.1762
18899TIP3    H278189   3.584   5.116  14.423 -1.4241  0.2060 -0.4547
18900TIP3   OH278190   3.531   2.634   2.692  0.2710 -0.2015 -0.1562
18900TIP3    H178191   3.556   2.638   2.600 -0.6554 -0.2105 -0.4118
18900TIP3    H278192   3.473   2.559   2.699  2.3392 -1.7968  0.9536
18901TIP3   OH278193   5.787   4.237   2.806  0.8245 -0.6851  0.5074
18901TIP3    H178194   5.804   4.322   2.847 -1.0584  0.4358 -0.8972
18901TIP3    H278195   5.692   4.233   2.797  0.9705 -2.3201 -0.7569
18902TIP3   OH278196   2.313   0.091   1.588 -0.3198 -0.1400 -0.4379
18902TIP3    H178197   2.354   0.129   1.666 -0.5242 -2.3676  0.8528
18902TIP3    H278198   2.324  -0.004   1.599 -0.8988 -0.5604 -2.8467
18903TIP3   OH278199   0.912   5.690   4.882 -0.0152 -0.0402  0.6893
18903TIP3    H178200   0.848   5.664   4.948  1.8119 -1.2563  2.1131
18903TIP3    H278201   0.994   5.649   4.911  0.9866 -0.2229 -2.1062
18904TIP3   OH278202   6.622   5.280   4.191  0.7506 -0.5771  0.0367
18904TIP3    H178203   6.687   5.343   4.224  0.5681 -0.0055 -0.6560
18904TIP3    H278204   6.673   5.216   4.142  0.9337 -0.9484  0.7042
18905TIP3   OH278205   4.823   0.779   3.645  0.2203 -0.3745  0.4786
18905TIP3    H178206   4.909   0.780   3.687  0.2127  2.6254  0.6037
18905TIP3    H278207   4.798   0.871   3.637 -3.5184 -1.1133  1.4992
18906TIP3   OH278208   0.177   0.198   2.860  0.0753  0.4363  0.1440
18906TIP3    H178209   0.098   0.150   2.886  1.6054 -1.9976  0.6226
18906TIP3    H278210   0.181   0.272   2.920 -0.8112 -0.5052  1.4305
18907TIP3   OH278211   0.495   6.232   0.477  0.3474 -0.0885  0.5284
18907TIP3    H178212   0.497   6.145   0.436 -0.4501 -0.0143  0.3141
18907TIP3    H278213   0.515   6.215   0.569 -0.7598 -0.6425  0.6872
18908TIP3   OH278214   1.642   7.149   1.198 -0.0792  0.6642  0.2984
18908TIP3    H178215   1.646   7.112   1.110  0.5168 -3.0680  1.7164
18908TIP3    H278216   1.728   7.190   1.210  0.0522  0.6850 -0.6293
18909TIP3   OH278217   0.917   1.887   3.547  0.5912 -0.3547  0.2158
18909TIP3    H178218   0.944   1.930   3.628  0.7492  0.0325 -0.0363
18909TIP3    H278219   0.947   1.797   3.556  2.7286  0.2398 -0.3910
18910TIP3   OH278220   3.725   0.350   1.521 -0.2436  0.3542 -0.2314
18910TIP3    H178221   3.770   0.428   1.490 -0.4223  1.2457  1.5925
18910TIP3    H278222   3.649   0.341   1.464 -0.3085  1.6243 -0.3667
18911TIP3   OH278223   3.954   2.506  12.495 -0.4896  0.4758 -0.4707
18911TIP3    H178224   3.923   2.559  12.422  0.3995  0.5870 -0.7795
18911TIP3    H278225   3.874   2.471  12.535 -1.0114  0.8901 -1.1296
18912TIP3   OH278226   6.980   0.643   0.669 -0.0829  0.1325  0.0508
18912TIP3    H178227   7.008   0.636   0.760 -0.4937  0.5507  0.2115
18912TIP3    H278228   7.059   0.668   0.622 -0.2584  1.8004  0.5732
18913TIP3   OH278229   5.317   5.328   2.404  0.2397  0.7187 -0.0340
18913TIP3    H178230   5.387   5.348   2.466 -0.6897 -2.1946  2.2057
18913TIP3    H278231   5.360   5.329   2.319  2.3861  1.5569  0.9739
18914TIP3   OH278232   6.549   2.716   0.733 -0.1232  0.7585  0.0726
18914TIP3    H178233   6.630   2.762   0.755  0.5297 -0.1551 -0.3891
18914TIP3    H278234   6.482   2.785   0.735  0.7923  1.7006 -0.4075
18915TIP3   OH278235   1.124   5.913  13.514  0.2773 -0.2729  0.1431
18915TIP3    H178236   1.052   5.883  13.569 -0.3024 -2.2993 -1.5834
18915TIP3    H278237   1.182   5.960  13.574 -2.7879  2.1593  1.4798
18916TIP3   OH278238   0.650   5.362   0.656 -0.5837 -0.2020  0.2658
18916TIP3    H178239   0.673   5.295   0.720  0.6717  0.4387  0.5147
18916TIP3    H278240   0.733   5.402   0.632 -1.0680 -0.1061 -1.4385
18917TIP3   OH278241   6.127   1.959   4.623  0.3091 -0.3847 -0.3400
18917TIP3    H178242   6.129   1.968   4.528  1.6373  0.2295 -0.2779
18917TIP3    H278243   6.197   2.016   4.654 -1.2404  0.8270  1.1399
18918TIP3   OH278244   3.345   6.706  14.103  0.2902  0.8252 -0.4877
18918TIP3    H178245   3.346   6.610  14.105 -0.1292  0.7895 -1.3029
18918TIP3    H278246   3.436   6.731  14.086  0.2498  0.5301 -1.1626
18919TIP3   OH278247   4.230   4.847  13.265 -0.0555  0.3627  0.3661
18919TIP3    H178248   4.305   4.864  13.322  1.4084 -0.7535 -1.1334
18919TIP3    H278249   4.176   4.786  13.315 -0.5096  1.9164  1.8633
18920TIP3   OH278250   4.398   6.167   0.094  0.3640  0.5807  0.2095
18920TIP3    H178251   4.488   6.157   0.126 -0.7816 -0.8248  3.3944
18920TIP3    H278252   4.355   6.220   0.161 -1.6124 -0.2794 -0.3172
18921TIP3   OH278253   6.719   3.413  14.810  0.1097  0.0053 -0.1266
18921TIP3    H178254   6.714   3.494  14.761 -0.3840 -0.0006 -0.0867
18921TIP3    H278255   6.628   3.384  14.820  0.1402  0.3179  1.3052
18922TIP3   OH278256   3.262   1.055  14.109 -0.3531 -0.2580  0.4117
18922TIP3    H178257   3.251   1.150  14.115  3.1550  0.3083 -0.0338
18922TIP3    H278258   3.335   1.035  14.168 -0.6349 -2.5919  0.0668
18923TIP3   OH278259   3.035   2.217   4.151  0.0307 -0.1613 -0.2020
18923TIP3    H178260   2.982   2.249   4.078 -0.7642 -0.7950  0.0838
18923TIP3    H278261   3.122   2.254   4.136 -0.8241  2.1810  0.1367
18924TIP3   OH278262   5.522   5.906   2.543 -0.0032  0.2870  0.6111
18924TIP3    H178263   5.437   5.883   2.506  0.7234 -3.0154  0.6815
18924TIP3    H278264   5.503   5.976   2.606 -2.4646  0.4050 -0.1714
18925TIP3   OH278265   5.461   1.797   5.456  0.1774 -0.1596 -0.5532
18925TIP3    H178266   5.530   1.741   5.492 -0.6643 -1.4295 -0.8615
18925TIP3    H278267   5.479   1.883   5.494  1.9625 -0.4360 -0.6878
18926TIP3   OH278268   3.967   5.707  12.880  0.5564  0.2695 -0.5056
18926TIP3    H178269   3.946   5.796  12.907  0.5301  0.4741 -1.1799
18926TIP3    H278270   4.058   5.710  12.852  1.2208 -0.3991  1.4694
18927TIP3   OH278271   4.657   3.567   0.906 -0.2369 -0.3181 -0.1048
18927TIP3    H178272   4.686   3.491   0.955 -0.1011  0.4464  1.0367
18927TIP3    H278273   4.627   3.532   0.822 -1.9363 -1.8638  1.0792
18928TIP3   OH278274   6.125   1.625  12.244 -0.2971 -0.3817 -0.2496
18928TIP3    H178275   6.083   1.644  12.329  1.8241 -1.7664  1.1979
18928TIP3    H278276   6.051   1.619  12.183 -1.8749  1.1644  1.3645
18929TIP3   OH278277   4.006   4.275   3.924 -0.2785  0.4172 -0.5024
18929TIP3    H178278   3.987   4.297   4.015 -0.9289 -0.0761 -0.5127
18929TIP3    H278279   3.929   4.306   3.875 -1.4123 -2.1174 -0.4763
18930TIP3   OH278280   5.246   1.809   2.404 -0.7589 -0.2625 -0.2796
18930TIP3    H178281   5.258   1.753   2.481  0.9128 -1.0113 -1.0407
18930TIP3    H278282   5.282   1.759   2.331 -0.2619  1.3364 -1.1866
18931TIP3   OH278283   5.991   3.998   1.609 -0.1202  0.0600  0.4533
18931TIP3    H178284   6.024   4.060   1.544  0.4936  1.1012  1.7172
18931TIP3    H278285   6.011   3.912   1.572 -0.4210  0.6100 -1.0476
18932TIP3   OH278286   0.565   2.945   1.852 -0.5308  0.0164 -0.3329
18932TIP3    H178287   0.630   2.889   1.894 -0.0594  1.0961  0.4077
18932TIP3    H278288   0.498   2.959   1.918  0.2605  1.7992  0.1609
18933TIP3   OH278289   0.336   2.871   4.327 -0.3666  0.2108 -0.1319
18933TIP3    H178290   0.267   2.810   4.355  0.2979 -1.1703 -1.3283
18933TIP3    H278291   0.289   2.948   4.297 -1.3453 -0.3511 -0.0867
18934TIP3   OH278292   5.876   0.365   0.351  0.6524 -0.7538 -0.5387
18934TIP3    H178293   5.840   0.416   0.279  0.9736 -1.8472 -1.4997
18934TIP3    H278294   5.924   0.429   0.404 -1.2806  0.4428 -0.1245
18935TIP3   OH278295   2.243   7.116   0.691  0.1450  0.6284  0.4224
18935TIP3    H178296   2.187   7.146   0.620 -0.2213 -0.2200  0.3298
18935TIP3    H278297   2.328   7.099   0.650 -0.1535 -0.1586  0.1136
18936TIP3   OH278298   0.135   6.893   2.191  0.2178  0.0810 -0.0496
18936TIP3    H178299   0.086   6.957   2.242 -1.9222 -1.5074  0.0226
18936TIP3    H278300   0.109   6.909   2.100 -0.3092 -0.6666 -0.0335
18937TIP3   OH278301   2.793   6.754   2.797 -0.1991 -0.6373 -0.4552
18937TIP3    H178302   2.818   6.689   2.862 -0.3806 -0.4071 -0.1527
18937TIP3    H278303   2.872   6.806   2.783  0.0552 -1.1572 -0.9791
18938TIP3   OH278304   7.036   0.997   0.727  0.2280 -0.2071 -0.4067
18938TIP3    H178305   6.998   0.953   0.652  2.2422 -0.1530 -1.5132
18938TIP3    H278306   6.999   0.952   0.803  1.3364 -3.0968 -1.4629
18939TIP3   OH278307   6.441   0.351   5.604 -0.4441  0.4354  0.1084
18939TIP3    H178308   6.514   0.303   5.564 -1.0627 -0.5218  0.1135
18939TIP3    H278309   6.473   0.442   5.609  0.9111 -0.0256  0.4860
18940TIP3   OH278310   4.620   6.115   2.897  0.0459  0.3504 -0.5317
18940TIP3    H178311   4.568   6.132   2.975  0.3817  0.0386 -0.2356
18940TIP3    H278312   4.674   6.193   2.886  0.8825 -0.0948  0.2617
18941TIP3   OH278313   6.375   2.837  14.707 -0.2965 -0.2418 -0.1856
18941TIP3    H178314   6.310   2.782  14.751  0.9544 -1.0956  0.6655
18941TIP3    H278315   6.403   2.785  14.632  0.8382 -0.7767  0.5816
18942TIP3   OH278316   1.461   5.672   4.966 -0.3505 -0.1642  0.3645
18942TIP3    H178317   1.412   5.754   4.961 -0.3983 -0.1088  1.5157
18942TIP3    H278318   1.536   5.692   5.023  0.6029 -0.4601 -0.7286
18943TIP3   OH278319   4.817   4.951   0.964  0.3799  0.4471 -0.0145
18943TIP3    H178320   4.864   5.004   1.028  1.6323  1.0001 -1.3453
18943TIP3    H278321   4.725   4.961   0.989  0.7380  1.6059  0.9707
18944TIP3   OH278322   0.890   2.674  13.366  0.4540 -0.1640  0.4658
18944TIP3    H178323   0.948   2.641  13.435  1.5106 -0.0509 -0.3387
18944TIP3    H278324   0.937   2.655  13.284 -1.0665 -0.9105 -0.2762
18945TIP3   OH278325   2.939   2.720   2.083  0.5395  0.1352  0.1740
18945TIP3    H178326   2.997   2.689   2.014 -0.5519  1.3919 -1.3784
18945TIP3    H278327   2.962   2.812   2.095  1.1807 -0.2068  2.0389
18946TIP3   OH278328   4.012   1.501   4.997 -0.3092 -0.4111  0.2168
18946TIP3    H178329   3.918   1.515   4.982 -0.2365  1.2294  1.0539
18946TIP3    H278330   4.020   1.499   5.092  0.4715 -0.9327  0.1464
18947TIP3   OH278331   1.317   4.044   2.467 -0.5110 -0.0954 -0.0183
18947TIP3    H178332   1.383   4.036   2.536 -0.1841  0.2126 -0.2918
18947TIP3    H278333   1.266   4.121   2.492  0.0142  0.3997 -0.4573
18948TIP3   OH278334   5.034   6.713  14.389  0.0194  0.2476 -0.6585
18948TIP3    H178335   5.102   6.653  14.358  0.8076  0.6285  0.2884
18948TIP3    H278336   5.072   6.800  14.378 -0.4995  0.4939 -0.5315
18949TIP3   OH278337   5.981   3.888   0.642 -0.5299 -0.7988  0.3112
18949TIP3    H178338   5.949   3.923   0.725 -0.2048  0.0230  0.1003
18949TIP3    H278339   6.062   3.843   0.664 -0.6981 -1.0165  0.5055
18950TIP3   OH278340   2.118   6.509  13.191  0.1235 -0.1758  0.4994
18950TIP3    H178341   2.183   6.465  13.136 -0.3768  1.0990 -1.1616
18950TIP3    H278342   2.167   6.581  13.232 -0.4239  1.5457 -1.7012
18951TIP3   OH278343   4.521   3.018  14.884 -0.8618  0.3942  0.2414
18951TIP3    H178344   4.478   3.043  14.802 -2.1110  0.7603  0.9868
18951TIP3    H278345   4.482   3.075  14.950  0.5422  0.5002  1.0211
18952TIP3   OH278346   2.876   1.498  11.542  0.0711 -0.0222  0.7373
18952TIP3    H178347   2.904   1.409  11.524  2.0231  0.1315  2.6025
18952TIP3    H278348   2.805   1.515  11.479  1.3192 -1.9847 -1.3318
18953TIP3   OH278349   5.761   5.364   0.280 -0.4346 -0.1259 -0.0576
18953TIP3    H178350   5.810   5.444   0.261  1.9052 -1.7611 -1.4047
18953TIP3    H278351   5.672   5.382   0.248  0.4368  1.4095 -1.7751
18954TIP3   OH278352   5.918   0.610   2.980  0.5831  0.0337  0.1304
18954TIP3    H178353   5.960   0.655   3.053 -0.6001  1.8837 -0.2775
18954TIP3    H278354   5.967   0.637   2.903  0.6274 -0.3710  0.0130
18955TIP3   OH278355   3.859   1.140  13.353  0.2269  0.2799  0.0634
18955TIP3    H178356   3.882   1.150  13.445  1.4076  2.1852 -0.3963
18955TIP3    H278357   3.920   1.074  13.319  1.8107  1.7136  0.0046
18956TIP3   OH278358   0.707   1.067   2.670 -0.1079 -0.1539 -0.9992
18956TIP3    H178359   0.626   1.039   2.712 -0.5092  2.2076 -0.0643
18956TIP3    H278360   0.679   1.123   2.598  0.6323  2.5603  0.7103
18957TIP3   OH278361   1.246   5.578   1.888  0.3366 -0.1075 -0.3487
18957TIP3    H178362   1.227   5.517   1.817 -1.8314  0.8614 -0.6827
18957TIP3    H278363   1.301   5.646   1.848  2.6996 -1.6885  0.0067
18958TIP3   OH278364   2.477   1.350  10.816 -0.4836 -0.0456  0.1786
18958TIP3    H178365   2.406   1.304  10.772  0.2812  1.0146 -2.3827
18958TIP3    H278366   2.433   1.409  10.878 -1.7956  0.0102 -0.7701
18959TIP3   OH278367   2.289   6.428   2.770  0.0403 -0.1319 -0.1796
18959TIP3    H178368   2.361   6.396   2.824  0.4826 -0.0744 -0.7283
18959TIP3    H278369   2.285   6.522   2.787  0.9128  0.0906 -1.0718
18960TIP3   OH278370   6.876   3.579   5.224 -0.1631  0.0365  0.1392
18960TIP3    H178371   6.950   3.563   5.165  0.4571  2.1391  0.2947
18960TIP3    H278372   6.892   3.522   5.299 -0.2957 -1.7247 -1.1065
18961TIP3   OH278373   3.234   6.813  13.507  0.1494 -0.3902  0.3248
18961TIP3    H178374   3.286   6.867  13.447 -1.7774  0.0449 -1.0763
18961TIP3    H278375   3.208   6.737  13.455  0.3005 -1.1510  1.3339
18962TIP3   OH278376   5.367   1.703   3.233 -0.6820 -0.1801  0.2992
18962TIP3    H178377   5.410   1.626   3.271 -1.0146  0.5712  2.3398
18962TIP3    H278378   5.435   1.769   3.229 -0.0055 -0.9254 -2.8653
18963TIP3   OH278379   2.088   7.168  12.695  0.1571  0.2711 -0.8287
18963TIP3    H178380   2.031   7.235  12.733  1.1827  0.9818 -0.4769
18963TIP3    H278381   2.146   7.217  12.636  1.4793 -0.1660  0.0662
18964TIP3   OH278382   1.058   2.478   0.633  0.2191 -0.3758  0.0420
18964TIP3    H178383   1.004   2.513   0.703 -0.0795 -1.0946  0.1845
18964TIP3    H278384   1.119   2.418   0.677  0.6820 -0.0911 -0.1989
18965TIP3   OH278385   3.376   0.321  14.242 -0.5509  0.8948  0.1510
18965TIP3    H178386   3.467   0.300  14.263 -0.5603  0.2718 -0.4052
18965TIP3    H278387   3.382   0.380  14.168 -0.5921  1.0881  0.3018
18966TIP3   OH278388   6.560   6.602   3.869  0.3651  0.2581  0.4181
18966TIP3    H178389   6.493   6.653   3.824 -0.0707 -0.1531  0.5862
18966TIP3    H278390   6.559   6.517   3.823  1.2179  0.4548  0.0079
18967TIP3   OH278391   0.229   1.897   4.484 -0.2734 -0.5091  0.6023
18967TIP3    H178392   0.209   1.925   4.573  1.2508  0.5372  0.6408
18967TIP3    H278393   0.323   1.881   4.483 -0.0511  0.6413 -1.1119
18968TIP3   OH278394   2.128   6.020   1.779  0.2895 -0.2345 -0.0267
18968TIP3    H178395   2.174   5.937   1.786  0.2714 -0.3312 -0.9980
18968TIP3    H278396   2.040   6.001   1.811  0.8175 -0.1009  1.6187
18969TIP3   OH278397   7.031   6.261   0.275  0.4720  0.0883  0.4682
18969TIP3    H178398   7.069   6.347   0.253  0.8204 -0.4511 -1.1814
18969TIP3    H278399   6.944   6.281   0.308 -0.3701  1.0136 -2.0482
18970TIP3   OH278400   5.190   3.695   0.849  0.3912 -0.4056  0.0183
18970TIP3    H178401   5.254   3.626   0.830  0.0461 -0.3982 -1.2305
18970TIP3    H278402   5.231   3.775   0.815  0.9901  0.1105  1.8660
18971TIP3   OH278403   1.701   6.002   9.914 -0.0947 -0.1769 -0.5828
18971TIP3    H178404   1.718   5.920   9.867 -0.5588 -0.7935  0.2936
18971TIP3    H278405   1.776   6.013   9.972  0.0977  0.1757 -0.8889
18972TIP3   OH278406   7.108   2.667   4.370  0.4081 -0.0052  0.3654
18972TIP3    H178407   7.144   2.631   4.451  0.1917 -0.8496  0.0892
18972TIP3    H278408   7.015   2.643   4.372  0.7857 -1.8066 -1.0739
18973TIP3   OH278409   3.380   5.304   2.179 -0.2405  0.2036  0.0206
18973TIP3    H178410   3.429   5.232   2.217 -1.3993  0.1622  1.5736
18973TIP3    H278411   3.403   5.380   2.232 -1.1373  0.3682  0.1994
18974TIP3   OH278412   1.116   2.985   2.354  0.0856 -0.3788 -0.2762
18974TIP3    H178413   1.035   2.934   2.356  0.4610 -0.9488  0.3837
18974TIP3    H278414   1.151   2.979   2.443  2.0279 -2.0148 -1.0778
18975TIP3   OH278415   2.584   1.453   1.587 -0.2257  0.8621  0.0628
18975TIP3    H178416   2.586   1.366   1.549  2.0497  0.4138  1.0206
18975TIP3    H278417   2.625   1.509   1.520  1.1073  0.6032  0.6332
18976TIP3   OH278418   1.246   7.075   4.980  0.0549  0.1723 -0.2609
18976TIP3    H178419   1.265   7.139   5.048  1.7912  1.5481 -1.9011
18976TIP3    H278420   1.151   7.065   4.981 -0.1259  1.7378  0.9708
18977TIP3   OH278421   1.173   4.513  12.995  0.2658  0.1900  0.0746
18977TIP3    H178422   1.190   4.597  13.039  0.3607  0.3700 -0.2997
18977TIP3    H278423   1.254   4.464  13.002 -0.0718 -0.2426  1.0961
18978TIP3   OH278424   1.783   1.629   0.937 -0.1081 -0.3427  0.0574
18978TIP3    H178425   1.757   1.686   0.865  0.4699 -0.3730 -0.1837
18978TIP3    H278426   1.733   1.660   1.012 -0.7291 -0.3232 -0.3599
18979TIP3   OH278427   2.623   0.576   4.114 -0.0897  0.2986 -0.3084
18979TIP3    H178428   2.550   0.639   4.117 -0.8912 -0.6216  0.1542
18979TIP3    H278429   2.633   0.548   4.205  0.1670 -0.3457 -0.5348
18980TIP3   OH278430   1.105   1.166  11.992 -0.7664 -0.0520 -0.2733
18980TIP3    H178431   1.104   1.094  11.929  0.5297  1.8296 -2.5651
18980TIP3    H278432   1.031   1.221  11.966  0.4512  1.3257 -0.9350
18981TIP3   OH278433   6.005   0.767   0.150 -0.2300 -0.5279 -0.1145
18981TIP3    H178434   6.036   0.677   0.137 -0.2388 -0.6754  0.7710
18981TIP3    H278435   5.924   0.757   0.201  0.7704  0.0222  1.6950
18982TIP3   OH278436   5.960   0.043   3.094  0.0438  0.1819  0.1970
18982TIP3    H178437   5.908   0.111   3.051 -1.3354 -0.2144  1.1567
18982TIP3    H278438   5.895  -0.019   3.126  1.0741 -0.0351  1.9745
18983TIP3   OH278439   1.674   5.934   3.805  0.5128  0.2704  0.1994
18983TIP3    H178440   1.661   5.872   3.733  0.4101  0.9418 -0.3625
18983TIP3    H278441   1.749   5.899   3.854  0.4876 -0.2658 -0.1401
18984TIP3   OH278442   5.648   2.021  11.302 -0.0429 -0.0988 -0.0999
18984TIP3    H178443   5.671   1.989  11.215 -1.2503  0.4586 -0.6493
18984TIP3    H278444   5.579   1.962  11.331 -1.0906  0.9411 -0.4071
18985TIP3   OH278445   4.180   2.184   1.280  0.3782 -0.7372  0.0823
18985TIP3    H178446   4.230   2.190   1.361 -0.0704 -0.1172  0.3275
18985TIP3    H278447   4.223   2.245   1.221 -0.9989  1.0903  0.8245
18986TIP3   OH278448   5.614   3.905   3.597 -0.1194  0.0792 -0.6742
18986TIP3    H178449   5.616   3.929   3.689  0.7672 -0.7433 -0.4684
18986TIP3    H278450   5.527   3.933   3.567  0.0275  1.4353  0.1022
18987TIP3   OH278451   5.330   6.131   0.239  0.0979 -0.2508  0.4649
18987TIP3    H178452   5.255   6.156   0.185  1.7386  0.1486 -1.7864
18987TIP3    H278453   5.315   6.173   0.324 -0.8406  2.2395 -0.8554
18988TIP3   OH278454   1.615   3.046  10.047  0.9706 -0.0274  0.2152
18988TIP3    H178455   1.596   3.127  10.000 -3.7060 -1.0970 -0.1510
18988TIP3    H278456   1.627   3.074  10.138 -4.8524  1.1319  1.0140
18989TIP3   OH278457   4.059   3.180  12.390 -0.1563  0.3413 -0.9611
18989TIP3    H178458   3.972   3.140  12.392  0.6981 -1.6464  0.7655
18989TIP3    H278459   4.111   3.123  12.334  0.0976  1.4657 -1.9093
18990TIP3   OH278460   6.458   5.483   3.209  0.4272 -0.2469 -0.2113
18990TIP3    H178461   6.384   5.449   3.260  1.2279  0.6442  1.6579
18990TIP3    H278462   6.429   5.568   3.177 -0.0160 -0.7320 -1.1232
18991TIP3   OH278463   2.982   0.157   3.773 -0.6559  0.1974 -0.5724
18991TIP3    H178464   2.979   0.195   3.861  1.6420  0.3951 -0.5142
18991TIP3    H278465   2.961   0.230   3.715  1.4307  1.0566 -0.3372
18992TIP3   OH278466   5.262   2.804   4.933 -1.0623 -0.1164 -0.2793
18992TIP3    H178467   5.176   2.810   4.890 -1.4137 -0.4043  0.3625
18992TIP3    H278468   5.244   2.827   5.024  0.1452  3.3530 -0.7654
18993TIP3   OH278469   6.630   6.635   5.100 -0.1741 -0.1970  0.2143
18993TIP3    H178470   6.553   6.638   5.158  0.3193 -1.0460  0.9358
18993TIP3    H278471   6.606   6.690   5.026 -0.9693  0.6303  1.0582
18994TIP3   OH278472   3.847   2.224   3.080 -0.5434 -0.1495  0.6400
18994TIP3    H178473   3.897   2.155   3.123 -1.5388  0.1347  2.3326
18994TIP3    H278474   3.764   2.227   3.127 -0.4234  2.3827  0.8545
18995TIP3   OH278475   3.540   4.499   4.226  0.3297  0.1146  0.3827
18995TIP3    H178476   3.585   4.492   4.310 -1.5055  1.3567  1.5655
18995TIP3    H278477   3.568   4.422   4.177  2.1045 -0.2095  1.7968
18996TIP3   OH278478   0.965   5.796   5.145 -0.0332  0.8917 -0.0471
18996TIP3    H178479   0.980   5.834   5.232 -0.5755 -0.4420  0.6551
18996TIP3    H278480   0.872   5.809   5.129  0.1608  1.5848 -0.6689
18997TIP3   OH278481   3.538   6.828   4.423 -0.6761 -0.3421  0.0512
18997TIP3    H178482   3.532   6.812   4.517 -1.7678  1.3584  0.3052
18997TIP3    H278483   3.507   6.746   4.383 -1.3104 -0.6761  1.1750
18998TIP3   OH278484   0.256   4.227   5.907 -0.0855 -0.6501  0.0019
18998TIP3    H178485   0.188   4.268   5.854 -0.7980 -1.4199  0.2849
18998TIP3    H278486   0.207   4.176   5.972  0.7598 -1.4836  0.0039
18999TIP3   OH278487   2.556   3.978   2.805  0.4237 -0.4567 -0.6201
18999TIP3    H178488   2.526   4.044   2.742  0.4220 -0.5612 -0.7291
18999TIP3    H278489   2.551   3.896   2.757 -1.4216 -0.8159  0.1134
19000TIP3   OH278490   5.652   0.417   2.528  0.0258  0.5731 -0.1311
19000TIP3    H178491   5.568   0.423   2.574 -0.1344  1.5097 -0.5144
19000TIP3    H278492   5.687   0.507   2.529  0.0652  0.6187 -1.7198
19001TIP3   OH278493   2.495   5.126   2.426 -0.0759 -0.4026 -0.2583
19001TIP3    H178494   2.472   5.120   2.519  1.0251 -0.7434  0.0067
19001TIP3    H278495   2.466   5.213   2.399 -0.9062 -0.5124  0.2585
19002TIP3   OH278496   6.580   1.999   3.531 -0.8517 -0.6956 -0.2716
19002TIP3    H178497   6.629   2.065   3.482  0.4327 -0.4463  1.2741
19002TIP3    H278498   6.640   1.925   3.539 -0.2111  0.0323  2.5977
19003TIP3   OH278499   4.096   6.963  13.706  0.2061  0.2514  0.4552
19003TIP3    H178500   4.153   6.886  13.714  0.6609  0.5229 -0.0746
19003TIP3    H278501   4.126   7.006  13.626 -0.5854  0.5403  0.3048
19004TIP3   OH278502   4.157   6.315   4.257 -0.3910  0.1021 -0.2473
19004TIP3    H178503   4.204   6.291   4.336 -2.2365  1.7721  1.4817
19004TIP3    H278504   4.098   6.241   4.241 -0.0572 -0.2124 -0.0386
19005TIP3   OH278505   4.377   4.816   5.041 -0.6017 -0.3277  0.0001
19005TIP3    H178506   4.418   4.731   5.056  0.8218  0.3020 -0.0904
19005TIP3    H278507   4.404   4.869   5.116  0.0375  0.5502 -0.8228
19006TIP3   OH278508   5.260   1.224   4.873  0.0414  0.8242  0.1148
19006TIP3    H178509   5.343   1.179   4.857 -0.8781 -1.3752  0.9970
19006TIP3    H278510   5.225   1.241   4.785  0.7694  0.4635 -0.2554
19007TIP3   OH278511   1.600   4.110   4.464 -0.4417 -0.8248 -0.6205
19007TIP3    H178512   1.573   4.134   4.553  2.1184 -0.7143  0.2317
19007TIP3    H278513   1.529   4.140   4.408 -1.1070  1.2732  1.1762
19008TIP3   OH278514   1.865   4.014   0.452  0.0997 -0.0972  0.2290
19008TIP3    H178515   1.875   3.930   0.407 -0.1814 -0.3095  0.5588
19008TIP3    H278516   1.934   4.069   0.416 -0.2760 -0.1852 -0.6459
19009TIP3   OH278517   0.764   3.839  10.052  0.0123 -0.6183  0.1852
19009TIP3    H178518   0.764   3.856   9.958  1.8631 -3.3086 -0.3968
19009TIP3    H278519   0.852   3.863  10.082 -0.1899 -0.8711  1.0177
19010TIP3   OH278520   4.951   0.307   5.054  0.2903  0.0174 -0.3803
19010TIP3    H178521   4.885   0.238   5.053  1.8422 -1.5389 -0.7972
19010TIP3    H278522   4.922   0.369   4.987 -0.4691 -0.8968 -0.9145
19011TIP3   OH278523   0.594   1.144   2.950  0.0855  0.3549 -0.2274
19011TIP3    H178524   0.669   1.160   3.008  1.0211  0.0216 -1.2852
19011TIP3    H278525   0.586   1.224   2.898  0.9868 -0.3083 -1.4521
19012TIP3   OH278526   6.234   5.585   0.900  0.0024 -0.1311 -0.5034
19012TIP3    H178527   6.210   5.669   0.861 -1.0043 -0.6239 -0.9944
19012TIP3    H278528   6.229   5.600   0.995 -0.6857  0.2196 -0.5908
19013TIP3   OH278529   6.054   7.094  14.729 -0.4070 -0.2736 -0.0304
19013TIP3    H178530   5.967   7.133  14.717  0.0066  1.2419  1.4051
19013TIP3    H278531   6.041   7.028  14.797 -0.5785 -0.5594 -0.3435
19014TIP3   OH278532   0.934   6.562   5.665  0.1741  0.7525  0.0769
19014TIP3    H178533   1.003   6.564   5.731  0.7197  1.6243 -0.5118
19014TIP3    H278534   0.896   6.649   5.667 -1.4239  0.0805  0.9066
19015TIP3   OH278535   5.873   3.029   0.426  0.8404  0.1563  0.0135
19015TIP3    H178536   5.943   3.037   0.361  1.0444  1.7921  0.3912
19015TIP3    H278537   5.920   3.012   0.508  0.7595  0.6381  0.1608
19016TIP3   OH278538   4.598   0.085   0.279 -0.0063  0.1452  0.1511
19016TIP3    H178539   4.512   0.048   0.261  0.7554 -0.2899 -3.2124
19016TIP3    H278540   4.648   0.013   0.316 -0.6780  0.0136  0.8237
19017TIP3   OH278541   4.076   5.833   5.939 -1.1125  0.2150 -0.2851
19017TIP3    H178542   4.069   5.737   5.938  1.5107 -0.1499  1.8877
19017TIP3    H278543   3.986   5.863   5.947 -1.9987 -2.0812 -0.6328
19018TIP3   OH278544   0.251   0.687   0.216 -0.0029  0.0880  0.0274
19018TIP3    H178545   0.242   0.604   0.264 -0.3893  0.7255  1.0990
19018TIP3    H278546   0.197   0.675   0.138 -1.0452 -0.2432  0.7751
19019TIP3   OH278547   0.247   1.222   2.424 -0.0587  0.3141 -0.1219
19019TIP3    H178548   0.310   1.267   2.481 -0.1939  2.2958 -1.4316
19019TIP3    H278549   0.254   1.267   2.340 -1.7382 -0.7981 -0.9218
19020TIP3   OH278550   4.314   4.341   5.705 -0.0852 -0.5001 -0.2021
19020TIP3    H178551   4.309   4.328   5.611  1.4433 -0.1969 -0.3514
19020TIP3    H278552   4.265   4.267   5.742 -0.5229 -0.7332 -1.2210
19021TIP3   OH278553   1.435   4.731   5.482  0.0953  0.6912 -0.1321
19021TIP3    H178554   1.444   4.712   5.575 -0.8591 -0.1997 -0.2012
19021TIP3    H278555   1.464   4.651   5.438 -2.0726  0.0374 -0.4872
19022TIP3   OH278556   1.556   3.662   1.691 -0.1134 -0.7267  0.2270
19022TIP3    H178557   1.506   3.669   1.610 -1.8592 -1.1610  1.2104
19022TIP3    H278558   1.562   3.752   1.724  1.5266 -0.3910 -0.8570
19023TIP3   OH278559   1.910   2.865   5.022  0.2877  0.0004 -0.4936
19023TIP3    H178560   1.947   2.944   4.982 -1.3041  1.1546  0.1961
19023TIP3    H278561   1.823   2.892   5.052  0.1182 -1.7442  0.7309
19024TIP3   OH278562   6.594   7.067   3.033  0.1795 -0.2690  0.4341
19024TIP3    H178563   6.640   6.996   2.986 -0.3657  0.5627 -1.4607
19024TIP3    H278564   6.530   7.022   3.088 -0.3125 -1.2818 -0.9016
19025TIP3   OH278565   2.608   4.727   3.900 -0.4508  0.1032  0.0831
19025TIP3    H178566   2.542   4.752   3.835 -1.4378 -0.5068  0.8278
19025TIP3    H278567   2.685   4.779   3.877 -0.3857 -0.9127 -2.2616
19026TIP3   OH278568   6.444   3.375  11.089 -0.0814 -0.0266 -0.0966
19026TIP3    H178569   6.449   3.431  11.167 -0.4375 -1.0233  0.6568
19026TIP3    H278570   6.483   3.428  11.020  1.4086  0.4057  1.0189
19027TIP3   OH278571   6.283   0.670   0.183  0.5347  0.1354  0.1819
19027TIP3    H178572   6.329   0.693   0.263  0.0744  0.9796  0.2182
19027TIP3    H278573   6.269   0.576   0.189  4.1017 -0.5976 -0.8023
19028TIP3   OH278574   2.357   1.667   2.432 -0.5649 -0.0389  0.1984
19028TIP3    H178575   2.308   1.746   2.457 -1.3458 -0.4335 -0.0588
19028TIP3    H278576   2.407   1.644   2.510 -0.7288  0.4189  0.4412
19029TIP3   OH278577   4.926   0.704   5.195 -0.1955 -0.3214  0.0937
19029TIP3    H178578   4.970   0.789   5.197 -1.1318  0.2903 -2.2152
19029TIP3    H278579   4.840   0.721   5.232 -0.5779 -0.1115 -0.8689
19030TIP3   OH278580   2.334   4.416   5.338 -0.3573  0.1881  0.5911
19030TIP3    H178581   2.347   4.442   5.247 -0.2893  1.0181  0.8274
19030TIP3    H278582   2.376   4.330   5.345  1.6093  1.0712  0.3664
19031TIP3   OH278583   5.528   0.268   2.162  0.9693 -0.0565  0.1638
19031TIP3    H178584   5.441   0.277   2.122  0.5590 -0.1965  0.9869
19031TIP3    H278585   5.587   0.253   2.089  0.8509  3.4245 -0.8331
19032TIP3   OH278586   3.642   0.255  14.433 -0.1113 -0.1892  0.1802
19032TIP3    H178587   3.557   0.265  14.475  0.0588  0.8354  0.3117
19032TIP3    H278588   3.676   0.344  14.427  0.3306 -0.4348 -1.1832
19033TIP3   OH278589   6.378   1.774   2.142 -0.3028 -0.2391  0.3148
19033TIP3    H178590   6.309   1.756   2.079 -1.0359 -1.0183  1.3103
19033TIP3    H278591   6.443   1.705   2.127 -0.4901 -0.4411  0.4291
19034TIP3   OH278592   4.788   6.104   1.175  0.4444  0.0102 -0.0838
19034TIP3    H178593   4.752   6.132   1.259  1.1241  0.1360  0.1745
19034TIP3    H278594   4.856   6.040   1.198  0.3426 -0.2747 -0.5612
19035TIP3   OH278595   0.405   0.451  15.086  0.0886 -0.2763 -0.8876
19035TIP3    H178596   0.332   0.507  15.114  2.3875  1.9342  1.1603
19035TIP3    H278597   0.434   0.488  15.003  1.1172  1.2619  0.0913
19036TIP3   OH278598   5.897   1.307   2.795  0.1621 -0.1508 -0.5422
19036TIP3    H178599   5.934   1.221   2.775 -0.5059 -0.4801 -0.3942
19036TIP3    H278600   5.972   1.361   2.818  0.5590 -0.7683 -0.3783
19037TIP3   OH278601   1.301   5.229  15.310 -0.2588 -0.5299  0.1305
19037TIP3    H178602   1.350   5.170  15.254 -0.0470 -0.5923  0.3810
19037TIP3    H278603   1.209   5.208  15.293 -0.2139 -0.1355 -0.6385
19038TIP3   OH278604   6.863   0.564   1.939  0.0374  0.2399 -0.6900
19038TIP3    H178605   6.769   0.583   1.940 -0.0427  0.0032  1.8985
19038TIP3    H278606   6.870   0.471   1.956  0.7520 -0.2818 -3.3226
19039TIP3   OH278607   4.448   1.482   4.581  0.3197 -0.1345  0.0232
19039TIP3    H178608   4.426   1.397   4.618 -1.4959  1.4518  3.0092
19039TIP3    H278609   4.364   1.518   4.551  0.8993  0.9711 -0.3387
19040TIP3   OH278610   2.648   5.450   4.406 -0.2390 -0.2302 -0.1693
19040TIP3    H178611   2.635   5.484   4.495  0.4337 -0.3634 -0.0103
19040TIP3    H278612   2.600   5.368   4.405  1.7753 -1.5044  0.9093
19041TIP3   OH278613   4.511   7.195   3.275  0.2921  0.4564 -0.1659
19041TIP3    H178614   4.499   7.172   3.367 -1.3847  1.5763 -0.0590
19041TIP3    H278615   4.501   7.290   3.272  1.3731  0.5673 -1.3726
19042TIP3   OH278616   2.426   6.535   2.483 -0.5366  0.4178  1.0710
19042TIP3    H178617   2.474   6.477   2.541  0.0347 -0.0196  0.1781
19042TIP3    H278618   2.350   6.485   2.455  0.2766 -0.1929 -0.1965
19043TIP3   OH278619   6.453   6.365  11.195 -0.5639 -0.4408  0.0084
19043TIP3    H178620   6.445   6.271  11.213 -1.5807 -0.1752  1.0189
19043TIP3    H278621   6.470   6.404  11.280  1.4456  0.1711 -0.5995
19044TIP3   OH278622   5.766   4.646   0.413 -0.0463  0.0929  0.1518
19044TIP3    H178623   5.699   4.645   0.480 -1.2710  1.1150 -0.9981
19044TIP3    H278624   5.766   4.736   0.380 -1.5302 -0.9497 -3.1492
19045TIP3   OH278625   5.832   7.214  14.977  0.0816 -0.3509 -0.3743
19045TIP3    H178626   5.849   7.228  14.884  0.7587 -0.9704 -0.3493
19045TIP3    H278627   5.808   7.301  15.010 -1.0323 -0.2776 -1.2890
19046TIP3   OH278628   0.312   6.034   1.580 -0.4771  0.1188 -0.1382
19046TIP3    H178629   0.267   5.985   1.511 -0.3669  1.8395 -1.4966
19046TIP3    H278630   0.381   5.975   1.610 -1.2773 -1.1218 -0.6424
19047TIP3   OH278631   1.851   6.814   2.548 -0.0142 -0.6796 -0.1797
19047TIP3    H178632   1.913   6.749   2.515  0.0479 -0.9484  0.4395
19047TIP3    H278633   1.905   6.888   2.574 -0.1096 -0.2543 -1.1450
19048TIP3   OH278634   1.336   0.574   4.299  0.6173  0.1037 -0.7805
19048TIP3    H178635   1.373   0.614   4.378  0.5476  1.9607 -1.6547
19048TIP3    H278636   1.405   0.584   4.233  0.6822 -1.4481 -0.9831
19049TIP3   OH278637   6.536   5.002   1.488 -0.9903 -0.4101 -0.3750
19049TIP3    H178638   6.554   4.947   1.564 -1.6428  0.6850  0.6214
19049TIP3    H278639   6.603   4.978   1.424  0.0417 -0.8546  0.8276
19050TIP3   OH278640   5.525   5.881   5.523 -0.2584 -1.1517 -0.5094
19050TIP3    H178641   5.610   5.838   5.514 -0.9268 -2.5925 -0.2440
19050TIP3    H278642   5.484   5.838   5.597 -0.4654  0.8873  0.6264
19051TIP3   OH278643   1.311   1.217   4.404 -0.3300 -0.0497  0.2663
19051TIP3    H178644   1.221   1.184   4.393 -0.3964  0.1270  0.2717
19051TIP3    H278645   1.345   1.224   4.315  0.3039 -1.8075  0.3245
19052TIP3   OH278646   3.683   7.163  15.054 -0.0370  0.4353  0.1114
19052TIP3    H178647   3.729   7.156  14.970 -0.1227  0.2620  0.0790
19052TIP3    H278648   3.612   7.100  15.048  1.5854 -1.6358  1.3760
19053TIP3   OH278649   2.791   2.086   1.861  0.1382 -0.1177  0.0562
19053TIP3    H178650   2.854   2.099   1.932  0.6422  1.6954 -0.6743
19053TIP3    H278651   2.806   2.160   1.802  0.7734 -2.3055 -2.7240
19054TIP3   OH278652   0.973   4.724   4.548 -0.1299  0.0412 -0.2325
19054TIP3    H178653   1.023   4.805   4.536  0.7963 -0.5025 -0.2079
19054TIP3    H278654   1.008   4.665   4.481 -0.7594 -0.3493 -0.2172
19055TIP3   OH278655   3.497   4.025   2.492 -0.1396 -0.2860 -0.8944
19055TIP3    H178656   3.539   4.105   2.523 -0.5048 -0.7678  0.9304
19055TIP3    H278657   3.516   3.960   2.560 -0.3025 -1.6215 -2.0811
19056TIP3   OH278658   3.715   2.606   3.595 -0.1980  0.3994  0.4426
19056TIP3    H178659   3.736   2.632   3.505  1.0671  0.1043  0.6362
19056TIP3    H278660   3.739   2.514   3.599 -1.2204  0.1399  0.8002
19057TIP3   OH278661   0.798   6.729  13.980 -0.3926  0.2626 -0.2516
19057TIP3    H178662   0.739   6.801  13.959  0.7025  1.1035 -0.5798
19057TIP3    H278663   0.807   6.680  13.898  0.8193  1.2491 -0.7373
19058TIP3   OH278664   5.677   5.811  13.682 -0.0355  0.4469 -0.6186
19058TIP3    H178665   5.630   5.817  13.598  0.3911  1.6260 -0.7901
19058TIP3    H278666   5.617   5.850  13.746 -0.3394 -0.4063 -0.3709
19059TIP3   OH278667   1.270   0.167  10.332  0.0556 -0.2189 -0.0482
19059TIP3    H178668   1.239   0.201  10.248  2.3846  0.5595 -0.6729
19059TIP3    H278669   1.213   0.092  10.350 -2.4407  1.3516 -0.7968
19060TIP3   OH278670   5.693   4.491   4.227  0.2154 -0.0688 -0.7424
19060TIP3    H178671   5.615   4.537   4.258  0.5126  0.1593 -0.3240
19060TIP3    H278672   5.766   4.549   4.250  0.4335  0.1907 -2.0258
19061TIP3   OH278673   0.950   0.401   1.646 -0.5557  0.0275 -0.1572
19061TIP3    H178674   0.951   0.405   1.550 -0.6445 -1.0568 -0.2178
19061TIP3    H278675   0.902   0.321   1.666  0.7100 -0.5317  0.7672
19062TIP3   OH278676   6.940   6.274   5.290 -0.1871 -0.2124 -0.2179
19062TIP3    H178677   6.981   6.219   5.357 -0.4635 -0.0177  0.1111
19062TIP3    H278678   6.938   6.219   5.212 -0.9661 -0.8741  0.2490
19063TIP3   OH278679   3.345   3.225   3.778 -0.2483 -0.6663  0.8188
19063TIP3    H178680   3.294   3.145   3.779  0.3677 -1.0685  1.3252
19063TIP3    H278681   3.434   3.197   3.800  0.4348 -0.1450 -1.0740
19064TIP3   OH278682   3.635   3.405  14.781 -0.0951  0.3646  0.1910
19064TIP3    H178683   3.647   3.333  14.720 -0.7587  1.3253 -1.1174
19064TIP3    H278684   3.568   3.374  14.843 -0.8625  0.0931 -0.7566
19065TIP3   OH278685   0.636   1.301   1.912 -0.5447 -0.4387 -0.0580
19065TIP3    H178686   0.639   1.371   1.846  1.1404  0.3314  0.7591
19065TIP3    H278687   0.571   1.331   1.975 -0.8137 -0.2773 -0.4068
19066TIP3   OH278688   2.129   4.057  11.269 -0.0105 -0.2534  0.0658
19066TIP3    H178689   2.211   4.077  11.223  0.2688  0.2803  0.7758
19066TIP3    H278690   2.061   4.091  11.211  0.2691 -0.7196 -0.5397
19067TIP3   OH278691   1.707   2.668  14.347  0.2887  0.6030  0.2896
19067TIP3    H178692   1.788   2.710  14.376  0.4527  2.9536 -3.0020
19067TIP3    H278693   1.637   2.715  14.391  0.5595 -1.3042  2.9874
19068TIP3   OH278694   0.841   4.387   2.401 -0.1323 -0.5590  0.7162
19068TIP3    H178695   0.779   4.388   2.473 -2.3222  0.9134 -1.0618
19068TIP3    H278696   0.888   4.471   2.408 -1.2500  0.1771 -0.2346
19069TIP3   OH278697   4.488   0.458   2.198 -0.1760 -0.1996 -0.2478
19069TIP3    H178698   4.533   0.434   2.279  1.5104  2.1969 -0.3641
19069TIP3    H278699   4.479   0.375   2.150 -0.9714 -1.6297  2.2060
19070TIP3   OH278700   5.528   1.236  12.269 -0.0373 -0.3277  0.1513
19070TIP3    H178701   5.545   1.216  12.361  2.3469  2.3797  0.4391
19070TIP3    H278702   5.611   1.219  12.225 -0.7184 -0.1939 -1.2323
19071TIP3   OH278703   4.205   0.612   5.258 -0.0910  0.7126 -0.2402
19071TIP3    H178704   4.279   0.664   5.288 -0.9770  3.1676 -1.9675
19071TIP3    H278705   4.144   0.613   5.332  0.4782  0.9430  0.2363
19072TIP3   OH278706   4.169   5.201   1.003  0.2055 -0.3346  0.6836
19072TIP3    H178707   4.183   5.208   1.097  0.5399  1.1260  0.5503
19072TIP3    H278708   4.257   5.197   0.966  0.1865  1.9956  0.2738
19073TIP3   OH278709   5.048   0.664   4.026  0.2506  0.8491 -1.1000
19073TIP3    H178710   5.113   0.605   3.986  1.0096  0.8143  0.1355
19073TIP3    H278711   4.966   0.642   3.982  0.6160 -0.7995 -1.0200
19074TIP3   OH278712   6.247   3.078   3.118 -0.4693 -0.3743 -0.3904
19074TIP3    H178713   6.223   3.162   3.078 -0.0934  0.4309  0.9948
19074TIP3    H278714   6.197   3.075   3.200  1.5836 -0.1550  0.9693
19075TIP3   OH278715   2.418   1.422   3.234  0.7150 -0.0272 -0.1939
19075TIP3    H178716   2.337   1.415   3.184  0.1883 -0.5307  0.7104
19075TIP3    H278717   2.440   1.332   3.258  1.2594  0.1548  0.0234
19076TIP3   OH278718   7.254   3.136   3.456  0.1526 -0.1840 -0.1394
19076TIP3    H178719   7.312   3.183   3.517  1.6353 -0.7641 -1.0517
19076TIP3    H278720   7.250   3.047   3.491 -1.2134  0.1313  0.5902
19077TIP3   OH278721   2.366   4.542  14.926  0.7767  0.0381  0.3514
19077TIP3    H178722   2.276   4.553  14.955 -0.3557  3.6194 -3.5262
19077TIP3    H278723   2.374   4.449  14.906 -2.7198 -0.1609 -0.7887
19078TIP3   OH278724   2.504   4.861  15.271  0.0184  0.4330  0.1012
19078TIP3    H178725   2.462   4.905  15.345  0.9571  1.2628  0.1617
19078TIP3    H278726   2.431   4.826  15.219 -0.8296  2.6940 -0.3341
19079TIP3   OH278727   5.386   4.624   1.055  0.0084 -0.8656  0.3261
19079TIP3    H178728   5.330   4.684   1.007 -1.3142 -0.6907  1.9948
19079TIP3    H278729   5.353   4.537   1.033 -0.3998 -0.7995  0.6613
19080TIP3   OH278730   6.819   1.176  14.313  0.6565 -0.0190 -0.2598
19080TIP3    H178731   6.870   1.241  14.265 -1.2300 -0.8204 -3.6448
19080TIP3    H278732   6.750   1.226  14.357  0.4168  0.4809 -1.1773
19081TIP3   OH278733   1.874   1.631   0.594  0.0722 -0.0431  0.2246
19081TIP3    H178734   1.932   1.691   0.640 -0.7294  1.6775 -0.8865
19081TIP3    H278735   1.800   1.619   0.654  0.7061 -0.7975  0.8821
19082TIP3   OH278736   5.468   5.696  14.442 -0.1454 -0.1230 -0.0176
19082TIP3    H178737   5.484   5.769  14.383  1.8860  0.5996  1.3060
19082TIP3    H278738   5.380   5.666  14.420 -0.2026  1.3318 -2.0490
19083TIP3   OH278739   0.246   4.145   3.821 -0.4638  0.4263 -0.1601
19083TIP3    H178740   0.277   4.106   3.903 -1.0843  0.3098  0.0217
19083TIP3    H278741   0.166   4.191   3.844  0.2702  1.8682 -0.3665
19084TIP3   OH278742   0.117   7.100  13.824  0.4561 -0.5118  0.2112
19084TIP3    H178743   0.152   7.149  13.899 -0.6520 -0.3249  0.6138
19084TIP3    H278744   0.071   7.026  13.863 -0.9619  0.1120 -0.2146
19085TIP3   OH278745   4.393   2.089   2.691 -0.1711 -0.3115  0.3814
19085TIP3    H178746   4.311   2.039   2.686 -1.8246  2.1014  1.2229
19085TIP3    H278747   4.397   2.137   2.608  1.3446 -1.6544 -0.3805
19086TIP3   OH278748   1.828   5.061  11.912 -0.0982  0.2910 -0.0251
19086TIP3    H178749   1.772   5.139  11.911  0.8333  0.9846 -1.6576
19086TIP3    H278750   1.900   5.082  11.853  0.8127 -1.3700  0.4259
19087TIP3   OH278751   3.497   1.038   4.882  0.4667 -0.1857  1.1282
19087TIP3    H178752   3.547   1.078   4.810 -0.6607  0.5182  0.6950
19087TIP3    H278753   3.517   0.945   4.876  0.4462 -0.1313 -0.0716
19088TIP3   OH278754   3.683   3.243  14.568  0.4738 -0.4299  0.3104
19088TIP3    H178755   3.773   3.252  14.537  0.5595 -0.8032  0.4495
19088TIP3    H278756   3.643   3.181  14.507 -0.4797  1.7383 -1.4222
19089TIP3   OH278757   1.701   1.818   0.264  0.6368  0.2515 -0.5958
19089TIP3    H178758   1.632   1.873   0.301  0.9838  1.0470 -1.1098
19089TIP3    H278759   1.681   1.813   0.171  1.1773  0.3626 -0.7236
19090TIP3   OH278760   2.405   1.109   3.625  0.5508 -0.1784  0.9937
19090TIP3    H178761   2.492   1.071   3.641  0.5469  0.1039  1.7209
19090TIP3    H278762   2.354   1.037   3.590  1.2748 -0.1735 -0.1372
19091TIP3   OH278763   5.862   7.150   3.925 -0.1260 -0.1534  0.2720
19091TIP3    H178764   5.873   7.139   4.019  2.1951  0.7849  0.1686
19091TIP3    H278765   5.806   7.227   3.916 -1.1805 -0.8266  0.8524
19092TIP3   OH278766   1.207   6.930  11.539 -0.0446 -0.1496  1.0538
19092TIP3    H178767   1.119   6.948  11.505  0.3742  0.5250  0.2917
19092TIP3    H278768   1.199   6.946  11.634 -0.5115  0.8584  0.8575
19093TIP3   OH278769   2.157   4.341   3.344 -0.3717 -0.3920 -0.4423
19093TIP3    H178770   2.247   4.309   3.330 -0.2331  0.8450 -2.9465
19093TIP3    H278771   2.102   4.272   3.307 -0.2933  0.0798 -1.4691
19094TIP3   OH278772   1.000   6.461  13.935 -0.0495 -0.0628  0.6686
19094TIP3    H178773   0.923   6.415  13.968 -0.0329 -0.3717  0.2816
19094TIP3    H278774   0.969   6.504  13.855 -0.1025  0.7168  1.0882
19095TIP3   OH278775   7.230   3.397   1.013  0.2773 -0.6246  0.3434
19095TIP3    H178776   7.325   3.407   1.013  0.2461  0.0779  2.2356
19095TIP3    H278777   7.203   3.422   0.925  1.7279  0.5720  0.2009
19096TIP3   OH278778   0.217   7.143  11.331 -0.6335 -0.4062  0.2870
19096TIP3    H178779   0.135   7.190  11.347  0.5045  1.0884  2.1004
19096TIP3    H278780   0.256   7.187  11.255  0.0422  1.1299  1.4855
19097TIP3   OH278781   4.264   2.675  13.621 -0.4893 -0.4095  0.1498
19097TIP3    H178782   4.168   2.673  13.630 -0.5600 -0.8262 -0.6054
19097TIP3    H278783   4.283   2.761  13.584 -0.4810  0.0280  1.1300
19098TIP3   OH278784   3.040   5.993  15.125  0.0710 -0.1711  0.7533
19098TIP3    H178785   2.952   6.023  15.101 -0.1084 -1.0154  0.2938
19098TIP3    H278786   3.090   6.073  15.139 -0.3711  0.3502 -0.4940
19099TIP3   OH278787   3.946   1.402  12.592  0.2411  0.0893 -0.7499
19099TIP3    H178788   3.892   1.473  12.556 -2.1246 -0.3917  1.5869
19099TIP3    H278789   3.966   1.347  12.516 -2.6021  0.3302 -1.8044
19100TIP3   OH278790   6.782   5.907   3.611 -0.4879 -0.3018  0.6666
19100TIP3    H178791   6.832   5.982   3.578  0.4313 -1.6235 -1.1300
19100TIP3    H278792   6.698   5.944   3.637  0.4358  1.5628  1.1653
19101TIP3   OH278793   0.170   6.448   4.192  0.0096  0.1499  0.0234
19101TIP3    H178794   0.246   6.423   4.140  0.7575 -0.8786  1.5330
19101TIP3    H278795   0.173   6.391   4.269 -3.0062 -0.8132 -0.4206
19102TIP3   OH278796   5.836   6.939   5.082  0.6397  0.3015 -0.4361
19102TIP3    H178797   5.810   7.013   5.028 -1.9886 -0.3052 -0.1482
19102TIP3    H278798   5.841   6.865   5.021 -2.0330 -0.3214  0.0090
19103TIP3   OH278799   2.186   6.714   2.703 -0.2288  0.2335  0.6107
19103TIP3    H178800   2.218   6.768   2.775  1.3811 -0.4352  0.4388
19103TIP3    H278801   2.104   6.678   2.734 -1.5452  2.9811  0.6272
19104TIP3   OH278802   6.181   4.796  13.735 -0.4022 -0.7345 -0.1302
19104TIP3    H178803   6.123   4.729  13.699 -0.5713 -0.4095 -0.4700
19104TIP3    H278804   6.248   4.808  13.668 -1.9565  1.5059 -1.4521
19105TIP3   OH278805   2.625   5.287   1.742  0.5549 -0.3353 -0.4555
19105TIP3    H178806   2.695   5.336   1.786 -0.9873  0.9839  0.6510
19105TIP3    H278807   2.594   5.225   1.807  1.4591 -1.7750 -1.3470
19106TIP3   OH278808   3.979   3.964   4.141  0.0861  0.0372  0.0198
19106TIP3    H178809   3.938   3.976   4.227  0.8365  0.8558  0.2794
19106TIP3    H278810   3.905   3.954   4.080 -0.4906  0.7694  0.5824
19107TIP3   OH278811   5.454   3.545   2.063  0.2601 -0.0325 -0.4721
19107TIP3    H178812   5.539   3.589   2.067 -0.6273  1.6985  1.3662
19107TIP3    H278813   5.391   3.617   2.056 -1.1491 -1.1543  0.2704
19108TIP3   OH278814   6.036   3.037   4.427 -0.0126 -0.3724  0.0978
19108TIP3    H178815   6.005   3.127   4.418 -1.5313 -0.5816  2.3298
19108TIP3    H278816   6.020   3.016   4.519 -0.6184 -3.2487 -0.5847
19109TIP3   OH278817   3.182   0.386   4.329 -1.0842  0.3021 -0.2835
19109TIP3    H178818   3.210   0.443   4.257 -1.2047  0.2216 -0.3946
19109TIP3    H278819   3.140   0.445   4.392 -2.2727  0.1739 -0.9400
19110TIP3   OH278820   5.609   6.254   3.270  0.4041 -0.1139  0.1635
19110TIP3    H178821   5.649   6.178   3.227 -0.1007 -0.5018  0.3675
19110TIP3    H278822   5.545   6.287   3.207  0.0622 -0.3404  0.3912
19111TIP3   OH278823   6.622   5.907  12.615 -0.1595 -0.4190 -0.0698
19111TIP3    H178824   6.580   5.822  12.629  0.5894 -0.7452  0.2180
19111TIP3    H278825   6.570   5.948  12.546 -1.1086 -0.7097  0.4527
19112TIP3   OH278826   1.844   1.398   2.108  0.2042 -0.3478 -0.0315
19112TIP3    H178827   1.818   1.339   2.037 -0.9965 -1.1474  1.0563
19112TIP3    H278828   1.811   1.357   2.188 -0.2372  1.5369  0.8080
19113TIP3   OH278829   4.865   0.279   1.915  0.0764 -0.4915 -0.1131
19113TIP3    H178830   4.780   0.240   1.897 -0.8792  1.8977 -1.1932
19113TIP3    H278831   4.859   0.308   2.006  0.5149 -2.0872  0.4503
19114TIP3   OH278832   6.605   2.466   3.648  0.0220  0.2927 -0.6241
19114TIP3    H178833   6.572   2.513   3.571 -0.2694  0.6119 -0.3070
19114TIP3    H278834   6.645   2.534   3.702 -2.3018  0.5927  0.8799
19115TIP3   OH278835   0.124   1.099   2.932 -0.1857  0.2479 -0.5760
19115TIP3    H178836   0.158   1.085   2.844  0.1547 -2.5947 -0.0746
19115TIP3    H278837   0.030   1.086   2.925  0.0755 -2.1947 -0.2011
19116TIP3   OH278838   0.960   6.059   2.562 -0.2497 -0.1210 -0.2552
19116TIP3    H178839   1.033   6.088   2.617 -0.4213 -1.6283  0.8397
19116TIP3    H278840   0.904   6.136   2.553  1.5356  1.1287 -1.2910
19117TIP3   OH278841   0.013   5.461   1.185 -0.2505  0.2422 -0.2747
19117TIP3    H178842  -0.008   5.555   1.185  0.3595  0.4185  1.4966
19117TIP3    H278843  -0.060   5.421   1.231  0.6825  0.2039  1.2445
19118TIP3   OH278844   3.767   0.232   0.790 -0.3704 -0.0406 -0.0651
19118TIP3    H178845   3.759   0.178   0.868 -0.1984  1.8322  1.3050
19118TIP3    H278846   3.706   0.304   0.804  2.1154  2.1935 -0.0001
19119TIP3   OH278847   2.107   3.359  15.183  0.1513  0.1192  0.2482
19119TIP3    H178848   2.018   3.372  15.151 -0.2279  0.4758  1.3860
19119TIP3    H278849   2.113   3.264  15.197 -0.0952  0.1036  0.2622
19120TIP3   OH278850   3.687   4.391   2.776 -0.1291 -0.5551  0.0184
19120TIP3    H178851   3.685   4.318   2.715 -2.3464 -2.4083  2.1152
19120TIP3    H278852   3.595   4.418   2.784  0.5122  1.9033  0.0477
19121TIP3   OH278853   6.353   2.567   0.405  0.3672  0.3244 -0.0499
19121TIP3    H178854   6.397   2.537   0.484 -0.7076 -1.6060 -0.1017
19121TIP3    H278855   6.331   2.658   0.422  1.2993  0.3187  1.3280
19122TIP3   OH278856   0.451   2.789   2.082 -0.5028  0.5590  0.6600
19122TIP3    H178857   0.387   2.856   2.105 -0.8623 -0.1208  1.7113
19122TIP3    H278858   0.398   2.714   2.054 -0.1207  0.4685  0.1672
19123TIP3   OH278859   1.780   5.710   4.134  0.0830  0.8393 -0.2291
19123TIP3    H178860   1.832   5.661   4.071 -0.6972 -2.6977  1.5830
19123TIP3    H278861   1.843   5.744   4.197  0.5273  0.5898 -0.5369
19124TIP3   OH278862   4.807   5.197   0.680  0.5523  0.7731  0.0133
19124TIP3    H178863   4.795   5.128   0.615 -0.0009  1.3483 -0.5098
19124TIP3    H278864   4.734   5.257   0.666 -0.4761  0.1359  2.1994
19125TIP3   OH278865   2.244   0.359  10.588  0.7421  0.4329 -0.9501
19125TIP3    H178866   2.212   0.417  10.657  0.7629 -0.1416 -0.4516
19125TIP3    H278867   2.169   0.303  10.566  1.1380 -0.3223 -0.4006
19126TIP3   OH278868   6.991   6.658   2.619 -0.4973  0.2847  0.3518
19126TIP3    H178869   7.028   6.686   2.703 -0.3434 -1.4889  0.9327
19126TIP3    H278870   7.062   6.610   2.576 -1.0868 -0.2637 -0.0301
19127TIP3   OH278871   5.663   3.365   1.257 -0.1974 -0.3079 -0.1124
19127TIP3    H178872   5.716   3.299   1.303  1.8012  0.5041 -1.1231
19127TIP3    H278873   5.640   3.429   1.325 -0.1241 -0.8205  0.4062
19128TIP3   OH278874   7.163   6.434   5.192  0.3967 -0.3611 -0.0987
19128TIP3    H178875   7.250   6.413   5.225  0.5270  0.5822  0.1883
19128TIP3    H278876   7.116   6.351   5.193  0.9016 -0.6506  0.9538
19129TIP3   OH278877   6.008   5.218   3.381  0.3038  0.4841  0.1681
19129TIP3    H178878   5.960   5.231   3.299 -0.5170  1.4912  0.7890
19129TIP3    H278879   5.948   5.166   3.436 -0.8811  3.1552  1.5770
19130TIP3   OH278880   6.017   5.082  12.795 -0.5719 -0.2875  0.1886
19130TIP3    H178881   5.946   5.018  12.802 -0.5856 -0.1343  1.9195
19130TIP3    H278882   6.088   5.044  12.847  1.6887 -1.6873 -3.5291
19131TIP3   OH278883   1.245   1.214   5.675  0.4233 -0.1263 -0.1960
19131TIP3    H178884   1.317   1.260   5.720  0.4710  0.7991 -1.1794
19131TIP3    H278885   1.258   1.122   5.698  1.3415  0.1440  0.4421
19132TIP3   OH278886   6.008   5.215   2.121  0.1790 -0.1627 -0.5706
19132TIP3    H178887   6.094   5.236   2.085  0.6717  0.3250  0.8402
19132TIP3    H278888   6.000   5.120   2.108  0.7132 -0.1368 -1.1513
19133TIP3   OH278889   1.782   7.046   3.874 -0.0097  0.4100 -0.1977
19133TIP3    H178890   1.761   6.953   3.868  0.2205  0.3956 -0.8503
19133TIP3    H278891   1.860   7.049   3.930  0.6369  0.1070 -1.0601
19134TIP3   OH278892   3.747   2.695   4.540 -0.0636  0.1743 -1.3584
19134TIP3    H178893   3.736   2.781   4.580 -0.9621 -1.3811  2.1051
19134TIP3    H278894   3.840   2.675   4.551 -0.6035 -1.0432  2.1348
19135TIP3   OH278895   6.079   0.660   0.920 -0.5927  0.8490  0.5169
19135TIP3    H178896   6.143   0.731   0.919  0.4784 -0.0159  2.3932
19135TIP3    H278897   6.106   0.604   0.993 -2.0857 -0.8619 -0.1597
19136TIP3   OH278898   6.583   6.240   1.398  0.2338  0.2489  0.3016
19136TIP3    H178899   6.552   6.155   1.429 -0.6024  0.3197 -0.2950
19136TIP3    H278900   6.513   6.301   1.423  1.0684  0.8700  1.2045
19137TIP3   OH278901   3.278   0.677   1.945 -0.2571 -0.4793  0.4557
19137TIP3    H178902   3.221   0.652   1.872  0.9773 -1.4284 -0.2167
19137TIP3    H278903   3.254   0.768   1.964 -1.7042 -0.7177 -0.0634
19138TIP3   OH278904   0.884   2.919   4.623  0.1199 -0.0191  0.3655
19138TIP3    H178905   0.960   2.953   4.574  0.0040  2.5237  1.7666
19138TIP3    H278906   0.866   2.834   4.583  2.7302 -0.0197 -1.0508
19139TIP3   OH278907   2.753   7.145   2.020  0.3331  0.0253 -0.4319
19139TIP3    H178908   2.662   7.115   2.013  1.1149 -2.4420 -0.8467
19139TIP3    H278909   2.794   7.085   2.083  1.8943  0.5128 -0.9345
19140TIP3   OH278910   7.178   6.835   0.862 -0.7726  0.3789 -0.0126
19140TIP3    H178911   7.195   6.927   0.881 -2.9881  0.6570  0.8287
19140TIP3    H278912   7.142   6.834   0.774 -0.8022  0.3115  0.0001
19141TIP3   OH278913   7.205   1.560   1.884  0.0018 -0.5765  0.3142
19141TIP3    H178914   7.258   1.639   1.880  0.3369 -0.8161 -0.1641
19141TIP3    H278915   7.139   1.578   1.951  0.9876 -0.4596  1.2728
19142TIP3   OH278916   5.028   4.659   4.051  0.0438 -0.0999 -0.1391
19142TIP3    H178917   4.978   4.740   4.038 -0.4280  0.0057  2.0137
19142TIP3    H278918   4.968   4.589   4.025  0.7739  0.1764 -2.9537
19143TIP3   OH278919   2.880   5.150   0.006 -0.7137 -0.1220  0.3653
19143TIP3    H178920   2.831   5.147  -0.076 -0.9385 -0.8705  0.5177
19143TIP3    H278921   2.862   5.237   0.042 -3.6094 -1.0443  1.4219
19144TIP3   OH278922   4.136   6.434  13.701  0.2285 -0.1359 -0.1784
19144TIP3    H178923   4.101   6.345  13.701  1.0232 -0.5142 -2.3129
19144TIP3    H278924   4.077   6.483  13.643 -1.4254  1.3438  2.5439
19145TIP3   OH278925   4.939   0.299   3.399  0.1560  0.0109 -0.0472
19145TIP3    H178926   4.882   0.224   3.413 -0.7064  0.6793  0.0598
19145TIP3    H278927   4.982   0.313   3.484  1.5336 -1.3146 -0.4732
19146TIP3   OH278928   3.648   3.092   1.691 -0.6039  0.6475  0.0103
19146TIP3    H178929   3.565   3.135   1.709 -1.5117 -0.4767 -1.2938
19146TIP3    H278930   3.709   3.164   1.672 -1.7563  1.4119 -0.8980
19147TIP3   OH278931   6.727   4.346   5.909  0.2177  0.1430 -0.6786
19147TIP3    H178932   6.646   4.297   5.927 -0.4873  0.7224 -2.1612
19147TIP3    H278933   6.790   4.312   5.974 -1.6275  0.8325  1.5829
19148TIP3   OH278934   5.025   4.544   4.528 -0.0199  0.2184  0.2844
19148TIP3    H178935   5.058   4.454   4.532  0.4620  0.3161 -1.0484
19148TIP3    H278936   5.082   4.587   4.465  1.1528  2.0812  2.4915
19149TIP3   OH278937   0.419   2.821   5.491 -0.3779  0.5192 -0.1395
19149TIP3    H178938   0.513   2.814   5.475 -0.3347  1.7663 -0.5164
19149TIP3    H278939   0.385   2.872   5.418 -1.0492  1.6276  0.8928
19150TIP3   OH278940   3.915   0.274   1.883 -0.2112  0.4454  0.1001
19150TIP3    H178941   3.878   0.348   1.835 -1.0477  0.4520  0.7409
19150TIP3    H278942   3.902   0.296   1.975  0.3004 -0.1181  0.3137
19151TIP3   OH278943   4.666   6.477   1.417 -0.1787  0.6123 -0.5258
19151TIP3    H178944   4.618   6.417   1.475 -1.6360  0.6374 -1.6633
19151TIP3    H278945   4.751   6.488   1.461  0.3927 -2.6543 -0.4891
19152TIP3   OH278946   5.085   3.036   5.186 -0.8192 -0.4856  0.4436
19152TIP3    H178947   5.038   2.968   5.138 -0.2496  0.1708 -1.1136
19152TIP3    H278948   5.177   3.022   5.164 -0.5665 -0.0111  1.1600
19153TIP3   OH278949   6.642   0.939   4.763 -0.4758 -0.3950  0.4935
19153TIP3    H178950   6.652   0.981   4.678 -1.2476  1.9579  1.4639
19153TIP3    H278951   6.593   0.859   4.745  2.2020 -1.7140 -1.6195
19154TIP3   OH278952   0.732   3.404   3.742 -0.3955  0.1249 -0.1602
19154TIP3    H178953   0.648   3.381   3.703  0.3245 -0.4728 -1.4147
19154TIP3    H278954   0.795   3.397   3.670  1.3856 -3.0854  1.4790
19155TIP3   OH278955   0.761   5.017  14.272 -0.6535 -0.0195  0.2526
19155TIP3    H178956   0.819   5.026  14.197  0.8145 -1.3185  1.1947
19155TIP3    H278957   0.722   4.930  14.262 -1.8069  0.4925  0.1007
19156TIP3   OH278958   6.710   7.177   1.741  0.4468 -0.6508  0.0538
19156TIP3    H178959   6.705   7.112   1.811  3.2759  0.2368  1.2020
19156TIP3    H278960   6.803   7.195   1.731 -0.1811  3.2297 -0.2108
19157TIP3   OH278961   6.203   4.561   5.350 -0.6051 -0.5385  0.0609
19157TIP3    H178962   6.152   4.627   5.304 -2.8637 -0.1198  2.8694
19157TIP3    H278963   6.212   4.595   5.439  3.1437 -1.4800  0.2143
19158TIP3   OH278964   4.116   3.825   3.775 -0.5651  0.1280 -0.3171
19158TIP3    H178965   4.160   3.835   3.690 -0.9711 -1.5039 -0.7677
19158TIP3    H278966   4.134   3.907   3.821 -0.3053  1.0585 -1.9623
19159TIP3   OH278967   4.105   2.657   3.642  0.1730 -0.0692  0.4454
19159TIP3    H178968   4.107   2.623   3.732 -0.3657  1.0230  0.9034
19159TIP3    H278969   4.167   2.603   3.594  2.5704  1.0242  2.0975
19160TIP3   OH278970   3.812   6.773   1.122 -0.8640  0.0056  1.1630
19160TIP3    H178971   3.767   6.789   1.039 -0.9118 -1.5768  0.8614
19160TIP3    H278972   3.759   6.706   1.165  0.7020 -1.2508  1.1935
19161TIP3   OH278973   1.830   5.405   0.933 -0.1603  0.0336  0.3183
19161TIP3    H178974   1.796   5.339   0.872  1.3282 -0.9286  0.4825
19161TIP3    H278975   1.908   5.439   0.889 -0.2435  0.8465  0.7822
19162TIP3   OH278976   6.472   5.459   4.397 -0.6368 -0.0058 -0.3831
19162TIP3    H178977   6.545   5.402   4.370  0.4577  1.1374  0.0760
19162TIP3    H278978   6.421   5.471   4.317  0.6152  0.4985 -1.1487
19163TIP3   OH278979   3.607   7.246   3.209  0.1425 -0.7227  0.2391
19163TIP3    H178980   3.569   7.271   3.125  0.9255 -0.5582 -0.0741
19163TIP3    H278981   3.699   7.225   3.189  1.0320  1.6759  1.4151
19164TIP3   OH278982   5.953   0.733   5.525  0.2669 -0.0059  0.4994
19164TIP3    H178983   5.955   0.798   5.595 -0.9080 -0.0578  0.5979
19164TIP3    H278984   6.044   0.724   5.498  0.5496  1.0704  1.0440
19165TIP3   OH278985   4.498   2.828   4.142 -0.0806  0.0657 -0.2177
19165TIP3    H178986   4.484   2.837   4.048  0.3004  1.1230 -0.1893
19165TIP3    H278987   4.593   2.835   4.153 -0.2090  1.0056  0.3415
19166TIP3   OH278988   1.162   2.491   3.686 -0.0942  0.0357 -0.2077
19166TIP3    H178989   1.138   2.572   3.640 -1.5614 -0.4319 -0.3102
19166TIP3    H278990   1.252   2.475   3.661 -0.6520  0.1411 -2.4420
19167TIP3   OH278991   6.433   2.469   0.641 -0.1152 -0.1985  0.6694
19167TIP3    H178992   6.469   2.554   0.666 -1.4764  0.3803  0.7709
19167TIP3    H278993   6.506   2.408   0.652  1.2437  1.1261 -0.5806
19168TIP3   OH278994   4.361   4.863   3.107  0.2365 -0.3775 -0.5221
19168TIP3    H178995   4.277   4.886   3.067 -0.1018 -2.1625 -0.9246
19168TIP3    H278996   4.338   4.802   3.177  1.1951 -0.7629 -0.5373
19169TIP3   OH278997   7.146   2.961   3.823 -0.1463 -0.0300  0.1008
19169TIP3    H178998   7.088   3.036   3.838  1.2817  0.9389  1.1155
19169TIP3    H278999   7.092   2.884   3.842 -2.5601  0.4346 -3.7038
19170TIP3   OH279000   2.653   4.131   1.857 -0.2034 -0.2411 -0.0284
19170TIP3    H179001   2.743   4.100   1.863 -0.4907 -1.0116  0.3575
19170TIP3    H279002   2.653   4.189   1.781  0.9591  0.9593  0.8382
19171TIP3   OH279003   6.504   1.561   2.868 -0.0525 -0.3029 -0.3478
19171TIP3    H179004   6.426   1.538   2.918 -1.2567  0.0718 -1.9737
19171TIP3    H279005   6.573   1.506   2.904 -1.3180 -1.4803  0.3632
19172TIP3   OH279006   3.744   0.600  12.290 -0.0946 -0.2997 -0.2091
19172TIP3    H179007   3.674   0.572  12.231  0.1023  0.2779 -0.7307
19172TIP3    H279008   3.763   0.523  12.344 -3.2307  0.3174  2.0642
19173TIP3   OH279009   2.556   7.075   2.331 -0.2345  0.2568  0.0902
19173TIP3    H179010   2.626   7.066   2.266 -0.1025 -0.8032  0.3688
19173TIP3    H279011   2.589   7.141   2.393 -0.2140  1.0158 -0.7023
19174TIP3   OH279012   1.229   5.295   2.163 -0.6051 -0.4281  0.7692
19174TIP3    H179013   1.240   5.387   2.187  0.0586 -0.3137  0.0533
19174TIP3    H279014   1.242   5.247   2.245 -0.2531  0.0718  1.0112
19175TIP3   OH279015   3.722   1.907   4.162  0.0746  0.2155  0.1107
19175TIP3    H179016   3.678   1.918   4.246 -0.5157 -1.8931  0.1247
19175TIP3    H279017   3.675   1.836   4.119  1.8633 -0.3943 -0.9595
19176TIP3   OH279018   4.833   6.069   2.554  0.3335 -0.3730 -0.2769
19176TIP3    H179019   4.876   5.997   2.600 -0.2716  0.2961  1.4152
19176TIP3    H279020   4.777   6.025   2.489  0.0135 -1.4347  0.6763
19177TIP3   OH279021   0.075   1.430   2.849 -0.2147  0.1151  0.0438
19177TIP3    H179022   0.041   1.519   2.844 -2.4020 -0.5919  1.0183
19177TIP3    H279023   0.021   1.379   2.789  2.1999 -0.3263 -1.9578
19178TIP3   OH279024   7.073   4.635  15.067 -0.1663  0.8725  0.1849
19178TIP3    H179025   6.989   4.589  15.063  0.0606  0.3995  0.8010
19178TIP3    H279026   7.116   4.612  14.984  0.0613 -0.2650  0.6005
19179TIP3   OH279027   3.603   2.601  13.941  0.0432 -0.1372  0.4666
19179TIP3    H179028   3.527   2.563  13.986  0.6131 -1.8046  0.1034
19179TIP3    H279029   3.567   2.674  13.890 -0.9378  0.4874  1.9821
19180TIP3   OH279030   0.086   1.364   1.642  0.1624  0.6909  0.2559
19180TIP3    H179031   0.071   1.454   1.672  1.4782  0.6790  1.0244
19180TIP3    H279032   0.181   1.355   1.641  0.0413 -0.7178  0.2332
19181TIP3   OH279033   5.536   3.076   4.863  0.1811  0.4015  0.1269
19181TIP3    H179034   5.444   3.100   4.849  0.1676  1.1766  1.4047
19181TIP3    H279035   5.574   3.076   4.775 -1.0293  0.0729 -0.4271
19182TIP3   OH279036   1.854   3.989   5.611  0.0894 -0.2177  0.5468
19182TIP3    H179037   1.765   3.975   5.579 -0.3688 -3.0606  2.6744
19182TIP3    H279038   1.881   4.071   5.570 -2.2309 -0.9138 -2.8411
19183TIP3   OH279039   0.074   5.734   1.650  0.1025  0.6093 -0.0349
19183TIP3    H179040   0.134   5.741   1.724  1.2327 -1.7412 -0.6468
19183TIP3    H279041   0.130   5.714   1.575 -1.3012 -0.3418 -0.8814
19184TIP3   OH279042   6.771   0.624  12.451  0.0085  0.0119 -0.9297
19184TIP3    H179043   6.823   0.671  12.386 -1.7459  1.6556 -1.2412
19184TIP3    H279044   6.701   0.685  12.474 -0.4935 -1.2468  1.1310
19185TIP3   OH279045   6.651   3.532  10.977  0.1916 -0.3815 -0.2377
19185TIP3    H179046   6.707   3.601  11.011 -0.5036  0.2306 -0.3177
19185TIP3    H279047   6.700   3.496  10.902 -0.3536  1.4743 -1.5512
19186TIP3   OH279048   5.949   4.075   4.398 -0.2827 -0.0910  0.0103
19186TIP3    H179049   5.912   4.083   4.309 -0.8259 -0.8565  0.1615
19186TIP3    H279050   6.041   4.100   4.388 -0.2048 -0.6958 -0.8744
19187TIP3   OH279051   5.407   6.031   4.073  0.2970  0.4224  0.0310
19187TIP3    H179052   5.342   6.062   4.010 -0.4912  1.8851  1.5063
19187TIP3    H279053   5.467   5.978   4.020 -0.5738  1.2150 -1.8591
19188TIP3   OH279054   6.848   1.011   5.497 -0.1788 -0.0811  0.3094
19188TIP3    H179055   6.760   1.012   5.534  0.5938  0.2456  2.2694
19188TIP3    H279056   6.875   1.102   5.496  0.2679 -0.2130  0.0577
19189TIP3   OH279057   4.165   0.963   4.682 -0.0657 -0.3321  0.1302
19189TIP3    H179058   4.182   0.934   4.771 -0.5459 -1.3009 -0.0784
19189TIP3    H279059   4.125   1.049   4.691 -1.5254 -1.0618  0.9369
19190TIP3   OH279060   4.339   1.190   2.421  0.7007  0.2882 -0.0811
19190TIP3    H179061   4.317   1.168   2.331  0.2427 -0.2969  0.1709
19190TIP3    H279062   4.258   1.178   2.470  1.4605 -1.5824  0.8091
19191TIP3   OH279063   3.940   2.721   4.025 -0.4775  0.0693  0.2537
19191TIP3    H179064   4.002   2.793   4.037 -0.7086  0.1815  0.7918
19191TIP3    H279065   3.861   2.762   3.989 -0.9510  0.2378  1.4653
19192TIP3   OH279066   0.432   0.720   2.856  0.3353  0.5707  0.5479
19192TIP3    H179067   0.525   0.740   2.856  0.7029 -1.0055  0.8552
19192TIP3    H279068   0.428   0.624   2.861 -1.2475  0.3749 -2.2829
19193TIP3   OH279069   3.688   2.172   1.784 -0.8242 -0.7039  0.0199
19193TIP3    H179070   3.647   2.254   1.756 -1.8517 -1.1363  0.2364
19193TIP3    H279071   3.708   2.126   1.702 -1.7754 -0.9738 -0.0666
19194TIP3   OH279072   1.341   3.319   3.932 -0.2470 -0.0003  0.2595
19194TIP3    H179073   1.371   3.254   3.868  0.1286  0.7483 -0.3361
19194TIP3    H279074   1.315   3.267   4.008  0.9069 -0.7825  0.1380
19195TIP3   OH279075   0.749   4.566   0.812  0.0862 -0.5544  0.1921
19195TIP3    H179076   0.770   4.525   0.728  0.5060  0.1932 -0.0866
19195TIP3    H279077   0.768   4.500   0.877  2.2874 -0.3064 -0.1308
19196TIP3   OH279078   5.598   3.215   3.482  0.3391 -0.4113 -0.8759
19196TIP3    H179079   5.692   3.209   3.499  0.3424 -1.9416 -1.2255
19196TIP3    H279080   5.582   3.152   3.411 -1.1906 -1.4029  0.2700
19197TIP3   OH279081   1.313   7.053   0.423 -0.3271 -0.1726  0.4299
19197TIP3    H179082   1.341   7.143   0.405 -1.1021  0.3359  1.6346
19197TIP3    H279083   1.220   7.062   0.444 -0.1896 -1.1320  1.4942
19198TIP3   OH279084   6.210   2.715  10.986  0.4760  0.6136 -0.3479
19198TIP3    H179085   6.153   2.769  10.931 -2.0810  0.4396  1.9015
19198TIP3    H279086   6.243   2.777  11.052  0.8132  0.2170 -0.1472
19199TIP3   OH279087   6.886   1.376   4.903  0.0390 -0.0613 -0.2681
19199TIP3    H179088   6.855   1.457   4.944 -0.0096 -0.5011  0.5900
19199TIP3    H279089   6.819   1.311   4.925 -0.1420 -0.2451 -1.3186
19200TIP3   OH279090   0.671   0.066   0.346  0.7241  0.1815  0.4304
19200TIP3    H179091   0.639   0.151   0.316 -0.6923 -0.3281  0.4507
19200TIP3    H279092   0.706   0.025   0.267  3.0080  1.4081  0.6995
19201TIP3   OH279093   3.348   1.433  15.073  0.5935  0.0089 -0.3011
19201TIP3    H179094   3.402   1.356  15.057 -0.0826 -0.4859 -0.1975
19201TIP3    H279095   3.409   1.498  15.108  0.9474 -0.8695  0.7732
19202TIP3   OH279096   1.173   6.287   3.018  0.2802  0.1072 -0.5012
19202TIP3    H179097   1.196   6.359   3.076  2.8913 -0.1690 -1.0988
19202TIP3    H279098   1.133   6.222   3.075  1.3532  0.4859  0.7190
19203TIP3   OH279099   7.147   6.863   5.897  0.5063 -0.0553 -0.1989
19203TIP3    H179100   7.088   6.790   5.876  0.3816 -0.0574  0.1443
19203TIP3    H279101   7.090   6.939   5.904  0.5126 -0.0890  0.3093
19204TIP3   OH279102   1.146   2.777   3.241 -0.0349 -0.2126  0.5119
19204TIP3    H179103   1.167   2.850   3.182 -1.9330 -0.2399 -0.2898
19204TIP3    H279104   1.062   2.802   3.280 -0.8165 -2.0490  0.0812
19205TIP3   OH279105   3.421   2.132   4.764  0.0008 -0.3927 -0.7748
19205TIP3    H179106   3.339   2.123   4.812 -0.0490  0.0474 -0.7668
19205TIP3    H279107   3.482   2.072   4.807 -0.0197  0.0542 -0.1107
19206TIP3   OH279108   2.408   3.692   2.256 -0.5486  0.1669  0.1861
19206TIP3    H179109   2.416   3.651   2.342 -1.5473  2.2513  1.3351
19206TIP3    H279110   2.422   3.785   2.272 -0.9958  0.6365 -1.8823
19207TIP3   OH279111   1.160   7.112  14.944 -0.5322 -0.2315  0.2868
19207TIP3    H179112   1.140   7.202  14.970  0.3962 -0.1244  0.6419
19207TIP3    H279113   1.116   7.058  15.009 -1.4422 -0.0595 -0.1647
19208TIP3   OH279114   5.761   5.666  12.896 -0.0125  0.8560  0.2704
19208TIP3    H179115   5.761   5.573  12.917 -1.3266  0.8864  0.5102
19208TIP3    H279116   5.835   5.702  12.945  0.9566 -0.1616 -0.3940
19209TIP3   OH279117   4.215   3.210   4.155  0.1326 -0.7018 -0.0364
19209TIP3    H179118   4.203   3.174   4.067 -1.1716 -0.1785 -0.0973
19209TIP3    H279119   4.196   3.303   4.145 -1.8871 -0.9378  1.1235
19210TIP3   OH279120   5.105   1.888   0.849  0.6205  0.2060  0.5182
19210TIP3    H179121   5.013   1.872   0.828  0.9630 -0.2987 -0.7478
19210TIP3    H279122   5.108   1.893   0.944 -0.4377 -1.6469  0.6934
19211TIP3   OH279123   4.864   4.153  11.230 -0.0157  0.5929  0.5586
19211TIP3    H179124   4.770   4.132  11.223 -0.0473  0.6335  0.8483
19211TIP3    H279125   4.865   4.244  11.261  0.1156  1.3978 -1.6557
19212TIP3   OH279126   6.392   3.708   1.131  0.0943 -0.1158  0.1325
19212TIP3    H179127   6.413   3.798   1.156  0.1404  0.1489 -0.7974
19212TIP3    H279128   6.421   3.655   1.204  0.0246  0.6333  0.7172
19213TIP3   OH279129   5.280   4.513   0.461 -0.2673 -0.4906 -0.3204
19213TIP3    H179130   5.246   4.603   0.463 -0.4929 -0.5771 -0.1902
19213TIP3    H279131   5.284   4.491   0.368 -0.2014 -0.3424 -0.3532
19214TIP3   OH279132   1.364   2.667   1.603 -0.1245 -0.4746 -0.3126
19214TIP3    H179133   1.385   2.675   1.510  1.5653 -1.5979 -0.0688
19214TIP3    H279134   1.420   2.731   1.646 -1.5215  0.6546 -0.0966
19215TIP3   OH279135   2.502   6.536   1.091  0.1488  0.3070 -0.2934
19215TIP3    H179136   2.583   6.488   1.070  0.7132  1.9687 -2.2038
19215TIP3    H279137   2.532   6.611   1.142 -0.3643  0.2201  0.1381
19216TIP3   OH279138   5.375   0.289   4.822 -0.4458  0.1445  0.2818
19216TIP3    H179139   5.466   0.313   4.807 -0.5181  1.1465  1.3046
19216TIP3    H279140   5.356   0.319   4.911 -0.7930 -3.1486  1.4563
19217TIP3   OH279141   6.836   4.691   4.924  0.3717  0.8927 -0.3091
19217TIP3    H179142   6.760   4.747   4.942  1.0263  2.2080 -1.4783
19217TIP3    H279143   6.912   4.745   4.944  1.0185  0.3777 -1.2854
19218TIP3   OH279144   4.633   0.802   0.433 -0.0099 -0.9544  0.2837
19218TIP3    H179145   4.647   0.866   0.502 -0.7967  0.2138 -0.6089
19218TIP3    H279146   4.571   0.844   0.373  2.5832 -0.8085 -2.5192
19219TIP3   OH279147   3.304   5.826   0.784 -0.2455  0.6699  0.6089
19219TIP3    H179148   3.295   5.897   0.846  2.6618  2.0384 -0.3927
19219TIP3    H279149   3.218   5.820   0.742 -0.7451  3.1644  1.1525
19220TIP3   OH279150   5.126   2.420   2.958 -0.6863  0.3298  0.6704
19220TIP3    H179151   5.162   2.479   2.892 -0.1176 -1.2924 -0.5606
19220TIP3    H279152   5.096   2.344   2.908 -1.4739 -0.3888  2.1647
19221TIP3   OH279153   2.466   3.551   3.859  0.4114  0.1063 -0.0778
19221TIP3    H179154   2.413   3.600   3.921 -0.1565 -1.0612  0.3962
19221TIP3    H279155   2.440   3.460   3.872 -1.4868 -0.0355 -3.6629
19222TIP3   OH279156   1.296   0.845   3.679  0.1094 -0.1754 -0.3802
19222TIP3    H179157   1.355   0.772   3.695 -0.2562 -0.0720  1.6795
19222TIP3    H279158   1.353   0.922   3.674  0.3008 -0.3030 -0.1546
19223TIP3   OH279159   5.675   3.778   3.052  0.1908 -0.1028  0.2588
19223TIP3    H179160   5.740   3.841   3.018 -0.9508  0.1035 -1.7138
19223TIP3    H279161   5.696   3.696   3.007 -0.8500 -0.0398 -0.3824
19224TIP3   OH279162   6.737   4.600   2.241  0.2631  0.6590  0.4205
19224TIP3    H179163   6.663   4.607   2.302  0.9090 -0.7218  1.4194
19224TIP3    H279164   6.778   4.686   2.243  0.1429  0.7113  1.8073
19225TIP3   OH279165   2.647   5.912   4.725 -0.0345  0.2018 -0.2403
19225TIP3    H179166   2.620   5.827   4.690  0.6279  0.0549 -0.3987
19225TIP3    H279167   2.742   5.914   4.712 -0.1416  1.2959 -0.9567
19226TIP3   OH279168   3.346   6.068   1.516  0.1324  0.1398  0.2117
19226TIP3    H179169   3.308   6.101   1.435 -0.4148  0.6402  0.6603
19226TIP3    H279170   3.359   5.975   1.500 -0.3410  0.1539 -0.3130
19227TIP3   OH279171   5.394   3.294   1.332 -0.1250  0.5646  0.0550
19227TIP3    H179172   5.368   3.312   1.241 -0.4548 -1.0148 -0.1875
19227TIP3    H279173   5.482   3.331   1.339  1.3754 -2.2169 -1.9996
19228TIP3   OH279174   0.143   2.382   3.904  0.2910  0.7149  0.1024
19228TIP3    H179175   0.192   2.306   3.872  0.4168  1.1454 -0.7566
19228TIP3    H279176   0.209   2.451   3.914  0.0060  1.0429 -0.2243
19229TIP3   OH279177   3.408   1.147  13.843  0.3999 -0.2597  0.2413
19229TIP3    H179178   3.321   1.108  13.857  0.7094 -0.7335  0.9002
19229TIP3    H279179   3.391   1.222  13.786 -0.2513 -1.1902 -0.8519
19230TIP3   OH279180   7.234   2.272   2.463 -0.2001  0.8079 -0.3718
19230TIP3    H179181   7.158   2.223   2.493 -1.1301  1.0882 -2.1133
19230TIP3    H279182   7.286   2.288   2.542 -1.9919  0.7134  0.8719
19231TIP3   OH279183   3.483   5.011   5.577 -0.0212  0.0081 -0.2607
19231TIP3    H179184   3.573   5.025   5.605 -0.3059  0.4361  0.4735
19231TIP3    H279185   3.482   4.922   5.543  0.4971 -0.2883  0.4854
19232TIP3   OH279186   6.423   0.949   5.247 -0.2222  0.0996 -0.3708
19232TIP3    H179187   6.336   0.910   5.238 -0.5744  0.6699  0.4349
19232TIP3    H279188   6.449   0.930   5.337 -1.3718  3.5542  0.8326
19233TIP3   OH279189   1.583   3.367   2.019  1.1535  0.5967 -0.0100
19233TIP3    H179190   1.534   3.312   1.958  2.5443 -0.5102 -0.1664
19233TIP3    H279191   1.544   3.348   2.105  2.0774 -1.2078  0.0468
19234TIP3   OH279192   5.771   6.343   2.168  0.3076  0.3541 -0.0077
19234TIP3    H179193   5.863   6.333   2.195  1.8817  3.1272 -3.5571
19234TIP3    H279194   5.748   6.432   2.194 -0.6352  0.4314 -1.0544
19235TIP3   OH279195   6.451   1.968   3.244 -0.2971 -0.6042 -0.1845
19235TIP3    H179196   6.531   2.011   3.213 -1.6128  1.7967 -0.4707
19235TIP3    H279197   6.482   1.894   3.295  2.2374  1.6333  1.7810
19236TIP3   OH279198   2.300   1.642   0.131  0.7196 -0.0117  0.2162
19236TIP3    H179199   2.212   1.622   0.099  0.7504 -0.5993  0.4820
19236TIP3    H279200   2.343   1.687   0.058  0.0619  0.6702  0.2340
19237TIP3   OH279201   6.059   6.706   0.787  0.1541 -0.2748 -0.0527
19237TIP3    H179202   6.009   6.700   0.869  0.2059 -0.4256 -0.0319
19237TIP3    H279203   6.050   6.797   0.760  1.6060  0.2275  1.0488
19238TIP3   OH279204   1.619   2.270   2.681 -0.5089 -0.2535 -0.0365
19238TIP3    H179205   1.627   2.326   2.759  0.3431  0.1422 -0.3994
19238TIP3    H279206   1.684   2.304   2.620 -1.3720 -0.3630 -1.0566
19239TIP3   OH279207   2.198   5.291   3.779  0.6879 -0.3022  0.3389
19239TIP3    H179208   2.228   5.339   3.855  0.7073 -0.2711  0.3116
19239TIP3    H279209   2.185   5.201   3.810  0.7341 -0.2981  0.3693
19240TIP3   OH279210   5.550   3.285  14.547 -0.6287 -0.5912 -0.2912
19240TIP3    H179211   5.514   3.197  14.554  0.0355 -0.9229 -0.9057
19240TIP3    H279212   5.515   3.332  14.623 -0.5650 -1.5303  0.3340
19241TIP3   OH279213   3.966   2.937  14.426  0.2892 -0.1963 -0.1868
19241TIP3    H179214   3.887   2.892  14.396 -1.6781  2.0427  1.2503
19241TIP3    H279215   3.942   3.030  14.426  3.1696  0.6448 -0.2907
19242TIP3   OH279216   1.352   4.367   0.302  0.7272  0.3629 -0.1184
19242TIP3    H179217   1.314   4.286   0.267  1.0272 -0.5756  1.6206
19242TIP3    H279218   1.444   4.363   0.276  0.2717  1.3430 -2.0557
19243TIP3   OH279219   3.778   7.196   4.830 -0.2171  0.2761  0.1093
19243TIP3    H179220   3.738   7.177   4.745  0.7951 -2.0683  0.0912
19243TIP3    H279221   3.872   7.199   4.812 -0.0397  0.4563  1.0416
19244TIP3   OH279222   6.283   2.987  15.050 -0.7371  0.4101  0.2036
19244TIP3    H179223   6.210   2.925  15.051 -2.1458  1.9853  1.6326
19244TIP3    H279224   6.250   3.061  14.998  1.0402 -0.0938 -1.7894
19245TIP3   OH279225   4.220   3.139   3.890  0.2256  0.0411  0.2351
19245TIP3    H179226   4.313   3.158   3.880  0.3804 -0.6148  0.4158
19245TIP3    H279227   4.207   3.054   3.848 -0.1260 -0.2582  0.9233
19246TIP3   OH279228   1.387   3.484   0.743 -0.1060 -0.6072  0.9137
19246TIP3    H179229   1.329   3.436   0.683 -1.6831 -0.2261  2.0494
19246TIP3    H279230   1.336   3.561   0.769  1.7928  0.9189  0.3072
19247TIP3   OH279231   3.257   0.228   5.066  0.5593 -0.2720  0.6843
19247TIP3    H179232   3.312   0.256   5.139  1.1711  0.7347 -0.1234
19247TIP3    H279233   3.236   0.309   5.020  0.1235 -0.8780 -0.2178
19248TIP3   OH279234   5.577   2.782   5.058  0.0097 -0.1662  0.0514
19248TIP3    H179235   5.632   2.847   5.013  1.0200 -0.2856  1.0745
19248TIP3    H279236   5.635   2.743   5.123 -1.3161 -0.2246  1.2413
19249TIP3   OH279237   4.741   3.007   3.170  0.0960 -0.3268 -0.5732
19249TIP3    H179238   4.679   3.080   3.173 -0.4815 -0.8325  0.1316
19249TIP3    H279239   4.705   2.947   3.105  1.3324  0.6475 -2.2581
19250TIP3   OH279240   3.537   6.382   2.117  0.2768  0.0075  0.6269
19250TIP3    H179241   3.460   6.359   2.066  0.5057  0.9830 -0.1831
19250TIP3    H279242   3.529   6.476   2.132  0.9757 -0.0008  1.1184
19251TIP3   OH279243   4.896   5.601   4.104  0.0078  0.6839 -0.2905
19251TIP3    H179244   4.912   5.695   4.117  2.1319  0.3422 -0.0594
19251TIP3    H279245   4.856   5.596   4.017 -0.2281  1.8135 -0.2720
19252TIP3   OH279246   5.358   3.002   5.139  0.3734 -0.1978 -0.1431
19252TIP3    H179247   5.414   3.062   5.090  0.0630  0.9444  0.8443
19252TIP3    H279248   5.382   2.915   5.108  1.0988  0.4120 -1.3449
19253TIP3   OH279249   6.149   3.960   6.240  0.3831  0.0028 -0.1594
19253TIP3    H179250   6.177   3.908   6.316 -0.9529 -0.6988 -0.1254
19253TIP3    H279251   6.229   3.973   6.190  0.8043 -2.0210 -0.1110
19254TIP3   OH279252   1.236   5.732   4.633  0.0233 -0.0279  0.1500
19254TIP3    H179253   1.163   5.714   4.573 -1.6880 -1.2237  2.4377
19254TIP3    H279254   1.313   5.700   4.587 -1.5265 -3.2753 -0.4691
19255TIP3   OH279255   1.945   2.433   0.023 -0.0232 -0.2677  0.0722
19255TIP3    H179256   1.975   2.439   0.114 -1.6869  0.0320  0.6318
19255TIP3    H279257   1.949   2.340   0.002  1.3811 -0.2217  0.0775
19256TIP3   OH279258   0.657   4.757  14.220  0.2541 -0.4274  0.3258
19256TIP3    H179259   0.693   4.731  14.136 -0.2376 -0.0376 -0.0135
19256TIP3    H279260   0.663   4.678  14.274  1.5757 -0.3793  0.2835
19257TIP3   OH279261   3.723   0.914  14.381  0.8320 -0.3186  0.6187
19257TIP3    H179262   3.784   0.987  14.391  1.4652 -0.8699  0.8571
19257TIP3    H279263   3.692   0.897  14.470  0.5950 -0.2630  0.5464
19258TIP3   OH279264   0.756   3.144   1.713  0.3886  0.2729 -1.1759
19258TIP3    H179265   0.767   3.239   1.718 -0.8052  0.3599  1.5815
19258TIP3    H279266   0.679   3.126   1.768  1.4211 -2.4150 -0.4719
19259TIP3   OH279267   7.031   5.064   2.836 -0.2546  0.4686  0.1489
19259TIP3    H179268   7.020   5.134   2.771  1.0739  1.7560  1.2446
19259TIP3    H279269   6.961   5.080   2.900  0.0863  0.8417  0.4310
19260TIP3   OH279270   5.955   5.564   5.774 -0.0365  0.1135 -0.7581
19260TIP3    H179271   5.893   5.527   5.838  0.3402  1.3416  0.3560
19260TIP3    H279272   5.969   5.493   5.711 -2.5462 -0.2330 -1.0581
19261TIP3   OH279273   4.389   2.302   0.697 -0.2481 -0.0220 -0.2139
19261TIP3    H179274   4.480   2.302   0.668  0.4682 -0.3975  1.8648
19261TIP3    H279275   4.357   2.390   0.677  0.9777  0.5323  0.1527
19262TIP3   OH279276   3.316   3.813   5.871  0.1594  0.4116  0.1568
19262TIP3    H179277   3.302   3.906   5.855  0.3490  0.3569 -0.3459
19262TIP3    H279278   3.390   3.809   5.931  1.8062  0.5331 -1.7357
19263TIP3   OH279279   0.006   0.682   0.632 -0.0083  0.0418  0.0861
19263TIP3    H179280   0.051   0.739   0.570  1.5358 -0.2638  0.8688
19263TIP3    H279281   0.022   0.722   0.717  0.0925 -0.9045  0.5273
19264TIP3   OH279282   4.417   4.931   0.287  0.0043  0.2686  0.0112
19264TIP3    H179283   4.321   4.925   0.289 -0.2414  1.0627 -3.4451
19264TIP3    H279284   4.447   4.844   0.310 -1.4774  0.1296  1.6743
19265TIP3   OH279285   4.731   6.150   1.453 -0.0259  1.0640  0.2891
19265TIP3    H179286   4.794   6.118   1.518  0.2062  1.9213  0.4972
19265TIP3    H279287   4.661   6.190   1.505 -0.3775  0.7771  0.0388
19266TIP3   OH279288   2.097   0.555   3.723  0.1387 -0.3417 -0.0837
19266TIP3    H179289   2.073   0.632   3.775  0.7513 -0.9297  1.1244
19266TIP3    H279290   2.109   0.589   3.634  0.6055  1.0020  0.4594
19267TIP3   OH279291   3.963   4.529   5.664  0.1711 -0.6634  0.2328
19267TIP3    H179292   3.961   4.434   5.660  0.6554 -0.6618 -0.0509
19267TIP3    H279293   4.041   4.549   5.716  1.6227 -0.3662 -1.9571
19268TIP3   OH279294   6.410   3.508   3.671  0.0970 -0.1127  0.0944
19268TIP3    H179295   6.334   3.506   3.614  1.6593  0.0564 -2.1414
19268TIP3    H279296   6.394   3.439   3.736 -1.5295 -0.6578 -0.8401
19269TIP3   OH279297   7.087   1.570   1.383  0.0973 -0.2363  0.9763
19269TIP3    H179298   7.037   1.636   1.431 -0.8389 -1.5633  1.8973
19269TIP3    H279299   7.032   1.546   1.309  0.7544  0.4988  0.2205
19270TIP3   OH279300   1.541   5.437   0.902 -0.2039 -0.1603 -0.5309
19270TIP3    H179301   1.582   5.520   0.878  1.0196 -0.0974  1.5055
19270TIP3    H279302   1.554   5.431   0.997 -0.3685 -2.6179 -0.6079
19271TIP3   OH279303   6.513   1.682   3.342 -0.0458 -0.0847  0.2378
19271TIP3    H179304   6.597   1.728   3.342  0.8195 -1.6145  0.4755
19271TIP3    H279305   6.487   1.680   3.434  0.1901 -0.5379  0.2969
19272TIP3   OH279306   1.251   5.357   5.427 -0.1885  0.1735 -0.1888
19272TIP3    H179307   1.232   5.394   5.514  1.4335 -1.8783  1.1298
19272TIP3    H279308   1.166   5.335   5.391 -0.9152  1.3948  0.7054
19273TIP3   OH279309   4.031   2.272   9.921  0.4812 -0.4144  0.3396
19273TIP3    H179310   4.039   2.356   9.967 -0.1908 -0.4915  0.6030
19273TIP3    H279311   4.040   2.206   9.990 -0.5569 -0.5305  0.3782
19274TIP3   OH279312   0.901   3.909   1.369 -0.3922  0.1075 -0.5344
19274TIP3    H179313   0.855   3.898   1.286 -1.8706 -0.4952  0.3221
19274TIP3    H279314   0.834   3.942   1.430  0.2830 -0.7868  0.7585
19275TIP3   OH279315   3.397   3.717   1.253  0.1827 -0.2141  0.0583
19275TIP3    H179316   3.345   3.761   1.320  1.5178  2.1269 -0.3484
19275TIP3    H279317   3.341   3.717   1.175  0.4066  1.4368 -0.1196
19276TIP3   OH279318   0.913   1.493  13.163  0.0208 -0.0872  0.3392
19276TIP3    H179319   0.917   1.561  13.095  1.7795 -0.7142 -0.2400
19276TIP3    H279320   0.835   1.443  13.141  0.0259  0.3088 -0.6795
19277TIP3   OH279321   1.239   2.894   3.788  0.3021 -0.3296  0.3463
19277TIP3    H179322   1.237   2.889   3.692 -2.8614 -2.6669  0.3626
19277TIP3    H279323   1.299   2.824   3.814 -1.8404 -2.4238 -0.0112
19278TIP3   OH279324   7.223   4.724   4.862  0.0464  0.2922  0.1842
19278TIP3    H179325   7.178   4.731   4.946  1.5510  2.0534  0.9196
19278TIP3    H279326   7.267   4.639   4.865 -0.5114  0.0143  0.8541
19279TIP3   OH279327   0.537   2.779  12.501  0.6720  0.0318  0.0192
19279TIP3    H179328   0.605   2.781  12.568  1.1476  1.9792 -0.4662
19279TIP3    H279329   0.459   2.748  12.547  1.7198 -1.7865  0.6881
19280TIP3   OH279330   1.268   5.789   1.420  1.3650 -0.6775 -0.2476
19280TIP3    H179331   1.245   5.815   1.509  2.2782 -0.8572  0.0573
19280TIP3    H279332   1.363   5.776   1.423  1.4416 -0.4482 -1.3123
19281TIP3   OH279333   0.584   6.741  13.291 -0.4120  0.2437  0.3163
19281TIP3    H179334   0.601   6.828  13.255 -0.7235  0.2758  0.2429
19281TIP3    H279335   0.501   6.751  13.338 -1.2643 -0.4012 -1.0119
19282TIP3   OH279336   5.018   2.396   3.512  0.4065 -0.4788  0.0699
19282TIP3    H179337   4.962   2.337   3.562  0.7331 -0.2061  0.7751
19282TIP3    H279338   4.988   2.387   3.422 -0.7274 -0.3873  0.4209
19283TIP3   OH279339   6.219   1.090  13.930 -0.3201  0.2059  0.3920
19283TIP3    H179340   6.173   1.148  13.868  0.0683  0.8117  0.6605
19283TIP3    H279341   6.297   1.140  13.955 -1.7282  1.1146  3.3642
19284TIP3   OH279342   3.583   1.521   5.613  0.0805  0.3477  0.3404
19284TIP3    H179343   3.634   1.440   5.615  0.1242  0.2284 -2.1561
19284TIP3    H279344   3.497   1.496   5.648 -0.1243 -0.9857 -1.0331
19285TIP3   OH279345   4.067   0.065   1.632  0.4541 -0.4682  0.2569
19285TIP3    H179346   4.077   0.160   1.623 -0.8684 -0.2540  0.8004
19285TIP3    H279347   4.156   0.031   1.633  0.9771  0.8623  1.0162
19286TIP3   OH279348   6.397   1.881   0.848 -0.1375  0.2932  0.0728
19286TIP3    H179349   6.330   1.841   0.792  0.2384 -0.1898 -0.0418
19286TIP3    H279350   6.447   1.938   0.790  0.0375  0.0517 -0.0207
19287TIP3   OH279351   0.608   2.579  11.534  0.0281  0.1286 -0.1008
19287TIP3    H179352   0.561   2.644  11.586 -0.2009 -0.3678  0.3188
19287TIP3    H279353   0.658   2.529  11.598  3.6122  2.5230 -0.7155
19288TIP3   OH279354   0.429   2.123   5.014  0.4790  0.4640 -0.0148
19288TIP3    H179355   0.400   2.032   5.006 -0.4122  0.6465  0.9943
19288TIP3    H279356   0.444   2.135   5.108 -0.6279  1.7118  0.0309
19289TIP3   OH279357   2.943   5.916   3.286  0.1978  0.5646  0.2327
19289TIP3    H179358   3.024   5.961   3.262 -0.4806  1.3675 -0.6134
19289TIP3    H279359   2.949   5.831   3.243  2.0974 -0.8301  2.9094
19290TIP3   OH279360   0.043   5.634   2.001  0.2914  0.5574 -0.0783
19290TIP3    H179361   0.109   5.624   2.070 -0.3666  1.3262  0.7014
19290TIP3    H279362   0.017   5.545   1.980 -0.0345  0.3121  1.2452
19291TIP3   OH279363   2.700   4.721  13.808  0.0407 -0.1695  0.2424
19291TIP3    H179364   2.750   4.668  13.870  2.0381  0.4652 -0.7310
19291TIP3    H279365   2.685   4.662  13.733  0.8880  0.1596 -0.1918
19292TIP3   OH279366   0.289   5.343   1.192 -0.2032  0.0470 -0.2444
19292TIP3    H179367   0.213   5.400   1.184 -0.9830 -0.8824  0.3172
19292TIP3    H279368   0.311   5.345   1.285 -0.2939 -0.6252 -0.2043
19293TIP3   OH279369   1.539   1.458   2.202  0.3696  0.1895 -0.1379
19293TIP3    H179370   1.603   1.417   2.260  1.3575 -0.2584 -1.4927
19293TIP3    H279371   1.540   1.403   2.124  1.1224  2.2880 -1.6815
19294TIP3   OH279372   3.538   4.098   3.372 -0.5703 -0.0051  0.2769
19294TIP3    H179373   3.517   4.018   3.324  0.1717 -0.4974  0.7390
19294TIP3    H279374   3.457   4.148   3.373 -0.7459 -0.2309 -0.9929
19295TIP3   OH279375   0.150   0.954  11.818 -0.0706  0.3073 -0.0500
19295TIP3    H179376   0.138   1.011  11.893  1.2375  0.3866  0.1200
19295TIP3    H279377   0.222   0.993  11.769 -0.5283 -0.0567 -1.0462
19296TIP3   OH279378   2.355   5.460  15.104  0.3414 -0.1012 -0.5076
19296TIP3    H179379   2.276   5.510  15.083  0.4732  0.3343  0.0109
19296TIP3    H279380   2.336   5.421  15.189  0.9097  0.4884 -0.1033
19297TIP3   OH279381   5.211   0.843  14.180 -0.0938 -0.1854  0.0646
19297TIP3    H179382   5.150   0.854  14.107 -0.9766 -2.5676  0.3490
19297TIP3    H279383   5.274   0.914  14.170 -1.0842  0.4652 -2.0993
19298TIP3   OH279384   0.597   2.539   2.462  0.2753  0.0210 -0.2502
19298TIP3    H179385   0.677   2.571   2.421  0.1584 -0.3238 -0.7552
19298TIP3    H279386   0.597   2.445   2.445  0.8321 -0.3451  1.5831
19299TIP3   OH279387   6.227   6.434   3.787 -0.2765  0.3493  0.6473
19299TIP3    H179388   6.200   6.435   3.879 -0.9651  3.3286  0.5287
19299TIP3    H279389   6.268   6.519   3.773  2.0694 -0.9488 -1.2568
19300TIP3   OH279390   5.458   5.352   1.926 -0.3670 -0.6518 -0.0226
19300TIP3    H179391   5.497   5.271   1.895 -3.3028 -2.0933 -0.2918
19300TIP3    H279392   5.497   5.420   1.872  0.1985 -2.2029 -1.6675
19301TIP3   OH279393   4.734   3.841   0.568  0.5563 -0.0072 -0.0063
19301TIP3    H179394   4.772   3.882   0.490 -1.4296  2.9810  0.4353
19301TIP3    H279395   4.690   3.762   0.535 -0.3743  1.2653 -1.9673
19302TIP3   OH279396   4.032   4.746   3.998  0.4628  0.9331  0.5672
19302TIP3    H179397   4.127   4.758   3.997  0.6817 -0.6246  0.8883
19302TIP3    H279398   4.010   4.734   4.091  0.4459 -2.0159  0.2734
19303TIP3   OH279399   4.806   1.413   1.651 -0.0131 -0.1824 -0.2468
19303TIP3    H179400   4.727   1.412   1.705  0.6737  0.4718  0.8105
19303TIP3    H279401   4.826   1.506   1.640 -1.0262 -0.2074 -3.0144
19304TIP3   OH279402   0.794   6.405   4.798 -0.4560  0.4680  0.0592
19304TIP3    H179403   0.710   6.413   4.752 -0.0716  0.5486 -0.6447
19304TIP3    H279404   0.837   6.331   4.756 -1.0276 -0.9518  1.8198
19305TIP3   OH279405   5.366   0.863   4.225  0.6473 -0.4130  0.4149
19305TIP3    H179406   5.396   0.847   4.315  0.3721 -0.4207  0.5063
19305TIP3    H279407   5.309   0.939   4.232  0.9565 -0.1595  0.1783
19306TIP3   OH279408   7.002   3.861  11.453 -0.3376 -0.4222  0.5168
19306TIP3    H179409   7.096   3.862  11.469 -0.0937  0.6137 -0.7802
19306TIP3    H279410   6.994   3.841  11.360 -1.2808  1.3861  0.1606
19307TIP3   OH279411   6.445   6.277  14.520 -0.4364 -0.1963 -0.3864
19307TIP3    H179412   6.488   6.284  14.605  1.0795 -0.2737 -1.1078
19307TIP3    H279413   6.450   6.184  14.498 -1.1483 -0.2332 -0.4109
19308TIP3   OH279414   5.183   2.949   3.791  0.2269  0.2776  0.2410
19308TIP3    H179415   5.239   2.919   3.719 -0.5829  1.0945 -0.7730
19308TIP3    H279416   5.095   2.917   3.768 -0.3350  1.8828  0.0198
19309TIP3   OH279417   3.627   0.164   3.445 -0.3892 -0.5142  0.5619
19309TIP3    H179418   3.634   0.130   3.356  0.8521  0.3724  0.3032
19309TIP3    H279419   3.552   0.224   3.442  0.5583  0.6835 -0.3077
19310TIP3   OH279420   4.697   3.379   2.951  0.0596  0.1477 -0.2107
19310TIP3    H179421   4.625   3.441   2.956  0.5477  0.6847  0.4921
19310TIP3    H279422   4.683   3.331   2.870 -2.1758 -1.1158  0.8365
19311TIP3   OH279423   0.539   6.718   5.290  0.5841  0.1383  0.4184
19311TIP3    H179424   0.527   6.717   5.385 -0.8625 -1.4927  0.2605
19311TIP3    H279425   0.492   6.797   5.262  0.0202 -0.0064  0.9373
19312TIP3   OH279426   3.570   0.762  14.609 -0.5650 -0.3652 -0.1830
19312TIP3    H179427   3.570   0.757  14.704 -2.2819 -0.0033 -0.1284
19312TIP3    H279428   3.496   0.819  14.588  0.0077 -0.1515 -1.7217
19313TIP3   OH279429   3.849   4.461   4.740 -0.1110 -0.9591 -0.0719
19313TIP3    H179430   3.896   4.490   4.662 -0.5529 -0.7076 -0.2493
19313TIP3    H279431   3.759   4.448   4.710 -0.3450 -0.5944  0.4526
19314TIP3   OH279432   4.954   5.635   3.334  0.2698  0.5071  0.7879
19314TIP3    H179433   4.970   5.695   3.407  0.3179 -0.8162  1.9127
19314TIP3    H279434   4.858   5.634   3.325  0.2925  1.0725  0.4868
19315TIP3   OH279435   2.928   0.904   4.660 -0.0440  0.8266  0.1982
19315TIP3    H179436   2.839   0.882   4.688  0.3055  0.1058  0.7726
19315TIP3    H279437   2.919   0.926   4.567 -0.5897 -0.7738 -0.1578
19316TIP3   OH279438   2.999   5.038   2.873  0.3969 -0.0082  0.2945
19316TIP3    H179439   2.930   4.976   2.847  0.7406 -0.0267 -0.6072
19316TIP3    H279440   2.959   5.089   2.944 -0.9218  0.6663 -0.8722
19317TIP3   OH279441   1.896   0.543   5.414  0.6098 -0.3022 -0.7204
19317TIP3    H179442   1.857   0.628   5.394 -0.0198 -0.4512 -0.1795
19317TIP3    H279443   1.906   0.500   5.329 -0.4723 -0.2797 -0.8694
19318TIP3   OH279444   1.812   3.565   0.165  0.5816  0.4989  0.8051
19318TIP3    H179445   1.883   3.500   0.167  0.4078  0.1576 -1.4259
19318TIP3    H279446   1.754   3.534   0.096  0.2948  2.8496 -0.0787
19319TIP3   OH279447   1.019   5.967  15.064 -0.3826  0.3014 -0.0692
19319TIP3    H179448   0.983   5.977  14.976  2.6688 -1.4190 -1.6512
19319TIP3    H279449   1.095   6.025  15.065  0.8530 -1.2813  0.6626
19320TIP3   OH279450   0.994   2.185   4.747 -0.7645  0.0292 -0.2553
19320TIP3    H179451   0.991   2.243   4.672 -0.9688  1.0622  0.5325
19320TIP3    H279452   0.916   2.130   4.739 -1.9768  1.6046  0.3481
19321TIP3   OH279453   5.914   0.762   1.876  0.6691 -0.1015  0.3013
19321TIP3    H179454   5.919   0.856   1.856 -1.9034  0.1068  0.2541
19321TIP3    H279455   5.878   0.723   1.796  1.1350 -1.0573  0.5465
19322TIP3   OH279456   2.174   2.348  15.006  0.4725  0.2106  0.1731
19322TIP3    H179457   2.250   2.404  15.022  0.2912  1.0691 -1.6195
19322TIP3    H279458   2.126   2.394  14.937 -0.4303 -1.4999 -0.3799
19323TIP3   OH279459   7.255   6.469   5.554  0.7317  0.2358  0.0209
19323TIP3    H179460   7.223   6.415   5.481  0.2400  0.5280  0.0150
19323TIP3    H279461   7.312   6.533   5.513 -0.7898  1.4083 -0.3339
19324TIP3   OH279462   0.250   4.570   1.303  0.4980 -0.7854 -0.4801
19324TIP3    H179463   0.179   4.627   1.276  0.6362 -1.3260 -2.1255
19324TIP3    H279464   0.252   4.576   1.398 -0.0316  1.2691 -0.5691
19325TIP3   OH279465   1.026   5.447   5.628 -0.2808  0.0259 -0.0620
19325TIP3    H179466   0.950   5.504   5.615 -0.2691  0.0319 -0.1049
19325TIP3    H279467   1.004   5.367   5.581 -0.1220  0.1500 -0.3578
19326TIP3   OH279468   1.540   6.763   5.038 -0.0572 -0.2880 -0.7691
19326TIP3    H179469   1.556   6.778   4.945 -1.2308  1.5182 -0.7074
19326TIP3    H279470   1.457   6.806   5.056  0.4774 -0.0220  1.2741
19327TIP3   OH279471   5.520   0.356   0.023  0.4313 -0.6530  0.4343
19327TIP3    H179472   5.473   0.416  -0.036 -0.0959  0.0455  1.5304
19327TIP3    H279473   5.451   0.300   0.059  1.0011 -2.4813 -1.1358
19328TIP3   OH279474   5.971   1.028   2.754 -0.1734 -0.5429 -0.2189
19328TIP3    H179475   6.058   1.012   2.718 -0.9779 -1.3714 -1.8947
19328TIP3    H279476   5.977   0.998   2.845  2.2109  2.6399  0.8563
19329TIP3   OH279477   6.309   6.680   3.746 -0.4326 -0.1030  0.2107
19329TIP3    H179478   6.278   6.652   3.660  0.4415 -0.9199  0.1413
19329TIP3    H279479   6.249   6.749   3.772 -0.6181  0.2776 -1.1306
19330TIP3   OH279480   3.909   3.750   0.517 -0.2980 -0.1589  0.3218
19330TIP3    H179481   3.873   3.790   0.596 -1.3506 -1.8128  0.7267
19330TIP3    H279482   3.905   3.819   0.451  0.1360  1.1023  1.5580
19331TIP3   OH279483   2.926   5.916   1.644  0.5026  0.3415  0.0269
19331TIP3    H179484   2.850   5.859   1.658  0.1981  0.7242 -0.0395
19331TIP3    H279485   2.981   5.868   1.582 -0.1890  0.5114 -0.7463
19332TIP3   OH279486   3.040   7.055   4.573  0.0160  0.3863 -0.2575
19332TIP3    H179487   3.073   7.145   4.567 -0.9048  0.6947 -0.8123
19332TIP3    H279488   3.105   7.010   4.626  0.4332  1.4092  0.1293
19333TIP3   OH279489   3.622   0.922   4.237 -0.2095 -0.1510 -0.4214
19333TIP3    H179490   3.534   0.915   4.275  0.4401  1.5062  1.5866
19333TIP3    H279491   3.637   1.016   4.230  1.0969 -0.4266 -1.5095
19334TIP3   OH279492   1.974   1.790   5.307  0.8284 -0.1230  0.1659
19334TIP3    H179493   2.002   1.706   5.344  0.3779  0.0221  0.8535
19334TIP3    H279494   2.013   1.856   5.364 -0.0623  0.0986  0.5291
19335TIP3   OH279495   6.088   6.207   4.719 -0.1227  0.1034 -0.2568
19335TIP3    H179496   6.021   6.165   4.665  0.1587 -1.3423  0.4663
19335TIP3    H279497   6.163   6.148   4.714  0.8002  1.2559 -0.3497
19336TIP3   OH279498   3.754   6.212   2.974  0.4756  0.3873 -0.0254
19336TIP3    H179499   3.701   6.291   2.981  0.7429  0.4614  1.5633
19336TIP3    H279500   3.696   6.148   2.933  0.0580  1.2172 -0.7730
19337TIP3   OH279501   0.183   3.891   1.510 -0.1399  0.2076  0.2055
19337TIP3    H179502   0.255   3.932   1.557  0.3677 -0.5740  0.1116
19337TIP3    H279503   0.164   3.811   1.559 -0.7679  0.2730  0.0800
19338TIP3   OH279504   5.939   7.197  11.844 -0.6431  0.3264 -0.3354
19338TIP3    H179505   5.945   7.131  11.914 -0.4327  3.7617  3.2351
19338TIP3    H279506   5.845   7.206  11.828 -0.6748 -0.7664 -0.8659
19339TIP3   OH279507   4.174   4.624   4.424 -0.4016  0.2689 -0.5067
19339TIP3    H179508   4.117   4.624   4.347 -1.9381  0.7135  0.5989
19339TIP3    H279509   4.214   4.711   4.425 -2.2222  1.1591  0.4635
19340TIP3   OH279510   1.109   1.685   4.009 -0.1321  0.5415 -0.0669
19340TIP3    H179511   1.174   1.660   3.944  0.3791 -0.6874  0.8787
19340TIP3    H279512   1.149   1.757   4.058  0.1214  0.4268 -0.1074
19341TIP3   OH279513   2.577   1.743   4.408 -0.0670  0.2193  0.5704
19341TIP3    H179514   2.512   1.764   4.476 -1.1099 -1.2078  0.0720
19341TIP3    H279515   2.614   1.827   4.383 -1.1445  0.9854  1.4632
19342TIP3   OH279516   1.115   0.782  14.566  0.2156  0.2132  0.2604
19342TIP3    H179517   1.140   0.846  14.499 -1.5892  0.6698 -0.0198
19342TIP3    H279518   1.119   0.698  14.521 -0.8452  0.5027 -0.4210
19343TIP3   OH279519   4.580   6.036   1.755 -0.1937  0.8054  0.4298
19343TIP3    H179520   4.673   6.033   1.733 -0.0500 -0.1511  1.0616
19343TIP3    H279521   4.563   6.127   1.780  0.6299  0.9371  0.5214
19344TIP3   OH279522   0.001   6.940   5.142  0.4951  0.7913  0.0307
19344TIP3    H179523  -0.007   7.026   5.101  0.1141  1.1158  0.7515
19344TIP3    H279524   0.076   6.948   5.200  1.8424 -0.0695 -1.5257
19345TIP3   OH279525   0.749   2.811   0.716 -0.1283 -0.2914 -0.2395
19345TIP3    H179526   0.754   2.749   0.789 -2.3891 -0.7457 -0.3759
19345TIP3    H279527   0.827   2.793   0.663 -0.4525 -2.7111 -0.0007
19346TIP3   OH279528   5.862   1.463   0.798 -0.0022  0.1629  0.2767
19346TIP3    H179529   5.852   1.418   0.882  0.5453 -0.1562  0.1742
19346TIP3    H279530   5.935   1.419   0.755 -1.2441 -0.7117 -1.0477
19347TIP3   OH279531   4.904   2.657   3.129  0.6473 -0.4024 -0.3022
19347TIP3    H179532   4.879   2.571   3.093  0.7416 -0.3561 -0.4745
19347TIP3    H279533   4.869   2.720   3.066 -0.4059 -0.2660  0.3814
19348TIP3   OH279534   1.158   3.453   2.379 -0.1184  0.3075 -0.3958
19348TIP3    H179535   1.155   3.540   2.339  3.3296  0.5242 -0.4366
19348TIP3    H279536   1.136   3.393   2.308  0.0223  1.0188 -1.0500
19349TIP3   OH279537   6.130   1.382   4.431 -0.1671  0.1206 -0.9312
19349TIP3    H179538   6.047   1.340   4.454  0.3550 -0.0167  0.9186
19349TIP3    H279539   6.190   1.309   4.416  0.6579  0.0467  1.9726
19350TIP3   OH279540   2.702   3.205   4.084 -0.0722 -0.3531  0.1180
19350TIP3    H179541   2.752   3.234   4.008  0.1270  1.2614  0.8238
19350TIP3    H279542   2.759   3.143   4.129 -0.5352 -2.0304 -1.4718
19351TIP3   OH279543   6.989   6.914   2.339 -0.0551  0.5110  0.3607
19351TIP3    H179544   6.974   6.891   2.430 -2.3516  2.0014  0.4290
19351TIP3    H279545   7.006   7.008   2.340 -2.2310  0.9824 -0.8869
19352TIP3   OH279546   1.713   0.113   4.724 -0.1671 -0.7987  0.0485
19352TIP3    H179547   1.636   0.116   4.668  0.2253 -2.8873 -0.7030
19352TIP3    H279548   1.776   0.171   4.682 -0.6159 -0.6983 -0.4909
19353TIP3   OH279549   3.045   1.358   1.372 -0.1662 -0.4131  0.1300
19353TIP3    H179550   2.967   1.358   1.427 -0.0337 -0.1020  0.3189
19353TIP3    H279551   3.117   1.375   1.432  0.1200 -1.2640  0.0493
19354TIP3   OH279552   7.095   0.459   5.004 -0.0695 -0.0823 -0.1516
19354TIP3    H179553   7.155   0.403   5.054 -0.4519 -1.2714 -1.0023
19354TIP3    H279554   7.013   0.411   5.002 -0.7719  1.0828  0.1416
19355TIP3   OH279555   2.141   3.544  14.756 -0.7194 -0.0075  1.1586
19355TIP3    H179556   2.079   3.493  14.703  0.3766 -1.2206  0.9949
19355TIP3    H279557   2.224   3.534  14.711 -0.2287  0.8954  1.8425
19356TIP3   OH279558   0.895   1.225   3.401  0.4740 -0.5597 -0.0740
19356TIP3    H179559   0.894   1.145   3.454 -1.5628 -1.7961 -1.8154
19356TIP3    H279560   0.861   1.293   3.460  1.9965 -0.9567  1.3543
19357TIP3   OH279561   4.657   1.903   4.369 -0.2819  0.0628  0.0265
19357TIP3    H179562   4.739   1.876   4.329  0.0009  1.9121 -0.7829
19357TIP3    H279563   4.595   1.906   4.296 -0.7622 -0.2026  0.4197
19358TIP3   OH279564   0.501   3.470   4.373 -0.4099  0.4465  0.6265
19358TIP3    H179565   0.538   3.462   4.285 -1.1128  0.3388  0.3365
19358TIP3    H279566   0.578   3.476   4.431  0.0561  0.3591  0.0258
19359TIP3   OH279567   1.346   3.374   4.597  0.0079  0.1964 -0.3086
19359TIP3    H179568   1.352   3.305   4.531 -0.9031  0.3762 -0.5904
19359TIP3    H279569   1.253   3.396   4.601 -0.1140 -0.5600  1.8381
19360TIP3   OH279570   2.480   3.065  15.291  0.1047  0.3173 -0.4408
19360TIP3    H179571   2.503   3.038  15.380  1.7413  0.2957 -0.8495
19360TIP3    H279572   2.409   3.005  15.266 -0.2427  0.1976  0.7709
19361TIP3   OH279573   6.015   5.396   1.270  0.4554 -0.0551 -0.1164
19361TIP3    H179574   5.981   5.312   1.301 -0.2527 -0.0570 -0.8553
19361TIP3    H279575   5.968   5.461   1.323  0.2490 -0.0972 -0.2458
19362TIP3   OH279576   0.256   5.919  14.031 -0.0703  0.3835  0.3782
19362TIP3    H179577   0.313   5.984  14.072 -0.3576  0.7258  0.2436
19362TIP3    H279578   0.305   5.837  14.037 -0.1470  0.4019  1.4951
19363TIP3   OH279579   3.086   0.465   2.264  0.0239 -0.6635  0.0920
19363TIP3    H179580   3.076   0.396   2.198 -1.1834 -0.5422  0.1240
19363TIP3    H279581   2.997   0.489   2.288  0.3295  1.9228 -0.9555
19364TIP3   OH279582   0.371   0.343   5.175  0.1093  0.0006 -0.1896
19364TIP3    H179583   0.465   0.355   5.192  0.0933 -0.4821  0.2883
19364TIP3    H279584   0.332   0.338   5.263 -0.7828  3.0847 -0.2879
19365TIP3   OH279585   3.703   0.745   3.696 -0.3652 -0.3217 -0.1434
19365TIP3    H179586   3.631   0.799   3.728  0.4124  1.2911 -1.0541
19365TIP3    H279587   3.661   0.680   3.640 -1.3271 -0.8204  1.0948
19366TIP3   OH279588   2.715   5.817  12.852 -0.1270  0.0492  0.0616
19366TIP3    H179589   2.807   5.795  12.868 -0.2697 -0.6635 -0.0824
19366TIP3    H279590   2.692   5.874  12.925  0.2735 -0.2155  0.4034
19367TIP3   OH279591   0.716   0.199   1.744 -0.0227  0.2771  0.0958
19367TIP3    H179592   0.690   0.125   1.800 -1.6340 -0.2446 -1.2599
19367TIP3    H279593   0.689   0.277   1.794 -1.7147 -0.1871 -0.0250
19368TIP3   OH279594   7.086   3.088   1.478  0.9349  0.1223  0.0843
19368TIP3    H179595   7.015   3.149   1.500  1.7637  0.7057  1.2410
19368TIP3    H279596   7.164   3.142   1.474  1.6177 -0.7930  0.7024
19369TIP3   OH279597   6.614   1.726   5.813 -0.0819  0.2716 -0.2548
19369TIP3    H179598   6.564   1.805   5.791  0.6469  0.4184 -1.4642
19369TIP3    H279599   6.703   1.757   5.827 -0.2640  0.0082  1.8934
19370TIP3   OH279600   4.924   1.636  14.138 -0.6225 -0.3660  0.6902
19370TIP3    H179601   4.879   1.720  14.128  0.6909  0.2936 -0.0666
19370TIP3    H279602   4.858   1.577  14.174 -1.5156  1.0415  1.4451
19371TIP3   OH279603   1.002   4.725   0.383 -0.1327  0.4645 -0.2733
19371TIP3    H179604   1.038   4.697   0.299  1.9420 -2.4715  1.4328
19371TIP3    H279605   1.073   4.776   0.424  0.9340 -2.3342  1.6344
19372TIP3   OH279606   0.437   1.012   2.742  0.0811  0.1784 -0.6752
19372TIP3    H179607   0.415   0.986   2.831  1.2126  2.9282  0.5433
19372TIP3    H279608   0.366   1.070   2.715  0.2001  0.0834 -1.2154
19373TIP3   OH279609   1.652   6.465   0.318 -0.7551  0.2084  0.3405
19373TIP3    H179610   1.623   6.396   0.377 -1.5511  1.3423  1.3395
19373TIP3    H279611   1.573   6.491   0.270 -0.3559  0.0676 -0.4016
19374TIP3   OH279612   4.179   4.404  14.388  0.4344 -0.3226 -0.3035
19374TIP3    H179613   4.132   4.467  14.334 -0.3473 -1.1407 -0.6167
19374TIP3    H279614   4.171   4.438  14.477 -0.2243 -0.1233 -0.4312
19375TIP3   OH279615   5.790   2.643   1.229 -0.0400  0.6511  0.0976
19375TIP3    H179616   5.883   2.656   1.211  0.2027 -0.4952  0.3787
19375TIP3    H279617   5.746   2.655   1.145  0.5196 -0.0524 -0.3023
19376TIP3   OH279618   3.499   1.846  12.920 -0.1022 -0.0380 -0.5020
19376TIP3    H179619   3.485   1.918  12.981 -0.2109  1.7888 -2.5471
19376TIP3    H279620   3.586   1.813  12.942 -0.0602  0.6792  0.5074
19377TIP3   OH279621   0.190   0.670   2.133  0.3817  0.1673  0.3434
19377TIP3    H179622   0.177   0.577   2.116 -0.8645  0.2408  0.8031
19377TIP3    H279623   0.225   0.674   2.222  1.5589  0.0976 -0.0913
19378TIP3   OH279624   5.064   2.449   3.884  0.0541 -0.2732  0.2732
19378TIP3    H179625   5.126   2.459   3.812  1.7373  0.1529  1.7290
19378TIP3    H279626   5.115   2.414   3.956 -1.5921 -0.6893  1.2951
19379TIP3   OH279627   5.645   3.533   1.681  0.2660 -0.0298  0.2725
19379TIP3    H179628   5.700   3.611   1.695 -1.3827  1.8272 -2.5476
19379TIP3    H279629   5.560   3.557   1.719 -0.6304  0.1726 -1.7357
19380TIP3   OH279630   5.833   0.750   5.100 -0.7524 -0.2825 -0.1258
19380TIP3    H179631   5.891   0.675   5.113 -0.5522 -0.3630 -1.3104
19380TIP3    H279632   5.848   0.806   5.175 -0.3400 -1.0730  0.3931
19381TIP3   OH279633   0.533   5.249   4.284 -0.0741 -0.4968 -0.0786
19381TIP3    H179634   0.465   5.287   4.228 -0.8894 -0.4826  0.8944
19381TIP3    H279635   0.493   5.171   4.321 -0.3026  0.5634  2.0433
19382TIP3   OH279636   3.524   0.278   2.270 -0.1220 -0.0470  0.3886
19382TIP3    H179637   3.517   0.359   2.220  1.6577  0.7373  1.3417
19382TIP3    H279638   3.560   0.215   2.207  0.5328  0.4857  0.2185
19383TIP3   OH279639   4.354   6.685   4.043  0.3703 -0.4689  0.4699
19383TIP3    H179640   4.261   6.707   4.037  0.5497  0.4987  0.9744
19383TIP3    H279641   4.374   6.642   3.960 -0.1793  0.7062 -0.3063
19384TIP3   OH279642   2.171   5.785   0.781 -0.7366 -0.0468 -0.5619
19384TIP3    H179643   2.257   5.806   0.744 -0.0932 -2.1985 -0.4537
19384TIP3    H279644   2.146   5.863   0.830 -0.1659  1.6925 -2.8835
19385TIP3   OH279645   3.309   5.053   4.733 -0.2755  0.6396  0.5313
19385TIP3    H179646   3.240   4.990   4.710 -0.4949  0.3257  1.9747
19385TIP3    H279647   3.351   5.015   4.810  2.4776  0.1211 -1.1093
19386TIP3   OH279648   1.153   2.061   2.853 -0.3464  0.0190 -0.5929
19386TIP3    H179649   1.247   2.061   2.838 -0.5008  1.5177 -1.8446
19386TIP3    H279650   1.115   2.027   2.772 -0.9268  1.0616 -0.7848
19387TIP3   OH279651   1.074   5.344   4.560 -0.1360 -0.0751  0.3602
19387TIP3    H179652   1.168   5.360   4.572  0.0579  1.3632 -2.3564
19387TIP3    H279653   1.042   5.323   4.648  3.0117 -2.5539  1.1166
19388TIP3   OH279654   6.487   5.714  14.684 -0.3451 -0.1772  0.0465
19388TIP3    H179655   6.448   5.713  14.772  0.9306  1.4410  0.6806
19388TIP3    H279656   6.509   5.806  14.669 -1.4405 -0.2508 -2.4275
19389TIP3   OH279657   2.374   1.174   1.042 -0.2346 -0.2106 -0.1198
19389TIP3    H179658   2.317   1.137   0.975 -1.0224  2.4413 -1.0490
19389TIP3    H279659   2.352   1.125   1.122 -0.4381 -2.3424 -1.4347
19390TIP3   OH279660   5.676   4.551   4.564 -0.5995 -0.1604 -0.0435
19390TIP3    H179661   5.660   4.472   4.513 -0.9537 -0.0942 -0.0355
19390TIP3    H279662   5.740   4.600   4.513  2.0216 -1.8550  1.4004
19391TIP3   OH279663   4.826   4.376   5.375 -0.1775 -0.1855  0.3305
19391TIP3    H179664   4.732   4.371   5.392  0.0842 -1.2290  1.5871
19391TIP3    H279665   4.832   4.409   5.285 -1.7711 -1.3864 -0.2600
19392TIP3   OH279666   3.305   5.951   3.288 -0.3015  0.3743  0.6681
19392TIP3    H179667   3.339   5.898   3.360  0.8495 -0.8737 -0.7315
19392TIP3    H279668   3.259   6.023   3.331  0.3930 -0.2940  2.6350
19393TIP3   OH279669   2.363   6.922   4.078  0.0171  0.4230 -0.0122
19393TIP3    H179670   2.283   6.884   4.115  0.8282  0.5960  2.0371
19393TIP3    H279671   2.408   6.848   4.038 -0.2619 -0.0467  0.5145
19394TIP3   OH279672   3.879   2.760   1.340 -0.1763  0.0954 -0.4432
19394TIP3    H179673   3.890   2.814   1.419  0.7869 -1.1129  0.2751
19394TIP3    H279674   3.801   2.707   1.359 -0.4551  0.4205 -0.6733
19395TIP3   OH279675   1.185   1.282   4.982 -0.1610  0.0910  0.1882
19395TIP3    H179676   1.241   1.215   4.941 -2.4760 -0.3937 -2.4356
19395TIP3    H279677   1.233   1.364   4.969  1.0432 -0.5698  0.2331
19396TIP3   OH279678   0.238   0.223   4.307  0.0253  0.4973 -0.2591
19396TIP3    H179679   0.238   0.209   4.401 -0.2857  1.9324 -0.0097
19396TIP3    H279680   0.315   0.177   4.275 -0.1896 -0.4873  0.6103
19397TIP3   OH279681   4.190   1.944   4.621 -0.5165  0.0212  0.0309
19397TIP3    H179682   4.126   1.900   4.678 -0.2539  0.0249  0.3321
19397TIP3    H279683   4.272   1.939   4.670  0.3403 -2.2734 -1.4587
19398TIP3   OH279684   1.057   5.971   0.542 -0.1752  0.2239 -0.5402
19398TIP3    H179685   1.075   5.896   0.486 -1.6164  0.4457 -1.3500
19398TIP3    H279686   1.112   6.041   0.506 -0.0636 -0.0038 -0.8178
19399TIP3   OH279687   1.435   2.750   2.044 -0.0352 -0.2183  0.1832
19399TIP3    H179688   1.382   2.753   1.965  0.1031  0.0499  0.0988
19399TIP3    H279689   1.372   2.760   2.115 -0.1189 -0.0846  0.0913
19400TIP3   OH279690   6.950   6.949   5.101  0.4246  0.3444  0.1737
19400TIP3    H179691   6.955   6.965   5.006  0.4093  0.8059  0.2471
19400TIP3    H279692   7.030   6.900   5.121 -0.0879 -0.6884 -0.2500
19401TIP3   OH279693   5.351   0.263   4.399 -0.5660 -0.2480 -0.7750
19401TIP3    H179694   5.420   0.321   4.429 -1.0629 -1.0560  2.3090
19401TIP3    H279695   5.276   0.320   4.383  0.9391  0.8345 -5.5090
19402TIP3   OH279696   2.181   0.541  15.321 -0.2501  0.2172  0.6037
19402TIP3    H179697   2.098   0.509  15.286 -0.3205  0.9726  0.0515
19402TIP3    H279698   2.191   0.496  15.405 -0.3825 -1.1757 -0.0909
19403TIP3   OH279699   5.969   4.185   0.808 -1.0729  0.1272 -0.0963
19403TIP3    H179700   5.910   4.110   0.805  0.5252 -1.2290  0.3231
19403TIP3    H279701   6.053   4.148   0.835  0.1800  1.8292 -1.4309
19404TIP3   OH279702   0.038   2.732  14.865 -0.4069  0.1245  0.1263
19404TIP3    H179703   0.055   2.766  14.777  1.5009 -1.4669 -0.1771
19404TIP3    H279704  -0.020   2.658  14.850  0.1449 -0.3195  0.1671
19405TIP3   OH279705   3.606   4.684   4.678 -0.6941  0.4509  0.2908
19405TIP3    H179706   3.537   4.623   4.704 -1.5206  0.8546 -0.8387
19405TIP3    H279707   3.630   4.656   4.590 -0.8905  1.5645 -0.1362
19406TIP3   OH279708   4.987   6.638   0.864  0.6718  0.0313 -0.3542
19406TIP3    H179709   5.061   6.613   0.919  1.9073  1.0094 -1.5047
19406TIP3    H279710   4.992   6.580   0.788  0.2486  0.1101 -0.4490
19407TIP3   OH279711   4.154   1.220   4.446 -0.2973 -0.2729  0.1913
19407TIP3    H179712   4.211   1.177   4.383  0.3604  1.5182 -0.4977
19407TIP3    H279713   4.205   1.226   4.527 -0.2499 -0.4366  0.1726
19408TIP3   OH279714   4.755   6.269   3.814 -0.0445  0.2020  0.8778
19408TIP3    H179715   4.804   6.327   3.755 -1.3193 -0.5859 -1.0699
19408TIP3    H279716   4.820   6.208   3.848  0.8462  1.1118  0.8490
19409TIP3   OH279717   0.229   3.655  13.037  0.7917  0.1590  0.1934
19409TIP3    H179718   0.240   3.591  12.966 -0.7746  1.0825 -0.9324
19409TIP3    H279719   0.262   3.737  13.000 -2.8647  1.3755 -0.7125
19410TIP3   OH279720   3.648   4.657   1.543 -0.5174 -0.5459  0.0180
19410TIP3    H179721   3.717   4.722   1.535 -0.8084  0.0344  1.7977
19410TIP3    H279722   3.691   4.574   1.524  0.3846 -0.0627 -0.0711
19411TIP3   OH279723   1.950   6.365   3.639 -0.1038  0.1347  0.6990
19411TIP3    H179724   1.911   6.305   3.702 -1.1774 -0.2422 -0.2975
19411TIP3    H279725   1.912   6.340   3.555  1.8842  0.0928 -0.2530
19412TIP3   OH279726   0.184   0.051  13.023 -0.4220 -0.2060  0.2202
19412TIP3    H179727   0.262   0.073  12.972 -0.2729  1.9245  1.2805
19412TIP3    H279728   0.144   0.135  13.044 -1.7924 -1.1478  1.5972
19413TIP3   OH279729   5.758   3.071   3.256  0.2954  0.6746 -0.0071
19413TIP3    H179730   5.678   3.022   3.276  0.2948  0.8905  0.5269
19413TIP3    H279731   5.741   3.110   3.170 -0.4892  1.3569  0.4388
19414TIP3   OH279732   1.993   1.215   0.070 -0.5111  0.7971 -0.0258
19414TIP3    H179733   2.069   1.250   0.024 -0.5934  2.4834  1.0135
19414TIP3    H279734   1.928   1.201   0.002 -0.6524  3.2780 -0.4774
19415TIP3   OH279735   0.299   4.631   4.275 -0.5900 -0.2979 -0.2694
19415TIP3    H179736   0.342   4.660   4.356  0.0186 -0.0659 -0.6705
19415TIP3    H279737   0.260   4.546   4.298  1.4114 -1.2768 -0.3126
19416TIP3   OH279738   6.927   4.086   1.435 -0.2833  0.0297 -0.4923
19416TIP3    H179739   6.873   4.157   1.470 -0.5733 -0.1480 -0.5761
19416TIP3    H279740   6.875   4.048   1.364 -0.3831 -0.6345 -0.0786
19417TIP3   OH279741   5.045   5.151   3.781 -0.3119  0.2217 -0.0931
19417TIP3    H179742   5.093   5.072   3.755  1.4533  0.8814  0.9440
19417TIP3    H279743   4.953   5.126   3.775  0.1424 -1.3252 -1.5598
19418TIP3   OH279744   2.603   2.433   2.225  0.6182 -0.0943 -0.5898
19418TIP3    H179745   2.523   2.485   2.222  0.5473 -0.0720  0.9685
19418TIP3    H279746   2.665   2.481   2.170  0.5191  1.6282  0.7189
19419TIP3   OH279747   2.273   4.579   0.104 -0.1417 -0.5293  0.2765
19419TIP3    H179748   2.328   4.606   0.177  0.0489 -2.1238  0.7683
19419TIP3    H279749   2.198   4.638   0.107  0.4676  0.2383  0.9572
19420TIP3   OH279750   6.382   5.619   0.574 -0.2899 -0.3870 -0.1715
19420TIP3    H179751   6.426   5.585   0.652 -1.3265  0.9130  1.0410
19420TIP3    H279752   6.448   5.613   0.505  0.7716 -1.2729  0.8779
19421TIP3   OH279753   7.087   4.108   4.318  0.1030 -0.2683 -0.1190
19421TIP3    H179754   6.994   4.098   4.334  0.1227 -0.8449 -0.3437
19421TIP3    H279755   7.096   4.098   4.223  0.1057  2.0713 -0.4343
19422TIP3   OH279756   5.206   4.376   1.596 -0.2553  0.2351 -0.2794
19422TIP3    H179757   5.261   4.306   1.561 -0.7760 -0.6201  0.5563
19422TIP3    H279758   5.223   4.451   1.539  0.3632 -0.5476 -1.1548
19423TIP3   OH279759   2.614   2.615   4.203  0.5830 -0.4297 -0.3825
19423TIP3    H179760   2.545   2.679   4.186  0.7339  0.9286  3.2249
19423TIP3    H279761   2.569   2.531   4.211 -0.3082  0.0356 -0.4750
19424TIP3   OH279762   5.641   6.061   5.215  0.3836 -0.0056  0.0384
19424TIP3    H179763   5.594   6.087   5.294  1.9525  1.3501  0.5700
19424TIP3    H279764   5.699   5.990   5.242 -1.5164 -1.9696 -0.7074
19425TIP3   OH279765   3.438   0.174   4.060  0.4102  0.4059  0.2386
19425TIP3    H179766   3.397   0.088   4.049 -1.6341  0.8585  3.2491
19425TIP3    H279767   3.388   0.232   4.002 -0.0125  0.0575  0.2510
19426TIP3   OH279768   5.297   3.042   4.226 -0.7268  0.2643 -0.1431
19426TIP3    H179769   5.219   3.080   4.184  0.0364  2.5810  0.3904
19426TIP3    H279770   5.362   3.037   4.156 -0.7320  0.2578 -0.1471
19427TIP3   OH279771   4.594   6.182   0.287 -0.3065  0.2921 -0.2555
19427TIP3    H179772   4.583   6.237   0.364  0.3360 -1.9372  1.5266
19427TIP3    H279773   4.685   6.195   0.261 -0.7617  1.7242 -1.2498
19428TIP3   OH279774   1.135   5.553   1.432  0.0392  0.2054  0.4762
19428TIP3    H179775   1.171   5.641   1.422 -0.1614  0.2326 -0.0086
19428TIP3    H279776   1.048   5.566   1.469  0.9061  0.0888  2.6826
19429TIP3   OH279777   6.236   5.145   2.808  0.1523 -0.6828  0.6351
19429TIP3    H179778   6.247   5.089   2.885  1.3337 -1.2679  0.0692
19429TIP3    H279779   6.142   5.145   2.791 -0.0618 -0.9489  1.7798
19430TIP3   OH279780   4.903   1.306   3.548 -0.1733  0.0066  0.3265
19430TIP3    H179781   4.835   1.359   3.589 -2.6554 -2.7121  0.0330
19430TIP3    H279782   4.915   1.344   3.461 -3.2909 -0.8642 -0.6121
19431TIP3   OH279783   2.589   3.652   0.131 -0.2754  0.5733  0.5026
19431TIP3    H179784   2.654   3.721   0.118 -0.5735  0.5979 -1.1024
19431TIP3    H279785   2.608   3.617   0.218  1.7125  0.7549  0.1913
19432TIP3   OH279786   3.872   0.097   3.725  0.1100 -0.1396  0.1276
19432TIP3    H179787   3.793   0.088   3.777  0.0546  2.3217  0.6021
19432TIP3    H279788   3.943   0.100   3.790  0.3449  0.0385 -0.1338
19433TIP3   OH279789   2.529   4.403   2.550  0.1190  0.2699 -0.0120
19433TIP3    H179790   2.519   4.432   2.640  1.7765  0.6564  0.0915
19433TIP3    H279791   2.512   4.481   2.498  0.5088  0.3928  0.0434
19434TIP3   OH279792   1.421   4.680  14.629  0.0956 -0.1278  0.3943
19434TIP3    H179793   1.482   4.700  14.700  1.3607 -2.6434  0.1519
19434TIP3    H279794   1.471   4.625  14.568 -2.2882 -2.1964  0.0821
19435TIP3   OH279795   3.241   3.394   3.048  0.1346  0.8880 -0.0345
19435TIP3    H179796   3.247   3.306   3.011 -0.5135  0.6585  0.4001
19435TIP3    H279797   3.330   3.427   3.045  0.2245  0.5888 -1.1142
19436TIP3   OH279798   6.520   2.281  13.782 -0.2868  0.1348 -0.0815
19436TIP3    H179799   6.482   2.274  13.869 -0.4109 -2.7918 -0.2536
19436TIP3    H279800   6.615   2.282  13.797 -0.2523 -1.8414  0.1262
19437TIP3   OH279801   6.978   3.263   3.396  0.3937 -0.1089  0.4988
19437TIP3    H179802   7.056   3.210   3.413  0.1570 -1.3545 -1.9072
19437TIP3    H279803   6.905   3.204   3.414  0.1133 -0.3902 -1.3749
19438TIP3   OH279804   0.387   3.871   5.583  0.0453  0.3751 -0.3127
19438TIP3    H179805   0.400   3.777   5.591 -1.3550  0.0493 -1.4551
19438TIP3    H279806   0.300   3.886   5.620  0.4345  1.2906  0.2568
19439TIP3   OH279807   0.608   6.468   0.361 -0.2406  0.1718  0.1457
19439TIP3    H179808   0.562   6.385   0.371 -0.6032  0.4403  0.8874
19439TIP3    H279809   0.699   6.445   0.348 -0.5045 -0.3626 -0.7712
19440TIP3   OH279810   0.794   1.381   3.567 -0.0473 -0.5377 -0.2524
19440TIP3    H179811   0.780   1.453   3.629  1.4291 -0.5979  0.1944
19440TIP3    H279812   0.739   1.402   3.492  0.1829  0.9495 -0.0348
19441TIP3   OH279813   5.116   1.573   5.298 -0.3433  0.6854 -0.0557
19441TIP3    H179814   5.203   1.562   5.259 -0.1092 -0.6923  0.7866
19441TIP3    H279815   5.126   1.649   5.356  0.6993 -0.2199  1.0196
19442TIP3   OH279816   1.048   1.367   1.200  0.2224  0.3513  0.3626
19442TIP3    H179817   1.095   1.329   1.274  0.4510  0.4269  0.2567
19442TIP3    H279818   1.115   1.382   1.133  0.1604  1.0499  0.4461
19443TIP3   OH279819   0.792   0.052  15.136  0.8173 -0.2179  0.4233
19443TIP3    H179820   0.725   0.114  15.164  0.8430  0.7250 -1.4617
19443TIP3    H279821   0.745  -0.008  15.078  1.3305 -0.4051  0.2030
19444TIP3   OH279822   4.020   4.785  14.033 -0.4438 -0.0425  1.1033
19444TIP3    H179823   3.993   4.875  14.010 -2.4484 -0.5312  1.3408
19444TIP3    H279824   4.012   4.737  13.951  2.9655  0.4077  0.3715
19445TIP3   OH279825   3.183   1.672   5.634  0.1653 -0.1342  0.1715
19445TIP3    H179826   3.220   1.602   5.688  0.0031 -0.1518  0.2587
19445TIP3    H279827   3.123   1.718   5.693 -0.8317 -0.8149 -0.2977
19446TIP3   OH279828   4.002   3.480  14.924  0.0965  0.2036  0.0993
19446TIP3    H179829   4.003   3.489  15.019 -1.4087  0.4610  0.1165
19446TIP3    H279830   3.952   3.556  14.894  2.3744  1.3396 -1.0749
19447TIP3   OH279831   4.106   0.134   5.197  0.2581  0.0557 -0.1050
19447TIP3    H179832   4.111   0.151   5.103  0.2998 -1.3566 -0.3761
19447TIP3    H279833   4.195   0.111   5.222 -0.2166 -2.0622 -0.2474
19448TIP3   OH279834   1.419   2.863   4.749 -0.0590  0.1075 -0.3888
19448TIP3    H179835   1.392   2.877   4.840 -1.0552 -1.1070 -0.4788
19448TIP3    H279836   1.360   2.918   4.698  0.2353  0.4717 -0.3495
19449TIP3   OH279837   0.348   0.972   3.429 -0.1792 -0.0731  0.0947
19449TIP3    H179838   0.261   0.960   3.467 -0.0259 -2.7471 -0.1873
19449TIP3    H279839   0.331   0.983   3.336 -0.2216 -0.7707  0.0158
19450TIP3   OH279840   0.169   6.370  12.510 -0.0352 -0.5521  0.0911
19450TIP3    H179841   0.169   6.457  12.469  0.4256 -0.3747  0.4605
19450TIP3    H279842   0.076   6.346  12.514 -0.1896  0.0410  0.2301
19451TIP3   OH279843   4.466   0.147   4.433  0.6450  0.3786 -0.3902
19451TIP3    H179844   4.404   0.121   4.501  0.9573 -0.2988 -0.3636
19451TIP3    H279845   4.522   0.212   4.476  1.3014 -0.5747  0.2256
19452TIP3   OH279846   3.269   5.639   0.183  0.1954 -0.2106  0.5133
19452TIP3    H179847   3.194   5.638   0.124 -0.8331 -0.1515  1.7831
19452TIP3    H279848   3.300   5.548   0.184 -1.1513 -0.6821  1.5608
19453TIP3   OH279849   1.545   6.056  14.290  0.5041 -0.2206 -0.3960
19453TIP3    H179850   1.470   6.116  14.287  0.7272  0.0515 -0.6671
19453TIP3    H279851   1.510   5.972  14.261  0.7674  0.4112 -2.7684
19454TIP3   OH279852   4.613   0.627   4.881 -0.0680  0.1414  0.4567
19454TIP3    H179853   4.616   0.680   4.801  1.8146 -1.6469 -0.7790
19454TIP3    H279854   4.527   0.643   4.918 -2.5810 -1.6204 -3.8686
19455TIP3   OH279855   3.636   2.040   4.913  0.1324 -0.1114 -0.4392
19455TIP3    H179856   3.616   2.056   5.006 -1.5346  0.2901 -0.8302
19455TIP3    H279857   3.704   1.972   4.915  1.0247  0.7523  1.0850
19456TIP3   OH279858   3.377   5.738   5.927 -0.1189  0.1062  0.1314
19456TIP3    H179859   3.398   5.804   5.861  1.8842  0.5816  1.1624
19456TIP3    H279860   3.461   5.719   5.970 -1.2473 -0.5466  2.1990
19457TIP3   OH279861   0.907   0.439   3.760  0.2018  0.1537 -0.1971
19457TIP3    H179862   0.963   0.447   3.683  1.3042  1.3034  0.6913
19457TIP3    H279863   0.827   0.486   3.737 -0.1039 -0.8051 -1.1754
19458TIP3   OH279864   3.311   7.210   2.332  0.0621  0.1264 -0.0850
19458TIP3    H179865   3.238   7.236   2.388 -1.1809 -1.9488 -0.6227
19458TIP3    H279866   3.272   7.153   2.266  1.9358  0.2450 -1.3804
19459TIP3   OH279867   2.464   4.088   1.112 -0.0958 -0.2279 -0.0405
19459TIP3    H179868   2.374   4.112   1.092 -0.7845 -1.3119  1.5132
19459TIP3    H279869   2.455   4.011   1.168  1.8455 -1.3790 -1.1953
19460TIP3   OH279870   6.247   5.099  11.472  0.1082 -0.4459  0.9215
19460TIP3    H179871   6.260   5.162  11.543 -1.9560 -0.6033  1.5054
19460TIP3    H279872   6.172   5.047  11.500 -0.0277 -1.2787 -0.8694
19461TIP3   OH279873   1.036   5.271   0.608  0.7807  0.3396 -0.0273
19461TIP3    H179874   1.102   5.280   0.540  1.8519 -0.6961  0.8484
19461TIP3    H279875   1.016   5.178   0.611  2.2623  0.0118  2.4157
19462TIP3   OH279876   7.201   4.836   4.384 -0.0377 -0.0486 -0.1013
19462TIP3    H179877   7.156   4.829   4.468 -0.8468 -0.6509 -0.5696
19462TIP3    H279878   7.147   4.897   4.333  2.7016  3.8753  1.2097
19463TIP3   OH279879   2.216   3.027   1.902 -0.3586  0.0610  0.2717
19463TIP3    H179880   2.231   3.122   1.900  0.4345 -0.0383  1.1143
19463TIP3    H279881   2.129   3.017   1.940 -0.2601  0.4338  0.5960
19464TIP3   OH279882   0.539   2.057   2.290 -0.4283  0.3944 -0.5169
19464TIP3    H179883   0.457   2.008   2.284 -0.3306  0.2480 -0.6711
19464TIP3    H279884   0.605   1.991   2.313 -0.2576  0.4097 -0.9355
19465TIP3   OH279885   6.455   6.655   4.446  0.2342 -0.0676 -0.3169
19465TIP3    H179886   6.427   6.565   4.428  2.2360 -0.8416  0.1163
19465TIP3    H279887   6.537   6.665   4.396  1.4120  0.6096  1.6277
19466TIP3   OH279888   4.979   4.143   2.923 -0.2772  0.2292  0.4227
19466TIP3    H179889   4.979   4.236   2.946 -1.1051  1.2651 -3.0617
19466TIP3    H279890   5.071   4.123   2.903  0.0079  0.0616  1.8198
19467TIP3   OH279891   0.870   4.628   3.629 -0.1031  0.3100 -0.2231
19467TIP3    H179892   0.945   4.673   3.666  0.4139 -0.4480 -0.3295
19467TIP3    H279893   0.834   4.689   3.565  1.2780  0.1304 -1.2140
19468TIP3   OH279894   1.037   3.979   0.870  0.2993  0.4667 -0.3185
19468TIP3    H179895   1.118   4.029   0.883 -0.3635  1.4391  0.1518
19468TIP3    H279896   0.971   4.028   0.917 -0.6530 -0.1210 -1.0125
19469TIP3   OH279897   7.154   0.565   4.200  0.5486  0.0442  0.2078
19469TIP3    H179898   7.188   0.633   4.258 -0.4463  1.0881 -0.3966
19469TIP3    H279899   7.090   0.610   4.145 -0.4361 -1.4552  0.0602
19470TIP3   OH279900   0.252   1.007  15.036  0.1083  0.0484 -0.0468
19470TIP3    H179901   0.253   0.927  14.985  0.5466 -0.6224  0.9688
19470TIP3    H279902   0.165   1.045  15.021 -0.1271 -0.6470 -0.4764
19471TIP3   OH279903   6.819   0.527  15.011 -0.3499  0.2220  0.1476
19471TIP3    H179904   6.874   0.521  14.933  0.7476 -0.1050  0.9272
19471TIP3    H279905   6.730   0.521  14.977  0.1017 -0.0231 -1.0685
19472TIP3   OH279906   0.527   5.111   4.947  0.2341 -0.1724 -0.1638
19472TIP3    H179907   0.538   5.206   4.941  1.7629 -0.2753  0.5585
19472TIP3    H279908   0.449   5.093   4.894 -0.0400  1.4662 -0.3815
19473TIP3   OH279909   3.325   0.561   4.118 -0.3262 -0.0960 -0.5627
19473TIP3    H179910   3.320   0.637   4.176  1.0108  0.7269 -1.4649
19473TIP3    H279911   3.386   0.588   4.049 -0.5733 -1.6514 -1.4290
19474TIP3   OH279912   2.998   5.794  13.573  0.3473  0.9901  0.6404
19474TIP3    H179913   2.912   5.826  13.544 -0.0105  0.9043  1.5718
19474TIP3    H279914   2.995   5.700  13.556  0.6877  1.1375 -0.3429
19475TIP3   OH279915   5.330   0.201  10.969  0.1241  0.3432 -0.2086
19475TIP3    H179916   5.334   0.107  10.955 -2.0629  0.2866 -0.7786
19475TIP3    H279917   5.415   0.234  10.940  1.0956 -1.4897  0.4520
19476TIP3   OH279918   6.301   5.486   2.405  0.0307 -0.1930  0.4177
19476TIP3    H179919   6.267   5.421   2.467  3.0674 -2.1253  0.2746
19476TIP3    H279920   6.380   5.520   2.447  0.1786  1.1755 -0.8794
19477TIP3   OH279921   2.041   4.803   2.605 -0.4385 -0.5683 -0.0903
19477TIP3    H179922   2.051   4.709   2.618  3.1322 -0.0398  2.3070
19477TIP3    H279923   1.990   4.832   2.680 -0.0312 -0.4136  0.1316
19478TIP3   OH279924   3.349   4.845   2.194 -0.0655 -0.1330 -0.1504
19478TIP3    H179925   3.329   4.753   2.214  0.3266 -0.1410  0.2272
19478TIP3    H279926   3.276   4.894   2.230 -0.9778 -0.3867 -1.5539
19479TIP3   OH279927   2.285   2.553   4.344 -0.7300  0.6121  0.0959
19479TIP3    H179928   2.244   2.637   4.365  0.5940  0.6003  3.3994
19479TIP3    H279929   2.217   2.488   4.362 -1.6356  0.8611 -2.1033
19480TIP3   OH279930   2.146   5.200   3.168  0.3849  0.7410  0.0095
19480TIP3    H179931   2.061   5.215   3.209  0.3745  1.3847 -0.2367
19480TIP3    H279932   2.176   5.287   3.140  0.0878  0.2677 -1.9355
19481TIP3   OH279933   6.840   0.301   4.542 -0.3357  0.2851  0.1348
19481TIP3    H179934   6.893   0.381   4.540  0.2898 -0.1209  0.1365
19481TIP3    H279935   6.852   0.268   4.631 -1.3218  0.6599  0.4222
19482TIP3   OH279936   0.224   4.917  12.899  0.0743 -0.0354 -0.3698
19482TIP3    H179937   0.192   4.844  12.952 -0.1627 -0.3602 -0.9521
19482TIP3    H279938   0.310   4.937  12.934 -0.4986  0.4313  0.8117
19483TIP3   OH279939   3.309   4.262   0.361 -0.3098 -0.3707  0.5168
19483TIP3    H179940   3.377   4.324   0.335 -0.7189  0.8585  2.1820
19483TIP3    H279941   3.341   4.225   0.443 -0.4236 -1.8310 -0.0709
19484TIP3   OH279942   6.724   1.097   1.165  0.1376 -0.6211  0.2554
19484TIP3    H179943   6.729   1.007   1.135  0.7571 -0.7579  0.7568
19484TIP3    H279944   6.638   1.104   1.206 -0.4484 -0.6137 -0.9304
19485TIP3   OH279945   1.467   1.053   1.077  0.8518  0.0028  0.4854
19485TIP3    H179946   1.468   0.960   1.055  1.0492 -0.2308  1.4119
19485TIP3    H279947   1.525   1.060   1.153 -0.6329  0.5491  1.6275
19486TIP3   OH279948   2.052   2.057   3.513  0.0313  0.4561  0.1625
19486TIP3    H179949   2.035   2.045   3.607  2.5226 -0.1692  0.6112
19486TIP3    H279950   2.007   1.984   3.471 -1.1191  0.7445  0.8382
19487TIP3   OH279951   4.533   2.557   5.536  0.4421 -0.4682 -0.7239
19487TIP3    H179952   4.621   2.592   5.521  0.4555 -0.2700 -0.2051
19487TIP3    H279953   4.475   2.619   5.492  0.4293  0.5268  0.6241
19488TIP3   OH279954   6.932   0.510   5.660  0.3855 -0.4880  0.2830
19488TIP3    H179955   6.897   0.598   5.673 -0.6655 -0.2841 -2.9121
19488TIP3    H279956   7.007   0.504   5.719  1.3146  3.0522 -0.3143
19489TIP3   OH279957   1.815   3.816   1.182 -0.3728 -0.0141 -0.5720
19489TIP3    H179958   1.843   3.770   1.262 -0.8879 -1.5091 -1.2279
19489TIP3    H279959   1.897   3.843   1.141  0.0141 -1.5079 -0.8302
19490TIP3   OH279960   7.005   5.174   5.564  0.0628 -0.0830 -0.0736
19490TIP3    H179961   6.993   5.269   5.562 -1.2805 -0.2334 -0.1287
19490TIP3    H279962   6.933   5.143   5.619  0.8498 -1.0251  0.4493
19491TIP3   OH279963   5.344   3.038   2.333  0.1634  0.1991  0.5609
19491TIP3    H179964   5.355   3.068   2.243 -1.1796 -0.2385  0.2195
19491TIP3    H279965   5.428   3.056   2.375  0.6817  0.7773 -0.6664
19492TIP3   OH279966   0.873   2.121   5.168 -0.4777  0.0417  0.3792
19492TIP3    H179967   0.803   2.112   5.232 -0.5481 -2.1609  0.0680
19492TIP3    H279968   0.868   2.212   5.139 -2.7129  0.1325  0.9224
19493TIP3   OH279969   1.410   4.982   3.945 -0.5210  0.0063  0.1296
19493TIP3    H179970   1.465   4.967   4.022 -0.7549 -0.7566  0.1609
19493TIP3    H279971   1.471   4.998   3.873 -0.1351 -2.8354 -0.2680
19494TIP3   OH279972   2.549   0.401  15.252  0.1704  0.1811 -0.7240
19494TIP3    H179973   2.578   0.403  15.343  1.1400 -3.2877 -0.8227
19494TIP3    H279974   2.627   0.420  15.201  0.6174 -1.7556 -0.8368
19495TIP3   OH279975   5.367   2.111   0.810  0.6535 -0.6444  0.0335
19495TIP3    H179976   5.331   2.048   0.747 -0.2564  1.1154 -1.3029
19495TIP3    H279977   5.291   2.145   0.857  0.9303  0.4618 -0.2724
19496TIP3   OH279978   5.751   7.071   3.202  0.6596 -0.5754 -0.9170
19496TIP3    H179979   5.680   7.024   3.246  0.4477 -1.8600 -2.5629
19496TIP3    H279980   5.707   7.138   3.150  0.9424  1.3356  1.1252
19497TIP3   OH279981   6.271   6.628   4.749 -0.3333 -0.2960  0.6241
19497TIP3    H179982   6.220   6.600   4.673 -0.2788 -0.0318  0.4888
19497TIP3    H279983   6.336   6.558   4.761  1.2740  0.7973 -1.0984
19498TIP3   OH279984   3.165   4.853   1.211  0.1094  0.8331 -0.0972
19498TIP3    H179985   3.142   4.844   1.303  1.1739 -1.1397  0.0251
19498TIP3    H279986   3.106   4.793   1.165 -0.2265  1.5934 -0.6860
19499TIP3   OH279987   2.143   6.755   4.145  0.8008  0.8619 -0.0485
19499TIP3    H179988   2.117   6.757   4.238 -0.0640  0.7607 -0.2821
19499TIP3    H279989   2.161   6.663   4.127 -3.6223 -0.0156 -1.1721
19500TIP3   OH279990   1.575   2.283  10.327 -0.1098  0.4344  0.1168
19500TIP3    H179991   1.513   2.322  10.389 -1.8441 -1.1820 -0.5180
19500TIP3    H279992   1.549   2.319  10.242  0.8442  0.9394  0.0256
19501TIP3   OH279993   2.945   4.232   4.478 -0.6530 -0.7640 -0.0412
19501TIP3    H179994   2.997   4.159   4.512  0.8738 -0.2951 -1.2059
19501TIP3    H279995   2.973   4.240   4.386 -0.5783  1.4226  0.1063
19502TIP3   OH279996   5.488   1.428  14.813 -0.3833 -0.1124  0.3057
19502TIP3    H179997   5.424   1.446  14.882 -0.5019  1.1643 -0.1080
19502TIP3    H279998   5.440   1.440  14.732 -0.4485 -2.3761 -0.0341
19503TIP3   OH279999   3.548   0.843   1.882  0.3390  0.1725 -0.2191
19503TIP3    H180000   3.485   0.901   1.926  1.6142  1.0371  0.5347
19503TIP3    H280001   3.531   0.857   1.788 -0.8085  0.1158 -0.0407
19504TIP3   OH280002   4.104   6.997  15.013 -0.4142  0.1579 -0.4151
19504TIP3    H180003   4.180   7.052  14.992  0.3785 -1.1138 -1.0552
19504TIP3    H280004   4.129   6.910  14.983 -1.6036 -0.5774  0.6015
19505TIP3   OH280005   5.580   0.196   3.530 -0.0893  0.8133 -0.1159
19505TIP3    H180006   5.649   0.167   3.590  0.9760  0.1241 -1.6009
19505TIP3    H280007   5.614   0.277   3.493 -0.6725  1.1552  0.0912
19506TIP3   OH280008   5.301   0.097   3.650 -0.7885  0.5734  0.0818
19506TIP3    H180009   5.253   0.110   3.568  1.3098 -0.0978 -1.3465
19506TIP3    H280010   5.391   0.125   3.629  0.1309 -0.9885  1.7011
19507TIP3   OH280011   0.003   7.088   0.880  0.3458  1.0167  0.1766
19507TIP3    H180012  -0.007   7.178   0.912  2.7202  1.0736  0.9653
19507TIP3    H280013   0.064   7.096   0.806 -0.3434  0.1594 -0.5144
19508TIP3   OH280014   2.177   0.852   9.565  0.0712  0.1053  0.2940
19508TIP3    H180015   2.118   0.882   9.495  1.4842  1.2706 -0.4478
19508TIP3    H280016   2.246   0.804   9.519 -0.0610 -0.8889  1.1114
19509TIP3   OH280017   0.419   2.043   3.459 -0.1377  0.3659 -0.5430
19509TIP3    H180018   0.350   2.010   3.402 -0.4025 -1.6504  0.8319
19509TIP3    H280019   0.396   2.009   3.546  1.2572  1.7394  0.4193
19510TIP3   OH280020   6.376   4.278   4.738 -0.1122  0.3052 -0.1156
19510TIP3    H180021   6.286   4.309   4.735 -0.1065  0.3996  0.5695
19510TIP3    H280022   6.422   4.343   4.792  0.2133 -0.0998  0.0999
19511TIP3   OH280023   4.021   3.060   5.310  0.2155 -0.2572  0.1278
19511TIP3    H180024   4.022   3.123   5.238 -0.1207 -0.9779 -0.5263
19511TIP3    H280025   4.104   3.074   5.355  1.3727 -1.1359 -1.6119
19512TIP3   OH280026   2.380   5.727   5.487 -0.0071  0.1543  0.3023
19512TIP3    H180027   2.339   5.809   5.514  1.2124  1.7908 -2.4988
19512TIP3    H280028   2.353   5.715   5.396  3.0640 -0.4084 -0.6185
19513TIP3   OH280029   6.188   3.641   5.350  0.4170 -0.3091  0.0517
19513TIP3    H180030   6.097   3.662   5.330  0.3584 -0.0884  0.5386
19513TIP3    H280031   6.214   3.706   5.416  0.9868 -0.2448 -0.2298
19514TIP3   OH280032   0.001   6.607   3.086  0.0147  0.1113 -0.3421
19514TIP3    H180033   0.086   6.580   3.121 -1.3531 -1.2814  2.1957
19514TIP3    H280034   0.004   6.703   3.085  1.6681  0.0870 -0.5573
19515TIP3   OH280035   3.486   1.144   1.683  0.4047 -0.3766 -0.6644
19515TIP3    H180036   3.563   1.108   1.727 -0.0992  0.1421  0.6978
19515TIP3    H280037   3.510   1.235   1.664 -0.4582  0.3122  1.3407
19516TIP3   OH280038   6.319   4.830   1.392  0.4479 -0.1838  0.2506
19516TIP3    H180039   6.303   4.832   1.298  1.0161  1.0555  0.1651
19516TIP3    H280040   6.348   4.919   1.414  0.1002 -0.3897  1.6364
19517TIP3   OH280041   6.896   3.289  12.761  0.8436 -0.3601  0.2382
19517TIP3    H180042   6.909   3.198  12.735 -0.7028 -1.4695  2.8944
19517TIP3    H280043   6.806   3.309  12.736  1.5959  0.9780 -1.5890
19518TIP3   OH280044   3.639   4.992   3.977 -0.0737  0.3208  0.3471
19518TIP3    H180045   3.570   5.005   3.912  1.8839 -0.1078 -1.9389
19518TIP3    H280046   3.661   4.899   3.969 -2.9218 -1.1236  5.0869
19519TIP3   OH280047   1.365   2.323  13.543  0.8937  0.3190  0.2447
19519TIP3    H180048   1.319   2.324  13.459 -1.1194  0.6540  1.2712
19519TIP3    H280049   1.354   2.234  13.575  0.7281  0.4715  0.6149
19520TIP3   OH280050   6.070   1.686   4.010  0.4902 -0.1668 -0.0105
19520TIP3    H180051   6.145   1.743   4.019  0.2524  0.0533  0.6600
19520TIP3    H280052   6.017   1.726   3.941  1.1636 -0.5283 -0.7425
19521TIP3   OH280053   3.076   3.551  13.782 -0.0188 -0.1077 -0.2953
19521TIP3    H180054   3.004   3.511  13.734  1.5054 -2.8088 -0.5121
19521TIP3    H280055   3.043   3.559  13.872 -0.7512 -0.8244 -0.4880
19522TIP3   OH280056   5.255   5.472   0.452 -0.0025  0.0147  0.4972
19522TIP3    H180057   5.204   5.510   0.380  1.8812  1.4052 -0.2102
19522TIP3    H280058   5.236   5.529   0.527 -0.1621 -0.0132  0.4788
19523TIP3   OH280059   1.835   5.973   5.338 -0.1362 -0.1231 -0.5063
19523TIP3    H180060   1.768   5.921   5.382 -0.3928  0.7580  0.1816
19523TIP3    H280061   1.902   5.910   5.312 -0.8133 -0.8913 -0.4064
19524TIP3   OH280062   4.313   1.576   5.600  0.0599  0.1283  0.6957
19524TIP3    H180063   4.282   1.653   5.646 -2.3695  0.7015 -1.6489
19524TIP3    H280064   4.282   1.587   5.510  0.8194 -2.9289 -0.0731
19525TIP3   OH280065   0.923   2.892   5.151  0.4614  0.1800 -0.3326
19525TIP3    H180066   0.856   2.936   5.100 -2.3147 -0.3138  2.5766
19525TIP3    H280067   0.967   2.963   5.199 -1.2051  0.2326  1.2210
19526TIP3   OH280068   2.770   0.347   5.142  0.2158 -0.1084  0.3737
19526TIP3    H180069   2.796   0.437   5.121 -1.6985  0.2204 -0.8399
19526TIP3    H280070   2.675   0.348   5.136  0.0425 -1.8278  2.0942
19527TIP3   OH280071   2.969   6.781   4.836 -0.0777 -0.3689 -0.0408
19527TIP3    H180072   2.908   6.853   4.852  0.2335 -0.1848  0.3291
19527TIP3    H280073   2.934   6.707   4.885  1.5126  0.5070  2.6480
19528TIP3   OH280074   5.881   0.541   2.344 -0.5182  0.2051  0.7048
19528TIP3    H180075   5.800   0.585   2.368 -0.3671  0.8395  0.1018
19528TIP3    H280076   5.870   0.518   2.252  0.2288  0.8970  0.4213
19529TIP3   OH280077   6.850   1.977   3.950 -0.4148 -0.2090  0.4798
19529TIP3    H180078   6.929   2.019   3.985 -0.3489 -0.6452  0.8658
19529TIP3    H280079   6.778   2.023   3.993 -0.3202 -1.3305  1.9177
19530TIP3   OH280080   4.211   2.326   2.007 -0.1532  0.6107  0.2389
19530TIP3    H180081   4.124   2.309   1.971 -0.0431 -1.0748  0.6741
19530TIP3    H280082   4.232   2.415   1.978 -1.1302  0.2710 -1.6746
19531TIP3   OH280083   4.625   4.017   1.010 -0.0004  0.1949 -0.1208
19531TIP3    H180084   4.698   4.053   1.060 -0.4779  0.4808  0.3836
19531TIP3    H280085   4.635   3.922   1.017  1.0101  0.2091 -1.0798
19532TIP3   OH280086   0.382   0.570  13.113  0.1347 -0.3140 -1.1156
19532TIP3    H180087   0.439   0.622  13.169 -0.7961 -0.0202 -0.4207
19532TIP3    H280088   0.339   0.635  13.056  1.5099 -0.6523 -2.6273
19533TIP3   OH280089   4.570   5.127   4.914  0.2077 -0.1040  0.2006
19533TIP3    H180090   4.563   5.207   4.861 -0.5640 -0.7367 -0.6973
19533TIP3    H280091   4.640   5.077   4.872  0.4466 -0.0528  0.5414
19534TIP3   OH280092   1.218   4.135   1.936  0.6055  0.2182 -0.1864
19534TIP3    H180093   1.250   4.200   1.998  0.7787 -0.1073  0.0686
19534TIP3    H280094   1.274   4.145   1.859 -0.8810  2.0078 -1.1213
19535TIP3   OH280095   0.042   5.893   2.114  0.6155  0.0764 -0.5145
19535TIP3    H180096   0.027   5.956   2.044  3.3415  0.3080 -0.9886
19535TIP3    H280097   0.015   5.809   2.076 -2.2683  0.7330 -0.1534
19536TIP3   OH280098   0.858   1.359   2.702  0.2770 -0.2230 -0.2468
19536TIP3    H180099   0.778   1.382   2.750  1.2620  1.0222  0.8966
19536TIP3    H280100   0.916   1.323   2.769  1.3917  0.7707 -0.6512
19537TIP3   OH280101   5.689   2.091   1.241  0.0382  0.2518  0.5507
19537TIP3    H180102   5.731   2.177   1.240 -1.1688  0.9015 -1.4118
19537TIP3    H280103   5.757   2.032   1.207  0.5887  0.5761  1.0579
19538TIP3   OH280104   6.396   5.248   0.923 -0.2228  0.1370  0.3911
19538TIP3    H180105   6.391   5.252   1.019  1.8865  2.2023  0.4855
19538TIP3    H280106   6.386   5.338   0.894 -0.6895 -0.4344 -1.3781
19539TIP3   OH280107   2.459   6.558   4.366  0.2868  0.1147 -0.0455
19539TIP3    H180108   2.417   6.538   4.450  2.3331  2.1362  1.6319
19539TIP3    H280109   2.492   6.474   4.335 -1.7780 -0.9154  0.3882
19540TIP3   OH280110   0.649   4.615   4.669  0.3724  0.1427  0.0167
19540TIP3    H180111   0.628   4.708   4.677 -0.2948 -0.0172  0.1669
19540TIP3    H280112   0.739   4.608   4.701  0.2349  0.6517  0.5308
19541TIP3   OH280113   2.622   3.225   0.996 -0.1903  0.4849  0.2664
19541TIP3    H180114   2.526   3.226   0.995 -0.2822  0.4031  2.6740
19541TIP3    H280115   2.647   3.317   0.994 -0.4338  0.6068  1.6674
19542TIP3   OH280116   0.214   6.549   1.157 -0.8946  0.0016 -0.5834
19542TIP3    H180117   0.208   6.624   1.098 -1.4068 -1.2762 -2.2301
19542TIP3    H280118   0.154   6.570   1.229 -0.0708  1.7011 -0.3346
19543TIP3   OH280119   2.645   5.282   2.746  0.0869 -0.2292  0.3586
19543TIP3    H180120   2.605   5.348   2.689  1.0162  1.2585  1.3608
19543TIP3    H280121   2.702   5.232   2.689 -0.6048 -0.1549 -0.4184
19544TIP3   OH280122   2.892   2.081  13.930  0.5050  0.1602 -0.4333
19544TIP3    H180123   2.829   2.146  13.961  0.5747  0.7191 -1.4544
19544TIP3    H280124   2.974   2.105  13.973 -0.1062 -1.0631  1.5699
19545TIP3   OH280125   3.456   0.412   3.346 -0.7845  0.1266  0.5911
19545TIP3    H180126   3.395   0.464   3.293 -0.8383  0.1851  0.7115
19545TIP3    H280127   3.529   0.394   3.287 -1.3984 -0.8683  0.0938
19546TIP3   OH280128   7.096   1.771   4.070  0.2072  0.4307  0.8839
19546TIP3    H180129   7.041   1.717   4.126  1.0710 -2.3514 -0.7886
19546TIP3    H280130   7.081   1.738   3.982  0.4756  3.2690 -0.3455
19547TIP3   OH280131   4.641   3.554   1.990  0.2996  0.1395 -0.4229
19547TIP3    H180132   4.700   3.629   1.999  0.4954 -0.1216  0.6991
19547TIP3    H280133   4.699   3.480   1.971  0.2443  0.0401 -0.2051
19548TIP3   OH280134   7.160   6.447   0.711 -0.0582 -0.2067 -0.1231
19548TIP3    H180135   7.208   6.480   0.635  0.1112 -1.3002 -0.5088
19548TIP3    H280136   7.226   6.442   0.780 -0.3820  1.5501  0.3567
19549TIP3   OH280137   7.217   1.462   2.262  0.1876 -0.2678  0.0583
19549TIP3    H180138   7.200   1.501   2.348  2.1678  4.0082 -1.2244
19549TIP3    H280139   7.154   1.504   2.204  1.4895  0.0029 -1.2051
19550TIP3   OH280140   3.916   1.095   3.544 -0.4383 -0.1276 -0.3361
19550TIP3    H180141   3.863   1.161   3.499 -1.2112 -0.4909  0.0227
19550TIP3    H280142   3.982   1.068   3.479 -0.4029  0.6545 -0.6358
19551TIP3   OH280143   1.660   4.935   5.556  0.0763  0.1362 -0.0974
19551TIP3    H180144   1.604   4.861   5.533  0.4979 -0.4332  0.6510
19551TIP3    H280145   1.712   4.904   5.630 -0.3326  1.4798  0.7885
19552TIP3   OH280146   5.679   7.182   4.365 -0.2526 -0.0004  0.3559
19552TIP3    H180147   5.598   7.207   4.320  0.5875  3.1196  0.3670
19552TIP3    H280148   5.719   7.118   4.306 -2.2927 -1.0061 -0.0373
19553TIP3   OH280149   6.438   2.463   2.002 -0.3024 -0.0630 -0.3215
19553TIP3    H180150   6.430   2.553   1.971 -0.8207  0.3435  0.9450
19553TIP3    H280151   6.352   2.442   2.039  0.4595 -0.2901  1.3986
19554TIP3   OH280152   3.317   0.178   1.597  0.4151  0.0005 -0.2826
19554TIP3    H180153   3.334   0.086   1.618 -1.1681 -0.3359 -0.3529
19554TIP3    H280154   3.247   0.204   1.656  0.5841  1.0610 -0.5229
19555TIP3   OH280155   4.684   4.125   5.533  0.1608 -0.8353 -0.4733
19555TIP3    H180156   4.634   4.124   5.614  0.4583 -0.4703 -0.2819
19555TIP3    H280157   4.747   4.196   5.544 -0.0286 -0.5477 -1.1647
19556TIP3   OH280158   3.730   5.601   2.148 -0.0185  0.2606  0.8879
19556TIP3    H180159   3.716   5.647   2.231 -1.1935 -2.0030  2.0658
19556TIP3    H280160   3.817   5.562   2.156  0.3928  1.0810  0.4924
19557TIP3   OH280161   2.494   3.377  14.406  0.1016 -0.4852 -1.0463
19557TIP3    H180162   2.578   3.399  14.364  0.7847  0.0351  0.5088
19557TIP3    H280163   2.513   3.298  14.457  0.2042  0.6482  0.7869
19558TIP3   OH280164   6.850   4.936   5.088  0.0501  0.1996 -0.1449
19558TIP3    H180165   6.862   4.860   5.145 -0.8931 -0.9048 -1.3555
19558TIP3    H280166   6.823   5.006   5.147 -0.4078 -0.7624  0.8303
19559TIP3   OH280167   1.571   0.273  14.690 -0.0433  0.0260  0.2906
19559TIP3    H180168   1.641   0.243  14.631 -0.5099 -0.7347  0.1117
19559TIP3    H280169   1.513   0.197  14.699 -0.2043  0.2693  1.4008
19560TIP3   OH280170   3.679   7.088   1.683 -0.4203  0.3611 -0.4383
19560TIP3    H180171   3.599   7.060   1.639 -0.5297  0.2616 -0.1782
19560TIP3    H280172   3.723   7.145   1.620 -2.0453  2.7411  0.4185
19561TIP3   OH280173   5.827   6.443   0.657 -0.2187 -0.5551 -0.0891
19561TIP3    H180174   5.776   6.519   0.686  0.6557 -0.5317  1.4808
19561TIP3    H280175   5.785   6.416   0.576 -1.7144  0.4670  0.3013
19562TIP3   OH280176   3.026   1.036   3.676  0.5552 -0.2472  0.7688
19562TIP3    H180177   2.931   1.024   3.689  0.4568  0.2085  0.4813
19562TIP3    H280178   3.053   0.957   3.629 -0.1685  0.7507 -1.4541
19563TIP3   OH280179   3.394   6.255   4.037  0.0061  0.2378  0.0538
19563TIP3    H180180   3.424   6.270   3.947 -0.9106 -0.6078 -0.4167
19563TIP3    H280181   3.343   6.333   4.059 -0.3618  0.1382 -0.4308
19564TIP3   OH280182   3.089   2.874   3.099  0.0587 -0.0424  0.3419
19564TIP3    H180183   3.004   2.875   3.057  0.2886  1.0986 -0.1367
19564TIP3    H280184   3.078   2.927   3.178  0.7025  1.5304 -0.5693
19565TIP3   OH280185   0.871   4.067   5.642  0.3217 -0.1050 -0.0718
19565TIP3    H180186   0.795   4.032   5.688 -0.4235  0.2500 -1.0237
19565TIP3    H280187   0.846   4.156   5.617  0.2074 -0.6863 -2.2380
19566TIP3   OH280188   2.460   3.610   5.419 -0.4114  0.0889  0.5754
19566TIP3    H180189   2.518   3.570   5.354 -0.8194 -0.3270  0.4640
19566TIP3    H280190   2.511   3.682   5.456  0.1316 -0.1957  0.3879
19567TIP3   OH280191   0.802   1.031   5.678  0.3079 -0.0707 -0.1368
19567TIP3    H180192   0.829   1.123   5.680  0.4552 -0.0657 -1.5703
19567TIP3    H280193   0.722   1.029   5.730  0.6191  0.7527  0.4060
19568TIP3   OH280194   6.474   6.950   4.729  0.2023  0.6004 -0.4257
19568TIP3    H180195   6.510   7.037   4.716  1.4091 -0.0804 -2.0640
19568TIP3    H280196   6.495   6.903   4.648  0.0602 -1.3645  0.6093
19569TIP3   OH280197   2.430   6.615   1.790  0.1279 -0.5381  0.0801
19569TIP3    H180198   2.374   6.572   1.854 -0.7997 -0.6175 -0.7630
19569TIP3    H280199   2.377   6.686   1.754  0.7282 -0.3139 -0.3993
19570TIP3   OH280200   2.705   2.082   5.263 -0.1467 -0.2861  0.0418
19570TIP3    H180201   2.651   2.103   5.186  0.8634 -1.0520 -0.9010
19570TIP3    H280202   2.691   1.989   5.277 -0.0843 -0.2137  0.6111
19571TIP3   OH280203   3.531   3.418   1.561 -0.2650  0.5046 -0.3996
19571TIP3    H180204   3.614   3.417   1.512  0.0675 -1.4928  0.0786
19571TIP3    H280205   3.557   3.438   1.651 -0.3245  0.2474 -0.3223
19572TIP3   OH280206   5.059   3.051   0.317 -0.1524  0.2696  0.4120
19572TIP3    H180207   5.110   3.113   0.264 -1.6781  1.8565  0.7106
19572TIP3    H280208   4.983   3.031   0.263 -1.3052  1.2503  1.5918
19573TIP3   OH280209   6.253   4.307   0.011  0.0200  0.1822  0.1894
19573TIP3    H180210   6.317   4.237  -0.002 -1.4615 -1.4397  1.1513
19573TIP3    H280211   6.171   4.270  -0.022 -0.4570  2.2244 -1.0710
19574TIP3   OH280212   2.365   5.354   1.411  0.5467  0.3405 -0.0498
19574TIP3    H180213   2.384   5.346   1.505  0.6223  0.8188 -0.0183
19574TIP3    H280214   2.416   5.284   1.370 -1.4423 -1.5299  0.4763
19575TIP3   OH280215   1.982   1.681   4.449  0.0770  0.4671 -0.1981
19575TIP3    H180216   1.940   1.596   4.458 -0.3697  0.8558  2.2236
19575TIP3    H280217   2.075   1.663   4.459  0.6906 -0.3144 -4.9688
19576TIP3   OH280218   4.741   0.376  12.830 -0.0768 -0.2142 -0.3037
19576TIP3    H180219   4.775   0.296  12.789 -0.5409 -0.4960 -0.1374
19576TIP3    H280220   4.669   0.346  12.885 -0.9883  0.4539 -1.1153
19577TIP3   OH280221   0.858   2.518   4.739  0.0055  0.1726  0.6293
19577TIP3    H180222   0.800   2.594   4.747 -1.3446 -0.7885  0.2025
19577TIP3    H280223   0.827   2.457   4.806  1.8691  0.4310  1.8298
19578TIP3   OH280224   3.724   1.379   4.515 -0.2466 -0.7520  0.1736
19578TIP3    H180225   3.782   1.314   4.476 -1.4128 -1.6859 -0.0342
19578TIP3    H280226   3.714   1.352   4.606 -0.9787 -1.0641  0.0107
19579TIP3   OH280227   3.030   2.279   5.760  0.4312 -0.1859  0.2874
19579TIP3    H180228   3.072   2.206   5.807 -1.8305 -0.5716  1.8650
19579TIP3    H280229   2.986   2.238   5.686 -0.0186 -0.3058  0.6148
19580TIP3   OH280230   2.266   5.320   4.946  0.1024 -0.5839 -0.6353
19580TIP3    H180231   2.184   5.351   4.906 -0.9336 -0.9949  1.0571
19580TIP3    H280232   2.286   5.240   4.899 -1.2855 -1.2474 -0.1603
19581TIP3   OH280233   2.592   6.869   0.932 -0.0958 -0.1041  0.0399
19581TIP3    H180234   2.623   6.824   0.853 -0.3164  0.6822 -0.4989
19581TIP3    H280235   2.500   6.845   0.939  0.3166 -1.5578  1.0354
19582TIP3   OH280236   1.484   7.204   0.102 -0.5849 -0.3294  0.1360
19582TIP3    H180237   1.578   7.190   0.087 -0.0596  2.2131  0.4197
19582TIP3    H280238   1.457   7.262   0.031 -1.2433  1.1346  1.5010
19583TIP3   OH280239   1.759   4.538   3.360  0.5384 -0.0345  0.2593
19583TIP3    H180240   1.713   4.467   3.315 -1.6193  0.4630  1.4855
19583TIP3    H280241   1.745   4.519   3.453  2.2202  0.5858  0.6637
19584TIP3   OH280242   4.591   4.193   4.528 -0.4371 -0.3519 -0.5735
19584TIP3    H180243   4.597   4.142   4.609 -2.0501  1.2513  0.6284
19584TIP3    H280244   4.501   4.225   4.527 -0.5329 -0.5261 -3.1782
19585TIP3   OH280245   3.335   6.031  13.787 -0.2178  0.3652 -0.4459
19585TIP3    H180246   3.341   6.112  13.838 -0.4142 -0.7352  1.4105
19585TIP3    H280247   3.257   5.987  13.821  0.2897 -0.9407 -0.9120
19586TIP3   OH280248   1.695   6.449   3.868 -0.1485  1.2455  0.3199
19586TIP3    H180249   1.758   6.514   3.837 -0.1811  0.1711 -2.1765
19586TIP3    H280250   1.614   6.468   3.821 -0.2612 -0.3479 -0.1901
19587TIP3   OH280251   4.224   6.396   3.632  0.0851 -0.5006  0.5536
19587TIP3    H180252   4.223   6.414   3.538  0.9014  1.5971  0.9062
19587TIP3    H280253   4.138   6.425   3.663  0.3042  0.0477  0.6549
19588TIP3   OH280254   6.141   5.998   2.201 -0.1577  0.0054  0.1714
19588TIP3    H180255   6.113   6.084   2.231 -2.3644 -0.2004 -1.0702
19588TIP3    H280256   6.070   5.939   2.229  0.6065 -1.1674 -0.2653
19589TIP3   OH280257   4.224   1.970   2.050 -0.3537  0.5087  0.7173
19589TIP3    H180258   4.274   2.037   2.096  0.1312  0.4313  0.3155
19589TIP3    H280259   4.133   1.991   2.068 -0.2502  1.7605 -0.0657
19590TIP3   OH280260   0.926   6.432   3.695 -0.1501 -0.3579  0.1635
19590TIP3    H180261   0.907   6.438   3.601  0.2381 -1.2384  0.0242
19590TIP3    H280262   0.964   6.345   3.707 -1.1536 -0.6627  1.3183
19591TIP3   OH280263   5.431   6.961   5.606 -0.3730 -0.3664 -0.2486
19591TIP3    H180264   5.407   6.939   5.516  1.2049 -1.1523 -0.5189
19591TIP3    H280265   5.465   6.879   5.642  1.8560  0.6015  0.0436
19592TIP3   OH280266   3.094   1.618   2.123 -0.3172  0.0624 -0.2574
19592TIP3    H180267   3.063   1.606   2.213 -1.3333 -1.5862 -0.7803
19592TIP3    H280268   3.108   1.712   2.116 -1.0298  0.3408  1.3730
19593TIP3   OH280269   1.347   5.040  15.104  0.1245  0.6304  0.2837
19593TIP3    H180270   1.435   5.024  15.068  0.2548  1.4964  0.1707
19593TIP3    H280271   1.287   5.006  15.039  0.3360  3.0471 -1.3158
19594TIP3   OH280272   3.984   2.129   0.354  0.0292  0.1437  0.1725
19594TIP3    H180273   3.954   2.213   0.321 -1.5791 -0.4723 -0.0161
19594TIP3    H280274   3.913   2.099   0.411  1.7307  0.1418  2.4454
19595TIP3   OH280275   6.960   6.340   2.579 -0.1303  0.0467 -0.1718
19595TIP3    H180276   7.025   6.332   2.509 -0.6392  0.9248 -0.7713
19595TIP3    H280277   7.009   6.370   2.655  0.0676  1.4804 -0.8347
19596TIP3   OH280278   1.459   1.329   1.542  0.1347 -0.0421 -0.1965
19596TIP3    H180279   1.502   1.247   1.568  0.0866  0.1144  0.3914
19596TIP3    H280280   1.480   1.390   1.612  0.9972  0.7421 -1.1102
19597TIP3   OH280281   4.080   3.033   0.431  0.7534 -0.3135  0.1279
19597TIP3    H180282   4.036   3.118   0.435  0.5989 -0.2782 -1.6880
19597TIP3    H280283   4.110   3.018   0.521  0.9291  1.7255  0.4644
19598TIP3   OH280284   7.018   4.222   3.631  0.0175  0.8406 -0.3482
19598TIP3    H180285   7.095   4.261   3.672  0.4824  0.6835 -1.0763
19598TIP3    H280286   7.041   4.211   3.539 -0.0678 -1.2293 -0.1710
19599TIP3   OH280287   0.589   4.687  14.622  0.0044  0.3252  0.8338
19599TIP3    H180288   0.580   4.633  14.699 -0.3574  0.3174  0.7876
19599TIP3    H280289   0.679   4.674  14.594 -0.2552 -0.7466  0.4553
19600TIP3   OH280290   2.684   0.145  14.103 -0.0259  0.2695 -0.5461
19600TIP3    H180291   2.760   0.134  14.045  0.4986 -2.5783  0.4874
19600TIP3    H280292   2.645   0.228  14.077  1.8004  0.4525 -3.0448
19601TIP3   OH280293   5.869   4.232   4.851  0.2312 -0.0386 -0.0013
19601TIP3    H180294   5.833   4.188   4.774 -0.5694  0.6074 -0.0121
19601TIP3    H280295   5.946   4.279   4.818 -1.2548  1.9076 -0.8949
19602TIP3   OH280296   5.653   3.934   4.121 -0.0095  0.2803  0.3389
19602TIP3    H180297   5.657   4.013   4.174  2.0918 -0.7197  1.7959
19602TIP3    H280298   5.723   3.878   4.155  0.6977 -0.9181 -2.7222
19603TIP3   OH280299   4.541   4.921   1.054 -0.0476 -0.3751  0.0094
19603TIP3    H180300   4.480   4.956   1.119 -0.7509 -0.7851 -0.4106
19603TIP3    H280301   4.505   4.834   1.033 -0.3246  0.0889 -1.5495
19604TIP3   OH280302   3.446   0.333  14.638 -0.8516 -0.2046 -0.1745
19604TIP3    H180303   3.430   0.255  14.691 -1.2495  0.1479  0.2447
19604TIP3    H280304   3.479   0.398  14.701 -1.5275  0.2851 -0.3163
19605TIP3   OH280305   5.930   3.771   2.367 -0.3570  0.2832  0.1006
19605TIP3    H180306   5.931   3.809   2.279  1.0260  1.7238  0.6813
19605TIP3    H280307   5.997   3.704   2.365 -1.4868 -0.8861 -0.3780
19606TIP3   OH280308   4.566   1.205   5.256 -0.0980  0.2597  0.2591
19606TIP3    H180309   4.603   1.252   5.331  0.2647  0.2205  0.1072
19606TIP3    H280310   4.637   1.148   5.226 -0.8014 -1.0453  0.9862
19607TIP3   OH280311   2.241   1.358   0.083  0.1326 -0.4206  0.3023
19607TIP3    H180312   2.220   1.346   0.176 -1.3597 -0.3117  0.0057
19607TIP3    H280313   2.264   1.450   0.076 -0.2879 -0.2993  0.4754
19608TIP3   OH280314   6.504   3.530   2.953  0.2543 -0.2767  0.1434
19608TIP3    H180315   6.566   3.582   2.901  0.1632 -1.4999 -1.2576
19608TIP3    H280316   6.556   3.458   2.987  0.0467 -0.1469  0.7354
19609TIP3   OH280317   5.520   0.954   1.786  0.1363 -0.1976  0.0539
19609TIP3    H180318   5.474   1.034   1.812 -0.5702 -0.5841  0.0069
19609TIP3    H280319   5.612   0.979   1.786 -0.0372  0.4831  0.5281
19610TIP3   OH280320   5.928   3.223   5.133 -0.3078 -0.1417 -0.4085
19610TIP3    H180321   5.900   3.309   5.164 -0.1545 -0.7781  1.6589
19610TIP3    H280322   5.878   3.161   5.186 -1.2213 -1.3731 -2.6114
19611TIP3   OH280323   4.637   6.174   2.299 -0.2951 -0.0222  0.4678
19611TIP3    H180324   4.587   6.242   2.346  0.1043  0.6163 -0.0177
19611TIP3    H280325   4.702   6.223   2.248  0.1342 -0.7878  0.2707
19612TIP3   OH280326   2.251   3.242   4.415 -0.2623  0.1554  0.0955
19612TIP3    H180327   2.322   3.178   4.422  0.1905  0.7598  1.2423
19612TIP3    H280328   2.261   3.280   4.328 -0.1745 -0.8921 -0.3721
19613TIP3   OH280329   5.472   1.760   3.525 -0.1804  0.2150 -0.1600
19613TIP3    H180330   5.421   1.841   3.519 -0.2137  0.2537  0.5702
19613TIP3    H280331   5.445   1.721   3.608  0.8899  0.1762  0.1832
19614TIP3   OH280332   3.881   1.782   3.175  0.6111  0.1504 -0.5607
19614TIP3    H180333   3.924   1.834   3.243  1.2407  1.1839 -1.7070
19614TIP3    H280334   3.946   1.774   3.105 -0.4368  0.2131 -1.5826
19615TIP3   OH280335   2.401   5.698  14.906 -0.8333  0.0548 -0.1023
19615TIP3    H180336   2.472   5.748  14.867 -0.2605 -0.3274  0.4203
19615TIP3    H280337   2.384   5.628  14.843 -0.1168 -0.3869  0.1803
19616TIP3   OH280338   5.919   3.332  13.675 -0.0861  0.0336 -0.0632
19616TIP3    H180339   5.991   3.320  13.613  0.2340 -0.7968  0.4566
19616TIP3    H280340   5.876   3.247  13.679 -1.7643  0.7753 -1.1514
19617TIP3   OH280341   2.742   5.809   1.946 -0.5108  0.5640  0.4757
19617TIP3    H180342   2.768   5.888   1.993 -1.3542  0.2060  1.6086
19617TIP3    H280343   2.747   5.740   2.012  1.1230 -0.5315 -0.7209
19618TIP3   OH280344   4.049   1.240   4.743  0.4224  0.2438  0.4900
19618TIP3    H180345   3.991   1.178   4.788 -0.3629  0.0149 -0.7704
19618TIP3    H280346   3.993   1.316   4.725  1.2205  1.0931  1.5032
19619TIP3   OH280347   6.576   1.964  11.862 -0.2840  0.0429  1.0065
19619TIP3    H180348   6.536   2.021  11.927 -0.5341 -0.1350  1.0075
19619TIP3    H280349   6.569   2.012  11.780 -0.6045 -0.0390  0.9860
19620TIP3   OH280350   1.532   5.049   2.341  0.5197 -0.3090 -0.0469
19620TIP3    H180351   1.588   4.996   2.285  0.2049 -2.0487  1.2201
19620TIP3    H280352   1.462   4.991   2.368 -0.5784  1.1433  0.3589
19621TIP3   OH280353   6.048   2.585   1.729 -0.5014 -0.6519 -0.0068
19621TIP3    H180354   6.002   2.536   1.797  0.2052 -0.5528  0.5567
19621TIP3    H280355   5.981   2.641   1.690 -0.8970 -0.6384  0.6788
19622TIP3   OH280356   3.992   2.972   5.782 -0.0573 -0.2206  0.0424
19622TIP3    H180357   4.087   2.970   5.778 -0.0966 -2.1643 -1.9445
19622TIP3    H280358   3.969   2.909   5.850  0.0977 -1.5393 -1.0790
19623TIP3   OH280359   3.802   5.091  12.169  0.4278 -0.5574  0.1570
19623TIP3    H180360   3.786   5.005  12.131  0.0619 -0.7032  0.6311
19623TIP3    H280361   3.814   5.074  12.263 -0.8855  0.0356  0.4592
19624TIP3   OH280362   5.650   4.761  12.578 -0.2221  0.4706 -0.2451
19624TIP3    H180363   5.680   4.778  12.667  0.3352 -1.9044  0.1096
19624TIP3    H280364   5.730   4.735  12.531 -0.5892  1.2078 -1.3080
19625TIP3   OH280365   5.043   1.294   4.359  0.3630 -0.2266 -0.4424
19625TIP3    H180366   5.103   1.364   4.331  0.1143 -0.1152 -0.6954
19625TIP3    H280367   4.959   1.317   4.320 -0.5030  0.9932  1.9020
19626TIP3   OH280368   3.660   0.988   0.219 -0.0298 -0.0471  0.4396
19626TIP3    H180369   3.743   1.030   0.198  0.4714 -0.6220  1.2434
19626TIP3    H280370   3.682   0.917   0.280 -1.0464 -0.4989  0.3161
19627TIP3   OH280371   0.419   2.174   0.345  0.2304  0.3784  0.0512
19627TIP3    H180372   0.401   2.219   0.427 -0.5678  1.1352 -0.5235
19627TIP3    H280373   0.359   2.099   0.344  1.2743 -0.5092  0.8169
19628TIP3   OH280374   3.994   0.293   4.776  0.2377 -0.4470 -0.6120
19628TIP3    H180375   4.028   0.364   4.722  0.3590 -0.6968 -0.8685
19628TIP3    H280376   4.066   0.273   4.836  0.8664 -1.5253 -1.6925
19629TIP3   OH280377   0.077   1.842   3.369  0.2666 -0.5106  0.5400
19629TIP3    H180378  -0.017   1.835   3.352  0.2976  0.6489 -0.2182
19629TIP3    H280379   0.091   1.788   3.446 -1.1416 -0.1804  1.0626
19630TIP3   OH280380   7.018   4.129   5.118  0.4624 -0.3831 -0.0532
19630TIP3    H180381   6.939   4.163   5.159 -0.3510 -1.6737 -0.4983
19630TIP3    H280382   7.022   4.037   5.144  0.6039 -0.9195 -1.8100
19631TIP3   OH280383   3.911   3.237   5.104 -0.1843  0.3318 -0.3042
19631TIP3    H180384   3.832   3.186   5.119 -1.0496  1.4868 -0.7904
19631TIP3    H280385   3.938   3.215   5.015  0.0503 -0.0694 -0.1345
19632TIP3   OH280386   5.266   6.423   0.792 -0.3252 -0.1802  0.1151
19632TIP3    H180387   5.189   6.386   0.751 -0.1848 -0.4201  0.0676
19632TIP3    H280388   5.339   6.370   0.760 -0.3567 -1.2970  1.7836
19633TIP3   OH280389   3.087   4.022   5.844  0.2809 -0.7984 -0.4241
19633TIP3    H180390   2.991   4.018   5.835  0.0694  0.3472  0.9951
19633TIP3    H280391   3.103   4.008   5.937  1.0898  3.5014  0.3060
19634TIP3   OH280392   0.579   1.263   1.618  0.4816  0.6082  0.3512
19634TIP3    H180393   0.607   1.178   1.583 -0.3023  0.7111 -0.5697
19634TIP3    H280394   0.612   1.327   1.555  1.0545  1.0005  1.0339
19635TIP3   OH280395   0.203   1.486   1.248  0.0394 -0.1619 -0.3782
19635TIP3    H180396   0.158   1.531   1.320 -0.2864 -0.9038 -0.1118
19635TIP3    H280397   0.133   1.462   1.188  0.5018  2.5092 -2.1652
19636TIP3   OH280398   6.309   1.995   3.570 -0.1014 -0.1415  0.5014
19636TIP3    H180399   6.403   2.001   3.552 -0.4385 -0.7888 -1.6376
19636TIP3    H280400   6.301   1.919   3.628  0.8696  1.2581  2.6481
19637TIP3   OH280401   2.936   2.649   4.396  0.2067  0.2691 -0.5591
19637TIP3    H180402   2.927   2.618   4.306  1.0719  0.4144 -0.7024
19637TIP3    H280403   2.942   2.569   4.448  1.1490  0.1681 -0.7938
19638TIP3   OH280404   6.895   5.564   1.987  0.1317 -0.2751  0.5594
19638TIP3    H180405   6.846   5.552   1.906  1.9659  1.8490 -0.9716
19638TIP3    H280406   6.976   5.516   1.974  1.3477  1.7607  0.1918
19639TIP3   OH280407   2.256   2.330   3.736 -0.0739 -0.0990  0.0622
19639TIP3    H180408   2.315   2.255   3.724  0.5602  0.3207  0.4591
19639TIP3    H280409   2.195   2.301   3.805  0.4201 -0.1091  0.5027
19640TIP3   OH280410   1.720   0.746   1.315  0.2521  0.8683  0.0604
19640TIP3    H180411   1.665   0.766   1.238 -0.3557 -0.4808  0.1241
19640TIP3    H280412   1.809   0.746   1.280 -0.0479 -0.1893 -0.7694
19641TIP3   OH280413   5.901   1.793   3.840 -0.0359 -0.6029 -0.1669
19641TIP3    H180414   5.903   1.884   3.872  0.0447 -0.4462 -0.6173
19641TIP3    H280415   5.823   1.756   3.882 -0.6050 -0.0510 -0.7105
19642TIP3   OH280416   7.168   1.915   5.073  0.2022  0.0396 -0.1555
19642TIP3    H180417   7.248   1.930   5.024  0.0431  1.0254 -0.1433
19642TIP3    H280418   7.148   1.822   5.061  1.1332 -0.1236 -0.4655
19643TIP3   OH280419   6.558   3.820   5.949  0.2014 -0.2882 -0.4295
19643TIP3    H180420   6.636   3.822   6.005 -0.5276  0.6577  0.5850
19643TIP3    H280421   6.552   3.729   5.921 -0.2411 -1.2135  2.2817
19644TIP3   OH280422   1.862   0.723   0.179  0.0317 -0.4875  0.2540
19644TIP3    H180423   1.886   0.708   0.270  0.5318 -1.3766 -0.0153
19644TIP3    H280424   1.922   0.792   0.149 -0.0713 -0.2613  0.5668
19645TIP3   OH280425   0.020   1.657  14.568 -0.2021 -0.5127 -0.4850
19645TIP3    H180426  -0.005   1.572  14.604 -0.8192  0.4648  1.5335
19645TIP3    H280427  -0.059   1.711  14.575  0.9147  1.0740  1.1223
19646TIP3   OH280428   2.667   6.132   5.292  0.0158  0.4495 -0.4050
19646TIP3    H180429   2.709   6.186   5.360  0.7115  1.4735 -1.6029
19646TIP3    H280430   2.689   6.176   5.210 -0.4765 -0.9826 -1.3376
19647TIP3   OH280431   0.627   6.052   4.826 -0.3204 -0.3302 -0.8569
19647TIP3    H180432   0.586   6.139   4.818  1.3255  0.5918  0.3302
19647TIP3    H280433   0.584   6.000   4.757 -2.6882  0.8483 -0.4003
19648TIP3   OH280434   6.302   1.233  15.107  0.5434  0.4802  0.3020
19648TIP3    H180435   6.259   1.204  15.187  0.8867  0.0715  0.3398
19648TIP3    H280436   6.254   1.190  15.037 -0.2185  1.4119  0.2436
19649TIP3   OH280437   5.377   5.220   5.503 -0.4291  0.3014 -0.0232
19649TIP3    H180438   5.314   5.281   5.465 -2.3730 -0.0728  2.3766
19649TIP3    H280439   5.410   5.264   5.581 -0.1043 -0.7746  0.4676
19650TIP3   OH280440   1.668   6.657  14.095  0.0624  0.0772 -0.2478
19650TIP3    H180441   1.763   6.646  14.088  0.4381 -0.0081  3.1893
19650TIP3    H280442   1.635   6.569  14.113 -0.6528  0.1907 -0.9415
19651TIP3   OH280443   1.065   2.916   4.213 -0.2734 -0.4067  0.0609
19651TIP3    H180444   1.111   2.919   4.297 -1.3185  1.0238  0.6371
19651TIP3    H280445   0.995   2.853   4.226 -0.0562 -0.6476  0.0592
19652TIP3   OH280446   2.012   3.608   3.386  0.7382 -0.5956 -0.1734
19652TIP3    H180447   1.982   3.654   3.464 -0.1175  0.2125 -0.9400
19652TIP3    H280448   2.097   3.647   3.366 -0.7182  2.0496 -1.8067
19653TIP3   OH280449   6.889   5.269   4.613  0.0534  0.0524  0.6907
19653TIP3    H180450   6.954   5.199   4.605  0.0037 -0.0808  1.3616
19653TIP3    H280451   6.914   5.333   4.546 -0.0590 -0.7243 -0.1063
19654TIP3   OH280452   0.142   5.984   5.794  0.3436 -0.1177 -0.7345
19654TIP3    H180453   0.183   5.913   5.843 -0.0718  1.0690  1.4467
19654TIP3    H280454   0.096   5.940   5.722 -1.1449 -2.2476  1.3726
19655TIP3   OH280455   4.235   4.252   5.460  0.1453  0.5453 -0.0204
19655TIP3    H180456   4.222   4.236   5.366 -0.7288  1.0565  0.0000
19655TIP3    H280457   4.214   4.168   5.501  0.3831  0.3613 -0.2684
19656TIP3   OH280458   1.469   7.221   0.637  0.3212 -0.3066 -0.2667
19656TIP3    H180459   1.454   7.303   0.684  0.4068  0.4589 -1.5497
19656TIP3    H280460   1.406   7.160   0.676 -0.4516  0.6363 -0.0023
19657TIP3   OH280461   4.018   5.410   1.804  0.2111  0.0963  0.2949
19657TIP3    H180462   4.012   5.322   1.767  3.1204  0.1280 -0.5659
19657TIP3    H280463   3.936   5.453   1.779 -0.0810 -1.4969 -1.7408
19658TIP3   OH280464   4.166   2.232   4.838 -0.0979  0.5906 -0.1000
19658TIP3    H180465   4.092   2.290   4.817 -2.6113 -1.0835  3.1055
19658TIP3    H280466   4.145   2.149   4.794  0.5256  0.4398 -0.1263
19659TIP3   OH280467   6.122   7.066   2.914  0.1411 -0.1148  0.4178
19659TIP3    H180468   6.103   7.146   2.865 -0.0908 -0.2536  0.2818
19659TIP3    H280469   6.195   7.091   2.972  0.3538  0.0766  0.0747
19660TIP3   OH280470   2.561   5.419   5.795  0.2830 -0.0757 -0.0614
19660TIP3    H180471   2.508   5.403   5.717  0.3848  1.1105 -0.4012
19660TIP3    H280472   2.649   5.389   5.771  0.2657  0.0828 -0.3265
19661TIP3   OH280473   0.923   3.381   2.850  0.0814 -0.1227 -0.1172
19661TIP3    H180474   0.861   3.308   2.859  0.3076 -0.4520 -1.0748
19661TIP3    H280475   0.916   3.406   2.757 -0.4349  1.4729  0.3166
19662TIP3   OH280476   7.215   7.117  15.062 -0.1186  0.3335 -0.3226
19662TIP3    H180477   7.121   7.096  15.067  0.0948 -0.5541  0.4092
19662TIP3    H280478   7.258   7.032  15.070  0.7864  0.9144  1.6060
19663TIP3   OH280479   1.754   3.555   5.096 -0.2152 -0.6492  0.0440
19663TIP3    H180480   1.816   3.602   5.152 -0.3926 -1.6806  1.1459
19663TIP3    H280481   1.798   3.548   5.011  0.6931 -0.3763  0.4850
19664TIP3   OH280482   2.422   3.794  13.826  0.2081 -0.2881 -0.3604
19664TIP3    H180483   2.352   3.843  13.783  1.4396  1.2915 -0.6539
19664TIP3    H280484   2.446   3.847  13.902  1.9408 -0.1271 -0.9733
19665TIP3   OH280485   1.462   0.337  15.183  0.0663  0.4632  0.6933
19665TIP3    H180486   1.506   0.400  15.127 -0.1372  1.1497  1.2891
19665TIP3    H280487   1.369   0.353  15.170  0.0095  0.0410  0.5733
19666TIP3   OH280488   4.579   0.613   1.636 -0.4613 -0.0126  0.0957
19666TIP3    H180489   4.557   0.558   1.712 -0.1357 -1.7127 -0.9954
19666TIP3    H280490   4.671   0.592   1.617 -0.1379  1.3746 -0.0037
19667TIP3   OH280491   0.927   2.518   0.326 -0.0969  0.2260 -0.6415
19667TIP3    H180492   1.021   2.503   0.316 -0.3374  0.3736 -6.3229
19667TIP3    H280493   0.889   2.430   0.320 -0.4149  0.3272 -0.1432
19668TIP3   OH280494   2.868   7.048   2.621  0.0911 -0.0436 -0.2776
19668TIP3    H180495   2.803   7.117   2.605  0.3194  0.1337 -0.4500
19668TIP3    H280496   2.903   7.068   2.708 -0.2339 -0.2616 -0.0946
19669TIP3   OH280497   6.435   0.127   2.822 -0.6883 -0.3163  0.4960
19669TIP3    H180498   6.516   0.086   2.791 -1.0577  0.4452 -1.6833
19669TIP3    H280499   6.461   0.176   2.900  0.9246 -0.2084 -0.0647
19670TIP3   OH280500   5.389   5.535   3.278  0.2769  0.0577  0.0058
19670TIP3    H180501   5.413   5.626   3.299 -0.0314  0.0469  0.4380
19670TIP3    H280502   5.468   5.498   3.240 -0.0368  0.9292 -1.5669
19671TIP3   OH280503   0.478   1.688   1.956 -0.4582  0.1066 -0.7319
19671TIP3    H180504   0.548   1.676   2.020  1.2749 -1.3010 -2.7739
19671TIP3    H280505   0.398   1.671   2.005  0.9328 -4.0856  0.4635
19672TIP3   OH280506   6.011   0.015   4.976  0.8187  0.2335  0.0646
19672TIP3    H180507   5.943  -0.051   4.963  1.5469 -0.7197  0.8833
19672TIP3    H280508   5.967   0.086   5.022  0.4306 -0.5349  0.9173
19673TIP3   OH280509   3.426   2.051   4.496 -0.6068 -0.5307 -0.1432
19673TIP3    H180510   3.430   2.077   4.588 -0.1246 -0.3547 -0.2069
19673TIP3    H280511   3.333   2.042   4.477 -0.8776  1.9119 -0.3308
19674TIP3   OH280512   3.535   2.940   4.183  0.1775 -0.0842  0.1915
19674TIP3    H180513   3.514   2.929   4.090 -2.1056  1.2962  0.4664
19674TIP3    H280514   3.630   2.936   4.186  0.3299 -0.1203 -2.2222
19675TIP3   OH280515   3.170   4.104   2.646  0.5660 -0.2204  0.4616
19675TIP3    H180516   3.236   4.044   2.681 -0.2062 -0.6219  1.2716
19675TIP3    H280517   3.113   4.123   2.721  0.6739  1.3802  0.1811
19676TIP3   OH280518   1.630   5.477   2.126  0.1842 -0.4678  0.4110
19676TIP3    H180519   1.647   5.540   2.196  2.0802 -1.3472  0.7850
19676TIP3    H280520   1.706   5.482   2.069 -0.6225 -0.8909 -0.7431
19677TIP3   OH280521   3.324   3.129   2.927  0.4745  0.5559  0.0815
19677TIP3    H180522   3.312   3.111   2.834  1.4640  3.7350 -0.7679
19677TIP3    H280523   3.417   3.151   2.936  0.2579  0.9762  1.7196
19678TIP3   OH280524   4.848   3.918  13.556 -0.2437 -0.2058  0.3254
19678TIP3    H180525   4.820   4.005  13.527 -0.8510 -0.8267 -1.0287
19678TIP3    H280526   4.936   3.931  13.591  0.6572  0.5844 -2.0705
19679TIP3   OH280527   6.540   0.956   3.301  0.6514  0.4244  0.5361
19679TIP3    H180528   6.587   0.993   3.226 -0.5450  1.4056  0.2276
19679TIP3    H280529   6.599   0.890   3.336  0.2940 -2.0074 -2.8574
19680TIP3   OH280530   1.675   4.580   5.120  0.1699 -0.6180 -0.3328
19680TIP3    H180531   1.649   4.503   5.169  1.7125 -0.7480  0.3627
19680TIP3    H280532   1.641   4.654   5.171 -1.4081 -0.8218 -1.0643
19681TIP3   OH280533   4.099   5.696   5.272 -0.0374  0.2383  0.0607
19681TIP3    H180534   4.171   5.682   5.210  1.4468 -0.6615  1.8877
19681TIP3    H280535   4.057   5.611   5.279 -1.2310  0.7230 -0.8671
19682TIP3   OH280536   1.567   1.207   0.350 -0.1014  0.3646 -0.2547
19682TIP3    H180537   1.662   1.218   0.348 -0.3186  2.6871 -1.5560
19682TIP3    H280538   1.535   1.281   0.402 -1.1729 -0.9456  1.0262
19683TIP3   OH280539   6.395   6.618   0.924 -0.4278 -0.5589  0.3671
19683TIP3    H180540   6.308   6.581   0.935  0.1786 -2.2231 -0.2076
19683TIP3    H280541   6.448   6.574   0.990  0.1485 -0.1169  0.2074
19684TIP3   OH280542   5.731   5.069   2.375  0.1643 -0.3769 -0.2155
19684TIP3    H180543   5.753   5.147   2.324  0.1432 -0.9158 -1.0639
19684TIP3    H280544   5.638   5.055   2.360 -0.9199  1.8203  3.2604
19685TIP3   OH280545   0.709   5.015   5.451  0.5860 -0.0998  0.3885
19685TIP3    H180546   0.630   4.980   5.492 -1.2153  1.3439 -1.6159
19685TIP3    H280547   0.713   5.105   5.481  0.6092  0.2634 -0.6805
19686TIP3   OH280548   1.913   1.756   5.044  0.4069  0.7878 -0.2066
19686TIP3    H180549   1.985   1.697   5.021 -1.3667 -2.0250  0.9288
19686TIP3    H280550   1.911   1.755   5.140 -1.4951  0.2461 -0.2104
19687TIP3   OH280551   6.775   6.793   3.504 -0.2599  0.2271 -0.1176
19687TIP3    H180552   6.806   6.802   3.414 -1.7475  2.0856 -0.5377
19687TIP3    H280553   6.680   6.783   3.495 -0.3268 -0.5709  1.2296
19688TIP3   OH280554   6.653   5.812   2.610  0.5553 -0.0005 -0.2766
19688TIP3    H180555   6.570   5.836   2.651  0.9264  0.8261 -0.0034
19688TIP3    H280556   6.651   5.853   2.524 -0.1454 -1.5892 -1.0600
19689TIP3   OH280557   1.421   1.022   2.632 -0.1279 -0.3408 -0.0996
19689TIP3    H180558   1.353   1.074   2.590  0.4529  0.5096 -0.0036
19689TIP3    H280559   1.410   1.038   2.726 -0.3603 -0.9102 -0.0261
19690TIP3   OH280560   6.832   4.130   2.304  0.2544  0.3559 -0.0719
19690TIP3    H180561   6.820   4.115   2.398  0.3644 -0.8011 -0.2211
19690TIP3    H280562   6.753   4.178   2.277  0.8960  1.9804  0.8592
19691TIP3   OH280563   5.517   1.469   2.319 -0.1653 -0.1859  0.1264
19691TIP3    H180564   5.586   1.403   2.319 -0.6329 -0.6825  0.0492
19691TIP3    H280565   5.484   1.469   2.229 -1.4409 -1.2124  0.5635
19692TIP3   OH280566   0.167   4.399   4.366 -0.1858  0.6630  0.0891
19692TIP3    H180567   0.211   4.314   4.365 -0.9709  0.2386  0.3605
19692TIP3    H280568   0.132   4.406   4.455 -0.6347  1.0014 -0.1117
19693TIP3   OH280569   7.190   5.505   2.789  0.1592  0.5455 -0.2812
19693TIP3    H180570   7.221   5.520   2.879 -1.9801 -2.4849  1.1198
19693TIP3    H280571   7.097   5.524   2.792 -0.4789 -2.0048 -1.0847
19694TIP3   OH280572   2.766   6.990   1.796 -0.4015  0.2318 -0.2037
19694TIP3    H180573   2.780   7.053   1.868 -1.1410 -1.2258  1.2740
19694TIP3    H280574   2.682   6.949   1.816 -0.8718  0.1242 -2.2170
19695TIP3   OH280575   3.006   6.032  10.114 -0.4177 -0.4904  0.0180
19695TIP3    H180576   2.935   6.074  10.064  0.0002  0.3881  0.1432
19695TIP3    H280577   3.079   6.028  10.053 -0.4848 -1.1359 -0.0207
19696TIP3   OH280578   2.865   2.259   4.358  0.2691 -0.5585  0.1153
19696TIP3    H180579   2.856   2.339   4.306 -0.4137 -0.2346  0.7229
19696TIP3    H280580   2.912   2.198   4.301  0.7647  0.2607 -0.3669
19697TIP3   OH280581   4.816   1.767   1.265 -0.0564 -0.0206  0.3173
19697TIP3    H180582   4.809   1.679   1.229  0.9022  0.3433 -0.8345
19697TIP3    H280583   4.892   1.763   1.324 -0.0774  0.0127  0.3471
19698TIP3   OH280584   2.415   4.814   1.723  0.1877  0.2577 -0.3493
19698TIP3    H180585   2.419   4.750   1.652 -0.4194 -1.6678  1.2619
19698TIP3    H280586   2.335   4.863   1.706  0.1687 -0.0180 -1.1219
19699TIP3   OH280587   4.375   6.100   1.199  0.4803  0.7406  0.2271
19699TIP3    H180588   4.420   6.042   1.137 -1.6954 -0.1869 -0.5904
19699TIP3    H280589   4.379   6.186   1.158 -0.6735  0.1909 -1.1188
19700TIP3   OH280590   6.425   3.393   2.533  0.5660  0.9485 -0.3157
19700TIP3    H180591   6.495   3.453   2.558 -0.3160  2.4702 -1.3128
19700TIP3    H280592   6.395   3.355   2.616  2.0100  0.8699  0.2018
19701TIP3   OH280593   1.980   2.997  11.095 -0.4287  0.4145  0.0305
19701TIP3    H180594   1.987   2.980  11.001 -1.4410  0.2013 -0.0193
19701TIP3    H280595   2.031   3.076  11.109 -1.1843  1.0796 -0.8964
19702TIP3   OH280596   6.272   1.463   2.034  0.2219  0.0179  0.7803
19702TIP3    H180597   6.325   1.396   1.992 -0.8332  0.8517 -2.1379
19702TIP3    H280598   6.333   1.507   2.094  1.3844 -2.2968  1.4285
19703TIP3   OH280599   4.697   2.394  14.642 -0.1291  0.2430 -0.4370
19703TIP3    H180600   4.790   2.414  14.635 -0.2675  0.7337 -0.9553
19703TIP3    H280601   4.683   2.374  14.735  0.5643 -0.2225 -0.4259
19704TIP3   OH280602   5.001   4.251   3.791 -0.2117  0.0981  0.2007
19704TIP3    H180603   5.096   4.237   3.791 -0.2119 -0.4374 -2.2848
19704TIP3    H280604   4.973   4.226   3.879  1.7697 -1.1625  0.5430
19705TIP3   OH280605   1.397   3.201   0.677  0.0819  0.4237  0.0125
19705TIP3    H180606   1.465   3.139   0.702  1.1870  1.1077 -1.1898
19705TIP3    H280607   1.380   3.183   0.585 -0.0302  1.4673 -0.1886
19706TIP3   OH280608   5.632   6.379   4.979  0.0435  0.7237 -0.0387
19706TIP3    H180609   5.690   6.304   4.992 -1.4597 -0.4210  0.3844
19706TIP3    H280610   5.568   6.373   5.050 -1.1874  1.3505 -1.0488
19707TIP3   OH280611   6.187   6.724   2.612 -0.1976  0.3986  0.4526
19707TIP3    H180612   6.122   6.654   2.621 -0.2743  0.1989 -1.2249
19707TIP3    H280613   6.167   6.785   2.682  0.7118 -1.8601  2.8605
19708TIP3   OH280614   7.077   5.988   4.252 -0.1434 -0.4554 -0.8464
19708TIP3    H180615   7.143   6.003   4.319  0.6008 -2.5320 -1.0535
19708TIP3    H280616   7.009   5.937   4.295 -1.0151  0.5222 -0.9973
19709TIP3   OH280617   2.387   1.023   3.037 -0.4640  0.2584 -0.0511
19709TIP3    H180618   2.388   1.111   3.074 -3.2788  0.4568 -0.2798
19709TIP3    H280619   2.393   1.036   2.942  0.0845  0.1350 -0.0364
19710TIP3   OH280620   1.990   4.066   3.637 -0.4649  0.1574  0.1144
19710TIP3    H180621   1.946   4.098   3.558 -0.0895  1.0943  0.2663
19710TIP3    H280622   2.073   4.114   3.638 -1.1851  1.5010  1.9953
19711TIP3   OH280623   3.667   7.135   5.174 -0.1869 -0.0493  0.5097
19711TIP3    H180624   3.735   7.192   5.211 -0.0370  0.4419 -0.4791
19711TIP3    H280625   3.592   7.147   5.232  0.2955  0.0784  1.1188
19712TIP3   OH280626   0.698   4.384   5.359 -0.5941  0.1885  0.7403
19712TIP3    H180627   0.743   4.456   5.317 -0.7824  0.7379  1.4662
19712TIP3    H280628   0.739   4.376   5.445  0.8692 -1.9398 -0.0790
19713TIP3   OH280629   5.618   0.491   2.870 -0.2128 -0.7527  0.1422
19713TIP3    H180630   5.709   0.518   2.862  0.1204 -2.3632 -3.4618
19713TIP3    H280631   5.621   0.415   2.928  0.6519 -0.5101  0.4345
19714TIP3   OH280632   4.354   5.823   4.548  0.2733 -0.8409 -0.3547
19714TIP3    H180633   4.336   5.737   4.587  0.9906 -0.7505  0.1943
19714TIP3    H280634   4.303   5.885   4.600  2.1612 -0.5662  1.2947
19715TIP3   OH280635   2.016   2.725   2.315 -0.2700 -0.1174  0.9034
19715TIP3    H180636   2.004   2.820   2.318 -1.2221 -0.1606 -0.6630
19715TIP3    H280637   1.929   2.690   2.327  0.1239 -0.8280  1.7897
19716TIP3   OH280638   2.166   4.020   0.086 -0.8056  0.7056  0.0362
19716TIP3    H180639   2.233   4.014   0.153 -0.7732 -0.3536 -0.0824
19716TIP3    H280640   2.194   4.094   0.031  0.0031  0.5803  0.2678
19717TIP3   OH280641   3.820   1.103   4.870  0.2123  0.3799 -0.0260
19717TIP3    H180642   3.826   1.013   4.836 -1.0923  0.2262  0.0905
19717TIP3    H280643   3.809   1.092   4.964  0.3704  0.6831  0.0298
19718TIP3   OH280644   7.104   4.503   4.383 -0.0239 -0.8112 -0.2886
19718TIP3    H180645   7.147   4.575   4.429  0.5380 -0.3359 -1.5154
19718TIP3    H280646   7.163   4.428   4.394 -0.3122 -0.9268  0.4767
19719TIP3   OH280647   6.898   1.550   3.026  0.1094  0.2240 -0.2986
19719TIP3    H180648   6.892   1.607   3.103 -0.0556 -0.9744  0.6165
19719TIP3    H280649   6.939   1.604   2.959  2.8508  0.5454  1.4618
19720TIP3   OH280650   3.678   6.363   2.638 -0.3436  0.2470  0.3124
19720TIP3    H180651   3.641   6.342   2.724  0.7543 -2.0063  0.3240
19720TIP3    H280652   3.652   6.453   2.621 -0.2289  0.9091  3.1972
19721TIP3   OH280653   3.937   2.648   4.777  0.2802  0.6837 -0.1032
19721TIP3    H180654   3.971   2.559   4.788 -1.9355 -0.2495 -0.1694
19721TIP3    H280655   3.983   2.682   4.700 -0.5266 -1.3772 -1.5997
19722TIP3   OH280656   2.131   6.215   4.420 -0.4470 -0.1238 -0.3189
19722TIP3    H180657   2.124   6.184   4.330 -0.3310 -0.7211 -0.1305
19722TIP3    H280658   2.213   6.177   4.452 -1.3380 -1.3892  0.5683
19723TIP3   OH280659   1.711   0.438   3.482 -0.1924  0.5349 -0.1274
19723TIP3    H180660   1.630   0.394   3.508  0.2703  0.5151  1.3489
19723TIP3    H280661   1.781   0.384   3.517  0.4661  0.8488 -0.9106
19724TIP3   OH280662   0.682   4.104   2.199  0.9808 -0.1795 -0.2183
19724TIP3    H180663   0.678   4.013   2.231 -0.1968 -0.5114 -1.2077
19724TIP3    H280664   0.613   4.149   2.246  1.0947  0.0312 -0.2517
19725TIP3   OH280665   0.647   1.008   4.893 -0.1971  0.2734  0.2154
19725TIP3    H180666   0.615   1.071   4.827 -1.3487  1.5327  1.8992
19725TIP3    H280667   0.686   1.063   4.961  1.7443 -1.0556  0.2198
19726TIP3   OH280668   6.075   0.267  14.965  0.2920  0.0060  0.3677
19726TIP3    H180669   6.012   0.252  15.036 -0.8990  1.6801 -0.2713
19726TIP3    H280670   6.024   0.253  14.885  0.9104  0.7259 -0.1631
19727TIP3   OH280671   1.484   7.032   4.881  0.4430 -0.4487  0.4856
19727TIP3    H180672   1.392   7.046   4.900 -0.3297  0.1244 -2.9506
19727TIP3    H280673   1.485   6.962   4.816  1.6212  3.3506 -4.2272
19728TIP3   OH280674   1.736   7.003   4.998 -0.2050 -0.5089 -0.0509
19728TIP3    H180675   1.655   6.992   4.948 -0.4386 -0.1794  0.2521
19728TIP3    H280676   1.708   7.015   5.088  0.1481  0.2041 -0.0277
19729TIP3   OH280677   1.599   3.487   3.013 -0.7044  0.0723 -0.4192
19729TIP3    H180678   1.607   3.556   3.080  1.3946 -1.0670  0.6097
19729TIP3    H280679   1.685   3.486   2.970 -0.9606 -1.3588 -0.9371
19730TIP3   OH280680   1.065   4.481   0.130 -0.5733 -1.0071 -0.2814
19730TIP3    H180681   1.000   4.492   0.200  0.1154  0.3844  0.1748
19730TIP3    H280682   1.123   4.412   0.163 -0.8618 -1.0986  0.0465
19731TIP3   OH280683   5.451   4.896   2.077  0.1135 -0.1718  0.2877
19731TIP3    H180684   5.455   4.858   1.989  1.5354  0.4837  0.0390
19731TIP3    H280685   5.358   4.895   2.100 -0.3288 -0.0044 -1.3801
19732TIP3   OH280686   0.482   4.051  10.940  0.0796  0.1329  0.2789
19732TIP3    H180687   0.435   4.131  10.965  0.2146 -0.0317  1.1116
19732TIP3    H280688   0.434   3.980  10.985  0.5621 -0.1367  0.3751
19733TIP3   OH280689   6.697   4.871   1.979 -0.2546 -0.4565  0.3178
19733TIP3    H180690   6.785   4.857   2.013 -0.8550 -1.5028  1.5295
19733TIP3    H280691   6.646   4.899   2.055 -0.9148  0.4917 -0.4349
19734TIP3   OH280692   2.521   5.428   3.689 -0.1176 -0.3014 -0.6727
19734TIP3    H180693   2.590   5.492   3.706 -0.2790 -0.1393 -0.6282
19734TIP3    H280694   2.446   5.480   3.660  0.1160 -0.5609 -1.8147
19735TIP3   OH280695   6.392   4.303   1.007  0.0229  0.1214 -0.0099
19735TIP3    H180696   6.347   4.317   1.090  0.6079  1.3122  0.1305
19735TIP3    H280697   6.352   4.224   0.971 -1.4873  0.5864  0.5612
19736TIP3   OH280698   1.997   3.761  10.883  0.2212  0.3268 -0.4382
19736TIP3    H180699   2.080   3.773  10.929  0.2566  0.7521 -0.6093
19736TIP3    H280700   1.997   3.828  10.815 -0.0493  0.0160 -0.7506
19737TIP3   OH280701   3.510   5.456   5.111  0.2583  0.1214 -0.1255
19737TIP3    H180702   3.418   5.431   5.105  0.1341  0.2244  1.0549
19737TIP3    H280703   3.557   5.382   5.073 -0.1758 -1.4648  2.1894
19738TIP3   OH280704   2.485   4.070   5.855 -0.6102  0.3674 -0.2627
19738TIP3    H180705   2.503   4.057   5.762 -2.2466  0.2635 -0.6001
19738TIP3    H280706   2.517   4.158   5.874 -1.6014  0.9716 -1.3020
19739TIP3   OH280707   5.066   1.268   5.318 -0.5769  0.1816  0.0214
19739TIP3    H180708   5.024   1.322   5.251 -2.9694  0.2435  1.4415
19739TIP3    H280709   5.028   1.299   5.400  0.4121 -1.5188  1.1819
19740TIP3   OH280710   3.943   7.196   1.854 -0.2353 -0.4907 -0.0247
19740TIP3    H180711   3.951   7.288   1.826 -1.6682 -0.0293  1.0123
19740TIP3    H280712   3.965   7.146   1.775 -0.0202  0.7427 -0.7807
19741TIP3   OH280713   6.392   3.295  14.883  1.2307 -0.2607  0.1892
19741TIP3    H180714   6.365   3.327  14.970 -0.2711 -3.3164  1.0266
19741TIP3    H280715   6.322   3.324  14.825  0.7488 -0.5846  0.5931
19742TIP3   OH280716   3.398   3.478   3.938  0.1982 -0.3948  0.4639
19742TIP3    H180717   3.481   3.514   3.907  0.6976 -0.7126  1.3819
19742TIP3    H280718   3.389   3.395   3.890 -0.1274  0.1493 -0.4255
19743TIP3   OH280719   5.967   5.822   4.406  0.5493  0.2466  0.0583
19743TIP3    H180720   6.010   5.737   4.402 -1.7497 -0.9785 -0.6632
19743TIP3    H280721   6.011   5.875   4.340  1.6469 -0.5564  0.1211
19744TIP3   OH280722   2.797   6.604   3.976  0.2753 -0.3415  0.1701
19744TIP3    H180723   2.836   6.628   4.060  0.0371 -1.1011  0.5063
19744TIP3    H280724   2.770   6.513   3.987  1.4688 -0.9044 -1.1856
19745TIP3   OH280725   5.123   4.033  12.575  0.8635 -0.1012 -0.0290
19745TIP3    H180726   5.217   4.038  12.596  0.6497 -1.8935  1.5827
19745TIP3    H280727   5.105   3.940  12.566 -0.4111  0.2869 -2.3191
19746TIP3   OH280728   3.170   2.005   4.486 -0.1123  0.2314  0.5450
19746TIP3    H180729   3.151   1.919   4.523  0.3624 -1.2859 -2.4228
19746TIP3    H280730   3.111   2.064   4.531 -1.5289 -1.9017  1.6446
19747TIP3   OH280731   2.486   1.533   3.950 -0.6721  0.0636 -0.2754
19747TIP3    H180732   2.483   1.508   4.043  0.9688  0.1346 -0.1662
19747TIP3    H280733   2.491   1.450   3.903  3.3941 -0.0660  0.0185
19748TIP3   OH280734   2.728   0.695   2.115  0.0032 -0.2088 -0.1784
19748TIP3    H180735   2.652   0.735   2.156 -1.7792 -0.4035 -3.0857
19748TIP3    H280736   2.791   0.766   2.106 -0.2329  0.2064  1.2260
19749TIP3   OH280737   1.959   2.118   4.557  0.4162 -0.4332  0.2922
19749TIP3    H180738   1.929   2.192   4.504  1.7482  0.0880  0.2296
19749TIP3    H280739   1.944   2.042   4.502 -0.2443 -0.1373  0.0445
19750TIP3   OH280740   5.618   2.021   4.656  0.6445  0.5051 -0.0230
19750TIP3    H180741   5.555   1.952   4.635 -0.2357  0.8094  1.4655
19750TIP3    H280742   5.693   1.975   4.695  0.4377  0.3052  0.1402
19751TIP3   OH280743   0.307   0.056  11.142  0.1130  0.1541  0.3659
19751TIP3    H180744   0.400   0.077  11.146  0.0438  0.4372  0.5186
19751TIP3    H280745   0.267   0.130  11.096  0.3102 -1.1213 -1.9951
19752TIP3   OH280746   0.977   6.012  12.641  0.1856 -0.0111 -0.4503
19752TIP3    H180747   1.024   5.934  12.613 -0.8914 -0.9201  0.1515
19752TIP3    H280748   0.936   5.987  12.724 -0.9199  0.8919 -0.6879
19753TIP3   OH280749   1.988   1.172   1.712 -0.2457 -0.2655  0.2013
19753TIP3    H180750   1.996   1.080   1.685  0.6902  0.0318 -0.5549
19753TIP3    H280751   2.062   1.187   1.770 -0.0498  0.1740 -0.1552
19754TIP3   OH280752   4.800   3.056   2.531  0.3795 -0.5574 -0.5503
19754TIP3    H180753   4.741   3.108   2.476 -0.2960 -2.2026 -1.4632
19754TIP3    H280754   4.869   3.027   2.471  0.4462 -1.1384 -0.2018
19755TIP3   OH280755   4.395   0.475   3.837 -0.0691  0.7188 -0.2268
19755TIP3    H180756   4.438   0.539   3.894  0.3065  0.3092 -0.0424
19755TIP3    H280757   4.428   0.390   3.867 -0.5431  0.4378 -0.4821
19756TIP3   OH280758   3.069   6.213   0.989 -0.1546  0.0754  0.4603
19756TIP3    H180759   3.121   6.193   0.910 -2.2271 -2.2332 -0.4659
19756TIP3    H280760   3.085   6.306   1.005  1.9173  0.1620 -1.4667
19757TIP3   OH280761   3.319   0.338   3.878  0.1047  0.1479 -0.0985
19757TIP3    H180762   3.231   0.360   3.908 -0.2336  0.7396 -1.4302
19757TIP3    H280763   3.365   0.423   3.875  0.3121  0.0202 -0.6465
19758TIP3   OH280764   6.246   7.117  13.682  0.3034  0.3881 -0.2519
19758TIP3    H180765   6.177   7.155  13.738  0.8881  1.5071 -0.2726
19758TIP3    H280766   6.227   7.151  13.595  0.7013  0.4490 -0.3137
19759TIP3   OH280767   5.157   7.170   1.847 -0.2301  0.7985  0.2475
19759TIP3    H180768   5.204   7.174   1.764 -0.9625  0.6974 -0.1844
19759TIP3    H280769   5.065   7.167   1.822 -0.4980  1.5617  1.0903
19760TIP3   OH280770   3.208   2.419   3.227 -0.3649 -0.3148 -0.7420
19760TIP3    H180771   3.168   2.506   3.220 -1.9211 -1.1244 -2.8451
19760TIP3    H280772   3.215   2.404   3.322  2.3964  3.0712 -0.2146
19761TIP3   OH280773   6.720   2.102  11.188 -0.9380 -0.2847  0.2554
19761TIP3    H180774   6.813   2.123  11.191 -1.2674  1.1469  2.1451
19761TIP3    H280775   6.717   2.009  11.163  0.8633  0.1312 -1.7797
19762TIP3   OH280776   5.942   1.121  14.351  0.1634  0.2155 -0.5362
19762TIP3    H180777   5.968   1.136  14.260  0.3059  0.9792 -0.3776
19762TIP3    H280778   6.025   1.123  14.399  0.1380 -0.6421 -0.4371
19763TIP3   OH280779   1.581   5.264   0.308  0.1242  0.4263  0.3524
19763TIP3    H180780   1.529   5.217   0.244  0.8044 -0.7285  0.6226
19763TIP3    H280781   1.659   5.293   0.260 -0.3984  1.4914  0.1310
19764TIP3   OH280782   2.802   0.550   2.342 -0.4425 -0.4120 -0.3794
19764TIP3    H180783   2.745   0.506   2.405  0.3041 -2.4254 -1.0398
19764TIP3    H280784   2.756   0.544   2.259 -0.4050  0.2171 -0.4474
19765TIP3   OH280785   6.716   6.805   1.325  0.0958  0.0740  0.3801
19765TIP3    H180786   6.675   6.800   1.412  1.3242  0.5594  1.0067
19765TIP3    H280787   6.803   6.841   1.341  0.0021  1.1084 -1.1786
19766TIP3   OH280788   4.600   3.994   2.858  0.8574 -0.7956  0.6728
19766TIP3    H180789   4.659   4.042   2.799  0.3574 -0.2784  0.5826
19766TIP3    H280790   4.533   3.958   2.801  0.9481 -1.1813  0.8059
19767TIP3   OH280791   0.198   4.902   1.132 -0.4590 -0.3063 -0.6059
19767TIP3    H180792   0.274   4.854   1.100 -1.4231 -0.7313 -2.4522
19767TIP3    H280793   0.233   4.976   1.180  1.1068 -0.8968 -0.8040
19768TIP3   OH280794   0.677   2.360   3.010  0.3698 -0.6192 -0.3391
19768TIP3    H180795   0.704   2.268   3.021  0.1643 -0.6148  0.2377
19768TIP3    H280796   0.697   2.401   3.094 -1.8698 -0.7348  0.3026
19769TIP3   OH280797   5.740   7.092   2.244 -0.2189 -0.2701 -0.2371
19769TIP3    H180798   5.660   7.137   2.216 -0.4338  0.7762  1.9094
19769TIP3    H280799   5.764   7.134   2.327  2.3838 -0.7803 -0.6403
19770TIP3   OH280800   3.281   6.994   1.095 -0.3629 -0.5934  0.1724
19770TIP3    H180801   3.286   6.938   1.018  0.0738  0.4453 -0.5677
19770TIP3    H280802   3.222   7.065   1.070 -0.3294 -0.3160  0.8460
19771TIP3   OH280803   4.495   7.245   4.735 -0.1640 -0.3641 -0.1933
19771TIP3    H180804   4.491   7.214   4.826  1.6918  0.2241  0.1276
19771TIP3    H280805   4.432   7.318   4.732 -1.6458 -1.5743  0.0710
19772TIP3   OH280806   5.785   4.872   0.624 -0.2126 -0.3134 -0.5789
19772TIP3    H180807   5.814   4.930   0.553  1.2230 -0.3936 -0.1042
19772TIP3    H280808   5.867   4.845   0.667 -1.0466 -0.0902  1.2507
19773TIP3   OH280809   0.842   5.174   5.192 -0.5604  0.2527 -0.0448
19773TIP3    H180810   0.779   5.129   5.137 -0.4166 -0.0922  0.0719
19773TIP3    H280811   0.925   5.164   5.146 -0.3006 -0.6832  0.5946
19774TIP3   OH280812   6.417   5.151   1.930  0.0400  0.7478  0.1458
19774TIP3    H180813   6.406   5.230   1.877 -0.8308  1.4207  1.2695
19774TIP3    H280814   6.441   5.184   2.017 -4.5890  0.2327  1.9584
19775TIP3   OH280815   0.239   3.101   4.620  0.1739  0.0695  0.4467
19775TIP3    H180816   0.186   3.164   4.571  0.9541  0.9481  0.7093
19775TIP3    H280817   0.323   3.098   4.574  0.9270  0.9150  1.6925
19776TIP3   OH280818   5.329   7.217   3.117  0.6636  0.4044 -0.2236
19776TIP3    H180819   5.243   7.259   3.109 -0.4849 -1.5445  1.1715
19776TIP3    H280820   5.370   7.262   3.191 -1.1036 -1.6091  2.1480
19777TIP3   OH280821   4.547   4.596   5.143 -0.7683 -0.0373  0.3231
19777TIP3    H180822   4.545   4.626   5.234  0.8438 -1.1757  0.7842
19777TIP3    H280823   4.634   4.557   5.133 -0.8043  0.3277 -1.8101
19778TIP3   OH280824   0.294   6.799   0.704  0.0630  0.1913 -0.7749
19778TIP3    H180825   0.328   6.742   0.635 -1.1909 -1.5718 -0.0063
19778TIP3    H280826   0.229   6.854   0.661  0.1496 -0.0549 -1.2201
19779TIP3   OH280827   5.023   4.889   4.850  0.2992 -0.2406  0.5586
19779TIP3    H180828   5.074   4.904   4.771  1.5152 -0.7417  1.2254
19779TIP3    H280829   4.991   4.799   4.842  1.6394 -0.8047  1.2769
19780TIP3   OH280830   2.655   6.582   2.269  0.2355 -0.0681 -0.2719
19780TIP3    H180831   2.565   6.587   2.300  0.1162 -0.5279 -0.5239
19780TIP3    H280832   2.708   6.577   2.348  0.1212  1.2680 -0.1001
19781TIP3   OH280833   1.452   0.205  11.476 -0.4214  0.1444 -0.0047
19781TIP3    H180834   1.547   0.214  11.475 -0.3574 -0.3745 -1.6056
19781TIP3    H280835   1.426   0.227  11.565  1.3365 -1.0803  0.8552
19782TIP3   OH280836   1.433   6.733   2.587  0.4862 -0.0620  0.2144
19782TIP3    H180837   1.510   6.685   2.555 -0.4770 -0.6332 -1.3435
19782TIP3    H280838   1.435   6.816   2.540  0.7993  0.4550  1.1029
19783TIP3   OH280839   6.050   1.727   0.389  0.6142  0.0952 -0.1834
19783TIP3    H180840   5.985   1.676   0.437  0.6988  0.7132  0.6143
19783TIP3    H280841   6.003   1.806   0.362  0.6607 -0.0924 -0.8356
19784TIP3   OH280842   4.287   2.475   1.271 -0.2418 -0.0041  0.8087
19784TIP3    H180843   4.379   2.483   1.245 -0.0848 -1.3401  0.9279
19784TIP3    H280844   4.244   2.550   1.229  0.0812 -1.6404 -2.8334
19785TIP3   OH280845   0.539   3.867   4.717 -0.1229 -0.0151 -0.0156
19785TIP3    H180846   0.579   3.781   4.730 -1.9541 -1.0144 -0.6164
19785TIP3    H280847   0.612   3.922   4.687  1.1625 -1.2531  0.6887
19786TIP3   OH280848   0.233   3.719   3.245 -0.0562 -0.2302 -0.0398
19786TIP3    H180849   0.292   3.687   3.313  0.4939 -0.6881 -0.7185
19786TIP3    H280850   0.291   3.743   3.172 -0.6896 -0.5517 -0.6644
19787TIP3   OH280851   1.789   7.187   2.039 -0.7394 -0.1543 -0.5722
19787TIP3    H180852   1.816   7.262   1.987  0.3926 -0.0949  0.0714
19787TIP3    H280853   1.704   7.212   2.075  0.1886  1.3871  0.6746
19788TIP3   OH280854   4.215   1.142   2.152 -0.2021  0.1682  0.2465
19788TIP3    H180855   4.237   1.227   2.114  0.2645  0.8091  1.8455
19788TIP3    H280856   4.281   1.082   2.117  0.0532  0.6733 -0.1538
19789TIP3   OH280857   1.793   2.381  14.149 -0.3894  0.0375  0.3043
19789TIP3    H180858   1.846   2.387  14.069 -1.0648 -0.1145 -0.1668
19789TIP3    H280859   1.722   2.444  14.135 -0.2723  0.3243  0.9790
19790TIP3   OH280860   2.733   1.986   1.295 -0.6698  0.0034  0.0159
19790TIP3    H180861   2.669   1.950   1.233 -0.5550  0.9232 -0.6464
19790TIP3    H280862   2.815   1.942   1.272 -1.0806 -1.4355  1.0866
19791TIP3   OH280863   6.345   7.196   3.000  0.2229  0.5371  0.3428
19791TIP3    H180864   6.369   7.282   2.964  1.7080 -0.2141 -0.5276
19791TIP3    H280865   6.428   7.149   3.009 -0.6196 -1.0473  0.1798
19792TIP3   OH280866   0.217   6.009   4.373 -0.1153 -0.1807  0.3849
19792TIP3    H180867   0.189   5.956   4.448 -0.8491 -0.6087 -0.1857
19792TIP3    H280868   0.209   5.951   4.298  0.7697  0.1982 -0.0176
19793TIP3   OH280869   5.959   0.293   5.119  0.2691  0.4039  0.2995
19793TIP3    H180870   6.042   0.290   5.072  0.2128 -1.5926  0.2311
19793TIP3    H280871   5.958   0.380   5.160  1.9965  0.7901 -0.3761
19794TIP3   OH280872   1.280   0.431   2.117 -0.3672 -1.0259 -0.1315
19794TIP3    H180873   1.307   0.472   2.199 -0.2649  0.8742 -1.0568
19794TIP3    H280874   1.313   0.490   2.049 -0.1088 -2.7463 -1.5752
19795TIP3   OH280875   0.954   3.138   0.417  0.3062  0.2812 -0.1669
19795TIP3    H180876   0.978   3.228   0.435  0.7339  0.3668 -1.1425
19795TIP3    H280877   1.027   3.086   0.451  1.5652  0.4935 -2.3631
19796TIP3   OH280878   2.943   3.607   0.156  0.2334 -0.0213 -0.2618
19796TIP3    H180879   2.928   3.701   0.149 -1.1429 -0.0399  1.7896
19796TIP3    H280880   3.030   3.594   0.118 -0.0901  1.8467 -1.8006
19797TIP3   OH280881   3.600   0.106   2.057 -0.2100 -0.2184  0.3487
19797TIP3    H180882   3.564   0.017   2.047  0.1685 -0.5343  1.6366
19797TIP3    H280883   3.561   0.155   1.985 -2.3102 -0.8468  0.9751
19798TIP3   OH280884   5.297   6.513   1.742 -0.4747  0.1015  0.6599
19798TIP3    H180885   5.288   6.437   1.799  0.8728 -1.3493 -0.9724
19798TIP3    H280886   5.218   6.565   1.759 -1.9431 -2.1550  1.0774
19799TIP3   OH280887   5.242   3.344   5.040  0.0168  0.0641  0.1341
19799TIP3    H180888   5.251   3.262   4.991 -0.1653  0.2337 -0.1866
19799TIP3    H280889   5.306   3.337   5.110 -0.6222 -0.7458  0.6573
19800TIP3   OH280890   3.284   4.328   2.471 -0.3159  0.9500 -0.4270
19800TIP3    H180891   3.218   4.265   2.500 -1.5310  1.6603 -1.5674
19800TIP3    H280892   3.322   4.289   2.392  1.8757 -0.2361  1.0877
19801TIP3   OH280893   0.053   6.626   0.514  0.4061 -0.3344 -0.6676
19801TIP3    H180894   0.096   6.712   0.509 -0.4664  0.2375  0.7997
19801TIP3    H280895   0.122   6.563   0.493  1.4177  0.6574 -0.4290
19802TIP3   OH280896   0.573   4.717  12.667  1.3314  0.0563  0.0080
19802TIP3    H180897   0.507   4.670  12.617 -0.2414 -0.0854  2.0726
19802TIP3    H280898   0.657   4.678  12.642  0.4085 -1.2885 -1.0332
19803TIP3   OH280899   3.120   0.053   4.587 -0.0104 -0.0443 -0.0280
19803TIP3    H180900   3.071   0.086   4.512  0.1046  0.0839 -0.0471
19803TIP3    H280901   3.104   0.116   4.657  0.8028  0.4524 -0.2795
19804TIP3   OH280902   4.626   5.171  14.838  0.4292  0.3632  0.1756
19804TIP3    H180903   4.718   5.178  14.863 -0.0041  0.4798  1.8730
19804TIP3    H280904   4.611   5.076  14.831  0.8558  0.3600 -0.9151
19805TIP3   OH280905   1.989   1.517   5.437  0.1694 -1.0020  0.5198
19805TIP3    H180906   2.079   1.500   5.408 -0.0236 -0.0999 -0.7190
19805TIP3    H280907   1.941   1.437   5.414  0.1144 -0.4782 -1.3965
19806TIP3   OH280908   3.382   4.484   3.361 -0.3084 -0.2054  0.0811
19806TIP3    H180909   3.432   4.441   3.291  0.2360  2.2035 -1.1333
19806TIP3    H280910   3.437   4.475   3.439  0.0680 -1.1173 -0.2733
19807TIP3   OH280911   5.985   7.131   1.205 -0.6501  0.2290 -0.2847
19807TIP3    H180912   6.028   7.163   1.126 -0.3942 -0.9947 -0.6583
19807TIP3    H280913   6.056   7.113   1.266 -0.7804  0.2398 -0.1280
19808TIP3   OH280914   5.605   4.830   5.302 -0.4745  0.1675  0.5680
19808TIP3    H180915   5.673   4.762   5.312 -0.5900 -0.0329  0.0209
19808TIP3    H280916   5.626   4.894   5.370 -0.6928 -0.6910  1.4677
19809TIP3   OH280917   4.296   0.324   0.417 -0.1263 -0.6587 -0.4014
19809TIP3    H180918   4.289   0.360   0.506 -1.1632  1.0078 -1.1190
19809TIP3    H280919   4.378   0.274   0.418  0.2626 -0.0511  1.2746
19810TIP3   OH280920   1.139   3.123   5.868 -0.0328  0.5861 -0.0247
19810TIP3    H180921   1.161   3.204   5.913  2.4185 -0.9210  1.7518
19810TIP3    H280922   1.089   3.072   5.932  0.1111 -0.0527 -0.4101
19811TIP3   OH280923   0.424   3.596  12.430  0.4306  0.0203 -0.2372
19811TIP3    H180924   0.475   3.613  12.509 -0.0971  0.5417  0.0012
19811TIP3    H280925   0.431   3.678  12.380 -2.8709  1.4380  1.3256
19812TIP3   OH280926   1.974   4.509   5.784  0.1925 -0.7938  0.5079
19812TIP3    H180927   2.010   4.521   5.697 -1.7053 -0.7022 -0.3016
19812TIP3    H280928   2.005   4.422   5.811 -0.4562 -1.4901 -0.9115
19813TIP3   OH280929   5.722   6.680  14.585  0.5235  0.2432 -0.5599
19813TIP3    H180930   5.782   6.732  14.638 -0.4555  1.4078 -0.5602
19813TIP3    H280931   5.771   6.599  14.566  0.0691 -1.5716  4.3582
19814TIP3   OH280932   2.929   4.765   2.186  0.3694 -0.0070  0.4025
19814TIP3    H180933   2.844   4.720   2.181 -0.5635  1.8216 -1.5234
19814TIP3    H280934   2.982   4.722   2.119  0.9250 -0.9932  1.4468
19815TIP3   OH280935   3.344   5.370  13.100  0.6458 -0.3284 -0.5451
19815TIP3    H180936   3.362   5.290  13.049  1.2763 -0.0739 -0.7399
19815TIP3    H280937   3.322   5.338  13.187 -1.9162 -0.8485 -1.3196
19816TIP3   OH280938   1.504   6.096   3.646 -0.3186 -0.2616 -0.2281
19816TIP3    H180939   1.472   6.166   3.702 -0.1237 -0.6204  0.3449
19816TIP3    H280940   1.559   6.043   3.703  0.9126  0.0729 -1.0740
19817TIP3   OH280941   4.522   2.696   5.038  0.5284 -0.2530  0.3077
19817TIP3    H180942   4.556   2.610   5.063 -0.5578 -0.4976  1.0363
19817TIP3    H280943   4.429   2.680   5.020 -0.0211  0.9900  1.8055
19818TIP3   OH280944   4.706   6.471   4.308  0.1130 -1.1138 -0.1636
19818TIP3    H180945   4.613   6.487   4.297  0.0168 -2.1613 -0.9776
19818TIP3    H280946   4.747   6.557   4.295 -0.6769 -0.7938 -0.5506
19819TIP3   OH280947   0.997   3.855   5.868  0.0472  0.7106 -0.3858
19819TIP3    H180948   0.993   3.886   5.777 -0.7520  1.6155 -0.0476
19819TIP3    H280949   0.936   3.911   5.916 -1.5167 -1.3777  0.2428
19820TIP3   OH280950   0.837   2.185   3.234 -0.0853 -0.1736 -0.3698
19820TIP3    H180951   0.870   2.255   3.290  0.4351  1.3752 -2.4713
19820TIP3    H280952   0.915   2.137   3.207  0.2252  1.5001 -2.7646
19821TIP3   OH280953   2.835   5.339   1.892  0.2799  0.5806 -0.4555
19821TIP3    H180954   2.886   5.412   1.857 -0.7550  2.2412  1.2801
19821TIP3    H280955   2.900   5.279   1.928  1.1288  1.3504 -0.6637
19822TIP3   OH280956   2.381   2.784  14.438 -0.2797 -0.3661  0.0013
19822TIP3    H180957   2.386   2.773  14.533 -2.6137 -0.5393  0.1637
19822TIP3    H280958   2.468   2.816  14.413  1.1407 -2.4902  1.8494
19823TIP3   OH280959   3.222   1.393   4.186  0.3334 -0.2007 -0.3256
19823TIP3    H180960   3.248   1.308   4.153  3.9867 -0.3286  2.2467
19823TIP3    H280961   3.180   1.375   4.270  1.0579  0.5051  0.2044
19824TIP3   OH280962   4.990   6.304   1.126 -0.0577  0.0658  0.0683
19824TIP3    H180963   4.972   6.239   1.058 -3.1069 -0.5909  1.3335
19824TIP3    H280964   4.986   6.254   1.208  2.3786  1.0496  0.8957
19825TIP3   OH280965   2.811   1.256  12.534  0.3501  0.3713 -0.0903
19825TIP3    H180966   2.754   1.309  12.478  0.2037  0.1256 -0.1725
19825TIP3    H280967   2.867   1.320  12.578 -1.1145  0.7769  1.2990
19826TIP3   OH280968   6.828   0.602   4.168  0.2425  0.0220 -0.2583
19826TIP3    H180969   6.751   0.598   4.226  1.8595  0.5750  2.0646
19826TIP3    H280970   6.841   0.511   4.140 -1.0570 -0.1273 -0.4649
19827TIP3   OH280971   0.902   3.597   1.415 -0.0187  0.0273  0.1824
19827TIP3    H180972   0.898   3.609   1.320 -0.1191 -1.2348  0.0058
19827TIP3    H280973   0.963   3.665   1.445 -0.5113  0.8788 -0.6921
19828TIP3   OH280974   2.388   5.206   2.680  0.1860 -0.0502  0.4927
19828TIP3    H180975   2.477   5.222   2.712  0.8991 -0.9112 -0.9694
19828TIP3    H280976   2.354   5.138   2.739  0.8397 -0.3753  0.5124
19829TIP3   OH280977   0.872   2.332  13.337 -0.4793 -0.0556  0.1578
19829TIP3    H180978   0.824   2.336  13.255  1.6651  1.8421 -1.1558
19829TIP3    H280979   0.926   2.253  13.331  1.8260  1.5041 -1.7349
19830TIP3   OH280980   4.821   4.767   5.039 -0.0326 -0.3999 -0.2441
19830TIP3    H180981   4.761   4.811   5.099  2.3968  1.3181  1.1226
19830TIP3    H280982   4.765   4.714   4.983 -2.5390 -1.4595  2.9786
19831TIP3   OH280983   0.293   6.046   5.034  0.1933  0.2594  0.4829
19831TIP3    H180984   0.286   6.137   5.004  1.0341  0.3190  0.4397
19831TIP3    H280985   0.205   6.024   5.066  0.1056  1.2379  0.9345
19832TIP3   OH280986   1.156   3.718   2.163  0.0795  0.3705 -0.4859
19832TIP3    H180987   1.176   3.810   2.181 -1.0979  0.3477  1.1290
19832TIP3    H280988   1.077   3.720   2.110  0.0146  0.2871 -0.3927
19833TIP3   OH280989   2.295   6.367  14.149  0.3501 -0.0040 -0.5443
19833TIP3    H180990   2.207   6.404  14.139  0.5044  0.2832 -0.8763
19833TIP3    H280991   2.282   6.272  14.145  0.2501  0.0558 -2.4186
19834TIP3   OH280992   0.552   1.219   4.738  0.3926  0.5879 -0.0950
19834TIP3    H180993   0.638   1.246   4.705  1.2648 -0.0941  1.5292
19834TIP3    H280994   0.524   1.290   4.795 -1.1736  1.8205 -2.2293
19835TIP3   OH280995   4.251   4.560   3.106 -0.6024  0.4935 -0.5532
19835TIP3    H180996   4.286   4.615   3.176  0.0747  1.0257 -1.2908
19835TIP3    H280997   4.271   4.471   3.133 -2.1234  0.5258  0.8873
19836TIP3   OH280998   0.266   6.617   5.205 -0.2846  0.4102  0.0039
19836TIP3    H180999   0.253   6.658   5.119  1.3335  1.3791  0.1762
19836TIP3    H281000   0.355   6.641   5.229  0.2417 -2.0291  0.7923
19837TIP3   OH281001   6.541   2.908  15.083 -0.7128  0.2146 -0.2254
19837TIP3    H181002   6.565   2.884  14.993 -1.1026  1.0301 -0.5567
19837TIP3    H281003   6.456   2.951  15.074 -0.3425  1.1121  0.4173
19838TIP3   OH281004   2.794   5.497  14.987  0.0160  0.0225 -0.0294
19838TIP3    H181005   2.750   5.526  14.908 -0.0558  1.2423  0.4313
19838TIP3    H281006   2.747   5.417  15.013 -1.7674  1.0953  0.2744
19839TIP3   OH281007   3.708   2.641   2.444  0.6083 -0.2694 -0.5115
19839TIP3    H181008   3.737   2.605   2.360  1.9994  3.3779 -1.7833
19839TIP3    H281009   3.789   2.664   2.489 -0.1791  0.8277  0.3919
19840TIP3   OH281010   5.255   4.141   0.924 -0.3832 -0.1210  0.0076
19840TIP3    H181011   5.210   4.214   0.967  0.6996 -0.1510  1.2517
19840TIP3    H281012   5.196   4.066   0.936 -0.8623  0.2401 -0.0478
19841TIP3   OH281013   3.348   3.680   4.104  0.4633  0.2950  0.6451
19841TIP3    H181014   3.350   3.596   4.058  1.4087  0.4980  0.2896
19841TIP3    H281015   3.255   3.703   4.107  0.3231  0.0442 -0.7728
19842TIP3   OH281016   4.668   2.372   4.363  0.2337 -0.5136 -0.3879
19842TIP3    H181017   4.745   2.428   4.358 -0.6716  0.7976 -0.2028
19842TIP3    H281018   4.611   2.404   4.293 -1.0897  0.0423  0.9122
19843TIP3   OH281019   7.205   5.856   5.674 -0.3784  0.2692  0.3123
19843TIP3    H181020   7.128   5.913   5.677 -0.1966  0.8495 -2.9060
19843TIP3    H281021   7.171   5.769   5.694 -1.6701  0.6702 -0.0023
19844TIP3   OH281022   1.496   1.460   3.867  0.2253  0.6708 -0.2845
19844TIP3    H181023   1.582   1.482   3.904  0.1093  1.1122 -0.2739
19844TIP3    H281024   1.450   1.543   3.864  0.4360  0.7465 -1.9843
19845TIP3   OH281025   6.253   5.321  14.938  0.0735  0.2948  0.1213
19845TIP3    H181026   6.294   5.384  14.997  0.3489 -0.0742  0.3249
19845TIP3    H281027   6.325   5.288  14.884 -0.3267  1.3341 -1.0788
19846TIP3   OH281028   2.016   6.364   2.868 -0.3936  0.2878 -0.5197
19846TIP3    H181029   2.102   6.356   2.827 -0.1810  2.6899 -0.6871
19846TIP3    H281030   2.035   6.369   2.962 -0.0156  3.1500 -0.6459
19847TIP3   OH281031   3.643   0.051   3.857 -0.1899  0.0888  0.1066
19847TIP3    H181032   3.608  -0.002   3.785 -3.0118  2.2023 -0.2442
19847TIP3    H281033   3.620   0.003   3.936 -0.6518 -0.3282 -0.2757
19848TIP3   OH281034   5.557   4.765   1.246  0.0318  0.4343  0.3909
19848TIP3    H181035   5.513   4.717   1.175  1.7358 -0.2371 -0.2719
19848TIP3    H281036   5.523   4.854   1.238 -1.5527 -0.1461  0.2359
19849TIP3   OH281037   2.786   2.457   4.552 -0.5130 -0.0650  0.3393
19849TIP3    H181038   2.701   2.446   4.595 -1.0686  0.2280 -0.6641
19849TIP3    H281039   2.794   2.382   4.494 -0.5984  0.4675 -0.3827
19850TIP3   OH281040   4.617   0.367   3.502 -0.2654 -0.1981  0.9800
19850TIP3    H181041   4.569   0.368   3.584  0.3436 -1.5940  1.3710
19850TIP3    H281042   4.709   0.368   3.528 -0.0654 -0.7477  0.3258
19851TIP3   OH281043   0.714   2.488   3.237  0.8232  0.2370  0.0263
19851TIP3    H181044   0.649   2.493   3.307  0.4702 -0.0376 -0.2772
19851TIP3    H281045   0.795   2.464   3.281  0.5546 -0.1518  0.3141
19852TIP3   OH281046   2.931   0.750   2.461  0.2382 -0.0721 -0.1474
19852TIP3    H181047   2.859   0.730   2.520  0.9069 -1.9233  0.1155
19852TIP3    H281048   2.935   0.675   2.401  1.3900  0.3962 -0.6997
19853TIP3   OH281049   3.818   7.249   2.745 -0.2934 -0.1908  0.6059
19853TIP3    H181050   3.787   7.262   2.835  1.4002 -0.6787  1.3062
19853TIP3    H281051   3.883   7.319   2.732 -0.1772 -0.4183 -0.0751
19854TIP3   OH281052   0.284   7.167   3.311  0.3914 -0.1131 -0.2644
19854TIP3    H181053   0.270   7.251   3.355 -1.9114 -0.4027 -0.3211
19854TIP3    H281054   0.331   7.114   3.375 -3.3901 -0.7498  2.3565
19855TIP3   OH281055   2.066   5.527   0.832 -0.4440 -0.5362 -0.4837
19855TIP3    H181056   2.111   5.612   0.835 -1.8390  0.2071  0.1909
19855TIP3    H281057   2.041   5.518   0.740  2.1246 -1.5736 -1.1629
19856TIP3   OH281058   1.613   4.824  13.769 -0.0145  0.8676  0.2386
19856TIP3    H181059   1.519   4.839  13.774  0.2709  3.1032 -0.1179
19856TIP3    H281060   1.642   4.821  13.861 -0.1029  2.9339  0.3822
19857TIP3   OH281061   0.434   5.643   0.995 -0.4333 -0.2735  0.4425
19857TIP3    H181062   0.473   5.594   1.067 -1.5267 -1.7652  0.0807
19857TIP3    H281063   0.403   5.724   1.035 -0.3323 -0.7297  1.4904
19858TIP3   OH281064   1.188   2.800  13.230  0.3513 -0.0667 -0.5129
19858TIP3    H181065   1.238   2.807  13.149  1.9993 -1.4757  0.3245
19858TIP3    H281066   1.195   2.708  13.255  0.1161  0.3868  1.3913
19859TIP3   OH281067   0.971   2.317   2.716  0.4026  0.1945  0.0984
19859TIP3    H181068   0.971   2.281   2.628  0.8162  1.4451 -0.4429
19859TIP3    H281069   1.034   2.263   2.764 -1.4120 -1.8914  0.2854
19860TIP3   OH281070   2.239   0.483   3.333 -0.3743 -0.1154 -0.1196
19860TIP3    H181071   2.304   0.551   3.353 -2.6292  2.0175  0.3713
19860TIP3    H281072   2.158   0.515   3.373 -1.8028 -2.5958 -0.8486
19861TIP3   OH281073   4.127   0.797   4.232 -0.0351 -0.5012  0.8673
19861TIP3    H181074   4.051   0.821   4.179 -0.1500 -1.2732  0.6681
19861TIP3    H281075   4.097   0.807   4.323 -0.0251  0.2402  0.7967
19862TIP3   OH281076   2.109   7.056   3.346  0.2591  0.4731 -0.2246
19862TIP3    H181077   2.176   7.040   3.413  2.0714 -1.1840 -2.3076
19862TIP3    H281078   2.065   6.972   3.336  1.8998 -0.1811 -2.9663
19863TIP3   OH281079   0.742   6.008   4.082 -0.4206 -0.2013 -0.1238
19863TIP3    H181080   0.653   6.019   4.113 -0.4865  0.1714 -0.4358
19863TIP3    H281081   0.772   6.097   4.061  0.4298 -0.1770  1.0841
19864TIP3   OH281082   5.604   0.488   5.469 -0.1932 -0.2675 -0.8936
19864TIP3    H181083   5.661   0.561   5.444  0.4898 -0.4871 -0.0375
19864TIP3    H281084   5.539   0.527   5.527  1.8852 -0.7435  1.9735
19865TIP3   OH281085   1.813   6.875   1.825 -0.1018 -0.8185  0.2535
19865TIP3    H181086   1.882   6.843   1.767  1.5429  0.1993  1.5315
19865TIP3    H281087   1.738   6.890   1.768  1.1119 -0.8278 -1.4145
19866TIP3   OH281088   4.135   3.146   1.813 -0.4334  0.3307 -0.7961
19866TIP3    H181089   4.178   3.220   1.770 -0.6734 -0.0386 -1.6991
19866TIP3    H281090   4.047   3.179   1.834 -0.4769  0.3697 -1.0305
19867TIP3   OH281091   4.340   6.076  13.875  0.5552 -0.1826 -0.1550
19867TIP3    H181092   4.340   6.035  13.962  2.0865 -3.0245 -1.3393
19867TIP3    H281093   4.248   6.077  13.849  0.3246 -1.7638  0.4874
19868TIP3   OH281094   2.152   6.266   1.314  0.0303 -0.1527  0.0555
19868TIP3    H181095   2.099   6.196   1.275 -0.3050 -0.1392  0.4826
19868TIP3    H281096   2.242   6.235   1.305  0.1226  0.6158 -2.2915
19869TIP3   OH281097   2.171   3.432   2.786  0.4279  0.6458  0.7350
19869TIP3    H181098   2.185   3.345   2.748 -2.0110 -0.0182  1.1647
19869TIP3    H281099   2.206   3.493   2.721  1.5466 -0.6158  0.1024
19870TIP3   OH281100   1.923   5.423   4.644  0.5016  0.4040 -0.3725
19870TIP3    H181101   1.983   5.489   4.680  1.6979 -0.9027  0.1158
19870TIP3    H281102   1.916   5.446   4.551  1.0953  1.0711 -0.2619
19871TIP3   OH281103   3.823   4.498   3.390 -0.8137 -0.0568  0.5501
19871TIP3    H181104   3.914   4.529   3.387 -0.8321  0.2446  2.0148
19871TIP3    H281105   3.830   4.403   3.378 -0.5355  0.1886 -1.5541
19872TIP3   OH281106   4.476   0.551   0.883 -0.0248  0.2946  0.1418
19872TIP3    H181107   4.523   0.519   0.960 -1.7729  0.1279  1.1771
19872TIP3    H281108   4.454   0.472   0.834 -0.1173  0.3027  0.1715
19873TIP3   OH281109   6.816   4.226   9.643 -0.4041 -0.1865  0.0394
19873TIP3    H181110   6.879   4.161   9.675 -0.1101  0.6762  1.2652
19873TIP3    H281111   6.869   4.286   9.591 -0.6193 -0.7089 -0.8075
19874TIP3   OH281112   0.188   6.410   4.482  0.1708 -0.3205 -0.5265
19874TIP3    H181113   0.258   6.467   4.452  0.1793  0.8096  1.4408
19874TIP3    H281114   0.229   6.356   4.550 -0.3787 -1.1308 -0.8263
19875TIP3   OH281115   1.796   5.446   3.335  0.0092  0.0201  0.7133
19875TIP3    H181116   1.746   5.369   3.364  0.9376 -0.8083  0.1780
19875TIP3    H281117   1.803   5.436   3.240 -0.6179  1.2560  0.5106
19876TIP3   OH281118   4.788   3.430   0.447  0.5697 -0.5151  0.0547
19876TIP3    H181119   4.833   3.432   0.363  0.8740 -0.0392  0.2236
19876TIP3    H281120   4.695   3.429   0.424  0.6524 -0.5088 -0.2864
19877TIP3   OH281121   0.432   6.103   3.943  0.1373  0.5112 -0.1122
19877TIP3    H181122   0.460   6.055   3.865 -3.2164  0.5481 -1.4713
19877TIP3    H281123   0.337   6.100   3.941 -0.1200  1.8034  3.2401
19878TIP3   OH281124   5.358   1.245   5.136  0.1418 -0.0694 -0.6112
19878TIP3    H181125   5.367   1.340   5.139  0.4841 -0.1204  0.3693
19878TIP3    H281126   5.318   1.227   5.051 -0.7530  1.0176 -0.4452
19879TIP3   OH281127   1.378   1.653   2.853 -0.6740  0.3047  0.0407
19879TIP3    H181128   1.332   1.575   2.821 -0.4813 -0.5050  1.6120
19879TIP3    H281129   1.378   1.642   2.948  0.8280  1.4155  0.1906
19880TIP3   OH281130   6.554   3.082   2.643  0.5084 -0.0993  0.0455
19880TIP3    H181131   6.640   3.107   2.608 -0.1270  1.1272 -0.7358
19880TIP3    H281132   6.492   3.103   2.573 -0.3242 -2.2735  0.0419
19881TIP3   OH281133   7.165   6.293  12.459  0.1300 -0.0344  0.0828
19881TIP3    H181134   7.093   6.231  12.449 -1.6287  1.8607  0.4257
19881TIP3    H281135   7.173   6.335  12.374 -0.3749  0.9942  0.5305
19882TIP3   OH281136   5.617   4.453   3.915  0.7605 -0.1022  0.3744
19882TIP3    H181137   5.666   4.512   3.972 -0.9474  1.0921  0.6748
19882TIP3    H281138   5.583   4.385   3.973 -0.5465  0.8294  0.7448
19883TIP3   OH281139   5.060   5.706  15.317  0.3891 -0.2222  0.3742
19883TIP3    H181140   4.979   5.658  15.338  0.0639  0.7549  1.4859
19883TIP3    H281141   5.029   5.789  15.280  0.8949 -0.1058  0.2134
19884TIP3   OH281142   6.336   1.189   4.487  0.5668 -0.6421 -0.0260
19884TIP3    H181143   6.324   1.099   4.517  1.3054 -0.4440  0.9286
19884TIP3    H281144   6.431   1.203   4.491  0.3633  0.6546  1.3833
19885TIP3   OH281145   4.320   6.185   4.445 -0.0950  0.0349 -0.5704
19885TIP3    H181146   4.416   6.180   4.445 -0.0712  0.4563 -0.5010
19885TIP3    H281147   4.296   6.179   4.537 -0.1697 -0.5744 -0.6218
19886TIP3   OH281148   5.219   1.495   4.272 -0.1735  0.3999 -0.1586
19886TIP3    H181149   5.181   1.475   4.186  0.5820  0.4765 -0.5189
19886TIP3    H281150   5.310   1.518   4.253  1.0946 -3.0249  1.0120
19887TIP3   OH281151   1.131   1.316  11.127  0.1739  0.1808  0.2740
19887TIP3    H181152   1.111   1.389  11.068  0.0033  0.6227  0.8674
19887TIP3    H281153   1.097   1.344  11.212  0.3695 -0.4708  0.5728
19888TIP3   OH281154   7.219   0.814  11.021  0.0126 -0.5248  0.2124
19888TIP3    H181155   7.185   0.727  11.039  0.8754 -0.5753  1.7763
19888TIP3    H281156   7.249   0.846  11.106 -0.1735  1.2555 -0.3497
19889TIP3   OH281157   6.183   4.221   1.459  0.1698 -0.1312  0.0562
19889TIP3    H181158   6.137   4.288   1.509  2.0584  0.2688  1.3738
19889TIP3    H281159   6.200   4.261   1.374 -0.7898  0.1599 -0.0041
19890TIP3   OH281160   4.936   2.016   3.972 -0.0419  0.0201  0.8513
19890TIP3    H181161   4.935   1.991   3.880 -3.4880 -0.3491  0.8894
19890TIP3    H281162   4.915   2.109   3.971  2.9440  0.8056  1.2260
19891TIP3   OH281163   7.157   3.774   3.446 -0.1625  0.5336 -0.3677
19891TIP3    H181164   7.111   3.690   3.451  1.1991 -0.3861 -2.1103
19891TIP3    H281165   7.123   3.824   3.520 -2.5140 -0.7749 -0.4524
19892TIP3   OH281166   0.111   0.191   1.111  0.1776  0.7001  0.1406
19892TIP3    H181167   0.088   0.186   1.018 -1.4060 -0.1882  0.5444
19892TIP3    H281168   0.058   0.263   1.144 -2.4556 -1.5261  1.1376
19893TIP3   OH281169   5.005   4.929   4.427 -0.5259  0.1349 -0.2499
19893TIP3    H181170   4.912   4.950   4.419 -0.7225 -0.0560  1.2021
19893TIP3    H281171   5.025   4.944   4.520  0.6198 -0.9227 -0.3040
19894TIP3   OH281172   6.067   3.252   0.581 -0.2972  0.7488 -0.2800
19894TIP3    H181173   6.029   3.317   0.641 -2.1138 -0.7095  0.2776
19894TIP3    H281174   6.048   3.168   0.624  1.1207 -0.1919 -1.4364
19895TIP3   OH281175   2.218   4.177  10.111 -0.5665 -0.2322  0.4195
19895TIP3    H181176   2.270   4.229  10.050 -0.8475 -0.7033 -0.2280
19895TIP3    H281177   2.237   4.086  10.087  0.1500 -0.4493  1.7308
19896TIP3   OH281178   0.367   1.013  15.274 -0.1555  0.3439 -0.1838
19896TIP3    H181179   0.289   1.020  15.329 -0.2849  0.5919 -0.3959
19896TIP3    H281180   0.334   1.025  15.185 -0.3277 -2.3303 -0.5749
19897TIP3   OH281181   4.972   0.034   2.774 -0.0425 -0.0542 -0.2277
19897TIP3    H181182   4.878   0.051   2.780  0.0146  0.1834  0.0175
19897TIP3    H281183   5.007   0.108   2.725  0.0057 -0.1881 -0.3981
19898TIP3   OH281184   5.009   5.580   4.502 -0.1626 -0.0593  0.3100
19898TIP3    H181185   5.022   5.497   4.455  0.7232 -0.0105  0.4484
19898TIP3    H281186   5.088   5.589   4.556 -1.0863 -0.0552  1.7220
19899TIP3   OH281187   1.682   5.246   3.502  0.1912  0.2337  0.1796
19899TIP3    H181188   1.731   5.177   3.546 -1.9883 -1.6805 -0.2131
19899TIP3    H281189   1.633   5.289   3.573 -1.6668 -1.4477 -0.0005
19900TIP3   OH281190   1.701   4.554   4.845  0.2243  0.0946  0.3324
19900TIP3    H181191   1.714   4.569   4.938  0.9015  1.9073 -0.0030
19900TIP3    H281192   1.607   4.549   4.834  0.1685 -0.9571  1.2126
19901TIP3   OH281193   1.183   0.309   1.437 -0.7107 -0.2420 -0.5018
19901TIP3    H181194   1.133   0.314   1.519 -1.3572 -2.3780 -0.7067
19901TIP3    H281195   1.134   0.246   1.383  1.8584 -2.0354 -0.9261
19902TIP3   OH281196   6.588   6.291   4.022  0.6065 -0.0415 -0.1725
19902TIP3    H181197   6.655   6.350   4.056  0.4758 -0.2249  0.4074
19902TIP3    H281198   6.505   6.328   4.052  0.5877 -1.2346  1.3344
19903TIP3   OH281199   4.187   1.613   5.365  0.1265 -0.1321 -0.0891
19903TIP3    H181200   4.096   1.619   5.337  0.7270  0.4990 -2.0766
19903TIP3    H281201   4.238   1.638   5.288  2.0560 -1.9718  0.4787
19904TIP3   OH281202   3.324   5.674   2.902  0.0994 -0.2818  0.3030
19904TIP3    H181203   3.373   5.750   2.934  0.4100 -0.7242  0.8950
19904TIP3    H281204   3.338   5.607   2.969  2.2256 -1.8372 -1.5423
19905TIP3   OH281205   1.216   4.176   0.141 -0.4826 -0.2586  0.4865
19905TIP3    H181206   1.217   4.088   0.180 -0.2584 -0.2845  0.4213
19905TIP3    H281207   1.240   4.161   0.050  0.7136  0.0105  0.7483
19906TIP3   OH281208   4.824   1.718   5.920  0.0669  0.5584  0.0273
19906TIP3    H181209   4.874   1.791   5.957 -0.2379  0.7619  0.0389
19906TIP3    H281210   4.867   1.640   5.956 -1.0927  0.7718  1.9924
19907TIP3   OH281211   0.162   6.234   2.293 -0.8172 -0.5462  0.0086
19907TIP3    H181212   0.149   6.275   2.378 -1.0329 -0.1796 -0.1948
19907TIP3    H281213   0.116   6.151   2.298 -1.0839 -0.3889  0.1492
19908TIP3   OH281214   7.061   0.821   2.786 -0.0723 -0.2050 -0.0290
19908TIP3    H181215   7.070   0.912   2.814  0.1680  0.1871 -1.3127
19908TIP3    H281216   7.104   0.817   2.700 -2.2442 -0.9342 -1.1652
19909TIP3   OH281217   5.313   5.783   3.630  0.0548 -0.0944 -0.1911
19909TIP3    H181218   5.380   5.714   3.634  0.0901 -0.1970 -1.8306
19909TIP3    H281219   5.244   5.746   3.576 -1.1163  0.2318  1.0293
19910TIP3   OH281220   5.976   7.026   1.517 -0.4916  0.5999  0.0987
19910TIP3    H181221   6.029   7.072   1.453  0.8311  2.1220  2.1905
19910TIP3    H281222   6.022   6.943   1.531 -0.0163  0.8599  0.0944
19911TIP3   OH281223   1.858   4.363   3.737 -0.2607 -0.4877  0.1798
19911TIP3    H181224   1.876   4.350   3.830 -0.3766  1.2055  0.4706
19911TIP3    H281225   1.779   4.313   3.720 -0.7303 -0.1144  1.2041
19912TIP3   OH281226   1.361   1.702   4.335  0.2325 -0.0916  0.2479
19912TIP3    H181227   1.319   1.749   4.264  0.3121 -0.9683 -0.3957
19912TIP3    H281228   1.340   1.752   4.413 -0.2429  0.6295 -0.3354
19913TIP3   OH281229   1.139   0.072   2.914 -0.4240  0.1231 -0.0275
19913TIP3    H181230   1.131  -0.022   2.899  1.2345  0.3033 -2.5469
19913TIP3    H281231   1.054   0.097   2.950 -1.8879 -1.9412 -1.7575
19914TIP3   OH281232   0.155   6.063   3.987 -0.2535 -0.7776 -0.2653
19914TIP3    H181233   0.124   6.121   4.058  1.5157 -1.8817  1.5295
19914TIP3    H281234   0.099   6.084   3.913 -1.0101  1.7768  0.9076
19915TIP3   OH281235   4.321   5.264   4.082 -0.2245 -0.0264  0.0050
19915TIP3    H181236   4.303   5.225   3.997  1.2395  0.7061 -0.6823
19915TIP3    H281237   4.237   5.264   4.127 -1.6886  1.9658 -2.4327
19916TIP3   OH281238   3.371   0.251   2.669 -0.0976 -0.1584 -0.3537
19916TIP3    H181239   3.453   0.291   2.638 -0.4649  1.9901  1.2636
19916TIP3    H281240   3.304   0.285   2.610 -0.4918  2.2522  1.3458
19917TIP3   OH281241   1.664   4.395  13.290  0.4281  0.2693 -0.0154
19917TIP3    H181242   1.702   4.348  13.216 -0.6400  1.0390 -1.0925
19917TIP3    H281243   1.739   4.436  13.334  1.0199  0.3048 -1.0384
19918TIP3   OH281244   3.935   7.009  14.190  0.3237  0.3622  0.4487
19918TIP3    H181245   3.864   7.003  14.253 -0.2774 -1.4053 -0.3288
19918TIP3    H281246   3.897   7.056  14.115  0.3844  0.5855  0.5575
19919TIP3   OH281247   1.958   4.860   2.902 -0.3616  0.3544  0.2425
19919TIP3    H181248   1.880   4.915   2.899  0.2568  1.2192 -0.6788
19919TIP3    H281249   1.932   4.784   2.953 -1.4900  1.1183  0.8500
19920TIP3   OH281250   5.476   2.924   4.008  0.8077  0.5564 -0.2424
19920TIP3    H181251   5.545   2.959   3.951  1.1924  0.1050 -0.0583
19920TIP3    H281252   5.429   2.862   3.952  2.0837 -0.9890  0.3028
19921TIP3   OH281253   4.536   2.896   1.800  0.2239 -0.2222 -0.0157
19921TIP3    H181254   4.497   2.897   1.713  0.1103 -1.0522  0.0179
19921TIP3    H281255   4.558   2.804   1.815 -1.3198 -0.3870  1.5236
19922TIP3   OH281256   0.771   3.067   3.746  0.4809 -0.6074  0.0806
19922TIP3    H181257   0.839   3.114   3.697 -0.2309  0.7189  0.3385
19922TIP3    H281258   0.798   3.073   3.837  0.4888 -0.8960  0.1006
19923TIP3   OH281259   3.798   5.163   4.597  0.0627 -0.4950  0.1644
19923TIP3    H181260   3.741   5.230   4.637  1.0475 -0.5022  1.6688
19923TIP3    H281261   3.755   5.080   4.618 -2.0134 -0.4242 -3.0367
19924TIP3   OH281262   4.405   0.904   5.209  0.4226 -0.4172  0.4824
19924TIP3    H181263   4.453   0.982   5.237 -0.9314  0.5436  0.2462
19924TIP3    H281264   4.428   0.837   5.273  1.1958  0.3266  1.0038
19925TIP3   OH281265   1.502   6.452   1.761  0.9140 -0.7183  0.3823
19925TIP3    H181266   1.530   6.361   1.751 -0.1021 -1.2718  2.0313
19925TIP3    H281267   1.431   6.462   1.697  0.1140 -1.5372  1.1077
19926TIP3   OH281268   1.374   4.876   4.673 -0.4000  0.1225 -0.2444
19926TIP3    H181269   1.468   4.865   4.684 -0.3166  1.4577  0.6881
19926TIP3    H281270   1.344   4.794   4.633  0.8774 -1.0821  1.1336
19927TIP3   OH281271   5.412   0.888   5.296  0.0505 -0.1313 -0.7662
19927TIP3    H181272   5.374   0.811   5.337 -0.3618  0.0965 -0.7234
19927TIP3    H281273   5.391   0.879   5.203  0.0094 -0.0749 -0.7625
19928TIP3   OH281274   3.091   3.323   3.277 -0.6777 -0.6730 -0.0349
19928TIP3    H181275   3.004   3.361   3.263 -1.0251 -0.9634  1.2464
19928TIP3    H281276   3.131   3.323   3.190 -1.9166 -0.4465 -0.6276
19929TIP3   OH281277   1.543   0.906   2.110 -0.3312 -0.6055  0.2713
19929TIP3    H181278   1.571   0.979   2.165  2.1979 -2.3770  1.4499
19929TIP3    H281279   1.452   0.890   2.137  0.0067  0.2334  2.0532
19930TIP3   OH281280   4.133   5.740   2.043 -0.3052 -0.2627  0.4098
19930TIP3    H181281   4.151   5.648   2.063 -0.0718  0.0636  1.7591
19930TIP3    H281282   4.136   5.744   1.947 -1.8287 -1.9670  0.2214
19931TIP3   OH281283   5.243   1.779  15.021  0.5067 -0.1609  0.0225
19931TIP3    H181284   5.223   1.742  15.107  3.2639 -2.9573 -0.3386
19931TIP3    H281285   5.287   1.862  15.040 -0.4242  0.0835  1.1931
19932TIP3   OH281286   4.646   4.023   2.025  0.7110 -0.0034  0.2455
19932TIP3    H181287   4.668   3.961   1.956 -0.5945  0.5121 -0.6638
19932TIP3    H281288   4.636   3.969   2.104 -0.6125 -1.0047 -0.5721
19933TIP3   OH281289   6.681   7.061   5.439  0.4375  0.3845 -0.2752
19933TIP3    H181290   6.757   7.119   5.443  0.4823  0.8821 -4.1451
19933TIP3    H281291   6.715   6.979   5.403 -0.2801 -0.7732  1.5704
19934TIP3   OH281292   4.222   7.222   4.914  0.4983 -0.8089 -0.5009
19934TIP3    H181293   4.155   7.205   4.847  0.3450  0.8163 -0.7933
19934TIP3    H281294   4.215   7.147   4.973 -3.9410  0.7304  1.4059
19935TIP3   OH281295   6.335   2.488   4.804 -0.3969 -0.5643 -0.3841
19935TIP3    H181296   6.376   2.561   4.758  0.4999 -1.2800 -0.7398
19935TIP3    H281297   6.241   2.505   4.796 -0.2060  0.5023 -0.5273
19936TIP3   OH281298   0.040   5.662   2.987 -0.3347 -0.2065  0.1357
19936TIP3    H181299  -0.044   5.704   2.972 -0.3285  0.4683  1.7304
19936TIP3    H281300   0.033   5.625   3.075  1.4535  1.0150  0.8653
19937TIP3   OH281301   5.564   5.640   2.425  0.2807 -0.0045  0.3356
19937TIP3    H181302   5.617   5.653   2.346  0.9424  0.4987  0.8506
19937TIP3    H281303   5.539   5.728   2.452  1.4309 -0.0217  1.5970
19938TIP3   OH281304   3.089   6.450   5.227  0.3244 -0.1472  0.0813
19938TIP3    H181305   3.143   6.377   5.197 -1.1617 -2.3298  2.3433
19938TIP3    H281306   3.121   6.468   5.315 -0.9281  0.2516  0.4729
19939TIP3   OH281307   7.225   6.107   4.713  0.3273 -0.0713  0.2802
19939TIP3    H181308   7.164   6.165   4.759  3.8981  2.8677  1.8599
19939TIP3    H281309   7.217   6.023   4.757 -0.7355  0.9477  2.1636
19940TIP3   OH281310   6.933   6.057  15.213  0.0331  0.0419  0.1979
19940TIP3    H181311   6.968   6.136  15.172 -1.2553  0.3789 -0.2968
19940TIP3    H281312   6.980   5.985  15.171  1.1401  0.5196  0.5727
19941TIP3   OH281313   6.028   2.095   2.804  0.7011  0.4784 -0.2471
19941TIP3    H181314   5.937   2.118   2.787  0.4630  0.8277  1.3114
19941TIP3    H281315   6.073   2.178   2.818  0.9296  0.2556  0.4178
19942TIP3   OH281316   0.231   0.078   4.545 -0.5274 -0.0226 -0.3377
19942TIP3    H181317   0.286   0.034   4.609  1.7073  0.8632 -1.5165
19942TIP3    H281318   0.162   0.119   4.596  0.3641 -0.5117  1.3344
19943TIP3   OH281319   6.764   5.094   0.375  0.4975  0.0857  0.5584
19943TIP3    H181320   6.723   5.018   0.335 -0.1889  0.0962  1.2194
19943TIP3    H281321   6.852   5.066   0.397  0.2877 -0.4766  0.6843
19944TIP3   OH281322   1.095   6.448   2.806  0.0363  0.3878 -0.2326
19944TIP3    H181323   1.169   6.453   2.746 -0.8737  0.1158 -1.3987
19944TIP3    H281324   1.108   6.367   2.855 -1.1900 -1.4656 -2.7796
19945TIP3   OH281325   4.779   5.494   5.227 -0.7329  0.2689 -0.6544
19945TIP3    H181326   4.821   5.580   5.223 -1.5105  0.7017  0.3314
19945TIP3    H281327   4.774   5.466   5.135 -0.1493  1.1042 -0.9562
19946TIP3   OH281328   1.719   0.608   3.749 -0.3516 -0.4429  0.0837
19946TIP3    H181329   1.632   0.645   3.759 -0.9392 -1.8322  0.4365
19946TIP3    H281330   1.719   0.570   3.661  0.9885  2.1642 -1.1587
19947TIP3   OH281331   4.680   7.120   0.518 -0.5293  0.3517 -1.0855
19947TIP3    H181332   4.640   7.113   0.605  0.1027 -0.4868 -0.8569
19947TIP3    H281333   4.704   7.030   0.496 -0.6422  0.5696 -2.1124
19948TIP3   OH281334   3.299   3.874   3.058 -0.2368  0.1307  0.6807
19948TIP3    H181335   3.234   3.805   3.071 -0.1621  0.0893  0.8304
19948TIP3    H281336   3.264   3.949   3.105 -1.2672  0.7968 -1.0370
19949TIP3   OH281337   6.815   3.048   0.483  0.1103  0.1769 -0.3364
19949TIP3    H181338   6.891   3.014   0.531 -0.6216  0.4138  1.0475
19949TIP3    H281339   6.777   2.970   0.442  1.0006  0.0307 -0.9107
19950TIP3   OH281340   4.330   2.428   0.243 -0.6379  0.4914 -0.7372
19950TIP3    H181341   4.383   2.461   0.316 -0.7403 -4.0949  1.8235
19950TIP3    H281342   4.393   2.404   0.176  0.3975 -1.9604  0.9843
19951TIP3   OH281343   5.709   1.862   4.995 -0.3534  0.1737  0.1021
19951TIP3    H181344   5.781   1.848   4.934  1.1564  1.1509  1.5612
19951TIP3    H281345   5.731   1.809   5.071  0.4377  2.6773  1.7656
19952TIP3   OH281346   2.768   3.149   1.778 -0.0153  0.1151  0.0102
19952TIP3    H181347   2.848   3.134   1.727 -0.3058  1.9318 -1.0549
19952TIP3    H281348   2.759   3.070   1.831  3.2447  0.4242  1.2208
19953TIP3   OH281349   4.600   7.077  10.765  0.3149 -0.6239 -0.2195
19953TIP3    H181350   4.666   7.009  10.751 -0.9365 -1.5614 -1.9489
19953TIP3    H281351   4.545   7.044  10.835  0.1668 -1.0654 -0.5369
19954TIP3   OH281352   3.525   5.058   2.218 -0.2483  0.4985  0.4554
19954TIP3    H181353   3.518   5.071   2.313  1.0075 -1.2913  0.8692
19954TIP3    H281354   3.460   4.990   2.198 -0.0757  0.4159  0.1625
19955TIP3   OH281355   1.470   5.001   0.911  0.2883  0.1539  1.2926
19955TIP3    H181356   1.391   4.958   0.880  1.7554 -1.6325 -0.1378
19955TIP3    H281357   1.482   4.969   1.001 -0.3709  0.1592  1.3878
19956TIP3   OH281358   2.251   4.498   2.445 -0.2394 -0.1989 -0.3830
19956TIP3    H181359   2.167   4.515   2.402 -0.5084  0.8163  0.5021
19956TIP3    H281360   2.311   4.562   2.405 -0.0901 -0.3534 -0.4086
19957TIP3   OH281361   5.488   6.992   2.418 -0.0277  0.5999  0.7471
19957TIP3    H181362   5.487   7.072   2.365 -0.3724 -1.7273 -3.1470
19957TIP3    H281363   5.579   6.984   2.446  0.9099  0.5696 -1.9995
19958TIP3   OH281364   2.908   0.940   4.388 -0.4065 -0.0284 -0.1259
19958TIP3    H181365   2.910   1.023   4.340  1.6579 -1.3383 -2.5467
19958TIP3    H281366   2.888   0.874   4.321 -0.8501 -1.6218  1.5017
19959TIP3   OH281367   6.550   0.149   4.179 -0.2395  0.3576 -0.4252
19959TIP3    H181368   6.581   0.066   4.143  1.0839 -0.1662  1.7256
19959TIP3    H281369   6.579   0.215   4.117  2.3075 -0.4493 -0.1914
19960TIP3   OH281370   6.560   2.499   1.727 -0.2900  0.1517  0.0377
19960TIP3    H181371   6.516   2.473   1.808  0.1770  0.6548  0.4684
19960TIP3    H281372   6.489   2.530   1.671 -0.5264  0.8067  0.6643
19961TIP3   OH281373   6.411   1.409  13.787 -0.3732 -0.0713  0.8636
19961TIP3    H181374   6.332   1.360  13.764 -0.2923  0.7906 -1.5476
19961TIP3    H281375   6.387   1.501  13.772  1.2276  0.1601 -0.4901
19962TIP3   OH281376   0.053   3.220   1.983  0.1021 -0.1229  0.3252
19962TIP3    H181377  -0.031   3.207   1.939  0.8713  1.9289 -2.0209
19962TIP3    H281378   0.112   3.250   1.913  2.5322 -0.5056  2.0734
19963TIP3   OH281379   3.523   0.851  13.740 -0.5153 -0.3779  0.3844
19963TIP3    H181380   3.558   0.940  13.734  2.4999 -1.5267 -0.4155
19963TIP3    H281381   3.573   0.810  13.810 -1.7965 -1.5161  0.6672
19964TIP3   OH281382   6.480   2.736   4.726 -0.5848  0.0284  0.0360
19964TIP3    H181383   6.528   2.794   4.785 -2.5698 -0.1299  1.9598
19964TIP3    H281384   6.445   2.794   4.658  0.1859  0.5274  0.0496
19965TIP3   OH281385   1.064   1.226   5.883  0.4602  0.7742  0.4650
19965TIP3    H181386   1.146   1.219   5.834  0.9991 -0.6349  1.4971
19965TIP3    H281387   1.044   1.320   5.884  1.9140  1.1091 -0.0371
19966TIP3   OH281388   3.551   0.509   4.627  0.1742 -0.5048 -0.2052
19966TIP3    H181389   3.460   0.482   4.620 -0.0824 -0.6089  2.4952
19966TIP3    H281390   3.599   0.445   4.573 -1.1579 -1.7450  0.0193
19967TIP3   OH281391   0.895   7.024   1.993  0.3345  0.5720  0.0319
19967TIP3    H181392   0.851   6.982   1.920  0.3479  0.9421 -0.1932
19967TIP3    H281393   0.950   7.092   1.952  0.8635  0.3298  0.3318
19968TIP3   OH281394   6.600   4.636  14.228 -0.3607  0.2200 -0.5892
19968TIP3    H181395   6.597   4.656  14.321 -1.5549 -0.4293 -0.4687
19968TIP3    H281396   6.634   4.546  14.224 -0.1566  0.3050 -0.7952
19969TIP3   OH281397   0.661   3.468   5.675  0.4407  0.2657  0.0646
19969TIP3    H181398   0.730   3.441   5.615  1.1211  1.0313  0.4918
19969TIP3    H281399   0.706   3.492   5.756 -0.5583 -2.3863  1.5610
19970TIP3   OH281400   6.377   3.581  12.552  0.5746 -0.3595 -0.3299
19970TIP3    H181401   6.310   3.629  12.504 -0.1031 -0.1893  0.7640
19970TIP3    H281402   6.344   3.576  12.642  1.6530 -0.9712  0.0517
19971TIP3   OH281403   5.582   2.454   1.264  0.3444  0.1725 -0.1732
19971TIP3    H181404   5.508   2.465   1.204  0.4884 -1.0627 -0.6094
19971TIP3    H281405   5.653   2.505   1.223 -0.7052  2.9676  1.2158
19972TIP3   OH281406   6.136   6.319   1.747  0.3775  0.1157  0.0207
19972TIP3    H181407   6.069   6.251   1.751 -0.2707  0.7446  0.0112
19972TIP3    H281408   6.180   6.314   1.832  1.4882 -1.4509 -0.6066
19973TIP3   OH281409   4.185   4.400   9.890  0.3215  0.5582  0.1254
19973TIP3    H181410   4.224   4.348   9.819  1.7295 -1.5103  2.2373
19973TIP3    H281411   4.236   4.481   9.892  2.0672 -0.4942  0.3942
19974TIP3   OH281412   3.843   0.840   4.786  0.0686 -0.2651  0.0129
19974TIP3    H181413   3.754   0.808   4.802 -0.3310  0.3811 -0.8247
19974TIP3    H281414   3.893   0.762   4.766 -0.7306 -0.4732 -1.2840
19975TIP3   OH281415   4.663   4.383   5.704  0.2200  0.1865 -0.4170
19975TIP3    H181416   4.699   4.313   5.759 -1.7143  0.7442  1.6776
19975TIP3    H281417   4.740   4.427   5.668  1.5276 -1.2380  0.5055
19976TIP3   OH281418   4.599   4.533   1.269 -0.2688 -0.0256 -0.2063
19976TIP3    H181419   4.648   4.600   1.222  0.2933 -0.0181  0.3702
19976TIP3    H281420   4.599   4.562   1.360 -0.8465 -0.3250 -0.1055
19977TIP3   OH281421   1.007   5.224   5.458  0.6914 -0.1644  0.5709
19977TIP3    H181422   1.062   5.147   5.452  0.1754 -0.5366  0.5248
19977TIP3    H281423   0.918   5.192   5.440  0.7788  0.8739 -2.1987
19978TIP3   OH281424   4.251   5.658  15.116  0.0219 -0.0970  0.3083
19978TIP3    H181425   4.228   5.599  15.043 -0.2734  1.3140 -0.7933
19978TIP3    H281426   4.341   5.684  15.098  0.0629 -0.0085  0.6421
19979TIP3   OH281427   2.799   3.965   1.292  0.0519  0.0722 -0.1463
19979TIP3    H181428   2.751   3.913   1.356  0.3811 -0.7973 -0.5987
19979TIP3    H281429   2.741   4.039   1.274 -1.0537 -0.8532 -0.5470
19980TIP3   OH281430   4.903   2.262   4.537  0.7467 -0.3625 -0.0138
19980TIP3    H181431   4.808   2.252   4.536  0.5033  1.3102  1.2663
19980TIP3    H281432   4.931   2.236   4.449 -1.1461  1.3047 -1.1885
19981TIP3   OH281433   6.715   3.226   4.389  0.4305  0.4147 -0.0264
19981TIP3    H181434   6.678   3.159   4.447 -0.1552 -0.4039 -1.2955
19981TIP3    H281435   6.731   3.301   4.446 -0.8615 -0.0782  1.0419
19982TIP3   OH281436   5.480   0.565  14.576 -0.4960 -0.4975  0.3442
19982TIP3    H181437   5.449   0.478  14.552  0.3358 -0.3349 -1.5066
19982TIP3    H281438   5.433   0.624  14.518 -1.0246  0.3082  1.5623
19983TIP3   OH281439   0.690   7.193   3.801  0.2630 -0.4705  0.4002
19983TIP3    H181440   0.751   7.185   3.874  1.3002 -2.0080 -0.5884
19983TIP3    H281441   0.716   7.273   3.756 -0.6090  0.6876  1.8627
19984TIP3   OH281442   2.407   5.995  12.039 -0.4020 -0.4059  0.2670
19984TIP3    H181443   2.437   5.910  12.009 -0.3699  0.0771 -1.1361
19984TIP3    H281444   2.398   6.047  11.959 -3.4721 -0.0527  0.7171
19985TIP3   OH281445   1.919   5.511   4.382  0.2451 -0.5419  0.2187
19985TIP3    H181446   1.865   5.441   4.345 -0.0158 -0.6038  0.7027
19985TIP3    H281447   1.858   5.583   4.398 -0.1389 -1.2975  2.6238
19986TIP3   OH281448   0.780   4.997   4.974 -0.4426 -0.3480  0.1271
19986TIP3    H181449   0.693   5.022   4.943 -0.3088  0.8468  0.6696
19986TIP3    H281450   0.835   5.001   4.896 -0.3779  1.3768  0.2164
19987TIP3   OH281451   6.258   5.657   1.147  0.5538 -0.2615  0.6631
19987TIP3    H181452   6.205   5.709   1.208 -0.1736  1.4470 -1.2988
19987TIP3    H281453   6.342   5.702   1.143 -0.2470  1.2013 -1.4286
19988TIP3   OH281454   3.275   2.070   5.017 -0.2692  0.3403  0.1651
19988TIP3    H181455   3.258   2.101   5.106 -1.9438  0.4183 -0.1438
19988TIP3    H281456   3.187   2.059   4.979  0.3068 -2.6544 -0.4712
19989TIP3   OH281457   3.392   1.904   4.213  0.2104 -0.1655  0.4788
19989TIP3    H181458   3.415   1.940   4.298 -2.2606  1.8454  0.3953
19989TIP3    H281459   3.355   1.818   4.232 -0.3085  0.2642  1.4480
19990TIP3   OH281460   4.197   3.579   4.617 -0.0972  0.0173  0.4885
19990TIP3    H181461   4.143   3.653   4.589  0.1813  0.3759  0.8899
19990TIP3    H281462   4.154   3.502   4.578  0.1236  0.4703 -0.6745
19991TIP3   OH281463   1.792   1.392  15.032 -0.1342  0.3818  0.8972
19991TIP3    H181464   1.743   1.362  14.955  0.9964  0.8169 -0.0237
19991TIP3    H281465   1.769   1.330  15.101 -0.0721 -0.8862 -0.1827
19992TIP3   OH281466   3.906   6.917   4.545 -0.1370 -0.3370  0.1231
19992TIP3    H181467   3.920   6.823   4.560  3.4334 -0.0079 -0.2342
19992TIP3    H281468   3.911   6.926   4.449 -1.3755  0.1396  0.0941
19993TIP3   OH281469   6.315   6.357   3.149  0.6230 -0.0658 -0.3489
19993TIP3    H181470   6.381   6.420   3.178 -0.6741  0.9247  0.5940
19993TIP3    H281471   6.244   6.366   3.213  1.1676 -3.9129  1.0323
19994TIP3   OH281472   2.799   6.047   2.078 -0.0143 -0.6507  0.1389
19994TIP3    H181473   2.800   6.130   2.126 -2.9067  0.1023 -0.9058
19994TIP3    H281474   2.861   6.060   2.006  0.2847  0.2282  0.5395
19995TIP3   OH281475   0.468   0.133   3.201  0.0610 -0.0045 -0.5961
19995TIP3    H181476   0.440   0.092   3.119  1.0282 -1.4784 -0.2401
19995TIP3    H281477   0.397   0.115   3.262  0.1280 -0.5143 -0.6581
19996TIP3   OH281478   4.834   5.355  15.225  0.2252 -0.0148 -0.3440
19996TIP3    H181479   4.834   5.418  15.297 -1.6938 -1.6126  1.1565
19996TIP3    H281480   4.762   5.383  15.169  1.6900  1.2027 -1.7251
19997TIP3   OH281481   3.106   4.020  11.330 -0.1978 -0.4818 -0.0242
19997TIP3    H181482   3.193   3.982  11.317 -0.5737 -1.6261  0.7028
19997TIP3    H281483   3.078   4.046  11.242 -0.1577 -2.4135 -0.6500
19998TIP3   OH281484   1.134   1.949   1.966 -0.6359 -0.1388 -0.0125
19998TIP3    H181485   1.215   1.963   1.916 -0.7878 -0.7838 -0.4503
19998TIP3    H281486   1.146   2.003   2.044 -0.1043  0.3634 -0.4182
19999TIP3   OH281487   2.599   2.633   0.131 -0.1904  0.4211  0.3013
19999TIP3    H181488   2.522   2.689   0.135  0.7639  1.8102 -0.1214
19999TIP3    H281489   2.564   2.544   0.134 -1.7949  1.0170  0.1595
20000TIP3   OH281490   4.174   1.588   4.802 -0.4863  0.3304 -0.3652
20000TIP3    H181491   4.103   1.579   4.739 -0.1352 -0.0837 -0.7067
20000TIP3    H281492   4.134   1.570   4.887 -0.3811 -1.9642 -0.7402
20001TIP3   OH281493   3.394   4.868   4.947 -0.3300 -0.3129  0.2404
20001TIP3    H181494   3.481   4.849   4.982 -0.8919 -1.6002  1.0164
20001TIP3    H281495   3.346   4.786   4.956 -1.8200  0.5332  0.3967
20002TIP3   OH281496   5.111   0.299   5.473  0.2553 -0.3769 -0.1628
20002TIP3    H181497   5.042   0.301   5.407  0.2657 -1.3706 -0.2267
20002TIP3    H281498   5.071   0.253   5.547  0.7243 -0.6149 -0.0556
20003TIP3   OH281499   2.685   2.354   6.029  0.0170 -0.0674  0.4060
20003TIP3    H181500   2.725   2.390   5.949  0.0395 -1.0224 -0.0283
20003TIP3    H281501   2.754   2.300   6.067  0.2110  0.8477  1.4162
20004TIP3   OH281502   5.862   6.187  15.315  0.1800  0.2395 -0.6122
20004TIP3    H181503   5.942   6.220  15.355 -0.0590 -0.4811  0.5135
20004TIP3    H281504   5.792   6.237  15.356 -0.1397 -1.2095  0.6920
20005TIP3   OH281505   6.939   6.945   2.631 -0.1545  0.5300  0.1038
20005TIP3    H181506   6.936   7.020   2.689  0.2558  0.2925  0.4386
20005TIP3    H281507   6.987   6.878   2.680 -0.1553  0.1899 -0.3462
20006TIP3   OH281508   4.322   2.069   4.402 -0.1004  0.1317  0.1104
20006TIP3    H181509   4.375   1.992   4.384 -1.9089 -0.8547 -1.3441
20006TIP3    H281510   4.270   2.045   4.479  0.1051  0.3348  0.3161
20007TIP3   OH281511   0.815   4.621   4.016  0.0266 -0.3074  0.0964
20007TIP3    H181512   0.899   4.582   4.042  0.1153 -0.2187 -0.0566
20007TIP3    H281513   0.787   4.568   3.941 -0.6660 -1.1390  0.9062
20008TIP3   OH281514   3.583   1.257   3.093 -0.0118  0.4925  0.5849
20008TIP3    H181515   3.553   1.179   3.140  1.1271  0.3079  1.0324
20008TIP3    H281516   3.578   1.232   3.000  0.2742 -0.0951  0.7229
20009TIP3   OH281517   4.443   6.644   1.567 -0.1455  0.6469 -0.0376
20009TIP3    H181518   4.360   6.690   1.577 -0.1285  0.5451  0.6231
20009TIP3    H281519   4.445   6.581   1.639  0.6536  0.8935  0.1731
20010TIP3   OH281520   1.693   4.802  13.429  0.0734  0.1200 -0.3641
20010TIP3    H181521   1.691   4.710  13.454 -0.0540  0.1926 -0.1071
20010TIP3    H281522   1.779   4.833  13.456  0.1557  0.0517 -0.5441
20011TIP3   OH281523   1.824   6.577   0.136 -0.7202 -0.2337  0.2301
20011TIP3    H181524   1.887   6.638   0.172 -0.2402  0.1697 -1.2165
20011TIP3    H281525   1.784   6.535   0.212  1.0882 -0.3042  1.1895
20012TIP3   OH281526   4.884   0.228   5.619  0.4243 -0.0310 -0.1991
20012TIP3    H181527   4.854   0.227   5.528  1.8198  0.0412 -0.6778
20012TIP3    H281528   4.803   0.231   5.671 -0.3670  1.1182 -1.4405
20013TIP3   OH281529   1.849   1.285   0.296  0.2379  0.1080 -0.6523
20013TIP3    H181530   1.881   1.279   0.206  0.3429  1.6715 -0.7419
20013TIP3    H281531   1.852   1.378   0.317 -1.3063 -0.0368  0.4167
20014TIP3   OH281532   2.215   2.449  11.084  0.3574 -0.3798  0.4673
20014TIP3    H181533   2.212   2.383  11.153 -0.6665 -1.1905 -0.3129
20014TIP3    H281534   2.135   2.500  11.097  0.0931 -0.6178 -0.1700
20015TIP3   OH281535   2.977   1.967   4.287 -0.1668 -0.2980  0.0217
20015TIP3    H181536   3.010   1.906   4.221  0.8081 -0.6886  0.8576
20015TIP3    H281537   3.054   1.993   4.337 -0.8683  0.1016  0.9231
20016TIP3   OH281538   4.515   4.923   1.508 -0.3105 -0.2471 -0.1954
20016TIP3    H181539   4.542   5.015   1.511  1.3325 -0.6982 -0.3208
20016TIP3    H281540   4.530   4.891   1.597 -1.7373 -0.1929  0.0910
20017TIP3   OH281541   3.920   2.350   4.725 -0.0613 -0.0867  0.0965
20017TIP3    H181542   3.937   2.352   4.631  1.5548  0.0949  0.3662
20017TIP3    H281543   3.826   2.369   4.733  0.0444  1.2686 -1.4132
20018TIP3   OH281544   6.638   6.219   2.274 -0.0172  0.2096  0.2206
20018TIP3    H181545   6.649   6.221   2.179  0.9115 -0.3159  0.3046
20018TIP3    H281546   6.674   6.302   2.304  0.5718 -0.0297  0.1894
20019TIP3   OH281547   1.595   1.362  15.347 -0.2165 -0.1404  0.3053
20019TIP3    H181548   1.518   1.392  15.395 -0.6505 -0.5362 -0.1435
20019TIP3    H281549   1.602   1.269  15.369  0.3715 -0.0161  0.6656
20020TIP3   OH281550   1.975   4.669   4.324  0.0647  0.0452  0.1902
20020TIP3    H181551   2.015   4.629   4.401 -0.4172  0.0690  0.4578
20020TIP3    H281552   1.961   4.595   4.264 -1.8412 -0.4188  1.1226
20021TIP3   OH281553   2.306   2.154   9.873  0.0448 -0.1614  0.2999
20021TIP3    H181554   2.390   2.123   9.906 -0.4659 -1.4419  0.4693
20021TIP3    H281555   2.326   2.196   9.789  0.7590 -1.0585  0.0161
20022TIP3   OH281556   4.639   0.540   1.101  0.1054 -0.1860  0.3697
20022TIP3    H181557   4.630   0.633   1.122  0.7305  0.1019 -0.5920
20022TIP3    H281558   4.733   0.523   1.112 -0.1505 -0.9410  1.4741
20023TIP3   OH281559   2.094   5.875   4.498 -0.2603  0.0288 -0.1907
20023TIP3    H181560   2.026   5.886   4.431  1.5905  0.6425 -2.0951
20023TIP3    H281561   2.132   5.962   4.507  0.2216 -0.2881  0.9019
20024TIP3   OH281562   6.588   0.311  14.893  0.0323 -0.3630 -0.0628
20024TIP3    H181563   6.635   0.229  14.904  0.9073  0.0356 -0.7464
20024TIP3    H281564   6.631   0.354  14.819  0.1474  1.0868  0.8102
20025TIP3   OH281565   2.951   3.513   0.393  0.2674  0.3621  0.5057
20025TIP3    H181566   2.968   3.587   0.451 -0.5664  0.3242  0.8082
20025TIP3    H281567   2.925   3.552   0.310 -0.1351  0.4192  0.6539
20026TIP3   OH281568   0.936   1.834   3.830  0.0393  0.1289  0.0651
20026TIP3    H181569   0.883   1.856   3.906 -1.4731 -1.1116 -0.5653
20026TIP3    H281570   1.020   1.807   3.867 -1.0230 -1.5552  1.4429
20027TIP3   OH281571   1.248   5.009  11.336 -0.1527 -0.4534  0.6454
20027TIP3    H181572   1.336   4.995  11.301 -0.2667 -1.9688  0.8873
20027TIP3    H281573   1.262   5.025  11.430 -0.0030  1.5544  0.3282
20028TIP3   OH281574   3.202   3.431   1.803 -0.3064 -0.1297  0.4729
20028TIP3    H181575   3.252   3.498   1.849 -1.1075  0.5266  0.4081
20028TIP3    H281576   3.123   3.476   1.774  0.3327 -0.4197 -1.9148
20029TIP3   OH281577   5.200   0.927   3.989 -0.4111 -0.3506 -0.1914
20029TIP3    H181578   5.250   0.856   3.948  2.4866  1.3600  0.1173
20029TIP3    H281579   5.190   0.899   4.080  1.9793  0.1435  0.2951
20030TIP3   OH281580   1.370   1.872  10.192  0.4263  0.1274  0.4794
20030TIP3    H181581   1.288   1.824  10.204  0.5372 -0.2493 -0.1822
20030TIP3    H281582   1.361   1.912  10.105  1.4204 -0.9259 -0.1427
20031TIP3   OH281583   0.424   0.581   2.442  0.2075 -0.5261  0.3194
20031TIP3    H181584   0.518   0.568   2.454  0.4073  1.5841  1.6728
20031TIP3    H281585   0.406   0.666   2.484 -2.2604 -0.7507 -0.1133
20032TIP3   OH281586   3.095   6.268   2.303 -0.0323  0.3545 -0.1108
20032TIP3    H181587   3.170   6.218   2.271  0.2280  1.6833 -1.6846
20032TIP3    H281588   3.125   6.359   2.302 -0.9165  0.7053  1.4680
20033TIP3   OH281589   4.074   0.910   0.023 -0.4445  0.0049 -0.3009
20033TIP3    H181590   4.045   0.937   0.110  0.2555  0.0902 -0.0875
20033TIP3    H281591   3.996   0.872  -0.018 -1.3279  1.8053 -0.4068
20034TIP3   OH281592   3.719   5.268   6.019 -0.3307  0.3064  0.0675
20034TIP3    H181593   3.746   5.294   5.931 -0.7808 -1.0439 -0.4972
20034TIP3    H281594   3.629   5.298   6.027 -0.3586  0.2436 -0.0128
20035TIP3   OH281595   0.409   2.386   4.663  0.7298 -0.1510 -0.1373
20035TIP3    H181596   0.317   2.383   4.635  0.5520 -3.5527  0.3816
20035TIP3    H281597   0.404   2.387   4.758  1.1987 -1.0650 -0.0970
20036TIP3   OH281598   2.497   0.674   0.693  0.0547 -0.2603  0.5167
20036TIP3    H181599   2.540   0.716   0.619  1.1395 -0.1730  1.1600
20036TIP3    H281600   2.427   0.622   0.655 -0.9691  1.6642 -0.3604
20037TIP3   OH281601   3.656   3.630   1.052  0.2039  0.0894 -0.2790
20037TIP3    H181602   3.625   3.707   1.004  1.4996  0.8860  0.1113
20037TIP3    H281603   3.671   3.662   1.141  1.4574 -0.4247 -0.2923
20038TIP3   OH281604   3.193   5.201   3.438  0.1216 -0.3481 -0.0531
20038TIP3    H181605   3.259   5.238   3.379 -0.9099  0.1082 -0.9737
20038TIP3    H281606   3.193   5.259   3.514 -0.2652  0.5551 -0.7211
20039TIP3   OH281607   2.344   1.571   4.888 -0.9227  0.0085  0.5632
20039TIP3    H181608   2.369   1.583   4.980 -0.0555  1.6251  0.1558
20039TIP3    H281609   2.249   1.579   4.888 -0.8863  0.6331  1.2545
20040TIP3   OH281610   2.724   0.788   4.791  0.1210 -0.2834 -0.3130
20040TIP3    H181611   2.657   0.751   4.848 -1.0397  2.2200  0.0878
20040TIP3    H281612   2.799   0.803   4.848  0.2683 -1.0600 -0.2836
20041TIP3   OH281613   1.142   5.654   2.860 -0.0052  0.1762 -0.1200
20041TIP3    H181614   1.175   5.667   2.771  0.3044 -0.7056 -0.1386
20041TIP3    H281615   1.144   5.560   2.874  0.9076  0.3493  1.1798
20042TIP3   OH281616   4.528   5.531   1.168  0.1925 -0.0109  0.4461
20042TIP3    H181617   4.456   5.502   1.111  2.4489  0.1984 -2.7786
20042TIP3    H281618   4.515   5.626   1.177 -0.0051  0.0076 -0.0182
20043TIP3   OH281619   0.431   4.999   4.411  0.1500 -0.7945  0.2989
20043TIP3    H181620   0.349   4.951   4.422  0.2950 -1.0418  0.3158
20043TIP3    H281621   0.496   4.931   4.389  0.2753 -0.5594 -0.0820
20044TIP3   OH281622   7.025   3.535   2.269  0.0965  0.1234 -0.0213
20044TIP3    H181623   6.958   3.564   2.207 -0.7711 -2.5837 -0.4697
20044TIP3    H281624   7.099   3.512   2.214 -0.0821 -0.7179  0.0815
20045TIP3   OH281625   1.998   0.351   3.526 -0.1631  0.4081  0.0571
20045TIP3    H181626   1.982   0.391   3.441 -0.8719 -0.7441 -0.3907
20045TIP3    H281627   2.032   0.421   3.581 -0.2660  1.3093 -1.0088
20046TIP3   OH281628   1.244   2.740   1.835  0.1464 -0.6413 -0.0305
20046TIP3    H181629   1.260   2.723   1.742  0.4246  2.7003 -0.7048
20046TIP3    H281630   1.167   2.796   1.837  1.0013  0.5717  1.6049
20047TIP3   OH281631   3.818   2.966   0.316  0.2176  0.2472 -0.3579
20047TIP3    H181632   3.756   3.037   0.302 -0.2895 -0.1536 -0.1679
20047TIP3    H281633   3.864   2.989   0.397  0.6545  0.7810 -0.7527
20048TIP3   OH281634   0.581   6.597   2.195  0.2042 -0.2307 -0.3623
20048TIP3    H181635   0.673   6.606   2.170  0.2485  0.7645  0.1142
20048TIP3    H281636   0.552   6.686   2.212 -1.4595 -0.2951 -2.5384
20049TIP3   OH281637   4.049   2.374   3.377 -0.1721  0.2118  0.4390
20049TIP3    H181638   3.978   2.310   3.381  2.1325 -2.4434  2.2632
20049TIP3    H281639   4.065   2.386   3.283 -1.0711 -1.4558  0.0262
20050TIP3   OH281640   5.882   5.545   4.151  0.4222  0.0203  0.2589
20050TIP3    H181641   5.870   5.621   4.094 -0.2286 -1.4776 -1.6996
20050TIP3    H281642   5.945   5.575   4.217  1.5205  1.7555 -1.4529
20051TIP3   OH281643   5.138   1.866   3.062 -0.2301 -0.3216 -0.0087
20051TIP3    H181644   5.089   1.845   3.142  3.1556 -0.9264  2.1302
20051TIP3    H281645   5.145   1.961   3.062 -0.2141 -0.3211  0.4520
20052TIP3   OH281646   0.046   6.179   4.231  0.5272 -0.6032  0.5393
20052TIP3    H181647  -0.008   6.220   4.299  1.0573 -1.0856  1.2698
20052TIP3    H281648   0.103   6.118   4.279  2.0666  0.2382 -0.1396
20053TIP3   OH281649   1.400   5.487  15.340 -0.2466  0.3678 -0.3611
20053TIP3    H181650   1.339   5.413  15.340  0.1808 -0.0173  0.7972
20053TIP3    H281651   1.487   5.446  15.340 -0.0055  0.8669 -0.1720
20054TIP3   OH281652   3.062   2.621   2.732 -0.4407 -0.7260 -0.2879
20054TIP3    H181653   3.140   2.570   2.753  1.0490  0.9979 -1.3286
20054TIP3    H281654   3.037   2.591   2.644 -0.7702 -1.0549 -0.0841
20055TIP3   OH281655   6.204   2.550   5.056 -0.0819  0.0526 -0.1932
20055TIP3    H181656   6.146   2.559   4.980  0.4776 -0.3848 -0.6885
20055TIP3    H281657   6.283   2.598   5.031  0.7945 -1.5564 -0.6272
20056TIP3   OH281658   4.302   2.758   2.611 -0.2965 -0.0188 -1.0622
20056TIP3    H181659   4.261   2.803   2.537  0.9218  1.4273 -0.9213
20056TIP3    H281660   4.386   2.803   2.623  0.2651 -1.3016  0.1617
20057TIP3   OH281661   6.630   5.888   4.671  0.1306 -0.3425 -0.4640
20057TIP3    H181662   6.714   5.928   4.649  0.7757 -2.4056 -2.1363
20057TIP3    H281663   6.643   5.795   4.653 -1.8067 -1.0817  1.5252
20058TIP3   OH281664   4.555   2.899   2.684  0.5125 -0.1889 -0.4350
20058TIP3    H181665   4.605   2.979   2.669  2.1867 -1.1916 -0.4099
20058TIP3    H281666   4.616   2.828   2.666 -0.6681 -1.4783  0.3835
20059TIP3   OH281667   2.965   5.025   3.486 -0.2443 -0.2921  0.1162
20059TIP3    H181668   2.931   5.034   3.397 -0.7662  4.3563  0.5497
20059TIP3    H281669   3.058   5.044   3.478 -0.2136 -0.2637  0.5273
20060TIP3   OH281670   2.712   3.747   1.455 -0.6030  0.0583 -0.1270
20060TIP3    H181671   2.781   3.681   1.460 -0.2559  0.4005 -0.2772
20060TIP3    H281672   2.636   3.700   1.421 -0.5247 -0.3849  0.3083
20061TIP3   OH281673   4.494   0.351   4.229  0.3750 -0.2404 -0.3640
20061TIP3    H181674   4.411   0.388   4.198 -0.4232 -0.3559  1.5143
20061TIP3    H281675   4.469   0.272   4.277  1.5304 -0.1224  0.4859
20062TIP3   OH281676   0.506   0.418  11.903 -0.1325 -0.1161 -0.4695
20062TIP3    H181677   0.463   0.375  11.829 -0.1349 -1.6429  0.3699
20062TIP3    H281678   0.566   0.352  11.937 -0.4373  0.4005  1.1392
20063TIP3   OH281679   1.291   6.466   1.593 -0.0043  0.5592  0.0186
20063TIP3    H181680   1.212   6.519   1.591  0.0684  0.6506 -0.7676
20063TIP3    H281681   1.269   6.387   1.544  0.1969  0.3044  0.3325
20064TIP3   OH281682   5.065   4.493   2.812  0.2008  0.1669 -0.1885
20064TIP3    H181683   5.127   4.423   2.790  0.3231  0.4647 -0.7925
20064TIP3    H281684   5.014   4.458   2.885 -0.9947 -1.2916 -1.6501
20065TIP3   OH281685   6.184   4.905   0.447 -0.7087 -0.4985 -0.7494
20065TIP3    H181686   6.157   4.997   0.437 -0.7539 -0.5129 -0.7636
20065TIP3    H281687   6.107   4.862   0.485 -0.5150 -0.4303 -0.2695
20066TIP3   OH281688   1.511   6.225   3.909 -0.1674  0.0725 -0.3922
20066TIP3    H181689   1.434   6.278   3.930 -0.6058  0.8513 -3.4585
20066TIP3    H281690   1.583   6.288   3.903  0.3573 -0.4028  0.6289
20067TIP3   OH281691   0.933   6.610  14.488  0.4751  0.4117 -0.5069
20067TIP3    H181692   0.969   6.619  14.576 -0.0185 -0.3376 -0.2149
20067TIP3    H281693   0.914   6.699  14.460  1.7326  0.7545 -0.3300
20068TIP3   OH281694   0.345   3.250   1.860  0.2743 -0.7741  0.1310
20068TIP3    H181695   0.417   3.233   1.921  0.4024 -1.3853 -0.1797
20068TIP3    H281696   0.388   3.276   1.779  0.1063 -0.0480  0.2717
20069TIP3   OH281697   2.069   0.370   2.756  0.5135 -0.0635 -0.4243
20069TIP3    H181698   2.075   0.378   2.660  0.9678 -0.0202 -0.3960
20069TIP3    H281699   2.131   0.435   2.788 -0.0322  0.3005 -0.0883
20070TIP3   OH281700   3.619   5.572  14.683 -0.1236 -0.2952  0.0287
20070TIP3    H181701   3.649   5.663  14.684  0.0456 -0.3486 -0.1827
20070TIP3    H281702   3.654   5.534  14.764  0.0764 -0.2589 -0.0396
20071TIP3   OH281703   4.811   1.830   4.610 -0.3680 -0.3433  0.0565
20071TIP3    H181704   4.839   1.885   4.684 -2.3424 -1.2315  1.5511
20071TIP3    H281705   4.790   1.893   4.541 -0.7445  0.6922  1.0741
20072TIP3   OH281706   6.222   0.111  14.633 -0.3516  0.2637 -0.1227
20072TIP3    H181707   6.138   0.151  14.655 -0.3382  0.4076 -0.3312
20072TIP3    H281708   6.200   0.035  14.579 -0.3140  0.7422 -0.8277
20073TIP3   OH281709   1.753   0.925   1.521 -0.2571 -0.2205 -0.7914
20073TIP3    H181710   1.846   0.943   1.509 -0.2034 -0.6222 -0.9971
20073TIP3    H281711   1.733   0.858   1.455 -0.5970 -0.4290 -0.4799
20074TIP3   OH281712   0.864   1.911   1.898  0.0885  0.2386 -0.2016
20074TIP3    H181713   0.873   1.829   1.849 -0.4037  1.0146 -1.6654
20074TIP3    H281714   0.954   1.941   1.911  0.2203  0.1275 -0.8306
20075TIP3   OH281715   1.029   0.845   3.792  0.2840  0.9379  0.9941
20075TIP3    H181716   1.109   0.833   3.741 -1.2667 -0.9609 -1.1654
20075TIP3    H281717   1.021   0.764   3.843 -1.2273  0.2465 -0.2910
20076TIP3   OH281718   5.458   5.482   1.640  0.0268  0.0233  0.7330
20076TIP3    H181719   5.467   5.576   1.628 -0.0614 -0.1399 -0.7868
20076TIP3    H281720   5.504   5.443   1.565 -1.1241 -1.1053  0.5796
20077TIP3   OH281721   5.416   0.978   0.277  0.3409  0.8263  0.0259
20077TIP3    H181722   5.430   1.069   0.303  0.7367  0.5450  0.8384
20077TIP3    H281723   5.322   0.970   0.267  0.2563  1.1934  0.4810
20078TIP3   OH281724   5.090   5.291   4.800  0.1911  0.6005  0.5358
20078TIP3    H181725   5.143   5.267   4.724  1.1273 -0.6569  1.5351
20078TIP3    H281726   5.001   5.296   4.766  0.6105  0.2760 -0.6850
20079TIP3   OH281727   6.824   1.435   4.496  0.2555  0.4883 -0.7821
20079TIP3    H181728   6.838   1.529   4.510  0.3651  0.2871  0.6082
20079TIP3    H281729   6.735   1.430   4.460  0.2357  1.1314 -0.8410
20080TIP3   OH281730   4.783   4.907   2.120  0.2266  0.5806 -1.0874
20080TIP3    H181731   4.822   4.995   2.120  3.9083 -0.8678  0.7449
20080TIP3    H281732   4.814   4.867   2.201 -2.7634 -1.9198 -1.0137
20081TIP3   OH281733   1.091   2.398   5.947  0.1780  0.4654 -0.5117
20081TIP3    H181734   1.012   2.443   5.915  0.6518  1.8024  0.1213
20081TIP3    H281735   1.162   2.459   5.928  0.8579 -0.0471  0.3348
20082TIP3   OH281736   0.916   1.533  15.098  0.1589 -0.1504 -0.4889
20082TIP3    H181737   0.835   1.582  15.108  1.4461  1.8945  0.5927
20082TIP3    H281738   0.984   1.593  15.127  1.8975 -2.4670  0.5704
20083TIP3   OH281739   6.904   0.120   3.897  0.3020 -0.2110 -0.4567
20083TIP3    H181740   6.832   0.065   3.868 -0.4867  0.5978 -0.0771
20083TIP3    H281741   6.920   0.179   3.823 -0.5870  0.7413  0.0879
20084TIP3   OH281742   0.741   3.764   0.313 -0.3174  0.0909 -0.5529
20084TIP3    H181743   0.818   3.779   0.367  0.0019  0.9864 -1.2425
20084TIP3    H281744   0.774   3.760   0.224 -0.9778 -0.2705 -0.7912
20085TIP3   OH281745   2.616   7.189   2.879  0.0425 -0.2314  0.0642
20085TIP3    H181746   2.642   7.118   2.821  3.2689 -0.3968  1.5080
20085TIP3    H281747   2.591   7.146   2.961  1.2603  0.2275  0.6952
20086TIP3   OH281748   6.903   5.959  14.850 -0.1728 -0.4201  0.3237
20086TIP3    H181749   6.968   6.023  14.820  1.1425 -0.9574  1.9079
20086TIP3    H281750   6.832   6.013  14.885 -0.3764  0.1637 -0.9153
20087TIP3   OH281751   4.971   4.741   2.716 -0.0924  0.6089  0.5187
20087TIP3    H181752   4.891   4.759   2.764  1.1935  2.2032  2.2498
20087TIP3    H281753   4.995   4.652   2.741  0.2528  1.2110  2.4840
20088TIP3   OH281754   0.359   2.766   4.079 -0.0608  0.0773 -0.4369
20088TIP3    H181755   0.369   2.825   4.154  0.5407  0.7303 -1.0226
20088TIP3    H281756   0.312   2.818   4.014 -1.2778 -0.7421 -0.2392
20089TIP3   OH281757   3.096   1.414   3.284 -0.5004 -0.4165 -0.0312
20089TIP3    H181758   3.016   1.394   3.236  1.2131 -1.9060 -2.5293
20089TIP3    H281759   3.107   1.341   3.345 -0.3304 -0.9891 -0.7341
20090TIP3   OH281760   3.472   6.597   4.246  0.1969  0.4793 -0.1779
20090TIP3    H181761   3.474   6.616   4.152  0.3102 -0.5431 -0.3987
20090TIP3    H281762   3.527   6.518   4.255 -1.3288 -0.5552  0.4680
20091TIP3   OH281763   5.321   2.572   1.107  0.2193  0.0754 -0.4154
20091TIP3    H181764   5.301   2.647   1.051 -3.5310 -0.4429 -0.0709
20091TIP3    H281765   5.314   2.606   1.196  0.7442 -0.2187 -0.2606
20092TIP3   OH281766   4.460   2.108  10.528  0.7094 -0.1197 -0.4569
20092TIP3    H181767   4.512   2.174  10.572  0.6031 -0.8005  0.7326
20092TIP3    H281768   4.370   2.128  10.551  0.5953 -0.1097 -0.8946
20093TIP3   OH281769   2.865   5.478   2.862 -0.0588 -0.1996  0.8144
20093TIP3    H181770   2.815   5.397   2.855  0.9869 -0.7481 -1.0491
20093TIP3    H281771   2.810   5.537   2.914 -1.4888 -1.6064  0.9468
20094TIP3   OH281772   5.855   6.189   3.505 -0.8829  0.3203  0.5242
20094TIP3    H181773   5.764   6.171   3.530 -0.3808 -1.8402  1.0267
20094TIP3    H281774   5.869   6.136   3.427  0.1495  0.0738  0.8636
20095TIP3   OH281775   2.573   3.762   4.615 -0.2664  0.0273 -0.1775
20095TIP3    H181776   2.592   3.850   4.648  0.4208  0.3534 -1.3828
20095TIP3    H281777   2.607   3.762   4.526  0.6936 -1.8005  0.1415
20096TIP3   OH281778   3.498   3.426   5.545 -0.0303  0.1183 -0.0507
20096TIP3    H181779   3.504   3.398   5.453  0.1132 -0.3364  0.0964
20096TIP3    H281780   3.467   3.349   5.591  0.5469  0.1487  0.3921
20097TIP3   OH281781   2.360   7.070   4.860  0.4275  0.2127 -0.1050
20097TIP3    H181782   2.275   7.048   4.824  0.2298 -0.1284  0.5572
20097TIP3    H281783   2.418   7.075   4.784 -0.2128  0.6286 -0.5770
20098TIP3   OH281784   1.932   3.372   4.216  0.0685 -0.1334 -0.0313
20098TIP3    H181785   1.937   3.327   4.300  1.1621  2.5098  1.4384
20098TIP3    H281786   2.014   3.349   4.171 -0.1175 -0.8335 -0.0341
20099TIP3   OH281787   1.971   4.676   1.699 -0.0289 -0.2608 -0.1333
20099TIP3    H181788   2.036   4.607   1.681  0.2758 -0.8537  2.7143
20099TIP3    H281789   1.886   4.631   1.691  0.1462 -0.8494  1.0636
20100TIP3   OH281790   6.123   3.444   4.254 -0.0159 -0.1394  0.1077
20100TIP3    H181791   6.130   3.464   4.161 -2.1320 -1.7214 -0.4557
20100TIP3    H281792   6.213   3.425   4.281  0.5695 -0.1779 -1.7431
20101TIP3   OH281793   2.742   4.993   5.430  0.3839 -0.3284 -0.2367
20101TIP3    H181794   2.721   5.011   5.522 -1.3868 -2.7570 -0.0669
20101TIP3    H281795   2.772   4.902   5.430 -1.0438 -0.8763 -2.1817
20102TIP3   OH281796   1.281   5.597   1.049  0.5118  0.4081 -0.0107
20102TIP3    H181797   1.322   5.511   1.043 -1.4274 -0.7577  1.7337
20102TIP3    H281798   1.342   5.657   1.006  1.7395 -1.8777 -1.6554
20103TIP3   OH281799   0.574   6.581   0.088  0.3117 -0.3776  0.4169
20103TIP3    H181800   0.578   6.506   0.147  0.0171 -2.1402 -1.6617
20103TIP3    H281801   0.481   6.587   0.063  0.5531 -0.2678 -0.5102
20104TIP3   OH281802   5.957   6.927   3.088 -0.3249  0.0119  0.5611
20104TIP3    H181803   5.872   6.968   3.100 -0.8090 -0.0491 -2.1425
20104TIP3    H281804   6.005   6.988   3.032  1.1739 -0.3136  1.4323
20105TIP3   OH281805   1.731   5.640   1.050 -0.2849 -0.0639 -0.0539
20105TIP3    H181806   1.700   5.657   0.961  0.1716  0.5898 -0.0919
20105TIP3    H281807   1.792   5.566   1.041 -0.0359  0.1735 -0.3221
20106TIP3   OH281808   0.766   1.778  14.360 -0.0908  0.6536 -0.1227
20106TIP3    H181809   0.790   1.769  14.452 -1.9221  1.1993  0.4644
20106TIP3    H281810   0.839   1.741  14.312 -0.1658 -2.0471  1.6156
20107TIP3   OH281811   6.338   3.518  13.126  0.3232  0.3926  0.1009
20107TIP3    H181812   6.362   3.462  13.052  1.5754 -0.6673  1.2643
20107TIP3    H281813   6.244   3.501  13.139  0.6939 -1.5856  0.5016
20108TIP3   OH281814   1.341   5.106   1.282  0.2783 -0.6112 -0.4401
20108TIP3    H181815   1.346   5.195   1.246 -0.0246 -0.5483 -0.3235
20108TIP3    H281816   1.291   5.115   1.363 -2.2335 -1.3274 -1.8265
20109TIP3   OH281817   1.198   3.357   5.998  0.3576 -0.0880  0.0155
20109TIP3    H181818   1.139   3.432   5.987 -0.7592 -0.9428 -0.0040
20109TIP3    H281819   1.285   3.394   5.986 -0.0269  1.5402  1.7101
20110TIP3   OH281820   2.447   1.811   3.954 -0.1147 -0.1307  0.3135
20110TIP3    H181821   2.522   1.752   3.942 -0.8939 -0.9003 -1.0246
20110TIP3    H281822   2.385   1.759   4.005 -1.9671 -1.6778 -3.1746
20111TIP3   OH281823   0.198   5.856   4.147 -0.3057 -0.1746  0.1864
20111TIP3    H181824   0.173   5.928   4.090 -2.2343 -0.8576  0.1042
20111TIP3    H281825   0.224   5.785   4.088 -0.0794 -0.1162  0.2161
20112TIP3   OH281826   0.996   3.736   2.513 -0.7713  0.0119 -0.5806
20112TIP3    H181827   0.980   3.780   2.430  0.4171  2.0119  0.1659
20112TIP3    H281828   0.958   3.794   2.579  1.2209  0.2021  0.4919
20113TIP3   OH281829   2.943   2.260  14.252 -0.1117 -0.0351  0.2747
20113TIP3    H181830   2.934   2.253  14.347  0.2703 -2.8827  0.1871
20113TIP3    H281831   3.035   2.238  14.236  0.1387  1.5784 -0.7184
20114TIP3   OH281832   1.048   5.573   4.170  0.3687 -0.0322  0.1903
20114TIP3    H181833   1.065   5.516   4.095 -0.8895 -1.0894  0.6637
20114TIP3    H281834   0.993   5.643   4.134 -0.8348 -0.9244  0.2327
20115TIP3   OH281835   1.363   5.569   2.182 -0.3446 -0.4456 -0.4752
20115TIP3    H181836   1.455   5.562   2.156 -0.3310  0.3264 -0.6517
20115TIP3    H281837   1.330   5.646   2.135 -0.6053  0.3258  0.9139
20116TIP3   OH281838   7.105   6.674   5.305 -0.3292 -0.3448 -0.1936
20116TIP3    H181839   7.105   6.589   5.261 -1.2138 -0.3811 -0.1505
20116TIP3    H281840   7.197   6.690   5.327 -0.3464 -2.2380  1.6308
20117TIP3   OH281841   4.329   4.066   1.954 -0.0018  0.4386 -0.3942
20117TIP3    H181842   4.407   4.115   1.981  0.0464  0.7518 -1.0910
20117TIP3    H281843   4.261   4.132   1.944 -0.7136  0.0454  1.3712
20118TIP3   OH281844   2.656   6.129   0.852  1.1320 -0.4973 -0.1864
20118TIP3    H181845   2.710   6.124   0.773 -1.0782  0.8859 -1.9113
20118TIP3    H281846   2.566   6.136   0.819 -0.4736 -4.5944  2.5116
20119TIP3   OH281847   2.759   6.235   2.991 -0.0173 -0.3605 -0.8074
20119TIP3    H181848   2.842   6.224   2.944 -0.6529 -2.3958 -1.5883
20119TIP3    H281849   2.774   6.193   3.075 -0.4098 -1.2811 -1.1836
20120TIP3   OH281850   5.810   4.974   4.227  0.1290  0.6499  0.2503
20120TIP3    H181851   5.795   5.055   4.275  0.2861  0.6291  0.3345
20120TIP3    H281852   5.747   4.912   4.264 -0.3047  0.8586 -0.1255
20121TIP3   OH281853   5.329   0.790  14.427  0.6708  0.1412 -0.1203
20121TIP3    H181854   5.290   0.829  14.506  1.7148 -1.0718  1.0284
20121TIP3    H281855   5.271   0.819  14.356 -1.2924 -0.1280  1.2786
20122TIP3   OH281856   6.078   0.515   3.865 -0.5847  0.6063 -0.2937
20122TIP3    H181857   6.034   0.487   3.785 -1.4818  0.8314  0.0965
20122TIP3    H281858   6.018   0.580   3.903  0.2857  1.2150  0.0666
20123TIP3   OH281859   6.076   3.341   2.593 -0.0707 -0.3257 -0.1933
20123TIP3    H181860   6.092   3.407   2.525 -2.3207 -0.0334 -0.4999
20123TIP3    H281861   6.110   3.260   2.557  1.7459  0.4142 -0.2655
20124TIP3   OH281862   3.756   4.682   5.733 -0.1568  0.3193  0.6199
20124TIP3    H181863   3.824   4.733   5.778  0.2462  0.7476 -0.4513
20124TIP3    H281864   3.804   4.629   5.670 -0.8307  0.7520 -0.2682
20125TIP3   OH281865   5.296   2.315   4.673  0.2648 -0.4877 -0.0890
20125TIP3    H181866   5.272   2.386   4.733 -0.9030  0.6676 -1.8286
20125TIP3    H281867   5.331   2.247   4.730  0.1816  0.9477  1.7914
20126TIP3   OH281868   2.185   5.384   3.510 -0.3624  0.1156  0.5774
20126TIP3    H181869   2.106   5.434   3.530 -0.8829 -1.2628  2.1908
20126TIP3    H281870   2.201   5.332   3.589  3.1020  1.4946  0.9824
20127TIP3   OH281871   3.909   1.648   4.350 -0.0568  0.1802  0.0510
20127TIP3    H181872   3.843   1.717   4.362 -2.0718 -1.7135  0.5478
20127TIP3    H281873   3.866   1.583   4.294  1.3285 -1.2052  0.5191
20128TIP3   OH281874   6.003   4.077   4.095 -0.2646  0.2887 -0.5265
20128TIP3    H181875   6.085   4.126   4.101 -0.2258  0.2953 -1.0164
20128TIP3    H281876   5.942   4.136   4.051 -0.4653  0.2048 -0.3601
20129TIP3   OH281877   1.057   2.827   5.761  0.2788 -0.2081  0.3827
20129TIP3    H181878   0.988   2.867   5.708 -0.2362  1.3221  2.0919
20129TIP3    H281879   1.072   2.889   5.832  0.9759 -2.1006  2.0057
20130TIP3   OH281880   5.456   0.887   3.192  0.3172  0.4496 -0.2668
20130TIP3    H181881   5.508   0.955   3.233  0.3575  0.9279 -1.0779
20130TIP3    H281882   5.513   0.851   3.124 -0.0407  0.2624 -0.4737
20131TIP3   OH281883   5.758   2.820   4.182  0.0497 -0.1956 -0.2306
20131TIP3    H181884   5.826   2.766   4.222  0.3830  1.3143  1.3759
20131TIP3    H281885   5.679   2.798   4.231 -0.2168 -0.5678 -0.8233
20132TIP3   OH281886   5.455   1.026   0.810  0.1107  0.0523  0.0011
20132TIP3    H181887   5.495   1.067   0.887  1.4177 -0.6578 -0.2685
20132TIP3    H281888   5.509   1.054   0.736 -1.1756  0.7851 -0.7051
20133TIP3   OH281889   0.098   1.802   4.085 -0.2824  0.1041 -0.8399
20133TIP3    H181890   0.006   1.818   4.107  0.6744  1.9023  2.5737
20133TIP3    H281891   0.101   1.709   4.060 -2.9449 -0.0645 -0.7978
20134TIP3   OH281892   5.527   4.291  14.086 -0.8229  0.4605 -0.0466
20134TIP3    H181893   5.598   4.303  14.149 -1.1433  1.3921  0.1661
20134TIP3    H281894   5.552   4.344  14.011 -0.7163 -0.1924 -0.4774
20135TIP3   OH281895   0.770   0.704  15.154 -0.1112  0.2023 -0.2202
20135TIP3    H181896   0.686   0.741  15.183 -0.5547  0.9173 -2.1851
20135TIP3    H281897   0.820   0.780  15.124  1.8286 -0.0441  2.0961
20136TIP3   OH281898   5.688   7.114   1.172  0.0019 -0.6211 -0.3262
20136TIP3    H181899   5.648   7.090   1.088  1.1971  0.4568 -1.2317
20136TIP3    H281900   5.782   7.106   1.157  0.2271 -0.5922  0.9817
20137TIP3   OH281901   5.725   6.211   1.926  0.0962  0.7411  0.1878
20137TIP3    H181902   5.645   6.174   1.966  0.8489 -0.0280  1.0378
20137TIP3    H281903   5.765   6.262   1.997  0.8031  0.4111  0.0284
20138TIP3   OH281904   5.770   0.396  12.881 -0.0866  0.0444 -0.4482
20138TIP3    H181905   5.690   0.383  12.831  0.1136  0.0480 -0.7766
20138TIP3    H281906   5.802   0.482  12.853  0.5461 -0.3696 -1.0608
20139TIP3   OH281907   2.904   5.938   5.176 -0.1289  1.0213  0.0368
20139TIP3    H181908   2.929   5.851   5.207  2.7853  1.2473 -1.2716
20139TIP3    H281909   2.897   5.991   5.255  0.1876  0.0676  0.7201
20140TIP3   OH281910   5.059   0.931   5.952 -0.7565  0.0351 -0.6275
20140TIP3    H181911   5.050   0.999   5.885  2.1184  1.2028  0.0218
20140TIP3    H281912   5.139   0.954   5.999 -2.5582 -0.8157  3.1940
20141TIP3   OH281913   3.826   2.374   3.600 -0.3694  0.6242 -0.2621
20141TIP3    H181914   3.788   2.322   3.671 -0.1847 -0.2949 -0.8200
20141TIP3    H281915   3.920   2.369   3.614 -0.3786  1.4661  0.1281
20142TIP3   OH281916   2.575   2.882   2.821 -0.3172 -0.6441  0.0722
20142TIP3    H181917   2.660   2.906   2.785  0.3115  1.5012  2.6679
20142TIP3    H281918   2.541   2.963   2.859 -2.2221 -2.0396  1.6023
20143TIP3   OH281919   3.612   4.709   1.218 -0.1492  0.2648  0.1337
20143TIP3    H181920   3.682   4.731   1.279 -0.7050  1.1855  0.4736
20143TIP3    H281921   3.605   4.614   1.221  0.5754  0.2222  0.6554
20144TIP3   OH281922   0.452   3.609   3.382 -0.4899  0.3781  0.4719
20144TIP3    H181923   0.496   3.589   3.299 -0.6071  1.1268  0.2217
20144TIP3    H281924   0.520   3.598   3.448  0.0008  1.2166  0.1180
20145TIP3   OH281925   7.001   5.055  14.418 -0.5351  0.4359 -0.5441
20145TIP3    H181926   6.949   5.040  14.497  0.3593 -0.3665 -0.0739
20145TIP3    H281927   6.956   5.126  14.372 -0.6777  1.4359  1.0485
20146TIP3   OH281928   3.423   3.624   3.348  0.7990 -0.5908 -0.5525
20146TIP3    H181929   3.508   3.658   3.375  0.0633  2.2285 -1.4125
20146TIP3    H281930   3.403   3.555   3.412  3.7409 -1.4669 -0.4470
20147TIP3   OH281931   7.219   7.192   0.568  0.2110 -0.1428 -0.4300
20147TIP3    H181932   7.197   7.164   0.479  0.7503 -2.3636  0.0785
20147TIP3    H281933   7.290   7.255   0.556  0.2415 -0.3746 -1.5814
20148TIP3   OH281934   3.063   7.087   3.130  0.0289 -0.0414 -0.1431
20148TIP3    H181935   3.049   7.164   3.184 -1.6635  1.0002 -1.9326
20148TIP3    H281936   3.121   7.031   3.182  0.5895  2.0157  1.5879
20149TIP3   OH281937   2.359   5.469   0.236 -0.4096  0.1230 -0.4416
20149TIP3    H181938   2.448   5.498   0.221 -0.5365  0.6541 -0.1994
20149TIP3    H281939   2.320   5.464   0.149 -0.2829  0.3455 -0.5110
20150TIP3   OH281940   1.750   1.974   5.569 -0.0276  0.3588 -0.5530
20150TIP3    H181941   1.745   1.981   5.474  1.0990 -0.0682 -0.6624
20150TIP3    H281942   1.770   2.063   5.599  0.9921  0.2473 -0.8463
20151TIP3   OH281943   6.217   7.073   5.606 -0.3956  0.5523 -0.3810
20151TIP3    H181944   6.306   7.083   5.573 -0.7001  0.6575 -1.2083
20151TIP3    H281945   6.224   7.087   5.700  0.5726 -0.1814 -0.3282
20152TIP3   OH281946   1.840   5.903   0.819 -0.1843 -0.3576  0.1904
20152TIP3    H181947   1.821   5.974   0.880 -0.7620  0.9767 -1.4658
20152TIP3    H281948   1.936   5.898   0.816 -0.1276  0.7991 -0.1615
20153TIP3   OH281949   0.953   1.812   0.744  1.0670 -1.1924  0.4149
20153TIP3    H181950   0.904   1.762   0.677  1.1186  0.6887 -1.1053
20153TIP3    H281951   0.885   1.842   0.805  0.5590 -0.2697 -0.5775
20154TIP3   OH281952   5.101   2.368   1.136 -0.5771 -0.2323  0.2978
20154TIP3    H181953   5.149   2.449   1.122  0.0672 -0.8158 -0.9955
20154TIP3    H281954   5.138   2.332   1.217 -0.7131  0.6415  0.7535
20155TIP3   OH281955   2.369   3.970   0.281 -0.0548 -0.4596  0.0097
20155TIP3    H181956   2.314   3.959   0.358 -2.1359 -1.7206 -1.5562
20155TIP3    H281957   2.446   4.018   0.313 -1.1433 -0.3319  2.6825
20156TIP3   OH281958   1.194   6.691   3.347  0.4182 -0.2048 -0.6933
20156TIP3    H181959   1.176   6.601   3.375 -3.6217 -0.0135 -2.0378
20156TIP3    H281960   1.186   6.743   3.427  0.3471 -0.7723 -0.3242
20157TIP3   OH281961   7.065   5.839   3.683 -0.1398 -0.0155  0.1704
20157TIP3    H181962   7.076   5.745   3.669  0.2068 -0.2408  1.6991
20157TIP3    H281963   7.004   5.867   3.615 -0.0878 -1.3052 -0.4339
20158TIP3   OH281964   5.778   3.646   0.247 -0.3316 -0.0182  0.4298
20158TIP3    H181965   5.772   3.566   0.195  0.9617  1.0596 -1.4611
20158TIP3    H281966   5.713   3.705   0.209  0.5420  0.7441  0.0968
20159TIP3   OH281967   4.955   4.753  12.568 -0.7723  0.8727  0.3812
20159TIP3    H181968   4.902   4.673  12.569  0.8733 -0.2787 -0.2412
20159TIP3    H281969   4.926   4.802  12.644 -0.2310 -1.4253  2.1687
20160TIP3   OH281970   1.093   3.690   1.757 -0.2967  0.8393  0.1449
20160TIP3    H181971   1.105   3.673   1.850  0.1025  3.3272  0.6155
20160TIP3    H281972   1.049   3.611   1.723  2.9169 -1.8275  1.5823
20161TIP3   OH281973   2.150   4.916   1.717  0.3984  0.1233  0.6274
20161TIP3    H181974   2.107   4.996   1.749  0.8442  0.3721  0.6101
20161TIP3    H281975   2.115   4.846   1.773 -0.9124  0.1398 -0.1480
20162TIP3   OH281976   0.260   6.232   4.684 -0.1213 -0.3363 -0.5571
20162TIP3    H181977   0.164   6.236   4.689 -0.1649 -0.2409 -1.3511
20162TIP3    H281978   0.279   6.142   4.660  0.1653 -1.2610  2.6857
20163TIP3   OH281979   0.240   2.067   1.012 -0.1027  0.4213 -0.0433
20163TIP3    H181980   0.321   2.082   0.963  0.1461 -1.4939 -0.2944
20163TIP3    H281981   0.173   2.051   0.945 -0.4053  0.6914  0.1905
20164TIP3   OH281982   2.616   0.792   3.279 -0.1154  0.0549  0.0196
20164TIP3    H181983   2.544   0.793   3.217 -2.6503  0.8773  2.7445
20164TIP3    H281984   2.654   0.880   3.272 -0.4868  0.1977 -0.2476
20165TIP3   OH281985   6.683   6.321   1.662 -0.1864 -0.1449 -0.0521
20165TIP3    H181986   6.717   6.365   1.740 -0.4986  0.2277 -0.1208
20165TIP3    H281987   6.761   6.295   1.613  0.0107 -0.2950  0.3329
20166TIP3   OH281988   0.568   2.717   1.138 -0.0032 -0.0626  0.4044
20166TIP3    H181989   0.483   2.751   1.110 -0.0688 -0.1062  0.5514
20166TIP3    H281990   0.549   2.668   1.218  0.2347  0.3016  0.6817
20167TIP3   OH281991   6.149   0.394   4.963  0.0875  0.0498 -0.0372
20167TIP3    H181992   6.227   0.369   4.914  0.6581 -1.2655  1.4554
20167TIP3    H281993   6.158   0.489   4.976  1.2004 -0.0072 -0.2924
20168TIP3   OH281994   0.160   3.483   5.212 -1.6461  0.1701 -0.1555
20168TIP3    H181995   0.144   3.549   5.144 -2.4042 -0.3427 -0.4944
20168TIP3    H281996   0.157   3.531   5.294  1.1604  1.1526 -0.5214
20169TIP3   OH281997   2.734   5.747   1.572  0.9025 -0.4382  0.0554
20169TIP3    H181998   2.731   5.651   1.576  0.5485 -0.4499 -0.4119
20169TIP3    H281999   2.745   5.767   1.479 -3.3372  0.0452 -0.5368
20170TIP3   OH282000   5.925   4.251   5.277 -0.2251 -0.1776 -0.2622
20170TIP3    H182001   5.830   4.263   5.280 -0.1869 -0.1239  1.1375
20170TIP3    H282002   5.946   4.201   5.355  0.8151 -0.9206 -0.9857
20171TIP3   OH282003   2.391   4.696   5.471 -0.2631  0.4801  0.1337
20171TIP3    H182004   2.434   4.709   5.386 -0.6715 -0.3615 -0.2101
20171TIP3    H282005   2.330   4.770   5.477 -1.0747 -0.0664 -0.8627
20172TIP3   OH282006   2.299   0.298   4.470  0.0682  0.1598  0.2208
20172TIP3    H182007   2.340   0.213   4.487  0.9522  0.3487 -0.8471
20172TIP3    H282008   2.294   0.340   4.556 -0.5887 -1.0495  0.7967
20173TIP3   OH282009   2.475   0.997  15.289 -0.6386 -0.3970 -0.0701
20173TIP3    H182010   2.549   1.025  15.343 -2.1185  2.0425  0.8771
20173TIP3    H282011   2.494   1.030  15.202 -0.7779  0.6893  0.2864
20174TIP3   OH282012   6.963   0.612   4.807  0.3155  1.0095 -0.2589
20174TIP3    H182013   7.010   0.566   4.877  0.0211  1.8558  0.5027
20174TIP3    H282014   6.871   0.602   4.829  0.0453 -0.8844 -1.9003
20175TIP3   OH282015   6.111   6.410   0.720 -0.2685  0.2229  0.1649
20175TIP3    H182016   6.107   6.450   0.806 -0.5786  1.6296 -0.4764
20175TIP3    H282017   6.023   6.421   0.684 -0.4329 -1.2627  0.0366
20176TIP3   OH282018   6.002   2.769   4.302  0.2546  0.3355  0.1517
20176TIP3    H182019   6.025   2.858   4.326  1.1767  0.7333 -1.9445
20176TIP3    H282020   6.025   2.763   4.209 -0.1120 -1.9781  0.1546
20177TIP3   OH282021   2.879   3.758   5.392 -0.6654  0.0407 -0.0320
20177TIP3    H182022   2.850   3.763   5.483  0.7305 -0.8130  0.4933
20177TIP3    H282023   2.852   3.842   5.354 -1.7806  0.1817  0.9913
20178TIP3   OH282024   6.015   6.652   0.025 -0.3685 -0.3128 -0.5313
20178TIP3    H182025   5.970   6.569   0.041 -2.2068  0.7713  0.3288
20178TIP3    H282026   5.948   6.718   0.040  1.7519  1.4931  1.8619
20179TIP3   OH282027   6.668   5.546   5.778  0.3350 -0.1551  0.0389
20179TIP3    H182028   6.734   5.521   5.714 -0.0419 -0.1845 -0.3462
20179TIP3    H282029   6.621   5.619   5.737 -0.6068 -0.8622 -0.1857
20180TIP3   OH282030   0.370   1.695   3.762 -0.1299  0.3947  0.1926
20180TIP3    H182031   0.433   1.730   3.825 -0.6255  0.9118  0.4062
20180TIP3    H282032   0.392   1.602   3.755 -0.2071  0.2830  1.3046
20181TIP3   OH282033   1.755   6.422   4.613 -0.3221  1.6523  0.1890
20181TIP3    H182034   1.694   6.397   4.543 -0.7152  2.2163  0.3243
20181TIP3    H282035   1.816   6.349   4.618 -1.0059  1.0605  0.0747
20182TIP3   OH282036   0.443   7.222   0.632 -0.3243 -0.1139 -0.0190
20182TIP3    H182037   0.397   7.242   0.713 -2.9465 -3.0452 -0.5852
20182TIP3    H282038   0.530   7.191   0.660 -1.5770 -2.2270  1.8549
20183TIP3   OH282039   6.784   1.111   3.227  0.5325  1.0201 -0.3553
20183TIP3    H182040   6.856   1.149   3.177  1.9674  0.0317  0.8539
20183TIP3    H282041   6.784   1.159   3.310 -0.8776  1.6699 -0.6942
20184TIP3   OH282042   2.869   5.084  15.101  0.4640 -0.3789  0.4086
20184TIP3    H182043   2.948   5.069  15.153 -0.1294  0.0478  1.4797
20184TIP3    H282044   2.818   5.003  15.112  0.4701 -0.4023  0.2549
20185TIP3   OH282045   4.225   7.192  14.690  0.3375  0.0146  0.2800
20185TIP3    H182046   4.158   7.210  14.756  1.5206  0.9498  1.2696
20185TIP3    H282047   4.292   7.143  14.737  0.5280 -0.6080 -0.6151
20186TIP3   OH282048   5.098   0.751   3.692  0.0578  0.2294 -0.7067
20186TIP3    H182049   5.171   0.766   3.752 -0.9190  1.7393  0.1893
20186TIP3    H282050   5.120   0.671   3.646  1.0949 -0.7278  1.3291
20187TIP3   OH282051   2.412   4.565   4.376 -1.0070 -0.2839  0.6976
20187TIP3    H182052   2.401   4.501   4.445 -0.4080  0.6128  1.6566
20187TIP3    H282053   2.506   4.579   4.371 -1.0903  0.1042  0.1204
20188TIP3   OH282054   5.376   4.488  13.916 -0.5592 -0.4546 -0.1626
20188TIP3    H182055   5.368   4.395  13.938 -0.8641 -0.2487  0.6368
20188TIP3    H282056   5.403   4.529  13.998 -1.4697  0.3105 -0.2325
20189TIP3   OH282057   2.289   6.843   1.749  0.3162 -0.1504  0.7606
20189TIP3    H182058   2.236   6.913   1.711  0.4524 -0.3747  0.1454
20189TIP3    H282059   2.228   6.794   1.804  0.3340  0.7520  1.6300
20190TIP3   OH282060   0.138   2.605   5.238 -0.8617 -0.0059  0.0812
20190TIP3    H182061   0.120   2.692   5.273 -1.0716  0.6535 -1.5781
20190TIP3    H282062   0.227   2.611   5.202 -0.6200 -0.6827  0.5358
20191TIP3   OH282063   5.168   6.662   2.789  0.6084  0.5497 -0.2510
20191TIP3    H182064   5.218   6.591   2.828 -1.0672 -0.1454  0.7552
20191TIP3    H282065   5.219   6.741   2.806  0.5901  0.0891  2.2235
20192TIP3   OH282066   1.171   3.105   1.406 -0.1907  0.5269  0.2420
20192TIP3    H182067   1.150   3.148   1.323  0.5271  0.6952  0.1409
20192TIP3    H282068   1.142   3.014   1.394 -0.1835  0.5754 -0.1499
20193TIP3   OH282069   4.966   2.609   4.980  0.3242 -0.2903  0.8275
20193TIP3    H182070   4.907   2.559   4.925  1.9867 -0.3318 -1.0216
20193TIP3    H282071   5.014   2.544   5.031  2.1151 -0.6362 -1.1934
20194TIP3   OH282072   0.767   7.069  12.018  0.4745  0.2943  0.5298
20194TIP3    H182073   0.831   7.132  11.984 -0.9035  0.9213 -1.0566
20194TIP3    H282074   0.813   7.024  12.089  3.2036 -0.3599 -1.4770
20195TIP3   OH282075   0.748   2.220   5.412 -0.2823  0.3834 -0.6636
20195TIP3    H182076   0.773   2.260   5.495  1.8305 -0.3846 -0.8697
20195TIP3    H282077   0.689   2.148   5.437  0.9738 -0.3541  0.2562
20196TIP3   OH282078   0.580   2.845  13.570  0.2214 -0.7375 -0.0096
20196TIP3    H182079   0.561   2.892  13.651  0.2493 -1.3014  0.3332
20196TIP3    H282080   0.500   2.794  13.553  0.2752 -0.7431 -0.2487
20197TIP3   OH282081   6.235   3.223   1.228  0.3816 -0.5259 -0.2000
20197TIP3    H182082   6.183   3.222   1.148 -0.6108  0.6869  0.3981
20197TIP3    H282083   6.303   3.288   1.212  0.5176 -0.6831 -0.2606
20198TIP3   OH282084   1.941   2.081   4.830  0.1940  0.9298  0.2949
20198TIP3    H182085   1.862   2.135   4.840 -2.1760 -2.4793  1.8586
20198TIP3    H282086   1.926   2.033   4.749 -0.9353 -1.8546  2.0065
20199TIP3   OH282087   5.341   4.641   5.792  0.2459 -0.3561  0.6698
20199TIP3    H182088   5.272   4.574   5.793  0.6651 -0.8276 -0.3726
20199TIP3    H282089   5.422   4.592   5.776  0.1563  0.6196 -4.5704
20200TIP3   OH282090   6.957   0.331  14.035  0.5959  0.3058  0.3046
20200TIP3    H182091   6.947   0.263  14.101  2.4716  0.2686  0.5996
20200TIP3    H282092   6.909   0.406  14.070  0.3131 -0.1850  0.9850
20201TIP3   OH282093   4.122   5.224   2.320  0.1877  0.3204 -0.0111
20201TIP3    H182094   4.205   5.272   2.317 -0.0713  0.8032  0.2753
20201TIP3    H282095   4.077   5.261   2.396  0.6025 -1.4375  1.1495
20202TIP3   OH282096   2.817   6.714   5.206  0.4028  0.3087 -0.0547
20202TIP3    H182097   2.838   6.704   5.113 -1.3703  0.1981 -0.4785
20202TIP3    H282098   2.804   6.625   5.238  0.5514  0.3710  0.1804
20203TIP3   OH282099   4.129   6.116   1.807 -0.4960  0.5801 -0.4791
20203TIP3    H182100   4.177   6.082   1.883  1.0590  0.0087 -1.6733
20203TIP3    H282101   4.173   6.198   1.785 -1.5672  1.2494 -0.1892
20204TIP3   OH282102   0.545   0.473   5.600  0.1872  0.6724 -0.1789
20204TIP3    H182103   0.473   0.491   5.539 -0.0467  0.5172  0.0503
20204TIP3    H282104   0.516   0.396   5.649  1.4458 -0.7891 -1.6157
20205TIP3   OH282105   2.275   4.126   2.755  0.4766 -0.1859  0.5061
20205TIP3    H182106   2.347   4.108   2.694 -0.8381 -0.8413 -0.9274
20205TIP3    H282107   2.202   4.074   2.721 -1.3706  2.2117  0.5251
20206TIP3   OH282108   6.696   0.871   4.112 -0.5451 -0.2135  0.4266
20206TIP3    H182109   6.758   0.807   4.147 -1.0124 -0.6266  0.5003
20206TIP3    H282110   6.752   0.936   4.069  0.0955  0.7835  2.6437
20207TIP3   OH282111   6.771   3.566   5.952  0.3054 -0.0595 -0.0914
20207TIP3    H182112   6.722   3.491   5.919 -2.0749  1.2504  0.2035
20207TIP3    H282113   6.750   3.570   6.046  0.3906  0.9498 -0.0938
20208TIP3   OH282114   6.866   0.911   3.772 -0.6884 -0.1050 -0.0081
20208TIP3    H182115   6.931   0.931   3.840 -0.4519 -2.1521  0.4337
20208TIP3    H282116   6.796   0.974   3.788 -1.1487 -1.1585  2.9141
20209TIP3   OH282117   5.586   2.711  11.809  0.8811  0.4713 -0.2579
20209TIP3    H182118   5.496   2.707  11.775  0.8293  2.4293 -0.4510
20209TIP3    H282119   5.631   2.638  11.767 -0.4619 -0.2074 -0.5891
20210TIP3   OH282120   4.265   2.509   4.482 -0.0616  0.2224 -0.7880
20210TIP3    H182121   4.267   2.556   4.399 -0.6948  0.8828 -0.4416
20210TIP3    H282122   4.278   2.577   4.548 -3.5511  0.4033 -0.1158
20211TIP3   OH282123   1.462   6.933   3.541 -0.1438  0.0287 -0.2034
20211TIP3    H182124   1.544   6.885   3.532 -0.0867 -0.1733  1.1287
20211TIP3    H282125   1.422   6.896   3.619 -1.0572  0.7825 -0.3025
20212TIP3   OH282126   2.257   1.543   3.813 -0.5198 -0.0149 -0.3067
20212TIP3    H182127   2.257   1.567   3.720 -0.3682  1.8798  0.1279
20212TIP3    H282128   2.347   1.560   3.841 -0.2419 -1.7613 -0.0619
20213TIP3   OH282129   3.041   4.553   5.430  0.2892  0.6152  0.3306
20213TIP3    H182130   3.123   4.581   5.390  1.1362 -0.3218  1.3358
20213TIP3    H282131   3.029   4.613   5.503  0.2329  0.5751  0.3535
20214TIP3   OH282132   1.988   6.797   3.343 -0.0070 -0.3934 -0.2008
20214TIP3    H182133   1.962   6.751   3.263 -0.9871 -1.2821  0.5902
20214TIP3    H282134   1.946   6.747   3.414  0.1421  0.8615  0.8098
20215TIP3   OH282135   5.087   3.777   4.162 -0.0513  0.3739 -1.0944
20215TIP3    H182136   5.135   3.702   4.128 -0.2154 -0.0170 -0.4840
20215TIP3    H282137   5.005   3.741   4.194  0.3489  0.6139  0.2681
20216TIP3   OH282138   5.060   1.081   0.423 -0.4032  0.5292  0.0632
20216TIP3    H182139   5.118   1.005   0.416 -0.4089  0.4749  0.5675
20216TIP3    H282140   4.976   1.050   0.390  0.2086  1.0424 -2.1700
20217TIP3   OH282141   2.167   5.320   1.748 -0.3945 -0.6059 -0.5401
20217TIP3    H182142   2.136   5.368   1.824  0.4071 -1.4409  0.3489
20217TIP3    H282143   2.252   5.360   1.727  0.8904 -2.3278  0.9836
20218TIP3   OH282144   3.084   7.144   4.269  0.8986  0.0630  0.1672
20218TIP3    H182145   3.092   7.229   4.312 -1.4843  0.5533 -0.1864
20218TIP3    H282146   3.053   7.085   4.338 -2.1141  0.6606 -0.5256
20219TIP3   OH282147   6.184   0.010   3.957  0.1711 -0.2006 -0.3954
20219TIP3    H182148   6.140  -0.072   3.936  0.4828 -0.1044 -1.5007
20219TIP3    H282149   6.227   0.036   3.875 -1.0226  1.7505 -0.4822
20220TIP3   OH282150   6.127   1.040   5.680 -0.0430  0.4585 -0.7143
20220TIP3    H182151   6.053   0.981   5.695  0.7609 -0.4266 -0.0671
20220TIP3    H282152   6.097   1.100   5.612 -0.9840 -0.5427 -1.2142
20221TIP3   OH282153   1.897   2.661  10.819  0.4383 -0.3106  0.9021
20221TIP3    H182154   1.958   2.588  10.812 -0.3662 -0.8122 -1.4883
20221TIP3    H282155   1.826   2.628  10.873  0.0782 -1.3341 -0.1643
20222TIP3   OH282156   6.142   5.757   4.765  0.2809  0.5991  0.7039
20222TIP3    H182157   6.072   5.693   4.779  1.6672 -0.9926  0.7853
20222TIP3    H282158   6.187   5.762   4.850 -0.6110  2.7692  1.1001
20223TIP3   OH282159   1.877   5.696   5.468 -0.1227  0.5493 -0.3318
20223TIP3    H182160   1.897   5.614   5.514 -1.1971 -0.7437 -2.0572
20223TIP3    H282161   1.883   5.673   5.375  2.4815  3.1715 -0.9584
20224TIP3   OH282162   3.027   2.597  13.525 -0.2037 -0.5318 -0.0208
20224TIP3    H182163   3.016   2.658  13.598 -0.6828 -1.1848  0.4804
20224TIP3    H282164   3.044   2.652  13.449  1.0706  0.1377  0.7129
20225TIP3   OH282165   1.006   4.978  15.119  0.4094  0.4075 -0.4003
20225TIP3    H182166   0.965   4.891  15.113  1.6552 -0.2894  0.5167
20225TIP3    H282167   1.100   4.960  15.118  0.6915  1.7399 -0.0786
20226TIP3   OH282168   7.221   4.941   3.624  0.0081  0.4928  0.1123
20226TIP3    H182169   7.251   4.860   3.666  1.4667  1.0807  0.2751
20226TIP3    H282170   7.179   4.990   3.695  0.9874  0.7628  0.5273
20227TIP3   OH282171   4.893   2.004   4.806 -0.6681  0.0658  0.3615
20227TIP3    H182172   4.805   2.041   4.807 -0.4557  0.5698  0.7792
20227TIP3    H282173   4.942   2.056   4.870  0.4188  0.9816 -1.1646
20228TIP3   OH282174   0.237   4.837   2.904  0.1978 -0.9107  0.3142
20228TIP3    H182175   0.153   4.856   2.860  0.8943  2.4220  0.1899
20228TIP3    H282176   0.217   4.843   2.997  0.2549 -0.0625  0.2843
20229TIP3   OH282177   3.986   2.881   1.606 -0.0832  0.3835  0.2083
20229TIP3    H182178   4.013   2.790   1.624 -1.4012  0.0147  0.4540
20229TIP3    H282179   4.044   2.934   1.660 -0.3044 -0.4147  1.2770
20230TIP3   OH282180   3.372   5.698  14.187  0.0730 -0.2436  0.0805
20230TIP3    H182181   3.305   5.650  14.138  0.7366 -1.5434  0.4034
20230TIP3    H282182   3.406   5.762  14.124 -2.1515  1.1751  0.2065
20231TIP3   OH282183   4.156   5.422  14.988 -0.2599  0.0078 -0.2682
20231TIP3    H182184   4.199   5.365  14.923  1.6771 -0.2533  1.1496
20231TIP3    H282185   4.143   5.365  15.064  2.1666  1.4538  1.3608
20232TIP3   OH282186   3.607   1.143   3.897  0.5587 -0.2238  0.3758
20232TIP3    H182187   3.680   1.205   3.890  0.9480 -0.6466  0.5976
20232TIP3    H282188   3.649   1.059   3.913 -0.0335 -0.2851  1.7267
20233TIP3   OH282189   5.154   0.174   4.693  0.1644  0.3719  0.0695
20233TIP3    H182190   5.207   0.209   4.765 -1.5839  0.4699  1.3486
20233TIP3    H282191   5.160   0.241   4.625  1.3168  0.5766  0.3470
20234TIP3   OH282192   1.104   6.013   5.641  0.5494  0.4646 -0.1488
20234TIP3    H182193   1.196   6.025   5.663  1.3012 -0.4036 -2.4697
20234TIP3    H282194   1.071   5.952   5.707  1.9609 -0.1076  0.0605
20235TIP3   OH282195   0.663   5.387  15.237  0.4295  0.3940  0.0285
20235TIP3    H182196   0.749   5.427  15.251  0.6305 -0.3015  0.8902
20235TIP3    H282197   0.642   5.345  15.321  0.3488 -1.4949 -0.8834
20236TIP3   OH282198   5.472   3.288   1.839  0.7227 -0.0538 -0.0046
20236TIP3    H182199   5.407   3.343   1.795  0.0810  3.0979  4.2926
20236TIP3    H282200   5.551   3.341   1.841  1.5921 -1.3142  0.2097
20237TIP3   OH282201   5.575   1.749   2.255 -0.7586 -0.0114 -0.3264
20237TIP3    H182202   5.666   1.755   2.226 -0.3344  0.3938  1.0386
20237TIP3    H282203   5.570   1.665   2.302 -1.0908 -0.0232 -0.3805
20238TIP3   OH282204   5.701   4.651  14.366 -0.1468 -0.3797 -0.4776
20238TIP3    H182205   5.699   4.560  14.336  0.0451 -0.1966 -1.0552
20238TIP3    H282206   5.794   4.667  14.384 -0.4525 -1.1509  2.3241
20239TIP3   OH282207   6.768   4.540   3.830  0.1727  0.1360 -0.2421
20239TIP3    H182208   6.679   4.535   3.795 -0.1996  1.5295  0.4134
20239TIP3    H282209   6.770   4.474   3.900 -0.1087 -0.4030 -0.7362
20240TIP3   OH282210   6.464   0.062   1.647  0.6487 -0.2561  0.3613
20240TIP3    H182211   6.527  -0.007   1.666 -0.0699 -0.9209  0.3892
20240TIP3    H282212   6.383   0.033   1.688  0.4139  0.7716  0.6649
20241TIP3   OH282213   0.727   3.139   4.329  0.2165  0.1122 -0.2370
20241TIP3    H182214   0.821   3.152   4.335 -0.0122  1.3121  1.3399
20241TIP3    H282215   0.701   3.187   4.250  1.1379 -1.9232 -1.8776
20242TIP3   OH282216   5.444   0.566   2.227  0.1681  0.2328  0.4410
20242TIP3    H182217   5.494   0.610   2.158 -1.1802 -0.9471 -1.3827
20242TIP3    H282218   5.497   0.490   2.250  0.7895  0.8194  0.9953
20243TIP3   OH282219   0.782   6.793   5.589  0.3888  0.0725 -0.2755
20243TIP3    H182220   0.692   6.773   5.562  0.2146 -1.5539  1.2824
20243TIP3    H282221   0.772   6.834   5.675  1.0479  2.5530 -1.2928
20244TIP3   OH282222   7.068   4.881  15.152  0.0247 -0.3894 -0.2386
20244TIP3    H182223   7.066   4.907  15.244  2.1834 -0.3529 -0.1679
20244TIP3    H282224   7.077   4.786  15.155  1.1498 -0.2975 -0.3760
20245TIP3   OH282225   1.974   5.779   5.213  0.4752  0.8029  0.2564
20245TIP3    H182226   1.964   5.808   5.122 -0.6851 -2.7268 -0.9212
20245TIP3    H282227   2.063   5.744   5.217 -0.6324 -2.5572 -0.8614
20246TIP3   OH282228   7.229   1.065  14.968 -0.2289 -0.4010  0.4898
20246TIP3    H182229   7.248   1.055  14.874  2.4135 -0.3677  0.9332
20246TIP3    H282230   7.207   0.977  14.997  0.5200 -0.7285  0.1081
20247TIP3   OH282231   2.015   2.957   2.061  0.1667  0.5858  0.0606
20247TIP3    H182232   1.971   2.882   2.021  1.7796 -1.0964  1.2498
20247TIP3    H282233   1.960   2.980   2.136 -0.8946  1.3529 -0.9064
20248TIP3   OH282234   1.598   5.640   3.908 -0.5002  0.1461  0.7846
20248TIP3    H182235   1.664   5.660   3.975 -1.1886  0.9257  1.2440
20248TIP3    H282236   1.593   5.545   3.907  0.3868  0.0907  0.9909
20249TIP3   OH282237   0.901   3.015  14.400  0.0962 -0.3018  0.5476
20249TIP3    H182238   0.929   2.971  14.321 -1.7507 -2.1145  0.8287
20249TIP3    H282239   0.940   2.965  14.472 -0.5181 -0.3884  0.8330
20250TIP3   OH282240   1.655   1.493   2.975 -0.4354 -0.6274  0.4601
20250TIP3    H182241   1.707   1.527   2.902  1.1700 -0.6087  1.5651
20250TIP3    H282242   1.601   1.424   2.937  0.4555 -0.6925 -0.7211
20251TIP3   OH282243   6.778   6.122   4.102  0.0950  0.2699  0.6885
20251TIP3    H182244   6.739   6.037   4.078  0.4687  0.7471 -1.9181
20251TIP3    H282245   6.703   6.181   4.109 -0.0125  0.1779  0.3497
20252TIP3   OH282246   2.062   4.300   3.974  1.2116 -0.5743 -0.4355
20252TIP3    H182247   2.017   4.217   3.956  0.3180  0.0815 -1.3524
20252TIP3    H282248   2.152   4.285   3.947  1.0805 -1.2850 -0.5047
20253TIP3   OH282249   3.744   6.224   3.358 -0.7182 -0.0909 -0.2019
20253TIP3    H182250   3.717   6.265   3.276 -0.3777 -0.1346 -0.3379
20253TIP3    H282251   3.815   6.165   3.332  0.1677  0.7302  0.2855
20254TIP3   OH282252   0.004   7.185   5.745  0.0690  0.5486 -0.0353
20254TIP3    H182253   0.033   7.106   5.700  1.1182 -0.0866  1.6502
20254TIP3    H282254  -0.087   7.167   5.769  0.7546 -0.8930  1.7537
20255TIP3   OH282255   6.301   3.810   1.941  0.1746 -0.3069 -0.1282
20255TIP3    H182256   6.316   3.904   1.948 -1.2482  0.0537 -1.3141
20255TIP3    H282257   6.249   3.800   1.861 -0.0493 -2.0620  0.1926
20256TIP3   OH282258   0.538   1.407   2.204  0.5875  0.6594  0.5058
20256TIP3    H182259   0.569   1.488   2.164 -2.0401  1.2196 -0.6181
20256TIP3    H282260   0.489   1.435   2.282 -1.4912  0.3476 -0.6239
20257TIP3   OH282261   7.209   1.534   4.282  0.0552 -0.0401 -0.3010
20257TIP3    H182262   7.214   1.457   4.339  1.4431  0.4301  0.2351
20257TIP3    H282263   7.264   1.512   4.207  0.6660  0.5281 -0.0233
20258TIP3   OH282264   1.552   5.429   3.651 -0.8353 -0.1513 -0.1736
20258TIP3    H182265   1.555   5.524   3.643 -1.9602 -0.1810 -1.2032
20258TIP3    H282266   1.606   5.410   3.728  1.5648  1.0829 -1.4677
20259TIP3   OH282267   4.976   7.048   4.435 -0.7045  0.1202  0.1490
20259TIP3    H182268   4.885   7.018   4.430 -1.3635  1.5984  2.1408
20259TIP3    H282269   5.024   6.972   4.469 -1.0110 -0.9001 -1.5716
20260TIP3   OH282270   2.208   1.932  14.584  0.3395 -0.3310 -0.6987
20260TIP3    H182271   2.136   1.987  14.551  0.2744 -0.1258 -0.2294
20260TIP3    H282272   2.272   1.932  14.514  0.1191 -0.0594 -0.9035
20261TIP3   OH282273   2.986   0.143   4.895  0.0971  0.2728  0.3372
20261TIP3    H182274   3.002   0.169   4.985 -0.0188 -0.2434  0.5104
20261TIP3    H282275   2.970   0.049   4.899 -3.4886  0.7129  0.2937
20262TIP3   OH282276   4.593   4.558  12.012  1.0020  0.2504 -0.3416
20262TIP3    H182277   4.553   4.641  11.986  0.5443 -0.1940 -1.0855
20262TIP3    H282278   4.617   4.571  12.104  2.7878  1.9236 -0.9769
20263TIP3   OH282279   0.534   0.965   2.374 -0.3926 -0.0778  0.2876
20263TIP3    H182280   0.526   0.921   2.458 -2.8296 -0.7149 -0.2143
20263TIP3    H282281   0.571   0.899   2.316  1.0995  0.2999  0.7617
20264TIP3   OH282282   1.296   4.264   4.589  0.1245 -0.2792 -0.1481
20264TIP3    H182283   1.288   4.223   4.675  0.2405  0.2267  0.1089
20264TIP3    H282284   1.286   4.192   4.526 -3.7228 -0.2130  0.1296
20265TIP3   OH282285   0.002   3.468   2.141 -0.2098 -0.1494 -0.0479
20265TIP3    H182286   0.077   3.468   2.200  1.2031 -1.0400 -1.7505
20265TIP3    H282287   0.004   3.381   2.100 -0.5608  0.7410 -2.0822
20266TIP3   OH282288   3.785   4.202  13.572 -0.3497  0.0848 -0.3473
20266TIP3    H182289   3.873   4.183  13.540  0.1524  1.2413  0.2893
20266TIP3    H282290   3.768   4.132  13.636 -0.0636 -0.3673 -0.7560
20267TIP3   OH282291   5.836   0.438  13.631 -0.2899 -0.3458 -0.2631
20267TIP3    H182292   5.743   0.459  13.644 -0.1286  0.6400 -0.6175
20267TIP3    H282293   5.835   0.354  13.585 -1.0814  0.4942 -1.8587
20268TIP3   OH282294   1.375   2.020   3.693 -0.7331 -0.4301 -0.0107
20268TIP3    H182295   1.361   1.950   3.630 -0.7108  1.6275 -2.4530
20268TIP3    H282296   1.450   1.992   3.745  0.2602 -1.5304 -1.9636
20269TIP3   OH282297   4.899   0.173   5.344 -0.5905  0.7741  0.0760
20269TIP3    H182298   4.904   0.179   5.249  0.1686  0.6651  0.1028
20269TIP3    H282299   4.942   0.090   5.365  0.2212  1.3186  0.5866
20270TIP3   OH282300   1.340   2.737  14.318  0.3173  0.1497  0.3213
20270TIP3    H182301   1.255   2.756  14.358 -0.5681  0.0307 -1.3909
20270TIP3    H282302   1.375   2.664  14.370 -0.0663  0.9642  1.7713
20271TIP3   OH282303   6.061   0.380   5.591  0.0190 -0.1429 -0.2502
20271TIP3    H182304   6.128   0.372   5.659  0.6138 -0.2473 -0.8354
20271TIP3    H282305   6.110   0.403   5.512 -0.6557 -0.0743 -0.6549
20272TIP3   OH282306   0.357   3.215   3.919  0.1489  0.0552 -0.6646
20272TIP3    H182307   0.400   3.268   3.852  0.2712 -0.9797 -1.4390
20272TIP3    H282308   0.426   3.157   3.952  0.0890  0.5490  0.3699
20273TIP3   OH282309   5.149   3.498   4.260 -0.2451 -0.0639 -0.1249
20273TIP3    H182310   5.127   3.423   4.314  1.1204  1.0056  2.0269
20273TIP3    H282311   5.168   3.568   4.322  0.8352  1.4075 -2.0014
20274TIP3   OH282312   4.411   5.767   3.874  0.6090 -0.3548 -0.0359
20274TIP3    H182313   4.499   5.783   3.908  1.0169 -1.1421 -0.6781
20274TIP3    H282314   4.393   5.676   3.896 -0.6842  0.2191  1.4440
20275TIP3   OH282315   6.194   2.461   3.895 -0.0647  0.4083  0.0114
20275TIP3    H182316   6.161   2.372   3.908  0.7393  0.1166  0.1228
20275TIP3    H282317   6.288   2.449   3.877  0.4097  1.3376  1.6943
20276TIP3   OH282318   3.057   6.792   2.816  0.1516 -0.2168  0.2737
20276TIP3    H182319   3.085   6.794   2.908  0.7960  1.1957  0.0826
20276TIP3    H282320   3.097   6.870   2.778 -1.2366 -0.0327 -0.8845
20277TIP3   OH282321   6.580   2.143   3.051 -0.2036 -0.0923  0.0977
20277TIP3    H182322   6.611   2.231   3.032  0.6618 -0.7749 -1.9308
20277TIP3    H282323   6.485   2.150   3.053 -0.1457  0.8509 -0.1668
20278TIP3   OH282324   0.674   0.993   4.528 -0.5903 -0.6238  1.0556
20278TIP3    H182325   0.600   0.979   4.468 -1.2901  0.8811  1.5201
20278TIP3    H282326   0.736   0.924   4.506 -0.9215 -0.2648 -1.2372
20279TIP3   OH282327   4.775   5.231   3.554  0.1878  0.1514  0.0715
20279TIP3    H182328   4.773   5.192   3.466 -1.4434 -0.9005  0.5227
20279TIP3    H282329   4.689   5.273   3.563  0.2532  0.0537  1.2421
20280TIP3   OH282330   6.449   2.127  14.882  1.1790 -0.0974 -0.0979
20280TIP3    H182331   6.545   2.123  14.877  1.1234  0.2896 -1.7756
20280TIP3    H282332   6.431   2.207  14.931  1.7076 -0.5899  0.9364
20281TIP3   OH282333   2.171   3.343   1.868 -0.1393  0.0001 -0.3208
20281TIP3    H182334   2.088   3.316   1.829 -0.0941 -1.4740  0.5587
20281TIP3    H282335   2.145   3.395   1.944 -0.2498  0.0518 -0.3926
20282TIP3   OH282336   3.574   6.555   0.276 -0.0501  0.0523 -0.5933
20282TIP3    H182337   3.658   6.597   0.294  0.4003 -0.6054 -1.1127
20282TIP3    H282338   3.597   6.470   0.238 -0.9458  0.2222 -1.5651
20283TIP3   OH282339   1.321   1.636   1.902  0.5666 -0.1007 -0.2192
20283TIP3    H182340   1.228   1.659   1.899  0.2533 -1.4037 -0.9489
20283TIP3    H282341   1.347   1.656   1.992 -1.3900 -3.2541  1.1950
20284TIP3   OH282342   2.544   1.597   3.610  0.0801 -0.0317 -0.3385
20284TIP3    H182343   2.576   1.559   3.692  0.7337  1.0139 -0.0865
20284TIP3    H282344   2.460   1.554   3.595 -0.8545  0.9053  1.7534
20285TIP3   OH282345   5.765   3.648   2.001 -0.1636 -0.2017 -0.6864
20285TIP3    H182346   5.859   3.635   1.983  0.2605 -1.9523  2.1904
20285TIP3    H282347   5.761   3.735   2.041  0.5866 -0.8892  0.9653
20286TIP3   OH282348   5.126   5.503   2.917  0.4961  0.1690 -0.7657
20286TIP3    H182349   5.176   5.538   2.844  0.1930  0.1602 -0.9780
20286TIP3    H282350   5.106   5.413   2.892  1.5873 -0.2886 -0.0621
   7.25645   7.25645  15.35584
