Title
42773
    1SAPS     N    1   4.911   2.944   7.054 -0.4947  0.0338  0.0566
    1SAPS   HN1    2   4.984   2.996   7.000  1.6099 -1.3356  1.4069
    1SAPS   HN2    3   4.960   2.876   7.115 -0.1787  0.3507  0.1616
    1SAPS   HN3    4   4.842   2.890   6.999 -1.2355 -1.0216  1.9450
    1SAPS   C12    5   4.845   3.030   7.155  0.1841 -0.1354  0.4392
    1SAPS  H12A    6   4.758   2.974   7.184 -1.0318  1.1704 -0.5361
    1SAPS   C13    7   4.924   3.073   7.278  0.2368  0.0887 -0.8014
    1SAPS  O13A    8   5.033   3.017   7.310 -0.3433  0.2496 -0.1232
    1SAPS  O13B    9   4.859   3.135   7.374  0.1827  0.2746 -0.1130
    1SAPS   C11   10   4.807   3.164   7.079  0.3626  0.4748  0.0680
    1SAPS  H11A   11   4.901   3.220   7.062  1.7472 -1.7370  0.1337
    1SAPS  H11B   12   4.743   3.214   7.155  0.4940  1.3842 -0.4060
    1SAPS     P   13   4.624   3.232   6.922 -0.1347 -0.5100  0.2775
    1SAPS   O13   14   4.495   3.174   6.968  0.1831  0.2796  0.1452
    1SAPS   O14   15   4.658   3.371   6.965 -0.1541 -0.2104 -0.5034
    1SAPS   O12   16   4.738   3.132   6.952  0.1522  0.0231  0.0022
    1SAPS   O11   17   4.626   3.242   6.765 -0.4685  0.1528  0.1061
    1SAPS    C1   18   4.752   3.222   6.694 -1.0341  0.3184  0.7503
    1SAPS    HA   19   4.821   3.157   6.751 -2.3158  0.8592  3.0530
    1SAPS    HB   20   4.734   3.174   6.595  0.9718  0.8383  0.0848
    1SAPS    C2   21   4.832   3.349   6.663  0.2724  0.2458  1.3804
    1SAPS    HS   22   4.857   3.384   6.766 -0.8562 -1.1041  2.1654
    1SAPS   O21   23   4.759   3.448   6.588  0.3478  0.2380 -0.4778
    1SAPS   C21   24   4.791   3.575   6.618 -0.2700  0.4920  0.6409
    1SAPS   O22   25   4.888   3.607   6.684  0.0504  0.0447  0.3920
    1SAPS   C22   26   4.693   3.670   6.543 -0.3396 -0.0040  0.2241
    1SAPS   H2R   27   4.685   3.627   6.440  1.7060 -1.9721  0.7950
    1SAPS   H2S   28   4.598   3.662   6.598 -0.3223 -1.1268  0.1145
    1SAPS    C3   29   4.960   3.308   6.585  0.0960 -0.5088 -0.7414
    1SAPS    HX   30   5.023   3.251   6.657  1.5375 -0.2276 -1.7140
    1SAPS    HY   31   5.015   3.403   6.569 -1.4072  0.3699 -0.7891
    1SAPS   O31   32   4.939   3.228   6.470 -0.1962 -0.2267  0.6210
    1SAPS   C31   33   4.911   3.286   6.356  0.2253 -0.1173  1.4436
    1SAPS   O32   34   4.877   3.406   6.347 -0.3192 -0.1099 -0.1100
    1SAPS   C32   35   4.938   3.197   6.229  0.2776 -0.1983  0.2325
    1SAPS   H2X   36   4.845   3.137   6.223  0.1537  0.0042  0.1236
    1SAPS   H2Y   37   5.014   3.120   6.255 -0.5602 -1.7661 -1.6928
    1SAPS   C23   38   4.745   3.813   6.532 -0.0021 -0.3794  0.3048
    1SAPS   H3R   39   4.844   3.809   6.482 -0.6688 -0.7147 -1.0513
    1SAPS   H3S   40   4.754   3.851   6.636 -1.8506 -2.3405  1.2862
    1SAPS   C24   41   4.640   3.899   6.454 -0.6180  0.1662 -0.2508
    1SAPS   H4R   42   4.689   3.999   6.455  1.3427 -0.7372  1.8048
    1SAPS   H4S   43   4.548   3.900   6.517  0.1084  2.4837  0.8665
    1SAPS   C25   44   4.597   3.845   6.326 -0.3323 -0.1184 -0.1367
    1SAPS   H5R   45   4.495   3.809   6.309 -0.1998 -0.4587 -0.2281
    1SAPS   C26   46   4.671   3.835   6.216  0.1302  0.1931 -0.3645
    1SAPS   H6R   47   4.617   3.795   6.129  1.2106  0.6442 -1.2831
    1SAPS   C27   48   4.818   3.865   6.191 -0.1860  0.1449 -0.3987
    1SAPS   H7R   49   4.871   3.905   6.280  0.6707  2.9571 -2.0504
    1SAPS   H7S   50   4.844   3.946   6.119  0.6824 -0.9004 -1.2993
    1SAPS   C28   51   4.890   3.741   6.136 -0.0790  0.4630 -0.0249
    1SAPS   H8R   52   4.910   3.657   6.205  0.2991 -1.0224 -1.8498
    1SAPS   C29   53   4.932   3.723   6.007  0.5390  0.2929 -0.4668
    1SAPS   H9R   54   4.984   3.628   5.985 -0.3744 -0.1508 -0.7267
    1SAPS  C210   55   4.916   3.821   5.898  0.3104 -0.6013 -0.1651
    1SAPS  H10R   56   4.975   3.913   5.918  0.7312 -0.1164 -3.0986
    1SAPS  H10S   57   4.806   3.837   5.885  0.1189 -2.1813 -0.7861
    1SAPS  C211   58   4.971   3.762   5.769 -0.3334  0.2455 -0.3822
    1SAPS  H11R   59   5.071   3.716   5.778 -0.2782  0.3999 -0.1795
    1SAPS  C212   60   4.917   3.767   5.648  0.5299 -0.0535  0.3513
    1SAPS  H12R   61   4.974   3.721   5.566 -1.5973  0.4457 -1.5195
    1SAPS  C213   62   4.787   3.826   5.613  0.2426  0.4619 -0.0371
    1SAPS  H13R   63   4.788   3.936   5.598  1.8808  0.1605 -2.6691
    1SAPS  H13S   64   4.705   3.802   5.684  0.0964 -1.4707 -0.8093
    1SAPS  C214   65   4.754   3.770   5.478 -0.8938 -0.1202  0.6152
    1SAPS  H14R   66   4.707   3.671   5.486  1.1205 -0.9870  3.6697
    1SAPS  C215   67   4.781   3.811   5.354  0.8554 -1.0306  0.5599
    1SAPS  H15R   68   4.737   3.755   5.271 -1.2251  0.8568  0.3012
    1SAPS  C216   69   4.854   3.936   5.324  0.1575 -0.0115  0.2762
    1SAPS  H16R   70   4.953   3.911   5.281  0.3385 -2.1974  1.7783
    1SAPS  H16S   71   4.884   3.983   5.419  1.8196 -0.2009 -0.1254
    1SAPS  C217   72   4.780   4.044   5.235 -0.5658  0.3767  0.2488
    1SAPS  H17R   73   4.850   4.131   5.234  0.6388 -0.5743 -0.6739
    1SAPS  H17S   74   4.688   4.073   5.290 -0.5312  1.9307 -0.4290
    1SAPS  C218   75   4.747   3.997   5.090  0.4407  0.5855  0.0388
    1SAPS  H18R   76   4.665   3.923   5.106  0.0934  1.5985  4.0268
    1SAPS  H18S   77   4.828   3.940   5.039 -0.4413  1.1798 -2.1467
    1SAPS  C219   78   4.707   4.112   4.995 -0.6724  0.2002 -0.1554
    1SAPS  H19R   79   4.791   4.185   4.984 -0.6511  0.0296 -1.2015
    1SAPS  H19S   80   4.620   4.169   5.035 -1.2121  0.1488 -1.2254
    1SAPS  C220   81   4.677   4.056   4.863 -0.1244 -0.0142  0.2542
    1SAPS  H20R   82   4.774   4.033   4.816 -0.8200  0.5211 -1.5185
    1SAPS  H20S   83   4.623   4.130   4.800  0.7809 -0.9100 -1.6217
    1SAPS  H20T   84   4.607   3.970   4.869  0.1286 -0.1442  2.3829
    1SAPS   C33   85   4.968   3.273   6.095  0.0393  0.5978  0.6382
    1SAPS   H3X   86   5.065   3.327   6.099  0.9742 -0.6123 -2.6447
    1SAPS   H3Y   87   4.883   3.341   6.075 -1.7660 -2.0075 -1.2379
    1SAPS   C34   88   4.968   3.178   5.974 -0.1147  0.2722  0.7777
    1SAPS   H4X   89   4.875   3.117   5.974  0.8189 -1.3305 -1.9104
    1SAPS   H4Y   90   5.056   3.109   5.971  0.0479  0.5137 -0.3280
    1SAPS   C35   91   4.974   3.259   5.842  0.0148  0.5306 -0.6143
    1SAPS   H5X   92   5.061   3.328   5.838  0.7419 -0.3667 -0.7000
    1SAPS   H5Y   93   4.878   3.314   5.844 -0.5205 -0.3831  1.2015
    1SAPS   C36   94   4.976   3.171   5.718 -0.1451 -0.2432  0.2032
    1SAPS   H6X   95   4.905   3.085   5.716  0.6272 -0.9155  0.9354
    1SAPS   H6Y   96   5.078   3.128   5.705  0.9199  2.1130  0.3999
    1SAPS   C37   97   4.942   3.255   5.594 -0.3043 -0.4496 -0.0498
    1SAPS   H7X   98   5.005   3.346   5.585 -1.7547  0.7211  1.1586
    1SAPS   H7Y   99   4.840   3.298   5.603  0.5555  1.5223  0.8098
    1SAPS   C38  100   4.956   3.182   5.455 -0.1204 -0.4388  0.5344
    1SAPS   H8X  101   4.882   3.099   5.457 -0.0738 -0.4631  2.3540
    1SAPS   H8Y  102   5.055   3.132   5.453  1.0324  1.7731 -0.2643
    1SAPS   C39  103   4.947   3.262   5.323 -0.4017 -0.5013  0.1659
    1SAPS   H9X  104   5.013   3.351   5.334 -0.9293 -0.2525  1.5733
    1SAPS   H9Y  105   4.847   3.310   5.314  0.8486  1.9759 -1.8005
    1SAPS  C310  106   4.960   3.181   5.197 -0.1088  1.0218 -0.3177
    1SAPS  H10X  107   4.880   3.104   5.197  0.6543  0.2065  0.1609
    1SAPS  H10Y  108   5.062   3.135   5.197  0.0677  1.3571  1.2652
    1SAPS  C311  109   4.950   3.265   5.065 -0.1488 -0.1446 -0.1696
    1SAPS  H11X  110   4.853   3.318   5.075 -0.5655 -1.0283  0.6959
    1SAPS  H11Y  111   4.937   3.198   4.978 -3.0540 -0.0679  0.1250
    1SAPS  C312  112   5.065   3.364   5.037 -0.1996 -0.7353  0.0248
    1SAPS  H12X  113   5.164   3.317   5.055  0.9603  0.2987 -2.9498
    1SAPS  H12Y  114   5.046   3.444   5.111 -0.1623 -0.0962 -0.6392
    1SAPS  C313  115   5.072   3.409   4.886  0.2360  0.2451 -0.1263
    1SAPS  H13X  116   4.968   3.438   4.859  0.2313 -0.9428 -1.4589
    1SAPS  H13Y  117   5.102   3.323   4.823  0.5024 -0.4561  0.9182
    1SAPS  C314  118   5.161   3.528   4.853 -0.9767 -0.0153  0.7351
    1SAPS  H14X  119   5.266   3.498   4.876 -0.7776  0.2494  0.1826
    1SAPS  H14Y  120   5.135   3.610   4.923 -1.5853  0.2246  0.2270
    1SAPS  C315  121   5.129   3.594   4.716 -0.0075  0.2045 -0.9029
    1SAPS  H15X  122   5.021   3.620   4.712  0.0554  0.6842  0.2268
    1SAPS  H15Y  123   5.140   3.517   4.636  1.7480 -1.6667  1.0291
    1SAPS  C316  124   5.204   3.719   4.677 -0.1073  0.5091  0.7233
    1SAPS  H16X  125   5.310   3.691   4.697  0.0737 -0.7298 -1.6487
    1SAPS  H16Y  126   5.186   3.803   4.747  0.7589  0.4067  1.0776
    1SAPS  C317  127   5.203   3.760   4.528  0.3740  0.3437 -0.6549
    1SAPS  H17X  128   5.228   3.673   4.464  1.6153 -0.5804  1.0103
    1SAPS  H17Y  129   5.282   3.837   4.512  1.3082 -0.8551 -2.0487
    1SAPS  C318  130   5.059   3.814   4.495 -0.2167  0.1507  0.5393
    1SAPS  H18X  131   5.055   3.832   4.385  0.5096 -0.2934  0.4271
    1SAPS  H18Y  132   5.052   3.911   4.548  1.1777  1.3647 -1.3388
    1SAPS  H18Z  133   4.979   3.742   4.525  0.0349  0.3770  1.8074
    2SAPS     N  134   5.656   5.379   7.690  0.5431 -0.1913 -0.4374
    2SAPS   HN1  135   5.734   5.358   7.755 -1.8630  0.2291  2.8131
    2SAPS   HN2  136   5.696   5.378   7.594 -0.7302  0.1808 -1.0064
    2SAPS   HN3  137   5.622   5.473   7.721  1.6099 -0.5380  2.0362
    2SAPS   C12  138   5.552   5.264   7.703  0.3857 -0.8225  0.9602
    2SAPS  H12A  139   5.588   5.188   7.636 -1.4231  0.5467 -1.7913
    2SAPS   C13  140   5.521   5.193   7.842  0.5387 -0.1083  0.8156
    2SAPS  O13A  141   5.581   5.241   7.940 -0.2563 -0.1871  0.8633
    2SAPS  O13B  142   5.460   5.089   7.843 -0.1688 -0.0710  0.2736
    2SAPS   C11  143   5.426   5.301   7.625 -0.4588  0.5517  0.4516
    2SAPS  H11A  144   5.363   5.370   7.685 -0.8161 -0.1227  0.8764
    2SAPS  H11B  145   5.367   5.208   7.609  1.3390 -0.5481 -0.0036
    2SAPS     P  146   5.335   5.388   7.392 -0.1440  0.0785 -0.4350
    2SAPS   O13  147   5.217   5.416   7.475  0.0550 -0.6071  0.7325
    2SAPS   O14  148   5.390   5.497   7.304  0.1529  0.3657  0.3817
    2SAPS   O12  149   5.452   5.350   7.491 -0.1800  0.0953 -1.2868
    2SAPS   O11  150   5.305   5.260   7.307  0.6684 -0.3654  0.5699
    2SAPS    C1  151   5.340   5.126   7.349 -0.3450  0.1723 -0.1373
    2SAPS    HA  152   5.445   5.116   7.386 -0.7526 -2.4921  0.4486
    2SAPS    HB  153   5.261   5.092   7.419 -0.8668  0.0352 -0.7939
    2SAPS    C2  154   5.333   5.026   7.232 -0.2393 -0.3407  0.6804
    2SAPS    HS  155   5.362   4.925   7.269  0.8095  0.2392  1.4868
    2SAPS   O21  156   5.418   5.066   7.121  0.5956  0.1516  0.4425
    2SAPS   C21  157   5.464   4.966   7.040  0.1127 -0.2169 -0.1528
    2SAPS   O22  158   5.446   4.848   7.052 -0.4969 -0.2177  0.1373
    2SAPS   C22  159   5.551   5.037   6.931 -0.7278  0.3599 -0.2774
    2SAPS   H2R  160   5.557   5.145   6.956 -1.8786  0.0297  1.6329
    2SAPS   H2S  161   5.650   4.988   6.945 -0.7892  0.3042 -0.0148
    2SAPS    C3  162   5.184   5.018   7.180 -0.3427 -0.4202 -0.3010
    2SAPS    HX  163   5.149   5.121   7.161 -2.1691 -0.6180  1.5798
    2SAPS    HY  164   5.125   4.981   7.266  1.0910 -0.4626  0.7068
    2SAPS   O31  165   5.160   4.945   7.059 -0.2920  0.0279 -0.4623
    2SAPS   C31  166   5.112   4.824   7.067 -0.4477  0.1266 -0.1232
    2SAPS   O32  167   5.105   4.754   7.166 -0.7011  0.2331  0.8819
    2SAPS   C32  168   5.081   4.780   6.925  0.1110  0.1092  0.2093
    2SAPS   H2X  169   5.175   4.756   6.872 -0.9131 -0.0573 -1.6062
    2SAPS   H2Y  170   5.038   4.868   6.872  1.4873  0.4682 -0.3511
    2SAPS   C23  171   5.499   4.998   6.790  0.4187 -0.4081  0.4828
    2SAPS   H3R  172   5.500   4.888   6.774 -0.7494 -0.0889 -2.4482
    2SAPS   H3S  173   5.576   5.037   6.720 -0.7048 -0.1935 -0.6714
    2SAPS   C24  174   5.354   5.054   6.755 -0.0764  0.2186  0.0861
    2SAPS   H4R  175   5.289   5.039   6.844  0.7657 -0.9423  0.5301
    2SAPS   H4S  176   5.313   4.989   6.674 -1.4712 -1.2277  1.8543
    2SAPS   C25  177   5.361   5.197   6.719 -0.0507 -0.2982 -0.1590
    2SAPS   H5R  178   5.384   5.259   6.807 -3.1363 -2.6571  2.5273
    2SAPS   C26  179   5.358   5.248   6.595  0.5370  0.0828 -0.2471
    2SAPS   H6R  180   5.379   5.354   6.572  0.9363 -0.1955 -1.2656
    2SAPS   C27  181   5.322   5.184   6.470 -0.5193 -0.2860  0.4790
    2SAPS   H7R  182   5.274   5.255   6.399  2.8538  0.0177 -1.7339
    2SAPS   H7S  183   5.241   5.110   6.485 -0.8047  0.1597  1.2106
    2SAPS   C28  184   5.445   5.114   6.405  0.8679  0.3558 -0.2765
    2SAPS   H8R  185   5.505   5.053   6.474 -1.8703 -0.5190  1.4920
    2SAPS   C29  186   5.454   5.107   6.272 -0.3323 -0.2822  0.1847
    2SAPS   H9R  187   5.545   5.064   6.229  1.1749  1.4657  1.4442
    2SAPS  C210  188   5.363   5.162   6.163  0.3880 -0.2873 -0.4176
    2SAPS  H10R  189   5.425   5.177   6.072 -1.9964 -0.3616 -2.1670
    2SAPS  H10S  190   5.318   5.260   6.189  0.7823 -0.0481 -0.6304
    2SAPS  C211  191   5.252   5.071   6.117 -0.0923 -0.5710  0.2325
    2SAPS  H11R  192   5.202   5.020   6.200  0.0670 -0.4742  0.3893
    2SAPS  C212  193   5.207   5.057   5.994  0.2032 -0.2997 -0.0348
    2SAPS  H12R  194   5.123   4.986   5.988  0.2888 -0.6024  1.7130
    2SAPS  C213  195   5.258   5.135   5.876  0.6275  0.1715  0.6507
    2SAPS  H13R  196   5.320   5.219   5.913  1.1599  0.5865 -1.0883
    2SAPS  H13S  197   5.171   5.166   5.814  1.6097 -0.9569 -1.4009
    2SAPS  C214  198   5.340   5.042   5.802 -0.5706  0.7240  0.6768
    2SAPS  H14R  199   5.427   5.007   5.860 -0.5469 -1.0623 -0.3415
    2SAPS  C215  200   5.338   5.016   5.666 -0.0660 -0.0106  0.0251
    2SAPS  H15R  201   5.402   4.935   5.629  0.3779  0.8599 -1.1563
    2SAPS  C216  202   5.218   5.065   5.578  0.1815 -0.0694 -0.9748
    2SAPS  H16R  203   5.144   5.130   5.631  1.2853  0.7101 -0.3405
    2SAPS  H16S  204   5.159   4.983   5.532 -2.0640  0.6114  0.5210
    2SAPS  C217  205   5.267   5.161   5.467  0.4930  0.4555  0.2264
    2SAPS  H17R  206   5.320   5.104   5.388 -1.4164  1.2468 -1.7288
    2SAPS  H17S  207   5.324   5.243   5.517 -0.4738  1.8266 -0.8436
    2SAPS  C218  208   5.156   5.225   5.385  0.2990  0.5964 -0.3876
    2SAPS  H18R  209   5.084   5.259   5.463 -1.0048 -0.9645 -0.8495
    2SAPS  H18S  210   5.112   5.146   5.321  1.7010  0.4574 -1.2209
    2SAPS  C219  211   5.208   5.332   5.281  0.3905  0.3278 -0.0319
    2SAPS  H19R  212   5.250   5.418   5.338 -0.4376  0.2008  0.7904
    2SAPS  H19S  213   5.119   5.361   5.221  1.0291 -2.2718 -2.4530
    2SAPS  C220  214   5.305   5.276   5.173  0.5628  0.3510  0.3547
    2SAPS  H20R  215   5.327   5.358   5.101 -0.7116 -1.3308 -2.1251
    2SAPS  H20S  216   5.243   5.203   5.117 -0.1029  1.5533 -0.5246
    2SAPS  H20T  217   5.404   5.234   5.199  0.5440 -0.8571 -1.3508
    2SAPS   C33  218   4.980   4.664   6.923  0.8910  0.2196  0.1127
    2SAPS   H3X  219   4.882   4.692   6.967  0.6465 -1.5803  0.8102
    2SAPS   H3Y  220   5.018   4.582   6.988 -0.8577 -1.8202 -1.2807
    2SAPS   C34  221   4.968   4.611   6.779  0.2305 -0.0377 -0.8013
    2SAPS   H4X  222   4.907   4.519   6.788 -0.5979  0.4625 -1.1639
    2SAPS   H4Y  223   5.072   4.583   6.754  0.5251 -0.5911  0.8910
    2SAPS   C35  224   4.918   4.711   6.673 -0.6286 -0.8579  0.3369
    2SAPS   H5X  225   4.994   4.792   6.670 -1.8208  0.2953  0.2330
    2SAPS   H5Y  226   4.816   4.750   6.694 -0.9170 -0.1283 -2.0446
    2SAPS   C36  227   4.925   4.630   6.537  0.0167  0.0583  0.0163
    2SAPS   H6X  228   4.856   4.543   6.538 -0.0543  0.0966  2.0739
    2SAPS   H6Y  229   5.029   4.597   6.519  0.2402  0.9913 -0.4956
    2SAPS   C37  230   4.873   4.715   6.423 -0.1560 -0.5380 -0.3834
    2SAPS   H7X  231   4.942   4.802   6.422 -1.9062  1.0622  2.5817
    2SAPS   H7Y  232   4.769   4.748   6.445 -0.6171 -0.8665 -1.9288
    2SAPS   C38  233   4.859   4.644   6.283  0.6675  0.4010  0.3253
    2SAPS   H8X  234   4.794   4.554   6.281  0.3888  0.6061 -1.2325
    2SAPS   H8Y  235   4.958   4.613   6.245 -0.2878 -2.8250  0.1731
    2SAPS   C39  236   4.798   4.742   6.187 -0.0737  0.0188  0.1369
    2SAPS   H9X  237   4.830   4.847   6.205  2.2873 -0.5216 -0.5775
    2SAPS   H9Y  238   4.690   4.735   6.214  0.2834 -3.1713  1.1373
    2SAPS  C310  239   4.820   4.717   6.036 -0.5094  0.6259 -0.0783
    2SAPS  H10X  240   4.746   4.644   5.997 -2.4583  1.5310  1.7047
    2SAPS  H10Y  241   4.920   4.671   6.019 -1.2786 -2.3618  2.4991
    2SAPS  C311  242   4.811   4.842   5.954 -0.6231  0.8335 -0.0925
    2SAPS  H11X  243   4.884   4.921   5.979 -1.4432  1.8452 -0.8172
    2SAPS  H11Y  244   4.711   4.890   5.964  0.1361  2.1965  1.2009
    2SAPS  C312  245   4.839   4.807   5.808  0.1623 -0.3074  0.3809
    2SAPS  H12X  246   4.784   4.714   5.782  1.4944 -1.0205  0.0148
    2SAPS  H12Y  247   4.947   4.782   5.800  0.3410  0.5430  0.0491
    2SAPS  C313  248   4.812   4.923   5.706 -0.0055  0.6554 -0.6969
    2SAPS  H13X  249   4.870   5.014   5.729  0.2324  0.2330  0.4157
    2SAPS  H13Y  250   4.707   4.958   5.719 -0.3297  0.4010 -2.3876
    2SAPS  C314  251   4.844   4.872   5.562  0.5282  0.2924 -0.6337
    2SAPS  H14X  252   4.772   4.788   5.551  0.1517  0.4640  0.3837
    2SAPS  H14Y  253   4.938   4.814   5.550 -1.1013 -3.0492  1.1537
    2SAPS  C315  254   4.819   4.977   5.447  0.1338 -0.9057 -0.1273
    2SAPS  H15X  255   4.897   5.052   5.469  0.5761 -1.1813 -0.7006
    2SAPS  H15Y  256   4.716   5.018   5.454  0.4572  0.0454 -0.7475
    2SAPS  C316  257   4.850   4.917   5.316  0.1581  0.1203  0.4593
    2SAPS  H16X  258   4.938   4.849   5.322  0.3037  0.3034  0.4365
    2SAPS  H16Y  259   4.881   4.998   5.246  0.4486 -0.1258  0.2985
    2SAPS  C317  260   4.734   4.846   5.248 -0.4959  0.3315  0.0947
    2SAPS  H17X  261   4.682   4.791   5.330 -2.0135  1.5631  0.0019
    2SAPS  H17Y  262   4.773   4.771   5.176  1.0802  3.0373 -2.0666
    2SAPS  C318  263   4.636   4.947   5.177 -0.8957 -0.4589 -0.1157
    2SAPS  H18X  264   4.688   4.995   5.092  0.4464 -2.0154 -0.2116
    2SAPS  H18Y  265   4.608   5.031   5.244 -1.5974  0.3908 -1.4427
    2SAPS  H18Z  266   4.547   4.893   5.138 -0.1165 -1.6450 -0.3118
    3SAPS     N  267   5.238   3.177   7.385 -0.0783 -0.3178 -0.7817
    3SAPS   HN1  268   5.323   3.117   7.388 -0.7929 -1.4252 -1.7559
    3SAPS   HN2  269   5.219   3.224   7.476  1.8040  0.4266 -0.7291
    3SAPS   HN3  270   5.156   3.126   7.347  0.4518 -0.3526 -1.9099
    3SAPS   C12  271   5.284   3.293   7.295  0.1669 -0.2272 -0.4479
    3SAPS  H12A  272   5.190   3.335   7.263 -0.2184 -1.2875 -0.7461
    3SAPS   C13  273   5.362   3.399   7.382 -0.0228  1.4088 -0.7685
    3SAPS  O13A  274   5.349   3.390   7.506  0.4638 -0.0628 -0.6248
    3SAPS  O13B  275   5.413   3.496   7.323 -0.2818  0.2308 -0.1843
    3SAPS   C11  276   5.373   3.245   7.173  0.0581 -0.7066 -0.2301
    3SAPS  H11A  277   5.463   3.207   7.227 -0.5570 -1.2326  0.4360
    3SAPS  H11B  278   5.407   3.322   7.100 -1.2424 -1.2866 -1.5060
    3SAPS     P  279   5.229   3.150   6.970 -0.1086 -0.4512  0.2132
    3SAPS   O13  280   5.128   3.046   6.950  0.0425  0.6740  0.4572
    3SAPS   O14  281   5.178   3.289   6.954 -0.2124  0.4913  0.4138
    3SAPS   O12  282   5.300   3.137   7.108 -0.3768 -0.4241 -0.6581
    3SAPS   O11  283   5.358   3.136   6.875  0.4996  0.1464 -0.3415
    3SAPS    C1  284   5.346   3.084   6.741  0.2550 -0.5408  0.5903
    3SAPS    HA  285   5.267   3.006   6.733 -0.0870 -0.0593 -1.2267
    3SAPS    HB  286   5.316   3.170   6.677  1.7099  0.2189  0.8916
    3SAPS    C2  287   5.478   3.017   6.693  0.0930  0.3528 -0.5788
    3SAPS    HS  288   5.563   3.089   6.692  3.1784 -2.8036  3.1119
    3SAPS   O21  289   5.461   2.960   6.561  0.3458  0.1387 -0.1534
    3SAPS   C21  290   5.448   3.061   6.462 -0.3618 -0.0298 -0.3550
    3SAPS   O22  291   5.467   3.177   6.482  0.3877 -0.0507 -0.3301
    3SAPS   C22  292   5.426   3.002   6.326  0.4843 -0.1207 -0.0478
    3SAPS   H2R  293   5.499   2.924   6.294 -0.2256 -0.5199 -0.7045
    3SAPS   H2S  294   5.329   2.949   6.319  1.4690 -1.8237 -1.5109
    3SAPS    C3  295   5.504   2.897   6.784  0.6804  0.3083 -0.0921
    3SAPS    HX  296   5.414   2.832   6.780 -0.4655  1.7397  1.0870
    3SAPS    HY  297   5.514   2.928   6.891  0.7025 -1.6947  0.5248
    3SAPS   O31  298   5.617   2.819   6.749  0.2517 -0.4130  0.1493
    3SAPS   C31  299   5.735   2.867   6.778 -0.3185  0.7689  0.0024
    3SAPS   O32  300   5.763   2.971   6.841  0.4255 -0.5028 -0.2623
    3SAPS   C32  301   5.853   2.782   6.720  0.4019  0.2963  0.6536
    3SAPS   H2X  302   5.864   2.693   6.786  1.5115 -0.0784 -0.0173
    3SAPS   H2Y  303   5.942   2.848   6.729  0.7765 -0.2707  1.1605
    3SAPS   C23  304   5.430   3.119   6.227 -0.2215  0.0730 -0.4016
    3SAPS   H3R  305   5.528   3.169   6.215 -1.3555  2.0858 -2.2763
    3SAPS   H3S  306   5.356   3.195   6.262 -0.7154 -1.5615  2.3476
    3SAPS   C24  307   5.367   3.070   6.092 -0.7315 -0.2512 -0.7217
    3SAPS   H4R  308   5.336   3.161   6.037  2.2702  0.5373 -1.3042
    3SAPS   H4S  309   5.274   3.015   6.116 -0.4224 -0.4846 -0.0042
    3SAPS   C25  310   5.471   2.987   6.020 -0.0957 -0.6027  0.1529
    3SAPS   H5R  311   5.523   2.919   6.090  0.4415 -0.5450 -0.1802
    3SAPS   C26  312   5.504   2.982   5.890 -0.5312  0.0887  0.2057
    3SAPS   H6R  313   5.579   2.914   5.848  0.6525  0.7049  1.2497
    3SAPS   C27  314   5.432   3.055   5.777  0.3024 -0.3297 -0.7828
    3SAPS   H7R  315   5.491   3.132   5.722 -0.0742  1.2658  0.9343
    3SAPS   H7S  316   5.353   3.125   5.813  0.0352 -0.4241 -1.1807
    3SAPS   C28  317   5.376   2.954   5.685  0.4244 -0.2396  0.6725
    3SAPS   H8R  318   5.323   2.867   5.727  0.6612 -0.7676 -0.1002
    3SAPS   C29  319   5.382   2.953   5.551 -0.5422  0.1454 -0.2274
    3SAPS   H9R  320   5.326   2.870   5.507  1.6379 -1.8709  0.5735
    3SAPS  C210  321   5.440   3.051   5.454 -0.6753  0.0310 -0.9390
    3SAPS  H10R  322   5.529   3.006   5.407  1.4562  2.1181  0.8211
    3SAPS  H10S  323   5.483   3.140   5.506  1.9759 -0.1108 -2.7243
    3SAPS  C211  324   5.344   3.120   5.360 -0.2023 -0.6185 -0.2461
    3SAPS  H11R  325   5.278   3.189   5.415  0.2607 -1.3058  1.2016
    3SAPS  C212  326   5.346   3.129   5.218 -0.3863 -0.5102  0.1440
    3SAPS  H12R  327   5.262   3.183   5.173  0.4689  0.0396 -0.8500
    3SAPS  C213  328   5.428   3.043   5.126  1.0284 -0.5086 -0.0387
    3SAPS  H13R  329   5.395   2.940   5.155 -0.1893 -0.5606 -1.4579
    3SAPS  H13S  330   5.536   3.040   5.153  1.2714 -0.5295 -0.9892
    3SAPS  C214  331   5.418   3.052   4.974 -0.3097 -0.3910  0.4544
    3SAPS  H14R  332   5.409   3.155   4.937 -2.0261 -0.3849  0.7856
    3SAPS  C215  333   5.476   2.957   4.895  0.1094  1.0617 -0.3015
    3SAPS  H15R  334   5.481   2.957   4.785 -0.4054  0.3802 -0.3337
    3SAPS  C216  335   5.515   2.825   4.956 -0.3206 -0.2876  0.3252
    3SAPS  H16R  336   5.435   2.776   5.015 -0.7921 -2.7098 -2.1224
    3SAPS  H16S  337   5.602   2.841   5.024 -0.2004 -0.4689  0.2173
    3SAPS  C217  338   5.549   2.716   4.849 -0.7178 -0.5812 -0.1739
    3SAPS  H17R  339   5.593   2.624   4.894  3.1860  0.9258 -0.5477
    3SAPS  H17S  340   5.628   2.755   4.782  1.5461 -0.1009  2.5670
    3SAPS  C218  341   5.428   2.677   4.760 -0.2140 -0.1713 -0.0898
    3SAPS  H18R  342   5.469   2.618   4.675  1.1595 -1.8595  1.6363
    3SAPS  H18S  343   5.389   2.764   4.704  3.4807  1.1658 -0.9180
    3SAPS  C219  344   5.305   2.607   4.828 -0.1495 -0.3910 -0.8810
    3SAPS  H19R  345   5.333   2.517   4.887 -1.0792  0.5951  1.1800
    3SAPS  H19S  346   5.266   2.683   4.900  0.3664  0.5974 -1.6126
    3SAPS  C220  347   5.192   2.567   4.731 -0.2388  0.1417 -0.3356
    3SAPS  H20R  348   5.116   2.647   4.745  0.3345  0.7467 -0.6156
    3SAPS  H20S  349   5.145   2.470   4.756 -0.1852 -0.3919 -2.2231
    3SAPS  H20T  350   5.231   2.575   4.628  0.7008  2.5246  0.1286
    3SAPS   C33  351   5.832   2.732   6.575  0.5054 -0.7728 -0.2074
    3SAPS   H3X  352   5.750   2.659   6.590  1.1027 -2.1753 -3.0292
    3SAPS   H3Y  353   5.923   2.678   6.541  0.4807 -0.7087 -0.3811
    3SAPS   C34  354   5.810   2.837   6.465 -0.3448 -0.1299  0.2018
    3SAPS   H4X  355   5.889   2.914   6.476 -0.6617 -0.0365  2.1569
    3SAPS   H4Y  356   5.712   2.889   6.481 -0.3742 -0.3454  0.7456
    3SAPS   C35  357   5.805   2.768   6.326 -0.8870  0.0828 -0.0054
    3SAPS   H5X  358   5.899   2.710   6.334 -0.2402  1.1643  0.5727
    3SAPS   H5Y  359   5.727   2.692   6.309  0.1317 -1.2191  0.9279
    3SAPS   C36  360   5.822   2.851   6.197 -0.3916  0.1303  0.4164
    3SAPS   H6X  361   5.905   2.924   6.207 -1.2994  1.3662 -0.7616
    3SAPS   H6Y  362   5.732   2.915   6.187  0.6855  1.5840 -0.4154
    3SAPS   C37  363   5.851   2.764   6.078  0.2380 -0.1971 -0.1668
    3SAPS   H7X  364   5.775   2.686   6.056 -0.7834  0.5510  0.6350
    3SAPS   H7Y  365   5.946   2.707   6.090 -0.3365 -1.5440 -1.6643
    3SAPS   C38  366   5.870   2.846   5.953  0.2940 -0.0244  0.1865
    3SAPS   H8X  367   5.957   2.914   5.965  0.9342 -0.3020 -2.2276
    3SAPS   H8Y  368   5.772   2.897   5.936  0.1329 -0.8449 -1.6921
    3SAPS   C39  369   5.898   2.756   5.825  0.6775 -0.5753  0.7095
    3SAPS   H9X  370   5.842   2.661   5.813  0.8838 -0.8775  2.0327
    3SAPS   H9Y  371   6.007   2.742   5.838  0.4565  0.3945  5.6274
    3SAPS  C310  372   5.862   2.836   5.691  0.3207 -0.0564  0.0754
    3SAPS  H10X  373   5.940   2.915   5.680  2.2968 -1.8536  0.4091
    3SAPS  H10Y  374   5.768   2.893   5.704  0.1376 -0.1051 -0.9178
    3SAPS  C311  375   5.863   2.759   5.564 -0.1720  0.6196  0.1565
    3SAPS  H11X  376   5.797   2.672   5.586 -1.9126  1.7223 -0.5068
    3SAPS  H11Y  377   5.967   2.727   5.542  0.2955  1.1256  1.5000
    3SAPS  C312  378   5.809   2.838   5.444 -0.2064  0.2853  0.1160
    3SAPS  H12X  379   5.889   2.908   5.410  0.7077 -0.9994 -0.4470
    3SAPS  H12Y  380   5.710   2.882   5.469 -1.6137 -3.7702  2.7199
    3SAPS  C313  381   5.774   2.739   5.331  0.1271  0.0148 -0.0105
    3SAPS  H13X  382   5.714   2.787   5.250  0.1329  0.7897  0.4298
    3SAPS  H13Y  383   5.724   2.656   5.384 -1.4623 -1.2407 -3.2587
    3SAPS  C314  384   5.900   2.674   5.271 -0.0120 -0.3587  0.0875
    3SAPS  H14X  385   5.956   2.629   5.356  0.1849  0.1319  0.2212
    3SAPS  H14Y  386   5.974   2.750   5.238  0.1450 -0.2994  0.5750
    3SAPS  C315  387   5.879   2.578   5.150  0.2647 -0.5994  0.2885
    3SAPS  H15X  388   5.818   2.622   5.069 -0.5309  0.6794  1.5365
    3SAPS  H15Y  389   5.822   2.490   5.186 -3.6255  1.1269 -1.0902
    3SAPS  C316  390   6.015   2.544   5.080 -0.0603  0.6049  0.8113
    3SAPS  H16X  391   6.087   2.497   5.149 -0.1810 -1.1807 -0.2278
    3SAPS  H16Y  392   6.057   2.642   5.050 -2.1917  1.9459  1.8961
    3SAPS  C317  393   6.000   2.439   4.973 -0.1040 -0.5815 -0.1406
    3SAPS  H17X  394   5.936   2.484   4.895  1.7012  0.9501 -0.8101
    3SAPS  H17Y  395   5.961   2.350   5.027  0.1864  0.2514  1.4932
    3SAPS  C318  396   6.138   2.397   4.916 -0.0698  0.6425  0.6493
    3SAPS  H18X  397   6.174   2.493   4.873 -3.2513  1.9201  0.5701
    3SAPS  H18Y  398   6.123   2.318   4.840  0.7071 -1.0093  2.1295
    3SAPS  H18Z  399   6.206   2.360   4.996 -0.6325 -0.4558  0.6326
    4SAPS     N  400   4.070   3.582   7.712  0.5119  0.0074  0.5938
    4SAPS   HN1  401   4.057   3.605   7.813  1.8850  0.1343  0.7509
    4SAPS   HN2  402   3.976   3.561   7.673 -0.0816  0.5658  1.6623
    4SAPS   HN3  403   4.140   3.509   7.688  0.6457  0.3071  0.0614
    4SAPS   C12  404   4.126   3.704   7.645  0.7370  0.3848 -0.4886
    4SAPS  H12A  405   4.044   3.774   7.654 -1.7372 -2.0016 -2.6035
    4SAPS   C13  406   4.251   3.751   7.720 -0.1664 -0.4587 -0.3839
    4SAPS  O13A  407   4.302   3.679   7.807 -0.4669 -0.0646 -0.4707
    4SAPS  O13B  408   4.312   3.852   7.678 -0.1101  0.0175 -0.1710
    4SAPS   C11  409   4.153   3.683   7.491  0.2319  0.2273  0.6601
    4SAPS  H11A  410   4.228   3.602   7.475 -0.1324  0.3620 -2.2607
    4SAPS  H11B  411   4.191   3.778   7.446  1.3689 -1.9954 -3.7136
    4SAPS     P  412   3.983   3.742   7.308 -0.0350  0.2097 -0.1738
    4SAPS   O13  413   3.865   3.670   7.245 -0.5518  0.1764 -0.4234
    4SAPS   O14  414   3.961   3.878   7.359  0.0032  0.0225 -0.0700
    4SAPS   O12  415   4.040   3.643   7.415 -0.0884  0.4974  0.4824
    4SAPS   O11  416   4.095   3.759   7.200 -0.0009  0.7742 -0.1449
    4SAPS    C1  417   4.094   3.868   7.105 -0.4921 -0.4445 -0.3018
    4SAPS    HA  418   4.101   3.964   7.162  0.4467  0.4713 -1.8815
    4SAPS    HB  419   4.173   3.868   7.028 -1.1901 -0.2419 -1.0337
    4SAPS    C2  420   3.965   3.896   7.022 -0.3910 -0.1175  0.2312
    4SAPS    HS  421   3.879   3.905   7.090 -1.1149  2.2804 -0.8856
    4SAPS   O21  422   3.947   3.789   6.939  0.6494  0.4924 -0.0385
    4SAPS   C21  423   3.821   3.768   6.899 -0.6815  0.6177  0.0291
    4SAPS   O22  424   3.724   3.831   6.937 -0.9860  0.3236  0.5591
    4SAPS   C22  425   3.818   3.657   6.799 -0.2534 -0.0531  0.1329
    4SAPS   H2R  426   3.859   3.696   6.704 -3.5745 -0.9824 -1.8647
    4SAPS   H2S  427   3.867   3.568   6.845  0.1265 -1.0264 -2.0316
    4SAPS    C3  428   3.973   4.020   6.930  0.5965  0.4532  0.1246
    4SAPS    HX  429   3.980   4.106   7.000  1.2593  3.3876 -3.2516
    4SAPS    HY  430   3.883   4.029   6.865 -0.4841 -2.9074  0.9855
    4SAPS   O31  431   4.099   4.032   6.860  0.2057 -0.4216 -0.5567
    4SAPS   C31  432   4.080   4.023   6.724  0.1812 -0.6179 -0.0504
    4SAPS   O32  433   3.978   3.991   6.665  0.0996  0.4279  0.4432
    4SAPS   C32  434   4.214   4.052   6.655  0.1262 -0.1234  0.0601
    4SAPS   H2X  435   4.292   4.023   6.729  0.0886  0.3158  0.2707
    4SAPS   H2Y  436   4.221   4.161   6.636 -1.7222  0.0284  0.0917
    4SAPS   C23  437   3.675   3.617   6.740  0.0644 -0.3185 -0.1637
    4SAPS   H3R  438   3.632   3.705   6.688  0.5453 -0.8241 -1.4787
    4SAPS   H3S  439   3.612   3.587   6.826  0.4041 -0.1766  0.1344
    4SAPS   C24  440   3.687   3.499   6.646  0.8287 -0.8293 -0.5523
    4SAPS   H4R  441   3.586   3.458   6.623  0.5426  0.2765 -1.3423
    4SAPS   H4S  442   3.739   3.418   6.703  0.6877 -1.5784 -1.4562
    4SAPS   C25  443   3.760   3.525   6.516  0.3560 -0.1848  0.0713
    4SAPS   H5R  444   3.769   3.627   6.474 -2.0976  0.5381  1.0965
    4SAPS   C26  445   3.806   3.424   6.434  0.2077  0.0921 -0.3056
    4SAPS   H6R  446   3.864   3.451   6.344  3.2207  0.8916  1.7214
    4SAPS   C27  447   3.800   3.273   6.453 -0.5765  0.2263  0.4150
    4SAPS   H7R  448   3.707   3.240   6.505 -0.5525 -0.7446 -0.1469
    4SAPS   H7S  449   3.879   3.242   6.525 -0.7776 -2.2183 -0.3237
    4SAPS   C28  450   3.814   3.194   6.327 -0.3313 -0.1917  0.4098
    4SAPS   H8R  451   3.919   3.190   6.292 -1.0988 -0.6981 -1.9840
    4SAPS   C29  452   3.728   3.116   6.253 -0.6765 -0.0992 -0.7705
    4SAPS   H9R  453   3.777   3.066   6.168  0.0405 -2.6293  1.0056
    4SAPS  C210  454   3.578   3.095   6.278 -0.0648 -0.7425  0.5941
    4SAPS  H10R  455   3.522   3.105   6.183 -1.5354  1.3238  1.5893
    4SAPS  H10S  456   3.538   3.176   6.344 -0.3799 -0.6512  0.2914
    4SAPS  C211  457   3.552   2.963   6.351  0.1393  0.2369  1.0235
    4SAPS  H11R  458   3.609   2.958   6.444  0.7009  1.3453  0.7460
    4SAPS  C212  459   3.492   2.857   6.300 -0.3418  0.1602 -0.3522
    4SAPS  H12R  460   3.481   2.761   6.353 -1.0644 -0.6072 -1.8120
    4SAPS  C213  461   3.427   2.847   6.159 -0.4478  0.9066 -0.7078
    4SAPS  H13R  462   3.440   2.744   6.121 -1.2150  0.1583  0.9609
    4SAPS  H13S  463   3.474   2.921   6.091  1.6759  1.1930  0.9600
    4SAPS  C214  464   3.269   2.852   6.160 -0.1081 -0.8274 -0.3872
    4SAPS  H14R  465   3.215   2.857   6.256  1.6319  0.0111  0.6074
    4SAPS  C215  466   3.209   2.885   6.043 -0.2148  0.0099  0.4467
    4SAPS  H15R  467   3.100   2.899   6.055 -0.1718  1.8155 -0.7628
    4SAPS  C216  468   3.265   2.902   5.899  0.4522  0.6928  0.1101
    4SAPS  H16R  469   3.200   2.857   5.821  1.5115 -0.0296 -0.3729
    4SAPS  H16S  470   3.363   2.851   5.899 -0.1062 -0.5172  2.3212
    4SAPS  C217  471   3.294   3.047   5.864 -0.0606 -0.4213  0.5258
    4SAPS  H17R  472   3.320   3.116   5.947 -0.2590  1.1407 -0.6687
    4SAPS  H17S  473   3.200   3.098   5.831  0.8779  0.5859 -0.6735
    4SAPS  C218  474   3.400   3.063   5.755 -0.1510 -0.1481  0.6756
    4SAPS  H18R  475   3.479   3.000   5.802 -0.0952 -1.2919 -0.8559
    4SAPS  H18S  476   3.422   3.172   5.747 -0.4380 -0.1805 -0.9383
    4SAPS  C219  477   3.367   3.011   5.613  0.5717  0.2526 -0.6079
    4SAPS  H19R  478   3.269   3.055   5.586  0.4488 -1.0955 -2.5887
    4SAPS  H19S  479   3.355   2.900   5.619  2.1198 -0.0363 -2.0028
    4SAPS  C220  480   3.465   3.046   5.508  0.0889 -1.4822  0.2116
    4SAPS  H20R  481   3.492   3.153   5.517 -0.1294 -1.5763  2.7446
    4SAPS  H20S  482   3.439   3.027   5.402 -0.5173 -0.5149  0.1746
    4SAPS  H20T  483   3.561   2.990   5.519  0.7249 -0.2557  1.0871
    4SAPS   C33  484   4.250   3.976   6.523  0.4627  0.3943  0.0403
    4SAPS   H3X  485   4.206   3.874   6.528 -0.2538  0.6796 -0.1851
    4SAPS   H3Y  486   4.357   3.955   6.506 -0.1137 -1.8925 -1.2955
    4SAPS   C34  487   4.205   4.057   6.398 -0.3939 -0.4509  0.5526
    4SAPS   H4X  488   4.230   4.164   6.414 -1.9078  0.2450 -1.3435
    4SAPS   H4Y  489   4.095   4.044   6.394 -0.6308  1.5125 -0.2384
    4SAPS   C35  490   4.265   3.986   6.272 -0.3437 -0.1793 -0.1182
    4SAPS   H5X  491   4.211   3.891   6.252 -0.3123  0.0715 -1.4973
    4SAPS   H5Y  492   4.374   3.976   6.287 -0.4451  0.4343  1.1530
    4SAPS   C36  493   4.249   4.063   6.141 -0.2885 -0.8381 -0.4577
    4SAPS   H6X  494   4.286   4.164   6.170  0.7023 -1.6408  1.2161
    4SAPS   H6Y  495   4.147   4.090   6.106  0.4678  1.8943 -0.8006
    4SAPS   C37  496   4.328   4.003   6.031 -0.1037 -0.1772  0.7608
    4SAPS   H7X  497   4.261   3.927   5.986 -1.8966  0.0065  2.9392
    4SAPS   H7Y  498   4.428   3.959   6.051 -0.4745 -1.1249  0.5486
    4SAPS   C38  499   4.361   4.108   5.916 -0.9518 -0.0251  0.1493
    4SAPS   H8X  500   4.435   4.183   5.950  0.5391 -1.7541  0.8074
    4SAPS   H8Y  501   4.264   4.160   5.899 -1.2172  0.2479  2.2722
    4SAPS   C39  502   4.423   4.048   5.793 -0.2878  0.3662 -0.1175
    4SAPS   H9X  503   4.358   3.964   5.761  0.6553 -0.7102  0.6993
    4SAPS   H9Y  504   4.513   3.990   5.819 -0.5674 -0.8881 -1.7964
    4SAPS  C310  505   4.445   4.150   5.681  0.1821 -0.5150 -0.2615
    4SAPS  H10X  506   4.518   4.220   5.727  0.6398 -1.3428  0.3076
    4SAPS  H10Y  507   4.349   4.204   5.665  1.6892  2.3835 -0.2044
    4SAPS  C311  508   4.494   4.087   5.555  0.2713  0.9569 -0.1271
    4SAPS  H11X  509   4.583   4.022   5.573  1.4719  2.8722  1.2290
    4SAPS  H11Y  510   4.524   4.167   5.484  0.5830  1.5591  0.6809
    4SAPS  C312  511   4.383   3.993   5.491 -0.2801  0.3075 -0.2996
    4SAPS  H12X  512   4.280   4.030   5.514 -1.1001 -2.2486  0.4568
    4SAPS  H12Y  513   4.391   3.898   5.547 -0.8190  0.9012  0.8334
    4SAPS  C313  514   4.410   3.980   5.344 -0.0484 -0.5509 -0.1391
    4SAPS  H13X  515   4.517   3.955   5.324  0.7458  1.9982  0.4419
    4SAPS  H13Y  516   4.387   4.080   5.300 -0.1640 -0.9067 -0.8962
    4SAPS  C314  517   4.314   3.879   5.279 -0.0250 -0.6311  0.5145
    4SAPS  H14X  518   4.212   3.918   5.297  0.1790 -0.2892  0.9245
    4SAPS  H14Y  519   4.324   3.778   5.325  1.9186 -0.7592 -0.0865
    4SAPS  C315  520   4.334   3.876   5.127  0.0786 -0.3711  0.0159
    4SAPS  H15X  521   4.442   3.877   5.101 -0.1850 -1.3276 -1.2050
    4SAPS  H15Y  522   4.290   3.970   5.089  1.0727  1.3658  2.8264
    4SAPS  C316  523   4.268   3.756   5.051 -0.5387  0.1962  0.5373
    4SAPS  H16X  524   4.335   3.668   5.063 -1.3384 -0.4121  0.6153
    4SAPS  H16Y  525   4.287   3.775   4.943 -0.2554 -2.1155  0.1406
    4SAPS  C317  526   4.126   3.719   5.069  0.1130  0.0443  0.2072
    4SAPS  H17X  527   4.067   3.813   5.066  1.5781  1.0108  0.8778
    4SAPS  H17Y  528   4.122   3.672   5.170 -2.3169 -1.4614 -0.4885
    4SAPS  C318  529   4.073   3.612   4.974  0.5995  0.4444 -0.0836
    4SAPS  H18X  530   4.148   3.531   4.963  0.7104  0.6484 -0.8675
    4SAPS  H18Y  531   4.044   3.649   4.874 -0.7278  0.2199  0.1981
    4SAPS  H18Z  532   3.979   3.564   5.010  1.0331 -1.4304 -1.3206
    5SAPS     N  533   6.251   3.788   7.128  0.0905  0.4062 -0.4455
    5SAPS   HN1  534   6.158   3.831   7.140  0.4654  0.6863  1.8945
    5SAPS   HN2  535   6.307   3.822   7.047  0.5667 -0.9001 -0.6991
    5SAPS   HN3  536   6.235   3.685   7.117 -1.4147  0.3506  1.7764
    5SAPS   C12  537   6.318   3.813   7.261  0.0932  0.3412 -0.1941
    5SAPS  H12A  538   6.311   3.920   7.279 -0.8057 -0.2239  3.5210
    5SAPS   C13  539   6.267   3.737   7.389  0.2379 -0.1222  0.3735
    5SAPS  O13A  540   6.164   3.665   7.368 -0.1171 -0.8783  0.2407
    5SAPS  O13B  541   6.313   3.773   7.499  0.2208  0.3414  0.2881
    5SAPS   C11  542   6.469   3.773   7.240  0.4456 -0.9222  0.2362
    5SAPS  H11A  543   6.461   3.669   7.202 -0.0929 -0.5602 -0.6836
    5SAPS  H11B  544   6.528   3.768   7.334  1.2954 -0.0807 -0.2322
    5SAPS     P  545   6.659   3.949   7.177  0.2876  0.0924  0.0366
    5SAPS   O13  546   6.692   3.933   7.315 -0.0957  0.0711 -0.5600
    5SAPS   O14  547   6.758   3.908   7.072 -0.2917 -0.4936  0.1962
    5SAPS   O12  548   6.526   3.865   7.147 -0.9424 -0.3939  0.0226
    5SAPS   O11  549   6.610   4.089   7.152  0.0135 -0.5849  0.6469
    5SAPS    C1  550   6.480   4.113   7.102  0.2868 -0.2688  0.4590
    5SAPS    HA  551   6.398   4.064   7.157  0.3207  0.1623  0.9068
    5SAPS    HB  552   6.459   4.222   7.117 -2.4273 -0.8377  1.3107
    5SAPS    C2  553   6.462   4.075   6.951 -0.4144  0.2768 -0.0517
    5SAPS    HS  554   6.494   3.970   6.935  0.4606  0.4713  0.4015
    5SAPS   O21  555   6.553   4.154   6.878 -0.5131 -0.1634 -0.2918
    5SAPS   C21  556   6.642   4.087   6.799 -0.4659  0.2192 -0.1915
    5SAPS   O22  557   6.653   3.966   6.785 -0.0895 -0.1268 -0.2246
    5SAPS   C22  558   6.731   4.189   6.728  0.0441  0.4028 -0.4338
    5SAPS   H2R  559   6.665   4.265   6.682 -3.0947 -2.8218 -1.7760
    5SAPS   H2S  560   6.781   4.251   6.805 -2.0898  0.9955  0.5567
    5SAPS    C3  561   6.318   4.103   6.901 -0.0534 -0.5716  0.7341
    5SAPS    HX  562   6.314   4.214   6.901  2.0001 -0.4210  2.5950
    5SAPS    HY  563   6.241   4.080   6.978  0.0072  0.1760  1.0308
    5SAPS   O31  564   6.292   4.049   6.769 -0.1528  0.1354  0.3641
    5SAPS   C31  565   6.278   3.916   6.768  0.3778  0.2115  0.6296
    5SAPS   O32  566   6.255   3.847   6.864 -0.0980 -0.6695  0.0330
    5SAPS   C32  567   6.279   3.863   6.622 -0.5152 -0.7688 -0.9498
    5SAPS   H2X  568   6.196   3.915   6.569 -1.0897  0.1258  0.7415
    5SAPS   H2Y  569   6.248   3.759   6.645 -0.2278 -0.2870  2.1103
    5SAPS   C23  570   6.825   4.122   6.624 -0.5011 -0.4223  0.4327
    5SAPS   H3R  571   6.870   4.025   6.653 -1.0873 -0.1230  2.5555
    5SAPS   H3S  572   6.902   4.198   6.602 -1.0901 -0.4112 -1.8188
    5SAPS   C24  573   6.749   4.095   6.490 -0.1663  0.1337  0.1648
    5SAPS   H4R  574   6.661   4.026   6.497  0.8208 -1.1421  0.4756
    5SAPS   H4S  575   6.819   4.049   6.417  0.1598  0.2384  0.4085
    5SAPS   C25  576   6.698   4.223   6.428 -0.4012  0.4651  0.0532
    5SAPS   H5R  577   6.704   4.318   6.483 -2.7530  0.6681  0.0777
    5SAPS   C26  578   6.660   4.242   6.303  0.7923  0.7154 -0.4651
    5SAPS   H6R  579   6.630   4.343   6.272 -0.0312 -0.2216 -3.0310
    5SAPS   C27  580   6.644   4.146   6.187  0.5724  0.0747 -0.5098
    5SAPS   H7R  581   6.546   4.168   6.140  1.5581  0.4749 -2.4718
    5SAPS   H7S  582   6.635   4.043   6.228 -2.3907  0.1061 -0.8633
    5SAPS   C28  583   6.756   4.157   6.082  0.2148 -0.8034 -0.1534
    5SAPS   H8R  584   6.846   4.210   6.118 -0.2320 -0.6358  0.7523
    5SAPS   C29  585   6.750   4.127   5.953 -0.5235  0.5512  0.1385
    5SAPS   H9R  586   6.829   4.159   5.883 -2.1559  3.2145 -0.6138
    5SAPS  C210  587   6.626   4.063   5.897  0.2421 -0.7282  0.0683
    5SAPS  H10R  588   6.537   4.045   5.960 -1.3523  3.2864 -0.7282
    5SAPS  H10S  589   6.651   3.963   5.854 -3.1039 -1.1736 -1.1736
    5SAPS  C211  590   6.574   4.131   5.772 -0.8603  0.1666 -0.1977
    5SAPS  H11R  591   6.552   4.237   5.794 -0.5826 -0.3363  3.0805
    5SAPS  C212  592   6.529   4.068   5.663  0.4410 -0.2660 -0.3572
    5SAPS  H12R  593   6.511   4.135   5.578  1.1247  2.7797  1.7577
    5SAPS  C213  594   6.530   3.915   5.643  1.0609  0.1365 -0.4473
    5SAPS  H13R  595   6.481   3.865   5.729 -0.2338 -1.1352 -1.8632
    5SAPS  H13S  596   6.634   3.875   5.633  1.5356  1.4428 -0.9855
    5SAPS  C214  597   6.437   3.885   5.523 -0.0317 -0.2623  0.0131
    5SAPS  H14R  598   6.351   3.953   5.519  0.3009  0.2403  0.9368
    5SAPS  C215  599   6.471   3.806   5.410 -0.3210 -0.0269 -0.0366
    5SAPS  H15R  600   6.399   3.797   5.327  0.0207 -0.7642 -0.2652
    5SAPS  C216  601   6.601   3.722   5.391  0.4543  0.1144 -0.2623
    5SAPS  H16R  602   6.586   3.612   5.381  1.8080  0.0318 -1.9082
    5SAPS  H16S  603   6.657   3.730   5.486 -0.4346  2.8381  0.0983
    5SAPS  C217  604   6.694   3.765   5.271  0.2892 -0.0405 -0.0468
    5SAPS  H17R  605   6.777   3.692   5.281 -0.1788 -0.4518  0.9774
    5SAPS  H17S  606   6.729   3.865   5.306  0.2684 -0.2295  0.5205
    5SAPS  C218  607   6.624   3.752   5.137 -0.4349  1.0672  0.5960
    5SAPS  H18R  608   6.574   3.849   5.111 -3.6139 -0.6937 -0.4679
    5SAPS  H18S  609   6.548   3.671   5.143  1.6629 -0.8875  2.6561
    5SAPS  C219  610   6.718   3.738   5.011 -0.5878  0.0746 -0.1581
    5SAPS  H19R  611   6.774   3.641   5.019  0.6692  0.8762  1.6470
    5SAPS  H19S  612   6.794   3.819   5.018 -0.0201 -0.5479  1.5169
    5SAPS  C220  613   6.636   3.737   4.889 -0.4156  0.1956  0.2249
    5SAPS  H20R  614   6.574   3.645   4.883  1.3194 -0.9610 -2.2562
    5SAPS  H20S  615   6.703   3.735   4.800  0.1040 -1.2591  0.6241
    5SAPS  H20T  616   6.561   3.819   4.883 -1.4766 -0.6583  1.3644
    5SAPS   C33  617   6.419   3.891   6.553  0.1114 -0.3058 -0.3283
    5SAPS   H3X  618   6.500   3.838   6.606 -0.6651 -2.8067 -1.4918
    5SAPS   H3Y  619   6.429   4.001   6.563 -0.5487 -0.2574 -0.1045
    5SAPS   C34  620   6.409   3.849   6.407 -0.5149 -0.1256  0.2266
    5SAPS   H4X  621   6.376   3.743   6.408  1.3967 -0.7695  1.1725
    5SAPS   H4Y  622   6.517   3.851   6.378 -0.1754 -0.5015  1.4017
    5SAPS   C35  623   6.323   3.941   6.309  0.7270  0.1010 -0.1568
    5SAPS   H5X  624   6.379   4.036   6.297  1.3183 -0.3538 -1.1197
    5SAPS   H5Y  625   6.227   3.966   6.359  0.7431  2.6866 -1.2610
    5SAPS   C36  626   6.289   3.869   6.180  0.0057 -0.0217 -0.0457
    5SAPS   H6X  627   6.252   3.767   6.201  1.4882 -0.3919  0.9647
    5SAPS   H6Y  628   6.378   3.850   6.116 -0.4606  1.7820 -1.2875
    5SAPS   C37  629   6.197   3.941   6.084  0.4591  0.0173  0.3086
    5SAPS   H7X  630   6.239   4.042   6.066  0.0279  0.1917  0.2685
    5SAPS   H7Y  631   6.097   3.970   6.122  0.6551  2.2215 -0.7300
    5SAPS   C38  632   6.178   3.886   5.944  0.7347 -0.9775 -0.1094
    5SAPS   H8X  633   6.096   3.812   5.954 -2.5634  2.3074 -0.5633
    5SAPS   H8Y  634   6.272   3.836   5.914  1.1073  0.3260 -1.2491
    5SAPS   C39  635   6.140   3.994   5.843  0.2987  0.2587 -0.5215
    5SAPS   H9X  636   6.225   4.061   5.817  0.0496  0.4140 -0.9544
    5SAPS   H9Y  637   6.054   4.050   5.886  0.5885 -0.6099  1.3068
    5SAPS  C310  638   6.085   3.932   5.714 -0.4100 -0.2983 -0.5492
    5SAPS  H10X  639   5.976   3.908   5.721 -0.8857  1.5251 -1.2620
    5SAPS  H10Y  640   6.141   3.839   5.691  1.0051  0.3353  0.1719
    5SAPS  C311  641   6.086   4.031   5.596  0.2010  0.2710 -0.3392
    5SAPS  H11X  642   6.180   4.090   5.599  0.1902  0.2537  1.8301
    5SAPS  H11Y  643   6.011   4.109   5.623 -0.3210 -0.4469  0.3441
    5SAPS  C312  644   6.057   3.961   5.468 -0.1484 -0.2564 -0.2625
    5SAPS  H12X  645   5.946   3.952   5.470 -0.1736  0.0438 -0.2252
    5SAPS  H12Y  646   6.099   3.859   5.475 -0.7908 -0.4350  1.2607
    5SAPS  C313  647   6.097   4.043   5.344 -0.1437  0.5301  0.0884
    5SAPS  H13X  648   6.206   4.065   5.345  0.2244 -1.1072 -0.5631
    5SAPS  H13Y  649   6.037   4.136   5.355 -0.4483  0.0696  3.5001
    5SAPS  C314  650   6.051   3.977   5.216 -0.0644 -0.7953 -0.2485
    5SAPS  H14X  651   5.941   3.961   5.213 -0.4826  1.2582  1.7438
    5SAPS  H14Y  652   6.116   3.891   5.191  3.4632  1.5542  0.1877
    5SAPS  C315  653   6.078   4.059   5.094 -0.5258 -0.2333 -0.3969
    5SAPS  H15X  654   6.183   4.095   5.098 -1.2248  1.8661  0.9246
    5SAPS  H15Y  655   6.025   4.157   5.100  0.3600  0.5531 -3.4174
    5SAPS  C316  656   6.050   3.998   4.962  0.1912 -0.4976 -0.3731
    5SAPS  H16X  657   5.963   3.930   4.975  0.7703 -1.5125 -1.5555
    5SAPS  H16Y  658   6.144   3.947   4.931  1.5853  1.7132  0.0185
    5SAPS  C317  659   6.026   4.091   4.845  0.3057 -0.2622 -0.0462
    5SAPS  H17X  660   6.113   4.159   4.831  0.6334 -0.3645  1.3358
    5SAPS  H17Y  661   5.939   4.156   4.866 -0.0927 -0.6794 -0.3908
    5SAPS  C318  662   5.997   4.006   4.716  0.4356 -0.5865 -0.1349
    5SAPS  H18X  663   5.960   4.061   4.628 -0.8017 -1.1258  0.0351
    5SAPS  H18Y  664   5.927   3.921   4.734  0.6240 -0.4094  1.5978
    5SAPS  H18Z  665   6.097   3.971   4.680  0.7127  0.6596 -0.6226
    6SAPS     N  666   1.959   0.831   7.757 -0.3663  0.3974  0.2088
    6SAPS   HN1  667   1.954   0.924   7.711 -0.4464  1.3580  2.0420
    6SAPS   HN2  668   1.966   0.841   7.860 -2.2838 -0.4726  0.4529
    6SAPS   HN3  669   2.030   0.770   7.712 -0.5537  1.5260 -1.7196
    6SAPS   C12  670   1.828   0.768   7.736 -0.7023  0.1588  0.3898
    6SAPS  H12A  671   1.799   0.697   7.812 -1.2337  1.4649  1.4688
    6SAPS   C13  672   1.711   0.876   7.728 -0.3101 -0.0660  0.3033
    6SAPS  O13A  673   1.734   0.999   7.750 -0.7776 -0.4938  0.1803
    6SAPS  O13B  674   1.595   0.829   7.738  0.2701 -0.1468 -0.7807
    6SAPS   C11  675   1.834   0.697   7.591  0.0392 -0.2379 -0.1019
    6SAPS  H11A  676   1.856   0.765   7.506 -2.4699  1.7359  0.7020
    6SAPS  H11B  677   1.728   0.668   7.572  0.4621  0.0515 -3.4955
    6SAPS     P  678   1.942   0.492   7.472  0.4106 -0.2116 -0.5362
    6SAPS   O13  679   2.063   0.522   7.397  0.4222  0.2434 -0.3167
    6SAPS   O14  680   1.939   0.353   7.537 -0.3105 -0.0630  0.3445
    6SAPS   O12  681   1.919   0.590   7.591 -0.4114  0.1746  0.3025
    6SAPS   O11  682   1.808   0.508   7.389 -0.5709  0.1053 -0.2343
    6SAPS    C1  683   1.796   0.619   7.296  0.2034  0.2192 -1.1471
    6SAPS    HA  684   1.717   0.691   7.326 -0.1655 -0.3457 -0.7439
    6SAPS    HB  685   1.885   0.685   7.283 -0.0281  0.9106  0.6041
    6SAPS    C2  686   1.781   0.570   7.148  0.2078  0.0071  0.3348
    6SAPS    HS  687   1.792   0.656   7.078  0.1616 -0.7836 -0.6548
    6SAPS   O21  688   1.657   0.493   7.123  0.2195 -0.2918 -0.3050
    6SAPS   C21  689   1.556   0.571   7.114 -0.2374 -0.1288 -0.2624
    6SAPS   O22  690   1.559   0.693   7.119 -0.2096  0.5800  0.1981
    6SAPS   C22  691   1.421   0.499   7.112 -0.6805 -0.5746 -0.5484
    6SAPS   H2R  692   1.409   0.438   7.204  1.1713 -1.0099 -0.5545
    6SAPS   H2S  693   1.341   0.575   7.117 -0.3032 -0.2044 -0.0014
    6SAPS    C3  694   1.901   0.482   7.107  0.4438 -0.4492 -0.4085
    6SAPS    HX  695   1.885   0.379   7.146 -0.2035 -0.8853 -1.7706
    6SAPS    HY  696   1.997   0.527   7.142 -0.2264  1.8437 -1.3762
    6SAPS   O31  697   1.911   0.473   6.962  0.7862 -0.4630  0.0504
    6SAPS   C31  698   1.874   0.354   6.906  0.7027 -0.6950  0.0266
    6SAPS   O32  699   1.803   0.269   6.961 -0.3267 -0.5674 -0.1240
    6SAPS   C32  700   1.934   0.341   6.768  0.4436 -0.0203  0.0562
    6SAPS   H2X  701   2.044   0.346   6.782  0.3272 -2.5016  3.0072
    6SAPS   H2Y  702   1.905   0.427   6.703 -1.2381  0.4668  1.3593
    6SAPS   C23  703   1.400   0.397   6.999  0.7474  0.2944  0.5819
    6SAPS   H3R  704   1.302   0.347   7.017  1.5476 -0.3918  3.5526
    6SAPS   H3S  705   1.469   0.311   7.013 -1.2663 -1.2222  1.7839
    6SAPS   C24  706   1.399   0.468   6.862 -0.3944 -0.4720  0.2734
    6SAPS   H4R  707   1.375   0.574   6.884 -0.0660 -0.0375 -1.3561
    6SAPS   H4S  708   1.315   0.434   6.797 -0.7470 -0.8944  0.9384
    6SAPS   C25  709   1.533   0.460   6.790 -0.5679  0.0846  0.6484
    6SAPS   H5R  710   1.623   0.498   6.840  1.2746 -2.2916 -0.6698
    6SAPS   C26  711   1.557   0.422   6.663  0.1700  0.2541  0.6144
    6SAPS   H6R  712   1.661   0.419   6.628 -0.4928 -0.1398 -1.4805
    6SAPS   C27  713   1.456   0.377   6.561  0.0175 -0.9340 -0.3277
    6SAPS   H7R  714   1.450   0.469   6.497 -2.6798 -1.2559 -0.6412
    6SAPS   H7S  715   1.357   0.362   6.610  0.5274 -1.3276  0.5892
    6SAPS   C28  716   1.490   0.257   6.482  0.1411  0.1968 -0.4832
    6SAPS   H8R  717   1.535   0.181   6.548 -0.2061 -0.3379 -0.8437
    6SAPS   C29  718   1.451   0.231   6.358 -0.0169 -0.3386 -0.0788
    6SAPS   H9R  719   1.486   0.135   6.318 -0.1340 -1.2498  1.8508
    6SAPS  C210  720   1.371   0.317   6.266  0.5763  0.3045  0.1687
    6SAPS  H10R  721   1.423   0.330   6.169 -1.2487  2.2297 -0.6271
    6SAPS  H10S  722   1.371   0.418   6.312  0.7272 -0.2078  1.3312
    6SAPS  C211  723   1.228   0.270   6.250 -0.1614 -0.4182  0.1366
    6SAPS  H11R  724   1.171   0.252   6.342 -1.8518  0.6254 -0.6665
    6SAPS  C212  725   1.164   0.240   6.140  0.5240 -0.6026  0.2271
    6SAPS  H12R  726   1.059   0.210   6.153 -0.5809  2.7679  0.1111
    6SAPS  C213  727   1.205   0.262   5.996 -0.0999 -1.1177  0.5226
    6SAPS  H13R  728   1.257   0.358   5.977  0.5334 -1.4523  0.5517
    6SAPS  H13S  729   1.109   0.270   5.940  0.8324 -3.9506 -1.7168
    6SAPS  C214  730   1.292   0.154   5.945 -0.5473 -0.2221 -0.1908
    6SAPS  H14R  731   1.346   0.094   6.019 -0.1441  1.4385  0.9126
    6SAPS  C215  732   1.300   0.123   5.813  0.2051  0.2209  0.6051
    6SAPS  H15R  733   1.373   0.053   5.772  0.2087 -0.9921  2.5688
    6SAPS  C216  734   1.227   0.205   5.705  0.7559 -0.1485 -0.5708
    6SAPS  H16R  735   1.255   0.309   5.732  0.2001 -0.2390  0.4254
    6SAPS  H16S  736   1.118   0.186   5.714  1.2094 -2.1091  1.7069
    6SAPS  C217  737   1.266   0.163   5.566  0.1594  0.7137  0.1051
    6SAPS  H17R  738   1.376   0.149   5.574  0.1114  1.0300  1.8410
    6SAPS  H17S  739   1.232   0.243   5.497 -0.4316 -0.6515 -1.2386
    6SAPS  C218  740   1.215   0.024   5.533  0.4166  0.5661 -0.3542
    6SAPS  H18R  741   1.104   0.019   5.530  0.4650 -2.0838  0.2640
    6SAPS  H18S  742   1.248  -0.044   5.613 -0.7898  1.0191  0.5723
    6SAPS  C219  743   1.265  -0.034   5.402 -0.2278  0.7326 -0.2386
    6SAPS  H19R  744   1.228  -0.134   5.372  1.3739  0.1456 -0.4032
    6SAPS  H19S  745   1.373  -0.059   5.417 -0.4079 -0.1538 -0.3710
    6SAPS  C220  746   1.235   0.051   5.278 -0.8521  0.0224 -0.5472
    6SAPS  H20R  747   1.283   0.151   5.292  1.8817 -1.3759  0.8589
    6SAPS  H20S  748   1.127   0.073   5.289 -1.0449 -1.2589  0.3335
    6SAPS  H20T  749   1.259  -0.000   5.183  2.0322 -0.0176  0.1131
    6SAPS   C33  750   1.891   0.218   6.701  0.2946  0.2488 -0.2932
    6SAPS   H3X  751   1.782   0.207   6.720  0.2484 -0.3900 -0.8914
    6SAPS   H3Y  752   1.937   0.128   6.745 -0.9720 -0.7227 -0.8914
    6SAPS   C34  753   1.913   0.221   6.549 -0.1066  0.2990  0.6820
    6SAPS   H4X  754   2.022   0.227   6.531  0.2759  1.8835  3.1288
    6SAPS   H4Y  755   1.860   0.303   6.496 -0.3326 -1.7095 -2.4681
    6SAPS   C35  756   1.861   0.094   6.481 -0.3067 -0.7942  0.0431
    6SAPS   H5X  757   1.759   0.062   6.511  0.8220 -3.9676  0.9135
    6SAPS   H5Y  758   1.930   0.013   6.514  0.4671  0.4623  1.6233
    6SAPS   C36  759   1.874   0.101   6.327  0.3902 -0.1180  0.3014
    6SAPS   H6X  760   1.949   0.171   6.284 -0.2253 -0.4951 -1.4976
    6SAPS   H6Y  761   1.777   0.139   6.288 -1.2934 -2.6980  1.6170
    6SAPS   C37  762   1.905  -0.034   6.259  0.4762 -0.2763 -1.0313
    6SAPS   H7X  763   1.827  -0.106   6.291  0.0651  0.2235 -0.8984
    6SAPS   H7Y  764   2.003  -0.064   6.302  0.7457  3.2036  1.2000
    6SAPS   C38  765   1.925  -0.027   6.106  0.0026  0.2768  0.2571
    6SAPS   H8X  766   1.982  -0.122   6.097 -0.9607 -0.5014  1.8453
    6SAPS   H8Y  767   1.998   0.050   6.074  2.8716 -2.3343  0.0502
    6SAPS   C39  768   1.792  -0.020   6.019  0.4517 -0.1026  0.6351
    6SAPS   H9X  769   1.738   0.075   6.039  1.4513  1.2016 -2.2135
    6SAPS   H9Y  770   1.715  -0.093   6.052 -0.9951  1.3075  0.5175
    6SAPS  C310  771   1.817  -0.028   5.866 -0.1748 -0.9481 -0.5960
    6SAPS  H10X  772   1.837  -0.135   5.842  0.4513 -0.6127 -1.5889
    6SAPS  H10Y  773   1.893   0.042   5.825 -2.6466  2.1186 -0.3370
    6SAPS  C311  774   1.682  -0.005   5.795  0.3252  0.3688 -0.1824
    6SAPS  H11X  775   1.644   0.092   5.833 -1.9581 -0.3188 -0.5492
    6SAPS  H11Y  776   1.613  -0.073   5.849  0.4066  0.8801  0.5785
    6SAPS  C312  777   1.670  -0.034   5.646  0.6324 -0.4669  0.1917
    6SAPS  H12X  778   1.576  -0.090   5.626 -0.5070  1.1572  0.7698
    6SAPS  H12Y  779   1.763  -0.081   5.606 -0.7032 -1.5437 -1.8424
    6SAPS  C313  780   1.675   0.101   5.572 -0.0979  0.3540  0.5401
    6SAPS  H13X  781   1.772   0.151   5.596  0.9249 -0.4712 -1.5813
    6SAPS  H13Y  782   1.589   0.158   5.612 -0.6284  0.2493 -0.4191
    6SAPS  C314  783   1.654   0.092   5.415 -0.6758  0.1657 -0.3565
    6SAPS  H14X  784   1.580   0.013   5.387  0.7830 -0.5381 -2.5157
    6SAPS  H14Y  785   1.752   0.061   5.374 -0.8407 -2.4372  1.0125
    6SAPS  C315  786   1.613   0.218   5.351  0.0425  0.1008  0.4339
    6SAPS  H15X  787   1.544   0.273   5.418  0.8658  0.8382  0.6972
    6SAPS  H15Y  788   1.558   0.182   5.261 -1.0589 -0.2803  1.2423
    6SAPS  C316  789   1.718   0.324   5.311  0.1031  0.7219 -0.2543
    6SAPS  H16X  790   1.805   0.293   5.249 -0.0072 -0.4914  0.1780
    6SAPS  H16Y  791   1.761   0.349   5.410  0.1717 -0.2720 -0.0245
    6SAPS  C317  792   1.658   0.446   5.241 -0.0733 -0.5046  0.3277
    6SAPS  H17X  793   1.592   0.497   5.314 -2.3320 -0.8612 -1.3429
    6SAPS  H17Y  794   1.603   0.400   5.156  1.4553 -1.3272 -0.2578
    6SAPS  C318  795   1.762   0.541   5.189 -0.0925 -0.0348 -0.7817
    6SAPS  H18X  796   1.835   0.568   5.269  0.1534  0.4134 -1.1523
    6SAPS  H18Y  797   1.716   0.636   5.158  2.1602  1.5150  0.3076
    6SAPS  H18Z  798   1.806   0.493   5.099 -0.1729  2.2406 -2.1043
    7SAPS     N  799   4.182   6.124   7.628  0.1398  0.0430  0.4576
    7SAPS   HN1  800   4.133   6.075   7.551  1.4051  2.6197 -2.1724
    7SAPS   HN2  801   4.115   6.145   7.705 -0.6636  0.8693 -0.4373
    7SAPS   HN3  802   4.204   6.215   7.583  2.8819 -0.5040  0.5344
    7SAPS   C12  803   4.309   6.066   7.682 -0.2947 -0.4443  0.0713
    7SAPS  H12A  804   4.341   6.149   7.742 -2.2227  0.3205  0.1427
    7SAPS   C13  805   4.293   5.940   7.774  0.0959 -0.1830 -0.8013
    7SAPS  O13A  806   4.174   5.898   7.784  0.3022  0.3004  0.0658
    7SAPS  O13B  807   4.395   5.892   7.825  0.4902  0.0619 -0.2173
    7SAPS   C11  808   4.410   6.025   7.569 -0.1261  0.2195  0.4160
    7SAPS  H11A  809   4.377   5.926   7.531 -0.2954  0.3204  0.3015
    7SAPS  H11B  810   4.507   6.001   7.619  0.3629 -0.0914 -0.6501
    7SAPS     P  811   4.457   6.257   7.470 -0.0999 -0.3277 -0.0795
    7SAPS   O13  812   4.340   6.330   7.528  0.0587 -0.0512 -0.2613
    7SAPS   O14  813   4.585   6.259   7.548  0.4665  0.5616  0.3733
    7SAPS   O12  814   4.420   6.107   7.454 -0.0211  0.3700 -0.2824
    7SAPS   O11  815   4.481   6.315   7.326 -0.2187 -0.0418  0.8762
    7SAPS    C1  816   4.404   6.273   7.209 -0.3655 -0.2348 -0.0804
    7SAPS    HA  817   4.348   6.180   7.231 -0.6329 -0.1011 -0.1849
    7SAPS    HB  818   4.321   6.348   7.204 -2.0418 -1.9844  0.2886
    7SAPS    C2  819   4.492   6.250   7.081  0.0081 -0.0715 -0.5378
    7SAPS    HS  820   4.557   6.165   7.113 -1.3480 -0.6480  0.8648
    7SAPS   O21  821   4.551   6.375   7.048 -0.3772  0.3671 -0.2430
    7SAPS   C21  822   4.669   6.356   6.994  0.1338  0.0728 -0.1112
    7SAPS   O22  823   4.725   6.249   6.988 -0.2175  0.1996 -0.1878
    7SAPS   C22  824   4.732   6.487   6.951  0.0234  0.5694 -0.4589
    7SAPS   H2R  825   4.685   6.579   6.992  0.5574  1.2310 -1.3003
    7SAPS   H2S  826   4.836   6.483   6.991  0.2813  0.3265 -1.1337
    7SAPS    C3  827   4.396   6.195   6.977  0.6241 -0.2455 -0.5717
    7SAPS    HX  828   4.325   6.280   6.964  1.7460  0.8906  0.4685
    7SAPS    HY  829   4.336   6.109   7.014  0.5266 -0.1093 -0.4108
    7SAPS   O31  830   4.460   6.172   6.846  0.5629  0.7689  0.1120
    7SAPS   C31  831   4.515   6.050   6.845  0.3747 -0.6681  0.2403
    7SAPS   O32  832   4.524   5.982   6.944  0.2219  0.8410  0.0111
    7SAPS   C32  833   4.567   6.035   6.708  0.0928  0.4722  0.8393
    7SAPS   H2X  834   4.660   6.096   6.698 -0.4474  1.1132 -0.5760
    7SAPS   H2Y  835   4.496   6.073   6.631  2.1833  0.7402 -1.0570
    7SAPS   C23  836   4.745   6.488   6.793 -0.1058 -0.0411 -0.4540
    7SAPS   H3R  837   4.792   6.586   6.767 -1.2177  0.3571 -1.0274
    7SAPS   H3S  838   4.646   6.495   6.743  0.2301  1.1940 -0.9874
    7SAPS   C24  839   4.817   6.374   6.711  0.0850  0.2051 -0.4096
    7SAPS   H4R  840   4.784   6.393   6.607 -1.4326  1.9928  0.3502
    7SAPS   H4S  841   4.780   6.277   6.752 -0.1731  0.7106  0.5987
    7SAPS   C25  842   4.971   6.380   6.724 -0.4449 -0.0059  0.4557
    7SAPS   H5R  843   5.021   6.374   6.822  1.4274  0.8349 -0.4017
    7SAPS   C26  844   5.055   6.370   6.620 -0.1296  0.6046  0.3216
    7SAPS   H6R  845   5.164   6.361   6.631  0.2646  0.1622 -3.0272
    7SAPS   C27  846   5.008   6.331   6.473 -0.0161 -0.7271  0.2713
    7SAPS   H7R  847   4.899   6.349   6.460 -0.0132 -0.4966  0.5561
    7SAPS   H7S  848   5.018   6.222   6.454 -3.0947 -0.9705 -0.3903
    7SAPS   C28  849   5.073   6.421   6.372 -0.7625 -0.2131 -0.4044
    7SAPS   H8R  850   5.126   6.509   6.412  0.9303 -0.6753 -1.5426
    7SAPS   C29  851   5.082   6.389   6.244 -0.1521  0.1625  0.6121
    7SAPS   H9R  852   5.140   6.455   6.178 -1.1156 -0.0011 -0.4284
    7SAPS  C210  853   5.018   6.265   6.170 -0.0139  0.0630 -0.0375
    7SAPS  H10R  854   4.979   6.194   6.246 -0.9701  0.3129 -0.2788
    7SAPS  H10S  855   5.097   6.207   6.119 -0.2428  0.0559 -0.3928
    7SAPS  C211  856   4.914   6.309   6.066 -0.2585  0.2013 -1.0626
    7SAPS  H11R  857   4.827   6.362   6.106  0.5802 -0.5003  1.9584
    7SAPS  C212  858   4.921   6.293   5.937  0.4717 -0.6883  0.0627
    7SAPS  H12R  859   4.838   6.312   5.868 -0.1400 -1.5292  0.5530
    7SAPS  C213  860   5.041   6.248   5.861  0.8648 -0.8641  0.0237
    7SAPS  H13R  861   5.114   6.199   5.928 -0.3049 -2.5665  0.1254
    7SAPS  H13S  862   5.098   6.332   5.815  1.7569 -2.1998 -1.4426
    7SAPS  C214  863   5.001   6.147   5.754  0.0065 -0.7798 -0.2683
    7SAPS  H14R  864   4.988   6.046   5.795  0.7706 -0.4895  0.7173
    7SAPS  C215  865   4.986   6.160   5.622  0.2605 -0.6389 -0.8829
    7SAPS  H15R  866   4.974   6.071   5.559  2.2599 -1.5205 -0.1092
    7SAPS  C216  867   5.021   6.289   5.549  0.5336  0.2356  0.2049
    7SAPS  H16R  868   5.128   6.292   5.520  0.1288  0.2597 -1.4212
    7SAPS  H16S  869   5.002   6.379   5.611 -0.5803 -1.1066  1.9041
    7SAPS  C217  870   4.958   6.326   5.410 -0.2631  0.3676 -0.1329
    7SAPS  H17R  871   4.984   6.432   5.387  0.8512 -0.0291 -0.7740
    7SAPS  H17S  872   4.848   6.321   5.420 -0.2134  2.1199  2.2979
    7SAPS  C218  873   5.005   6.236   5.295 -0.0439  0.1530  0.6650
    7SAPS  H18R  874   4.980   6.132   5.323  0.6607 -1.0171 -2.5576
    7SAPS  H18S  875   5.112   6.238   5.265 -0.2376 -0.0385 -0.0635
    7SAPS  C219  876   4.925   6.261   5.163 -0.1351  0.4312 -0.0752
    7SAPS  H19R  877   4.962   6.358   5.123 -2.4625  0.8789 -1.3338
    7SAPS  H19S  878   4.815   6.270   5.176 -0.1966  0.6041 -0.6865
    7SAPS  C220  879   4.940   6.151   5.050  0.6602  0.0562  0.1534
    7SAPS  H20R  880   4.883   6.192   4.964 -2.9953 -2.1581  1.3044
    7SAPS  H20S  881   4.894   6.053   5.072  2.0004 -0.2998  1.5781
    7SAPS  H20T  882   5.048   6.131   5.031  0.8459  1.5213 -0.4744
    7SAPS   C33  883   4.603   5.882   6.683  1.1281  0.4682 -0.1907
    7SAPS   H3X  884   4.687   5.843   6.745  2.1389  1.4284 -0.9226
    7SAPS   H3Y  885   4.634   5.881   6.577  2.6325 -1.0340  0.2332
    7SAPS   C34  886   4.483   5.788   6.699  0.5111 -0.2214  0.1364
    7SAPS   H4X  887   4.447   5.789   6.804  0.0011  2.4732  0.0077
    7SAPS   H4Y  888   4.512   5.684   6.671  0.9025 -0.0528 -0.0914
    7SAPS   C35  889   4.365   5.819   6.609 -0.1659  0.4789  0.3359
    7SAPS   H5X  890   4.328   5.921   6.630 -3.8085 -0.6839  0.2054
    7SAPS   H5Y  891   4.273   5.765   6.640 -0.5980  1.0745  0.0946
    7SAPS   C36  892   4.409   5.805   6.465  0.0045 -0.5668  0.1973
    7SAPS   H6X  893   4.467   5.711   6.450 -1.2531 -1.3963  0.3241
    7SAPS   H6Y  894   4.465   5.899   6.447 -1.4553  0.2853 -0.0201
    7SAPS   C37  895   4.292   5.817   6.361 -0.4023 -0.1947  0.3587
    7SAPS   H7X  896   4.273   5.925   6.345 -0.1952 -0.1648  0.3136
    7SAPS   H7Y  897   4.194   5.769   6.383 -0.6705 -0.0019 -0.3798
    7SAPS   C38  898   4.346   5.756   6.230 -0.0707 -0.0435 -0.2013
    7SAPS   H8X  899   4.380   5.651   6.243 -1.0774 -0.5982 -1.6898
    7SAPS   H8Y  900   4.432   5.820   6.200  0.4508  0.1314  1.5521
    7SAPS   C39  901   4.239   5.764   6.117 -0.8068 -0.4852 -1.4888
    7SAPS   H9X  902   4.195   5.865   6.104 -1.6155 -0.2624  2.1230
    7SAPS   H9Y  903   4.155   5.699   6.147 -0.1599  0.5420  3.2550
    7SAPS  C310  904   4.292   5.721   5.979  0.2975 -0.4909 -0.0496
    7SAPS  H10X  905   4.332   5.617   5.985  1.7628 -0.1465 -2.3471
    7SAPS  H10Y  906   4.377   5.789   5.959 -0.4503  0.7565  0.9259
    7SAPS  C311  907   4.194   5.737   5.865 -0.0030  0.4060  0.1004
    7SAPS  H11X  908   4.169   5.845   5.850 -2.2145 -0.2484 -1.5930
    7SAPS  H11Y  909   4.097   5.689   5.892  0.0677  0.1241 -0.1390
    7SAPS  C312  910   4.258   5.699   5.729  0.2829  0.1065 -0.2199
    7SAPS  H12X  911   4.252   5.588   5.731 -0.8581  0.1267 -1.0513
    7SAPS  H12Y  912   4.358   5.747   5.736  1.9168 -3.0460 -0.1212
    7SAPS  C313  913   4.198   5.760   5.607 -0.1458  0.5668  0.0803
    7SAPS  H13X  914   4.222   5.868   5.599  2.0441  0.0897 -0.4997
    7SAPS  H13Y  915   4.088   5.744   5.610 -0.0665  0.1203  1.0739
    7SAPS  C314  916   4.234   5.698   5.467 -0.6749  0.0216  0.6751
    7SAPS  H14X  917   4.195   5.595   5.477  1.8462 -1.1736 -0.8730
    7SAPS  H14Y  918   4.345   5.708   5.464 -0.5079 -1.5558 -2.7036
    7SAPS  C315  919   4.172   5.776   5.351  0.3045  0.5641 -0.2518
    7SAPS  H15X  920   4.222   5.874   5.337  0.0868  0.5610 -1.0863
    7SAPS  H15Y  921   4.067   5.795   5.380  0.4255 -1.2045  1.6231
    7SAPS  C316  922   4.186   5.703   5.216  0.4104  0.4881  0.4079
    7SAPS  H16X  923   4.111   5.620   5.218 -0.4286  1.2426  1.6054
    7SAPS  H16Y  924   4.289   5.663   5.216  1.3488  2.7433  1.5798
    7SAPS  C317  925   4.155   5.780   5.083 -1.0813 -0.0881  0.2635
    7SAPS  H17X  926   4.198   5.880   5.104 -1.3448 -0.1673  1.2122
    7SAPS  H17Y  927   4.045   5.781   5.074 -1.1039 -2.9201 -0.8968
    7SAPS  C318  928   4.220   5.720   4.963 -0.6971  0.7082  0.1157
    7SAPS  H18X  929   4.209   5.610   4.955  2.5766  0.3435 -0.9565
    7SAPS  H18Y  930   4.329   5.736   4.975  0.2977 -3.7122 -1.2313
    7SAPS  H18Z  931   4.181   5.754   4.864 -0.8384 -0.2760 -0.1718
    8SAPS     N  932   4.290   6.492   7.726 -0.0561 -0.4293 -0.7112
    8SAPS   HN1  933   4.297   6.416   7.655  0.2300  0.7898 -2.0365
    8SAPS   HN2  934   4.325   6.583   7.690  1.6396 -0.8939 -0.3332
    8SAPS   HN3  935   4.352   6.471   7.807  1.1607  0.5591 -1.3421
    8SAPS   C12  936   4.149   6.518   7.780  0.1319  0.7670  0.6307
    8SAPS  H12A  937   4.120   6.437   7.846  1.4444  0.6208  1.0523
    8SAPS   C13  938   4.130   6.648   7.855 -0.0406  0.6447  0.3678
    8SAPS  O13A  939   4.224   6.730   7.877  0.4164 -0.2204  0.7370
    8SAPS  O13B  940   4.013   6.669   7.891  0.3854  0.2012 -0.4021
    8SAPS   C11  941   4.052   6.515   7.659  0.2674 -0.1034 -0.8184
    8SAPS  H11A  942   4.071   6.609   7.603  1.7590  0.4659  0.5563
    8SAPS  H11B  943   3.950   6.517   7.703 -0.6570  1.5550 -2.8839
    8SAPS     P  944   3.976   6.384   7.453 -0.3321  0.4010  0.1294
    8SAPS   O13  945   3.994   6.257   7.377 -0.0905 -0.2009 -0.1782
    8SAPS   O14  946   3.831   6.412   7.481 -0.1146  0.3960  0.4033
    8SAPS   O12  947   4.063   6.393   7.587  0.0547 -0.0762  0.3795
    8SAPS   O11  948   4.023   6.514   7.369 -0.3497  0.2075 -0.6880
    8SAPS    C1  949   4.133   6.526   7.279 -0.0553  0.2249  0.0001
    8SAPS    HA  950   4.227   6.515   7.336 -0.9275  0.8332  1.6188
    8SAPS    HB  951   4.128   6.445   7.203  0.4239 -1.8578  2.0692
    8SAPS    C2  952   4.130   6.656   7.219 -0.0432 -0.0760  0.1267
    8SAPS    HS  953   4.147   6.735   7.296 -1.1203  0.0088  0.2921
    8SAPS   O21  954   4.004   6.668   7.151  0.2060 -0.1329  0.3711
    8SAPS   C21  955   3.979   6.792   7.108  0.6375 -0.0446 -0.4501
    8SAPS   O22  956   4.034   6.896   7.141 -0.0089  0.2614  0.2502
    8SAPS   C22  957   3.848   6.783   7.029  0.3402  0.6705  0.1770
    8SAPS   H2R  958   3.826   6.675   7.035  4.2754 -0.1733  2.9242
    8SAPS   H2S  959   3.769   6.839   7.084 -0.2225  0.4664 -0.4140
    8SAPS    C3  960   4.256   6.682   7.123  0.3914 -0.8250 -0.1147
    8SAPS    HX  961   4.347   6.679   7.187 -0.5671 -0.3088  1.3214
    8SAPS    HY  962   4.265   6.789   7.093 -0.1344 -0.2872  1.5314
    8SAPS   O31  963   4.278   6.579   7.020 -0.0646  0.4730 -0.1381
    8SAPS   C31  964   4.256   6.628   6.897 -0.0788 -0.5348 -0.3055
    8SAPS   O32  965   4.203   6.735   6.878  0.6469 -0.4248 -0.3629
    8SAPS   C32  966   4.290   6.531   6.787 -0.0576 -0.5052 -0.4727
    8SAPS   H2X  967   4.192   6.489   6.758 -0.3730  1.1697 -2.0102
    8SAPS   H2Y  968   4.346   6.442   6.826 -2.3102 -1.8404 -0.1324
    8SAPS   C23  969   3.861   6.838   6.882 -0.2132  0.7058 -0.0611
    8SAPS   H3R  970   3.960   6.888   6.880  0.4738 -0.4874  1.5446
    8SAPS   H3S  971   3.782   6.909   6.849 -1.8848 -0.5855  1.0473
    8SAPS   C24  972   3.873   6.725   6.779  0.1585  0.6244  0.5849
    8SAPS   H4R  973   3.778   6.673   6.753 -0.6407  2.2389  0.2038
    8SAPS   H4S  974   3.942   6.656   6.833 -1.1627 -0.9413  0.3495
    8SAPS   C25  975   3.931   6.761   6.642  0.0503 -0.8416 -0.1773
    8SAPS   H5R  976   4.033   6.801   6.646 -0.8241  1.6417 -0.6425
    8SAPS   C26  977   3.870   6.756   6.524  0.3234 -0.7303 -0.2128
    8SAPS   H6R  978   3.921   6.764   6.427 -1.3651 -0.8018 -1.1546
    8SAPS   C27  979   3.729   6.718   6.503 -0.4342 -0.6501  0.5546
    8SAPS   H7R  980   3.677   6.676   6.592 -0.9148 -0.3187  0.4319
    8SAPS   H7S  981   3.730   6.634   6.430 -0.1777 -0.1971  0.0222
    8SAPS   C28  982   3.667   6.838   6.451 -0.1918 -1.0547 -0.4467
    8SAPS   H8R  983   3.618   6.900   6.528  0.1142 -1.4548  0.0794
    8SAPS   C29  984   3.647   6.874   6.320 -0.7148  0.2044 -0.4475
    8SAPS   H9R  985   3.592   6.967   6.298  1.3354  1.0942 -2.0967
    8SAPS  C210  986   3.694   6.801   6.202  0.1059  0.4802 -0.3289
    8SAPS  H10R  987   3.612   6.765   6.137 -0.5271 -1.9127  1.6366
    8SAPS  H10S  988   3.746   6.711   6.241 -0.4939  1.1757  2.2920
    8SAPS  C211  989   3.785   6.894   6.123 -0.4404  0.0235 -0.9269
    8SAPS  H11R  990   3.846   6.958   6.188  1.3277 -0.9570 -1.5631
    8SAPS  C212  991   3.810   6.896   5.995  0.0268  0.1829  0.6036
    8SAPS  H12R  992   3.885   6.970   5.962  2.0336 -1.5479  1.0648
    8SAPS  C213  993   3.735   6.819   5.891 -0.1895  0.3505 -0.0247
    8SAPS  H13R  994   3.724   6.872   5.795 -0.6680  1.1677  0.4785
    8SAPS  H13S  995   3.629   6.801   5.919 -0.1184 -1.4837 -0.7961
    8SAPS  C214  996   3.784   6.674   5.862 -0.6413  0.1463 -0.1122
    8SAPS  H14R  997   3.755   6.593   5.930 -2.9693  0.6701 -0.3989
    8SAPS  C215  998   3.889   6.641   5.773 -0.2594 -0.2616 -0.3151
    8SAPS  H15R  999   3.914   6.536   5.756  0.0371 -0.4084  0.9602
    8SAPS  C216 1000   3.972   6.741   5.691  0.3257 -0.9271 -0.1657
    8SAPS  H16R 1001   4.080   6.716   5.700  0.7228  0.2988 -1.2086
    8SAPS  H16S 1002   3.942   6.842   5.725  1.1245 -0.4462 -0.8336
    8SAPS  C217 1003   3.940   6.729   5.539  0.1224  0.3176 -0.0359
    8SAPS  H17R 1004   3.831   6.739   5.521  0.4489  0.7386 -1.9566
    8SAPS  H17S 1005   3.978   6.629   5.508  1.0869  0.2941  1.1610
    8SAPS  C218 1006   4.030   6.816   5.451 -0.5044 -0.4753  0.6474
    8SAPS  H18R 1007   4.136   6.822   5.482  0.4236  1.7088 -2.4270
    8SAPS  H18S 1008   3.996   6.921   5.458  0.6817  0.1446 -1.7652
    8SAPS  C219 1009   4.017   6.790   5.297 -0.3053  0.3344  0.3544
    8SAPS  H19R 1010   4.029   6.680   5.302 -2.0199  0.1131  0.2009
    8SAPS  H19S 1011   4.104   6.844   5.253 -0.0624  0.7012  1.2596
    8SAPS  C220 1012   3.882   6.825   5.235 -0.9735 -1.0658 -0.5070
    8SAPS  H20R 1013   3.796   6.786   5.293 -1.4079  0.0580 -0.3834
    8SAPS  H20S 1014   3.885   6.800   5.127  2.2195  1.3252 -1.1100
    8SAPS  H20T 1015   3.868   6.935   5.232  2.2653 -0.4627  1.2870
    8SAPS   C33 1016   4.362   6.605   6.667  0.2674  0.7812 -0.7903
    8SAPS   H3X 1017   4.465   6.608   6.708  0.0666 -0.3341 -0.1625
    8SAPS   H3Y 1018   4.317   6.704   6.645  0.6748  1.4674  1.2968
    8SAPS   C34 1019   4.360   6.522   6.532  0.0406 -0.2069 -0.4118
    8SAPS   H4X 1020   4.350   6.589   6.445 -0.6338  0.0984 -0.1043
    8SAPS   H4Y 1021   4.270   6.457   6.532  0.0038 -0.1763  0.8167
    8SAPS   C35 1022   4.477   6.427   6.511  0.5496  0.1665 -0.0377
    8SAPS   H5X 1023   4.481   6.361   6.601  1.5229 -0.7364 -0.7230
    8SAPS   H5Y 1024   4.570   6.487   6.505  1.1158 -0.8814 -3.1450
    8SAPS   C36 1025   4.463   6.348   6.382 -0.9121  0.6051  0.3497
    8SAPS   H6X 1026   4.442   6.419   6.300 -2.4465  0.5720  0.6865
    8SAPS   H6Y 1027   4.364   6.298   6.379 -0.5216 -0.2175  0.7137
    8SAPS   C37 1028   4.578   6.246   6.349 -0.7658  0.5061  0.6373
    8SAPS   H7X 1029   4.583   6.167   6.427  0.9609 -1.4019 -1.2777
    8SAPS   H7Y 1030   4.679   6.292   6.349 -0.9640  0.9614 -0.6177
    8SAPS   C38 1031   4.554   6.188   6.203  0.0950  0.0128 -0.4289
    8SAPS   H8X 1032   4.578   6.272   6.135  0.7684 -1.5252 -2.1610
    8SAPS   H8Y 1033   4.448   6.158   6.188 -0.2626  0.2748  1.3303
    8SAPS   C39 1034   4.642   6.075   6.160 -0.7658 -0.9938  0.6721
    8SAPS   H9X 1035   4.649   5.993   6.234  1.3813 -1.4601  0.0235
    8SAPS   H9Y 1036   4.745   6.116   6.161 -0.6902 -1.1640 -0.0479
    8SAPS  C310 1037   4.618   6.021   6.015 -0.3453  0.8172 -0.1408
    8SAPS  H10X 1038   4.602   6.112   5.954  2.1864  1.6458  0.2876
    8SAPS  H10Y 1039   4.521   5.968   6.013  0.3294 -0.5605  1.5239
    8SAPS  C311 1040   4.725   5.938   5.942  0.2685 -0.1300 -0.5893
    8SAPS  H11X 1041   4.761   5.853   6.004  0.0750 -0.0064 -0.3056
    8SAPS  H11Y 1042   4.811   6.008   5.936  0.7223 -0.6476 -0.2363
    8SAPS  C312 1043   4.694   5.899   5.796 -0.4379  0.4257  0.5781
    8SAPS  H12X 1044   4.619   5.819   5.813  3.0102 -2.5467  3.4406
    8SAPS  H12Y 1045   4.786   5.849   5.759 -0.9174 -0.5389  0.6641
    8SAPS  C313 1046   4.643   6.006   5.698 -0.9465 -0.2955 -0.0238
    8SAPS  H13X 1047   4.725   6.081   5.697 -0.9981 -0.1899  1.5365
    8SAPS  H13Y 1048   4.546   6.046   5.734  0.1420  1.7610  0.7854
    8SAPS  C314 1049   4.651   5.945   5.559  0.6531  0.3876  0.1366
    8SAPS  H14X 1050   4.581   5.860   5.546  0.6292  0.4527 -0.1638
    8SAPS  H14Y 1051   4.755   5.908   5.547 -0.1988 -1.1138 -5.9748
    8SAPS  C315 1052   4.624   6.041   5.452  0.5903 -0.1775  0.1407
    8SAPS  H15X 1053   4.706   6.036   5.378  1.0420  0.7535  0.5553
    8SAPS  H15Y 1054   4.630   6.148   5.482 -0.8507 -0.2048  0.5916
    8SAPS  C316 1055   4.493   6.021   5.371 -0.3243 -0.0677  0.5136
    8SAPS  H16X 1056   4.402   6.025   5.435 -3.0154  2.7254 -3.0968
    8SAPS  H16Y 1057   4.508   5.929   5.311 -1.1865 -0.2919  0.6337
    8SAPS  C317 1058   4.466   6.136   5.269 -0.6045  0.2769 -0.2995
    8SAPS  H17X 1059   4.560   6.160   5.214  0.4294 -0.7039  0.9686
    8SAPS  H17Y 1060   4.429   6.225   5.324  0.5865  0.5967  0.0296
    8SAPS  C318 1061   4.351   6.093   5.184  0.3802  0.1582 -0.2657
    8SAPS  H18X 1062   4.308   6.179   5.129 -0.7042  0.1927  0.6159
    8SAPS  H18Y 1063   4.275   6.047   5.250  1.4207 -2.2295 -0.6230
    8SAPS  H18Z 1064   4.381   6.021   5.105  4.1678  2.9062 -1.6309
    9SAPS     N 1065   2.279   0.699   7.427  0.6871  0.2740 -0.1060
    9SAPS   HN1 1066   2.251   0.793   7.459  0.8100 -0.4197  2.1944
    9SAPS   HN2 1067   2.331   0.680   7.339  0.3117  0.1587 -0.3050
    9SAPS   HN3 1068   2.191   0.643   7.424  1.0095 -0.4152  1.9765
    9SAPS   C12 1069   2.355   0.645   7.538  0.9420  0.8030 -0.1929
    9SAPS  H12A 1070   2.447   0.702   7.528 -0.0412  2.4223 -0.3559
    9SAPS   C13 1071   2.313   0.676   7.682 -0.0850  0.3445  0.0426
    9SAPS  O13A 1072   2.207   0.731   7.694  0.8871 -0.8616  0.5574
    9SAPS  O13B 1073   2.376   0.633   7.784 -0.0320 -0.3384  0.2442
    9SAPS   C11 1074   2.402   0.501   7.508  0.2481  0.1286 -0.3227
    9SAPS  H11A 1075   2.325   0.421   7.499  1.4210 -0.8998 -1.9326
    9SAPS  H11B 1076   2.469   0.479   7.593 -0.5145 -2.5428 -0.3258
    9SAPS     P 1077   2.535   0.370   7.330  0.4128  0.2000 -0.3470
    9SAPS   O13 1078   2.653   0.332   7.415 -0.0454 -0.8039  0.1778
    9SAPS   O14 1079   2.429   0.267   7.313  0.3513 -0.1368  0.5404
    9SAPS   O12 1080   2.464   0.503   7.380  0.4691  0.1968 -0.0702
    9SAPS   O11 1081   2.581   0.415   7.192 -0.1251  1.0240  0.0987
    9SAPS    C1 1082   2.496   0.443   7.087 -0.2335  0.1251  0.2310
    9SAPS    HA 1083   2.405   0.492   7.126  0.0975  0.7589  0.2221
    9SAPS    HB 1084   2.552   0.510   7.017 -0.0694 -0.4914 -0.2404
    9SAPS    C2 1085   2.462   0.329   6.989  1.1010 -0.8824  0.1581
    9SAPS    HS 1086   2.421   0.249   7.054 -1.3715  0.9584  1.0432
    9SAPS   O21 1087   2.581   0.294   6.923  0.2556 -0.1189  0.0025
    9SAPS   C21 1088   2.571   0.175   6.868 -0.2071  0.5923 -0.0517
    9SAPS   O22 1089   2.480   0.096   6.882  0.1981 -0.6867  0.5584
    9SAPS   C22 1090   2.700   0.152   6.779  0.6816 -0.2447 -0.8214
    9SAPS   H2R 1091   2.785   0.220   6.801  1.4566 -0.9344 -1.6141
    9SAPS   H2S 1092   2.740   0.053   6.808  0.7334  0.7796  3.0701
    9SAPS    C3 1093   2.344   0.357   6.887 -0.2764 -0.4382  0.1377
    9SAPS    HX 1094   2.256   0.394   6.943  0.6401 -0.0492  1.3725
    9SAPS    HY 1095   2.310   0.266   6.833 -1.6303 -0.4551  0.9789
    9SAPS   O31 1096   2.380   0.442   6.777 -0.2421  0.1881 -0.6749
    9SAPS   C31 1097   2.391   0.574   6.799 -1.0676  0.4756  0.1063
    9SAPS   O32 1098   2.369   0.632   6.901  0.3704  0.1854 -0.2252
    9SAPS   C32 1099   2.435   0.639   6.667 -0.1425 -0.2447 -0.0495
    9SAPS   H2X 1100   2.487   0.570   6.597 -0.3234  0.5215 -0.9534
    9SAPS   H2Y 1101   2.510   0.718   6.689  0.6273 -0.3071 -2.1672
    9SAPS   C23 1102   2.664   0.168   6.630  0.1817  1.1373 -0.2512
    9SAPS   H3R 1103   2.634   0.272   6.604 -1.1255  0.8318 -0.0319
    9SAPS   H3S 1104   2.578   0.100   6.608  2.2001 -1.0659 -1.7899
    9SAPS   C24 1105   2.782   0.123   6.540 -0.5457  0.0344  0.8258
    9SAPS   H4R 1106   2.825   0.024   6.565  1.5939  0.9884  1.1795
    9SAPS   H4S 1107   2.865   0.197   6.545  0.7749 -1.3391  0.0815
    9SAPS   C25 1108   2.732   0.136   6.400  0.3969  0.0311  0.4515
    9SAPS   H5R 1109   2.631   0.176   6.388  0.0106 -0.1863  2.6652
    9SAPS   C26 1110   2.787   0.085   6.291 -0.7903  0.0591  0.5336
    9SAPS   H6R 1111   2.736   0.103   6.195 -0.1822  0.6403  0.3110
    9SAPS   C27 1112   2.922   0.021   6.284 -0.1732  0.1740  0.5301
    9SAPS   H7R 1113   2.956  -0.041   6.370 -0.4544 -0.4119  0.2233
    9SAPS   H7S 1114   3.000   0.099   6.289  1.0258 -0.7564 -1.9316
    9SAPS   C28 1115   2.941  -0.070   6.163  0.6613  0.5360 -0.5827
    9SAPS   H8R 1116   2.906  -0.174   6.175 -1.6563  1.2322 -0.8497
    9SAPS   C29 1117   2.984  -0.034   6.043 -0.6024  0.2913 -0.7457
    9SAPS   H9R 1118   2.995  -0.105   5.960  1.8002  1.0676 -1.1468
    9SAPS  C210 1119   3.038   0.106   6.004 -0.1302  0.7822  0.0779
    9SAPS  H10R 1120   3.048   0.183   6.083  5.9139 -1.4659  2.1086
    9SAPS  H10S 1121   2.965   0.149   5.933 -1.2525  1.6052  1.6645
    9SAPS  C211 1122   3.166   0.083   5.928 -0.0194 -0.5807  0.1789
    9SAPS  H11R 1123   3.256   0.080   5.991 -1.5288 -0.6901  2.4283
    9SAPS  C212 1124   3.180   0.087   5.790  0.2006  0.6887  0.2551
    9SAPS  H12R 1125   3.277   0.062   5.744  0.0853  0.5085  0.1107
    9SAPS  C213 1126   3.062   0.097   5.694 -0.6154 -0.2417 -0.0569
    9SAPS  H13R 1127   3.038   0.204   5.679  0.1006 -0.0526  0.1449
    9SAPS  H13S 1128   2.974   0.051   5.744 -0.5604  0.2114  0.4639
    9SAPS  C214 1129   3.077   0.013   5.570  0.2801 -0.7388  0.3774
    9SAPS  H14R 1130   3.148  -0.071   5.579  1.3536  0.1109 -0.0188
    9SAPS  C215 1131   3.021   0.046   5.453 -0.1661  0.4763 -0.3278
    9SAPS  H15R 1132   3.021  -0.031   5.373 -2.7769 -0.4727  0.4822
    9SAPS  C216 1133   2.915   0.150   5.434 -0.1939  0.0300 -0.1842
    9SAPS  H16R 1134   2.964   0.246   5.408  0.2798  0.0001  0.5759
    9SAPS  H16S 1135   2.863   0.171   5.530  0.7045  0.4747  0.2182
    9SAPS  C217 1136   2.814   0.111   5.320 -0.5656  0.7041  0.3024
    9SAPS  H17R 1137   2.861   0.106   5.220 -3.4071  0.2095 -1.1312
    9SAPS  H17S 1138   2.736   0.190   5.313 -1.5386 -0.2826 -0.4150
    9SAPS  C218 1139   2.732  -0.016   5.358  0.1510 -0.2263  0.7826
    9SAPS  H18R 1140   2.673  -0.010   5.451 -3.9504  1.3812 -1.6698
    9SAPS  H18S 1141   2.803  -0.101   5.372  0.1865 -0.6004 -1.3045
    9SAPS  C219 1142   2.627  -0.054   5.249  0.4105 -0.4757  0.2083
    9SAPS  H19R 1143   2.671  -0.079   5.150  0.2723  0.6206 -0.1479
    9SAPS  H19S 1144   2.555   0.030   5.239 -0.0499 -0.6964  1.4541
    9SAPS  C220 1145   2.536  -0.176   5.289  0.3297 -0.4686 -0.1465
    9SAPS  H20R 1146   2.595  -0.262   5.329  0.2466 -0.1404  0.6999
    9SAPS  H20S 1147   2.488  -0.209   5.195 -0.7818  1.3405 -0.2540
    9SAPS  H20T 1148   2.457  -0.148   5.362 -0.0770 -0.2544 -0.6735
    9SAPS   C33 1149   2.323   0.723   6.590  0.0384 -0.9829  0.6982
    9SAPS   H3X 1150   2.283   0.794   6.666 -0.1135 -0.3242  0.0083
    9SAPS   H3Y 1151   2.243   0.650   6.565  1.0229 -2.1783  0.9530
    9SAPS   C34 1152   2.365   0.794   6.459  0.2291  0.2289  0.3363
    9SAPS   H4X 1153   2.406   0.717   6.390 -1.4952  0.1326 -0.6470
    9SAPS   H4Y 1154   2.443   0.865   6.492 -1.1126  0.5420  3.0559
    9SAPS   C35 1155   2.247   0.873   6.405  0.6688 -0.2611  0.2283
    9SAPS   H5X 1156   2.231   0.968   6.459 -0.4475 -0.5659  0.4756
    9SAPS   H5Y 1157   2.153   0.814   6.418 -1.4122  2.8303  0.3700
    9SAPS   C36 1158   2.252   0.911   6.259 -1.2105  0.1799  0.1917
    9SAPS   H6X 1159   2.350   0.961   6.243  0.1438 -2.5830 -0.6316
    9SAPS   H6Y 1160   2.174   0.989   6.240 -0.2688  1.3712  1.1339
    9SAPS   C37 1161   2.223   0.795   6.157  0.0984  0.4680 -0.0260
    9SAPS   H7X 1162   2.117   0.767   6.141  0.4887 -2.3807  1.7156
    9SAPS   H7Y 1163   2.272   0.703   6.194 -2.9585 -0.4617  2.0820
    9SAPS   C38 1164   2.275   0.813   6.014 -0.6756 -1.1275  0.6254
    9SAPS   H8X 1165   2.383   0.838   6.016 -0.8207 -0.3811 -0.1642
    9SAPS   H8Y 1166   2.229   0.904   5.971  1.2861  0.2112  1.2322
    9SAPS   C39 1167   2.281   0.688   5.923  0.0068  0.0205  0.0263
    9SAPS   H9X 1168   2.184   0.640   5.898  0.1479  1.3387 -3.4915
    9SAPS   H9Y 1169   2.342   0.614   5.979 -0.9539 -0.2847  0.7200
    9SAPS  C310 1170   2.346   0.725   5.784 -0.3568 -0.0155  0.1868
    9SAPS  H10X 1171   2.441   0.770   5.820 -0.7357 -1.7813  3.8737
    9SAPS  H10Y 1172   2.288   0.810   5.741 -0.4886 -0.1060  0.1868
    9SAPS  C311 1173   2.378   0.613   5.686  0.8719 -0.2322 -0.4835
    9SAPS  H11X 1174   2.282   0.566   5.656  1.1235 -0.1641 -1.4329
    9SAPS  H11Y 1175   2.443   0.532   5.726 -1.2202 -3.2245 -2.6599
    9SAPS  C312 1176   2.437   0.663   5.554  0.1219  0.4105  0.3597
    9SAPS  H12X 1177   2.531   0.721   5.568  0.3082  0.1744  0.1078
    9SAPS  H12Y 1178   2.361   0.736   5.519 -0.9997  0.0536  1.9529
    9SAPS  C313 1179   2.485   0.564   5.450  0.4978 -0.4919  0.0175
    9SAPS  H13X 1180   2.564   0.502   5.497  0.3541  0.8331  2.1200
    9SAPS  H13Y 1181   2.532   0.623   5.369 -1.6221 -0.0114 -0.9188
    9SAPS  C314 1182   2.372   0.472   5.398 -0.6880 -0.4388  0.1133
    9SAPS  H14X 1183   2.285   0.525   5.355 -1.2919 -0.8463  0.8108
    9SAPS  H14Y 1184   2.334   0.432   5.495 -1.1267  0.2520  0.2351
    9SAPS  C315 1185   2.400   0.357   5.312 -0.0649 -0.1102  0.0698
    9SAPS  H15X 1186   2.310   0.293   5.324 -0.7559  0.5174 -1.4703
    9SAPS  H15Y 1187   2.487   0.299   5.350  1.5217  1.3154 -1.2220
    9SAPS  C316 1188   2.428   0.367   5.162 -0.3665 -0.4682  0.1776
    9SAPS  H16X 1189   2.352   0.423   5.103 -1.2874 -0.7733  1.0424
    9SAPS  H16Y 1190   2.432   0.268   5.113 -1.3396 -0.2919 -0.2825
    9SAPS  C317 1191   2.566   0.426   5.136  0.4532  0.1648 -0.9620
    9SAPS  H17X 1192   2.650   0.368   5.179  1.6464  1.9477 -0.7916
    9SAPS  H17Y 1193   2.577   0.522   5.190 -0.9061 -0.9510  1.4968
    9SAPS  C318 1194   2.580   0.462   4.991 -0.2017  0.8476 -0.3000
    9SAPS  H18X 1195   2.680   0.507   4.970  0.8956 -0.7292  1.1927
    9SAPS  H18Y 1196   2.502   0.535   4.963 -1.0884  0.8654  2.0089
    9SAPS  H18Z 1197   2.560   0.376   4.923 -0.2539  1.0291 -0.5157
   10SAPS     N 1198   2.379   5.674   7.474  0.0866 -0.0827  0.5772
   10SAPS   HN1 1199   2.466   5.676   7.532 -0.4292  1.3847  1.3315
   10SAPS   HN2 1200   2.365   5.767   7.430 -1.7885 -0.0639  1.1406
   10SAPS   HN3 1201   2.295   5.676   7.535 -1.7042  0.3768 -1.7502
   10SAPS   C12 1202   2.377   5.563   7.376  0.0080  0.2792 -0.2048
   10SAPS  H12A 1203   2.467   5.581   7.319  0.3415 -1.6771 -0.3458
   10SAPS   C13 1204   2.400   5.417   7.432  0.6505 -0.5200 -0.3567
   10SAPS  O13A 1205   2.381   5.391   7.550 -0.2381 -0.2878  0.1373
   10SAPS  O13B 1206   2.438   5.328   7.354 -0.6427  0.2282  0.1218
   10SAPS   C11 1207   2.256   5.581   7.283  0.3766  0.2737 -0.4475
   10SAPS  H11A 1208   2.171   5.542   7.342  1.1687  0.7093  1.0167
   10SAPS  H11B 1209   2.268   5.524   7.188 -0.6527  1.3937 -1.2756
   10SAPS     P 1210   2.199   5.785   7.117 -0.0393  0.2847 -0.2989
   10SAPS   O13 1211   2.072   5.720   7.067  0.3801  0.1780  0.6213
   10SAPS   O14 1212   2.203   5.928   7.117  0.0543  0.5038 -0.3210
   10SAPS   O12 1213   2.236   5.718   7.259  0.2882  0.1362 -0.0266
   10SAPS   O11 1214   2.324   5.743   7.035  0.0580 -0.1979  0.6641
   10SAPS    C1 1215   2.460   5.786   7.069  0.2171 -0.3980 -0.2092
   10SAPS    HA 1216   2.460   5.871   7.141  2.1235  0.5043 -1.2119
   10SAPS    HB 1217   2.518   5.706   7.121 -0.6028 -0.5881  0.4480
   10SAPS    C2 1218   2.533   5.831   6.938 -0.3833  0.4439  0.3207
   10SAPS    HS 1219   2.642   5.849   6.930 -0.2389 -1.1926 -2.7577
   10SAPS   O21 1220   2.455   5.943   6.886  0.0865 -0.3335  0.0719
   10SAPS   C21 1221   2.501   6.060   6.936  0.0643 -0.1427 -0.6516
   10SAPS   O22 1222   2.595   6.067   7.017  0.3293  0.1525  0.2020
   10SAPS   C22 1223   2.417   6.175   6.890 -0.3414 -0.5819 -0.4889
   10SAPS   H2R 1224   2.362   6.149   6.798 -1.1339  0.2417 -0.2656
   10SAPS   H2S 1225   2.355   6.190   6.981 -0.4139  0.5205 -0.6941
   10SAPS    C3 1226   2.528   5.712   6.839  0.6908 -0.0296 -0.2098
   10SAPS    HX 1227   2.422   5.688   6.815  1.5423 -2.7248 -1.6473
   10SAPS    HY 1228   2.569   5.622   6.889 -1.1214  0.2289  1.8901
   10SAPS   O31 1229   2.610   5.741   6.721 -0.5320 -0.6346  0.3112
   10SAPS   C31 1230   2.608   5.636   6.636  0.1367 -0.6401  0.9661
   10SAPS   O32 1231   2.562   5.526   6.662  0.5859 -0.1972  0.1323
   10SAPS   C32 1232   2.683   5.685   6.518 -0.3155 -0.1815  0.4164
   10SAPS   H2X 1233   2.789   5.714   6.533 -0.3229 -0.4501  1.0133
   10SAPS   H2Y 1234   2.630   5.779   6.489  0.0399  0.4194  1.6377
   10SAPS   C23 1235   2.499   6.302   6.867  0.0352 -0.0319 -0.5209
   10SAPS   H3R 1236   2.573   6.320   6.948 -0.0152  0.2125 -0.5283
   10SAPS   H3S 1237   2.435   6.392   6.884  0.2301 -0.1189  0.8078
   10SAPS   C24 1238   2.573   6.312   6.736  0.1420 -0.0569  0.4967
   10SAPS   H4R 1239   2.627   6.215   6.729  0.1396 -0.2363  2.5094
   10SAPS   H4S 1240   2.649   6.393   6.739 -0.0458  0.2249 -1.2663
   10SAPS   C25 1241   2.497   6.341   6.610  0.1471  0.3377 -0.2827
   10SAPS   H5R 1242   2.448   6.439   6.614  0.4722  0.4826  0.3321
   10SAPS   C26 1243   2.476   6.259   6.503  0.3665 -0.5517  0.3421
   10SAPS   H6R 1244   2.418   6.300   6.419 -0.0881  1.8344  1.7196
   10SAPS   C27 1245   2.533   6.125   6.475 -0.3255  0.3501 -0.1167
   10SAPS   H7R 1246   2.605   6.091   6.552  0.1237  1.1149 -0.1881
   10SAPS   H7S 1247   2.583   6.139   6.376 -1.9608  2.0885 -0.7586
   10SAPS   C28 1248   2.420   6.021   6.475  0.1224 -0.3356 -1.2484
   10SAPS   H8R 1249   2.389   5.994   6.577  2.2684 -0.9908 -0.7140
   10SAPS   C29 1250   2.373   5.956   6.370 -0.4615  0.7620  0.3532
   10SAPS   H9R 1251   2.282   5.896   6.388  0.7351 -0.5366  2.4470
   10SAPS  C210 1252   2.405   5.971   6.222 -0.7334 -0.1859  0.5369
   10SAPS  H10R 1253   2.367   6.071   6.193 -1.1889 -0.1277  1.3095
   10SAPS  H10S 1254   2.349   5.895   6.163  0.1119 -2.3442  2.3792
   10SAPS  C211 1255   2.545   5.967   6.170  0.0663 -0.0013  0.3796
   10SAPS  H11R 1256   2.616   5.945   6.250  0.0995  1.6799  0.8569
   10SAPS  C212 1257   2.581   5.979   6.041  0.6902  0.0673  0.6784
   10SAPS  H12R 1258   2.686   5.965   6.013  0.8218  2.5606 -0.3072
   10SAPS  C213 1259   2.492   6.003   5.921 -0.1832 -0.7806  0.1288
   10SAPS  H13R 1260   2.384   6.002   5.949 -0.2854 -0.7052 -0.2647
   10SAPS  H13S 1261   2.505   5.915   5.855 -0.2717 -0.0165 -0.9209
   10SAPS  C214 1262   2.529   6.129   5.847 -0.0500  0.4273  0.1428
   10SAPS  H14R 1263   2.489   6.224   5.886  0.3035  1.0449 -0.9561
   10SAPS  C215 1264   2.621   6.140   5.752  0.2505  0.2253  0.3816
   10SAPS  H15R 1265   2.653   6.238   5.714 -0.6844 -0.0494 -1.1738
   10SAPS  C216 1266   2.694   6.028   5.685 -0.2444  0.2166  0.1027
   10SAPS  H16R 1267   2.665   5.922   5.703  0.7280 -0.4636 -2.0332
   10SAPS  H16S 1268   2.802   6.032   5.713 -0.0443 -1.4447 -0.3378
   10SAPS  C217 1269   2.687   6.035   5.528  0.9436  0.2187  0.2420
   10SAPS  H17R 1270   2.717   6.132   5.483  1.2332 -0.2558 -0.6116
   10SAPS  H17S 1271   2.580   6.022   5.500  1.5782 -0.9342 -1.8588
   10SAPS  C218 1272   2.771   5.924   5.458 -0.1994 -0.0836 -0.8043
   10SAPS  H18R 1273   2.739   5.824   5.496 -3.1359  1.4260  1.0244
   10SAPS  H18S 1274   2.876   5.932   5.496  0.0510 -0.0634 -1.4879
   10SAPS  C219 1275   2.774   5.920   5.305  0.5204 -0.0711 -0.2307
   10SAPS  H19R 1276   2.865   5.860   5.282 -0.8603 -1.3496 -2.7549
   10SAPS  H19S 1277   2.779   6.023   5.263  1.5181  0.4195  1.0239
   10SAPS  C220 1278   2.642   5.855   5.254 -0.6446 -0.2670  0.1225
   10SAPS  H20R 1279   2.565   5.935   5.262  2.1536  2.6187  0.4620
   10SAPS  H20S 1280   2.623   5.772   5.326  1.1190  0.7806  1.9208
   10SAPS  H20T 1281   2.648   5.820   5.149  0.2513 -1.0170  0.4057
   10SAPS   C33 1282   2.681   5.580   6.410 -0.0157 -0.2631  0.2867
   10SAPS   H3X 1283   2.574   5.565   6.383 -0.7669  1.5403  2.0275
   10SAPS   H3Y 1284   2.718   5.484   6.452  0.7771  0.4135  1.1774
   10SAPS   C34 1285   2.753   5.626   6.281 -0.1396  0.0879 -0.5086
   10SAPS   H4X 1286   2.862   5.602   6.284 -0.1446 -0.0951  3.5495
   10SAPS   H4Y 1287   2.732   5.735   6.269 -0.5998  0.1416  0.6780
   10SAPS   C35 1288   2.691   5.571   6.153 -0.0972 -0.1049  0.0961
   10SAPS   H5X 1289   2.582   5.588   6.138  0.1999  2.9448  0.6639
   10SAPS   H5Y 1290   2.693   5.460   6.144 -0.2210 -0.0546 -0.6284
   10SAPS   C36 1291   2.752   5.641   6.031  0.5105  0.0609  0.0817
   10SAPS   H6X 1292   2.862   5.640   6.045  0.4586  1.4316  0.7414
   10SAPS   H6Y 1293   2.721   5.747   6.024  0.4493  0.0010 -0.7028
   10SAPS   C37 1294   2.735   5.570   5.893  0.5503  0.0982  0.0684
   10SAPS   H7X 1295   2.803   5.483   5.888  0.6607  0.2065 -0.3529
   10SAPS   H7Y 1296   2.775   5.631   5.809  1.4712 -1.7959 -0.9187
   10SAPS   C38 1297   2.587   5.518   5.868 -0.5438  0.7051 -0.5011
   10SAPS   H8X 1298   2.524   5.607   5.848 -0.8311  1.1506  2.1090
   10SAPS   H8Y 1299   2.551   5.464   5.957  0.1779  1.6165  0.3672
   10SAPS   C39 1300   2.586   5.425   5.749  0.1703  0.3562 -0.1778
   10SAPS   H9X 1301   2.483   5.390   5.727 -0.7625  2.9297 -0.2129
   10SAPS   H9Y 1302   2.653   5.339   5.773  1.0831  1.1115  0.0386
   10SAPS  C310 1303   2.623   5.492   5.617 -0.5623 -0.1212 -0.5381
   10SAPS  H10X 1304   2.722   5.541   5.631 -2.0715  3.3880 -1.0090
   10SAPS  H10Y 1305   2.548   5.572   5.598  0.6701  1.8623  2.1619
   10SAPS  C311 1306   2.633   5.394   5.498 -0.1742 -0.5815 -0.1500
   10SAPS  H11X 1307   2.529   5.361   5.479 -0.3442 -1.6172  2.2058
   10SAPS  H11Y 1308   2.699   5.307   5.522 -1.2530 -1.1025  1.0725
   10SAPS  C312 1309   2.695   5.444   5.369  0.0768  0.2154 -0.8273
   10SAPS  H12X 1310   2.802   5.472   5.385  0.5387 -1.5759 -0.6279
   10SAPS  H12Y 1311   2.648   5.538   5.333  0.5633  0.5838 -0.5177
   10SAPS  C313 1312   2.681   5.337   5.262  0.0467  0.1558  1.0529
   10SAPS  H13X 1313   2.580   5.293   5.253 -0.8358  2.4207 -2.0899
   10SAPS  H13Y 1314   2.749   5.251   5.280 -1.8591 -2.0246 -1.3795
   10SAPS  C314 1315   2.712   5.395   5.114 -0.2104  0.0845  0.3554
   10SAPS  H14X 1316   2.635   5.472   5.090  1.2242  0.2764 -4.5516
   10SAPS  H14Y 1317   2.692   5.322   5.034  1.9733 -0.6902  0.4616
   10SAPS  C315 1318   2.855   5.450   5.117  0.8055  0.0635 -0.4242
   10SAPS  H15X 1319   2.911   5.366   5.163 -0.1593  0.2839  1.2631
   10SAPS  H15Y 1320   2.869   5.530   5.193 -1.7305  0.2127 -0.0076
   10SAPS  C316 1321   2.909   5.483   4.978  0.2270  1.0614  0.4011
   10SAPS  H16X 1322   2.854   5.570   4.936 -2.5450 -0.8365 -0.1655
   10SAPS  H16Y 1323   2.868   5.399   4.918  1.2573 -0.3134  1.5336
   10SAPS  C317 1324   3.058   5.503   4.961 -0.3599 -0.9905 -0.1624
   10SAPS  H17X 1325   3.083   5.471   4.858 -0.6792 -1.7451 -0.0152
   10SAPS  H17Y 1326   3.119   5.432   5.020  0.6863 -1.7940 -2.1236
   10SAPS  C318 1327   3.121   5.646   4.972  0.7293  0.0300  1.5775
   10SAPS  H18X 1328   3.097   5.691   5.071  2.1229  4.3147  0.1671
   10SAPS  H18Y 1329   3.084   5.708   4.888  0.1744 -1.6839  0.4974
   10SAPS  H18Z 1330   3.230   5.624   4.964  0.2954 -1.6737 -0.6987
   11SAPS     N 1331   5.153   4.447   2.380 -0.3601 -0.2986  0.0111
   11SAPS   HN1 1332   5.232   4.455   2.313 -0.5725  1.1857 -0.1143
   11SAPS   HN2 1333   5.128   4.543   2.414 -1.3874  1.0918 -4.1292
   11SAPS   HN3 1334   5.197   4.387   2.453  3.4057  0.1985 -1.6293
   11SAPS   C12 1335   5.039   4.394   2.308  0.3019  0.7024  0.3093
   11SAPS  H12A 1336   5.011   4.461   2.228 -2.4464 -1.7793 -1.0004
   11SAPS   C13 1337   5.062   4.255   2.244  0.1760  0.6329 -0.0503
   11SAPS  O13A 1338   5.167   4.192   2.268  0.3034  1.0138 -0.2333
   11SAPS  O13B 1339   5.003   4.240   2.134 -0.3380 -0.0872  0.5162
   11SAPS   C11 1340   4.913   4.386   2.401  0.4088  0.3728  0.3033
   11SAPS  H11A 1341   4.926   4.304   2.474 -0.4508  0.7949  0.9597
   11SAPS  H11B 1342   4.826   4.358   2.336  0.9235 -2.2333  0.6529
   11SAPS     P 1343   4.769   4.532   2.570  0.0361 -0.0520 -0.0053
   11SAPS   O13 1344   4.736   4.677   2.582  0.0523  0.4285  0.2532
   11SAPS   O14 1345   4.660   4.440   2.535  0.2143 -0.3677 -0.5330
   11SAPS   O12 1346   4.880   4.521   2.462  0.1201  0.4848  0.2520
   11SAPS   O11 1347   4.836   4.490   2.708 -0.1033  0.2217  0.3000
   11SAPS    C1 1348   4.957   4.559   2.760  0.7129  0.0976  0.6887
   11SAPS    HA 1349   5.053   4.534   2.710  1.7619 -0.8453  3.0138
   11SAPS    HB 1350   4.943   4.669   2.749  0.4020 -0.0958 -1.0922
   11SAPS    C2 1351   4.976   4.525   2.914 -0.4145  0.2687 -1.0931
   11SAPS    HS 1352   5.000   4.416   2.912 -1.7810 -0.1046  0.3222
   11SAPS   O21 1353   4.853   4.554   2.986  0.4559 -0.6700  0.4271
   11SAPS   C21 1354   4.817   4.468   3.082 -0.3553  0.0962  0.3003
   11SAPS   O22 1355   4.885   4.372   3.113  0.2159  0.0763 -0.4469
   11SAPS   C22 1356   4.677   4.501   3.132 -0.2683  0.2285  0.5774
   11SAPS   H2R 1357   4.680   4.586   3.204 -1.3212  1.6673 -1.0142
   11SAPS   H2S 1358   4.628   4.544   3.042  0.3798 -0.3063 -0.0415
   11SAPS    C3 1359   5.095   4.610   2.961  0.9917 -0.1889 -0.3995
   11SAPS    HX 1360   5.064   4.716   2.952  1.1907 -0.2271 -1.7373
   11SAPS    HY 1361   5.182   4.599   2.893  1.7698  2.6705 -0.0096
   11SAPS   O31 1362   5.124   4.578   3.099  0.1289 -0.2716  0.1852
   11SAPS   C31 1363   5.167   4.674   3.184 -0.6584  0.4957 -0.1185
   11SAPS   O32 1364   5.190   4.788   3.147 -0.5456 -0.2367 -0.5754
   11SAPS   C32 1365   5.198   4.619   3.317  0.4479  0.5882 -0.3531
   11SAPS   H2X 1366   5.288   4.555   3.307 -1.1831 -1.5702 -2.7589
   11SAPS   H2Y 1367   5.107   4.563   3.349 -0.6552  2.1158 -0.7215
   11SAPS   C23 1368   4.592   4.383   3.163  0.0964 -0.6116 -0.4411
   11SAPS   H3R 1369   4.621   4.296   3.101 -1.3119 -1.8076  0.4863
   11SAPS   H3S 1370   4.486   4.418   3.157  0.0449 -0.6876 -0.0085
   11SAPS   C24 1371   4.610   4.344   3.313  0.4558  0.0700  0.6444
   11SAPS   H4R 1372   4.592   4.439   3.367  0.9996  1.0244 -0.8097
   11SAPS   H4S 1373   4.717   4.319   3.333  0.5807 -1.6114 -1.6733
   11SAPS   C25 1374   4.508   4.235   3.340 -0.3019  0.3755  0.4077
   11SAPS   H5R 1375   4.465   4.191   3.248 -0.6591 -2.6757  1.9200
   11SAPS   C26 1376   4.473   4.195   3.463 -0.0971  0.4816 -0.3779
   11SAPS   H6R 1377   4.401   4.114   3.482 -0.0920  1.1710  3.4203
   11SAPS   C27 1378   4.523   4.258   3.593 -0.3278 -0.0899 -0.0748
   11SAPS   H7R 1379   4.618   4.313   3.578 -1.3268  1.3517 -1.3637
   11SAPS   H7S 1380   4.547   4.183   3.672  1.0657  2.1793  1.7603
   11SAPS   C28 1381   4.421   4.363   3.643 -0.6908  0.0404 -0.1203
   11SAPS   H8R 1382   4.388   4.441   3.572  1.2226 -0.0898 -1.1997
   11SAPS   C29 1383   4.411   4.388   3.777  0.4633  0.6269 -0.3271
   11SAPS   H9R 1384   4.351   4.475   3.809 -2.4675 -0.5140 -2.2476
   11SAPS  C210 1385   4.472   4.310   3.887 -0.2042  0.8760 -0.0487
   11SAPS  H10R 1386   4.472   4.385   3.969  0.8239 -0.8827  1.6383
   11SAPS  H10S 1387   4.578   4.287   3.860 -1.1476 -0.1702 -3.4436
   11SAPS  C211 1388   4.398   4.186   3.927 -0.0112 -0.4848  0.0025
   11SAPS  H11R 1389   4.380   4.114   3.846  0.5577 -0.0935 -0.4767
   11SAPS  C212 1390   4.350   4.165   4.060 -0.1826  0.0923  0.2175
   11SAPS  H12R 1391   4.299   4.070   4.080  2.7397 -1.3514  1.2064
   11SAPS  C213 1392   4.381   4.247   4.179 -0.4403  0.4230 -0.0185
   11SAPS  H13R 1393   4.298   4.319   4.197  0.9184  1.9836  0.1758
   11SAPS  H13S 1394   4.459   4.322   4.157 -1.3884  0.9510 -1.7857
   11SAPS  C214 1395   4.413   4.170   4.302  0.4118 -0.9014  0.0220
   11SAPS  H14R 1396   4.516   4.161   4.339  0.8255  0.2391 -0.8166
   11SAPS  C215 1397   4.310   4.118   4.370 -0.1686  0.4342 -0.4960
   11SAPS  H15R 1398   4.320   4.048   4.454 -1.4328 -0.2709 -0.9030
   11SAPS  C216 1399   4.162   4.135   4.346  0.2392  0.0781  0.6421
   11SAPS  H16R 1400   4.142   4.093   4.245 -0.2745 -0.4190  0.9463
   11SAPS  H16S 1401   4.138   4.244   4.351  3.1535  0.7551  2.5630
   11SAPS  C217 1402   4.083   4.063   4.444  0.2179  0.2875  0.3518
   11SAPS  H17R 1403   4.102   3.953   4.444 -3.2562 -0.5063  2.8258
   11SAPS  H17S 1404   3.977   4.072   4.411  0.1797 -1.7788 -0.2301
   11SAPS  C218 1405   4.075   4.121   4.592 -0.5144 -0.1794  0.3637
   11SAPS  H18R 1406   4.021   4.218   4.581 -0.5989 -0.3539 -1.0221
   11SAPS  H18S 1407   4.173   4.134   4.644 -0.0265  0.6006 -0.7028
   11SAPS  C219 1408   3.992   4.039   4.681 -0.2253 -0.9571 -0.3901
   11SAPS  H19R 1409   4.029   3.934   4.679 -0.4625 -1.0698 -3.0722
   11SAPS  H19S 1410   3.893   4.041   4.631  0.5406 -1.5614 -2.0325
   11SAPS  C220 1411   4.000   4.100   4.822  0.0736  0.8515 -0.1703
   11SAPS  H20R 1412   3.940   4.037   4.891 -0.0073  0.0000 -1.0103
   11SAPS  H20S 1413   3.964   4.205   4.822 -1.9809  0.1940  0.0963
   11SAPS  H20T 1414   4.106   4.099   4.855  0.2039  1.6300 -0.5401
   11SAPS   C33 1415   5.211   4.731   3.431  0.6144 -0.3777 -0.0110
   11SAPS   H3X 1416   5.235   4.827   3.380 -0.5039 -0.3083 -0.4215
   11SAPS   H3Y 1417   5.284   4.710   3.512  0.0516 -2.7957 -0.0573
   11SAPS   C34 1418   5.070   4.752   3.493  0.2016 -0.0115  0.2674
   11SAPS   H4X 1419   5.032   4.656   3.533  0.0129 -0.1443 -0.2224
   11SAPS   H4Y 1420   5.004   4.783   3.408  2.2003 -1.2844 -1.8611
   11SAPS   C35 1421   5.063   4.849   3.609  0.0942 -0.1096  0.3028
   11SAPS   H5X 1422   5.103   4.945   3.572  1.1814 -0.7660 -0.2748
   11SAPS   H5Y 1423   5.141   4.807   3.676 -2.3535 -0.2691  3.2674
   11SAPS   C36 1424   4.925   4.867   3.671 -0.7541  0.0875 -0.2955
   11SAPS   H6X 1425   4.868   4.774   3.693  0.9833 -0.8385  0.4612
   11SAPS   H6Y 1426   4.851   4.917   3.604 -0.9509 -1.0218 -0.9354
   11SAPS   C37 1427   4.909   4.943   3.804  0.5771 -0.4350  0.3321
   11SAPS   H7X 1428   4.802   4.966   3.822  0.4029 -0.7882 -0.2446
   11SAPS   H7Y 1429   4.962   5.039   3.787 -2.4240  1.0748 -1.1283
   11SAPS   C38 1430   4.979   4.874   3.925 -0.2456  0.2434  0.4237
   11SAPS   H8X 1431   5.083   4.855   3.891 -1.0124  1.3933 -3.0267
   11SAPS   H8Y 1432   4.939   4.773   3.948  0.7690 -0.5758 -1.1826
   11SAPS   C39 1433   4.988   4.949   4.053 -0.2116  0.4954  0.1835
   11SAPS   H9X 1434   4.886   4.972   4.090  0.3089  0.4593  1.7000
   11SAPS   H9Y 1435   5.025   5.051   4.030  0.3427  1.1977  3.6506
   11SAPS  C310 1436   5.072   4.882   4.166  0.0408 -0.5035 -0.0800
   11SAPS  H10X 1437   5.169   4.841   4.131  1.1302  2.2733 -0.5347
   11SAPS  H10Y 1438   5.018   4.789   4.192  1.0257 -0.8057  0.9638
   11SAPS  C311 1439   5.087   4.973   4.296 -0.8140 -0.7289 -0.3747
   11SAPS  H11X 1440   4.992   5.028   4.311 -0.0321  0.7196 -0.4763
   11SAPS  H11Y 1441   5.167   5.050   4.285 -0.3660 -0.7605  1.9684
   11SAPS  C312 1442   5.117   4.902   4.433  0.5080  0.9610 -0.3046
   11SAPS  H12X 1443   5.150   4.970   4.514  0.3359  0.7470 -0.0551
   11SAPS  H12Y 1444   5.202   4.835   4.407  0.0731 -0.1558  1.0498
   11SAPS  C313 1445   5.011   4.804   4.491  0.4825 -0.3340  0.2238
   11SAPS  H13X 1446   5.005   4.718   4.421 -0.5553  0.2714 -0.4544
   11SAPS  H13Y 1447   4.912   4.854   4.487  1.2542  1.2070 -1.0195
   11SAPS  C314 1448   5.056   4.768   4.634 -0.7118  0.0804 -0.2011
   11SAPS  H14X 1449   5.054   4.863   4.692 -0.0072  0.9407 -1.5225
   11SAPS  H14Y 1450   5.162   4.736   4.625 -0.7732 -0.4384  0.8276
   11SAPS  C315 1451   4.959   4.666   4.695  0.4090 -0.0127  0.7975
   11SAPS  H15X 1452   4.955   4.576   4.630 -1.3688 -0.1554  1.0569
   11SAPS  H15Y 1453   4.858   4.712   4.691  0.3628 -0.2047 -0.9322
   11SAPS  C316 1454   4.992   4.630   4.839 -0.4200 -0.9817 -0.4002
   11SAPS  H16X 1455   5.018   4.724   4.891 -1.0504 -2.3244  2.5636
   11SAPS  H16Y 1456   5.071   4.553   4.832 -1.1757 -1.7440 -0.7732
   11SAPS  C317 1457   4.870   4.563   4.913 -0.0016 -1.0650 -0.0361
   11SAPS  H17X 1458   4.837   4.480   4.847 -0.3075 -1.3186  0.4371
   11SAPS  H17Y 1459   4.793   4.642   4.923  0.5836 -0.4526 -0.2407
   11SAPS  C318 1460   4.907   4.506   5.048 -0.6292  1.1555  0.1823
   11SAPS  H18X 1461   4.972   4.578   5.103 -0.1995  0.2602  0.8717
   11SAPS  H18Y 1462   4.969   4.416   5.028  0.0825  1.6944 -0.0940
   11SAPS  H18Z 1463   4.819   4.482   5.111  0.1326  1.9011  1.5799
   12SAPS     N 1464   6.422   2.816   2.652  0.4363 -0.1313  0.5890
   12SAPS   HN1 1465   6.351   2.817   2.727 -0.6146 -0.5153 -0.3793
   12SAPS   HN2 1466   6.483   2.731   2.653  0.5419 -0.1369 -1.6554
   12SAPS   HN3 1467   6.488   2.897   2.658 -0.6040  0.8567 -0.8416
   12SAPS   C12 1468   6.335   2.812   2.529 -0.2083  1.0724 -0.0628
   12SAPS  H12A 1469   6.297   2.913   2.524 -1.4440  0.6616  0.6140
   12SAPS   C13 1470   6.411   2.795   2.394  0.9151 -0.4378  0.0270
   12SAPS  O13A 1471   6.534   2.808   2.386  0.1650  0.1726  0.3739
   12SAPS  O13B 1472   6.348   2.769   2.291  0.5197  0.2645 -0.0966
   12SAPS   C11 1473   6.219   2.713   2.550  0.4744  0.0900  0.1864
   12SAPS  H11A 1474   6.249   2.608   2.534  0.3977  0.0541  0.2797
   12SAPS  H11B 1475   6.148   2.739   2.468  2.0461  0.7657 -1.0297
   12SAPS     P 1476   6.055   2.636   2.735  0.5643 -0.1705 -0.2385
   12SAPS   O13 1477   5.983   2.694   2.851 -0.0500  0.4446  0.7267
   12SAPS   O14 1478   5.964   2.591   2.629 -0.1570 -0.1671 -0.3472
   12SAPS   O12 1479   6.156   2.745   2.679  0.0187  0.1833 -0.0337
   12SAPS   O11 1480   6.159   2.526   2.782 -0.2034 -0.0893  0.1303
   12SAPS    C1 1481   6.263   2.561   2.876 -0.0246  0.6684 -0.4892
   12SAPS    HA 1482   6.362   2.520   2.845  0.6950  1.9490  0.0621
   12SAPS    HB 1483   6.287   2.669   2.865  1.4834  0.2746 -1.3732
   12SAPS    C2 1484   6.233   2.529   3.022  0.5992  0.1173 -0.4806
   12SAPS    HS 1485   6.133   2.571   3.049  0.8265  0.6468 -0.4654
   12SAPS   O21 1486   6.339   2.588   3.107 -0.4977  1.0481  0.4712
   12SAPS   C21 1487   6.310   2.718   3.143 -0.5290  0.5118 -0.2399
   12SAPS   O22 1488   6.203   2.772   3.130  0.0412  0.4432 -0.2575
   12SAPS   C22 1489   6.434   2.777   3.200  0.3206 -0.2040  0.1834
   12SAPS   H2R 1490   6.435   2.749   3.308 -0.9647  2.5999  1.0197
   12SAPS   H2S 1491   6.520   2.744   3.138 -0.2681 -2.4609  0.4961
   12SAPS    C3 1492   6.230   2.376   3.052 -0.0490  0.4672 -0.6354
   12SAPS    HX 1493   6.331   2.334   3.034  1.0033  2.4252  0.4413
   12SAPS    HY 1494   6.158   2.342   2.975 -0.3300  3.7440 -1.9751
   12SAPS   O31 1495   6.177   2.356   3.190  0.3969 -0.3911  0.3820
   12SAPS   C31 1496   6.156   2.228   3.209  0.1211 -0.5129 -0.0927
   12SAPS   O32 1497   6.186   2.140   3.133 -0.1466 -0.1931 -0.5033
   12SAPS   C32 1498   6.080   2.206   3.334  0.1565 -0.1061 -0.3369
   12SAPS   H2X 1499   5.994   2.136   3.324 -0.5471  0.4844  1.1949
   12SAPS   H2Y 1500   6.032   2.303   3.362  0.2853  0.2702 -1.3861
   12SAPS   C23 1501   6.432   2.933   3.214  0.2288 -0.2278  0.3793
   12SAPS   H3R 1502   6.425   2.973   3.111  0.2103  1.2404  0.9355
   12SAPS   H3S 1503   6.532   2.970   3.245  0.5199 -0.6139 -0.0753
   12SAPS   C24 1504   6.315   2.994   3.298  0.1860 -0.5630 -0.3268
   12SAPS   H4R 1505   6.311   2.940   3.395 -2.0674 -0.4421 -0.2902
   12SAPS   H4S 1506   6.218   2.978   3.246  0.2879  1.9285 -1.4241
   12SAPS   C25 1507   6.340   3.142   3.317  0.7366 -0.5323 -1.0360
   12SAPS   H5R 1508   6.311   3.198   3.227  0.2729  0.6060 -0.2038
   12SAPS   C26 1509   6.395   3.204   3.421  0.0675 -0.5855  0.3700
   12SAPS   H6R 1510   6.402   3.314   3.417  1.1124 -0.5886  1.6199
   12SAPS   C27 1511   6.443   3.154   3.551  0.1680 -0.5298 -0.6062
   12SAPS   H7R 1512   6.392   3.063   3.589 -0.6904  0.4856  0.7573
   12SAPS   H7S 1513   6.434   3.231   3.630  3.1795 -0.6368 -0.0483
   12SAPS   C28 1514   6.589   3.115   3.523 -0.5585 -0.2083  0.5238
   12SAPS   H8R 1515   6.602   3.055   3.432 -0.7737 -0.1792  0.4734
   12SAPS   C29 1516   6.697   3.137   3.600 -0.0890 -0.0950  0.2845
   12SAPS   H9R 1517   6.794   3.100   3.564 -0.3144  0.5962 -1.1033
   12SAPS  C210 1518   6.699   3.202   3.743  0.1417  0.0843 -0.2939
   12SAPS  H10R 1519   6.635   3.141   3.810 -1.7039  0.2473 -1.8234
   12SAPS  H10S 1520   6.644   3.298   3.748  0.6227  0.2901  1.7061
   12SAPS  C211 1521   6.848   3.216   3.797  0.7316 -0.2447 -0.0472
   12SAPS  H11R 1522   6.863   3.160   3.890 -0.6449 -1.7412 -0.6808
   12SAPS  C212 1523   6.933   3.314   3.752 -0.5341 -0.4970 -1.3568
   12SAPS  H12R 1524   7.040   3.305   3.776 -0.7541 -0.5516 -0.3546
   12SAPS  C213 1525   6.913   3.417   3.639 -0.1468 -0.4601 -0.9151
   12SAPS  H13R 1526   6.870   3.359   3.554 -1.9413 -1.1409  0.3829
   12SAPS  H13S 1527   7.014   3.455   3.611  0.3938  1.0899  2.5530
   12SAPS  C214 1528   6.816   3.524   3.686 -0.7727  1.1959  0.2344
   12SAPS  H14R 1529   6.740   3.490   3.758  0.2928  1.0104  1.2907
   12SAPS  C215 1530   6.813   3.653   3.659 -0.5231 -0.4352 -0.0383
   12SAPS  H15R 1531   6.734   3.716   3.701 -0.2677  0.4973 -0.8985
   12SAPS  C216 1532   6.909   3.724   3.564 -0.0701 -0.3638  0.4470
   12SAPS  H16R 1533   6.856   3.740   3.467  1.0225 -1.8637 -0.4532
   12SAPS  H16S 1534   7.000   3.668   3.535 -0.0575 -0.0194 -0.1998
   12SAPS  C217 1535   6.954   3.864   3.597 -0.9273 -0.1479  0.2893
   12SAPS  H17R 1536   7.053   3.878   3.547  0.2976 -2.4867  1.8477
   12SAPS  H17S 1537   6.973   3.881   3.705 -1.7710  1.1697  0.2512
   12SAPS  C218 1538   6.849   3.970   3.554 -0.4943  0.6509 -0.6507
   12SAPS  H18R 1539   6.759   3.944   3.612  0.1480 -1.3585 -0.4676
   12SAPS  H18S 1540   6.831   3.947   3.447  0.2985 -0.9666 -0.4619
   12SAPS  C219 1541   6.893   4.116   3.583 -0.0966  0.1853 -0.1979
   12SAPS  H19R 1542   6.919   4.112   3.691 -2.1410 -1.1286  0.3012
   12SAPS  H19S 1543   6.801   4.179   3.582  1.1258  2.1039  0.8029
   12SAPS  C220 1544   6.997   4.173   3.489 -0.4414 -0.2992  0.1002
   12SAPS  H20R 1545   6.999   4.284   3.486  0.2211 -0.3295 -1.1885
   12SAPS  H20S 1546   6.968   4.137   3.388 -0.1519 -1.0354  0.2744
   12SAPS  H20T 1547   7.101   4.141   3.513 -0.0179  0.7746 -0.2148
   12SAPS   C33 1548   6.174   2.153   3.445  0.6068 -0.3703 -0.2010
   12SAPS   H3X 1549   6.244   2.239   3.453  0.1062 -0.1323  2.6199
   12SAPS   H3Y 1550   6.231   2.059   3.436 -1.4701 -1.8066  0.8021
   12SAPS   C34 1551   6.100   2.158   3.579 -0.5866  0.1069  0.4623
   12SAPS   H4X 1552   6.012   2.092   3.564 -1.2639  1.1325 -0.2024
   12SAPS   H4Y 1553   6.059   2.259   3.600 -0.0498  0.4497 -0.1174
   12SAPS   C35 1554   6.172   2.092   3.695 -0.4177  0.9616 -0.1878
   12SAPS   H5X 1555   6.269   2.145   3.711  0.7934 -0.5155 -2.0886
   12SAPS   H5Y 1556   6.206   1.992   3.660 -0.1388  1.2387 -0.7159
   12SAPS   C36 1557   6.086   2.088   3.815 -0.3016 -1.0671  0.0284
   12SAPS   H6X 1558   5.999   2.022   3.795 -0.9037 -0.1596 -0.4442
   12SAPS   H6Y 1559   6.031   2.182   3.838 -2.5364 -1.7769 -1.9846
   12SAPS   C37 1560   6.159   2.025   3.937  0.0768 -0.3074  0.1975
   12SAPS   H7X 1561   6.260   2.069   3.948  1.0482 -2.0033 -1.2702
   12SAPS   H7Y 1562   6.184   1.920   3.912  0.4012  0.0262 -0.9325
   12SAPS   C38 1563   6.070   2.025   4.067  0.5930  0.3678 -0.7770
   12SAPS   H8X 1564   5.977   1.974   4.034  0.7986 -1.9798  1.8702
   12SAPS   H8Y 1565   6.050   2.130   4.096 -3.5481 -1.1271  2.7087
   12SAPS   C39 1566   6.143   1.958   4.186 -0.5534 -0.2091 -0.5030
   12SAPS   H9X 1567   6.189   1.863   4.150  1.4318  0.3901  0.3034
   12SAPS   H9Y 1568   6.070   1.927   4.263 -0.2362  0.7208  0.1897
   12SAPS  C310 1569   6.254   2.053   4.245 -0.1594  0.0083  0.5302
   12SAPS  H10X 1570   6.285   2.129   4.171  0.7281 -1.1458 -0.3224
   12SAPS  H10Y 1571   6.345   1.995   4.271  1.0835  2.1784  1.2519
   12SAPS  C311 1572   6.204   2.119   4.374  0.4044  0.6948  0.0099
   12SAPS  H11X 1573   6.177   2.035   4.442  1.4426  0.6134  0.3305
   12SAPS  H11Y 1574   6.110   2.169   4.341 -0.7798 -0.8097  0.9415
   12SAPS  C312 1575   6.310   2.209   4.433  1.1160  0.1374  0.2288
   12SAPS  H12X 1576   6.330   2.283   4.352 -1.1788 -0.0381 -0.5934
   12SAPS  H12Y 1577   6.395   2.145   4.466  0.3907 -0.9760 -0.0113
   12SAPS  C313 1578   6.254   2.290   4.550 -0.4050 -0.0821  0.4177
   12SAPS  H13X 1579   6.207   2.224   4.626 -0.1771 -0.5845  0.1202
   12SAPS  H13Y 1580   6.176   2.359   4.510  0.5636 -0.4718 -2.3014
   12SAPS  C314 1581   6.366   2.377   4.620  0.3619  0.1739 -0.2341
   12SAPS  H14X 1582   6.419   2.300   4.679 -0.7258 -1.5673 -1.4481
   12SAPS  H14Y 1583   6.325   2.443   4.699 -1.7409  0.5353 -1.5463
   12SAPS  C315 1584   6.449   2.445   4.514  0.0846 -1.1315 -0.7542
   12SAPS  H15X 1585   6.378   2.496   4.446 -1.3495 -0.1889  1.3562
   12SAPS  H15Y 1586   6.512   2.373   4.457  0.8679  1.6395 -3.7021
   12SAPS  C316 1587   6.551   2.535   4.587  0.4716  0.5182 -0.0115
   12SAPS  H16X 1588   6.604   2.477   4.666  1.2399 -0.1355 -0.9844
   12SAPS  H16Y 1589   6.489   2.611   4.640 -0.2151 -0.3847  0.5174
   12SAPS  C317 1590   6.651   2.615   4.498  0.9034  0.3880  0.4762
   12SAPS  H17X 1591   6.593   2.646   4.408  1.6754 -1.9597 -0.9386
   12SAPS  H17Y 1592   6.726   2.544   4.457 -0.6015 -0.4428 -0.9513
   12SAPS  C318 1593   6.734   2.730   4.557 -0.1572 -0.3760  0.4834
   12SAPS  H18X 1594   6.807   2.677   4.622 -1.4187 -1.4594  1.0678
   12SAPS  H18Y 1595   6.667   2.797   4.615 -1.8873 -0.1494 -1.6312
   12SAPS  H18Z 1596   6.790   2.782   4.476 -2.1344  0.0538 -0.6669
   13SAPS     N 1597   6.578   2.631   2.180 -0.1829  0.3360 -0.2071
   13SAPS   HN1 1598   6.662   2.690   2.197 -0.5772  1.2831 -1.4377
   13SAPS   HN2 1599   6.559   2.654   2.081  0.0744  0.8556 -0.1417
   13SAPS   HN3 1600   6.503   2.659   2.247 -0.8666 -1.3823 -0.2152
   13SAPS   C12 1601   6.602   2.489   2.197 -0.8170  0.4541 -0.1392
   13SAPS  H12A 1602   6.505   2.444   2.211 -0.3631 -1.1211 -1.6661
   13SAPS   C13 1603   6.666   2.419   2.082 -0.0595  0.6114  0.6245
   13SAPS  O13A 1604   6.705   2.480   1.975 -0.4304 -0.0885 -0.0037
   13SAPS  O13B 1605   6.684   2.294   2.086  0.5199  0.3244 -0.0731
   13SAPS   C11 1606   6.698   2.468   2.323 -0.4077 -0.1640 -0.3813
   13SAPS  H11A 1607   6.805   2.491   2.307 -0.5104  0.2151 -0.5342
   13SAPS  H11B 1608   6.713   2.361   2.349  0.6265 -0.1496 -0.8915
   13SAPS     P 1609   6.564   2.505   2.555  0.2061  0.4109  0.0827
   13SAPS   O13 1610   6.572   2.609   2.659  0.5838  0.3046  0.0173
   13SAPS   O14 1611   6.433   2.474   2.494 -0.0310  0.2166 -0.2836
   13SAPS   O12 1612   6.657   2.540   2.441 -0.0716 -0.1492 -0.3390
   13SAPS   O11 1613   6.640   2.366   2.597 -0.5252 -0.1179 -0.0046
   13SAPS    C1 1614   6.774   2.370   2.639 -0.0362 -0.4503 -0.5785
   13SAPS    HA 1615   6.821   2.289   2.580  0.0808 -1.0327  0.2961
   13SAPS    HB 1616   6.822   2.469   2.621 -2.9901  1.1625 -0.2642
   13SAPS    C2 1617   6.799   2.336   2.788  0.1617 -0.2679  0.5969
   13SAPS    HS 1618   6.901   2.366   2.822 -1.0456  1.9470  2.5897
   13SAPS   O21 1619   6.770   2.194   2.808  0.6808  0.6895  0.2000
   13SAPS   C21 1620   6.866   2.113   2.774  0.2607  0.6642 -0.0789
   13SAPS   O22 1621   6.965   2.142   2.706 -0.2294 -0.2025 -0.3972
   13SAPS   C22 1622   6.848   1.977   2.844 -0.0510  0.4505  0.3162
   13SAPS   H2R 1623   6.763   1.932   2.788  0.9957 -0.8169 -0.2981
   13SAPS   H2S 1624   6.946   1.927   2.832 -0.0418  0.9651 -2.3191
   13SAPS    C3 1625   6.708   2.429   2.880  0.4964  0.1226  0.6422
   13SAPS    HX 1626   6.602   2.410   2.853  0.3921 -1.0058  1.7678
   13SAPS    HY 1627   6.739   2.535   2.865  2.0923 -0.1371  1.7937
   13SAPS   O31 1628   6.740   2.403   3.014  0.3433  0.1126 -0.6425
   13SAPS   C31 1629   6.655   2.312   3.068 -0.2342 -0.5459  0.0258
   13SAPS   O32 1630   6.573   2.248   3.009  0.4097 -0.0575  0.0797
   13SAPS   C32 1631   6.681   2.292   3.216  1.0270 -0.1766  0.1051
   13SAPS   H2X 1632   6.737   2.376   3.264  0.4335  0.7006 -0.6990
   13SAPS   H2Y 1633   6.745   2.202   3.229  1.4072  0.2743  1.6336
   13SAPS   C23 1634   6.826   1.995   2.994 -0.6560 -0.0713  0.2445
   13SAPS   H3R 1635   6.722   2.029   3.015 -0.9774 -1.7723  1.7007
   13SAPS   H3S 1636   6.904   2.063   3.035  0.2090 -1.2741  0.6560
   13SAPS   C24 1637   6.851   1.863   3.076  0.7517 -0.2650 -0.4571
   13SAPS   H4R 1638   6.950   1.817   3.052  0.6764  0.0121 -1.3453
   13SAPS   H4S 1639   6.765   1.796   3.053  1.2986 -1.6252  1.2033
   13SAPS   C25 1640   6.858   1.891   3.230 -0.0527 -0.6157 -0.7094
   13SAPS   H5R 1641   6.936   1.961   3.263  2.8900 -4.6746  1.9512
   13SAPS   C26 1642   6.781   1.844   3.331  0.0687  0.4524  0.1823
   13SAPS   H6R 1643   6.793   1.873   3.437  1.0181 -0.5344  0.3706
   13SAPS   C27 1644   6.662   1.749   3.304 -0.0378  0.1067  0.3021
   13SAPS   H7R 1645   6.677   1.659   3.368  3.1750 -1.0093 -1.7506
   13SAPS   H7S 1646   6.674   1.708   3.201  1.6031  1.9615 -0.3202
   13SAPS   C28 1647   6.524   1.809   3.297  0.3002  0.0398 -0.3172
   13SAPS   H8R 1648   6.496   1.862   3.204 -0.2401  0.0256 -0.1673
   13SAPS   C29 1649   6.433   1.804   3.402 -0.6058 -0.0242  0.7355
   13SAPS   H9R 1650   6.338   1.859   3.394 -0.2040  0.4496 -1.3411
   13SAPS  C210 1651   6.455   1.743   3.539 -0.0407 -0.1538 -0.0465
   13SAPS  H10R 1652   6.431   1.823   3.612 -0.6136  1.6786 -2.1377
   13SAPS  H10S 1653   6.561   1.723   3.565 -0.6550 -0.0354  2.9098
   13SAPS  C211 1654   6.382   1.613   3.562  0.0337  0.4449 -0.1016
   13SAPS  H11R 1655   6.408   1.538   3.485  2.1247 -1.6006  2.4379
   13SAPS  C212 1656   6.301   1.579   3.667 -0.3998 -0.3352 -0.4216
   13SAPS  H12R 1657   6.242   1.486   3.662 -2.3194  0.7680  0.2554
   13SAPS  C213 1658   6.243   1.679   3.764  1.0442 -0.1130  0.2790
   13SAPS  H13R 1659   6.134   1.683   3.747  0.9119  0.9836  1.2129
   13SAPS  H13S 1660   6.273   1.782   3.734 -1.8356  0.7271 -0.0008
   13SAPS  C214 1661   6.278   1.641   3.906 -0.2542  1.0017 -0.1447
   13SAPS  H14R 1662   6.378   1.605   3.937 -0.3354  0.1566 -0.8373
   13SAPS  C215 1663   6.193   1.613   4.007 -0.5889 -0.2575  0.3475
   13SAPS  H15R 1664   6.241   1.576   4.099 -2.5632 -1.8808  0.8096
   13SAPS  C216 1665   6.045   1.644   4.016  0.1331  0.0280 -0.0400
   13SAPS  H16R 1666   6.004   1.718   3.944  1.7359  3.4539  2.3112
   13SAPS  H16S 1667   6.022   1.688   4.116  1.2400  0.4212  0.0555
   13SAPS  C217 1668   5.965   1.512   4.005 -0.4421  0.4914  0.0178
   13SAPS  H17R 1669   5.862   1.533   4.039  0.5230  0.9321  3.0126
   13SAPS  H17S 1670   5.991   1.444   4.089  0.4277  0.4537 -0.2704
   13SAPS  C218 1671   5.968   1.451   3.861  0.3049 -0.0696 -0.2824
   13SAPS  H18R 1672   6.065   1.437   3.809 -1.0156 -1.2946 -2.5720
   13SAPS  H18S 1673   5.910   1.526   3.802  0.1651  0.7220  0.8214
   13SAPS  C219 1674   5.900   1.317   3.870  0.2021  0.8128  0.0399
   13SAPS  H19R 1675   5.797   1.333   3.910  0.1533  0.7790 -0.0736
   13SAPS  H19S 1676   5.944   1.239   3.936  0.9869 -0.2281 -1.6659
   13SAPS  C220 1677   5.887   1.251   3.734 -0.4801  0.6722 -0.1179
   13SAPS  H20R 1678   5.977   1.269   3.671  0.2399  0.2375  0.7579
   13SAPS  H20S 1679   5.796   1.293   3.686 -1.4131  2.1686  2.7770
   13SAPS  H20T 1680   5.869   1.142   3.736 -0.1364  0.6207  0.5059
   13SAPS   C33 1681   6.548   2.274   3.291  0.3822  0.1225  0.0499
   13SAPS   H3X 1682   6.499   2.183   3.248  1.3077 -0.7041  0.6909
   13SAPS   H3Y 1683   6.486   2.363   3.267 -0.1686 -0.6893 -1.7326
   13SAPS   C34 1684   6.561   2.259   3.439 -0.5791 -0.9837  0.7145
   13SAPS   H4X 1685   6.467   2.257   3.498  0.3816 -0.5993  2.3339
   13SAPS   H4Y 1686   6.609   2.355   3.464  2.6815 -1.0422 -4.0612
   13SAPS   C35 1687   6.653   2.140   3.476  0.1697 -0.5339 -0.1802
   13SAPS   H5X 1688   6.759   2.163   3.454  0.5680  3.2006  4.1014
   13SAPS   H5Y 1689   6.630   2.048   3.419 -2.7765 -0.5097  0.7900
   13SAPS   C36 1690   6.621   2.111   3.627 -0.8995 -0.3871  0.2058
   13SAPS   H6X 1691   6.510   2.100   3.628 -0.7254 -2.5528  1.7012
   13SAPS   H6Y 1692   6.657   2.195   3.690 -0.4126 -0.1165 -0.4221
   13SAPS   C37 1693   6.681   1.980   3.680  0.6856 -0.7179 -0.1093
   13SAPS   H7X 1694   6.789   1.976   3.703  1.1797  1.5336 -1.6782
   13SAPS   H7Y 1695   6.667   1.904   3.600 -0.7804 -0.8127  0.2086
   13SAPS   C38 1696   6.608   1.921   3.801  0.8775  0.2559 -0.1295
   13SAPS   H8X 1697   6.588   1.815   3.775  1.9431 -0.0093  0.1147
   13SAPS   H8Y 1698   6.514   1.975   3.825  0.9218 -0.0246  0.7029
   13SAPS   C39 1699   6.696   1.911   3.926 -0.7643 -0.1306 -0.2868
   13SAPS   H9X 1700   6.740   2.011   3.945 -1.8291  0.1349  0.9055
   13SAPS   H9Y 1701   6.786   1.846   3.919 -0.7565 -0.1784  0.2302
   13SAPS  C310 1702   6.618   1.873   4.053  0.3548 -0.1234  0.2285
   13SAPS  H10X 1703   6.579   1.770   4.037 -0.5930  0.2467  0.0931
   13SAPS  H10Y 1704   6.536   1.947   4.066  0.2946 -0.0620 -0.4302
   13SAPS  C311 1705   6.705   1.873   4.182  0.0263  0.2683 -0.3069
   13SAPS  H11X 1706   6.727   1.980   4.204  0.4372 -0.1785  1.6682
   13SAPS  H11Y 1707   6.799   1.821   4.156  0.4077  0.7685  0.0440
   13SAPS  C312 1708   6.614   1.814   4.301 -1.0389  0.7243 -0.1749
   13SAPS  H12X 1709   6.595   1.708   4.276 -0.5605  0.0663  2.0712
   13SAPS  H12Y 1710   6.523   1.877   4.309  0.4461  2.8548  0.9280
   13SAPS  C313 1711   6.680   1.822   4.436  0.1038 -0.3078 -0.1780
   13SAPS  H13X 1712   6.689   1.930   4.459 -1.5097 -0.2561  0.3313
   13SAPS  H13Y 1713   6.786   1.790   4.434  0.3991  0.4747  1.2024
   13SAPS  C314 1714   6.607   1.747   4.556 -1.1407  0.0581 -0.2815
   13SAPS  H14X 1715   6.678   1.732   4.640  0.9202 -0.9196 -2.1088
   13SAPS  H14Y 1716   6.570   1.646   4.530 -0.6312 -0.2942  0.3326
   13SAPS  C315 1717   6.483   1.830   4.600  0.2825 -0.1005  0.1861
   13SAPS  H15X 1718   6.407   1.827   4.519  0.7463  1.1883 -0.3320
   13SAPS  H15Y 1719   6.528   1.930   4.617 -2.7547  1.6573 -1.2511
   13SAPS  C316 1720   6.416   1.778   4.727 -0.0761  0.3781  0.2486
   13SAPS  H16X 1721   6.488   1.787   4.811  0.6538 -1.4711 -0.1312
   13SAPS  H16Y 1722   6.398   1.669   4.718 -1.0488  0.5930 -0.6434
   13SAPS  C317 1723   6.281   1.839   4.764 -0.1676 -0.0530  0.5900
   13SAPS  H17X 1724   6.229   1.783   4.845 -0.0654  0.5633  1.0881
   13SAPS  H17Y 1725   6.214   1.822   4.677  0.2845  1.2905 -0.0466
   13SAPS  C318 1726   6.294   1.988   4.796 -0.1199  0.0937  0.5226
   13SAPS  H18X 1727   6.192   2.025   4.821  0.0193 -0.4606  2.0564
   13SAPS  H18Y 1728   6.330   2.054   4.715  0.2210  0.6050  1.0783
   13SAPS  H18Z 1729   6.364   2.007   4.880 -0.8493  0.8590  0.9782
   14SAPS     N 1730   6.064   2.932   2.971 -0.0241  0.4168 -0.2758
   14SAPS   HN1 1731   6.138   2.896   3.036  2.9189  0.4069 -3.3795
   14SAPS   HN2 1732   5.977   2.976   3.007 -1.0001 -0.6074 -1.2927
   14SAPS   HN3 1733   6.033   2.849   2.917  0.4044  0.1441 -0.1080
   14SAPS   C12 1734   6.116   3.035   2.879  0.5260 -0.7349  0.7932
   14SAPS  H12A 1735   6.116   3.126   2.936 -1.1070  0.4204 -0.8994
   14SAPS   C13 1736   6.261   3.009   2.841  1.0506 -0.5245  0.6620
   14SAPS  O13A 1737   6.312   2.906   2.884 -0.1993 -0.0741 -0.0393
   14SAPS  O13B 1738   6.326   3.106   2.785  0.0307 -0.1927  0.6760
   14SAPS   C11 1739   6.024   3.039   2.754  0.7375  0.8272  0.2273
   14SAPS  H11A 1740   6.024   2.937   2.708  0.8825 -0.5078  3.0146
   14SAPS  H11B 1741   6.080   3.100   2.680  1.1191 -2.6204 -2.6287
   14SAPS     P 1742   5.793   3.107   2.671  0.6370  0.0366  0.0727
   14SAPS   O13 1743   5.828   3.236   2.605 -0.2395 -0.2392  0.3859
   14SAPS   O14 1744   5.779   2.983   2.587  0.6386  0.5221 -0.5226
   14SAPS   O12 1745   5.893   3.088   2.789 -0.3865  0.2445  0.3964
   14SAPS   O11 1746   5.654   3.133   2.751 -0.2260  0.3560 -0.2921
   14SAPS    C1 1747   5.638   3.241   2.848  0.4750  0.0405  0.3429
   14SAPS    HA 1748   5.674   3.339   2.812  1.0968 -0.2495  0.1554
   14SAPS    HB 1749   5.530   3.249   2.873  0.3301  0.6321 -0.4379
   14SAPS    C2 1750   5.699   3.209   2.992 -0.5523  0.1718  0.0694
   14SAPS    HS 1751   5.803   3.179   2.966 -0.9969 -1.1595 -0.2537
   14SAPS   O21 1752   5.627   3.097   3.046  0.2791 -0.0898  0.0055
   14SAPS   C21 1753   5.695   2.987   3.076 -0.0467  0.1974 -0.0112
   14SAPS   O22 1754   5.820   2.982   3.076 -0.4163  0.2906  0.1742
   14SAPS   C22 1755   5.597   2.884   3.121  0.0148 -0.3590  0.3519
   14SAPS   H2R 1756   5.512   2.940   3.165 -0.1519 -0.1170 -0.2627
   14SAPS   H2S 1757   5.564   2.838   3.025 -0.5890  2.0125 -0.6397
   14SAPS    C3 1758   5.701   3.329   3.084  1.2209  0.1991 -0.2498
   14SAPS    HX 1759   5.600   3.374   3.088  0.9499 -0.3558 -0.6611
   14SAPS    HY 1760   5.774   3.401   3.041  1.5699 -0.1899 -0.3175
   14SAPS   O31 1761   5.740   3.274   3.213 -0.3643  0.2259  0.3908
   14SAPS   C31 1762   5.861   3.306   3.259  0.3727  0.1337  0.2024
   14SAPS   O32 1763   5.949   3.363   3.196 -0.6321  0.1596  0.3231
   14SAPS   C32 1764   5.853   3.279   3.404  0.0974  0.8901  0.5329
   14SAPS   H2X 1765   5.860   3.170   3.423 -2.8302  0.4554 -0.4155
   14SAPS   H2Y 1766   5.751   3.306   3.438 -1.2005  0.0389 -2.3867
   14SAPS   C23 1767   5.655   2.779   3.205 -0.2083 -0.0122  0.2039
   14SAPS   H3R 1768   5.763   2.763   3.185  0.2051 -0.4199  2.4553
   14SAPS   H3S 1769   5.617   2.676   3.184  0.2586 -0.5476  1.8260
   14SAPS   C24 1770   5.643   2.793   3.367 -0.1884 -0.0167  0.4829
   14SAPS   H4R 1771   5.668   2.695   3.413  1.4648 -0.5108 -1.3186
   14SAPS   H4S 1772   5.540   2.826   3.395  0.1463 -0.2301  2.0635
   14SAPS   C25 1773   5.748   2.882   3.424  0.4295  0.3382 -0.5808
   14SAPS   H5R 1774   5.716   2.987   3.437  0.0574  0.4356 -2.0248
   14SAPS   C26 1775   5.875   2.851   3.457  0.4392 -0.7336 -0.7654
   14SAPS   H6R 1776   5.938   2.932   3.495 -0.1164 -0.6921  0.0953
   14SAPS   C27 1777   5.944   2.720   3.438  0.8748 -0.5017  0.8681
   14SAPS   H7R 1778   6.027   2.739   3.367 -0.9120  0.8402 -0.9630
   14SAPS   H7S 1779   5.887   2.651   3.373 -0.3012  2.0256 -0.9293
   14SAPS   C28 1780   5.952   2.656   3.570  0.3107 -0.4512  0.2392
   14SAPS   H8R 1781   5.865   2.660   3.636 -0.6045 -0.8496 -0.9087
   14SAPS   C29 1782   6.060   2.584   3.599  1.1172  0.1812 -0.0862
   14SAPS   H9R 1783   6.068   2.553   3.704 -1.7518  2.1740  0.8532
   14SAPS  C210 1784   6.186   2.566   3.531  0.4190  0.8515 -0.3120
   14SAPS  H10R 1785   6.189   2.627   3.438 -0.2141  1.0936 -0.1764
   14SAPS  H10S 1786   6.186   2.460   3.499  0.7064 -0.1892  2.8162
   14SAPS  C211 1787   6.311   2.603   3.608 -0.4048 -0.1927 -0.2646
   14SAPS  H11R 1788   6.353   2.699   3.574 -2.0322 -0.1035 -2.2344
   14SAPS  C212 1789   6.364   2.539   3.711  0.3000 -0.3953 -0.0193
   14SAPS  H12R 1790   6.455   2.582   3.755 -0.9660  0.0018  2.3495
   14SAPS  C213 1791   6.313   2.397   3.761 -0.2877  0.0682  0.4553
   14SAPS  H13R 1792   6.372   2.318   3.709  0.5874  0.2987  1.0885
   14SAPS  H13S 1793   6.207   2.395   3.726  0.1375 -0.3983 -0.8612
   14SAPS  C214 1794   6.315   2.376   3.904  0.3868 -0.2609 -0.5032
   14SAPS  H14R 1795   6.410   2.336   3.944  0.5905  0.1715 -0.5557
   14SAPS  C215 1796   6.211   2.395   3.987  0.3645  0.1922 -0.4358
   14SAPS  H15R 1797   6.225   2.376   4.094 -0.8090  2.0048  0.0826
   14SAPS  C216 1798   6.072   2.451   3.968 -0.7798  1.1281 -0.0833
   14SAPS  H16R 1799   6.010   2.386   3.902  1.0652 -2.1502  1.1900
   14SAPS  H16S 1800   6.088   2.555   3.931  3.5821  0.8701  0.6168
   14SAPS  C217 1801   6.004   2.467   4.109 -0.0987 -0.1878 -0.0376
   14SAPS  H17R 1802   6.075   2.516   4.179 -1.3610 -0.8126  1.7447
   14SAPS  H17S 1803   5.986   2.365   4.150  4.0052 -0.9335  0.3996
   14SAPS  C218 1804   5.874   2.553   4.107 -0.6287  0.2657  0.1328
   14SAPS  H18R 1805   5.803   2.493   4.046 -0.5151 -0.4534  0.6910
   14SAPS  H18S 1806   5.901   2.647   4.055  1.8547  0.0972  0.9653
   14SAPS  C219 1807   5.817   2.585   4.246  0.1523 -0.6764  0.2700
   14SAPS  H19R 1808   5.717   2.630   4.230  0.4403  0.5288  1.6279
   14SAPS  H19S 1809   5.873   2.663   4.302 -2.8068  1.4600  0.5011
   14SAPS  C220 1810   5.798   2.456   4.329 -0.1586  0.4715 -0.6428
   14SAPS  H20R 1811   5.894   2.423   4.374 -0.7722  0.1811  0.5157
   14SAPS  H20S 1812   5.763   2.379   4.257 -0.3068  2.1546 -2.4442
   14SAPS  H20T 1813   5.727   2.465   4.414 -1.0564 -2.0362 -1.0604
   14SAPS   C33 1814   5.949   3.371   3.481  0.7256  0.5367 -0.2494
   14SAPS   H3X 1815   5.941   3.477   3.447  0.8265  1.0441  1.2339
   14SAPS   H3Y 1816   6.052   3.335   3.462  0.4987 -0.2039 -0.1122
   14SAPS   C34 1817   5.913   3.365   3.636 -0.1785 -0.2933 -0.0837
   14SAPS   H4X 1818   5.818   3.417   3.661 -0.8886 -2.1589  1.3572
   14SAPS   H4Y 1819   5.991   3.429   3.683  1.1870 -2.0343  0.1596
   14SAPS   C35 1820   5.921   3.225   3.712 -1.2469 -0.4467 -0.6140
   14SAPS   H5X 1821   5.847   3.157   3.663  0.8197 -1.9284 -1.8499
   14SAPS   H5Y 1822   5.912   3.242   3.821  0.3099  0.4307 -0.6048
   14SAPS   C36 1823   6.063   3.162   3.684 -0.2642 -0.2224 -0.6378
   14SAPS   H6X 1824   6.125   3.234   3.741 -0.8088  1.5241 -2.1461
   14SAPS   H6Y 1825   6.093   3.167   3.577 -0.0419 -0.4763 -0.5889
   14SAPS   C37 1826   6.092   3.019   3.725 -0.0986 -0.0075  0.1093
   14SAPS   H7X 1827   6.158   2.976   3.646 -0.8617  0.3464 -0.7479
   14SAPS   H7Y 1828   5.999   2.958   3.724 -0.1032  0.0030 -0.0984
   14SAPS   C38 1829   6.146   3.017   3.864 -0.5752 -0.9309  0.5078
   14SAPS   H8X 1830   6.088   3.090   3.924  0.8953  0.4122  0.3605
   14SAPS   H8Y 1831   6.250   3.055   3.874 -0.3865 -1.4800  0.7218
   14SAPS   C39 1832   6.147   2.876   3.923 -0.4420 -0.0063 -0.0563
   14SAPS   H9X 1833   6.203   2.808   3.855 -2.2259 -1.5884 -0.0490
   14SAPS   H9Y 1834   6.042   2.840   3.931 -0.8545  0.3562 -2.8191
   14SAPS  C310 1835   6.203   2.859   4.063  0.1458 -0.3859 -0.0033
   14SAPS  H10X 1836   6.308   2.894   4.057 -0.2051  0.6057 -0.5960
   14SAPS  H10Y 1837   6.209   2.750   4.080 -4.4117 -1.0890 -1.3988
   14SAPS  C311 1838   6.123   2.924   4.171  0.3346  0.5700 -0.6312
   14SAPS  H11X 1839   6.020   2.882   4.169  0.1387  1.0126 -0.1443
   14SAPS  H11Y 1840   6.102   3.033   4.157  1.0482  0.5164 -2.4176
   14SAPS  C312 1841   6.178   2.901   4.307 -0.1276 -0.2343 -0.6145
   14SAPS  H12X 1842   6.121   2.969   4.374  0.1427 -0.3363 -0.2804
   14SAPS  H12Y 1843   6.285   2.929   4.310 -0.3948  0.7829  0.1047
   14SAPS  C313 1844   6.160   2.758   4.366  0.0033  0.0716  0.0279
   14SAPS  H13X 1845   6.230   2.702   4.300  0.1161 -0.0520  0.2522
   14SAPS  H13Y 1846   6.053   2.732   4.349 -0.2683  0.3174  1.3072
   14SAPS  C314 1847   6.195   2.738   4.512  0.1425 -0.7363  0.0877
   14SAPS  H14X 1848   6.298   2.780   4.520  0.2864 -0.9407 -0.6426
   14SAPS  H14Y 1849   6.201   2.629   4.530 -0.0623 -1.0795 -1.7482
   14SAPS  C315 1850   6.102   2.802   4.619  0.0759  0.0081  0.1926
   14SAPS  H15X 1851   6.000   2.759   4.624  0.3429 -0.5929  0.5354
   14SAPS  H15Y 1852   6.077   2.905   4.587 -3.8081 -0.7728  0.2606
   14SAPS  C316 1853   6.160   2.794   4.756  0.1254  0.7436  0.3868
   14SAPS  H16X 1854   6.265   2.830   4.755  0.2252  0.4560  0.6542
   14SAPS  H16Y 1855   6.157   2.689   4.792 -3.2087 -0.1107 -1.8569
   14SAPS  C317 1856   6.078   2.881   4.853 -0.0187 -0.1899  0.3829
   14SAPS  H17X 1857   6.078   2.985   4.816 -1.8274 -0.3675 -0.2107
   14SAPS  H17Y 1858   6.128   2.878   4.952  0.2815 -0.9907  0.2130
   14SAPS  C318 1859   5.936   2.834   4.870  0.1358 -0.0456 -0.4299
   14SAPS  H18X 1860   5.876   2.874   4.785  1.9419  1.0012 -1.2722
   14SAPS  H18Y 1861   5.884   2.885   4.953 -0.9460  0.8583 -1.6150
   14SAPS  H18Z 1862   5.925   2.723   4.880 -0.7173  0.1003  0.4119
   15SAPS     N 1863   6.683   3.389   2.368 -0.2123 -0.2787  0.3820
   15SAPS   HN1 1864   6.776   3.353   2.398 -0.5815  0.2857  2.3804
   15SAPS   HN2 1865   6.603   3.380   2.435 -0.9745  0.1990 -0.4352
   15SAPS   HN3 1866   6.664   3.349   2.274  1.4559 -1.1643  0.4005
   15SAPS   C12 1867   6.691   3.540   2.335  0.6097  0.2112  0.2412
   15SAPS  H12A 1868   6.790   3.553   2.293  1.1944 -0.5386  1.2973
   15SAPS   C13 1869   6.576   3.584   2.235  0.1687 -0.1204  0.3444
   15SAPS  O13A 1870   6.476   3.508   2.212 -0.1892  0.2999 -0.7271
   15SAPS  O13B 1871   6.573   3.705   2.190 -0.8520  0.5596  0.0970
   15SAPS   C11 1872   6.685   3.619   2.464  0.1801  0.4767 -0.2667
   15SAPS  H11A 1873   6.581   3.595   2.495 -0.7651  1.6947 -2.2748
   15SAPS  H11B 1874   6.681   3.728   2.444 -0.4452  0.5663  0.2841
   15SAPS     P 1875   6.786   3.660   2.701  0.2826 -0.3893  0.4509
   15SAPS   O13 1876   6.689   3.598   2.800 -0.3869  0.2391  0.5905
   15SAPS   O14 1877   6.926   3.639   2.736 -0.2704 -0.0867 -0.1472
   15SAPS   O12 1878   6.774   3.585   2.565 -0.4540 -0.0700 -0.6583
   15SAPS   O11 1879   6.758   3.809   2.677  0.4709 -0.2127  0.1516
   15SAPS    C1 1880   6.635   3.871   2.721 -0.5265 -0.7145 -0.5059
   15SAPS    HA 1881   6.586   3.930   2.641 -1.4384  3.1405  2.5548
   15SAPS    HB 1882   6.559   3.805   2.768 -1.4548  0.9127  0.3871
   15SAPS    C2 1883   6.668   3.979   2.839  0.3415 -0.0812  1.0945
   15SAPS    HS 1884   6.746   4.044   2.794 -0.4736  0.1473 -0.0431
   15SAPS   O21 1885   6.703   3.905   2.951  0.1180  0.8096 -0.0269
   15SAPS   C21 1886   6.831   3.899   2.991  0.2133 -0.7791 -0.3623
   15SAPS   O22 1887   6.921   3.970   2.948  0.0619  0.1348 -0.1327
   15SAPS   C22 1888   6.851   3.809   3.108 -0.3129  0.3098  0.2354
   15SAPS   H2R 1889   6.836   3.865   3.202 -3.6490 -1.3223  0.8153
   15SAPS   H2S 1890   6.772   3.731   3.111 -0.0098 -0.2424 -2.7647
   15SAPS    C3 1891   6.550   4.068   2.880 -0.4480  0.4031  0.6203
   15SAPS    HX 1892   6.465   4.006   2.916 -0.3309 -0.5151 -0.6453
   15SAPS    HY 1893   6.513   4.130   2.796  2.7721  2.5814  0.6268
   15SAPS   O31 1894   6.595   4.154   2.988 -0.3224 -0.0194  0.3985
   15SAPS   C31 1895   6.601   4.286   2.970 -0.1736  0.3623  0.0933
   15SAPS   O32 1896   6.600   4.348   2.860 -0.1668 -0.4371 -0.1008
   15SAPS   C32 1897   6.578   4.349   3.107 -0.0814 -0.0398 -0.1778
   15SAPS   H2X 1898   6.471   4.341   3.136  0.6746 -2.0986  2.4293
   15SAPS   H2Y 1899   6.604   4.456   3.093 -0.3207  0.0674  0.1746
   15SAPS   C23 1900   6.995   3.740   3.092  0.0800 -0.2397 -0.4873
   15SAPS   H3R 1901   7.070   3.814   3.057  1.0312 -0.1366  1.6299
   15SAPS   H3S 1902   6.996   3.657   3.017  0.8578 -0.7560  0.0791
   15SAPS   C24 1903   7.043   3.704   3.227  0.2834  0.2292 -0.0698
   15SAPS   H4R 1904   6.973   3.633   3.276  0.9655 -2.0068 -2.1445
   15SAPS   H4S 1905   7.058   3.786   3.301 -0.0990  1.5683 -1.4473
   15SAPS   C25 1906   7.181   3.631   3.217 -0.4207 -0.3557 -0.4931
   15SAPS   H5R 1907   7.184   3.553   3.140  1.1300 -1.0773  0.2475
   15SAPS   C26 1908   7.294   3.655   3.276 -0.0620 -0.5634  0.0679
   15SAPS   H6R 1909   7.377   3.587   3.253  0.9594  0.4732  0.5788
   15SAPS   C27 1910   7.325   3.749   3.383 -0.9059  0.5409 -0.1051
   15SAPS   H7R 1911   7.235   3.771   3.445  0.1356  0.9234  1.3242
   15SAPS   H7S 1912   7.352   3.838   3.323  1.4609 -0.8251 -1.1960
   15SAPS   C28 1913   7.447   3.730   3.467 -0.3102  0.7314  0.4138
   15SAPS   H8R 1914   7.529   3.668   3.430 -2.1171 -1.1374 -0.6837
   15SAPS   C29 1915   7.454   3.786   3.591  0.3249  0.7963  0.1045
   15SAPS   H9R 1916   7.543   3.757   3.648  1.5248  0.9060 -1.6254
   15SAPS  C210 1917   7.356   3.872   3.667  0.8901 -0.2570  0.5988
   15SAPS  H10R 1918   7.292   3.937   3.603  1.4140 -0.2269  0.0955
   15SAPS  H10S 1919   7.414   3.944   3.729 -0.9758 -1.7900  4.4085
   15SAPS  C211 1920   7.276   3.790   3.762  0.2510  0.2321 -0.1717
   15SAPS  H11R 1921   7.260   3.684   3.737  2.1227  0.1619 -1.3114
   15SAPS  C212 1922   7.218   3.826   3.876 -0.7644 -0.1301 -0.2506
   15SAPS  H12R 1923   7.152   3.751   3.922 -0.6557  0.4249  0.8379
   15SAPS  C213 1924   7.216   3.966   3.937 -0.0680 -0.3908 -0.1373
   15SAPS  H13R 1925   7.115   3.977   3.983  0.6466  0.5197  1.2916
   15SAPS  H13S 1926   7.226   4.039   3.855 -2.4792  1.4529  1.0455
   15SAPS  C214 1927   7.316   3.986   4.048 -0.1547  0.5333 -0.4434
   15SAPS  H14R 1928   7.411   4.033   4.019  0.8116 -0.9489  0.2714
   15SAPS  C215 1929   7.299   3.948   4.178  0.4269 -0.2904  0.2849
   15SAPS  H15R 1930   7.376   3.978   4.251 -0.2175  0.6198  0.6055
   15SAPS  C216 1931   7.173   3.895   4.258  0.0181  0.0754  0.8650
   15SAPS  H16R 1932   7.187   3.789   4.290  0.0517  0.0457  0.7516
   15SAPS  H16S 1933   7.087   3.896   4.188  1.4125 -1.1230 -0.9855
   15SAPS  C217 1934   7.141   3.987   4.377 -0.3394 -0.5639 -0.7898
   15SAPS  H17R 1935   7.128   4.092   4.343  1.0638 -0.2261 -0.3611
   15SAPS  H17S 1936   7.224   3.984   4.450 -0.9839 -2.2833 -0.0776
   15SAPS  C218 1937   7.015   3.927   4.445 -0.0800 -0.0180  0.2074
   15SAPS  H18R 1938   7.039   3.828   4.490 -0.1371 -0.7649 -1.3196
   15SAPS  H18S 1939   6.940   3.916   4.364 -0.8965  3.2178  0.3685
   15SAPS  C219 1940   6.942   4.021   4.551  0.6558  0.3140  0.0313
   15SAPS  H19R 1941   6.844   3.985   4.588  0.1473  3.4712  2.1124
   15SAPS  H19S 1942   6.920   4.118   4.502 -1.6256  0.5767  1.4427
   15SAPS  C220 1943   7.031   4.041   4.677 -0.3657  0.5899  0.1828
   15SAPS  H20R 1944   7.044   3.950   4.739  0.1885  1.4046  1.3144
   15SAPS  H20S 1945   6.988   4.101   4.761 -0.4529 -3.3475  3.2148
   15SAPS  H20T 1946   7.131   4.080   4.649  0.2978 -0.5124  0.9782
   15SAPS   C33 1947   6.663   4.283   3.213 -0.0509 -0.2668  0.9016
   15SAPS   H3X 1948   6.756   4.257   3.159 -2.1362  0.5517 -3.5573
   15SAPS   H3Y 1949   6.628   4.188   3.260 -0.4013  0.0368  1.2681
   15SAPS   C34 1950   6.707   4.365   3.341  0.0474 -0.1719  1.1280
   15SAPS   H4X 1951   6.771   4.449   3.307 -1.4443  0.3673 -0.5051
   15SAPS   H4Y 1952   6.770   4.297   3.402 -0.3736 -0.4374  1.2751
   15SAPS   C35 1953   6.589   4.418   3.424 -0.1634  0.4506 -0.2788
   15SAPS   H5X 1954   6.545   4.328   3.472 -0.2675 -0.1009 -1.3761
   15SAPS   H5Y 1955   6.516   4.475   3.362 -0.3783  1.2721  0.7056
   15SAPS   C36 1956   6.644   4.521   3.525  0.0906  0.1815  0.5218
   15SAPS   H6X 1957   6.714   4.586   3.468  0.3638 -2.0705 -1.9389
   15SAPS   H6Y 1958   6.707   4.466   3.598  1.7094  0.7081 -0.4120
   15SAPS   C37 1959   6.531   4.610   3.597  0.2771  0.2331  0.0964
   15SAPS   H7X 1960   6.472   4.654   3.514  0.4100 -1.9300 -1.2010
   15SAPS   H7Y 1961   6.580   4.695   3.651 -0.2050  0.4950  0.1320
   15SAPS   C38 1962   6.443   4.527   3.688  0.2312 -0.2343 -0.0027
   15SAPS   H8X 1963   6.379   4.458   3.629  2.3882 -2.5342  0.2064
   15SAPS   H8Y 1964   6.383   4.593   3.753 -0.4080 -1.1472  0.3579
   15SAPS   C39 1965   6.515   4.440   3.790  0.3646  0.4129  0.5903
   15SAPS   H9X 1966   6.594   4.501   3.838  2.6752 -0.7291 -1.5153
   15SAPS   H9Y 1967   6.564   4.361   3.730  1.5790  2.9083 -1.9881
   15SAPS  C310 1968   6.432   4.367   3.894 -0.2541 -0.2482 -0.3452
   15SAPS  H10X 1969   6.351   4.308   3.847 -0.0889  0.8212 -2.0745
   15SAPS  H10Y 1970   6.372   4.449   3.939  0.3076  0.4277 -0.7995
   15SAPS  C311 1971   6.506   4.274   3.988 -0.6846 -0.3935 -0.1759
   15SAPS  H11X 1972   6.422   4.226   4.044 -1.5884 -0.5465 -1.5947
   15SAPS  H11Y 1973   6.559   4.335   4.063 -1.5238  2.7098 -1.9193
   15SAPS  C312 1974   6.604   4.184   3.921  0.2869 -0.0777  0.4211
   15SAPS  H12X 1975   6.686   4.225   3.857  0.4589 -1.3368 -0.2043
   15SAPS  H12Y 1976   6.554   4.133   3.836  1.8474  0.0448 -0.6330
   15SAPS  C313 1977   6.669   4.075   4.021  0.6052 -0.0066  0.6333
   15SAPS  H13X 1978   6.602   4.063   4.109  2.0523 -1.4360  1.5964
   15SAPS  H13Y 1979   6.764   4.123   4.051 -0.1042  1.7885  0.1558
   15SAPS  C314 1980   6.729   3.945   3.970 -0.6340  0.0450 -0.0305
   15SAPS  H14X 1981   6.804   3.958   3.889 -0.3227  0.7848  0.3582
   15SAPS  H14Y 1982   6.651   3.887   3.918  0.0015 -1.2476  0.4213
   15SAPS  C315 1983   6.785   3.841   4.069  0.1791 -0.6201  0.1804
   15SAPS  H15X 1984   6.709   3.805   4.141  1.7150 -0.3607  2.0231
   15SAPS  H15Y 1985   6.867   3.896   4.120 -0.6280  0.2728  0.5360
   15SAPS  C316 1986   6.838   3.711   4.003 -1.0492  0.3246  0.4651
   15SAPS  H16X 1987   6.921   3.724   3.930 -2.6583 -0.7707 -1.6824
   15SAPS  H16Y 1988   6.754   3.663   3.948  0.3280 -0.6432 -0.8738
   15SAPS  C317 1989   6.890   3.616   4.116  0.9947 -0.5347 -0.6330
   15SAPS  H17X 1990   6.807   3.625   4.190  0.3477 -0.3628 -1.3622
   15SAPS  H17Y 1991   6.981   3.671   4.147  0.2392  0.7007 -0.4871
   15SAPS  C318 1992   6.926   3.476   4.068  1.0329 -0.4105 -0.3179
   15SAPS  H18X 1993   6.949   3.408   4.154 -0.3609  0.0168  0.4284
   15SAPS  H18Y 1994   7.012   3.470   3.999  3.0919  1.0383  1.9549
   15SAPS  H18Z 1995   6.841   3.421   4.022  0.9904 -0.7575  0.1668
   16SAPS     N 1996   1.838   3.836   2.633 -0.1434  0.2519 -0.3426
   16SAPS   HN1 1997   1.940   3.840   2.649  0.0691  0.1388 -1.5751
   16SAPS   HN2 1998   1.796   3.757   2.687 -1.9407  0.1395 -1.7732
   16SAPS   HN3 1999   1.816   3.820   2.532 -1.4163  2.1734 -0.4306
   16SAPS   C12 2000   1.763   3.955   2.683  0.1691 -0.0076 -0.0366
   16SAPS  H12A 2001   1.809   3.987   2.775 -0.5237  2.3105 -0.4220
   16SAPS   C13 2002   1.750   4.074   2.579  0.6843  0.1606  0.6669
   16SAPS  O13A 2003   1.769   4.045   2.456  0.5887  0.2715 -0.2926
   16SAPS  O13B 2004   1.676   4.170   2.609  0.0179 -0.0456  0.2225
   16SAPS   C11 2005   1.623   3.884   2.706 -0.0970 -0.6463 -0.5148
   16SAPS  H11A 2006   1.576   3.858   2.609 -0.6983  1.3424 -0.8034
   16SAPS  H11B 2007   1.563   3.971   2.741  2.2058  0.6727  0.4260
   16SAPS     P 2008   1.497   3.743   2.877  0.0563 -0.0735  0.2131
   16SAPS   O13 2009   1.399   3.853   2.863  0.0381  0.2203 -0.4852
   16SAPS   O14 2010   1.465   3.608   2.827  0.3198 -0.4464  0.3041
   16SAPS   O12 2011   1.629   3.782   2.808  0.1871 -0.5795 -0.0681
   16SAPS   O11 2012   1.532   3.739   3.031  0.3972 -0.2983  0.6819
   16SAPS    C1 2013   1.674   3.767   3.077 -0.0525 -0.2955 -0.1583
   16SAPS    HA 2014   1.707   3.684   3.143  0.1865 -1.0384 -1.1769
   16SAPS    HB 2015   1.750   3.768   2.996  1.5413 -1.7066  1.2500
   16SAPS    C2 2016   1.696   3.905   3.150 -0.2267 -0.5194 -0.9132
   16SAPS    HS 2017   1.801   3.931   3.175 -0.5033  0.4423 -0.7052
   16SAPS   O21 2018   1.618   3.911   3.272 -0.3711  0.2691  0.2269
   16SAPS   C21 2019   1.688   3.903   3.387  0.1669 -0.6340 -0.4082
   16SAPS   O22 2020   1.809   3.899   3.398  0.1972  0.4483 -0.4495
   16SAPS   C22 2021   1.587   3.885   3.498 -0.2958  0.1989 -0.2261
   16SAPS   H2R 2022   1.489   3.848   3.461 -2.0982 -0.3283  4.4822
   16SAPS   H2S 2023   1.627   3.808   3.567  1.2975  1.0098 -0.2067
   16SAPS    C3 2024   1.639   4.025   3.068  0.1957 -0.4488  0.0438
   16SAPS    HX 2025   1.531   4.008   3.047  0.3806 -1.3399 -0.2221
   16SAPS    HY 2026   1.688   4.020   2.968 -0.2753 -2.1618 -0.1215
   16SAPS   O31 2027   1.667   4.144   3.135 -0.1726  0.3789  0.1467
   16SAPS   C31 2028   1.572   4.196   3.207  0.7040  0.7441 -0.0854
   16SAPS   O32 2029   1.466   4.143   3.237 -0.0085  0.2051 -1.0049
   16SAPS   C32 2030   1.608   4.340   3.240 -0.3972  0.3969 -0.3107
   16SAPS   H2X 2031   1.609   4.396   3.145 -1.1185  2.8953  1.0696
   16SAPS   H2Y 2032   1.712   4.348   3.280 -1.2521  0.3748  2.0664
   16SAPS   C23 2033   1.570   4.014   3.578  0.5854 -0.3431 -0.5686
   16SAPS   H3R 2034   1.547   4.091   3.502 -1.2659 -1.3439 -1.0717
   16SAPS   H3S 2035   1.657   4.050   3.638 -0.0804 -0.5634  0.5502
   16SAPS   C24 2036   1.450   4.002   3.673 -0.5885  0.2490  0.1760
   16SAPS   H4R 2037   1.361   3.978   3.610  0.4411  0.0303 -1.2205
   16SAPS   H4S 2038   1.436   4.107   3.709  0.0592  0.7737 -1.0478
   16SAPS   C25 2039   1.461   3.897   3.777  0.0622  0.8147  0.6829
   16SAPS   H5R 2040   1.497   3.800   3.741 -0.0702  0.7884  0.6203
   16SAPS   C26 2041   1.405   3.898   3.900  0.2829 -0.1439 -0.6838
   16SAPS   H6R 2042   1.438   3.815   3.964 -2.2744  0.5192  1.6969
   16SAPS   C27 2043   1.318   4.008   3.962 -0.1226 -0.3404  0.7746
   16SAPS   H7R 2044   1.230   4.031   3.899  1.1928  0.2150 -0.9189
   16SAPS   H7S 2045   1.379   4.100   3.960  1.4795 -1.3381 -1.8936
   16SAPS   C28 2046   1.287   3.971   4.112 -0.6192  0.5178  0.3985
   16SAPS   H8R 2047   1.241   3.873   4.130  0.4065 -0.2887 -1.1296
   16SAPS   C29 2048   1.300   4.056   4.211 -0.3044 -0.2210 -0.1362
   16SAPS   H9R 2049   1.248   4.024   4.302 -0.2975 -0.2439 -0.1405
   16SAPS  C210 2050   1.351   4.199   4.210  0.2892 -0.0319 -0.1791
   16SAPS  H10R 2051   1.433   4.201   4.135  0.4847 -0.4458  0.0215
   16SAPS  H10S 2052   1.404   4.218   4.305  1.6129 -0.6442 -0.7755
   16SAPS  C211 2053   1.249   4.311   4.186 -0.6979 -0.2691 -0.0611
   16SAPS  H11R 2054   1.254   4.348   4.083  1.3365 -1.3029 -0.3806
   16SAPS  C212 2055   1.167   4.387   4.265 -0.0460  0.7738 -0.5958
   16SAPS  H12R 2056   1.091   4.452   4.220 -0.2761  1.3853  0.6402
   16SAPS  C213 2057   1.134   4.371   4.413 -0.0828 -0.0211  0.1883
   16SAPS  H13R 2058   1.204   4.295   4.454 -0.7315 -1.2346 -0.8725
   16SAPS  H13S 2059   1.029   4.335   4.420 -0.2116  0.5607  1.6539
   16SAPS  C214 2060   1.140   4.499   4.485  0.9218  0.8352  0.3265
   16SAPS  H14R 2061   1.148   4.586   4.419 -0.4873  2.3843  2.0933
   16SAPS  C215 2062   1.131   4.519   4.617 -0.5775  0.5836 -0.2777
   16SAPS  H15R 2063   1.138   4.618   4.663  1.2801 -0.1206  1.0544
   16SAPS  C216 2064   1.116   4.401   4.707  1.0930 -0.3357  0.0223
   16SAPS  H16R 2065   1.171   4.320   4.654  0.4299 -0.5081 -0.4151
   16SAPS  H16S 2066   1.008   4.374   4.706  0.3485  2.3010  1.6672
   16SAPS  C217 2067   1.168   4.426   4.849  0.5450  0.1362  0.1399
   16SAPS  H17R 2068   1.271   4.467   4.865  0.9372 -0.1667 -1.4764
   16SAPS  H17S 2069   1.171   4.324   4.892  1.2588  0.7710  1.7011
   16SAPS  C218 2070   1.063   4.504   4.920 -0.0610 -0.9347 -0.3546
   16SAPS  H18R 2071   1.010   4.586   4.867 -1.7666 -1.0530  1.0473
   16SAPS  H18S 2072   1.109   4.566   5.001 -0.4764 -1.9498  0.6887
   16SAPS  C219 2073   0.964   4.424   4.995  0.5242  0.1276 -0.0430
   16SAPS  H19R 2074   1.010   4.370   5.080  0.8541  1.3771  0.5979
   16SAPS  H19S 2075   0.926   4.345   4.926 -1.1291  0.6968  0.1770
   16SAPS  C220 2076   0.849   4.504   5.059 -0.4092 -1.0169 -0.5070
   16SAPS  H20R 2077   0.891   4.560   5.145  1.1904  0.0501 -1.9198
   16SAPS  H20S 2078   0.760   4.444   5.086 -0.2003 -1.4105 -0.6876
   16SAPS  H20T 2079   0.806   4.579   4.989  0.8558  0.0656 -0.1758
   16SAPS   C33 2080   1.512   4.406   3.343 -0.4894  0.1931 -0.3943
   16SAPS   H3X 2081   1.408   4.388   3.308 -0.2557 -2.5443  0.1396
   16SAPS   H3Y 2082   1.530   4.516   3.351  1.9434 -0.1913  0.1693
   16SAPS   C34 2083   1.532   4.348   3.484 -0.3938  0.3596  0.3854
   16SAPS   H4X 2084   1.625   4.286   3.490 -1.7732 -1.6976  1.7945
   16SAPS   H4Y 2085   1.456   4.269   3.503  1.0987 -1.5296 -1.0204
   16SAPS   C35 2086   1.543   4.441   3.608 -0.5621  0.5977 -0.2049
   16SAPS   H5X 2087   1.456   4.511   3.609 -1.7499 -0.8181  0.8278
   16SAPS   H5Y 2088   1.641   4.494   3.601 -0.3252  0.0604 -0.9610
   16SAPS   C36 2089   1.552   4.369   3.734 -0.0340 -0.6762  0.2237
   16SAPS   H6X 2090   1.619   4.280   3.727  0.8608 -0.0212  0.3180
   16SAPS   H6Y 2091   1.449   4.330   3.749  0.3241 -1.3809  0.9086
   16SAPS   C37 2092   1.599   4.460   3.845  0.6510 -0.2468 -0.4435
   16SAPS   H7X 2093   1.520   4.538   3.855 -0.8580 -1.9774  2.8197
   16SAPS   H7Y 2094   1.703   4.491   3.823  0.4255  1.1009  0.2899
   16SAPS   C38 2095   1.609   4.383   3.978  0.6382 -0.1106  0.2824
   16SAPS   H8X 2096   1.690   4.308   3.962  0.1748 -0.0910 -2.7437
   16SAPS   H8Y 2097   1.515   4.328   4.000  0.3306  0.3044  0.0167
   16SAPS   C39 2098   1.637   4.462   4.107 -0.4160 -0.3936  0.3494
   16SAPS   H9X 2099   1.734   4.517   4.107 -0.8195  0.3525  1.6301
   16SAPS   H9Y 2100   1.631   4.391   4.192 -1.6372  2.4162  2.7665
   16SAPS  C310 2101   1.522   4.560   4.148 -0.3068  0.5630  0.3248
   16SAPS  H10X 2102   1.422   4.513   4.138 -0.6023  0.8748  1.6433
   16SAPS  H10Y 2103   1.520   4.648   4.080  1.4745  0.3350 -0.0727
   16SAPS  C311 2104   1.550   4.614   4.290 -0.7052  0.2304  0.4055
   16SAPS  H11X 2105   1.646   4.669   4.279 -0.9889  0.8545  1.0241
   16SAPS  H11Y 2106   1.569   4.531   4.361  1.5185  2.5765  2.8035
   16SAPS  C312 2107   1.439   4.691   4.357  0.7457 -0.7439  0.5630
   16SAPS  H12X 2108   1.360   4.626   4.401  1.0969 -0.3751  1.7657
   16SAPS  H12Y 2109   1.386   4.760   4.288  2.7641  0.0064 -0.3272
   16SAPS  C313 2110   1.493   4.771   4.475  0.5373 -0.2126  0.0090
   16SAPS  H13X 2111   1.409   4.827   4.521  0.6234  2.5199 -2.7562
   16SAPS  H13Y 2112   1.564   4.844   4.430  0.4922 -1.0281 -1.4628
   16SAPS  C314 2113   1.552   4.673   4.580  0.1442 -0.3416  0.0117
   16SAPS  H14X 2114   1.655   4.655   4.541  0.3123  1.2702 -0.3768
   16SAPS  H14Y 2115   1.492   4.580   4.578 -0.8302  0.2563 -2.0495
   16SAPS  C315 2116   1.562   4.736   4.722 -0.1979 -0.4136  0.0761
   16SAPS  H15X 2117   1.459   4.769   4.748  0.0578  0.8359 -0.3943
   16SAPS  H15Y 2118   1.612   4.834   4.709 -1.4441  0.0235 -1.8460
   16SAPS  C316 2119   1.651   4.657   4.816 -0.0876 -0.2376  0.2403
   16SAPS  H16X 2120   1.670   4.728   4.900 -0.4824  0.6336 -0.3916
   16SAPS  H16Y 2121   1.736   4.626   4.751 -0.5126  0.6243 -0.7654
   16SAPS  C317 2122   1.585   4.531   4.873  0.0736  0.6096  0.3623
   16SAPS  H17X 2123   1.668   4.464   4.904  0.1264  0.5920  0.1859
   16SAPS  H17Y 2124   1.529   4.483   4.790  0.4597  1.3455 -0.3386
   16SAPS  C318 2125   1.504   4.558   4.993 -0.0670 -0.6520  1.0212
   16SAPS  H18X 2126   1.569   4.599   5.074  0.4823 -0.8950  0.7095
   16SAPS  H18Y 2127   1.443   4.472   5.028  0.8849 -1.1722  1.4366
   16SAPS  H18Z 2128   1.426   4.628   4.957 -0.3417 -0.9579  1.0178
   17SAPS     N 2129   3.666   2.274   2.301  0.1172 -0.0931 -0.1514
   17SAPS   HN1 2130   3.744   2.259   2.369 -0.5534 -2.2866  0.2015
   17SAPS   HN2 2131   3.571   2.247   2.334 -0.0418 -0.5488 -0.9527
   17SAPS   HN3 2132   3.683   2.217   2.216  2.1786  3.1703 -2.1742
   17SAPS   C12 2133   3.660   2.412   2.254 -0.2522 -0.2251 -0.0569
   17SAPS  H12A 2134   3.760   2.448   2.236  0.3420 -0.3841  2.5790
   17SAPS   C13 2135   3.568   2.435   2.133  0.2443 -0.5440  0.6943
   17SAPS  O13A 2136   3.505   2.344   2.075  0.1964 -0.3841 -0.3143
   17SAPS  O13B 2137   3.569   2.551   2.084 -0.2650  0.2794 -0.7831
   17SAPS   C11 2138   3.614   2.510   2.371 -0.2496  1.1098 -0.7243
   17SAPS  H11A 2139   3.508   2.488   2.393  0.3522  1.3654  3.0661
   17SAPS  H11B 2140   3.629   2.617   2.345  0.8599  1.4500  1.1199
   17SAPS     P 2141   3.653   2.514   2.630 -0.4383 -0.2707 -0.5484
   17SAPS   O13 2142   3.547   2.425   2.684  0.8683 -0.7931  0.0207
   17SAPS   O14 2143   3.781   2.514   2.702  0.4342  0.0263 -0.7094
   17SAPS   O12 2144   3.694   2.474   2.484  0.9937 -0.0477  0.2119
   17SAPS   O11 2145   3.593   2.656   2.618 -0.3393  0.6032 -0.1209
   17SAPS    C1 2146   3.668   2.768   2.659  0.5702 -0.1660  0.4718
   17SAPS    HA 2147   3.776   2.768   2.631  0.7309  2.5731  0.7988
   17SAPS    HB 2148   3.631   2.864   2.617  1.5931  0.0589  0.0406
   17SAPS    C2 2149   3.654   2.778   2.815 -0.2640  0.4886 -1.1178
   17SAPS    HS 2150   3.708   2.691   2.859 -1.9124 -0.0100  0.0257
   17SAPS   O21 2151   3.513   2.798   2.854  0.1194 -0.1807  0.5111
   17SAPS   C21 2152   3.487   2.736   2.964 -0.4752 -0.4283  0.2808
   17SAPS   O22 2153   3.554   2.657   3.027 -0.6728 -0.3274 -0.0633
   17SAPS   C22 2154   3.345   2.784   3.005 -0.1691 -0.1949  0.9416
   17SAPS   H2R 2155   3.361   2.894   3.008 -2.8223  0.2603  0.2845
   17SAPS   H2S 2156   3.281   2.739   2.926  0.7961 -0.9270  0.5505
   17SAPS    C3 2157   3.745   2.902   2.863  0.4585 -0.1487 -0.7130
   17SAPS    HX 2158   3.719   2.988   2.798 -2.9462 -1.3967 -1.2365
   17SAPS    HY 2159   3.852   2.875   2.850  0.3087 -0.1448 -2.1146
   17SAPS   O31 2160   3.712   2.939   3.000 -0.1270 -0.5913 -0.1542
   17SAPS   C31 2161   3.741   3.065   3.038  0.2343  0.0545 -0.3400
   17SAPS   O32 2162   3.824   3.129   2.977  0.1636 -0.3069 -0.7655
   17SAPS   C32 2163   3.694   3.100   3.174 -0.1543 -0.8005  0.9258
   17SAPS   H2X 2164   3.586   3.126   3.167  0.1479  0.1379 -0.6541
   17SAPS   H2Y 2165   3.736   3.196   3.213 -0.0106 -0.1299 -0.7920
   17SAPS   C23 2166   3.308   2.736   3.143  0.2939  0.1810  0.2283
   17SAPS   H3R 2167   3.375   2.775   3.222  0.4352  1.4848 -0.5044
   17SAPS   H3S 2168   3.308   2.625   3.150 -0.8759  0.0232 -1.5785
   17SAPS   C24 2169   3.159   2.765   3.182 -1.0051 -1.0941 -0.1633
   17SAPS   H4R 2170   3.148   2.869   3.145 -3.4690 -1.1519  0.2603
   17SAPS   H4S 2171   3.149   2.769   3.293 -0.1304  0.3109 -0.1089
   17SAPS   C25 2172   3.048   2.690   3.113  0.5959  0.1473 -0.1205
   17SAPS   H5R 2173   3.064   2.651   3.011 -1.8988 -1.2499 -0.0609
   17SAPS   C26 2174   2.919   2.681   3.161  0.2408 -0.2709  0.6194
   17SAPS   H6R 2175   2.845   2.635   3.095  2.0598  1.2505 -2.7228
   17SAPS   C27 2176   2.862   2.740   3.287  0.7204 -0.4279  0.1281
   17SAPS   H7R 2177   2.873   2.851   3.292 -1.1561 -0.1676 -0.5593
   17SAPS   H7S 2178   2.929   2.701   3.365  1.8955 -0.1298 -0.6987
   17SAPS   C28 2179   2.718   2.707   3.330 -0.1244 -0.2036  1.0859
   17SAPS   H8R 2180   2.649   2.689   3.246 -0.0650  2.0959  0.4879
   17SAPS   C29 2181   2.678   2.692   3.453  0.6018 -0.5547  0.1894
   17SAPS   H9R 2182   2.572   2.670   3.469  0.4570  0.5826  0.8718
   17SAPS  C210 2183   2.755   2.718   3.577  0.0225  0.0148 -0.1711
   17SAPS  H10R 2184   2.850   2.775   3.566  0.0947  1.1847  4.3593
   17SAPS  H10S 2185   2.781   2.617   3.615  1.1671  0.4965  0.3916
   17SAPS  C211 2186   2.686   2.792   3.688 -0.2959  1.0066 -0.4410
   17SAPS  H11R 2187   2.582   2.822   3.667 -0.5482 -0.2025 -1.0101
   17SAPS  C212 2188   2.728   2.802   3.816  0.2323 -0.0390 -0.2123
   17SAPS  H12R 2189   2.673   2.872   3.880 -0.9499 -3.2778  2.5754
   17SAPS  C213 2190   2.869   2.769   3.868 -0.2068 -0.7991  0.2054
   17SAPS  H13R 2191   2.930   2.769   3.775 -0.4286 -0.6759  0.0563
   17SAPS  H13S 2192   2.869   2.664   3.902 -0.6331 -0.0988  2.4905
   17SAPS  C214 2193   2.924   2.867   3.963  0.4968  0.3412 -0.9507
   17SAPS  H14R 2194   2.966   2.957   3.916  2.9960 -0.8906 -1.2402
   17SAPS  C215 2195   2.903   2.864   4.095 -0.1741  0.0018 -0.5750
   17SAPS  H15R 2196   2.946   2.944   4.157 -5.0236  0.9977  2.0285
   17SAPS  C216 2197   2.845   2.758   4.170  0.2287  0.3145 -0.5939
   17SAPS  H16R 2198   2.918   2.702   4.232  0.8718  1.8905  0.1121
   17SAPS  H16S 2199   2.806   2.685   4.095 -0.4884 -0.2661  0.3346
   17SAPS  C217 2200   2.729   2.803   4.265 -0.2825 -0.3695  0.5476
   17SAPS  H17R 2201   2.676   2.715   4.307 -1.2709 -0.2653 -0.4395
   17SAPS  H17S 2202   2.655   2.857   4.202 -0.5539  0.9093  1.9132
   17SAPS  C218 2203   2.766   2.901   4.375  0.1884  0.5631  0.2600
   17SAPS  H18R 2204   2.675   2.923   4.435 -0.5668 -0.0161 -0.6400
   17SAPS  H18S 2205   2.817   2.994   4.343  1.3072  0.1760  0.8800
   17SAPS  C219 2206   2.865   2.834   4.472 -0.0691  0.5743  0.1706
   17SAPS  H19R 2207   2.969   2.843   4.432  0.8648  0.4108  2.4383
   17SAPS  H19S 2208   2.838   2.728   4.457  0.1954  0.5614 -0.2670
   17SAPS  C220 2209   2.867   2.877   4.610 -0.3119  0.2638  0.4699
   17SAPS  H20R 2210   2.878   2.986   4.628 -2.2961  0.3454  1.5754
   17SAPS  H20S 2211   2.952   2.831   4.664  0.2348 -0.4578 -0.9522
   17SAPS  H20T 2212   2.770   2.853   4.660 -0.5680  1.1570  0.4189
   17SAPS   C33 2213   3.724   2.979   3.271 -0.3404  0.5790 -0.5824
   17SAPS   H3X 2214   3.828   2.948   3.244  0.1315 -0.1568  1.8532
   17SAPS   H3Y 2215   3.659   2.892   3.248  2.6286 -1.7852 -0.6330
   17SAPS   C34 2216   3.699   3.010   3.415  0.5797  0.2043  0.4453
   17SAPS   H4X 2217   3.592   3.038   3.426 -1.0834 -3.7461 -3.2230
   17SAPS   H4Y 2218   3.758   3.100   3.443  1.3387 -0.3364  0.6221
   17SAPS   C35 2219   3.733   2.887   3.501  0.0813 -0.0577  0.6171
   17SAPS   H5X 2220   3.833   2.852   3.470  0.6061  1.6904  0.2182
   17SAPS   H5Y 2221   3.653   2.813   3.478 -0.2537  0.7562 -0.9820
   17SAPS   C36 2222   3.737   2.910   3.656  0.2774  0.1253  0.7502
   17SAPS   H6X 2223   3.771   2.817   3.707  1.1936 -0.0555 -0.1441
   17SAPS   H6Y 2224   3.629   2.924   3.678 -0.0093  0.2629 -0.6969
   17SAPS   C37 2225   3.811   3.032   3.702 -0.1008  0.7022 -0.2438
   17SAPS   H7X 2226   3.747   3.123   3.695  2.0688  2.1991 -2.0600
   17SAPS   H7Y 2227   3.884   3.046   3.619 -0.6705  0.2355 -0.8438
   17SAPS   C38 2228   3.879   3.017   3.840  0.3088  0.5241  0.1444
   17SAPS   H8X 2229   3.793   3.023   3.910 -0.6947  0.6982 -1.0714
   17SAPS   H8Y 2230   3.948   3.103   3.852 -0.2942  1.5873 -2.9960
   17SAPS   C39 2231   3.960   2.883   3.848  0.2416 -0.1379 -0.1809
   17SAPS   H9X 2232   4.017   2.886   3.753 -0.3876  0.4069 -0.5532
   17SAPS   H9Y 2233   3.890   2.797   3.853 -0.8127  0.7472  1.3072
   17SAPS  C310 2234   4.059   2.876   3.961  0.5647  0.2663  0.1989
   17SAPS  H10X 2235   4.146   2.945   3.952  0.2700  0.8348  1.4676
   17SAPS  H10Y 2236   4.098   2.773   3.971 -3.6650 -1.6036 -0.4382
   17SAPS  C311 2237   3.998   2.908   4.093  0.4921 -0.6766 -0.4227
   17SAPS  H11X 2238   3.900   2.856   4.103 -0.1466  0.5920  0.1212
   17SAPS  H11Y 2239   3.961   3.013   4.096 -0.3150 -0.9484  2.6390
   17SAPS  C312 2240   4.085   2.865   4.215 -0.3008 -0.3717  0.3840
   17SAPS  H12X 2241   4.164   2.940   4.235 -0.3700  0.0750 -0.9525
   17SAPS  H12Y 2242   4.146   2.779   4.182  0.6471 -0.2805  1.8263
   17SAPS  C313 2243   4.003   2.841   4.348 -0.6566 -0.3220  0.2793
   17SAPS  H13X 2244   3.945   2.935   4.363 -0.4481 -0.2915  0.9284
   17SAPS  H13Y 2245   4.075   2.832   4.431 -0.8677  1.0155  0.6365
   17SAPS  C314 2246   3.903   2.727   4.345 -0.1996  0.4473  1.2236
   17SAPS  H14X 2247   3.953   2.636   4.305 -2.9729 -0.6138 -0.0820
   17SAPS  H14Y 2248   3.813   2.752   4.284  1.0237  1.0389 -0.4413
   17SAPS  C315 2249   3.843   2.700   4.486  0.5127 -0.0652 -0.7484
   17SAPS  H15X 2250   3.745   2.651   4.466  0.3710 -0.7075  1.2694
   17SAPS  H15Y 2251   3.834   2.795   4.543 -4.2328 -0.9622  0.4150
   17SAPS  C316 2252   3.927   2.595   4.573  0.3709 -0.3181  0.6216
   17SAPS  H16X 2253   4.030   2.635   4.583  0.6175 -0.8169  0.1496
   17SAPS  H16Y 2254   3.940   2.501   4.515  1.5562  1.0545 -1.5065
   17SAPS  C317 2255   3.872   2.570   4.712 -0.8167  0.5495 -0.0223
   17SAPS  H17X 2256   3.887   2.463   4.736 -1.7915 -0.2091 -2.5007
   17SAPS  H17Y 2257   3.764   2.591   4.717 -0.1728  4.2788  1.4491
   17SAPS  C318 2258   3.946   2.643   4.827 -0.0207 -0.1501  0.2070
   17SAPS  H18X 2259   3.971   2.743   4.785  1.3618 -0.9900 -1.0643
   17SAPS  H18Y 2260   4.034   2.580   4.849  0.9495 -0.8746 -4.6692
   17SAPS  H18Z 2261   3.873   2.666   4.907  0.4048  3.6616 -0.2941
   18SAPS     N 2262   6.807   2.780   2.477  0.0646  0.7207 -0.2290
   18SAPS   HN1 2263   6.814   2.811   2.576 -1.3620 -0.5195  0.2861
   18SAPS   HN2 2264   6.707   2.789   2.452  0.1456  0.1905 -0.7664
   18SAPS   HN3 2265   6.834   2.682   2.456 -0.2102  0.5573  0.1829
   18SAPS   C12 2266   6.901   2.868   2.393  0.2386  0.7350  0.2057
   18SAPS  H12A 2267   7.002   2.850   2.428  0.4526  0.8082 -0.3743
   18SAPS   C13 2268   6.910   2.839   2.242 -0.6320 -0.4614  0.5725
   18SAPS  O13A 2269   6.801   2.796   2.184 -0.3475  0.0034 -1.0565
   18SAPS  O13B 2270   6.988   2.906   2.174 -0.6926  0.0178 -0.1698
   18SAPS   C11 2271   6.870   3.014   2.416 -0.0431 -0.4797 -0.1584
   18SAPS  H11A 2272   6.762   3.035   2.398  0.0545 -0.6155 -0.9204
   18SAPS  H11B 2273   6.929   3.077   2.346 -2.2307  0.7515 -0.9856
   18SAPS     P 2274   6.857   3.197   2.589 -0.1469 -0.0956 -0.3440
   18SAPS   O13 2275   6.908   3.276   2.474 -0.4615  0.5115 -0.2280
   18SAPS   O14 2276   6.726   3.242   2.633 -0.9776 -0.0308 -0.4762
   18SAPS   O12 2277   6.879   3.040   2.560 -0.3625 -0.1651  0.1835
   18SAPS   O11 2278   6.960   3.222   2.711 -0.1007 -0.3140  0.6502
   18SAPS    C1 2279   6.987   3.126   2.809  0.5153  0.2170  0.6578
   18SAPS    HA 2280   7.032   3.035   2.766  0.6540  0.0689  1.1158
   18SAPS    HB 2281   7.070   3.175   2.864  2.0614  0.2217 -1.5453
   18SAPS    C2 2282   6.870   3.098   2.908  0.2355 -0.3438 -0.2390
   18SAPS    HS 2283   6.783   3.055   2.854 -0.2413  0.2445  0.0485
   18SAPS   O21 2284   6.836   3.226   2.966  0.5340  0.0408  0.2126
   18SAPS   C21 2285   6.727   3.224   3.048  0.0764 -0.0361 -0.7026
   18SAPS   O22 2286   6.649   3.127   3.059  0.2797 -0.8817  0.1706
   18SAPS   C22 2287   6.714   3.354   3.122 -0.4637 -0.4421  0.2145
   18SAPS   H2R 2288   6.794   3.422   3.086 -1.7010  1.0002  0.1002
   18SAPS   H2S 2289   6.612   3.393   3.103 -0.2654  1.0354  1.9516
   18SAPS    C3 2290   6.912   2.991   3.006  0.2462  0.9924  0.4432
   18SAPS    HX 2291   6.953   2.899   2.959  1.2477  1.6729 -0.0374
   18SAPS    HY 2292   6.824   2.974   3.072 -0.0409  1.5110  0.2060
   18SAPS   O31 2293   7.022   3.049   3.079  0.2995  0.2483 -0.1785
   18SAPS   C31 2294   7.008   3.072   3.213  0.5101  0.7732 -0.5422
   18SAPS   O32 2295   6.905   3.046   3.277 -0.2931  0.5571  1.2085
   18SAPS   C32 2296   7.140   3.127   3.259  0.4291  0.8602 -0.9831
   18SAPS   H2X 2297   7.122   3.232   3.294  0.0925  0.5107 -0.0691
   18SAPS   H2Y 2298   7.211   3.129   3.173  3.0607 -0.6997  0.9951
   18SAPS   C23 2299   6.725   3.338   3.272 -0.1996 -0.1372 -0.0795
   18SAPS   H3R 2300   6.819   3.286   3.301 -0.5299 -1.2358 -0.9267
   18SAPS   H3S 2301   6.652   3.268   3.317 -0.8062  0.8552  0.5190
   18SAPS   C24 2302   6.688   3.471   3.342 -0.2850  0.0995  0.3052
   18SAPS   H4R 2303   6.763   3.548   3.315 -1.4585  1.5739  1.1422
   18SAPS   H4S 2304   6.696   3.467   3.452 -0.1648 -0.5410  0.2813
   18SAPS   C25 2305   6.551   3.531   3.309  0.3230 -0.1795 -0.5741
   18SAPS   H5R 2306   6.530   3.551   3.203  3.6028  0.0603 -1.2847
   18SAPS   C26 2307   6.458   3.564   3.404 -0.4529  0.4397  0.0667
   18SAPS   H6R 2308   6.367   3.618   3.373  1.1707  2.2727 -1.8201
   18SAPS   C27 2309   6.474   3.549   3.550  0.4916  0.3555 -0.5424
   18SAPS   H7R 2310   6.535   3.632   3.591  2.9262 -1.9251  0.7757
   18SAPS   H7S 2311   6.530   3.456   3.573 -0.2533  0.3542  1.4170
   18SAPS   C28 2312   6.335   3.546   3.615 -0.4338 -0.6034  0.4855
   18SAPS   H8R 2313   6.255   3.482   3.574  0.3453 -0.6459 -1.0498
   18SAPS   C29 2314   6.316   3.606   3.734  0.3348  0.1836 -0.1818
   18SAPS   H9R 2315   6.216   3.606   3.780  1.1090  0.1996  1.5527
   18SAPS  C210 2316   6.416   3.682   3.819 -0.2111 -0.4549  0.2464
   18SAPS  H10R 2317   6.452   3.771   3.765 -1.7724 -0.7506 -1.3554
   18SAPS  H10S 2318   6.503   3.613   3.814 -1.2095 -1.6994 -0.5481
   18SAPS  C211 2319   6.402   3.719   3.965  0.0695  0.1321  0.6487
   18SAPS  H11R 2320   6.334   3.804   3.981 -2.2886 -1.3812 -0.7228
   18SAPS  C212 2321   6.441   3.635   4.065 -0.1286 -0.7113 -0.4983
   18SAPS  H12R 2322   6.417   3.655   4.170 -0.7183 -2.7661 -0.2036
   18SAPS  C213 2323   6.523   3.506   4.055  0.0630  0.2132 -0.1469
   18SAPS  H13R 2324   6.600   3.513   4.135  0.9172 -2.5035 -0.6214
   18SAPS  H13S 2325   6.578   3.497   3.959  2.9583  1.7400  1.2230
   18SAPS  C214 2326   6.437   3.385   4.070 -0.3427 -0.6275  0.4743
   18SAPS  H14R 2327   6.330   3.396   4.049  0.1302  0.8751 -1.4732
   18SAPS  C215 2328   6.492   3.264   4.102 -0.2613 -0.5369 -0.3373
   18SAPS  H15R 2329   6.419   3.185   4.123  0.5219 -0.9475  0.9086
   18SAPS  C216 2330   6.628   3.223   4.124 -0.3059  0.5753  0.4140
   18SAPS  H16R 2331   6.697   3.299   4.079  0.6981 -1.7998 -2.3833
   18SAPS  H16S 2332   6.654   3.136   4.060  2.8951  0.2827  1.9114
   18SAPS  C217 2333   6.664   3.182   4.265 -0.0872 -0.1148 -0.3890
   18SAPS  H17R 2334   6.595   3.101   4.296  1.8453 -1.7644 -0.1845
   18SAPS  H17S 2335   6.639   3.263   4.337  1.5615  0.1904 -0.1065
   18SAPS  C218 2336   6.808   3.139   4.285 -0.4354  0.2523  0.9923
   18SAPS  H18R 2337   6.878   3.216   4.247  1.0139 -0.2103  2.5853
   18SAPS  H18S 2338   6.818   3.052   4.216  1.6828  0.8305  0.5061
   18SAPS  C219 2339   6.843   3.103   4.425 -0.5448  0.0698  0.6791
   18SAPS  H19R 2340   6.765   3.036   4.467 -1.3115  1.6363  1.8635
   18SAPS  H19S 2341   6.829   3.193   4.489  0.1761  0.5433  0.1857
   18SAPS  C220 2342   6.979   3.033   4.453  0.2434 -0.0393  0.2732
   18SAPS  H20R 2343   6.993   2.960   4.370  0.0571  0.9878 -0.6997
   18SAPS  H20S 2344   6.973   2.981   4.550  0.2170  0.5222  0.5792
   18SAPS  H20T 2345   7.058   3.111   4.458 -1.0552  1.3829 -0.3556
   18SAPS   C33 2346   7.204   3.055   3.381  0.3505  0.3205  0.2672
   18SAPS   H3X 2347   7.308   3.092   3.378  0.5421 -0.2603 -1.1440
   18SAPS   H3Y 2348   7.208   2.945   3.362  1.6162  0.3188  0.4403
   18SAPS   C34 2349   7.147   3.076   3.521  1.0719  0.5273 -0.0262
   18SAPS   H4X 2350   7.037   3.071   3.512  1.2398 -0.1300 -2.3989
   18SAPS   H4Y 2351   7.174   3.178   3.555  0.6173  0.4002  0.7530
   18SAPS   C35 2352   7.206   2.968   3.623 -0.2219 -0.3185  0.1261
   18SAPS   H5X 2353   7.317   2.970   3.618 -0.1016 -3.6806 -2.1418
   18SAPS   H5Y 2354   7.187   2.862   3.595 -1.2305 -0.2758  0.6167
   18SAPS   C36 2355   7.159   2.974   3.771 -0.6357 -0.1144 -0.0521
   18SAPS   H6X 2356   7.053   3.008   3.770 -0.2383  1.2425  1.2590
   18SAPS   H6Y 2357   7.222   3.049   3.823 -2.5313 -1.0880  4.0350
   18SAPS   C37 2358   7.188   2.843   3.853  0.1593  0.1111  0.2883
   18SAPS   H7X 2359   7.298   2.827   3.843 -0.2297 -1.3875 -3.1397
   18SAPS   H7Y 2360   7.145   2.760   3.792  2.0155 -0.0440 -0.8913
   18SAPS   C38 2361   7.135   2.841   3.993 -0.0075  0.3794  0.2309
   18SAPS   H8X 2362   7.030   2.876   3.983 -0.7081 -1.4720  0.5969
   18SAPS   H8Y 2363   7.199   2.900   4.062 -0.8883  1.1975  0.3677
   18SAPS   C39 2364   7.117   2.702   4.060 -0.2078  0.3623  0.6648
   18SAPS   H9X 2365   7.208   2.641   4.042 -1.2388 -0.7928 -0.9394
   18SAPS   H9Y 2366   7.034   2.648   4.011  1.4528 -2.8171  1.1382
   18SAPS  C310 2367   7.097   2.704   4.211 -0.2705 -0.3711 -0.6221
   18SAPS  H10X 2368   7.012   2.771   4.235  0.2969  0.5166 -1.0267
   18SAPS  H10Y 2369   7.188   2.743   4.261 -2.8507  0.6874  3.8211
   18SAPS  C311 2370   7.065   2.571   4.268  0.1516  1.2830  0.0193
   18SAPS  H11X 2371   7.142   2.496   4.240 -0.7764  0.0033  0.7899
   18SAPS  H11Y 2372   6.963   2.538   4.242  1.3330 -1.4227 -1.6184
   18SAPS  C312 2373   7.054   2.563   4.417 -0.2234  0.0571 -0.6975
   18SAPS  H12X 2374   7.042   2.454   4.434  2.8979 -0.2107  0.6118
   18SAPS  H12Y 2375   6.967   2.622   4.452 -0.1441 -0.9300  1.3606
   18SAPS  C313 2376   7.176   2.619   4.496  0.0827  0.3162  0.0874
   18SAPS  H13X 2377   7.169   2.729   4.489 -2.6280  0.3221  1.3826
   18SAPS  H13Y 2378   7.273   2.584   4.456  0.5234  1.0625  0.4953
   18SAPS  C314 2379   7.171   2.580   4.643  0.4584  0.2909  0.0712
   18SAPS  H14X 2380   7.166   2.469   4.646 -1.4432  0.3286 -0.1914
   18SAPS  H14Y 2381   7.073   2.617   4.682 -0.8322 -2.2605 -0.5372
   18SAPS  C315 2382   7.298   2.633   4.713  0.7237  0.1911  0.4838
   18SAPS  H15X 2383   7.288   2.741   4.689  0.5869  0.0309 -0.1893
   18SAPS  H15Y 2384   7.393   2.607   4.662  0.5365 -1.9242  1.1231
   18SAPS  C316 2385   7.289   2.628   4.866 -0.1911 -0.8635 -0.1289
   18SAPS  H16X 2386   7.284   2.522   4.896  0.9908 -0.4676  1.6054
   18SAPS  H16Y 2387   7.195   2.671   4.909  1.7259  0.7768  2.7414
   18SAPS  C317 2388   7.414   2.682   4.946  0.0829  0.8608  0.7192
   18SAPS  H17X 2389   7.437   2.790   4.936  0.7430  0.5952 -0.7907
   18SAPS  H17Y 2390   7.493   2.612   4.912  0.1614  1.0008  0.6171
   18SAPS  C318 2391   7.404   2.643   5.093 -0.6462 -0.1415 -0.0641
   18SAPS  H18X 2392   7.339   2.717   5.144 -1.5600 -0.4097 -0.8109
   18SAPS  H18Y 2393   7.508   2.638   5.130  0.3374  2.3171 -2.1374
   18SAPS  H18Z 2394   7.343   2.552   5.113 -0.5254  0.2282  2.1561
   19SAPS     N 2395   1.292   1.575   2.828  0.7256  0.5323 -0.3522
   19SAPS   HN1 2396   1.358   1.579   2.909  1.9229  0.8678 -1.3024
   19SAPS   HN2 2397   1.297   1.659   2.766  1.4971  0.1346 -0.8458
   19SAPS   HN3 2398   1.195   1.582   2.863  0.8372  1.0607 -0.1280
   19SAPS   C12 2399   1.312   1.445   2.751  0.2433 -0.4589 -0.4003
   19SAPS  H12A 2400   1.265   1.449   2.653 -0.7742 -2.5429 -0.0513
   19SAPS   C13 2401   1.450   1.392   2.740 -0.5177  0.0475  0.7783
   19SAPS  O13A 2402   1.538   1.441   2.815 -0.2407  0.0411  0.0637
   19SAPS  O13B 2403   1.474   1.288   2.666 -0.0654 -0.4973 -0.0201
   19SAPS   C11 2404   1.232   1.340   2.826  0.3604 -0.1399  0.2195
   19SAPS  H11A 2405   1.277   1.314   2.924  0.9471  2.6436  0.7912
   19SAPS  H11B 2406   1.220   1.248   2.765  2.1226  1.1683 -2.2853
   19SAPS     P 2407   0.975   1.301   2.903 -0.5637 -0.5256  0.2267
   19SAPS   O13 2408   0.877   1.380   2.972  0.5768 -0.0813 -1.0822
   19SAPS   O14 2409   0.930   1.225   2.787  0.3920  0.3101 -0.3463
   19SAPS   O12 2410   1.102   1.398   2.855  0.7852  0.8224  0.3677
   19SAPS   O11 2411   1.054   1.203   3.012 -0.0536 -0.4520  0.4472
   19SAPS    C1 2412   1.081   1.278   3.137 -0.1316  0.2583 -0.1419
   19SAPS    HA 2413   1.132   1.376   3.124  1.2022  0.0763  2.8585
   19SAPS    HB 2414   0.988   1.310   3.188  0.0111 -0.6474  0.7289
   19SAPS    C2 2415   1.169   1.198   3.239  0.7043  0.1403  0.1091
   19SAPS    HS 2416   1.241   1.136   3.181  0.3469  0.7465 -1.0126
   19SAPS   O21 2417   1.073   1.116   3.303 -0.5194  0.3934  0.5527
   19SAPS   C21 2418   1.122   1.022   3.379  0.4126 -0.2534 -0.3768
   19SAPS   O22 2419   1.240   0.984   3.376 -0.3107  0.1696 -0.0857
   19SAPS   C22 2420   1.014   0.979   3.469 -0.4435  0.4245 -0.5601
   19SAPS   H2R 2421   0.925   0.964   3.403 -0.1096 -0.1870 -0.8745
   19SAPS   H2S 2422   1.025   0.875   3.508 -2.3401  0.5568  0.4531
   19SAPS    C3 2423   1.239   1.295   3.332  0.1370  0.3125 -0.2009
   19SAPS    HX 2424   1.311   1.334   3.256 -2.1491  0.4239 -2.4504
   19SAPS    HY 2425   1.297   1.239   3.408 -1.6208  0.2211  1.1295
   19SAPS   O31 2426   1.143   1.386   3.390  0.0420 -0.2559  0.5350
   19SAPS   C31 2427   1.188   1.463   3.477 -0.5899  0.0817 -0.1041
   19SAPS   O32 2428   1.303   1.464   3.519 -0.2977 -0.8107  0.6470
   19SAPS   C32 2429   1.071   1.548   3.530  0.2507 -0.3105 -0.9540
   19SAPS   H2X 2430   0.974   1.496   3.518  0.1043  0.5315 -5.4064
   19SAPS   H2Y 2431   1.074   1.632   3.458  2.3090  1.1914  0.7706
   19SAPS   C23 2432   0.967   1.078   3.581 -0.0522  0.0364 -0.2540
   19SAPS   H3R 2433   0.865   1.042   3.607 -1.5882  2.1789 -2.8154
   19SAPS   H3S 2434   0.973   1.181   3.542 -1.0776  1.1926  2.3926
   19SAPS   C24 2435   1.050   1.071   3.716  0.8550 -0.0205 -0.0470
   19SAPS   H4R 2436   1.050   0.964   3.744  0.2470  0.1711  0.7212
   19SAPS   H4S 2437   0.996   1.114   3.803 -0.9542 -0.9575 -0.6339
   19SAPS   C25 2438   1.186   1.132   3.697  0.3700  0.1638 -0.3706
   19SAPS   H5R 2439   1.205   1.201   3.614 -0.2727  0.8603  0.0428
   19SAPS   C26 2440   1.288   1.114   3.786  0.4715 -0.0361 -0.8651
   19SAPS   H6R 2441   1.381   1.169   3.766  0.4924  0.5591  0.7359
   19SAPS   C27 2442   1.298   1.028   3.913  0.3216  0.2279  0.3509
   19SAPS   H7R 2443   1.390   0.965   3.914  0.0281 -0.2036  0.5511
   19SAPS   H7S 2444   1.211   0.958   3.913 -0.0052  0.6361  0.1558
   19SAPS   C28 2445   1.301   1.109   4.037 -0.0552  0.1537 -0.5705
   19SAPS   H8R 2446   1.198   1.142   4.059 -0.0955  0.5086 -1.2752
   19SAPS   C29 2447   1.402   1.142   4.120  0.4335 -0.4072  0.5291
   19SAPS   H9R 2448   1.385   1.203   4.210  0.1784 -0.8311  0.7751
   19SAPS  C210 2449   1.543   1.089   4.114  0.7032 -0.4169  0.4116
   19SAPS  H10R 2450   1.582   1.109   4.011 -0.3865 -0.6857 -0.0634
   19SAPS  H10S 2451   1.548   0.978   4.119  0.1828 -0.3932  2.1359
   19SAPS  C211 2452   1.650   1.128   4.217  0.6690 -0.3883  0.4182
   19SAPS  H11R 2453   1.744   1.164   4.171 -0.4173  2.5556  0.2677
   19SAPS  C212 2454   1.647   1.124   4.357 -0.2554 -0.0022  0.6218
   19SAPS  H12R 2455   1.737   1.153   4.413  0.8862  0.0819 -1.1705
   19SAPS  C213 2456   1.540   1.079   4.452  0.4855 -0.4445  0.3044
   19SAPS  H13R 2457   1.574   1.027   4.544  0.0732 -2.8038 -0.7798
   19SAPS  H13S 2458   1.469   1.014   4.395  0.7716 -0.7586  0.3039
   19SAPS  C214 2459   1.473   1.209   4.482 -0.0177  0.3547  0.8143
   19SAPS  H14R 2460   1.448   1.274   4.398 -1.5654 -2.2272 -0.8812
   19SAPS  C215 2461   1.422   1.250   4.595 -0.4480 -0.8666 -0.2247
   19SAPS  H15R 2462   1.390   1.354   4.607 -0.7228 -0.9780  0.0054
   19SAPS  C216 2463   1.439   1.172   4.721  1.1382  0.2020 -0.2386
   19SAPS  H16R 2464   1.487   1.071   4.720  2.0169  0.4802  2.9001
   19SAPS  H16S 2465   1.337   1.147   4.758  1.1428  0.0051 -0.3585
   19SAPS  C217 2466   1.508   1.252   4.826 -0.0258 -0.2459 -0.2126
   19SAPS  H17R 2467   1.448   1.343   4.849 -1.5862 -1.3603  0.3113
   19SAPS  H17S 2468   1.607   1.292   4.796  0.2492  0.5540  1.6451
   19SAPS  C218 2469   1.521   1.180   4.960 -0.7787  0.1939 -0.0258
   19SAPS  H18R 2470   1.580   1.247   5.026  0.0773 -1.2112  0.6880
   19SAPS  H18S 2471   1.588   1.092   4.963 -1.0022  0.0547  1.7396
   19SAPS  C219 2472   1.400   1.139   5.034  0.1408  0.1280 -0.1143
   19SAPS  H19R 2473   1.429   1.113   5.138 -1.3289 -1.9808 -0.1736
   19SAPS  H19S 2474   1.371   1.044   4.984  1.7209 -0.9747  0.9991
   19SAPS  C220 2475   1.289   1.245   5.044  0.1458  0.0627  0.2948
   19SAPS  H20R 2476   1.200   1.200   5.095  2.0073 -1.9093  2.0318
   19SAPS  H20S 2477   1.270   1.302   4.951  0.5205  0.7615  0.6366
   19SAPS  H20T 2478   1.327   1.328   5.107  0.2406 -0.8530  1.4850
   19SAPS   C33 2479   1.103   1.598   3.673 -0.1494 -0.0841  0.7123
   19SAPS   H3X 2480   1.021   1.667   3.704  0.7592  2.1361 -1.4794
   19SAPS   H3Y 2481   1.200   1.652   3.680 -0.4078  0.2430  2.0700
   19SAPS   C34 2482   1.108   1.483   3.778  0.0782  0.2649 -0.0989
   19SAPS   H4X 2483   1.186   1.413   3.743  0.2499  0.5270 -0.2515
   19SAPS   H4Y 2484   1.012   1.429   3.763 -0.8560  1.7434  0.2444
   19SAPS   C35 2485   1.120   1.546   3.914  0.2632  0.6768 -0.8174
   19SAPS   H5X 2486   1.024   1.592   3.945  0.5468 -1.0869  3.3046
   19SAPS   H5Y 2487   1.202   1.621   3.905 -2.4607  3.7423 -2.1702
   19SAPS   C36 2488   1.150   1.450   4.033 -0.2444 -0.1195  0.0841
   19SAPS   H6X 2489   1.172   1.356   3.978 -0.8245  0.2698 -0.8337
   19SAPS   H6Y 2490   1.058   1.449   4.094 -0.2948  0.0495  0.0117
   19SAPS   C37 2491   1.274   1.487   4.118 -0.3944  0.0046 -0.1674
   19SAPS   H7X 2492   1.355   1.487   4.042 -2.0351  0.5607 -2.0087
   19SAPS   H7Y 2493   1.307   1.408   4.189  0.0338  0.1573 -0.1894
   19SAPS   C38 2494   1.259   1.626   4.198 -1.1265  1.0573 -0.8793
   19SAPS   H8X 2495   1.171   1.615   4.266 -0.6566  0.6130 -0.3320
   19SAPS   H8Y 2496   1.251   1.713   4.130  2.1295  1.2304 -1.1724
   19SAPS   C39 2497   1.382   1.648   4.298  0.2307  0.2712 -0.1227
   19SAPS   H9X 2498   1.462   1.701   4.242 -0.0927 -0.3877 -1.2466
   19SAPS   H9Y 2499   1.437   1.557   4.330  1.2806  0.2203 -1.9520
   19SAPS  C310 2500   1.348   1.715   4.433  0.0170  0.4866 -0.3472
   19SAPS  H10X 2501   1.298   1.639   4.497 -0.7608  2.6041  1.7160
   19SAPS  H10Y 2502   1.282   1.804   4.424  0.4572  0.6986 -1.7393
   19SAPS  C311 2503   1.470   1.779   4.496 -0.2650  0.0636 -0.4294
   19SAPS  H11X 2504   1.521   1.847   4.424  0.0681 -0.9519 -1.1841
   19SAPS  H11Y 2505   1.544   1.699   4.518  0.0608 -0.0558 -1.8471
   19SAPS  C312 2506   1.432   1.848   4.631  0.7272 -0.0888 -0.4869
   19SAPS  H12X 2507   1.347   1.919   4.618 -1.1317 -2.3552 -1.4274
   19SAPS  H12Y 2508   1.527   1.899   4.657  0.8680 -0.0505 -1.0692
   19SAPS  C313 2509   1.408   1.754   4.751  0.2692 -0.7982 -0.3713
   19SAPS  H13X 2510   1.498   1.690   4.767  0.1579 -0.5885  1.2626
   19SAPS  H13Y 2511   1.326   1.680   4.738  0.7957 -1.2055 -1.5608
   19SAPS  C314 2512   1.394   1.839   4.874  0.6584 -0.0110 -0.1890
   19SAPS  H14X 2513   1.310   1.910   4.858  2.0574  1.8245  0.2566
   19SAPS  H14Y 2514   1.477   1.913   4.882  0.0627  0.7254 -0.6778
   19SAPS  C315 2515   1.390   1.767   5.005  0.3536 -0.0678  0.7127
   19SAPS  H15X 2516   1.490   1.719   5.016 -0.1527 -1.1579  0.6779
   19SAPS  H15Y 2517   1.317   1.684   5.004 -0.1734  0.3939  0.5244
   19SAPS  C316 2518   1.379   1.856   5.134  1.0245 -0.2728 -0.0223
   19SAPS  H16X 2519   1.271   1.867   5.156  0.8217  1.3703 -1.5991
   19SAPS  H16Y 2520   1.408   1.960   5.106 -1.2386 -0.0381 -1.7771
   19SAPS  C317 2521   1.456   1.807   5.260  0.2582 -0.4898  0.1814
   19SAPS  H17X 2522   1.493   1.896   5.317  0.2848 -1.4054  1.6362
   19SAPS  H17Y 2523   1.531   1.735   5.221 -0.0811 -1.5823  1.4636
   19SAPS  C318 2524   1.358   1.724   5.356 -0.0191 -0.5934  0.2054
   19SAPS  H18X 2525   1.423   1.696   5.442  1.2779  3.3487  0.6992
   19SAPS  H18Y 2526   1.327   1.631   5.303  1.1523 -1.0993  0.3734
   19SAPS  H18Z 2527   1.264   1.772   5.390  0.4410  1.4272 -1.2474
   20SAPS     N 2528   2.785   1.360   2.512 -0.3723 -0.3860  0.0167
   20SAPS   HN1 2529   2.749   1.270   2.475 -0.9266 -0.4970  0.7976
   20SAPS   HN2 2530   2.884   1.371   2.482 -0.4094 -0.4484 -0.1313
   20SAPS   HN3 2531   2.770   1.357   2.615  1.2912  0.7101  0.3221
   20SAPS   C12 2532   2.694   1.464   2.465 -0.0446 -0.1832  0.3686
   20SAPS  H12A 2533   2.734   1.549   2.519  0.8746 -1.5132  1.8800
   20SAPS   C13 2534   2.684   1.492   2.310  0.2691  0.0477 -1.6777
   20SAPS  O13A 2535   2.750   1.416   2.239 -0.2104  0.0966  0.5190
   20SAPS  O13B 2536   2.628   1.597   2.276 -0.7355  0.1506 -0.1371
   20SAPS   C11 2537   2.551   1.445   2.518 -0.2803 -0.0437  0.8490
   20SAPS  H11A 2538   2.490   1.366   2.468 -3.8305  1.8490  1.8332
   20SAPS  H11B 2539   2.493   1.536   2.492 -1.4120 -1.8515 -4.0388
   20SAPS     P 2540   2.528   1.526   2.775  0.0280 -0.1797 -1.0327
   20SAPS   O13 2541   2.646   1.513   2.861 -0.5015  0.6090  0.3622
   20SAPS   O14 2542   2.501   1.663   2.725  0.2903 -0.2459  0.2846
   20SAPS   O12 2543   2.543   1.418   2.658  0.4017 -0.1269  0.0728
   20SAPS   O11 2544   2.405   1.477   2.862 -0.0101 -0.2478 -0.1553
   20SAPS    C1 2545   2.407   1.354   2.931  0.1109  0.0774  0.1099
   20SAPS    HA 2546   2.340   1.288   2.871  1.8954 -0.5534 -1.2903
   20SAPS    HB 2547   2.505   1.304   2.951  0.4738 -0.6245 -2.9706
   20SAPS    C2 2548   2.332   1.376   3.070 -0.2746 -0.3943  0.6326
   20SAPS    HS 2549   2.233   1.418   3.040  1.0379  1.4497 -1.4372
   20SAPS   O21 2550   2.411   1.473   3.145  0.0665 -0.0787  0.2234
   20SAPS   C21 2551   2.341   1.539   3.232  0.2444  0.2247 -0.2177
   20SAPS   O22 2552   2.218   1.538   3.251 -0.2360  0.4782  0.4773
   20SAPS   C22 2553   2.435   1.627   3.317 -0.7162  0.4821 -0.0007
   20SAPS   H2R 2554   2.506   1.560   3.370  0.7972 -0.9668 -3.5190
   20SAPS   H2S 2555   2.496   1.686   3.246  0.7438 -2.3069 -1.2354
   20SAPS    C3 2556   2.324   1.234   3.136 -0.0401  0.0317  0.1366
   20SAPS    HX 2557   2.426   1.192   3.123  0.3564  1.7673 -3.6871
   20SAPS    HY 2558   2.253   1.177   3.073 -1.2461  1.7236 -0.1237
   20SAPS   O31 2559   2.271   1.234   3.275  0.3469 -0.2438 -0.5827
   20SAPS   C31 2560   2.139   1.215   3.296  0.1099 -0.0374  0.4736
   20SAPS   O32 2561   2.052   1.228   3.212  0.4981  0.0008  0.5592
   20SAPS   C32 2562   2.122   1.165   3.435 -0.1825  0.4090 -0.3764
   20SAPS   H2X 2563   2.157   1.061   3.452  1.5143  1.2096  1.4679
   20SAPS   H2Y 2564   2.016   1.180   3.462 -0.7501  0.3141 -2.3734
   20SAPS   C23 2565   2.351   1.708   3.426 -0.3343 -0.3290 -0.0318
   20SAPS   H3R 2566   2.309   1.632   3.495  0.2707 -0.7569 -0.1213
   20SAPS   H3S 2567   2.260   1.743   3.373 -0.0113  1.5103  0.5758
   20SAPS   C24 2568   2.439   1.811   3.506 -0.5318  0.0557 -0.4463
   20SAPS   H4R 2569   2.450   1.901   3.441  1.3789 -1.0436 -1.7514
   20SAPS   H4S 2570   2.540   1.765   3.515 -1.0051 -0.8871  0.1933
   20SAPS   C25 2571   2.382   1.837   3.646  0.5430  0.7439 -0.4676
   20SAPS   H5R 2572   2.282   1.882   3.636  0.2292  0.5154  1.2207
   20SAPS   C26 2573   2.437   1.844   3.771  0.3222  0.4641  0.5354
   20SAPS   H6R 2574   2.376   1.865   3.860  0.1776 -1.2105  0.8563
   20SAPS   C27 2575   2.585   1.808   3.792  0.5053  0.6599 -0.1714
   20SAPS   H7R 2576   2.633   1.744   3.715  1.1510  0.4293  0.4170
   20SAPS   H7S 2577   2.597   1.750   3.886 -1.8310 -0.6163 -0.5764
   20SAPS   C28 2578   2.663   1.927   3.816 -0.5024 -0.4416 -0.0834
   20SAPS   H8R 2579   2.726   1.958   3.732  0.7617 -0.5282  0.7994
   20SAPS   C29 2580   2.666   2.006   3.932  0.1486  0.4151  0.0596
   20SAPS   H9R 2581   2.748   2.079   3.947  1.4052 -0.8998 -0.1842
   20SAPS  C210 2582   2.594   1.976   4.066  0.3544 -0.0056  0.3463
   20SAPS  H10R 2583   2.526   1.890   4.047  0.6666 -0.1731 -0.0083
   20SAPS  H10S 2584   2.529   2.064   4.083  0.0245 -0.6931  3.1453
   20SAPS  C211 2585   2.696   1.951   4.178  0.4270 -0.3728 -0.6226
   20SAPS  H11R 2586   2.784   2.016   4.175  0.5095 -0.5073 -1.7187
   20SAPS  C212 2587   2.679   1.877   4.290  0.1652 -0.1131  0.4570
   20SAPS  H12R 2588   2.768   1.864   4.354 -0.2938 -5.3340  0.4804
   20SAPS  C213 2589   2.563   1.786   4.334  0.0631  0.0826  0.5495
   20SAPS  H13R 2590   2.602   1.706   4.401 -0.0057 -0.0974  0.3766
   20SAPS  H13S 2591   2.526   1.721   4.252  3.4525 -1.6567  0.2282
   20SAPS  C214 2592   2.444   1.860   4.402 -0.4199 -0.1108  0.5865
   20SAPS  H14R 2593   2.407   1.946   4.344  0.9115  0.4625  0.5525
   20SAPS  C215 2594   2.384   1.823   4.518  0.4473 -0.8245 -0.2037
   20SAPS  H15R 2595   2.293   1.880   4.543  0.4829 -1.1488  0.7064
   20SAPS  C216 2596   2.416   1.708   4.610 -0.5401  0.2262  0.2646
   20SAPS  H16R 2597   2.519   1.670   4.593 -0.4112  0.4699  0.4810
   20SAPS  H16S 2598   2.349   1.621   4.594 -0.8663  0.7222 -1.2054
   20SAPS  C217 2599   2.413   1.739   4.764 -0.7594  0.3826  0.6217
   20SAPS  H17R 2600   2.476   1.830   4.772  1.4714 -0.8867 -1.1446
   20SAPS  H17S 2601   2.458   1.652   4.817 -1.3257  0.2353  0.8607
   20SAPS  C218 2602   2.271   1.752   4.812  0.0790 -0.6815 -0.1431
   20SAPS  H18R 2603   2.221   1.659   4.779  1.9094 -1.5670 -0.5855
   20SAPS  H18S 2604   2.230   1.838   4.754 -1.8023 -1.1072  0.5033
   20SAPS  C219 2605   2.263   1.782   4.961 -0.1638  0.5964  0.0920
   20SAPS  H19R 2606   2.159   1.810   4.989  0.5169  0.6018  2.9311
   20SAPS  H19S 2607   2.310   1.880   4.983 -1.7175  1.5175 -0.4971
   20SAPS  C220 2608   2.310   1.669   5.052  0.1099  0.7598 -0.0552
   20SAPS  H20R 2609   2.421   1.665   5.055  0.1416  1.4879  0.0884
   20SAPS  H20S 2610   2.274   1.571   5.015  3.8299 -0.2887 -1.3168
   20SAPS  H20T 2611   2.277   1.680   5.157 -1.6724 -4.1727  0.1557
   20SAPS   C33 2612   2.188   1.253   3.548 -0.2194 -0.1074  0.3502
   20SAPS   H3X 2613   2.298   1.263   3.558 -0.4261  1.2323  1.7478
   20SAPS   H3Y 2614   2.152   1.204   3.641 -2.6230  0.9444  0.0488
   20SAPS   C34 2615   2.131   1.401   3.567 -0.6927  0.0091  0.6060
   20SAPS   H4X 2616   2.022   1.387   3.551 -0.2774 -0.9919 -1.7140
   20SAPS   H4Y 2617   2.167   1.474   3.491  2.1241  0.2551  2.0368
   20SAPS   C35 2618   2.166   1.458   3.711  0.4668  0.1833 -0.2559
   20SAPS   H5X 2619   2.125   1.381   3.781 -0.1906 -0.4395 -1.3085
   20SAPS   H5Y 2620   2.104   1.549   3.714 -0.7395 -0.6316  1.0704
   20SAPS   C36 2621   2.320   1.487   3.747  0.4030 -0.8141 -0.3157
   20SAPS   H6X 2622   2.360   1.562   3.676 -0.1309  0.3952  0.6443
   20SAPS   H6Y 2623   2.373   1.391   3.729  0.6822 -0.8012  0.4343
   20SAPS   C37 2624   2.330   1.530   3.890 -0.5269  0.2033  0.2366
   20SAPS   H7X 2625   2.264   1.613   3.922  0.4914  0.6024  1.3708
   20SAPS   H7Y 2626   2.434   1.569   3.904 -0.0981 -0.4600 -0.9026
   20SAPS   C38 2627   2.318   1.405   3.982 -0.5699 -0.4321 -0.6945
   20SAPS   H8X 2628   2.379   1.321   3.943  1.7585  0.7361  0.2342
   20SAPS   H8Y 2629   2.211   1.378   3.977 -0.5762 -0.2702 -1.5101
   20SAPS   C39 2630   2.376   1.430   4.130 -0.0286  0.0647  0.1208
   20SAPS   H9X 2631   2.319   1.516   4.171 -0.7650  0.1080 -0.9649
   20SAPS   H9Y 2632   2.480   1.465   4.111 -0.5266  1.4597 -0.1385
   20SAPS  C310 2633   2.338   1.318   4.230 -0.9012 -0.9604 -0.6281
   20SAPS  H10X 2634   2.380   1.220   4.199 -0.2862 -0.8223 -0.2384
   20SAPS  H10Y 2635   2.228   1.313   4.215 -1.0274  0.1687 -0.1830
   20SAPS  C311 2636   2.378   1.347   4.372 -0.1650  0.1786 -0.1461
   20SAPS  H11X 2637   2.348   1.451   4.399 -0.8380 -0.0703  0.0855
   20SAPS  H11Y 2638   2.489   1.343   4.379 -0.2440 -2.1138  0.4185
   20SAPS  C312 2639   2.319   1.246   4.467  0.7043 -0.0111 -0.8216
   20SAPS  H12X 2640   2.324   1.145   4.422  2.8004 -1.8648  3.1369
   20SAPS  H12Y 2641   2.215   1.281   4.489  1.7247  0.8638  3.5576
   20SAPS  C313 2642   2.390   1.226   4.607  0.1488 -0.3381  0.3220
   20SAPS  H13X 2643   2.365   1.314   4.670 -0.6411 -0.4129  0.1327
   20SAPS  H13Y 2644   2.500   1.236   4.603  0.2855 -0.6747  2.2599
   20SAPS  C314 2645   2.337   1.099   4.674  0.0865  0.7300 -0.7121
   20SAPS  H14X 2646   2.372   1.008   4.620  2.3032  0.6899  0.6641
   20SAPS  H14Y 2647   2.226   1.097   4.683  0.2238 -1.5268  1.8205
   20SAPS  C315 2648   2.391   1.082   4.818 -0.8472 -0.7305  0.1842
   20SAPS  H15X 2649   2.388   1.176   4.878  1.7900  0.8668 -1.9666
   20SAPS  H15Y 2650   2.495   1.044   4.811 -1.4385 -2.3032 -0.5937
   20SAPS  C316 2651   2.297   0.993   4.897  0.2352  0.5297 -0.0715
   20SAPS  H16X 2652   2.278   0.894   4.850  0.2287  0.4662  0.0656
   20SAPS  H16Y 2653   2.197   1.037   4.917 -0.0665  0.4550 -1.3211
   20SAPS  C317 2654   2.358   0.969   5.033 -0.2186  0.2856  0.3086
   20SAPS  H17X 2655   2.384   1.062   5.088  0.7903  1.5641 -2.1652
   20SAPS  H17Y 2656   2.450   0.912   5.006 -0.2626 -0.1995  1.1539
   20SAPS  C318 2657   2.287   0.866   5.116  0.1661  0.3820 -0.0705
   20SAPS  H18X 2658   2.341   0.837   5.209 -0.6136  0.4130  0.4001
   20SAPS  H18Y 2659   2.273   0.771   5.060  0.4827 -0.3298  1.0275
   20SAPS  H18Z 2660   2.189   0.908   5.147 -1.1649 -1.0821 -2.0576
   21CHL1    C3 2661   2.382   4.181   6.710  0.5706 -0.5036  0.1289
   21CHL1    H3 2662   2.349   4.076   6.728  3.7615 -1.3970  1.3130
   21CHL1    O3 2663   2.395   4.233   6.841  0.2705  0.6602 -0.3614
   21CHL1   H3' 2664   2.488   4.220   6.861  0.2194  1.6028  0.6000
   21CHL1    C4 2665   2.521   4.186   6.649  0.0926  0.3529 -0.2511
   21CHL1   H4A 2666   2.554   4.292   6.657 -0.3913  0.4858  0.0277
   21CHL1   H4B 2667   2.594   4.124   6.706 -1.0695  0.9707  2.0210
   21CHL1    C5 2668   2.508   4.143   6.503 -0.2644  0.3067  0.7165
   21CHL1    C6 2669   2.581   4.042   6.446 -0.0305  0.3639  0.4865
   21CHL1    H6 2670   2.655   3.992   6.510  2.2421  0.1886 -2.1285
   21CHL1    C7 2671   2.571   3.988   6.306  0.6080 -0.3456 -1.0148
   21CHL1   H7A 2672   2.670   3.955   6.266  1.1383 -0.5070  0.3852
   21CHL1   H7B 2673   2.491   3.911   6.306 -2.7048  2.8391 -0.5522
   21CHL1    C8 2674   2.513   4.094   6.214 -0.6748 -0.1586  0.4082
   21CHL1    H8 2675   2.592   4.172   6.210  0.1120 -0.9989 -2.3097
   21CHL1   C14 2676   2.490   4.041   6.070 -0.0244  0.8138 -0.6139
   21CHL1   H14 2677   2.432   3.947   6.078  2.6636 -0.8389  1.1525
   21CHL1   C15 2678   2.621   4.001   5.999  0.1383  0.0342 -0.2059
   21CHL1  H15A 2679   2.704   4.073   6.015  2.1114 -2.5274  2.0780
   21CHL1  H15B 2680   2.661   3.908   6.045  0.3097  0.4993  0.6063
   21CHL1   C16 2681   2.586   3.990   5.852  0.2945 -0.2259  0.3422
   21CHL1  H16A 2682   2.661   4.047   5.793  0.0062 -3.3378 -3.4317
   21CHL1  H16B 2683   2.567   3.886   5.819 -1.8947  0.8347 -2.0939
   21CHL1   C17 2684   2.454   4.074   5.848  0.9728 -0.2565  0.2857
   21CHL1   H17 2685   2.373   3.999   5.848  1.0361 -0.3265  0.4126
   21CHL1   C13 2686   2.425   4.145   5.984 -0.1046  0.4620 -0.7283
   21CHL1   C18 2687   2.506   4.277   5.987 -0.4534  0.5875 -0.1704
   21CHL1  H18A 2688   2.466   4.350   5.913 -0.6329 -1.0639 -1.7591
   21CHL1  H18B 2689   2.507   4.320   6.090  1.9171  0.0885  0.0776
   21CHL1  H18C 2690   2.613   4.256   5.965 -0.1864  0.4624  1.1687
   21CHL1   C12 2691   2.278   4.160   6.041  0.3537 -0.0206 -0.1496
   21CHL1  H12A 2692   2.200   4.214   5.984 -0.3088  0.7850  1.4451
   21CHL1  H12B 2693   2.252   4.054   6.061 -0.0708 -0.0975 -1.0761
   21CHL1   C11 2694   2.284   4.220   6.191  0.4251  0.4479  0.0906
   21CHL1  H11A 2695   2.314   4.327   6.191 -1.0212  0.8849 -1.3929
   21CHL1  H11B 2696   2.179   4.214   6.227  0.7920  2.2193  1.6369
   21CHL1    C9 2697   2.381   4.139   6.288  0.3777 -0.4307 -0.3796
   21CHL1    H9 2698   2.327   4.046   6.316  2.7968 -2.0518 -0.8011
   21CHL1   C10 2699   2.397   4.217   6.423 -0.0681  0.3670 -0.2833
   21CHL1   C19 2700   2.452   4.360   6.395  0.1842 -0.4330 -0.1031
   21CHL1  H19A 2701   2.539   4.357   6.326  0.0104  1.0811 -0.4192
   21CHL1  H19B 2702   2.372   4.421   6.349  1.4460  1.1497 -0.3008
   21CHL1  H19C 2703   2.470   4.414   6.491 -2.4689  0.3588  0.0176
   21CHL1    C1 2704   2.261   4.224   6.495 -0.1049  0.0268 -0.0703
   21CHL1   H1A 2705   2.191   4.293   6.441  1.4559  1.6846 -0.0630
   21CHL1   H1B 2706   2.206   4.128   6.488 -0.9015  0.4860 -0.3896
   21CHL1    C2 2707   2.265   4.259   6.641  0.3025 -0.0780  0.8900
   21CHL1   H2A 2708   2.168   4.231   6.687  0.1199 -0.2290  0.4228
   21CHL1   H2B 2709   2.301   4.362   6.658  3.0700 -0.7584 -0.2266
   21CHL1   C20 2710   2.451   4.164   5.720  0.6339  0.4691  0.6029
   21CHL1   H20 2711   2.531   4.242   5.721  0.5647  0.5296  1.5357
   21CHL1   C21 2712   2.313   4.239   5.709 -0.2494  0.8270 -1.0217
   21CHL1  H21A 2713   2.286   4.282   5.807 -0.2362 -2.4603  0.5138
   21CHL1  H21B 2714   2.237   4.161   5.692  2.2320 -2.2013  0.7429
   21CHL1  H21C 2715   2.314   4.315   5.627  0.7373  0.3743 -1.4619
   21CHL1   C22 2716   2.469   4.082   5.589  0.3633 -0.3303  0.4942
   21CHL1  H22A 2717   2.470   4.158   5.508  2.8101 -0.4993  0.2706
   21CHL1  H22B 2718   2.569   4.033   5.596  0.8587  0.8497  4.0830
   21CHL1   C23 2719   2.368   3.976   5.554  0.7245 -0.3150 -0.0820
   21CHL1  H23A 2720   2.350   3.909   5.641  0.3832  0.3131  0.3391
   21CHL1  H23B 2721   2.275   4.031   5.529  0.4890 -1.0284 -0.7836
   21CHL1   C24 2722   2.412   3.890   5.435  0.0837  0.0747 -0.0962
   21CHL1  H24A 2723   2.514   3.846   5.446 -0.7176 -1.3279  2.9069
   21CHL1  H24B 2724   2.357   3.795   5.417  1.7896 -0.8925 -0.4826
   21CHL1   C25 2725   2.402   3.971   5.298  0.8788 -0.1696  0.3588
   21CHL1   H25 2726   2.455   4.068   5.308 -2.7850  2.0442  0.3287
   21CHL1   C26 2727   2.454   3.887   5.185 -0.5024  0.1031  0.6328
   21CHL1  H26A 2728   2.450   3.954   5.096 -0.3862  0.9513  1.2510
   21CHL1  H26B 2729   2.559   3.859   5.210 -0.7479  1.0160  2.9310
   21CHL1  H26C 2730   2.387   3.800   5.173 -1.1731  0.8794 -2.0846
   21CHL1   C27 2731   2.255   4.013   5.259 -0.6126 -0.3433 -0.1928
   21CHL1  H27A 2732   2.208   4.060   5.348 -0.0026  1.2463 -0.6766
   21CHL1  H27B 2733   2.244   4.081   5.171 -2.1215 -1.3090 -0.8049
   21CHL1  H27C 2734   2.189   3.927   5.237 -1.3734  0.4922 -1.3443
   22CHL1    C3 2735   2.368   2.953   6.263 -0.3795 -0.2671 -0.0549
   22CHL1    H3 2736   2.432   2.866   6.237 -0.8468 -0.8952  0.8505
   22CHL1    O3 2737   2.355   2.970   6.404 -0.5370 -0.3987  0.1341
   22CHL1   H3' 2738   2.295   3.042   6.423 -1.7052 -1.6381  1.3853
   22CHL1    C4 2739   2.432   3.072   6.194 -0.4380 -0.2564 -0.5371
   22CHL1   H4A 2740   2.383   3.168   6.219  2.8551  1.6618 -0.8245
   22CHL1   H4B 2741   2.536   3.083   6.232 -0.6953 -1.2297  0.5133
   22CHL1    C5 2742   2.428   3.065   6.048 -0.2942 -0.3907  0.6804
   22CHL1    C6 2743   2.543   3.077   5.973 -0.5639 -0.4651  0.3291
   22CHL1    H6 2744   2.639   3.101   6.021  0.4558  1.5357 -2.4475
   22CHL1    C7 2745   2.538   3.088   5.822 -0.2824  0.4491 -0.0126
   22CHL1   H7A 2746   2.605   3.163   5.775 -0.8457  1.3794  0.6313
   22CHL1   H7B 2747   2.562   2.984   5.790 -2.9038  0.3232 -1.9380
   22CHL1    C8 2748   2.402   3.108   5.758 -1.3640  0.0367  1.0309
   22CHL1    H8 2749   2.374   3.215   5.766 -2.0958  0.1670 -2.0470
   22CHL1   C14 2750   2.402   3.057   5.613 -0.2484  0.4597 -0.0525
   22CHL1   H14 2751   2.413   2.947   5.620 -1.1926  0.3737  0.3120
   22CHL1   C15 2752   2.522   3.100   5.530  0.0103 -0.8506  1.0767
   22CHL1  H15A 2753   2.535   3.210   5.538  0.4746 -0.5330 -2.3449
   22CHL1  H15B 2754   2.620   3.052   5.554  0.5977  0.1028  0.6644
   22CHL1   C16 2755   2.480   3.054   5.387 -0.6462 -0.3616 -0.4260
   22CHL1  H16A 2756   2.506   3.135   5.316  0.6341 -0.6436 -0.3011
   22CHL1  H16B 2757   2.546   2.971   5.354 -0.7971 -1.1429  1.1347
   22CHL1   C17 2758   2.329   3.010   5.396 -0.3524  0.6431  0.7115
   22CHL1   H17 2759   2.329   2.899   5.403  0.1178  0.6407  0.7328
   22CHL1   C13 2760   2.273   3.068   5.530 -0.5500  0.2028 -0.2168
   22CHL1   C18 2761   2.223   3.209   5.524 -0.4429  0.4281 -0.3062
   22CHL1  H18A 2762   2.287   3.280   5.468  3.3333 -1.7784  0.8867
   22CHL1  H18B 2763   2.129   3.224   5.466 -0.7494  2.9662  0.7254
   22CHL1  H18C 2764   2.204   3.251   5.625  0.6271 -1.2096  0.6240
   22CHL1   C12 2765   2.169   2.980   5.605  0.0074  0.6634 -0.0568
   22CHL1  H12A 2766   2.067   2.983   5.561  0.9020  1.1925 -2.2301
   22CHL1  H12B 2767   2.216   2.880   5.595 -0.6128  0.2252  1.2182
   22CHL1   C11 2768   2.164   3.016   5.752 -1.2023  0.3211  0.4676
   22CHL1  H11A 2769   2.117   3.116   5.752  0.8570  1.3491  0.5891
   22CHL1  H11B 2770   2.099   2.943   5.805 -0.8365 -0.4705 -0.1331
   22CHL1    C9 2771   2.298   3.024   5.826 -0.1536 -0.0607 -0.3924
   22CHL1    H9 2772   2.340   2.922   5.815  0.1566 -0.0931  0.9070
   22CHL1   C10 2773   2.289   3.045   5.982  1.2888 -0.3546  0.2021
   22CHL1   C19 2774   2.202   3.170   6.000  0.3275 -0.6901 -0.4414
   22CHL1  H19A 2775   2.242   3.268   5.967  2.5758 -0.9110  1.3671
   22CHL1  H19B 2776   2.100   3.161   5.958  0.1588 -2.7977  0.2867
   22CHL1  H19C 2777   2.191   3.191   6.109  0.5352  1.0625 -0.7308
   22CHL1    C1 2778   2.224   2.928   6.055  0.0661  0.8721 -0.5980
   22CHL1   H1A 2779   2.117   2.913   6.026 -0.0281 -1.4767  0.7410
   22CHL1   H1B 2780   2.265   2.831   6.021 -0.1591  0.4522  0.2950
   22CHL1    C2 2781   2.229   2.931   6.208  0.2747 -0.2522 -0.2957
   22CHL1   H2A 2782   2.179   2.840   6.250 -0.7504 -0.6193 -2.2271
   22CHL1   H2B 2783   2.160   3.011   6.244 -0.3768 -1.0864  0.3637
   22CHL1   C20 2784   2.253   3.042   5.266 -0.1437  0.2325 -0.5277
   22CHL1   H20 2785   2.236   3.152   5.255 -1.1114 -0.0156 -1.6937
   22CHL1   C21 2786   2.113   2.982   5.265 -0.1654 -0.1738 -0.4140
   22CHL1  H21A 2787   2.093   2.891   5.326  2.0277 -2.1192 -2.4071
   22CHL1  H21B 2788   2.081   2.946   5.165 -0.4843 -2.4043  0.4296
   22CHL1  H21C 2789   2.040   3.063   5.286 -0.2951 -0.7311  1.5459
   22CHL1   C22 2790   2.337   3.007   5.138 -0.5722 -0.0970  0.3838
   22CHL1  H22A 2791   2.277   3.054   5.057  0.1895  0.4410  0.1252
   22CHL1  H22B 2792   2.437   3.055   5.147 -0.9775  0.5013  1.9722
   22CHL1   C23 2793   2.354   2.855   5.110 -0.6551 -0.1679 -0.3267
   22CHL1  H23A 2794   2.405   2.810   5.198 -1.2147  0.0064  0.0884
   22CHL1  H23B 2795   2.256   2.808   5.087 -0.8376 -0.7770  1.5303
   22CHL1   C24 2796   2.450   2.832   4.987  0.3299 -0.0447 -0.8646
   22CHL1  H24A 2797   2.405   2.881   4.898 -0.8828  2.3976  0.9668
   22CHL1  H24B 2798   2.542   2.892   5.003  0.8158 -1.4134  2.4564
   22CHL1   C25 2799   2.484   2.678   4.951  0.1065  0.3070  0.3920
   22CHL1   H25 2800   2.537   2.634   5.038  2.8305 -0.0618 -1.3159
   22CHL1   C26 2801   2.353   2.598   4.937  0.1578  0.5050 -0.0053
   22CHL1  H26A 2802   2.288   2.593   5.027 -0.1602 -0.3052 -0.2764
   22CHL1  H26B 2803   2.289   2.631   4.852  2.3125 -0.5847 -2.1763
   22CHL1  H26C 2804   2.385   2.492   4.925 -1.7693 -0.0659 -0.4300
   22CHL1   C27 2805   2.568   2.680   4.823 -0.0480  0.2072 -0.2931
   22CHL1  H27A 2806   2.629   2.587   4.825  2.0299  1.4776 -0.8616
   22CHL1  H27B 2807   2.506   2.692   4.732  0.0125  0.1924 -0.3365
   22CHL1  H27C 2808   2.644   2.761   4.821 -0.1713  0.4518  1.9512
   23CHL1    C3 2809   1.362   3.759   6.612 -0.2236 -0.6196 -0.2971
   23CHL1    H3 2810   1.292   3.843   6.594 -2.4574 -1.9618  1.5430
   23CHL1    O3 2811   1.383   3.761   6.755 -0.0320 -0.0681  0.1632
   23CHL1   H3' 2812   1.293   3.760   6.789 -0.4299 -1.6197 -0.8338
   23CHL1    C4 2813   1.295   3.628   6.566 -0.7147 -1.0505  0.8173
   23CHL1   H4A 2814   1.359   3.543   6.599  2.5770  0.7656 -0.3893
   23CHL1   H4B 2815   1.196   3.622   6.615 -1.0549  0.4680  0.3420
   23CHL1    C5 2816   1.275   3.618   6.417  0.0895  0.2321  0.3290
   23CHL1    C6 2817   1.161   3.581   6.359  0.0721  0.0330  0.8345
   23CHL1    H6 2818   1.076   3.563   6.426  0.6451  1.9178  2.1561
   23CHL1    C7 2819   1.142   3.557   6.207  0.0305  0.6118  0.4900
   23CHL1   H7A 2820   1.107   3.453   6.192  1.9871  0.3089 -3.1498
   23CHL1   H7B 2821   1.073   3.625   6.153  0.5051 -0.7766 -2.0578
   23CHL1    C8 2822   1.275   3.562   6.126  0.2239 -0.3821 -0.9150
   23CHL1    H8 2823   1.323   3.463   6.138 -0.4062 -0.6686 -0.7032
   23CHL1   C14 2824   1.244   3.577   5.980 -0.0040  0.7399 -0.4234
   23CHL1   H14 2825   1.208   3.681   5.964  3.4332  1.9987 -0.8367
   23CHL1   C15 2826   1.141   3.481   5.921 -0.0607 -0.4167  0.4338
   23CHL1  H15A 2827   1.144   3.379   5.966  0.3057 -1.3394 -1.5574
   23CHL1  H15B 2828   1.041   3.525   5.937  1.1900  2.1047  1.9327
   23CHL1   C16 2829   1.179   3.471   5.773  0.2396  0.0206 -0.1115
   23CHL1  H16A 2830   1.204   3.367   5.743  1.7771 -0.0386  1.2434
   23CHL1  H16B 2831   1.089   3.491   5.711 -0.2024 -1.6574 -0.0551
   23CHL1   C17 2832   1.309   3.564   5.753 -0.6062 -0.4631 -0.3439
   23CHL1   H17 2833   1.270   3.666   5.734 -0.3870  0.1963  2.2928
   23CHL1   C13 2834   1.372   3.568   5.896 -0.0659 -0.3776  0.3646
   23CHL1   C18 2835   1.449   3.429   5.916 -0.5855  0.8035  0.7763
   23CHL1  H18A 2836   1.489   3.417   6.019  1.7048 -2.6104 -0.3381
   23CHL1  H18B 2837   1.382   3.343   5.896  3.2354 -3.0001  2.7625
   23CHL1  H18C 2838   1.538   3.427   5.850  0.7881  0.2516  2.5703
   23CHL1   C12 2839   1.465   3.685   5.938 -0.4237  0.3015 -0.2587
   23CHL1  H12A 2840   1.570   3.687   5.904  0.0729 -1.2262  1.0811
   23CHL1  H12B 2841   1.418   3.779   5.900  0.4825 -0.1900 -2.8056
   23CHL1   C11 2842   1.494   3.691   6.098  0.5034 -0.7783  0.2322
   23CHL1  H11A 2843   1.573   3.614   6.111  1.1215 -0.2098 -0.0820
   23CHL1  H11B 2844   1.533   3.792   6.121  0.7126  0.0382 -3.1321
   23CHL1    C9 2845   1.363   3.666   6.183 -0.1904 -0.0040 -0.6411
   23CHL1    H9 2846   1.314   3.765   6.177  1.3478  0.8172  0.0367
   23CHL1   C10 2847   1.394   3.659   6.332 -0.9498 -0.7358  0.1872
   23CHL1   C19 2848   1.494   3.544   6.351 -0.3467 -0.0125  0.3585
   23CHL1  H19A 2849   1.480   3.453   6.288  0.6994  0.6649 -0.9051
   23CHL1  H19B 2850   1.591   3.576   6.306 -1.2728  1.8053 -0.4770
   23CHL1  H19C 2851   1.509   3.522   6.458  1.5811 -1.8483 -0.2180
   23CHL1    C1 2852   1.462   3.796   6.384 -0.1031  0.1108 -0.0685
   23CHL1   H1A 2853   1.560   3.827   6.344  0.9532 -1.8936  0.8261
   23CHL1   H1B 2854   1.391   3.876   6.353  0.2783 -0.4350 -2.4906
   23CHL1    C2 2855   1.486   3.798   6.537 -0.0369 -0.1816 -0.2109
   23CHL1   H2A 2856   1.519   3.900   6.569 -0.9394 -0.6952  2.6502
   23CHL1   H2B 2857   1.573   3.732   6.555 -0.4847 -0.6290  0.3539
   23CHL1   C20 2858   1.401   3.532   5.640  0.1517 -0.1981 -0.1040
   23CHL1   H20 2859   1.445   3.430   5.649 -0.3709 -0.6122 -1.8621
   23CHL1   C21 2860   1.501   3.645   5.614  0.0468 -1.0614 -0.4157
   23CHL1  H21A 2861   1.456   3.746   5.600  1.8152 -0.1581  0.1350
   23CHL1  H21B 2862   1.562   3.613   5.527 -0.1686 -2.1878 -0.1665
   23CHL1  H21C 2863   1.573   3.664   5.696  0.9566  0.4659 -1.5282
   23CHL1   C22 2864   1.317   3.526   5.505  0.0852 -0.2389 -0.2540
   23CHL1  H22A 2865   1.218   3.476   5.509 -0.0612 -0.0863 -1.5226
   23CHL1  H22B 2866   1.289   3.630   5.476  1.2595  0.1616 -0.0083
   23CHL1   C23 2867   1.396   3.450   5.389  1.1595 -1.0960 -0.5468
   23CHL1  H23A 2868   1.473   3.522   5.353  1.5129 -1.8164 -1.2665
   23CHL1  H23B 2869   1.448   3.355   5.412 -1.3350 -2.8888 -1.8526
   23CHL1   C24 2870   1.306   3.423   5.270  0.6420  0.8297  0.0464
   23CHL1  H24A 2871   1.213   3.378   5.309  0.5596  2.1411  1.4669
   23CHL1  H24B 2872   1.278   3.518   5.220 -0.0466  0.2176 -0.7552
   23CHL1   C25 2873   1.368   3.328   5.169 -0.5166 -0.0088 -0.2154
   23CHL1   H25 2874   1.428   3.252   5.223  1.8527  0.6407 -1.7853
   23CHL1   C26 2875   1.257   3.262   5.077  0.8707  0.2764 -0.2290
   23CHL1  H26A 2876   1.303   3.169   5.038  2.0435  1.0814 -0.8355
   23CHL1  H26B 2877   1.167   3.238   5.137 -0.3343  1.3142 -1.5316
   23CHL1  H26C 2878   1.223   3.338   5.003 -1.9074  0.0528  0.7012
   23CHL1   C27 2879   1.477   3.392   5.081  0.4748 -0.8883  0.1441
   23CHL1  H27A 2880   1.448   3.497   5.058  1.8903 -0.2972  0.9081
   23CHL1  H27B 2881   1.575   3.400   5.132  1.0472  0.1558 -1.0674
   23CHL1  H27C 2882   1.499   3.329   4.992  0.6821  1.1717 -1.3503
   24CHL1    C3 2883   4.311   3.294   6.615  0.2635  0.2514 -0.6185
   24CHL1    H3 2884   4.384   3.212   6.601 -1.6522 -2.0540  1.9725
   24CHL1    O3 2885   4.278   3.302   6.752 -0.1114 -0.1660  0.1130
   24CHL1   H3' 2886   4.348   3.353   6.795  0.3559 -0.8271  0.1600
   24CHL1    C4 2887   4.376   3.425   6.571  0.1473 -0.7903 -0.1976
   24CHL1   H4A 2888   4.321   3.508   6.619 -1.3651 -3.4862  3.2322
   24CHL1   H4B 2889   4.474   3.444   6.620 -0.2301  1.8394 -0.3446
   24CHL1    C5 2890   4.387   3.420   6.423  0.6505 -0.6414  0.8828
   24CHL1    C6 2891   4.508   3.412   6.367 -0.3764 -0.7772 -0.2766
   24CHL1    H6 2892   4.591   3.412   6.439 -0.1743 -1.1751 -0.5070
   24CHL1    C7 2893   4.533   3.425   6.220  0.2553  0.2524  0.1311
   24CHL1   H7A 2894   4.607   3.506   6.200 -0.8795  1.2975  0.0170
   24CHL1   H7B 2895   4.564   3.325   6.182 -1.2976  0.0665 -0.7085
   24CHL1    C8 2896   4.404   3.475   6.142 -0.0193  0.1922  0.1494
   24CHL1    H8 2897   4.398   3.584   6.164  0.9060  0.4549 -0.8221
   24CHL1   C14 2898   4.421   3.447   5.993  0.3636 -0.2355  0.7637
   24CHL1   H14 2899   4.427   3.338   5.974 -0.5818 -0.0126 -0.9305
   24CHL1   C15 2900   4.547   3.497   5.924  0.6952 -0.1334  0.3463
   24CHL1  H15A 2901   4.581   3.597   5.957  0.3640 -0.9248  3.3378
   24CHL1  H15B 2902   4.627   3.422   5.943  0.3338 -0.2485  1.4793
   24CHL1   C16 2903   4.511   3.505   5.775 -0.0749 -0.1772 -0.5306
   24CHL1  H16A 2904   4.519   3.606   5.728 -0.6812  0.7231  1.2036
   24CHL1  H16B 2905   4.581   3.438   5.721  4.0431  2.9325  0.4160
   24CHL1   C17 2906   4.363   3.462   5.767  0.5252  0.0139 -0.6925
   24CHL1   H17 2907   4.358   3.352   5.754 -2.8403  0.1625 -1.6514
   24CHL1   C13 2908   4.305   3.488   5.904 -1.0420 -0.6155  0.3180
   24CHL1   C18 2909   4.269   3.644   5.924 -0.1469 -0.2994  0.8203
   24CHL1  H18A 2910   4.346   3.708   5.877 -0.4093 -2.4403 -2.8842
   24CHL1  H18B 2911   4.176   3.669   5.868  1.3113 -0.4843 -1.8801
   24CHL1  H18C 2912   4.258   3.671   6.031  2.4522  0.9709  0.8264
   24CHL1   C12 2913   4.183   3.410   5.946 -0.3363  0.0360 -0.1939
   24CHL1  H12A 2914   4.092   3.437   5.888  1.0573 -2.9854 -4.3363
   24CHL1  H12B 2915   4.201   3.305   5.912  0.4147 -0.1855  0.8364
   24CHL1   C11 2916   4.151   3.425   6.099 -0.0998  0.6575  0.4817
   24CHL1  H11A 2917   4.101   3.524   6.113 -1.3869  0.2650 -0.9865
   24CHL1  H11B 2918   4.071   3.354   6.128 -1.2069  0.5069 -2.5489
   24CHL1    C9 2919   4.281   3.408   6.188 -0.0807  0.4588 -0.8663
   24CHL1    H9 2920   4.306   3.301   6.173  0.8284  0.4079  0.7660
   24CHL1   C10 2921   4.254   3.415   6.348  0.1834 -0.4722  0.5574
   24CHL1   C19 2922   4.165   3.543   6.373 -0.1780 -0.5462  0.2767
   24CHL1  H19A 2923   4.152   3.537   6.484  2.1739  1.1302  0.7116
   24CHL1  H19B 2924   4.213   3.641   6.352 -1.8750 -0.3395 -3.2008
   24CHL1  H19C 2925   4.065   3.546   6.325  0.2125  1.5706 -0.5341
   24CHL1    C1 2926   4.182   3.284   6.389 -0.0936 -0.6050 -0.2617
   24CHL1   H1A 2927   4.076   3.295   6.357 -0.4458  1.5231  1.3989
   24CHL1   H1B 2928   4.235   3.198   6.342 -0.0988 -0.6274 -0.2266
   24CHL1    C2 2929   4.178   3.272   6.544  0.3193 -0.6304 -0.4348
   24CHL1   H2A 2930   4.137   3.175   6.580  0.6916 -0.2146  1.1459
   24CHL1   H2B 2931   4.103   3.345   6.581  0.8256 -0.6067  0.5702
   24CHL1   C20 2932   4.294   3.523   5.644  0.1121 -0.5337 -0.0194
   24CHL1   H20 2933   4.290   3.634   5.655  1.5790 -0.4417 -0.2122
   24CHL1   C21 2934   4.144   3.472   5.629 -0.4701 -0.4589  0.0509
   24CHL1  H21A 2935   4.080   3.505   5.713 -1.8474  1.4334 -1.6420
   24CHL1  H21B 2936   4.137   3.362   5.613 -1.5503 -0.7833  2.3537
   24CHL1  H21C 2937   4.106   3.527   5.540 -0.4343 -0.6716 -0.0975
   24CHL1   C22 2938   4.371   3.511   5.508  0.6814 -0.0549  0.2756
   24CHL1  H22A 2939   4.304   3.563   5.436 -2.3159 -2.6641  0.9503
   24CHL1  H22B 2940   4.465   3.571   5.514 -0.1456  1.2977  0.1384
   24CHL1   C23 2941   4.402   3.361   5.458  0.1126 -0.7563 -0.5454
   24CHL1  H23A 2942   4.434   3.294   5.541 -2.6335 -2.2294 -0.5517
   24CHL1  H23B 2943   4.309   3.311   5.423 -0.5377  0.6674 -0.9003
   24CHL1   C24 2944   4.505   3.365   5.334  0.3670  0.3615  0.2409
   24CHL1  H24A 2945   4.599   3.421   5.350 -0.3320  1.6670 -0.0603
   24CHL1  H24B 2946   4.531   3.261   5.305 -0.3593  0.3922 -0.5589
   24CHL1   C25 2947   4.443   3.415   5.201 -0.0183 -0.0530  0.9873
   24CHL1   H25 2948   4.390   3.512   5.214  0.8790  0.6242 -0.2959
   24CHL1   C26 2949   4.549   3.433   5.083  0.0224  0.0447 -0.1325
   24CHL1  H26A 2950   4.485   3.459   4.996  0.8754 -0.9148 -1.0911
   24CHL1  H26B 2951   4.614   3.517   5.116 -1.5641  1.0964  0.4158
   24CHL1  H26C 2952   4.590   3.334   5.052 -5.9816 -2.5147 -1.2924
   24CHL1   C27 2953   4.325   3.323   5.154 -0.2447 -0.1851 -0.7997
   24CHL1  H27A 2954   4.231   3.335   5.213  0.7868 -0.7981  1.0575
   24CHL1  H27B 2955   4.301   3.322   5.046 -1.2281  0.7967 -0.6075
   24CHL1  H27C 2956   4.360   3.222   5.186  0.4207  0.4922  0.7469
   25CHL1    C3 2957   5.121   5.890   6.720 -0.3427 -0.8520 -0.2405
   25CHL1    H3 2958   5.227   5.868   6.748 -0.6268 -1.1885  0.6160
   25CHL1    O3 2959   5.046   5.922   6.835  0.2891  0.4464  0.7366
   25CHL1   H3' 2960   5.053   5.843   6.890  0.7555  0.5331  0.8117
   25CHL1    C4 2961   5.112   6.001   6.621 -0.2068  0.2330 -0.1841
   25CHL1   H4A 2962   5.004   6.026   6.609  0.2938  2.4598 -0.4500
   25CHL1   H4B 2963   5.159   6.095   6.655  0.5343 -0.8053  1.8531
   25CHL1    C5 2964   5.162   5.959   6.480 -0.5279  0.3072 -0.2711
   25CHL1    C6 2965   5.257   6.024   6.411 -0.0703 -0.5814  0.1349
   25CHL1    H6 2966   5.289   6.119   6.457 -2.1304  0.4885 -0.5101
   25CHL1    C7 2967   5.301   5.987   6.269  0.5530 -1.0584 -0.3872
   25CHL1   H7A 2968   5.315   6.075   6.202 -1.1251  1.7509  2.6642
   25CHL1   H7B 2969   5.402   5.940   6.275  1.1330 -0.2242 -2.5976
   25CHL1    C8 2970   5.206   5.888   6.200  0.4874 -0.2741  0.7136
   25CHL1    H8 2971   5.105   5.931   6.184  0.5465 -0.1227  0.7374
   25CHL1   C14 2972   5.262   5.835   6.072 -0.4219 -0.4323 -0.2142
   25CHL1   H14 2973   5.359   5.794   6.108 -0.2854 -1.0247 -1.2057
   25CHL1   C15 2974   5.292   5.935   5.955  0.3165 -0.3110 -0.0882
   25CHL1  H15A 2975   5.202   6.000   5.944 -0.0182 -1.1166 -2.9261
   25CHL1  H15B 2976   5.388   5.987   5.975  0.7003 -1.1110  0.1754
   25CHL1   C16 2977   5.305   5.845   5.830 -0.1599  0.7203  0.3218
   25CHL1  H16A 2978   5.253   5.890   5.743 -2.6978  0.0665  1.4023
   25CHL1  H16B 2979   5.405   5.836   5.782 -1.0750  0.4117 -1.5915
   25CHL1   C17 2980   5.264   5.702   5.883  0.2217  0.5221 -0.1469
   25CHL1   H17 2981   5.358   5.647   5.909 -0.3277 -0.0623  0.6626
   25CHL1   C13 2982   5.188   5.720   6.016  0.2142 -0.0970 -0.3405
   25CHL1   C18 2983   5.042   5.763   5.977 -0.3081 -0.1400 -0.2582
   25CHL1  H18A 2984   4.980   5.790   6.065 -0.0260 -0.2760 -0.0140
   25CHL1  H18B 2985   5.047   5.852   5.910  1.2915  1.0937  1.3680
   25CHL1  H18C 2986   4.982   5.679   5.938  0.6575 -1.2502  0.5928
   25CHL1   C12 2987   5.175   5.589   6.111 -1.2044 -0.6104  0.1483
   25CHL1  H12A 2988   5.107   5.513   6.068 -1.3296  0.2483 -1.2312
   25CHL1  H12B 2989   5.280   5.555   6.121 -1.0511  0.2123  1.5699
   25CHL1   C11 2990   5.114   5.638   6.235  0.5724 -0.3903 -0.5728
   25CHL1  H11A 2991   5.009   5.667   6.211  0.6459  0.5992  0.2404
   25CHL1  H11B 2992   5.109   5.549   6.302  1.0797  0.6460  0.8834
   25CHL1    C9 2993   5.176   5.768   6.296  0.1645  0.3559 -0.6615
   25CHL1    H9 2994   5.278   5.734   6.324  0.0150  0.2473 -0.2382
   25CHL1   C10 2995   5.113   5.827   6.430 -0.2499  0.5850  0.0804
   25CHL1   C19 2996   4.960   5.847   6.400  1.1506 -0.5164 -1.0728
   25CHL1  H19A 2997   4.937   5.920   6.320 -2.1060  0.2660  0.3921
   25CHL1  H19B 2998   4.916   5.751   6.364 -0.4388  0.0076 -0.5957
   25CHL1  H19C 2999   4.905   5.884   6.489  1.6066  0.4518 -1.1825
   25CHL1    C1 3000   5.125   5.718   6.536  0.0634 -0.3046  0.0858
   25CHL1   H1A 3001   5.080   5.623   6.498 -1.9092  0.6137 -0.0179
   25CHL1   H1B 3002   5.232   5.694   6.551 -0.2728 -2.2131 -0.2723
   25CHL1    C2 3003   5.056   5.759   6.669  0.3876 -0.3512  0.0966
   25CHL1   H2A 3004   5.059   5.678   6.745 -2.0384 -0.2458  0.3747
   25CHL1   H2B 3005   4.946   5.772   6.658  0.3123 -1.1360 -0.1214
   25CHL1   C20 3006   5.196   5.615   5.775 -0.7162  0.3371  0.1370
   25CHL1   H20 3007   5.119   5.552   5.824 -1.3352  1.2539  0.3786
   25CHL1   C21 3008   5.307   5.522   5.715  0.1879 -0.3605  0.3251
   25CHL1  H21A 3009   5.358   5.470   5.799 -1.8056 -0.1478  1.7464
   25CHL1  H21B 3010   5.390   5.578   5.666  1.1460  0.1238  2.3720
   25CHL1  H21C 3011   5.282   5.445   5.639  3.2556  0.4823 -1.7206
   25CHL1   C22 3012   5.125   5.681   5.659  0.3820  0.3492 -0.3858
   25CHL1  H22A 3013   5.046   5.744   5.705 -0.6685 -0.6262 -0.8250
   25CHL1  H22B 3014   5.203   5.742   5.608  0.5359 -0.3358 -0.9742
   25CHL1   C23 3015   5.070   5.583   5.556 -0.3003 -0.4600 -0.8375
   25CHL1  H23A 3016   5.148   5.524   5.505 -1.1735 -3.0090  0.5874
   25CHL1  H23B 3017   5.001   5.511   5.607 -0.0905 -0.2864 -0.2996
   25CHL1   C24 3018   4.978   5.643   5.445 -0.5778  0.2090 -0.1298
   25CHL1  H24A 3019   4.924   5.556   5.401 -0.6856 -0.3533  1.0629
   25CHL1  H24B 3020   4.895   5.693   5.500  0.1685  2.0042 -0.5751
   25CHL1   C25 3021   5.039   5.753   5.356 -0.2044 -0.3705  1.0656
   25CHL1   H25 3022   5.071   5.840   5.418  0.2548  0.6871 -0.5874
   25CHL1   C26 3023   5.162   5.704   5.273  0.4441 -0.0837 -0.8935
   25CHL1  H26A 3024   5.184   5.787   5.202 -3.2746  2.3740  0.5530
   25CHL1  H26B 3025   5.260   5.683   5.321  0.6995  0.1356 -1.3050
   25CHL1  H26C 3026   5.123   5.612   5.225 -2.4324 -0.9162  2.5948
   25CHL1   C27 3027   4.939   5.808   5.253 -0.4585 -0.6378 -0.1298
   25CHL1  H27A 3028   4.903   5.726   5.187  0.8581 -3.2743  2.1825
   25CHL1  H27B 3029   4.843   5.843   5.297 -1.0173  0.6830 -2.2977
   25CHL1  H27C 3030   4.977   5.889   5.188 -0.9996 -0.6925 -0.5213
   26CHL1    C3 3031   4.024   2.664   6.603  0.4546 -0.5790  0.2568
   26CHL1    H3 3032   4.000   2.562   6.568 -0.4297 -0.0549 -0.7143
   26CHL1    O3 3033   4.021   2.638   6.740 -0.5331  0.6947  0.5205
   26CHL1   H3' 3034   3.930   2.653   6.768 -1.0415 -2.3144  0.8274
   26CHL1    C4 3035   4.168   2.695   6.552 -0.0339 -0.3876  0.5480
   26CHL1   H4A 3036   4.192   2.795   6.592  2.2286 -0.4631 -0.4213
   26CHL1   H4B 3037   4.246   2.622   6.584  1.5523 -0.2282 -2.5579
   26CHL1    C5 3038   4.155   2.709   6.402 -0.0277  0.0269  0.5255
   26CHL1    C6 3039   4.243   2.628   6.337  0.2569 -0.3058  0.2934
   26CHL1    H6 3040   4.323   2.574   6.389  0.5930  0.1877  0.2990
   26CHL1    C7 3041   4.250   2.626   6.186 -0.5046  0.1961  0.4777
   26CHL1   H7A 3042   4.357   2.645   6.167 -0.8268  1.2579 -0.3495
   26CHL1   H7B 3043   4.222   2.526   6.145  2.2799 -2.3264  4.0881
   26CHL1    C8 3044   4.162   2.740   6.124 -0.8822  0.6184 -0.4845
   26CHL1    H8 3045   4.216   2.836   6.135 -0.7745  0.4269  0.7705
   26CHL1   C14 3046   4.131   2.709   5.979 -0.0598  0.2301  0.4600
   26CHL1   H14 3047   4.062   2.623   5.993 -0.1362  0.6028  2.6651
   26CHL1   C15 3048   4.245   2.668   5.877 -0.0865  0.2221  0.6358
   26CHL1  H15A 3049   4.326   2.738   5.907 -0.0565  0.6997 -0.5111
   26CHL1  H15B 3050   4.275   2.561   5.886 -1.1304 -0.0880  0.5831
   26CHL1   C16 3051   4.202   2.715   5.743  0.2475  0.1784  0.2989
   26CHL1  H16A 3052   4.264   2.795   5.698  0.8508 -1.3485 -1.7403
   26CHL1  H16B 3053   4.201   2.628   5.674  1.1499  0.0898  0.3803
   26CHL1   C17 3054   4.058   2.766   5.760 -0.4359  0.0033 -0.6317
   26CHL1   H17 3055   3.994   2.675   5.755 -1.1431  0.2783  1.9661
   26CHL1   C13 3056   4.054   2.814   5.907  0.0938  0.4208  0.3242
   26CHL1   C18 3057   4.131   2.943   5.920 -0.2123 -0.3132  0.0844
   26CHL1  H18A 3058   4.239   2.944   5.892 -0.7580  1.6218 -2.3375
   26CHL1  H18B 3059   4.082   3.027   5.867 -0.2878  0.7376  1.7821
   26CHL1  H18C 3060   4.122   2.982   6.023 -3.5546  4.0625 -1.5457
   26CHL1   C12 3061   3.914   2.826   5.968  0.1008  0.0943 -0.2535
   26CHL1  H12A 3062   3.853   2.908   5.925  0.0593 -0.4028 -1.1532
   26CHL1  H12B 3063   3.860   2.730   5.957  0.2506 -0.0613  0.3321
   26CHL1   C11 3064   3.921   2.855   6.116 -0.4810  0.1978 -0.6804
   26CHL1  H11A 3065   3.950   2.963   6.120  0.8459 -0.0875 -1.9528
   26CHL1  H11B 3066   3.821   2.845   6.162  0.0722  2.6930  1.3386
   26CHL1    C9 3067   4.030   2.761   6.191  0.1912 -0.1075 -0.3180
   26CHL1    H9 3068   3.987   2.659   6.183  1.2879 -0.9200  2.8219
   26CHL1   C10 3069   4.044   2.796   6.340 -0.4957  0.3309  0.2705
   26CHL1   C19 3070   4.086   2.939   6.362  0.5528 -0.1688 -0.4943
   26CHL1  H19A 3071   4.171   2.978   6.303 -1.4006  3.0396 -1.4584
   26CHL1  H19B 3072   4.005   3.011   6.335  0.6537 -0.6572 -2.1985
   26CHL1  H19C 3073   4.114   2.969   6.465  0.3858  1.6178 -0.9364
   26CHL1    C1 3074   3.907   2.762   6.406 -0.0681  0.7676  0.2064
   26CHL1   H1A 3075   3.838   2.844   6.378 -0.6123  0.8234  1.6427
   26CHL1   H1B 3076   3.876   2.660   6.373  0.4396  0.6087  0.1994
   26CHL1    C2 3077   3.920   2.762   6.562 -0.2627  0.0260  0.7527
   26CHL1   H2A 3078   3.819   2.729   6.597  0.0199 -1.6834  0.0394
   26CHL1   H2B 3079   3.949   2.864   6.593  2.7572 -0.5935  0.2865
   26CHL1   C20 3080   4.019   2.863   5.646 -0.0448  0.1398 -0.0997
   26CHL1   H20 3081   4.086   2.951   5.661 -2.1155  1.8120 -0.2881
   26CHL1   C21 3082   3.870   2.917   5.649  0.1774  0.3990 -0.2985
   26CHL1  H21A 3083   3.859   2.986   5.735 -0.6615 -0.6108  0.4316
   26CHL1  H21B 3084   3.795   2.835   5.648 -1.3960  1.7943 -0.8240
   26CHL1  H21C 3085   3.860   2.981   5.559  2.6384  2.4031  0.7242
   26CHL1   C22 3086   4.054   2.804   5.507  0.3888  0.7573  0.0383
   26CHL1  H22A 3087   4.149   2.746   5.507 -0.9073 -1.4893 -0.8270
   26CHL1  H22B 3088   3.980   2.727   5.477  2.0667 -0.4194 -1.2722
   26CHL1   C23 3089   4.074   2.909   5.404  0.0374  0.2847  0.3784
   26CHL1  H23A 3090   3.985   2.975   5.411 -0.5923 -0.3892 -0.9143
   26CHL1  H23B 3091   4.164   2.971   5.424  1.8298 -1.6210 -1.4158
   26CHL1   C24 3092   4.060   2.853   5.264  0.3722  0.0877 -0.2193
   26CHL1  H24A 3093   4.135   2.777   5.235  1.4119  0.5935  1.0744
   26CHL1  H24B 3094   3.962   2.806   5.240  1.0982 -0.7090 -1.7464
   26CHL1   C25 3095   4.072   2.963   5.157  0.7023 -0.2594 -0.5233
   26CHL1   H25 3096   4.172   3.011   5.159  0.3010  0.5897 -0.5291
   26CHL1   C26 3097   4.058   2.902   5.016 -0.8313  0.6720 -0.3708
   26CHL1  H26A 3098   3.973   2.830   5.014  0.1292 -0.4808 -0.6636
   26CHL1  H26B 3099   4.043   2.976   4.934  0.8422 -1.0987 -2.3742
   26CHL1  H26C 3100   4.154   2.851   4.998 -1.4042 -0.4883 -0.2032
   26CHL1   C27 3101   3.960   3.075   5.172 -0.3152 -0.3558  0.6123
   26CHL1  H27A 3102   3.967   3.133   5.266  1.6668  0.0880  0.2225
   26CHL1  H27B 3103   3.968   3.140   5.083 -2.4853 -0.0842  0.5539
   26CHL1  H27C 3104   3.856   3.035   5.168  0.6073 -2.9408 -3.7005
   27CHL1    C3 3105   1.887   3.732   6.531 -0.1733 -0.2552  0.1880
   27CHL1    H3 3106   1.797   3.667   6.523 -0.4266 -0.0710  1.2896
   27CHL1    O3 3107   1.927   3.751   6.668 -0.3324  0.3744  0.2305
   27CHL1   H3' 3108   1.842   3.768   6.709 -0.7058  2.0894 -1.1609
   27CHL1    C4 3109   2.003   3.644   6.471  0.5478 -0.2609  0.3591
   27CHL1   H4A 3110   2.098   3.693   6.500  0.4015 -1.0503  2.2672
   27CHL1   H4B 3111   1.998   3.551   6.530 -0.2312 -2.6735 -3.2088
   27CHL1    C5 3112   1.995   3.629   6.320 -0.2281 -0.1351 -0.0436
   27CHL1    C6 3113   2.006   3.507   6.262 -0.6347 -0.0852  0.1350
   27CHL1    H6 3114   2.026   3.422   6.329 -2.5898 -0.4300  0.3469
   27CHL1    C7 3115   2.005   3.480   6.116 -0.3337  0.0247 -0.5136
   27CHL1   H7A 3116   2.090   3.412   6.094 -0.6057 -0.8031  0.8108
   27CHL1   H7B 3117   1.909   3.430   6.091  0.6164 -1.3493 -1.5237
   27CHL1    C8 3118   2.018   3.616   6.035  0.9675  0.9866  0.0451
   27CHL1    H8 3119   2.126   3.645   6.040  0.7786  1.7802 -0.2508
   27CHL1   C14 3120   1.976   3.591   5.891  0.2277  0.1690  0.1402
   27CHL1   H14 3121   1.869   3.561   5.899 -0.1048  1.0854 -0.6357
   27CHL1   C15 3122   2.037   3.482   5.819 -0.3354  1.1896  0.2358
   27CHL1  H15A 3123   2.146   3.477   5.842 -0.4525  1.2133  0.7971
   27CHL1  H15B 3124   1.990   3.383   5.838  1.5416  0.0300 -0.7624
   27CHL1   C16 3125   2.004   3.504   5.670  0.1469  0.3181 -0.2165
   27CHL1  H16A 3126   2.103   3.506   5.621  1.1417  0.4116  1.6972
   27CHL1  H16B 3127   1.948   3.423   5.620  1.6307 -0.5708 -0.4780
   27CHL1   C17 3128   1.936   3.646   5.656  0.0379 -0.7525 -0.1075
   27CHL1   H17 3129   1.828   3.622   5.660 -0.7645  2.2947 -0.7853
   27CHL1   C13 3130   1.982   3.708   5.794 -0.1486  0.5930 -0.3422
   27CHL1   C18 3131   2.123   3.766   5.785 -0.1066  1.3298 -0.3995
   27CHL1  H18A 3132   2.166   3.767   5.888  0.6913  1.2098 -0.7254
   27CHL1  H18B 3133   2.187   3.701   5.722 -0.7905  0.9252 -0.6922
   27CHL1  H18C 3134   2.122   3.866   5.738  0.6513  1.3335 -0.4236
   27CHL1   C12 3135   1.896   3.815   5.856 -0.4159  0.0621  0.7262
   27CHL1  H12A 3136   1.912   3.913   5.805  0.3514 -0.3301  0.2039
   27CHL1  H12B 3137   1.787   3.796   5.847 -0.0855 -1.7434  0.0693
   27CHL1   C11 3138   1.934   3.851   6.004  0.1234  0.5150 -0.3598
   27CHL1  H11A 3139   2.031   3.905   6.002 -0.9233  2.4518 -1.1069
   27CHL1  H11B 3140   1.865   3.932   6.037 -1.5295 -1.2211  0.6895
   27CHL1    C9 3141   1.935   3.729   6.091  0.0813 -0.6020  0.6042
   27CHL1    H9 3142   1.829   3.693   6.089  0.2230 -0.9751 -0.4393
   27CHL1   C10 3143   1.966   3.760   6.237 -0.0322 -0.2680 -0.6727
   27CHL1   C19 3144   2.087   3.850   6.255 -0.2402  0.6560  0.3560
   27CHL1  H19A 3145   2.174   3.811   6.198  0.6969  0.3533  1.9659
   27CHL1  H19B 3146   2.071   3.957   6.229  0.6131  1.1625  1.7956
   27CHL1  H19C 3147   2.122   3.843   6.360 -1.5475 -0.7728  0.7353
   27CHL1    C1 3148   1.846   3.838   6.305  0.5488  0.1327 -0.2404
   27CHL1   H1A 3149   1.837   3.936   6.254  0.5332  0.5076  0.4790
   27CHL1   H1B 3150   1.752   3.779   6.303  0.5027  0.1186  1.1156
   27CHL1    C2 3151   1.866   3.863   6.461 -0.3579 -0.3076 -0.0324
   27CHL1   H2A 3152   1.773   3.916   6.488 -0.5642 -0.8553  0.3513
   27CHL1   H2B 3153   1.950   3.935   6.469 -0.3123  0.0694 -2.7089
   27CHL1   C20 3154   1.973   3.708   5.519 -0.4956  0.3744 -0.0835
   27CHL1   H20 3155   2.079   3.738   5.509 -0.8937  1.2584 -2.4326
   27CHL1   C21 3156   1.882   3.831   5.502  0.8274  0.2597 -0.2924
   27CHL1  H21A 3157   1.775   3.805   5.489  1.3000 -2.1743  0.0872
   27CHL1  H21B 3158   1.902   3.903   5.420  0.3943 -0.2004 -0.8101
   27CHL1  H21C 3159   1.882   3.900   5.590 -0.4001  1.2612 -1.0487
   27CHL1   C22 3160   1.962   3.603   5.406 -0.1790  0.9914  0.2298
   27CHL1  H22A 3161   2.041   3.528   5.425 -0.3924  0.5966 -0.3869
   27CHL1  H22B 3162   1.863   3.553   5.413  0.0719  0.0084 -2.1405
   27CHL1   C23 3163   1.963   3.668   5.260  0.1069 -0.0571 -0.4139
   27CHL1  H23A 3164   1.872   3.731   5.256  1.0356  1.3566  0.0696
   27CHL1  H23B 3165   2.054   3.730   5.245 -1.4094  1.9089 -1.9994
   27CHL1   C24 3166   1.945   3.565   5.145 -0.2958 -0.3496 -0.7604
   27CHL1  H24A 3167   1.850   3.510   5.159 -0.9942  0.1447 -3.1074
   27CHL1  H24B 3168   1.941   3.608   5.043 -0.3550  0.8089 -0.2822
   27CHL1   C25 3169   2.054   3.462   5.140  0.5319  0.4465 -0.2178
   27CHL1   H25 3170   2.066   3.414   5.239  1.3776 -1.3119 -1.1208
   27CHL1   C26 3171   2.017   3.353   5.039  0.5209  0.0135  0.0251
   27CHL1  H26A 3172   2.096   3.283   5.004 -0.3517 -1.8321  1.5000
   27CHL1  H26B 3173   1.927   3.297   5.073 -1.0085  2.7727  0.7833
   27CHL1  H26C 3174   1.995   3.396   4.939  0.7269 -0.0832 -0.0636
   27CHL1   C27 3175   2.192   3.523   5.105  0.1581 -0.0861 -0.9619
   27CHL1  H27A 3176   2.185   3.552   4.998  0.4046 -1.2689 -1.3126
   27CHL1  H27B 3177   2.265   3.443   5.127  0.4836  0.5789  0.4833
   27CHL1  H27C 3178   2.225   3.609   5.168  0.3762 -0.6871 -0.2392
   28CHL1    C3 3179   5.951   0.355   6.312  0.5233 -0.5283 -0.1335
   28CHL1    H3 3180   6.013   0.264   6.300 -0.7452 -1.1511 -2.5910
   28CHL1    O3 3181   5.944   0.396   6.447 -0.4973 -0.0792 -0.3672
   28CHL1   H3' 3182   5.912   0.315   6.488 -1.8586  0.0416 -1.1088
   28CHL1    C4 3183   6.022   0.476   6.239 -0.0786  0.3005  0.0326
   28CHL1   H4A 3184   5.963   0.567   6.266 -0.8024 -0.0547 -0.3345
   28CHL1   H4B 3185   6.120   0.476   6.292 -0.4347  0.1074  0.7098
   28CHL1    C5 3186   6.025   0.452   6.088  0.4205  0.4050 -0.5799
   28CHL1    C6 3187   6.142   0.442   6.030  0.5360  0.4530  0.0923
   28CHL1    H6 3188   6.227   0.467   6.095  1.0564  0.5556 -0.6187
   28CHL1    C7 3189   6.160   0.423   5.883 -0.1434  0.3750  0.4601
   28CHL1   H7A 3190   6.236   0.488   5.836 -0.9716  1.6586  0.8594
   28CHL1   H7B 3191   6.191   0.316   5.880 -1.3769 -0.0624  1.8339
   28CHL1    C8 3192   6.021   0.425   5.807  0.8226 -0.3338  0.0020
   28CHL1    H8 3193   5.987   0.531   5.801  1.5970 -0.1502 -3.2326
   28CHL1   C14 3194   6.033   0.369   5.659  0.2559  0.2340 -0.2410
   28CHL1   H14 3195   6.064   0.262   5.663  2.2885  0.7637 -0.7514
   28CHL1   C15 3196   6.142   0.438   5.572  0.3840  0.5913 -0.6336
   28CHL1  H15A 3197   6.131   0.548   5.589 -1.1675  0.5843 -1.4269
   28CHL1  H15B 3198   6.242   0.406   5.607 -0.5693 -2.3894 -0.4018
   28CHL1   C16 3199   6.105   0.398   5.426  0.2339 -0.6443 -0.5741
   28CHL1  H16A 3200   6.093   0.483   5.356  0.8553 -1.6480 -1.9394
   28CHL1  H16B 3201   6.175   0.329   5.374  1.3642  0.2064 -0.2212
   28CHL1   C17 3202   5.971   0.320   5.434 -0.4419 -0.8397 -0.4464
   28CHL1   H17 3203   5.991   0.212   5.449 -0.5290 -0.7012  0.7735
   28CHL1   C13 3204   5.910   0.373   5.574 -0.7106  0.1134  0.6878
   28CHL1   C18 3205   5.860   0.523   5.562  0.1878  0.4192  0.4574
   28CHL1  H18A 3206   5.841   0.565   5.663  0.9773  2.0760 -0.0383
   28CHL1  H18B 3207   5.933   0.590   5.512 -0.5103  0.8052 -0.0547
   28CHL1  H18C 3208   5.764   0.511   5.507 -0.3210 -0.7119  1.5413
   28CHL1   C12 3209   5.807   0.286   5.648  0.0933 -0.3235  0.3696
   28CHL1  H12A 3210   5.707   0.291   5.600  0.0808  0.4176  0.4543
   28CHL1  H12B 3211   5.839   0.180   5.658  3.1098  0.4721  0.2132
   28CHL1   C11 3212   5.783   0.330   5.800  0.3382  0.2646 -0.0863
   28CHL1  H11A 3213   5.727   0.426   5.796 -1.2723 -0.5128  2.0151
   28CHL1  H11B 3214   5.729   0.244   5.846  0.6397 -0.3237 -0.7965
   28CHL1    C9 3215   5.914   0.351   5.883 -0.4837  0.0790  0.8522
   28CHL1    H9 3216   5.949   0.247   5.899 -1.5373 -0.2845  0.8892
   28CHL1   C10 3217   5.894   0.410   6.017  0.8089  0.3800  0.6984
   28CHL1   C19 3218   5.787   0.529   6.014 -0.2141  0.0999  0.2325
   28CHL1  H19A 3219   5.807   0.609   5.939 -3.1369  0.0146 -0.7623
   28CHL1  H19B 3220   5.684   0.491   6.004 -0.0641  0.2287 -2.8444
   28CHL1  H19C 3221   5.793   0.589   6.107 -0.0127 -0.4983  0.6131
   28CHL1    C1 3222   5.829   0.307   6.111 -0.2559 -0.6730 -0.4733
   28CHL1   H1A 3223   5.729   0.287   6.066 -0.4579  0.0697 -0.3642
   28CHL1   H1B 3224   5.874   0.206   6.101  2.3423  0.2680  0.8889
   28CHL1    C2 3225   5.805   0.344   6.257  0.1537  0.2869 -0.2517
   28CHL1   H2A 3226   5.745   0.269   6.313 -2.9075  2.2759 -0.6243
   28CHL1   H2B 3227   5.760   0.444   6.277 -1.1420 -0.3887  0.2758
   28CHL1   C20 3228   5.891   0.332   5.297  0.3931 -0.5615  0.2601
   28CHL1   H20 3229   5.862   0.438   5.282  1.5964 -0.1038  1.0102
   28CHL1   C21 3230   5.763   0.254   5.313  0.3147  0.5253 -0.5842
   28CHL1  H21A 3231   5.707   0.268   5.218 -1.2968 -3.3779 -0.3981
   28CHL1  H21B 3232   5.695   0.284   5.395  0.1572 -1.0802 -0.0986
   28CHL1  H21C 3233   5.803   0.152   5.334  2.4836  1.1581 -1.3061
   28CHL1   C22 3234   5.972   0.280   5.181 -0.7645 -0.2069  0.1274
   28CHL1  H22A 3235   6.072   0.326   5.165 -1.1978  1.3179  1.4884
   28CHL1  H22B 3236   5.997   0.172   5.186  0.4316  0.0892  0.8182
   28CHL1   C23 3237   5.917   0.297   5.033  0.2777 -0.0189  0.6196
   28CHL1  H23A 3238   5.990   0.253   4.962 -0.2692 -0.2515  0.2002
   28CHL1  H23B 3239   5.820   0.242   5.028  0.8479 -0.9222 -2.1370
   28CHL1   C24 3240   5.897   0.443   4.996  0.2278  0.0599  0.7691
   28CHL1  H24A 3241   5.850   0.500   5.079  0.7334  0.8453  0.5339
   28CHL1  H24B 3242   5.998   0.485   4.976 -1.0600  2.2645 -1.8354
   28CHL1   C25 3243   5.819   0.452   4.871  0.7139 -0.7239  1.0355
   28CHL1   H25 3244   5.731   0.390   4.898 -1.0286  1.5682  0.9219
   28CHL1   C26 3245   5.745   0.595   4.853 -0.2603  0.1070  0.0488
   28CHL1  H26A 3246   5.677   0.621   4.937  0.2470  1.7309 -0.0108
   28CHL1  H26B 3247   5.820   0.675   4.839  0.8894 -0.4371  2.5014
   28CHL1  H26C 3248   5.678   0.581   4.766 -0.1244  0.3203 -0.0895
   28CHL1   C27 3249   5.880   0.412   4.738 -0.2191 -0.0495  0.0584
   28CHL1  H27A 3250   5.911   0.305   4.740  2.6538  0.7230  1.6398
   28CHL1  H27B 3251   5.805   0.424   4.657 -1.3748 -0.2224  1.0648
   28CHL1  H27C 3252   5.975   0.460   4.707  0.6775 -3.4763 -3.2852
   29CHL1    C3 3253   1.632   4.220   6.691  0.0305 -0.7955  0.1711
   29CHL1    H3 3254   1.703   4.134   6.681  0.8272 -0.4620  2.4902
   29CHL1    O3 3255   1.602   4.238   6.824  0.6902 -0.3644  0.1303
   29CHL1   H3' 3256   1.548   4.317   6.828  0.0826 -0.8055  0.7586
   29CHL1    C4 3257   1.710   4.341   6.630 -0.2416 -0.9655 -0.2172
   29CHL1   H4A 3258   1.645   4.427   6.658  1.0446  0.6121 -1.7752
   29CHL1   H4B 3259   1.802   4.357   6.690 -0.9047 -0.4815  0.6927
   29CHL1    C5 3260   1.735   4.337   6.481 -0.2111  0.0499  0.6675
   29CHL1    C6 3261   1.853   4.363   6.429 -0.4118 -0.4567  0.3008
   29CHL1    H6 3262   1.940   4.399   6.486  1.3100  0.1311 -2.4699
   29CHL1    C7 3263   1.891   4.346   6.279  0.1647  0.1321  0.1992
   29CHL1   H7A 3264   1.939   4.437   6.239  1.7851 -0.7874 -0.0182
   29CHL1   H7B 3265   1.961   4.260   6.271 -0.4124 -0.1985 -1.6698
   29CHL1    C8 3266   1.765   4.334   6.183 -0.0789  0.8517  0.1008
   29CHL1    H8 3267   1.718   4.434   6.177  0.1637  1.0389  1.0799
   29CHL1   C14 3268   1.808   4.287   6.043 -0.1819 -0.2668 -0.1242
   29CHL1   H14 3269   1.856   4.190   6.067 -1.4878 -0.9399 -0.1621
   29CHL1   C15 3270   1.924   4.359   5.974  0.3163  0.0440 -0.8832
   29CHL1  H15A 3271   1.912   4.469   5.960  1.4180  0.0593 -1.9621
   29CHL1  H15B 3272   2.023   4.346   6.024  0.1281  3.0075  0.5102
   29CHL1   C16 3273   1.916   4.289   5.834  0.4869 -0.1503  0.9104
   29CHL1  H16A 3274   1.926   4.377   5.766 -0.5001 -1.8913 -1.6316
   29CHL1  H16B 3275   2.002   4.221   5.820 -0.7713 -1.2289 -2.4466
   29CHL1   C17 3276   1.781   4.218   5.820  1.2870  0.2988 -1.0124
   29CHL1   H17 3277   1.800   4.110   5.839 -2.0646 -0.3798 -0.8141
   29CHL1   C13 3278   1.697   4.271   5.946  0.5197 -0.0505 -0.5561
   29CHL1   C18 3279   1.631   4.406   5.903 -0.2743  0.0018 -0.2042
   29CHL1  H18A 3280   1.577   4.452   5.989  0.1308 -0.2285  0.1802
   29CHL1  H18B 3281   1.699   4.480   5.856  0.4866 -1.0404 -0.7833
   29CHL1  H18C 3282   1.553   4.386   5.828 -2.1244  0.2917  1.5629
   29CHL1   C12 3283   1.582   4.183   6.002 -0.1067 -0.0958  0.4493
   29CHL1  H12A 3284   1.494   4.208   5.939 -0.9902 -1.0874  1.2520
   29CHL1  H12B 3285   1.607   4.075   6.000 -1.1251 -0.3677  1.3564
   29CHL1   C11 3286   1.540   4.221   6.142  0.9204 -0.2418 -1.1657
   29CHL1  H11A 3287   1.493   4.322   6.149  2.9819  0.6738  3.1201
   29CHL1  H11B 3288   1.470   4.147   6.186  2.9503 -2.1458 -0.9390
   29CHL1    C9 3289   1.659   4.239   6.239  0.2185 -0.2702  0.1086
   29CHL1    H9 3290   1.709   4.141   6.252 -0.4920 -0.8209 -1.1275
   29CHL1   C10 3291   1.618   4.288   6.389  0.1402  0.5756 -0.2341
   29CHL1   C19 3292   1.526   4.409   6.384  0.2847 -0.7372 -0.0148
   29CHL1  H19A 3293   1.487   4.439   6.484 -0.0715  0.3774 -0.4717
   29CHL1  H19B 3294   1.570   4.490   6.322 -1.1344 -1.1183 -1.6052
   29CHL1  H19C 3295   1.436   4.380   6.325  1.0920 -1.7896 -0.7578
   29CHL1    C1 3296   1.550   4.168   6.456  0.6379 -1.5298 -0.2505
   29CHL1   H1A 3297   1.459   4.137   6.399 -0.4658  0.2326  0.4583
   29CHL1   H1B 3298   1.626   4.088   6.457  2.5738  0.0691  3.5022
   29CHL1    C2 3299   1.510   4.190   6.602  0.0312  0.5330 -0.9023
   29CHL1   H2A 3300   1.451   4.098   6.619 -0.9354  0.7343 -2.8465
   29CHL1   H2B 3301   1.445   4.280   6.606 -0.6996 -0.0324  1.6946
   29CHL1   C20 3302   1.714   4.224   5.683  0.0912 -0.2704  0.6354
   29CHL1   H20 3303   1.666   4.323   5.665  1.5490  0.4446  0.5549
   29CHL1   C21 3304   1.607   4.113   5.667  0.1406 -0.5162  1.0290
   29CHL1  H21A 3305   1.552   4.118   5.570 -0.9886  0.1995  1.6911
   29CHL1  H21B 3306   1.540   4.094   5.753 -2.2865 -1.0370 -0.8673
   29CHL1  H21C 3307   1.661   4.017   5.649 -0.0580 -0.2748 -1.0965
   29CHL1   C22 3308   1.830   4.215   5.572 -0.5245 -0.0420  0.2539
   29CHL1  H22A 3309   1.914   4.287   5.581  1.8334 -2.5591 -0.5613
   29CHL1  H22B 3310   1.870   4.116   5.600 -1.0616 -0.6745 -1.1120
   29CHL1   C23 3311   1.767   4.212   5.430 -0.1678  0.0060  0.4881
   29CHL1  H23A 3312   1.690   4.133   5.423  1.3593 -1.5341  0.5294
   29CHL1  H23B 3313   1.722   4.312   5.408  1.8372  0.9614  0.4332
   29CHL1   C24 3314   1.882   4.203   5.332 -0.3527 -0.5864  0.1413
   29CHL1  H24A 3315   1.950   4.289   5.350  1.2129 -1.6618 -0.4611
   29CHL1  H24B 3316   1.947   4.114   5.324  1.8123  0.9567 -0.5963
   29CHL1   C25 3317   1.833   4.223   5.186 -0.4059 -0.5739  0.3036
   29CHL1   H25 3318   1.773   4.316   5.175 -0.9732 -1.0016 -0.2963
   29CHL1   C26 3319   1.966   4.249   5.104  0.7673  0.2450 -0.5674
   29CHL1  H26A 3320   2.024   4.334   5.146  1.4447  0.4167 -1.8205
   29CHL1  H26B 3321   2.023   4.154   5.112  0.1535 -0.1073 -0.2877
   29CHL1  H26C 3322   1.924   4.274   5.004 -1.9149 -0.6987  0.2171
   29CHL1   C27 3323   1.761   4.102   5.132  0.1656  0.0230 -0.4716
   29CHL1  H27A 3324   1.669   4.080   5.190 -1.2371  1.0813 -2.1861
   29CHL1  H27B 3325   1.733   4.119   5.026 -2.0865  1.0945  0.2191
   29CHL1  H27C 3326   1.827   4.013   5.138 -0.1563 -0.3194 -1.8175
   30CHL1    C3 3327   4.076   4.644   7.084  0.2576  0.6399 -0.1469
   30CHL1    H3 3328   4.067   4.750   7.053  2.7611  0.0650 -3.4952
   30CHL1    O3 3329   4.090   4.642   7.227  0.3192 -0.3357 -0.3551
   30CHL1   H3' 3330   4.144   4.565   7.244 -0.1394 -0.2967  1.5159
   30CHL1    C4 3331   3.947   4.570   7.044 -0.2317 -0.0636  0.3233
   30CHL1   H4A 3332   3.951   4.463   7.074 -0.6477 -0.5502 -1.2137
   30CHL1   H4B 3333   3.859   4.606   7.099 -1.7146 -3.7536  0.6782
   30CHL1    C5 3334   3.922   4.563   6.893  0.0643  0.4418 -0.2068
   30CHL1    C6 3335   3.814   4.620   6.837 -0.0836  0.3211 -0.3362
   30CHL1    H6 3336   3.738   4.658   6.907 -1.7255  0.0429 -1.9222
   30CHL1    C7 3337   3.781   4.622   6.693  0.4580 -0.2707  0.3203
   30CHL1   H7A 3338   3.677   4.586   6.680  0.8896 -1.3679 -0.2055
   30CHL1   H7B 3339   3.787   4.726   6.653  1.1663  0.0954  1.3245
   30CHL1    C8 3340   3.870   4.528   6.612 -0.6921  0.9768  0.3779
   30CHL1    H8 3341   3.834   4.425   6.632 -1.5647  1.3615  0.8382
   30CHL1   C14 3342   3.863   4.549   6.460  0.1245 -0.0989  0.2853
   30CHL1   H14 3343   3.899   4.649   6.430  1.2401 -1.1238 -2.0845
   30CHL1   C15 3344   3.726   4.544   6.392 -0.7014  0.7254 -0.4959
   30CHL1  H15A 3345   3.675   4.462   6.447 -0.1385 -0.2647 -1.4147
   30CHL1  H15B 3346   3.686   4.646   6.408 -2.0195  0.2007 -0.3868
   30CHL1   C16 3347   3.748   4.504   6.247  0.5779 -0.2777 -0.4721
   30CHL1  H16A 3348   3.708   4.405   6.216  0.8680 -0.4364 -0.3421
   30CHL1  H16B 3349   3.714   4.589   6.184  0.0653 -0.6331 -0.6798
   30CHL1   C17 3350   3.910   4.496   6.232 -0.0075 -0.3286  0.0002
   30CHL1   H17 3351   3.929   4.604   6.213 -1.0151 -0.1252  0.0953
   30CHL1   C13 3352   3.953   4.463   6.373 -0.1395  0.4154  0.1501
   30CHL1   C18 3353   3.928   4.306   6.388 -0.4205  0.1174  0.2893
   30CHL1  H18A 3354   3.933   4.269   6.493 -1.9494 -1.7033 -0.2301
   30CHL1  H18B 3355   3.832   4.271   6.344 -1.0462  0.9584  0.9375
   30CHL1  H18C 3356   4.007   4.259   6.326 -0.8400  1.5147 -1.4003
   30CHL1   C12 3357   4.100   4.488   6.417 -0.3237  0.5328  0.0356
   30CHL1  H12A 3358   4.157   4.413   6.358 -0.7665  1.5614 -1.7692
   30CHL1  H12B 3359   4.129   4.589   6.380  4.8279 -0.6139  0.1293
   30CHL1   C11 3360   4.119   4.464   6.569 -0.3939 -0.1710 -0.2059
   30CHL1  H11A 3361   4.111   4.353   6.573 -0.3658 -0.1665  3.4413
   30CHL1  H11B 3362   4.225   4.470   6.601  0.1883 -0.2732 -1.9852
   30CHL1    C9 3363   4.021   4.543   6.658  0.7447 -0.5362  0.1476
   30CHL1    H9 3364   4.046   4.651   6.657  0.9302 -0.5698  0.7956
   30CHL1   C10 3365   4.036   4.504   6.813 -0.9665  0.0557  0.1119
   30CHL1   C19 3366   4.042   4.354   6.839  0.3426  0.5032 -0.3485
   30CHL1  H19A 3367   3.949   4.301   6.865  0.8688  0.5007  1.6990
   30CHL1  H19B 3368   4.081   4.301   6.749  2.7671  3.1080 -1.0126
   30CHL1  H19C 3369   4.114   4.322   6.917 -0.7928 -1.6421 -0.1292
   30CHL1    C1 3370   4.169   4.580   6.857 -0.2607 -0.7561  0.6239
   30CHL1   H1A 3371   4.250   4.528   6.802 -1.0335 -0.1679 -1.1169
   30CHL1   H1B 3372   4.172   4.687   6.827  0.3609 -0.3971  1.8984
   30CHL1    C2 3373   4.196   4.580   7.012 -0.1878  0.1280  0.2866
   30CHL1   H2A 3374   4.294   4.626   7.034 -0.3325  0.3329  0.5100
   30CHL1   H2B 3375   4.195   4.470   7.030 -3.5749  0.0952  0.6419
   30CHL1   C20 3376   3.950   4.415   6.111 -0.3828 -0.5098 -0.0162
   30CHL1   H20 3377   3.908   4.312   6.119 -0.9137 -0.2062  1.4206
   30CHL1   C21 3378   4.102   4.398   6.103 -0.7595 -0.5705  0.1745
   30CHL1  H21A 3379   4.148   4.498   6.116 -1.5999 -0.3888  1.9510
   30CHL1  H21B 3380   4.143   4.368   6.004 -0.3507 -0.5553  0.3364
   30CHL1  H21C 3381   4.148   4.329   6.178  0.2889 -1.4556 -1.2250
   30CHL1   C22 3382   3.884   4.463   5.984 -0.4903  0.1507  0.0549
   30CHL1  H22A 3383   3.774   4.479   5.993 -0.3184  1.7161 -0.3963
   30CHL1  H22B 3384   3.937   4.553   5.946  1.3830 -0.8703  0.1324
   30CHL1   C23 3385   3.897   4.353   5.880  0.0017  0.5464 -0.0679
   30CHL1  H23A 3386   4.002   4.317   5.871 -1.0914 -2.5471 -1.5500
   30CHL1  H23B 3387   3.827   4.270   5.901 -1.4872  2.0249  1.1078
   30CHL1   C24 3388   3.868   4.404   5.740  0.3188  0.3094  0.7698
   30CHL1  H24A 3389   3.764   4.444   5.731  0.3061  0.3268  0.9775
   30CHL1  H24B 3390   3.929   4.496   5.726  1.0586 -0.5521 -2.4266
   30CHL1   C25 3391   3.881   4.302   5.628 -0.2065  0.5837  0.4554
   30CHL1   H25 3392   3.830   4.208   5.658  1.0224 -0.2997 -0.1316
   30CHL1   C26 3393   3.815   4.345   5.497  0.3116  0.2208 -0.4734
   30CHL1  H26A 3394   3.840   4.265   5.424  3.3640 -0.5258  1.1918
   30CHL1  H26B 3395   3.705   4.354   5.508  0.0454  0.6830 -2.8999
   30CHL1  H26C 3396   3.859   4.446   5.478 -0.3439  0.4837 -0.6336
   30CHL1   C27 3397   4.026   4.261   5.585  0.0309  0.5852  0.5314
   30CHL1  H27A 3398   4.082   4.348   5.545 -0.2551 -0.8466 -3.4063
   30CHL1  H27B 3399   4.070   4.197   5.664 -0.8370 -1.1754 -0.3507
   30CHL1  H27C 3400   4.026   4.191   5.499  0.9117  1.5805 -0.3066
   31CHL1    C3 3401   1.980   5.922   6.816  0.3818 -0.5211  0.1896
   31CHL1    H3 3402   2.088   5.897   6.819  0.4055 -0.3664  1.7111
   31CHL1    O3 3403   1.915   5.895   6.938  0.4902  0.4718 -0.7315
   31CHL1   H3' 3404   1.960   5.819   6.977  0.8646 -0.3651 -2.6729
   31CHL1    C4 3405   1.969   6.081   6.783 -0.0101  0.0939  0.0978
   31CHL1   H4A 3406   1.868   6.117   6.813  0.6499  1.6286  0.5524
   31CHL1   H4B 3407   2.037   6.131   6.855  0.1739 -0.7469  0.5110
   31CHL1    C5 3408   2.004   6.119   6.639 -0.6943 -0.8302  0.4164
   31CHL1    C6 3409   2.094   6.218   6.615 -0.2660  0.4414 -1.3387
   31CHL1    H6 3410   2.149   6.264   6.698 -0.8625 -0.9612 -0.1122
   31CHL1    C7 3411   2.109   6.274   6.477  0.1836 -0.1696 -0.1988
   31CHL1   H7A 3412   2.103   6.385   6.487  1.2497 -0.1243 -0.0303
   31CHL1   H7B 3413   2.213   6.261   6.441  1.1589  1.0416  1.9884
   31CHL1    C8 3414   1.997   6.224   6.378 -0.5950 -0.2258  0.3380
   31CHL1    H8 3415   1.906   6.282   6.407  0.4442  1.4526  0.4297
   31CHL1   C14 3416   2.047   6.258   6.237  0.3329 -0.0321  0.0767
   31CHL1   H14 3417   2.140   6.203   6.211 -1.2554 -1.7499 -2.4749
   31CHL1   C15 3418   2.067   6.406   6.198 -0.2036 -0.1320  0.5663
   31CHL1  H15A 3419   1.984   6.468   6.237 -1.3795 -1.0274 -0.4402
   31CHL1  H15B 3420   2.163   6.443   6.240 -0.5635 -0.4240  1.6718
   31CHL1   C16 3421   2.080   6.414   6.046  0.1642  0.2987  0.3520
   31CHL1  H16A 3422   2.041   6.510   6.005  2.1138  1.0993  0.2827
   31CHL1  H16B 3423   2.189   6.403   6.031 -0.4514 -2.6185 -3.1186
   31CHL1   C17 3424   2.020   6.274   6.006  0.4948 -0.0514  1.0284
   31CHL1   H17 3425   2.108   6.212   5.981  0.3476 -0.2312  0.9612
   31CHL1   C13 3426   1.955   6.212   6.130 -0.0752  0.0359 -0.1974
   31CHL1   C18 3427   1.814   6.274   6.141  0.1977  0.2776  0.2453
   31CHL1  H18A 3428   1.766   6.229   6.052  1.2554 -0.4179  0.0108
   31CHL1  H18B 3429   1.751   6.248   6.228 -0.3601 -1.2500 -0.5928
   31CHL1  H18C 3430   1.820   6.384   6.124  0.3214  0.1454 -0.5840
   31CHL1   C12 3431   1.963   6.066   6.136  0.7538  0.2300 -0.0696
   31CHL1  H12A 3432   1.903   6.015   6.056  1.0383  0.3987 -0.3925
   31CHL1  H12B 3433   2.067   6.029   6.125  0.5513 -0.3835  0.0238
   31CHL1   C11 3434   1.911   6.015   6.272 -0.4448  0.4898 -0.7272
   31CHL1  H11A 3435   1.801   6.032   6.275 -0.5971 -0.5396  0.9329
   31CHL1  H11B 3436   1.934   5.906   6.270  0.1870  0.5974  0.2976
   31CHL1    C9 3437   1.982   6.074   6.395  0.3223  0.1121 -0.2318
   31CHL1    H9 3438   2.085   6.032   6.390  0.4389  0.4278 -0.5892
   31CHL1   C10 3439   1.923   6.045   6.532  0.6819  0.8791 -0.0300
   31CHL1   C19 3440   1.779   6.095   6.533 -0.7801  0.3763 -0.5734
   31CHL1  H19A 3441   1.763   6.203   6.511 -0.4226  0.9356  1.7246
   31CHL1  H19B 3442   1.710   6.047   6.460 -2.0263 -0.4747  1.1095
   31CHL1  H19C 3443   1.739   6.080   6.635  0.1975 -0.6384 -0.3152
   31CHL1    C1 3444   1.941   5.889   6.567  0.6257 -0.1894 -0.0444
   31CHL1   H1A 3445   1.883   5.835   6.489 -1.9200 -0.9175  2.2012
   31CHL1   H1B 3446   2.045   5.855   6.550  0.0715 -1.1919 -1.7264
   31CHL1    C2 3447   1.903   5.843   6.710  0.6596  0.3288 -0.0997
   31CHL1   H2A 3448   1.916   5.733   6.713  0.2891  0.2870 -0.0709
   31CHL1   H2B 3449   1.793   5.850   6.713  0.5686 -0.9042  0.0731
   31CHL1   C20 3450   1.936   6.280   5.866 -0.8606  0.2711 -0.4894
   31CHL1   H20 3451   1.859   6.360   5.876 -0.6972  0.3617  0.1132
   31CHL1   C21 3452   1.879   6.139   5.833  0.0189 -0.2842 -0.1619
   31CHL1  H21A 3453   1.952   6.055   5.837 -1.6244 -1.7381  0.3496
   31CHL1  H21B 3454   1.827   6.142   5.735 -2.6402 -1.0548  1.1155
   31CHL1  H21C 3455   1.792   6.124   5.901 -1.0504 -0.2853 -1.4830
   31CHL1   C22 3456   2.023   6.345   5.751 -0.0287 -0.7780  0.2669
   31CHL1  H22A 3457   2.061   6.448   5.767 -0.0350 -0.3547 -1.9887
   31CHL1  H22B 3458   2.116   6.284   5.749  0.0605 -0.6661 -1.6416
   31CHL1   C23 3459   1.949   6.349   5.614 -0.1684 -0.0857  0.3692
   31CHL1  H23A 3460   1.946   6.248   5.568  0.9595 -0.0300  0.1533
   31CHL1  H23B 3461   1.851   6.397   5.632 -0.4532 -0.5191  0.0106
   31CHL1   C24 3462   2.014   6.431   5.494  0.4655 -0.0353  0.0390
   31CHL1  H24A 3463   2.025   6.534   5.534  0.6316  0.0235 -0.1583
   31CHL1  H24B 3464   2.110   6.376   5.485 -1.2741 -3.3917  0.2801
   31CHL1   C25 3465   1.941   6.433   5.353  0.4653 -0.6283 -0.2299
   31CHL1   H25 3466   1.894   6.334   5.336 -1.9842  0.6768 -1.6295
   31CHL1   C26 3467   1.834   6.542   5.370 -0.2551 -0.1478 -0.2015
   31CHL1  H26A 3468   1.772   6.522   5.460 -2.5197 -1.3444 -1.9166
   31CHL1  H26B 3469   1.867   6.647   5.382  0.4274 -0.0766 -2.3700
   31CHL1  H26C 3470   1.776   6.547   5.275 -0.0275 -1.9966 -0.4783
   31CHL1   C27 3471   2.048   6.461   5.256 -0.5906  0.0087  0.1488
   31CHL1  H27A 3472   2.009   6.455   5.152 -0.5716  2.2250 -0.0352
   31CHL1  H27B 3473   2.087   6.563   5.271  0.3782 -0.4714  1.0090
   31CHL1  H27C 3474   2.136   6.393   5.254  0.3225  1.1536  0.5248
   32CHL1    C3 3475   4.225   2.238   6.645  0.4781  0.3688 -0.1932
   32CHL1    H3 3476   4.268   2.335   6.612  1.1045 -0.6548 -2.6832
   32CHL1    O3 3477   4.249   2.231   6.781 -0.4702  0.6501 -0.5298
   32CHL1   H3' 3478   4.252   2.138   6.806  2.3547  1.7977  4.5435
   32CHL1    C4 3479   4.070   2.225   6.601  0.0582 -0.2822 -0.3169
   32CHL1   H4A 3480   4.033   2.126   6.634  1.2185 -0.0955  1.7065
   32CHL1   H4B 3481   4.023   2.303   6.665 -0.4776  0.0296 -1.0774
   32CHL1    C5 3482   4.050   2.239   6.450  0.4177  0.4516  0.3534
   32CHL1    C6 3483   3.958   2.326   6.399 -0.0414 -0.2183 -0.2912
   32CHL1    H6 3484   3.884   2.374   6.464  0.1696 -1.5209  0.9492
   32CHL1    C7 3485   3.933   2.349   6.255 -0.3576  0.4051  0.2241
   32CHL1   H7A 3486   3.823   2.364   6.245 -0.6136 -2.0815 -1.6379
   32CHL1   H7B 3487   3.991   2.442   6.236 -1.1828  0.8066 -0.4105
   32CHL1    C8 3488   4.000   2.245   6.161  0.8441 -0.3865 -0.0827
   32CHL1    H8 3489   3.937   2.154   6.163 -0.7103  0.5479 -2.2900
   32CHL1   C14 3490   4.008   2.308   6.023  0.1945  0.1376  0.1428
   32CHL1   H14 3491   4.062   2.403   6.039  0.5054 -0.0598  0.2687
   32CHL1   C15 3492   3.871   2.347   5.958 -0.3610 -0.2362 -0.0786
   32CHL1  H15A 3493   3.801   2.260   5.960 -0.4113 -0.1832  0.6257
   32CHL1  H15B 3494   3.835   2.442   6.003  0.8518 -0.2492  1.0042
   32CHL1   C16 3495   3.917   2.375   5.815  0.8290  0.4048 -0.7680
   32CHL1  H16A 3496   3.842   2.332   5.745  1.5924  0.0165 -1.3661
   32CHL1  H16B 3497   3.916   2.487   5.814 -0.0781  0.4053 -0.4114
   32CHL1   C17 3498   4.059   2.316   5.802 -0.2514  0.1002  0.2501
   32CHL1   H17 3499   4.139   2.392   5.814 -1.3059  1.4535 -0.8786
   32CHL1   C13 3500   4.077   2.223   5.922 -0.5919  0.1460 -0.0425
   32CHL1   C18 3501   4.008   2.084   5.914  0.6349 -0.0176  0.2885
   32CHL1  H18A 3502   3.902   2.095   5.883  0.9236  0.6918 -0.4704
   32CHL1  H18B 3503   4.059   2.011   5.847 -2.4674 -0.1370 -2.1682
   32CHL1  H18C 3504   3.995   2.031   6.011 -2.0963  0.5524  0.3091
   32CHL1   C12 3505   4.217   2.191   5.969  0.3790 -0.2830  0.2352
   32CHL1  H12A 3506   4.276   2.127   5.900  0.2140  0.5227 -0.6773
   32CHL1  H12B 3507   4.272   2.288   5.971 -1.1743  0.6468  2.7432
   32CHL1   C11 3508   4.217   2.131   6.112  0.1489 -0.0297  0.2267
   32CHL1  H11A 3509   4.174   2.029   6.102 -1.2800  0.5968 -0.2052
   32CHL1  H11B 3510   4.324   2.123   6.142  0.7336  0.1910 -1.6838
   32CHL1    C9 3511   4.141   2.220   6.220  0.2900 -0.4277  0.2246
   32CHL1    H9 3512   4.205   2.311   6.223  1.5830 -1.3075 -0.3393
   32CHL1   C10 3513   4.144   2.162   6.361  0.1553 -0.0721 -0.9213
   32CHL1   C19 3514   4.082   2.023   6.362 -0.2475  0.1321 -0.6019
   32CHL1  H19A 3515   4.063   1.983   6.464 -0.5019  0.5350 -0.4923
   32CHL1  H19B 3516   3.978   2.017   6.325 -0.7264 -2.1334  0.9087
   32CHL1  H19C 3517   4.157   1.965   6.304  0.5174  1.0303 -0.5325
   32CHL1    C1 3518   4.293   2.170   6.409 -0.3258 -1.0230  0.5276
   32CHL1   H1A 3519   4.354   2.092   6.358  0.5664  0.8695 -1.4491
   32CHL1   H1B 3520   4.346   2.265   6.390 -2.1112  0.4467  2.4773
   32CHL1    C2 3521   4.314   2.134   6.563  0.0329  0.6232 -1.1147
   32CHL1   H2A 3522   4.421   2.147   6.587 -0.3538  1.0911  0.5600
   32CHL1   H2B 3523   4.268   2.034   6.579 -1.8797  1.6036 -0.0727
   32CHL1   C20 3524   4.090   2.258   5.661  0.3776  0.4057 -0.0992
   32CHL1   H20 3525   4.045   2.157   5.652  0.3624  0.5239 -1.6297
   32CHL1   C21 3526   4.237   2.246   5.638 -1.0897  0.3978  0.1885
   32CHL1  H21A 3527   4.254   2.170   5.559 -0.4296 -0.5077  1.1739
   32CHL1  H21B 3528   4.288   2.213   5.732  0.3003  1.3184 -0.2204
   32CHL1  H21C 3529   4.284   2.339   5.600  0.6663  0.0912  1.4735
   32CHL1   C22 3530   4.033   2.342   5.543  0.4862  0.0906  0.1222
   32CHL1  H22A 3531   3.928   2.367   5.569  0.1069  0.3750 -1.5942
   32CHL1  H22B 3532   4.091   2.436   5.531 -0.1424  0.6426  1.2880
   32CHL1   C23 3533   4.022   2.270   5.411 -0.0245 -0.1714 -0.0835
   32CHL1  H23A 3534   4.115   2.229   5.366 -1.1626 -1.3799 -1.4282
   32CHL1  H23B 3535   3.950   2.189   5.436 -0.6126 -0.0758 -1.3913
   32CHL1   C24 3536   3.969   2.384   5.312  0.6369  0.1012  0.0169
   32CHL1  H24A 3537   3.869   2.413   5.352  0.2953 -1.0460  0.0344
   32CHL1  H24B 3538   4.045   2.463   5.328  0.2664  0.3803  0.4016
   32CHL1   C25 3539   3.949   2.351   5.161 -0.3136  0.6248 -0.8833
   32CHL1   H25 3540   3.884   2.260   5.162  2.2811 -1.3206 -0.4052
   32CHL1   C26 3541   3.864   2.459   5.101 -0.1960 -0.4961  0.0250
   32CHL1  H26A 3542   3.769   2.474   5.157  0.7011  0.1096  1.4555
   32CHL1  H26B 3543   3.920   2.555   5.097  0.1041 -0.6163  0.9548
   32CHL1  H26C 3544   3.844   2.430   4.996 -0.3673  1.2915 -0.4601
   32CHL1   C27 3545   4.078   2.318   5.084  0.1852 -0.4631  0.7337
   32CHL1  H27A 3546   4.057   2.301   4.976  0.7587  1.4561  0.2713
   32CHL1  H27B 3547   4.154   2.398   5.097  0.6963 -1.0416  1.3917
   32CHL1  H27C 3548   4.117   2.221   5.122  1.4819 -0.7670 -1.1955
   33CHL1    C3 3549   1.665   3.274   6.552  0.1474  0.4868  0.1675
   33CHL1    H3 3550   1.588   3.352   6.534 -1.3898 -0.4896  2.0693
   33CHL1    O3 3551   1.699   3.290   6.694  0.4236 -0.1676  0.1008
   33CHL1   H3' 3552   1.726   3.380   6.710 -0.8435  0.2196  0.1292
   33CHL1    C4 3553   1.608   3.129   6.530  0.1803 -0.1820  0.2763
   33CHL1   H4A 3554   1.668   3.046   6.574 -1.1852 -0.7648  1.1244
   33CHL1   H4B 3555   1.510   3.137   6.582 -0.0230 -3.9637  0.7869
   33CHL1    C5 3556   1.586   3.105   6.378 -0.2596  0.4253 -0.5360
   33CHL1    C6 3557   1.464   3.073   6.329 -0.2658 -0.4643 -0.2696
   33CHL1    H6 3558   1.382   3.057   6.400  0.5226  1.5280  1.1726
   33CHL1    C7 3559   1.445   3.054   6.185  0.2663  0.4052 -0.1066
   33CHL1   H7A 3560   1.382   2.964   6.167  1.1192  0.3177 -3.3236
   33CHL1   H7B 3561   1.391   3.147   6.154  4.2280  2.3571 -1.9421
   33CHL1    C8 3562   1.576   3.034   6.104  0.5940  0.3632  0.3622
   33CHL1    H8 3563   1.607   2.929   6.124 -2.0873 -0.3222  1.2889
   33CHL1   C14 3564   1.539   3.052   5.955 -0.1020 -0.3590  0.6231
   33CHL1   H14 3565   1.509   3.159   5.948  0.9629  0.0091  1.3377
   33CHL1   C15 3566   1.424   2.974   5.889 -0.4968  0.3660 -0.2937
   33CHL1  H15A 3567   1.417   2.867   5.916 -0.8017  0.6670  0.8928
   33CHL1  H15B 3568   1.325   3.022   5.906 -0.7080  0.1275 -0.8099
   33CHL1   C16 3569   1.449   2.991   5.735 -0.3965  0.3778  0.3177
   33CHL1  H16A 3570   1.450   2.893   5.683 -1.3321  1.0309 -0.9878
   33CHL1  H16B 3571   1.382   3.060   5.679  2.7881  0.6529 -3.5925
   33CHL1   C17 3572   1.596   3.057   5.723 -0.9009 -1.5985  0.1336
   33CHL1   H17 3573   1.591   3.166   5.701  0.2489 -1.6679 -0.5314
   33CHL1   C13 3574   1.660   3.030   5.857  0.4838  0.0154 -0.4205
   33CHL1   C18 3575   1.701   2.877   5.858 -0.0195  0.4850 -0.8685
   33CHL1  H18A 3576   1.615   2.813   5.829  0.8996 -0.7792 -0.8843
   33CHL1  H18B 3577   1.789   2.862   5.791  3.1246  0.2290  2.9366
   33CHL1  H18C 3578   1.742   2.845   5.956 -2.1645 -0.0804 -0.1185
   33CHL1   C12 3579   1.788   3.109   5.897  0.6027  0.0999  0.2578
   33CHL1  H12A 3580   1.880   3.088   5.839 -0.2882 -3.1006 -0.2151
   33CHL1  H12B 3581   1.753   3.210   5.867  1.7660 -0.2015 -2.3782
   33CHL1   C11 3582   1.809   3.103   6.052 -0.5690  0.6699 -0.7318
   33CHL1  H11A 3583   1.847   3.001   6.073 -1.2595 -0.3486 -3.9607
   33CHL1  H11B 3584   1.883   3.184   6.069 -0.2753  0.1741  0.5078
   33CHL1    C9 3585   1.680   3.137   6.137 -0.5622 -0.0359  0.8898
   33CHL1    H9 3586   1.650   3.238   6.102  1.5479  0.8421  1.4424
   33CHL1   C10 3587   1.704   3.138   6.292 -0.1073 -0.0203 -0.2423
   33CHL1   C19 3588   1.807   3.028   6.337 -0.2928 -1.2531 -0.0009
   33CHL1  H19A 3589   1.839   3.033   6.443  2.9236 -0.9015 -0.8852
   33CHL1  H19B 3590   1.770   2.929   6.304 -1.8409 -0.8099  0.3353
   33CHL1  H19C 3591   1.907   3.045   6.292  0.7554  0.7655  2.7960
   33CHL1    C1 3592   1.763   3.279   6.322 -0.4790 -0.7382  0.0882
   33CHL1   H1A 3593   1.859   3.277   6.268 -1.7938  0.8700 -2.4875
   33CHL1   H1B 3594   1.703   3.360   6.276  1.3759  0.3418 -0.5266
   33CHL1    C2 3595   1.793   3.301   6.473  0.7496  0.1296 -0.1002
   33CHL1   H2A 3596   1.806   3.409   6.492 -1.7221  0.8225 -1.8461
   33CHL1   H2B 3597   1.884   3.242   6.497 -2.4574 -4.7586  1.7280
   33CHL1   C20 3598   1.673   3.012   5.592  0.8390 -0.0975  0.4368
   33CHL1   H20 3599   1.677   2.901   5.598  2.6873  0.0190  3.4193
   33CHL1   C21 3600   1.813   3.091   5.585 -0.3913  0.4657 -0.0227
   33CHL1  H21A 3601   1.798   3.196   5.616  0.9947  1.0951 -1.3237
   33CHL1  H21B 3602   1.861   3.090   5.484 -0.5857  0.6275 -0.1159
   33CHL1  H21C 3603   1.885   3.044   5.655 -0.2251  1.1815  0.2925
   33CHL1   C22 3604   1.594   3.035   5.462  0.0139  0.0421 -0.2143
   33CHL1  H22A 3605   1.485   3.018   5.473  0.2548 -0.5449  1.3605
   33CHL1  H22B 3606   1.604   3.141   5.429  2.0587  0.1445  0.6238
   33CHL1   C23 3607   1.638   2.946   5.341 -0.1706  0.2236  0.3761
   33CHL1  H23A 3608   1.746   2.948   5.315 -0.1626  0.0562  0.3946
   33CHL1  H23B 3609   1.637   2.839   5.373 -0.4570 -0.1475 -0.8024
   33CHL1   C24 3610   1.542   2.961   5.215  0.4048 -0.3810  0.8320
   33CHL1  H24A 3611   1.434   2.964   5.243  0.0703 -0.7682 -0.3704
   33CHL1  H24B 3612   1.578   3.042   5.148 -1.7870  1.0885  1.3365
   33CHL1   C25 3613   1.569   2.834   5.125  0.6068 -0.7330 -0.1888
   33CHL1   H25 3614   1.547   2.747   5.190  1.0925 -1.3313 -0.8128
   33CHL1   C26 3615   1.474   2.828   5.005 -0.0319  0.3290  0.1251
   33CHL1  H26A 3616   1.503   2.899   4.925 -0.9073 -2.1063 -2.5163
   33CHL1  H26B 3617   1.477   2.721   4.976 -0.7304  0.3417 -0.0142
   33CHL1  H26C 3618   1.371   2.846   5.044  0.2671  0.0217  1.0619
   33CHL1   C27 3619   1.714   2.823   5.074  0.4026  0.8697 -0.6190
   33CHL1  H27A 3620   1.782   2.812   5.160 -0.8677 -0.8902  0.2239
   33CHL1  H27B 3621   1.710   2.742   4.998 -2.0302  1.3935 -1.1599
   33CHL1  H27C 3622   1.754   2.907   5.013  2.5654  0.4518  0.1377
   34CHL1    C3 3623   3.026   5.144   7.021 -1.2124 -0.4569 -0.1586
   34CHL1    H3 3624   3.080   5.234   6.983 -1.0201 -0.0832  0.9637
   34CHL1    O3 3625   3.042   5.147   7.158 -0.3080 -0.0689 -0.4122
   34CHL1   H3' 3626   2.998   5.065   7.179  3.5908 -2.0678  0.9415
   34CHL1    C4 3627   2.890   5.145   6.970  0.7790 -0.5750 -0.2856
   34CHL1   H4A 3628   2.826   5.064   7.011 -1.8413  0.1235 -2.6120
   34CHL1   H4B 3629   2.840   5.236   7.009  1.0541 -0.4087 -0.3179
   34CHL1    C5 3630   2.873   5.141   6.820 -0.3725  0.4537 -0.5227
   34CHL1    C6 3631   2.809   5.231   6.750  1.1978  0.3859  0.0626
   34CHL1    H6 3632   2.766   5.319   6.801 -0.8079 -0.1196 -0.6369
   34CHL1    C7 3633   2.789   5.223   6.602 -0.7656  0.1300 -0.0753
   34CHL1   H7A 3634   2.684   5.236   6.569 -0.3460  3.6566 -0.3661
   34CHL1   H7B 3635   2.843   5.315   6.572 -3.0683  1.7857  0.5635
   34CHL1    C8 3636   2.840   5.089   6.536 -0.0098 -0.4792 -0.2077
   34CHL1    H8 3637   2.758   5.016   6.555 -0.9110  0.5386 -0.0934
   34CHL1   C14 3638   2.854   5.117   6.391 -0.2016 -0.5276 -0.1973
   34CHL1   H14 3639   2.941   5.185   6.392  0.3861 -1.1559  3.0125
   34CHL1   C15 3640   2.750   5.188   6.303 -0.4664  0.3611  0.1596
   34CHL1  H15A 3641   2.654   5.131   6.299 -1.0531  1.4045 -2.6192
   34CHL1  H15B 3642   2.735   5.290   6.344  3.9694  0.4584  2.0451
   34CHL1   C16 3643   2.810   5.175   6.169  0.6514 -0.6507 -0.1808
   34CHL1  H16A 3644   2.725   5.143   6.105  1.7124  0.5415 -2.2669
   34CHL1  H16B 3645   2.850   5.272   6.132  0.5811 -0.8158 -0.6862
   34CHL1   C17 3646   2.912   5.057   6.171  0.3424 -0.0295  0.0548
   34CHL1   H17 3647   3.011   5.109   6.165  1.4089 -2.0373 -0.6092
   34CHL1   C13 3648   2.897   4.994   6.309  1.1792 -0.6570 -0.2559
   34CHL1   C18 3649   2.787   4.888   6.312  0.0094 -0.0712 -0.5482
   34CHL1  H18A 3650   2.687   4.930   6.289 -0.2043 -0.0549  0.3678
   34CHL1  H18B 3651   2.813   4.797   6.253  0.5350 -0.3916  0.1620
   34CHL1  H18C 3652   2.763   4.855   6.416 -3.1730 -0.5020 -1.3155
   34CHL1   C12 3653   3.027   4.949   6.367  0.0396 -0.3124  0.0299
   34CHL1  H12A 3654   3.058   4.859   6.310  0.2409  0.4369 -1.0768
   34CHL1  H12B 3655   3.116   5.015   6.352 -1.6379  2.2044  0.4829
   34CHL1   C11 3656   3.017   4.922   6.516 -0.4748  0.2328 -0.2332
   34CHL1  H11A 3657   2.958   4.828   6.521  3.0260 -2.1501  0.0749
   34CHL1  H11B 3658   3.114   4.896   6.563  0.5118  1.2925 -1.5827
   34CHL1    C9 3659   2.970   5.042   6.597 -0.0872 -0.5736 -0.5512
   34CHL1    H9 3660   3.043   5.124   6.580  1.9217 -2.2114 -0.1886
   34CHL1   C10 3661   2.951   5.024   6.751 -0.2501 -0.8013  0.4485
   34CHL1   C19 3662   2.888   4.888   6.786  0.7256 -0.0767  0.3658
   34CHL1  H19A 3663   2.937   4.800   6.740  0.2000 -0.0426 -0.2766
   34CHL1  H19B 3664   2.888   4.874   6.896  0.0717  0.0448  0.3851
   34CHL1  H19C 3665   2.786   4.886   6.742  0.1225 -1.8290  1.7402
   34CHL1    C1 3666   3.102   5.018   6.805  0.3632 -0.3684 -0.9694
   34CHL1   H1A 3667   3.158   4.926   6.778 -1.0279 -1.6874  0.5027
   34CHL1   H1B 3668   3.164   5.100   6.762  1.7402 -1.2570 -0.7468
   34CHL1    C2 3669   3.105   5.024   6.959 -0.4806  0.1601 -0.3586
   34CHL1   H2A 3670   3.212   5.035   6.985 -0.2140  1.1087 -1.7444
   34CHL1   H2B 3671   3.061   4.929   6.997 -0.8806 -0.1563 -1.5576
   34CHL1   C20 3672   2.895   4.964   6.049 -0.2141  0.1177 -1.0818
   34CHL1   H20 3673   2.801   4.907   6.065  0.2710 -1.0844 -2.3022
   34CHL1   C21 3674   3.016   4.867   6.045 -0.2303 -0.6605  0.1832
   34CHL1  H21A 3675   3.002   4.775   6.105 -1.5436 -1.4561 -1.2868
   34CHL1  H21B 3676   3.111   4.913   6.081 -0.4639 -1.1878  1.4968
   34CHL1  H21C 3677   3.035   4.833   5.941 -2.0391  0.5044 -0.5670
   34CHL1   C22 3678   2.882   5.048   5.918  0.3179  0.3567  0.9655
   34CHL1  H22A 3679   2.810   5.133   5.917  0.8796  0.8852 -1.4929
   34CHL1  H22B 3680   2.979   5.095   5.891  0.1963 -0.2115 -0.5613
   34CHL1   C23 3681   2.835   4.957   5.802 -0.1647 -0.3548  0.9693
   34CHL1  H23A 3682   2.902   4.872   5.777  0.1941  1.0989 -4.0542
   34CHL1  H23B 3683   2.738   4.912   5.830 -1.0150 -0.3053 -1.6229
   34CHL1   C24 3684   2.801   5.033   5.677  0.0301 -0.2289 -0.2502
   34CHL1  H24A 3685   2.729   5.116   5.692 -2.5612 -2.6389  1.6545
   34CHL1  H24B 3686   2.889   5.088   5.638  0.1013  0.2765  0.5789
   34CHL1   C25 3687   2.761   4.940   5.562  0.7565  0.1558 -0.6760
   34CHL1   H25 3688   2.675   4.880   5.599  1.7066 -1.6961 -1.3494
   34CHL1   C26 3689   2.690   5.012   5.451 -0.0361 -0.7840 -0.4092
   34CHL1  H26A 3690   2.616   5.079   5.500  0.1234 -1.6424  1.0735
   34CHL1  H26B 3691   2.768   5.061   5.389  0.1933  0.4060  0.7817
   34CHL1  H26C 3692   2.630   4.936   5.396  0.6588 -0.7642 -1.2199
   34CHL1   C27 3693   2.875   4.864   5.509 -0.0335 -0.0183  0.2581
   34CHL1  H27A 3694   2.908   4.891   5.406  1.9260  0.8673  1.0591
   34CHL1  H27B 3695   2.965   4.875   5.573  0.6524 -0.8639 -0.5335
   34CHL1  H27C 3696   2.867   4.754   5.506  1.3478 -0.1196 -1.1560
   35CHL1    C3 3697   5.852   5.390   6.660  0.0227  0.0409 -0.6056
   35CHL1    H3 3698   5.931   5.323   6.619 -0.6002 -2.8196  2.4733
   35CHL1    O3 3699   5.862   5.381   6.799  0.4831 -0.1439  0.2540
   35CHL1   H3' 3700   5.893   5.467   6.829 -0.8069  0.2129  0.6612
   35CHL1    C4 3701   5.876   5.536   6.634  0.0084 -1.2528 -0.2943
   35CHL1   H4A 3702   5.788   5.587   6.678  1.1522  1.1812 -0.6820
   35CHL1   H4B 3703   5.963   5.589   6.679  0.2842 -0.4303 -1.7372
   35CHL1    C5 3704   5.868   5.550   6.483  0.2030  0.1204 -0.2948
   35CHL1    C6 3705   5.978   5.590   6.419 -0.3461  0.0303 -0.2559
   35CHL1    H6 3706   6.068   5.616   6.478 -1.4022 -1.1204  1.9811
   35CHL1    C7 3707   5.994   5.592   6.271  0.1285 -0.8169 -0.6546
   35CHL1   H7A 3708   6.050   5.681   6.234 -0.1515 -0.3953 -0.0829
   35CHL1   H7B 3709   6.066   5.512   6.247  1.4163  0.0692  0.1573
   35CHL1    C8 3710   5.866   5.577   6.184 -0.3741 -0.0232 -0.1853
   35CHL1    H8 3711   5.805   5.669   6.175 -3.4997 -2.1436 -5.0493
   35CHL1   C14 3712   5.898   5.538   6.037 -1.3271  0.1771 -0.6401
   35CHL1   H14 3713   5.946   5.440   6.060 -0.5482  0.6487 -0.2040
   35CHL1   C15 3714   6.006   5.613   5.962 -0.1791  0.2647  0.4963
   35CHL1  H15A 3715   5.985   5.721   5.968  1.2222  0.6177 -0.4217
   35CHL1  H15B 3716   6.101   5.590   6.015  0.5052  0.2239 -0.7086
   35CHL1   C16 3717   5.980   5.563   5.815  0.4816  0.1671 -0.9073
   35CHL1  H16A 3718   5.954   5.651   5.753 -0.0674 -0.8670 -2.1970
   35CHL1  H16B 3719   6.060   5.506   5.763  0.0808 -1.8760  0.5778
   35CHL1   C17 3720   5.860   5.464   5.822  0.4818  0.3519  0.4348
   35CHL1   H17 3721   5.904   5.370   5.859 -0.2087  0.1696  0.8058
   35CHL1   C13 3722   5.779   5.517   5.946 -0.1234 -0.2500 -0.5751
   35CHL1   C18 3723   5.708   5.646   5.904  0.1029  0.4601  0.6493
   35CHL1  H18A 3724   5.622   5.636   5.834 -0.0913  0.9409  0.8146
   35CHL1  H18B 3725   5.676   5.685   6.003  0.4333 -2.0683  1.8324
   35CHL1  H18C 3726   5.784   5.710   5.855  1.1285 -0.3435  1.1664
   35CHL1   C12 3727   5.681   5.417   6.013  0.0022 -1.0715  0.2300
   35CHL1  H12A 3728   5.583   5.420   5.960  0.0775  0.8482  0.1233
   35CHL1  H12B 3729   5.722   5.314   6.017  0.6929 -0.9094 -1.6104
   35CHL1   C11 3730   5.642   5.451   6.157 -0.5993 -1.0211 -0.7976
   35CHL1  H11A 3731   5.588   5.548   6.149  0.0523 -0.6817 -1.2270
   35CHL1  H11B 3732   5.592   5.363   6.203  2.3401 -1.4441  1.9530
   35CHL1    C9 3733   5.773   5.476   6.246  0.2687  0.1526 -0.3311
   35CHL1    H9 3734   5.835   5.384   6.247  0.8008  0.5103  0.5800
   35CHL1   C10 3735   5.744   5.495   6.400 -0.4240  0.9241  0.3613
   35CHL1   C19 3736   5.624   5.600   6.417 -0.5288  0.5995  0.1709
   35CHL1  H19A 3737   5.596   5.629   6.521  0.2132  1.8792  0.0342
   35CHL1  H19B 3738   5.647   5.689   6.355 -0.9983 -0.1710 -1.1414
   35CHL1  H19C 3739   5.531   5.548   6.386  0.0995 -0.3839 -0.1244
   35CHL1    C1 3740   5.708   5.354   6.458 -0.1637 -0.0441 -0.1189
   35CHL1   H1A 3741   5.606   5.325   6.425  0.1209 -1.2757  0.0484
   35CHL1   H1B 3742   5.779   5.282   6.412 -0.9015 -1.6825  1.1754
   35CHL1    C2 3743   5.716   5.342   6.610  0.0509 -0.5762  0.2057
   35CHL1   H2A 3744   5.704   5.241   6.653  0.8428 -0.0028  1.8505
   35CHL1   H2B 3745   5.628   5.397   6.650  1.4519  2.0269 -0.0510
   35CHL1   C20 3746   5.785   5.437   5.683 -0.2297 -0.5818 -0.4142
   35CHL1   H20 3747   5.709   5.517   5.667  0.7912  0.0562 -2.3557
   35CHL1   C21 3748   5.703   5.306   5.699 -0.2992  0.0597  0.5211
   35CHL1  H21A 3749   5.634   5.285   5.614 -0.8441 -0.0683  0.9899
   35CHL1  H21B 3750   5.634   5.309   5.786 -0.5875 -1.2125  0.3514
   35CHL1  H21C 3751   5.767   5.217   5.711 -0.1419  0.1284  0.2017
   35CHL1   C22 3752   5.892   5.434   5.567  0.8234  0.5920 -0.5726
   35CHL1  H22A 3753   5.941   5.533   5.556  1.3401  0.4228  0.1110
   35CHL1  H22B 3754   5.962   5.349   5.587 -0.3007 -0.2326 -0.0540
   35CHL1   C23 3755   5.823   5.415   5.427 -0.5790 -0.2925 -0.5840
   35CHL1  H23A 3756   5.743   5.338   5.428 -1.9109  1.0418 -0.0181
   35CHL1  H23B 3757   5.774   5.513   5.407 -0.8962 -0.1570  0.7170
   35CHL1   C24 3758   5.912   5.414   5.303 -0.1282  0.2032  0.4423
   35CHL1  H24A 3759   5.987   5.496   5.306  0.3182 -0.2192  1.4168
   35CHL1  H24B 3760   5.979   5.327   5.320  0.5852  0.5796 -0.3761
   35CHL1   C25 3761   5.851   5.398   5.165 -0.5162  0.0714  0.4427
   35CHL1   H25 3762   5.782   5.482   5.144 -0.6861 -0.4993 -1.4780
   35CHL1   C26 3763   5.956   5.403   5.049  0.1635  0.6236 -0.0441
   35CHL1  H26A 3764   6.038   5.474   5.072 -0.2529  1.1269 -0.0938
   35CHL1  H26B 3765   5.997   5.304   5.020 -1.2979  0.0288 -0.1551
   35CHL1  H26C 3766   5.908   5.449   4.960 -2.0492 -1.5907 -0.0970
   35CHL1   C27 3767   5.779   5.263   5.150  0.2982  0.2949 -0.3844
   35CHL1  H27A 3768   5.733   5.249   5.050  2.0824 -0.3919 -1.1640
   35CHL1  H27B 3769   5.851   5.178   5.150  0.2368  0.2444  0.1424
   35CHL1  H27C 3770   5.703   5.250   5.229  1.1138  0.0041  0.3752
   36CHL1    C3 3771   0.389   4.038   6.575 -0.4185 -0.9781  0.8200
   36CHL1    H3 3772   0.283   4.007   6.574 -0.4860 -0.8037  1.7917
   36CHL1    O3 3773   0.428   4.042   6.708  0.1310  0.1761 -0.6836
   36CHL1   H3' 3774   0.364   3.987   6.756  0.5570  0.6081  0.4142
   36CHL1    C4 3775   0.464   3.939   6.498 -0.9797  0.2638  0.1471
   36CHL1   H4A 3776   0.571   3.962   6.514 -0.8861 -0.9151  1.4248
   36CHL1   H4B 3777   0.461   3.840   6.548 -2.2257  0.9018  1.3973
   36CHL1    C5 3778   0.446   3.943   6.347  0.6356 -0.1140  0.2514
   36CHL1    C6 3779   0.413   3.829   6.281 -0.6036 -0.2112 -0.6436
   36CHL1    H6 3780   0.407   3.738   6.343  2.9639 -0.0793  0.1025
   36CHL1    C7 3781   0.398   3.821   6.132 -0.5710  0.1093 -0.3278
   36CHL1   H7A 3782   0.461   3.735   6.101  0.4517  0.6949  0.0658
   36CHL1   H7B 3783   0.292   3.793   6.111 -0.5713 -1.3461  1.4178
   36CHL1    C8 3784   0.427   3.948   6.051 -0.1495 -0.5573  0.9223
   36CHL1    H8 3785   0.536   3.965   6.036 -0.7078  1.6066 -1.2741
   36CHL1   C14 3786   0.347   3.964   5.927 -0.0756  0.6384  0.9752
   36CHL1   H14 3787   0.242   3.991   5.950 -1.0488 -1.3105 -0.8734
   36CHL1   C15 3788   0.327   3.844   5.829 -0.6763  0.3003 -0.1105
   36CHL1  H15A 3789   0.422   3.786   5.826 -0.2469  0.9629  0.4323
   36CHL1  H15B 3790   0.256   3.774   5.878  1.3487 -1.8520 -0.1018
   36CHL1   C16 3791   0.283   3.910   5.691 -0.3777  0.0058 -0.2210
   36CHL1  H16A 3792   0.343   3.882   5.602 -0.8282 -1.6861 -0.0220
   36CHL1  H16B 3793   0.175   3.894   5.674 -0.6854  0.8407  0.8334
   36CHL1   C17 3794   0.282   4.064   5.722  0.0651 -0.1759 -0.3687
   36CHL1   H17 3795   0.181   4.091   5.759  0.7072 -1.0939  2.2312
   36CHL1   C13 3796   0.381   4.079   5.842  0.3524  0.6781  0.0862
   36CHL1   C18 3797   0.530   4.068   5.789 -0.4239  0.4419 -0.0598
   36CHL1  H18A 3798   0.542   3.964   5.752 -0.6630  0.5448 -0.4306
   36CHL1  H18B 3799   0.546   4.147   5.712 -3.1082  2.6880  1.5023
   36CHL1  H18C 3800   0.610   4.081   5.865  0.0296  1.9416 -0.7618
   36CHL1   C12 3801   0.362   4.209   5.914 -0.0304 -0.4606 -0.6818
   36CHL1  H12A 3802   0.409   4.295   5.861 -2.4825  2.9400  2.2051
   36CHL1  H12B 3803   0.253   4.225   5.902 -0.4792 -4.0595 -2.9814
   36CHL1   C11 3804   0.415   4.213   6.059 -0.3828  0.1701 -1.3278
   36CHL1  H11A 3805   0.524   4.230   6.055  0.0837 -1.7869  0.8459
   36CHL1  H11B 3806   0.385   4.304   6.114  2.9581  1.2385 -1.0773
   36CHL1    C9 3807   0.390   4.074   6.137  0.8615 -0.9624 -0.5565
   36CHL1    H9 3808   0.279   4.066   6.139  0.6778  0.8055 -1.6070
   36CHL1   C10 3809   0.448   4.078   6.287  0.2822  0.6073  0.3210
   36CHL1   C19 3810   0.597   4.117   6.277  0.0232 -0.4622 -0.5601
   36CHL1  H19A 3811   0.603   4.225   6.252 -0.0908  0.1011  1.6365
   36CHL1  H19B 3812   0.652   4.118   6.374 -3.1402 -1.6019  1.3928
   36CHL1  H19C 3813   0.644   4.050   6.202 -0.4733 -0.6569 -0.7019
   36CHL1    C1 3814   0.358   4.173   6.369  0.0756 -0.0807  0.0881
   36CHL1   H1A 3815   0.367   4.278   6.336  1.6884 -0.2894 -0.1965
   36CHL1   H1B 3816   0.250   4.148   6.364 -0.5976  2.5681 -0.0959
   36CHL1    C2 3817   0.404   4.177   6.517  0.3890 -0.0583  0.0701
   36CHL1   H2A 3818   0.334   4.249   6.565  0.2498  1.2712 -2.0123
   36CHL1   H2B 3819   0.507   4.218   6.522  1.3710 -1.8021 -2.9524
   36CHL1   C20 3820   0.308   4.140   5.590 -0.1444  0.0153  0.5682
   36CHL1   H20 3821   0.396   4.087   5.547 -1.6452 -2.9908  0.8873
   36CHL1   C21 3822   0.319   4.294   5.602  0.0151 -0.2466  0.8837
   36CHL1  H21A 3823   0.271   4.338   5.512  1.8205  1.2744  0.6043
   36CHL1  H21B 3824   0.422   4.334   5.601  0.7376 -2.0131  1.0335
   36CHL1  H21C 3825   0.254   4.337   5.682  0.5623  0.4374  0.9635
   36CHL1   C22 3826   0.189   4.111   5.493  0.3335  0.0699  0.7724
   36CHL1  H22A 3827   0.152   4.007   5.506  2.4066 -0.8845 -0.6233
   36CHL1  H22B 3828   0.107   4.179   5.526 -0.1232 -0.3899  0.5998
   36CHL1   C23 3829   0.235   4.137   5.348 -0.2488  0.0883 -0.3646
   36CHL1  H23A 3830   0.272   4.240   5.330 -2.7778  1.2364  0.5389
   36CHL1  H23B 3831   0.313   4.058   5.338 -0.9120 -1.0649  2.4203
   36CHL1   C24 3832   0.126   4.111   5.242  0.0104 -0.0067 -0.0490
   36CHL1  H24A 3833   0.096   4.008   5.216 -1.0406  0.7941 -2.2596
   36CHL1  H24B 3834   0.030   4.154   5.280 -1.3781 -3.1144  0.2739
   36CHL1   C25 3835   0.143   4.180   5.109 -0.6931  0.1183 -0.0636
   36CHL1   H25 3836   0.240   4.144   5.069 -0.2214  0.6042  0.6280
   36CHL1   C26 3837   0.038   4.128   5.015  0.4215 -0.0899  0.6069
   36CHL1  H26A 3838  -0.061   4.157   5.054  0.0582 -0.4026 -0.0574
   36CHL1  H26B 3839   0.048   4.166   4.911  0.4851 -1.4623  0.0906
   36CHL1  H26C 3840   0.044   4.017   5.017 -0.9602 -0.2595 -1.4247
   36CHL1   C27 3841   0.155   4.335   5.118  0.0729  1.0414 -0.0103
   36CHL1  H27A 3842   0.166   4.380   5.017 -0.4655 -0.0938 -0.5909
   36CHL1  H27B 3843   0.072   4.387   5.172  1.3108  1.2004  1.8442
   36CHL1  H27C 3844   0.254   4.369   5.157  0.4204 -1.7065  1.7967
   37CHL1    C3 3845   3.401   6.454   6.562 -0.0373 -0.2209 -0.6967
   37CHL1    H3 3846   3.469   6.541   6.563 -1.1587  0.6862  0.1318
   37CHL1    O3 3847   3.369   6.433   6.700  0.0175  0.3789  0.3119
   37CHL1   H3' 3848   3.279   6.400   6.698 -0.0090  0.3548  1.3578
   37CHL1    C4 3849   3.277   6.475   6.471 -0.6614  0.3386 -0.2409
   37CHL1   H4A 3850   3.209   6.388   6.484  0.7074 -0.9794 -1.4523
   37CHL1   H4B 3851   3.216   6.562   6.502  0.5075  1.0189  0.2329
   37CHL1    C5 3852   3.315   6.485   6.328  0.1064 -0.3506  0.3157
   37CHL1    C6 3853   3.270   6.588   6.252  0.6374 -0.6125 -0.5129
   37CHL1    H6 3854   3.204   6.664   6.296  1.4010  0.3506 -0.9893
   37CHL1    C7 3855   3.294   6.594   6.111 -0.4888  0.4390 -0.3224
   37CHL1   H7A 3856   3.204   6.619   6.050 -1.1258  0.2884  0.5486
   37CHL1   H7B 3857   3.372   6.669   6.084  0.2690  1.0403  3.0793
   37CHL1    C8 3858   3.345   6.465   6.046  0.5522 -0.0025 -0.0985
   37CHL1    H8 3859   3.262   6.393   6.028 -0.4115  0.7631  1.1454
   37CHL1   C14 3860   3.405   6.483   5.907 -0.1410 -0.5706  0.1912
   37CHL1   H14 3861   3.488   6.552   5.936 -2.0561  1.4026  1.3172
   37CHL1   C15 3862   3.316   6.572   5.817  0.1333 -0.1139  0.2209
   37CHL1  H15A 3863   3.210   6.541   5.819  0.8461 -2.8209  2.9080
   37CHL1  H15B 3864   3.319   6.679   5.847  2.2477 -0.0796  0.0393
   37CHL1   C16 3865   3.384   6.545   5.678 -0.4791 -0.1428  0.5769
   37CHL1  H16A 3866   3.303   6.505   5.614 -0.2132  1.0324 -0.5172
   37CHL1  H16B 3867   3.431   6.633   5.631  0.0780 -1.4014 -1.3354
   37CHL1   C17 3868   3.490   6.433   5.696 -0.3228  0.8375 -0.0691
   37CHL1   H17 3869   3.590   6.473   5.724  0.1224 -0.7339  0.7117
   37CHL1   C13 3870   3.456   6.360   5.830  0.6033 -0.6525  0.4924
   37CHL1   C18 3871   3.339   6.265   5.807  0.0689  0.2612 -0.3231
   37CHL1  H18A 3872   3.249   6.318   5.769 -1.7206 -0.6628  2.3010
   37CHL1  H18B 3873   3.355   6.175   5.744  0.0255 -0.1608  0.2562
   37CHL1  H18C 3874   3.320   6.225   5.909  0.4440  1.6694  0.3173
   37CHL1   C12 3875   3.567   6.305   5.921 -0.2787  0.0135  0.5082
   37CHL1  H12A 3876   3.607   6.221   5.860 -0.7769  0.5900 -0.6368
   37CHL1  H12B 3877   3.645   6.384   5.925 -0.4196  0.2662 -1.0093
   37CHL1   C11 3878   3.517   6.268   6.059 -0.8252  0.1766 -0.2546
   37CHL1  H11A 3879   3.453   6.177   6.066  0.8013 -1.0535 -0.4888
   37CHL1  H11B 3880   3.612   6.245   6.114 -0.2146  0.3975 -1.1928
   37CHL1    C9 3881   3.452   6.391   6.130 -0.0408 -1.2753  0.3662
   37CHL1    H9 3882   3.532   6.466   6.149 -1.7289  0.2842  1.7593
   37CHL1   C10 3883   3.410   6.371   6.281  0.3420  0.9728 -0.1513
   37CHL1   C19 3884   3.330   6.237   6.287  0.0244 -0.2309  0.2756
   37CHL1  H19A 3885   3.256   6.236   6.204 -0.0920  1.4596  0.3067
   37CHL1  H19B 3886   3.396   6.150   6.267 -0.0816  0.1834 -2.2980
   37CHL1  H19C 3887   3.276   6.222   6.383 -1.2093  2.8013  0.1930
   37CHL1    C1 3888   3.526   6.360   6.379 -0.5026 -0.6628  0.1042
   37CHL1   H1A 3889   3.585   6.273   6.343  0.3686 -0.7515  1.6694
   37CHL1   H1B 3890   3.596   6.446   6.371 -2.2862  0.8163 -0.1093
   37CHL1    C2 3891   3.493   6.339   6.526 -0.3082  0.0343  0.3564
   37CHL1   H2A 3892   3.586   6.331   6.586  0.2462 -1.2824 -0.6280
   37CHL1   H2B 3893   3.433   6.245   6.536 -0.2179 -0.2056 -1.2325
   37CHL1   C20 3894   3.494   6.346   5.565  0.2555  0.6929 -0.6474
   37CHL1   H20 3895   3.396   6.300   5.540  0.4599  0.5843 -1.2665
   37CHL1   C21 3896   3.584   6.231   5.580 -0.0355 -0.0820 -0.3557
   37CHL1  H21A 3897   3.541   6.170   5.661  1.2640 -0.1038  0.3403
   37CHL1  H21B 3898   3.687   6.252   5.615  0.7147 -3.8240  0.0396
   37CHL1  H21C 3899   3.603   6.159   5.497  1.3332 -1.3698  1.0130
   37CHL1   C22 3900   3.541   6.425   5.445 -0.1533 -0.6433  0.3166
   37CHL1  H22A 3901   3.526   6.535   5.440 -0.0255 -0.6222  0.3728
   37CHL1  H22B 3902   3.652   6.418   5.455 -0.2729 -0.8693  1.6364
   37CHL1   C23 3903   3.516   6.370   5.301  0.4426  0.5161  0.4244
   37CHL1  H23A 3904   3.534   6.262   5.285  0.1637 -0.2919  4.5033
   37CHL1  H23B 3905   3.409   6.381   5.274  0.7781 -0.3036 -1.3940
   37CHL1   C24 3906   3.607   6.446   5.198 -0.0928 -0.2375 -0.4760
   37CHL1  H24A 3907   3.713   6.435   5.230  0.1785 -0.8034 -1.5326
   37CHL1  H24B 3908   3.590   6.395   5.101  1.9806 -1.9212 -0.0191
   37CHL1   C25 3909   3.586   6.594   5.157 -1.2048 -0.1688 -0.2922
   37CHL1   H25 3910   3.621   6.649   5.247  0.2204 -0.3439 -0.7235
   37CHL1   C26 3911   3.671   6.639   5.041  0.5168  0.7908 -0.7050
   37CHL1  H26A 3912   3.778   6.616   5.058 -0.2790 -1.9171  1.2399
   37CHL1  H26B 3913   3.638   6.586   4.949 -2.0513  1.1199 -0.0457
   37CHL1  H26C 3914   3.666   6.750   5.033  1.0920  0.7421 -1.9300
   37CHL1   C27 3915   3.445   6.639   5.130 -0.5566  0.7090 -0.1744
   37CHL1  H27A 3916   3.456   6.745   5.098  0.8747  0.4360 -0.6614
   37CHL1  H27B 3917   3.399   6.581   5.048 -0.8341  1.7455 -0.7699
   37CHL1  H27C 3918   3.376   6.637   5.217  1.3687 -0.5633  1.4299
   38CHL1    C3 3919   3.109   1.674   6.789 -0.2809 -0.1811 -0.1306
   38CHL1    H3 3920   3.213   1.658   6.752 -1.7277 -1.6172 -4.0906
   38CHL1    O3 3921   3.091   1.670   6.930 -0.3607 -0.1275  0.0576
   38CHL1   H3' 3922   3.119   1.581   6.954 -0.6499 -0.2789 -0.1662
   38CHL1    C4 3923   3.051   1.808   6.734 -0.3750  0.2052 -0.1867
   38CHL1   H4A 3924   2.957   1.815   6.792 -0.2585 -0.8338  0.1571
   38CHL1   H4B 3925   3.115   1.889   6.774 -1.4048  0.2149  1.5555
   38CHL1    C5 3926   3.041   1.794   6.580  0.2701  0.5531 -1.2712
   38CHL1    C6 3927   3.098   1.892   6.503  0.3501  0.2917  0.3157
   38CHL1    H6 3928   3.144   1.983   6.542 -1.2669  1.0495  0.5454
   38CHL1    C7 3929   3.080   1.893   6.353 -0.7932  0.2071 -0.2781
   38CHL1   H7A 3930   3.039   1.994   6.332  1.5589  1.8278  2.3124
   38CHL1   H7B 3931   3.180   1.875   6.309  0.2467  3.2416  0.5660
   38CHL1    C8 3932   2.965   1.797   6.296 -0.5990 -0.2240  0.1707
   38CHL1    H8 3933   2.865   1.839   6.319  0.0413  1.8568 -0.6587
   38CHL1   C14 3934   2.987   1.779   6.151 -0.7522  0.1710 -0.2856
   38CHL1   H14 3935   3.082   1.723   6.139  0.5185  2.4919 -1.5804
   38CHL1   C15 3936   3.003   1.904   6.064  0.7028  0.0700 -0.4249
   38CHL1  H15A 3937   2.927   1.975   6.103 -0.0456 -1.2310  0.5275
   38CHL1  H15B 3938   3.107   1.940   6.082  1.0017 -1.4316  1.0821
   38CHL1   C16 3939   2.969   1.858   5.920  0.9128  0.3784 -0.5491
   38CHL1  H16A 3940   2.878   1.908   5.881  1.3523  1.5930 -0.0621
   38CHL1  H16B 3941   3.053   1.878   5.849  1.0040  1.5171 -0.1463
   38CHL1   C17 3942   2.932   1.709   5.936 -0.0461 -0.0869 -0.3089
   38CHL1   H17 3943   3.027   1.652   5.925  1.0702  1.0410  2.5598
   38CHL1   C13 3944   2.884   1.689   6.080 -0.7248  1.0094 -0.2305
   38CHL1   C18 3945   2.739   1.739   6.092  0.5081  0.6278 -0.1816
   38CHL1  H18A 3946   2.731   1.835   6.036  2.0314  0.8725 -0.0029
   38CHL1  H18B 3947   2.675   1.661   6.046  0.5236 -0.8174  2.1083
   38CHL1  H18C 3948   2.714   1.744   6.200  0.7550  1.4633 -0.1553
   38CHL1   C12 3949   2.900   1.555   6.149 -0.4250  0.5657 -0.5026
   38CHL1  H12A 3950   2.821   1.484   6.114 -0.6347  0.3351  0.4194
   38CHL1  H12B 3951   3.003   1.517   6.136 -1.1991 -1.3713 -1.4292
   38CHL1   C11 3952   2.882   1.556   6.301  1.1883  0.5914  0.3948
   38CHL1  H11A 3953   2.781   1.597   6.321  1.6996  1.7081  0.7731
   38CHL1  H11B 3954   2.887   1.453   6.342  0.7563  1.2047  2.0528
   38CHL1    C9 3955   2.975   1.661   6.370 -0.3449 -0.3913  0.3952
   38CHL1    H9 3956   3.081   1.641   6.346 -0.5524 -1.5146  0.3729
   38CHL1   C10 3957   2.971   1.674   6.522  0.5100 -0.3575  0.2930
   38CHL1   C19 3958   2.819   1.707   6.566 -0.7100  0.2613 -0.6329
   38CHL1  H19A 3959   2.798   1.716   6.675 -0.2200  0.6432 -0.5625
   38CHL1  H19B 3960   2.781   1.804   6.528  1.0020  1.3165  0.1900
   38CHL1  H19C 3961   2.757   1.621   6.536 -2.3583  1.5444 -1.0730
   38CHL1    C1 3962   3.020   1.545   6.583  0.4854  0.7807 -0.2343
   38CHL1   H1A 3963   2.944   1.467   6.561 -0.7437  1.4919  1.3298
   38CHL1   H1B 3964   3.121   1.529   6.539  1.0787  0.8870  1.0309
   38CHL1    C2 3965   3.032   1.551   6.736 -0.1796 -0.4713 -0.6351
   38CHL1   H2A 3966   3.072   1.453   6.770  0.7912 -0.3161 -1.2946
   38CHL1   H2B 3967   2.930   1.561   6.780  0.7570  0.0078  1.5666
   38CHL1   C20 3968   2.847   1.668   5.816  0.0466 -0.5946 -0.2110
   38CHL1   H20 3969   2.744   1.710   5.823  0.8770  2.0407 -2.2829
   38CHL1   C21 3970   2.831   1.518   5.829 -0.0991 -0.1150  0.7899
   38CHL1  H21A 3971   2.934   1.477   5.837  0.5317  0.5820 -2.4903
   38CHL1  H21B 3972   2.800   1.470   5.734 -0.2935 -0.4256  1.0064
   38CHL1  H21C 3973   2.767   1.488   5.915  2.0029 -0.6100  2.2595
   38CHL1   C22 3974   2.886   1.714   5.673 -0.4856 -0.7684  0.4510
   38CHL1  H22A 3975   2.810   1.678   5.600 -1.7721 -1.0507  1.8930
   38CHL1  H22B 3976   2.874   1.824   5.680  1.2898 -0.4033 -1.3874
   38CHL1   C23 3977   3.027   1.677   5.616  0.2524  0.3656  0.1222
   38CHL1  H23A 3978   3.115   1.705   5.677  0.3893  2.2103 -0.8431
   38CHL1  H23B 3979   3.021   1.571   5.584  1.7252  0.4469 -0.4877
   38CHL1   C24 3980   3.054   1.763   5.492 -0.5706 -0.2212  0.5757
   38CHL1  H24A 3981   2.980   1.726   5.418 -1.8545  1.1517  1.1163
   38CHL1  H24B 3982   3.029   1.867   5.524  1.9021  0.2169  1.3530
   38CHL1   C25 3983   3.197   1.767   5.430  0.5347  0.4914 -0.0442
   38CHL1   H25 3984   3.276   1.803   5.499  0.8123  2.8144 -1.4922
   38CHL1   C26 3985   3.231   1.619   5.401 -0.1290  0.2012  0.4148
   38CHL1  H26A 3986   3.335   1.618   5.363  0.0384 -0.1495  0.8724
   38CHL1  H26B 3987   3.228   1.548   5.486  0.8291 -1.5198 -0.9048
   38CHL1  H26C 3988   3.161   1.587   5.320 -0.7213  0.0440  0.9836
   38CHL1   C27 3989   3.212   1.853   5.308  0.0980  0.1075 -0.1843
   38CHL1  H27A 3990   3.319   1.864   5.281 -0.2091  0.0023 -1.5191
   38CHL1  H27B 3991   3.165   1.808   5.218 -0.7878  1.7656 -0.5856
   38CHL1  H27C 3992   3.181   1.957   5.329  2.4366  1.1895 -1.6670
   39CHL1    C3 3993   3.785   1.197   6.541 -0.3504  0.3279 -0.4937
   39CHL1    H3 3994   3.803   1.307   6.532 -0.4848  0.4456  0.5804
   39CHL1    O3 3995   3.731   1.166   6.671  0.0279 -0.2515  0.9513
   39CHL1   H3' 3996   3.790   1.210   6.732  0.3237  0.0628  0.4421
   39CHL1    C4 3997   3.693   1.150   6.431  0.5972 -0.1631 -0.1352
   39CHL1   H4A 3998   3.672   1.043   6.449 -0.0686  0.0502  0.3680
   39CHL1   H4B 3999   3.595   1.201   6.442  0.7511  0.6486 -2.0457
   39CHL1    C5 4000   3.753   1.172   6.292 -0.1194 -0.1584  0.2987
   39CHL1    C6 4001   3.687   1.244   6.193 -0.2242 -0.3081 -0.4791
   39CHL1    H6 4002   3.581   1.271   6.206  0.1501  0.3740  1.3934
   39CHL1    C7 4003   3.747   1.252   6.051 -0.6934  0.1950  0.4802
   39CHL1   H7A 4004   3.671   1.232   5.973 -1.8203  1.0363  1.3134
   39CHL1   H7B 4005   3.791   1.353   6.036  2.3644 -1.1340 -0.3623
   39CHL1    C8 4006   3.867   1.155   6.019 -0.5201 -0.4486  0.4986
   39CHL1    H8 4007   3.827   1.053   6.002 -2.5727  0.7067 -2.6622
   39CHL1   C14 4008   3.942   1.192   5.893  0.0869  0.0424 -0.2301
   39CHL1   H14 4009   4.003   1.282   5.914  0.8031 -0.3862 -0.4677
   39CHL1   C15 4010   3.867   1.225   5.766  0.0786  0.5371  0.1968
   39CHL1  H15A 4011   3.775   1.165   5.748  0.2765  0.6522 -1.3382
   39CHL1  H15B 4012   3.821   1.326   5.757  0.5733  0.5693 -2.5795
   39CHL1   C16 4013   3.956   1.193   5.649 -0.3366 -0.3222 -0.1479
   39CHL1  H16A 4014   3.916   1.114   5.582  0.2551 -0.2025 -0.6480
   39CHL1  H16B 4015   3.978   1.287   5.593  0.2963 -0.4202 -0.0679
   39CHL1   C17 4016   4.092   1.142   5.716 -0.2635  0.2397  0.9083
   39CHL1   H17 4017   4.157   1.229   5.739  1.0075 -0.9464  1.9278
   39CHL1   C13 4018   4.051   1.086   5.853  0.2715  0.2059 -0.1413
   39CHL1   C18 4019   4.005   0.942   5.831 -0.0766 -0.2040  0.0713
   39CHL1  H18A 4020   3.940   0.896   5.909 -1.0482 -1.6752 -1.5479
   39CHL1  H18B 4021   3.946   0.930   5.738 -0.1123  0.1862  0.0411
   39CHL1  H18C 4022   4.095   0.877   5.835 -0.2391 -0.3913  1.1435
   39CHL1   C12 4023   4.148   1.092   5.970 -0.6326 -0.7598 -0.3717
   39CHL1  H12A 4024   4.233   1.022   5.953  1.1333  1.0835  0.4495
   39CHL1  H12B 4025   4.192   1.194   5.982 -2.0705 -0.4032  2.9808
   39CHL1   C11 4026   4.076   1.046   6.098  0.5105 -0.2728 -0.2202
   39CHL1  H11A 4027   4.035   0.944   6.084 -0.9736  0.5151 -1.9928
   39CHL1  H11B 4028   4.156   1.042   6.176  0.3923 -0.2209 -0.0950
   39CHL1    C9 4029   3.965   1.146   6.140  0.0513  0.2979 -0.1771
   39CHL1    H9 4030   3.999   1.250   6.157 -3.5370  1.6296 -0.3587
   39CHL1   C10 4031   3.896   1.112   6.275  0.4399  0.2514  0.0112
   39CHL1   C19 4032   3.877   0.959   6.291  0.0133  0.0958  0.4046
   39CHL1  H19A 4033   3.836   0.924   6.194  1.0859 -0.3895  0.1059
   39CHL1  H19B 4034   3.977   0.913   6.305  0.5921  1.5156  1.1236
   39CHL1  H19C 4035   3.823   0.927   6.383 -2.3185  0.6426 -0.7182
   39CHL1    C1 4036   3.985   1.160   6.393 -0.3682  0.7374 -0.4288
   39CHL1   H1A 4037   4.076   1.096   6.394 -0.7208  0.2314 -0.0610
   39CHL1   H1B 4038   4.011   1.267   6.382  0.0806  0.5378 -1.4373
   39CHL1    C2 4039   3.925   1.135   6.529  0.3353 -0.4554  0.1312
   39CHL1   H2A 4040   3.993   1.185   6.602  0.1517  1.3437 -0.8718
   39CHL1   H2B 4041   3.919   1.028   6.560 -1.3089 -0.2759  0.5187
   39CHL1   C20 4042   4.179   1.055   5.623  0.0104 -0.0545  0.7225
   39CHL1   H20 4043   4.168   0.945   5.620  5.5228 -0.9065 -1.0403
   39CHL1   C21 4044   4.329   1.068   5.668  0.0864 -0.5346  0.2025
   39CHL1  H21A 4045   4.352   1.176   5.677 -1.0211 -0.2981  0.3278
   39CHL1  H21B 4046   4.392   1.017   5.592  0.9641  3.3809 -1.9231
   39CHL1  H21C 4047   4.351   1.022   5.767 -2.0951  0.1440  1.0611
   39CHL1   C22 4048   4.166   1.093   5.466  0.1005 -0.5521  0.3087
   39CHL1  H22A 4049   4.217   1.016   5.404 -1.4153 -1.4840  0.1563
   39CHL1  H22B 4050   4.059   1.081   5.438 -0.2303  0.4826  1.0600
   39CHL1   C23 4051   4.213   1.229   5.411  0.1351 -0.2440  0.1873
   39CHL1  H23A 4052   4.165   1.322   5.447  0.5166  0.5416 -1.2672
   39CHL1  H23B 4053   4.323   1.240   5.424  0.3505  2.1406 -2.7076
   39CHL1   C24 4054   4.181   1.232   5.259 -1.0581 -0.2322 -0.2096
   39CHL1  H24A 4055   4.235   1.151   5.206 -2.0939 -0.6878 -0.5991
   39CHL1  H24B 4056   4.076   1.205   5.233 -1.3325  0.5175  0.0906
   39CHL1   C25 4057   4.205   1.361   5.180  0.1547  0.9078  0.0143
   39CHL1   H25 4058   4.309   1.394   5.204  0.0285  0.5432  1.1239
   39CHL1   C26 4059   4.192   1.324   5.037 -0.1635  0.1476  0.4491
   39CHL1  H26A 4060   4.084   1.323   5.014  0.0633  1.0254 -0.7801
   39CHL1  H26B 4061   4.239   1.396   4.966 -1.3681  1.8633  1.3082
   39CHL1  H26C 4062   4.233   1.224   5.009 -0.2511  0.7978 -2.3192
   39CHL1   C27 4063   4.107   1.473   5.217 -0.2547 -0.1840 -0.5964
   39CHL1  H27A 4064   4.006   1.428   5.216 -0.3354  0.0015 -0.9264
   39CHL1  H27B 4065   4.126   1.512   5.320 -0.9861  3.5058 -1.7141
   39CHL1  H27C 4066   4.121   1.560   5.150  0.3710 -0.9741 -1.5158
   40CHL1    C3 4067   4.982   5.277   6.768  0.8079  0.2022 -0.5887
   40CHL1    H3 4068   5.047   5.360   6.735 -0.3197  1.2572 -0.2533
   40CHL1    O3 4069   5.004   5.242   6.903  0.8621  0.0097  0.4071
   40CHL1   H3' 4070   4.955   5.161   6.914 -2.5212  2.0637  2.0943
   40CHL1    C4 4071   4.832   5.320   6.748  0.3680  0.1835 -0.1526
   40CHL1   H4A 4072   4.774   5.233   6.786 -0.0444 -0.7384 -2.7010
   40CHL1   H4B 4073   4.814   5.411   6.809  2.8099  1.5415 -1.3209
   40CHL1    C5 4074   4.794   5.345   6.606 -0.1571 -0.1231 -0.0795
   40CHL1    C6 4075   4.738   5.462   6.569 -0.1815 -0.7211  0.8522
   40CHL1    H6 4076   4.693   5.527   6.646  1.2060 -2.3478  3.1430
   40CHL1    C7 4077   4.706   5.499   6.427  0.4904 -0.3829  0.2134
   40CHL1   H7A 4078   4.606   5.547   6.419  1.0920  0.7269 -0.8457
   40CHL1   H7B 4079   4.771   5.587   6.408  1.1224 -0.9406 -0.2335
   40CHL1    C8 4080   4.725   5.386   6.329 -0.3578 -0.0675 -0.0343
   40CHL1    H8 4081   4.638   5.317   6.329  0.6955 -1.4340 -0.7000
   40CHL1   C14 4082   4.750   5.445   6.190 -0.6334 -0.1378 -0.3562
   40CHL1   H14 4083   4.840   5.510   6.189 -0.5708 -0.1293 -2.8952
   40CHL1   C15 4084   4.632   5.540   6.150 -0.6118  0.1929  0.1396
   40CHL1  H15A 4085   4.534   5.493   6.170 -0.3004  0.2151  1.8651
   40CHL1  H15B 4086   4.642   5.645   6.185  4.5143 -0.0127  0.0802
   40CHL1   C16 4087   4.641   5.543   5.995  0.2906 -0.4612  0.2514
   40CHL1  H16A 4088   4.540   5.520   5.954  0.3512 -1.0391  0.4185
   40CHL1  H16B 4089   4.662   5.648   5.965  0.0844 -0.8260 -1.3071
   40CHL1   C17 4090   4.745   5.439   5.954 -0.0556  0.2889  0.1661
   40CHL1   H17 4091   4.837   5.500   5.940 -0.1124  0.7556  1.6209
   40CHL1   C13 4092   4.759   5.344   6.073 -0.8293  0.1121 -0.4435
   40CHL1   C18 4093   4.646   5.244   6.059  0.3401  0.0357 -0.3943
   40CHL1  H18A 4094   4.548   5.288   6.031 -0.7179  0.3153  3.2008
   40CHL1  H18B 4095   4.673   5.162   5.989 -1.0790  0.1142 -1.0588
   40CHL1  H18C 4096   4.621   5.205   6.160  0.4680 -2.2926 -1.2020
   40CHL1   C12 4097   4.889   5.267   6.103 -0.2232 -0.1975  0.3909
   40CHL1  H12A 4098   4.901   5.186   6.027  0.1777  1.1164 -1.0196
   40CHL1  H12B 4099   4.976   5.335   6.091 -1.1077  0.7684 -0.7851
   40CHL1   C11 4100   4.880   5.204   6.242  0.4437 -0.1275 -0.6894
   40CHL1  H11A 4101   4.793   5.137   6.236 -0.3803  1.0580 -3.0795
   40CHL1  H11B 4102   4.972   5.148   6.269  0.6150 -0.4953 -2.0056
   40CHL1    C9 4103   4.845   5.306   6.365  0.0163 -0.2874  0.1617
   40CHL1    H9 4104   4.933   5.373   6.375 -1.7115  2.0297  0.7948
   40CHL1   C10 4105   4.833   5.235   6.501  0.3599  0.1412 -0.3840
   40CHL1   C19 4106   4.724   5.128   6.504 -0.2653 -0.1461 -0.1855
   40CHL1  H19A 4107   4.714   5.094   6.609  1.9766 -0.9456 -0.1853
   40CHL1  H19B 4108   4.629   5.170   6.464 -0.6076 -1.0488 -0.3401
   40CHL1  H19C 4109   4.763   5.045   6.441  1.9807 -0.1776  1.1564
   40CHL1    C1 4110   4.968   5.172   6.538 -0.2437 -0.4453 -0.2522
   40CHL1   H1A 4111   4.980   5.081   6.474  1.0735 -0.0717 -0.5717
   40CHL1   H1B 4112   5.042   5.246   6.500 -0.6045  0.2793  0.4236
   40CHL1    C2 4113   5.000   5.151   6.684 -0.4627  0.3563 -0.2838
   40CHL1   H2A 4114   5.103   5.111   6.696 -1.2207 -2.4607 -2.0991
   40CHL1   H2B 4115   4.935   5.072   6.729 -2.1273  1.6895 -0.2191
   40CHL1   C20 4116   4.727   5.375   5.813 -0.0514 -0.6874  0.4050
   40CHL1   H20 4117   4.651   5.295   5.811 -2.2716  1.2882  0.9874
   40CHL1   C21 4118   4.862   5.310   5.773  0.2001 -0.2306  0.0988
   40CHL1  H21A 4119   4.949   5.377   5.757 -0.4139  0.5788  0.1383
   40CHL1  H21B 4120   4.843   5.257   5.677  0.9037 -2.1237  0.9556
   40CHL1  H21C 4121   4.894   5.231   5.844 -1.4274 -1.0512 -0.0388
   40CHL1   C22 4122   4.677   5.474   5.702 -0.0683  0.5070  0.0526
   40CHL1  H22A 4123   4.582   5.516   5.741 -0.4148 -1.6670  1.7053
   40CHL1  H22B 4124   4.746   5.562   5.697  0.5517 -0.0335 -1.5282
   40CHL1   C23 4125   4.655   5.419   5.561  0.3469  0.4084  0.1771
   40CHL1  H23A 4126   4.738   5.349   5.541  0.1365  0.7629 -2.3146
   40CHL1  H23B 4127   4.570   5.350   5.575 -0.3875  0.3758 -3.3422
   40CHL1   C24 4128   4.622   5.514   5.445  0.2548 -0.5949 -0.0957
   40CHL1  H24A 4129   4.536   5.582   5.464 -1.2558 -2.3119 -0.5731
   40CHL1  H24B 4130   4.704   5.586   5.423 -0.3143 -0.2951 -1.3039
   40CHL1   C25 4131   4.600   5.436   5.314 -0.9674  0.2456 -0.2428
   40CHL1   H25 4132   4.561   5.338   5.346  0.7513 -0.2240  0.5528
   40CHL1   C26 4133   4.497   5.493   5.223 -0.5580  0.4399  0.1560
   40CHL1  H26A 4134   4.401   5.493   5.278  0.0617 -1.8022  1.3678
   40CHL1  H26B 4135   4.518   5.596   5.189 -0.3982  0.6322  0.8279
   40CHL1  H26C 4136   4.487   5.425   5.135 -0.6395  0.7334 -0.0629
   40CHL1   C27 4137   4.738   5.406   5.242 -0.3373 -0.4053 -0.4438
   40CHL1  H27A 4138   4.719   5.377   5.136 -1.0914  1.4371 -0.8502
   40CHL1  H27B 4139   4.789   5.505   5.231 -0.3983 -0.4731 -1.4664
   40CHL1  H27C 4140   4.819   5.342   5.284  0.3922 -0.4529 -1.8564
   41CHL1    C3 4141   0.741   4.951   6.304 -0.6793  0.4577  0.1074
   41CHL1    H3 4142   0.644   4.904   6.276 -0.9604  1.0883  0.0146
   41CHL1    O3 4143   0.792   4.886   6.417  0.3151  0.0503 -0.0148
   41CHL1   H3' 4144   0.832   4.955   6.471 -0.0151  1.8944 -2.0024
   41CHL1    C4 4145   0.845   4.950   6.187  0.5901  0.4325 -0.1463
   41CHL1   H4A 4146   0.948   4.975   6.223  1.6878 -2.5455 -0.9479
   41CHL1   H4B 4147   0.862   4.845   6.157 -0.5502 -0.3068  1.6320
   41CHL1    C5 4148   0.802   5.038   6.074 -0.4064 -0.4778 -0.5731
   41CHL1    C6 4149   0.786   4.983   5.947  0.1018  0.0261  0.1072
   41CHL1    H6 4150   0.801   4.875   5.936 -0.2802  0.0138 -0.3069
   41CHL1    C7 4151   0.735   5.068   5.828  0.0211  0.4885  0.1585
   41CHL1   H7A 4152   0.800   5.055   5.738  0.1283  2.2389 -0.0461
   41CHL1   H7B 4153   0.635   5.030   5.795  0.0502  0.8229 -0.3292
   41CHL1    C8 4154   0.732   5.214   5.853  0.1643 -0.1045 -0.5687
   41CHL1    H8 4155   0.834   5.257   5.840  0.8193 -0.9611  1.3782
   41CHL1   C14 4156   0.629   5.269   5.756 -0.0284  0.2986  1.0096
   41CHL1   H14 4157   0.532   5.226   5.788 -0.7684  0.3515 -0.9978
   41CHL1   C15 4158   0.644   5.229   5.610  0.1703  0.2135 -1.1448
   41CHL1  H15A 4159   0.752   5.225   5.583  0.4327 -0.3419 -0.0936
   41CHL1  H15B 4160   0.599   5.127   5.606 -0.4678  0.4296  0.0038
   41CHL1   C16 4161   0.569   5.331   5.530  0.3318 -0.2313  0.3867
   41CHL1  H16A 4162   0.643   5.356   5.451  0.7883 -1.3689  0.4388
   41CHL1  H16B 4163   0.478   5.279   5.493  0.8445 -1.5854  0.9379
   41CHL1   C17 4164   0.537   5.445   5.623  0.0144 -0.5169 -0.7436
   41CHL1   H17 4165   0.430   5.432   5.649 -0.1959  0.2745 -1.1783
   41CHL1   C13 4166   0.619   5.423   5.750  0.2722 -1.2420  0.8895
   41CHL1   C18 4167   0.751   5.492   5.734 -0.3216  0.0700 -0.0492
   41CHL1  H18A 4168   0.738   5.602   5.740  4.5975  1.1618 -3.5635
   41CHL1  H18B 4169   0.828   5.464   5.808  0.1546  0.7238 -0.2889
   41CHL1  H18C 4170   0.780   5.467   5.630 -0.4388 -3.0940  0.5703
   41CHL1   C12 4171   0.551   5.459   5.887  0.2716  0.3974  0.5164
   41CHL1  H12A 4172   0.545   5.570   5.898  1.3092  0.5841 -0.6905
   41CHL1  H12B 4173   0.449   5.418   5.871  0.2275  0.4784  0.5822
   41CHL1   C11 4174   0.635   5.399   6.002 -0.6227 -0.6687  0.1738
   41CHL1  H11A 4175   0.727   5.461   6.000 -1.9638  1.4159 -0.3021
   41CHL1  H11B 4176   0.580   5.423   6.095 -1.4349 -0.9915 -0.2090
   41CHL1    C9 4177   0.677   5.243   5.992  0.5092 -0.8397 -0.3093
   41CHL1    H9 4178   0.578   5.195   5.996 -1.3378  2.3710 -2.7291
   41CHL1   C10 4179   0.760   5.187   6.108 -0.0418  0.0345  0.1365
   41CHL1   C19 4180   0.892   5.270   6.143 -0.4596  0.3621 -0.1183
   41CHL1  H19A 4181   0.854   5.373   6.156  2.2355  1.6320 -1.4682
   41CHL1  H19B 4182   0.945   5.215   6.224 -1.5252  1.4134  1.3291
   41CHL1  H19C 4183   0.963   5.266   6.058 -0.0022  1.9227  0.1728
   41CHL1    C1 4184   0.676   5.183   6.235 -0.3615 -0.0075 -0.1930
   41CHL1   H1A 4185   0.666   5.289   6.267  0.3402  1.3393 -3.9331
   41CHL1   H1B 4186   0.573   5.152   6.206 -0.3077 -0.8693  0.4783
   41CHL1    C2 4187   0.721   5.094   6.346  0.5564  0.2219 -0.0314
   41CHL1   H2A 4188   0.647   5.084   6.428  0.0151  1.7934 -0.2975
   41CHL1   H2B 4189   0.810   5.138   6.395  1.6851 -1.5904 -0.3483
   41CHL1   C20 4190   0.538   5.583   5.545  0.3352 -0.5200  0.2079
   41CHL1   H20 4191   0.643   5.606   5.518  0.1185 -0.7710 -0.8828
   41CHL1   C21 4192   0.489   5.695   5.647 -0.2213  0.7360  0.2469
   41CHL1  H21A 4193   0.383   5.690   5.680  0.4920  2.3950  3.0631
   41CHL1  H21B 4194   0.505   5.788   5.587  1.8074 -0.8208 -1.8078
   41CHL1  H21C 4195   0.564   5.723   5.724  0.0080 -1.1951  0.7607
   41CHL1   C22 4196   0.465   5.571   5.406  0.2936 -0.2034 -0.1479
   41CHL1  H22A 4197   0.507   5.495   5.336 -1.1974 -0.7969 -0.4295
   41CHL1  H22B 4198   0.357   5.547   5.417 -0.2893  2.5558  0.7401
   41CHL1   C23 4199   0.459   5.708   5.327  1.1946  0.7239  0.0367
   41CHL1  H23A 4200   0.410   5.791   5.382 -1.8714  0.5567 -2.2325
   41CHL1  H23B 4201   0.561   5.750   5.315  0.7652  1.9975  0.6072
   41CHL1   C24 4202   0.407   5.701   5.184  0.5820 -0.3044  0.7394
   41CHL1  H24A 4203   0.475   5.626   5.139 -0.7768 -0.2785 -1.4977
   41CHL1  H24B 4204   0.301   5.668   5.181  0.1130  1.1485  0.1767
   41CHL1   C25 4205   0.423   5.833   5.107  0.6629  0.1004  0.2734
   41CHL1   H25 4206   0.525   5.870   5.132  1.0664 -1.4168  0.9649
   41CHL1   C26 4207   0.418   5.807   4.952 -0.0109 -0.8741  0.1915
   41CHL1  H26A 4208   0.316   5.768   4.929 -0.7354  0.3835  1.1005
   41CHL1  H26B 4209   0.430   5.901   4.893  0.3299 -1.0660 -0.0439
   41CHL1  H26C 4210   0.497   5.736   4.921 -1.4313 -2.2098 -0.5233
   41CHL1   C27 4211   0.324   5.952   5.149 -0.6007  0.4728  0.2381
   41CHL1  H27A 4212   0.330   6.031   5.072  1.5330  0.9066  0.7900
   41CHL1  H27B 4213   0.216   5.927   5.139 -0.0929 -1.7742 -0.1385
   41CHL1  H27C 4214   0.340   5.995   5.250 -1.0425  0.2678  0.4008
   42CHL1    C3 4215   6.530   4.620   6.905  0.0022  0.0813  0.0263
   42CHL1    H3 4216   6.618   4.663   6.852  1.9569 -4.1758 -0.6459
   42CHL1    O3 4217   6.553   4.621   7.047  0.4885  0.1305 -0.0874
   42CHL1   H3' 4218   6.469   4.587   7.079  0.5444 -0.3641 -0.4469
   42CHL1    C4 4219   6.413   4.707   6.854 -0.0929  0.4159 -0.4722
   42CHL1   H4A 4220   6.323   4.699   6.918  0.2103  1.3393  0.0955
   42CHL1   H4B 4221   6.431   4.813   6.880  0.1362 -0.3330  2.8328
   42CHL1    C5 4222   6.382   4.700   6.703 -0.4880  0.7581  0.3828
   42CHL1    C6 4223   6.392   4.809   6.622  0.6514 -0.4979 -1.0012
   42CHL1    H6 4224   6.415   4.908   6.664  0.8944 -1.6134  1.6535
   42CHL1    C7 4225   6.380   4.804   6.471  0.0343  0.2530 -0.2919
   42CHL1   H7A 4226   6.331   4.891   6.422  1.9705  2.7648  1.9846
   42CHL1   H7B 4227   6.479   4.797   6.421  1.2856 -0.2958  2.1417
   42CHL1    C8 4228   6.296   4.680   6.425  0.0975 -0.0879 -0.0025
   42CHL1    H8 4229   6.193   4.691   6.464  0.6097 -2.1782  2.1309
   42CHL1   C14 4230   6.295   4.665   6.277  0.5887 -0.2829 -0.1571
   42CHL1   H14 4231   6.399   4.647   6.243  0.8445  0.4583  0.2350
   42CHL1   C15 4232   6.237   4.772   6.191 -0.6483 -0.3855  0.2598
   42CHL1  H15A 4233   6.155   4.823   6.246  1.0100  3.0141 -0.1347
   42CHL1  H15B 4234   6.304   4.857   6.166 -1.1525  0.1720  0.7552
   42CHL1   C16 4235   6.197   4.710   6.057  0.4222 -0.5993  0.7349
   42CHL1  H16A 4236   6.089   4.714   6.031  0.9635 -1.2291 -1.9107
   42CHL1  H16B 4237   6.257   4.767   5.983 -1.5586  0.0303 -0.4531
   42CHL1   C17 4238   6.222   4.560   6.069 -0.0565 -0.1039  0.3295
   42CHL1   H17 4239   6.323   4.533   6.031  0.2241 -1.7517  2.0760
   42CHL1   C13 4240   6.226   4.539   6.227 -0.3968 -0.4831  0.1428
   42CHL1   C18 4241   6.083   4.531   6.276  0.3473  0.5720 -0.4317
   42CHL1  H18A 4242   6.026   4.445   6.237  1.7715 -0.5481 -0.1293
   42CHL1  H18B 4243   6.065   4.532   6.386 -0.8102  1.1249 -0.6108
   42CHL1  H18C 4244   6.021   4.612   6.232 -0.8591 -1.0705 -1.8912
   42CHL1   C12 4245   6.319   4.424   6.277 -0.2075 -0.4089  0.5780
   42CHL1  H12A 4246   6.296   4.328   6.226 -0.1575 -0.4133  0.5631
   42CHL1  H12B 4247   6.425   4.442   6.247  0.1674 -0.9961  1.4970
   42CHL1   C11 4248   6.319   4.418   6.427 -0.4586 -0.0576  0.6005
   42CHL1  H11A 4249   6.224   4.373   6.460 -0.2480 -0.2508  0.9505
   42CHL1  H11B 4250   6.394   4.349   6.472  0.4130  1.4302  1.5452
   42CHL1    C9 4251   6.361   4.557   6.489  0.0358 -0.1309 -0.2523
   42CHL1    H9 4252   6.464   4.574   6.451  0.6235  0.3971  1.4793
   42CHL1   C10 4253   6.364   4.562   6.644 -0.3973  0.1168  0.1171
   42CHL1   C19 4254   6.231   4.504   6.707 -0.1353  0.5136  0.6848
   42CHL1  H19A 4255   6.141   4.544   6.654 -2.2764  0.1293  3.7566
   42CHL1  H19B 4256   6.226   4.394   6.700  1.8295  0.4585 -0.5842
   42CHL1  H19C 4257   6.209   4.542   6.809  0.2630  0.6658  0.7138
   42CHL1    C1 4258   6.484   4.478   6.703 -0.0336 -0.5405 -0.1454
   42CHL1   H1A 4259   6.476   4.376   6.661  2.0862 -1.3726  1.3175
   42CHL1   H1B 4260   6.579   4.507   6.656 -0.1214  0.3067  0.1810
   42CHL1    C2 4261   6.513   4.477   6.851  0.1881 -0.4423 -0.4694
   42CHL1   H2A 4262   6.612   4.430   6.867  0.3309  0.5769  2.0689
   42CHL1   H2B 4263   6.444   4.420   6.916  0.4783  1.3429  1.5203
   42CHL1   C20 4264   6.128   4.476   5.982 -0.0887 -0.0880 -0.1567
   42CHL1   H20 4265   6.030   4.475   6.034  1.1060 -2.2810  2.2846
   42CHL1   C21 4266   6.170   4.328   5.989 -0.9743  0.9076 -0.0456
   42CHL1  H21A 4267   6.278   4.316   5.965 -1.0971  2.9253 -1.9456
   42CHL1  H21B 4268   6.109   4.270   5.916 -1.9593 -0.8690  2.0497
   42CHL1  H21C 4269   6.148   4.276   6.085 -3.6324 -1.6945 -1.8969
   42CHL1   C22 4270   6.119   4.517   5.831  0.3976 -0.4206 -0.6353
   42CHL1  H22A 4271   6.048   4.453   5.776 -0.8761 -0.5010  1.0062
   42CHL1  H22B 4272   6.060   4.611   5.827  0.1937 -0.5850 -1.9702
   42CHL1   C23 4273   6.248   4.517   5.759 -0.2934 -0.4599  0.1110
   42CHL1  H23A 4274   6.320   4.580   5.815 -3.2598 -0.1708  4.0434
   42CHL1  H23B 4275   6.293   4.416   5.749  1.5916  0.4633 -1.4125
   42CHL1   C24 4276   6.241   4.590   5.612  0.0894  0.9417  0.3347
   42CHL1  H24A 4277   6.220   4.696   5.638 -1.0384  0.5338  1.1830
   42CHL1  H24B 4278   6.343   4.593   5.569 -0.0020  0.6888  0.0982
   42CHL1   C25 4279   6.142   4.542   5.503 -0.7344  0.4252  0.5381
   42CHL1   H25 4280   6.042   4.540   5.552 -1.3948  0.5442 -0.7522
   42CHL1   C26 4281   6.131   4.633   5.379  0.2061  0.3908  0.2073
   42CHL1  H26A 4282   6.231   4.626   5.331 -0.4149 -1.5752 -0.8882
   42CHL1  H26B 4283   6.054   4.592   5.311  0.4082  0.0820  0.1649
   42CHL1  H26C 4284   6.095   4.734   5.408 -0.9602  0.0286  0.0621
   42CHL1   C27 4285   6.174   4.402   5.454 -0.1443  0.0434 -0.3991
   42CHL1  H27A 4286   6.108   4.369   5.371  0.2871 -1.2135 -0.2537
   42CHL1  H27B 4287   6.283   4.395   5.432  0.5237 -0.6946  2.6536
   42CHL1  H27C 4288   6.160   4.334   5.540 -1.0209 -0.1655 -0.6921
   43CHL1    C3 4289   5.935   2.413   6.447  0.2130 -0.5125 -0.5653
   43CHL1    H3 4290   5.864   2.496   6.428 -2.1298 -1.7017  2.3331
   43CHL1    O3 4291   5.892   2.367   6.576  0.0223  0.0889  0.2255
   43CHL1   H3' 4292   5.965   2.392   6.633  0.7744 -1.2312 -0.1267
   43CHL1    C4 4293   5.910   2.302   6.348  0.1281 -0.1926  0.6118
   43CHL1   H4A 4294   5.951   2.201   6.372  0.6794 -0.5129 -1.4710
   43CHL1   H4B 4295   5.800   2.291   6.342  0.2968 -2.3653  0.6513
   43CHL1    C5 4296   5.953   2.351   6.213 -0.9955  0.2203 -0.5781
   43CHL1    C6 4297   5.876   2.363   6.108  0.1146 -0.1956 -0.1251
   43CHL1    H6 4298   5.774   2.323   6.109  0.4607 -1.2294 -1.9047
   43CHL1    C7 4299   5.922   2.387   5.968  0.1267 -0.2931 -0.2298
   43CHL1   H7A 4300   5.871   2.307   5.911 -2.0551 -0.6452  2.0252
   43CHL1   H7B 4301   5.876   2.478   5.926 -0.3103 -0.8000 -0.8772
   43CHL1    C8 4302   6.075   2.384   5.955  0.4648  1.0008  0.4622
   43CHL1    H8 4303   6.104   2.277   5.947  0.7396  1.1304 -0.3629
   43CHL1   C14 4304   6.111   2.455   5.824  0.3903  0.4716 -0.0738
   43CHL1   H14 4305   6.085   2.563   5.829 -1.3846  0.0240  1.2919
   43CHL1   C15 4306   6.025   2.397   5.711 -0.2627  0.1839  0.2229
   43CHL1  H15A 4307   6.013   2.287   5.720  3.4268 -0.5672 -2.0401
   43CHL1  H15B 4308   5.928   2.449   5.695 -1.1508 -1.0074  1.4031
   43CHL1   C16 4309   6.125   2.414   5.590  0.1389 -0.1641 -0.5344
   43CHL1  H16A 4310   6.150   2.323   5.532  1.7424  0.7871 -1.4002
   43CHL1  H16B 4311   6.082   2.486   5.516 -0.3295 -0.8154 -0.9059
   43CHL1   C17 4312   6.253   2.487   5.647  0.3555 -0.0634 -0.2141
   43CHL1   H17 4313   6.236   2.597   5.649  1.7094  0.1636 -0.3272
   43CHL1   C13 4314   6.256   2.446   5.791 -0.6325 -0.5650  0.2943
   43CHL1   C18 4315   6.312   2.303   5.803  0.5509  0.6532 -0.4894
   43CHL1  H18A 4316   6.418   2.302   5.773  0.6024  1.0994 -0.3323
   43CHL1  H18B 4317   6.307   2.265   5.907  0.0262 -2.9076 -1.7020
   43CHL1  H18C 4318   6.265   2.228   5.736  0.7899 -0.6093  0.7194
   43CHL1   C12 4319   6.321   2.541   5.899  0.3083  0.0299 -0.3720
   43CHL1  H12A 4320   6.432   2.550   5.894  0.4607 -1.7510 -1.1074
   43CHL1  H12B 4321   6.269   2.637   5.880 -1.5965 -0.3538  2.3935
   43CHL1   C11 4322   6.297   2.485   6.043  0.3103 -0.4752  0.3090
   43CHL1  H11A 4323   6.362   2.395   6.055  1.0219 -0.1517 -0.8981
   43CHL1  H11B 4324   6.334   2.550   6.124 -1.7292 -0.4076  1.2302
   43CHL1    C9 4325   6.146   2.458   6.072  0.0605 -0.3725  0.6164
   43CHL1    H9 4326   6.093   2.556   6.074  0.6106  0.0784 -2.2922
   43CHL1   C10 4327   6.105   2.384   6.197  0.2230 -0.2083 -0.9141
   43CHL1   C19 4328   6.191   2.254   6.213 -0.2041  0.5705  0.0335
   43CHL1  H19A 4329   6.169   2.183   6.295 -1.0999 -1.4107 -1.8202
   43CHL1  H19B 4330   6.176   2.179   6.132 -0.0901  0.5751  0.0080
   43CHL1  H19C 4331   6.297   2.279   6.238 -0.8906  2.1507  1.5496
   43CHL1    C1 4332   6.131   2.479   6.314  0.1424  0.2000  0.2763
   43CHL1   H1A 4333   6.240   2.500   6.320  0.7783 -1.9865 -2.0564
   43CHL1   H1B 4334   6.091   2.579   6.288 -0.3224 -0.1160 -0.2583
   43CHL1    C2 4335   6.077   2.436   6.452  0.6093  0.7985 -0.1824
   43CHL1   H2A 4336   6.103   2.515   6.526  1.0122  0.4116  0.0997
   43CHL1   H2B 4337   6.136   2.347   6.482  0.4235  0.8153  0.2457
   43CHL1   C20 4338   6.376   2.459   5.559  0.0298 -0.3221  0.0841
   43CHL1   H20 4339   6.392   2.350   5.548 -0.9207 -0.3121 -1.7215
   43CHL1   C21 4340   6.492   2.542   5.625 -0.6662  0.2088  0.3640
   43CHL1  H21A 4341   6.523   2.501   5.724 -0.1562 -0.8207 -0.2071
   43CHL1  H21B 4342   6.460   2.648   5.634  2.9444  1.7464 -2.4179
   43CHL1  H21C 4343   6.579   2.552   5.557  0.1352 -0.2105  1.2942
   43CHL1   C22 4344   6.354   2.512   5.419  0.3310 -0.8719 -0.5269
   43CHL1  H22A 4345   6.261   2.468   5.377 -1.2049  1.2369  0.4773
   43CHL1  H22B 4346   6.351   2.623   5.417  1.3542 -0.7467  1.5235
   43CHL1   C23 4347   6.460   2.456   5.324  0.0688  0.6509 -0.4718
   43CHL1  H23A 4348   6.558   2.503   5.349 -0.6576  1.0241  2.0072
   43CHL1  H23B 4349   6.464   2.346   5.335 -0.1764  0.6419 -0.4568
   43CHL1   C24 4350   6.428   2.488   5.174 -0.3231  0.1468 -0.6423
   43CHL1  H24A 4351   6.330   2.449   5.138 -0.8364  0.6190  0.1924
   43CHL1  H24B 4352   6.416   2.598   5.171  0.4490  0.4782  3.1905
   43CHL1   C25 4353   6.534   2.446   5.072  0.4484 -0.2820 -0.5903
   43CHL1   H25 4354   6.634   2.463   5.116  0.2548  2.8018 -1.0869
   43CHL1   C26 4355   6.518   2.294   5.043  0.5997  0.0308  0.0903
   43CHL1  H26A 4356   6.450   2.270   4.959 -0.6544 -1.4231  1.4375
   43CHL1  H26B 4357   6.615   2.263   4.998 -0.5122  0.3646 -2.7354
   43CHL1  H26C 4358   6.507   2.227   5.131 -0.1065  2.6575  2.1043
   43CHL1   C27 4359   6.513   2.529   4.947 -0.1854 -0.0829  0.5186
   43CHL1  H27A 4360   6.520   2.638   4.968 -0.6688  0.5313 -2.1850
   43CHL1  H27B 4361   6.593   2.512   4.872 -0.6793 -3.3971  0.5682
   43CHL1  H27C 4362   6.410   2.506   4.915 -0.7358  1.4126  1.1485
   44CHL1    C3 4363   0.354   3.293   6.519 -0.5972 -0.4524  0.1581
   44CHL1    H3 4364   0.385   3.186   6.527 -0.8947 -0.5365  0.2188
   44CHL1    O3 4365   0.338   3.357   6.646 -0.2603  0.5385 -0.2536
   44CHL1   H3' 4366   0.273   3.305   6.693  1.7407 -1.7616  0.1814
   44CHL1    C4 4367   0.451   3.384   6.435  0.6957  0.3432  0.0417
   44CHL1   H4A 4368   0.406   3.485   6.432 -4.4222 -1.6827 -1.5345
   44CHL1   H4B 4369   0.544   3.392   6.495 -0.2694  0.8252  1.5200
   44CHL1    C5 4370   0.474   3.327   6.302 -0.2816  0.0301 -1.2238
   44CHL1    C6 4371   0.595   3.282   6.262  0.6968 -0.1860  0.4423
   44CHL1    H6 4372   0.677   3.288   6.335  0.9450  2.0818  0.0649
   44CHL1    C7 4373   0.620   3.241   6.115  0.3808 -0.8794 -0.4391
   44CHL1   H7A 4374   0.712   3.288   6.075  1.1747 -3.0442 -1.2943
   44CHL1   H7B 4375   0.645   3.133   6.114  3.6680 -0.2037 -0.8429
   44CHL1    C8 4376   0.497   3.269   6.025  0.0654 -0.1516  0.1017
   44CHL1    H8 4377   0.514   3.376   6.001  0.5368 -0.5594 -1.5143
   44CHL1   C14 4378   0.506   3.190   5.899 -0.5776  0.0861  1.1049
   44CHL1   H14 4379   0.504   3.084   5.933  0.0125 -0.5428 -0.7098
   44CHL1   C15 4380   0.645   3.195   5.831  0.2451 -0.3958  0.4119
   44CHL1  H15A 4381   0.668   3.304   5.831 -0.0485 -0.3283 -0.1481
   44CHL1  H15B 4382   0.725   3.135   5.878  0.1051 -0.5788  0.4180
   44CHL1   C16 4383   0.613   3.148   5.690 -0.0500 -0.7190  0.1779
   44CHL1  H16A 4384   0.642   3.217   5.607 -0.8341 -3.5677 -2.6626
   44CHL1  H16B 4385   0.678   3.060   5.672 -0.1601 -0.7119 -0.2562
   44CHL1   C17 4386   0.459   3.119   5.677  0.2293  0.1965 -0.5348
   44CHL1   H17 4387   0.456   3.014   5.713 -0.0389  0.5907  0.6524
   44CHL1   C13 4388   0.397   3.207   5.799 -0.6234 -0.6695  0.5761
   44CHL1   C18 4389   0.385   3.352   5.749 -0.1871 -0.0702  0.1215
   44CHL1  H18A 4390   0.487   3.388   5.720  1.1705 -2.9015  1.0278
   44CHL1  H18B 4391   0.313   3.359   5.664 -0.3755 -0.2710  0.2653
   44CHL1  H18C 4392   0.348   3.424   5.825 -2.8508 -1.1980 -0.0023
   44CHL1   C12 4393   0.271   3.159   5.868 -0.3664  0.6427 -0.2436
   44CHL1  H12A 4394   0.181   3.162   5.802  0.0103  0.3613 -0.7783
   44CHL1  H12B 4395   0.278   3.049   5.885 -0.1499  0.0254 -3.5659
   44CHL1   C11 4396   0.238   3.241   5.995 -0.9455 -0.6784  0.4924
   44CHL1  H11A 4397   0.195   3.340   5.967 -0.5664 -0.4320  0.7764
   44CHL1  H11B 4398   0.153   3.193   6.048 -0.5885 -1.4907  0.3460
   44CHL1    C9 4399   0.361   3.243   6.092 -0.3163 -0.1784  0.8778
   44CHL1    H9 4400   0.381   3.137   6.121 -0.5010 -0.1652  1.0510
   44CHL1   C10 4401   0.342   3.320   6.223  0.2524 -0.3741 -0.6161
   44CHL1   C19 4402   0.300   3.463   6.187  0.0837  0.3256  0.7410
   44CHL1  H19A 4403   0.311   3.540   6.266  0.9739 -0.8820  1.8295
   44CHL1  H19B 4404   0.367   3.482   6.100 -1.7345 -1.5831 -1.2010
   44CHL1  H19C 4405   0.194   3.460   6.153  0.0963 -0.4400  0.7522
   44CHL1    C1 4406   0.234   3.253   6.305  0.2079 -0.4628  0.0008
   44CHL1   H1A 4407   0.135   3.259   6.255 -0.9070  1.0557  2.2358
   44CHL1   H1B 4408   0.255   3.144   6.308 -2.6163 -1.1377 -1.3764
   44CHL1    C2 4409   0.217   3.300   6.447  0.2396  0.4448 -1.2247
   44CHL1   H2A 4410   0.138   3.240   6.496  0.4948  0.8200 -0.3419
   44CHL1   H2B 4411   0.185   3.407   6.446  1.0207  0.7446  0.6909
   44CHL1   C20 4412   0.407   3.123   5.539  0.3905  0.1272  0.4850
   44CHL1   H20 4413   0.436   3.219   5.491 -0.0914  0.1759  0.2881
   44CHL1   C21 4414   0.248   3.116   5.549  1.2115  0.0091 -0.0077
   44CHL1  H21A 4415   0.189   3.101   5.456 -0.8423 -2.3694  1.5368
   44CHL1  H21B 4416   0.205   3.207   5.596 -2.6506 -0.7766 -1.6641
   44CHL1  H21C 4417   0.225   3.021   5.602 -0.3189  0.9506  1.0988
   44CHL1   C22 4418   0.477   3.018   5.451 -0.7175  0.1793 -0.4936
   44CHL1  H22A 4419   0.586   3.036   5.441 -0.8158  0.0416 -2.0862
   44CHL1  H22B 4420   0.446   2.920   5.493 -2.8827  1.0931  0.1508
   44CHL1   C23 4421   0.421   3.016   5.306  0.1862 -0.6539  0.6175
   44CHL1  H23A 4422   0.462   2.931   5.248  0.0069 -0.1891 -0.2154
   44CHL1  H23B 4423   0.310   3.015   5.309  0.1971 -0.6909  1.3769
   44CHL1   C24 4424   0.447   3.139   5.222  0.6854 -0.5867 -0.5033
   44CHL1  H24A 4425   0.359   3.195   5.183  1.9873  0.6730 -1.7297
   44CHL1  H24B 4426   0.505   3.219   5.273 -1.2895  0.8599 -0.3898
   44CHL1   C25 4427   0.530   3.113   5.093  0.0387  0.0864 -0.5862
   44CHL1   H25 4428   0.616   3.048   5.119 -2.0397 -2.9036 -0.6847
   44CHL1   C26 4429   0.444   3.041   4.984  0.3583 -0.0782  0.5704
   44CHL1  H26A 4430   0.420   2.937   5.013 -0.5123  0.0060  0.1859
   44CHL1  H26B 4431   0.362   3.111   4.956  0.6487  0.5529  1.2722
   44CHL1  H26C 4432   0.519   3.033   4.902  1.8118 -0.9700  1.9267
   44CHL1   C27 4433   0.581   3.243   5.036  0.4474 -0.3415 -0.1612
   44CHL1  H27A 4434   0.503   3.322   5.034  0.8884  0.1268  0.6995
   44CHL1  H27B 4435   0.652   3.289   5.108 -0.2251 -0.2156  0.4330
   44CHL1  H27C 4436   0.615   3.237   4.931 -2.5919 -0.1158 -1.2368
   45CHL1    C3 4437   1.039   4.211   6.694  0.1150 -0.5785 -0.0716
   45CHL1    H3 4438   1.088   4.310   6.682  0.0165 -0.4237  0.7973
   45CHL1    O3 4439   1.010   4.190   6.835 -0.7745 -0.0047  1.1035
   45CHL1   H3' 4440   0.952   4.263   6.860  0.2169  0.3891  2.3379
   45CHL1    C4 4441   0.908   4.214   6.614 -0.3960  0.4632  0.2945
   45CHL1   H4A 4442   0.863   4.114   6.634  1.5647 -0.2253  1.5850
   45CHL1   H4B 4443   0.836   4.290   6.651  0.0263  1.1594 -0.2859
   45CHL1    C5 4444   0.923   4.210   6.464 -0.2530  0.0358  0.4160
   45CHL1    C6 4445   0.852   4.294   6.385 -0.2407 -0.0512 -0.3910
   45CHL1    H6 4446   0.773   4.356   6.430  1.4622  1.2549  0.9523
   45CHL1    C7 4447   0.872   4.298   6.237  0.7107 -0.4501 -0.4439
   45CHL1   H7A 4448   0.777   4.320   6.184  0.8521  2.4242  0.3236
   45CHL1   H7B 4449   0.928   4.393   6.218 -2.5501  1.4445 -1.2966
   45CHL1    C8 4450   0.945   4.180   6.180  0.2520 -0.0727  0.2728
   45CHL1    H8 4451   0.876   4.093   6.182  0.2339 -0.0554  2.2888
   45CHL1   C14 4452   0.993   4.202   6.037  0.0675  0.2704  0.0707
   45CHL1   H14 4453   1.057   4.292   6.033 -0.3334  0.5214 -2.1207
   45CHL1   C15 4454   0.881   4.241   5.939 -0.1496  0.8161  0.4389
   45CHL1  H15A 4455   0.802   4.173   5.976  1.6334  0.2985  3.5603
   45CHL1  H15B 4456   0.861   4.351   5.943  0.6736  1.0077 -0.3439
   45CHL1   C16 4457   0.946   4.218   5.802 -0.9030 -0.0885 -0.6343
   45CHL1  H16A 4458   0.893   4.151   5.730  0.6846 -0.4170 -1.5528
   45CHL1  H16B 4459   0.977   4.310   5.749  0.6278 -0.2158  0.0036
   45CHL1   C17 4460   1.079   4.148   5.824  0.7042  0.4754  0.2576
   45CHL1   H17 4461   1.164   4.217   5.841 -0.1101  1.7721 -0.6645
   45CHL1   C13 4462   1.063   4.088   5.962 -0.6448  0.5345  0.3460
   45CHL1   C18 4463   0.970   3.964   5.960  0.2420  0.2030  0.7878
   45CHL1  H18A 4464   0.941   3.945   6.066  2.2555 -0.6484  1.2424
   45CHL1  H18B 4465   0.880   3.976   5.896  0.1891 -1.2006  0.5608
   45CHL1  H18C 4466   1.022   3.872   5.924 -0.6209 -0.0404  0.1282
   45CHL1   C12 4467   1.195   4.062   6.037  0.1810 -1.1671 -0.5126
   45CHL1  H12A 4468   1.236   3.960   6.019  0.1066 -1.4693  0.9152
   45CHL1  H12B 4469   1.269   4.143   6.017 -1.6246  1.0999  1.2856
   45CHL1   C11 4470   1.177   4.051   6.193  0.4427 -0.3694  0.1132
   45CHL1  H11A 4471   1.133   3.951   6.207  0.6033 -0.5800 -0.7990
   45CHL1  H11B 4472   1.282   4.049   6.231 -0.3797  0.2714  2.6361
   45CHL1    C9 4473   1.075   4.148   6.262  0.7028  0.2217  1.2295
   45CHL1    H9 4474   1.139   4.239   6.268  1.0864 -0.0338  1.0393
   45CHL1   C10 4475   1.038   4.123   6.405 -0.0342  0.3744 -0.5217
   45CHL1   C19 4476   0.982   3.977   6.421 -0.8109 -0.1067 -0.6478
   45CHL1  H19A 4477   0.933   3.948   6.516 -0.9111  1.1117 -0.3036
   45CHL1  H19B 4478   0.913   3.950   6.339  0.3858 -0.9554 -1.4192
   45CHL1  H19C 4479   1.060   3.898   6.412 -1.6395 -1.0565  0.3164
   45CHL1    C1 4480   1.165   4.118   6.490  0.1570  0.2531 -0.0393
   45CHL1   H1A 4481   1.234   4.038   6.457  0.8317  0.7130  0.2470
   45CHL1   H1B 4482   1.224   4.211   6.480  0.4629  0.2258  1.3966
   45CHL1    C2 4483   1.136   4.103   6.641 -0.3297 -0.0065 -0.5765
   45CHL1   H2A 4484   1.232   4.125   6.694 -0.5628 -1.1079  0.3282
   45CHL1   H2B 4485   1.100   4.002   6.669 -2.4918  0.9820  0.4287
   45CHL1   C20 4486   1.124   4.064   5.706  0.3720 -0.2629  0.2816
   45CHL1   H20 4487   1.053   3.980   5.695 -0.9458  0.9863 -1.2078
   45CHL1   C21 4488   1.259   4.001   5.721 -0.2371 -0.3282 -0.2746
   45CHL1  H21A 4489   1.247   3.902   5.769 -1.8959 -0.7282 -1.4786
   45CHL1  H21B 4490   1.332   4.057   5.784  1.6344 -1.3889 -1.4024
   45CHL1  H21C 4491   1.295   3.979   5.619 -2.3162 -1.3323 -0.8398
   45CHL1   C22 4492   1.112   4.127   5.559 -1.4461  0.5026 -0.0053
   45CHL1  H22A 4493   1.150   4.057   5.481 -2.0707  2.1307 -1.8614
   45CHL1  H22B 4494   1.007   4.152   5.531 -3.4898 -3.3617  3.1920
   45CHL1   C23 4495   1.207   4.244   5.532 -0.0038  0.1796  0.6002
   45CHL1  H23A 4496   1.181   4.316   5.613 -2.2487  1.3654 -1.0590
   45CHL1  H23B 4497   1.311   4.213   5.555  0.3278  0.4654 -0.4561
   45CHL1   C24 4498   1.193   4.309   5.386  0.2678 -0.1880 -0.5456
   45CHL1  H24A 4499   1.225   4.242   5.304 -0.7550 -0.9374 -0.3561
   45CHL1  H24B 4500   1.088   4.343   5.371  1.0315  1.1281 -3.4807
   45CHL1   C25 4501   1.276   4.437   5.374 -0.7025 -0.5526  0.3857
   45CHL1   H25 4502   1.257   4.497   5.465 -2.1210  1.4073 -1.1085
   45CHL1   C26 4503   1.430   4.407   5.369  0.2877  0.2013 -0.0107
   45CHL1  H26A 4504   1.493   4.495   5.344 -0.2152  0.6490  0.2926
   45CHL1  H26B 4505   1.472   4.374   5.467  0.4914  0.5451  0.0169
   45CHL1  H26C 4506   1.446   4.336   5.284 -1.9300  0.0041 -0.3133
   45CHL1   C27 4507   1.242   4.530   5.260  0.8413  0.9854  0.2692
   45CHL1  H27A 4508   1.134   4.556   5.257 -0.1595 -2.7224 -0.2120
   45CHL1  H27B 4509   1.303   4.622   5.276  0.2257  1.0608  2.3380
   45CHL1  H27C 4510   1.273   4.486   5.163 -1.8545  0.5129 -0.4476
   46CHL1    C3 4511   2.747   0.777   6.359 -0.5144  0.0384 -0.3826
   46CHL1    H3 4512   2.720   0.877   6.319 -1.5148 -0.7632 -1.7838
   46CHL1    O3 4513   2.695   0.779   6.494  0.0152 -0.2563  0.2621
   46CHL1   H3' 4514   2.773   0.776   6.549  0.2931  0.9913 -0.0406
   46CHL1    C4 4515   2.691   0.668   6.271 -0.1804 -0.6342  0.8497
   46CHL1   H4A 4516   2.714   0.564   6.302  0.5910 -1.6282 -2.6604
   46CHL1   H4B 4517   2.581   0.684   6.267  0.0971  1.7953  1.3286
   46CHL1    C5 4518   2.756   0.674   6.131 -0.4416  0.6195 -0.3588
   46CHL1    C6 4519   2.675   0.680   6.029  0.2212 -0.3272 -0.2932
   46CHL1    H6 4520   2.566   0.685   6.045 -0.0047  5.1869 -1.5403
   46CHL1    C7 4521   2.720   0.683   5.889 -0.4678  0.7671  0.1541
   46CHL1   H7A 4522   2.652   0.636   5.815  0.9741 -0.1133 -0.6787
   46CHL1   H7B 4523   2.730   0.790   5.861 -0.4805  1.0343  1.1673
   46CHL1    C8 4524   2.867   0.633   5.869 -0.3388  0.0533 -1.3559
   46CHL1    H8 4525   2.865   0.523   5.882 -0.2559  0.2375  0.4751
   46CHL1   C14 4526   2.916   0.671   5.732 -0.2652 -0.3662 -0.1033
   46CHL1   H14 4527   2.901   0.781   5.729 -0.6134 -0.4039  0.1266
   46CHL1   C15 4528   2.850   0.611   5.607  0.4368 -0.3484  0.8224
   46CHL1  H15A 4529   2.812   0.509   5.626  0.2564 -0.4227  0.0955
   46CHL1  H15B 4530   2.760   0.676   5.595  1.2158  0.7902  0.9961
   46CHL1   C16 4531   2.956   0.622   5.494 -0.1867 -0.3585 -0.2187
   46CHL1  H16A 4532   2.950   0.529   5.433 -2.3996 -0.9301  0.7901
   46CHL1  H16B 4533   2.923   0.705   5.428  0.3802 -0.1594 -0.2545
   46CHL1   C17 4534   3.086   0.666   5.560  0.0061  0.1247 -0.1050
   46CHL1   H17 4535   3.081   0.777   5.550  0.6671  0.2862  1.1906
   46CHL1   C13 4536   3.060   0.630   5.705 -0.5068 -0.3088 -0.2886
   46CHL1   C18 4537   3.074   0.475   5.728  0.3149  0.0802  0.4344
   46CHL1  H18A 4538   3.046   0.454   5.833 -1.9184  2.0769  0.3252
   46CHL1  H18B 4539   3.004   0.419   5.663 -0.4298  3.4043 -1.8852
   46CHL1  H18C 4540   3.180   0.445   5.716  0.2941 -0.3058  1.1462
   46CHL1   C12 4541   3.144   0.710   5.803  0.0290 -0.5235 -0.4010
   46CHL1  H12A 4542   3.254   0.695   5.797  0.5761  2.1911  1.0231
   46CHL1  H12B 4543   3.138   0.818   5.774  1.3495  0.4961  2.7236
   46CHL1   C11 4544   3.097   0.687   5.951 -0.1965 -0.2258  0.2974
   46CHL1  H11A 4545   3.134   0.584   5.971  0.3717 -0.1419 -0.2854
   46CHL1  H11B 4546   3.148   0.759   6.019 -1.7547  1.6265 -0.4015
   46CHL1    C9 4547   2.947   0.708   5.979 -0.2691  0.5863 -0.0845
   46CHL1    H9 4548   2.923   0.816   5.977  0.3456  0.7186 -0.6530
   46CHL1   C10 4549   2.904   0.668   6.119  0.4850 -0.6179  0.4032
   46CHL1   C19 4550   2.948   0.520   6.154 -0.2774  0.6804  0.3029
   46CHL1  H19A 4551   2.880   0.451   6.099 -1.1956  1.4781  0.4026
   46CHL1  H19B 4552   3.052   0.493   6.128  0.0551 -0.1726  2.3068
   46CHL1  H19C 4553   2.927   0.494   6.260  1.9002 -0.2849  0.5445
   46CHL1    C1 4554   2.966   0.769   6.222  0.2270  0.2482  0.3572
   46CHL1   H1A 4555   3.076   0.754   6.230  0.1759  0.1013  0.8210
   46CHL1   H1B 4556   2.948   0.874   6.189  1.7107  0.4756  0.2070
   46CHL1    C2 4557   2.901   0.758   6.364 -0.0662 -0.0459  0.5893
   46CHL1   H2A 4558   2.955   0.835   6.424  2.1243 -0.9960 -0.0710
   46CHL1   H2B 4559   2.926   0.662   6.415  1.8409  0.5682  0.8787
   46CHL1   C20 4560   3.207   0.601   5.498  0.8949  0.0643 -0.3308
   46CHL1   H20 4561   3.200   0.491   5.509 -0.2562  0.0258 -1.3002
   46CHL1   C21 4562   3.341   0.639   5.566  0.1498  0.1771  0.0528
   46CHL1  H21A 4563   3.418   0.584   5.507  0.6985 -1.3310  2.0708
   46CHL1  H21B 4564   3.347   0.602   5.670  0.7212 -0.3601 -0.1638
   46CHL1  H21C 4565   3.349   0.749   5.557 -1.8592  0.4028  0.5964
   46CHL1   C22 4566   3.213   0.630   5.343 -0.0595  0.6570 -0.0276
   46CHL1  H22A 4567   3.302   0.572   5.307  0.4097  0.9276  0.6743
   46CHL1  H22B 4568   3.125   0.599   5.282  0.7049  0.5842 -1.1401
   46CHL1   C23 4569   3.227   0.773   5.303  0.3953 -0.3399 -0.2368
   46CHL1  H23A 4570   3.134   0.828   5.330 -0.8783 -1.6961 -1.6270
   46CHL1  H23B 4571   3.307   0.823   5.361  0.2461  0.6302 -0.8351
   46CHL1   C24 4572   3.255   0.820   5.155 -0.1977 -0.1411  0.2701
   46CHL1  H24A 4573   3.177   0.774   5.090 -0.0362  0.2562 -0.2107
   46CHL1  H24B 4574   3.251   0.931   5.146 -0.0563 -0.1974 -0.6264
   46CHL1   C25 4575   3.401   0.789   5.094 -0.2869 -0.0121 -0.0560
   46CHL1   H25 4576   3.416   0.680   5.108 -1.7561 -0.1446  0.6733
   46CHL1   C26 4577   3.400   0.830   4.947 -0.0108  0.2184 -0.3688
   46CHL1  H26A 4578   3.369   0.733   4.901  0.1059 -1.2074  2.3509
   46CHL1  H26B 4579   3.322   0.902   4.915  0.8044  1.7988  1.0519
   46CHL1  H26C 4580   3.502   0.851   4.910  0.4870 -0.7823  0.3644
   46CHL1   C27 4581   3.516   0.876   5.160 -0.7257 -0.1247  0.1430
   46CHL1  H27A 4582   3.613   0.852   5.112  0.3290  1.4290  1.4061
   46CHL1  H27B 4583   3.489   0.983   5.142  2.0898  0.6217 -0.0928
   46CHL1  H27C 4584   3.532   0.857   5.268  0.6769 -2.0493 -0.3509
   47CHL1    C3 4585   4.402   1.464   6.576  0.3313  0.2044 -0.4543
   47CHL1    H3 4586   4.438   1.362   6.551 -0.5304 -0.5153  1.1082
   47CHL1    O3 4587   4.371   1.481   6.712 -0.0249 -0.4887 -0.0552
   47CHL1   H3' 4588   4.449   1.454   6.762 -0.5852  0.5008  1.4230
   47CHL1    C4 4589   4.501   1.571   6.521 -0.5595  0.0485 -0.0219
   47CHL1   H4A 4590   4.478   1.679   6.538  0.3057  0.6945 -2.6088
   47CHL1   H4B 4591   4.587   1.549   6.588 -0.0063 -2.0817 -1.3273
   47CHL1    C5 4592   4.525   1.559   6.376 -0.0615  0.6227  0.2048
   47CHL1    C6 4593   4.648   1.538   6.335  0.3867 -0.1809  0.7433
   47CHL1    H6 4594   4.728   1.544   6.410 -0.7167 -2.4084  2.2023
   47CHL1    C7 4595   4.698   1.539   6.187 -0.4384  0.1589 -0.4301
   47CHL1   H7A 4596   4.776   1.617   6.174  0.9334 -1.3079 -1.3080
   47CHL1   H7B 4597   4.738   1.436   6.176 -0.7744 -0.6804  4.1395
   47CHL1    C8 4598   4.576   1.565   6.093 -0.2693 -0.4148 -0.1825
   47CHL1    H8 4599   4.567   1.675   6.089  0.0058 -0.4303 -2.2675
   47CHL1   C14 4600   4.610   1.523   5.954  0.2465  0.0188 -0.0459
   47CHL1   H14 4601   4.614   1.412   5.962 -1.1721 -0.3028 -2.5321
   47CHL1   C15 4602   4.744   1.560   5.895  0.2655  0.2488 -0.3013
   47CHL1  H15A 4603   4.760   1.667   5.919 -0.9703  0.9849 -2.4978
   47CHL1  H15B 4604   4.830   1.498   5.929  1.2261  0.3862 -2.2958
   47CHL1   C16 4605   4.729   1.543   5.741  0.6317 -0.5088  0.1198
   47CHL1  H16A 4606   4.764   1.642   5.705  1.1336 -0.5564  0.4624
   47CHL1  H16B 4607   4.783   1.459   5.693 -1.7089 -0.6847 -2.4838
   47CHL1   C17 4608   4.580   1.506   5.719  0.2788  0.1669  0.3275
   47CHL1   H17 4609   4.580   1.395   5.727 -1.0880  0.0711 -0.7250
   47CHL1   C13 4610   4.508   1.551   5.844  0.1106  0.6925  0.5421
   47CHL1   C18 4611   4.477   1.695   5.838  0.6633 -0.0505 -0.0567
   47CHL1  H18A 4612   4.398   1.721   5.764  0.4804 -1.5993 -0.4274
   47CHL1  H18B 4613   4.440   1.737   5.934  1.3586  1.2368 -0.3367
   47CHL1  H18C 4614   4.573   1.751   5.836  1.6046 -1.5933  0.5593
   47CHL1   C12 4615   4.387   1.464   5.895  0.2176  0.0485 -0.7860
   47CHL1  H12A 4616   4.301   1.479   5.826  0.6604 -1.0829 -1.6154
   47CHL1  H12B 4617   4.412   1.356   5.888  1.6943  0.0173  2.7572
   47CHL1   C11 4618   4.333   1.495   6.037  0.2954  0.0983  0.3427
   47CHL1  H11A 4619   4.291   1.598   6.036 -0.6597 -0.2778 -0.0497
   47CHL1  H11B 4620   4.245   1.431   6.061  0.0752  0.0455 -0.5493
   47CHL1    C9 4621   4.445   1.496   6.145 -0.8820  0.5186 -0.9698
   47CHL1    H9 4622   4.478   1.391   6.163 -0.6133  0.4741 -1.6657
   47CHL1   C10 4623   4.398   1.555   6.281  0.0393 -0.1783  0.7622
   47CHL1   C19 4624   4.331   1.691   6.263  0.1751 -0.0299  0.5192
   47CHL1  H19A 4625   4.314   1.749   6.356  1.7951  0.9770  0.2139
   47CHL1  H19B 4626   4.388   1.750   6.188 -0.8258  0.2439 -0.0467
   47CHL1  H19C 4627   4.228   1.678   6.223 -1.0832  3.3732  2.2012
   47CHL1    C1 4628   4.295   1.460   6.345  0.3974 -0.0311 -0.3318
   47CHL1   H1A 4629   4.204   1.468   6.282  0.1466 -0.7813 -0.0765
   47CHL1   H1B 4630   4.326   1.354   6.330 -1.4247 -0.7220  0.4421
   47CHL1    C2 4631   4.266   1.479   6.491 -0.5065  0.3260  0.5797
   47CHL1   H2A 4632   4.189   1.409   6.530 -0.8608  0.9296  0.9810
   47CHL1   H2B 4633   4.239   1.587   6.492 -0.2997  0.4915 -2.0944
   47CHL1   C20 4634   4.525   1.547   5.585  0.1250 -0.5439  0.5447
   47CHL1   H20 4635   4.501   1.655   5.591  1.3408 -0.1194 -1.2606
   47CHL1   C21 4636   4.403   1.465   5.547  0.4969  1.0742 -0.1553
   47CHL1  H21A 4637   4.352   1.492   5.452  1.5075  0.4044 -0.9089
   47CHL1  H21B 4638   4.326   1.483   5.625  0.3949 -1.3192  0.3830
   47CHL1  H21C 4639   4.420   1.355   5.551 -0.2078  0.9239 -0.8377
   47CHL1   C22 4640   4.636   1.551   5.479  0.0714  0.0642  0.2053
   47CHL1  H22A 4641   4.695   1.644   5.491 -0.4262  0.5999 -1.2556
   47CHL1  H22B 4642   4.698   1.460   5.495 -1.3610 -1.1321 -0.7249
   47CHL1   C23 4643   4.590   1.565   5.334 -0.8193 -0.3990 -0.1108
   47CHL1  H23A 4644   4.496   1.509   5.318  0.0027 -1.2427 -2.3717
   47CHL1  H23B 4645   4.552   1.669   5.328 -1.4260 -0.6104 -0.0024
   47CHL1   C24 4646   4.698   1.533   5.232  0.0554  0.0681 -0.3178
   47CHL1  H24A 4647   4.793   1.588   5.247  0.8384 -1.3925  0.2383
   47CHL1  H24B 4648   4.721   1.428   5.261 -2.3180  0.2830  2.9635
   47CHL1   C25 4649   4.639   1.556   5.089  1.0929 -0.4008 -0.3540
   47CHL1   H25 4650   4.554   1.487   5.069  0.4621  0.5203 -0.8983
   47CHL1   C26 4651   4.597   1.697   5.062  0.1436 -0.4813  0.1650
   47CHL1  H26A 4652   4.596   1.712   4.952  0.0212 -0.8050  0.1209
   47CHL1  H26B 4653   4.494   1.714   5.101 -0.2808  0.0718 -1.1632
   47CHL1  H26C 4654   4.665   1.778   5.096 -0.6059 -0.1924  1.0140
   47CHL1   C27 4655   4.757   1.526   4.992 -0.1111  0.1317 -0.2421
   47CHL1  H27A 4656   4.786   1.419   4.988 -0.5543  0.0434 -1.5942
   47CHL1  H27B 4657   4.738   1.561   4.889 -0.7289  3.0079  0.7510
   47CHL1  H27C 4658   4.845   1.586   5.026  0.4916 -0.3031 -1.0104
   48CHL1    C3 4659   0.535   0.044   6.645 -0.9176 -0.1598 -0.1335
   48CHL1    H3 4660   0.561  -0.056   6.683  0.4654 -0.8286 -2.5906
   48CHL1    O3 4661   0.463   0.110   6.750 -0.3137 -0.0624  0.3308
   48CHL1   H3' 4662   0.455   0.203   6.726 -0.7479  0.0875  1.0271
   48CHL1    C4 4663   0.658   0.120   6.604  0.4804  0.0838 -0.6062
   48CHL1   H4A 4664   0.618   0.220   6.576 -2.6346 -1.2299 -1.2855
   48CHL1   H4B 4665   0.720   0.138   6.694  0.9427  1.0749 -1.1104
   48CHL1    C5 4666   0.732   0.056   6.489 -1.1549 -0.3808  0.5880
   48CHL1    C6 4667   0.856   0.020   6.497  0.1202  0.0377  0.0187
   48CHL1    H6 4668   0.912   0.031   6.591 -0.7436  1.6311  0.3669
   48CHL1    C7 4669   0.927  -0.034   6.375 -0.4966  0.1406  0.1066
   48CHL1   H7A 4670   1.031   0.004   6.363 -0.2593 -0.7602 -0.7970
   48CHL1   H7B 4671   0.919  -0.141   6.401 -0.2163  0.6614  2.6008
   48CHL1    C8 4672   0.855  -0.028   6.242  0.2072  0.1342  0.1560
   48CHL1    H8 4673   0.869   0.072   6.195  1.7449 -0.4842 -0.7701
   48CHL1   C14 4674   0.908  -0.126   6.138  0.2491 -0.6476 -0.4837
   48CHL1   H14 4675   0.885  -0.228   6.176 -2.9735 -0.0079 -0.4226
   48CHL1   C15 4676   1.060  -0.138   6.104 -1.2062  0.0833  0.3731
   48CHL1  H15A 4677   1.110  -0.038   6.101  0.9791 -0.9845 -0.8986
   48CHL1  H15B 4678   1.119  -0.197   6.177  0.4737 -0.1895 -1.1177
   48CHL1   C16 4679   1.059  -0.210   5.967 -0.1890  0.1160 -0.8490
   48CHL1  H16A 4680   1.125  -0.156   5.896  0.6140  0.9591  0.5126
   48CHL1  H16B 4681   1.089  -0.317   5.978 -0.8221  0.0586  0.5844
   48CHL1   C17 4682   0.910  -0.221   5.922  0.0502 -0.7248  0.1865
   48CHL1   H17 4683   0.883  -0.323   5.959  2.1471 -1.6075 -0.6006
   48CHL1   C13 4684   0.834  -0.119   6.008  0.3488  0.0782 -0.1456
   48CHL1   C18 4685   0.852   0.021   5.943 -0.0014 -0.2873 -0.4294
   48CHL1  H18A 4686   0.959   0.048   5.944  0.0649 -0.4058  1.7141
   48CHL1  H18B 4687   0.800   0.029   5.845  1.1795 -0.9807 -1.1367
   48CHL1  H18C 4688   0.804   0.098   6.008 -0.1186 -1.3824  0.8389
   48CHL1   C12 4689   0.685  -0.146   6.023  0.2339  1.2594  0.3229
   48CHL1  H12A 4690   0.633  -0.135   5.926  1.4464  0.2226 -0.4751
   48CHL1  H12B 4691   0.673  -0.246   6.070  1.1914  0.9812 -0.0034
   48CHL1   C11 4692   0.622  -0.045   6.122 -0.7154  0.1484 -0.1562
   48CHL1  H11A 4693   0.606   0.054   6.075 -0.5238 -0.0664 -0.6818
   48CHL1  H11B 4694   0.519  -0.084   6.139 -0.3618 -0.3536  0.9532
   48CHL1    C9 4695   0.706  -0.047   6.255  0.3115 -0.1571 -0.1744
   48CHL1    H9 4696   0.703  -0.150   6.298 -0.7446  0.8276  2.2069
   48CHL1   C10 4697   0.641   0.036   6.368 -0.8084 -0.4874 -0.0304
   48CHL1   C19 4698   0.606   0.171   6.300  0.1925  0.1793 -0.6142
   48CHL1  H19A 4699   0.516   0.157   6.236  0.1638 -2.9788 -0.0092
   48CHL1  H19B 4700   0.582   0.247   6.377 -1.9229  0.9739 -1.9760
   48CHL1  H19C 4701   0.695   0.208   6.244  1.1062  0.5165  0.9959
   48CHL1    C1 4702   0.520  -0.040   6.408  0.4348  0.9708  0.5215
   48CHL1   H1A 4703   0.456  -0.067   6.321  1.6176  0.5672 -0.2489
   48CHL1   H1B 4704   0.541  -0.137   6.457 -0.1952 -0.2853 -1.5696
   48CHL1    C2 4705   0.440   0.022   6.527 -0.1813 -0.1718 -0.9590
   48CHL1   H2A 4706   0.360  -0.046   6.564  0.5209 -0.9360 -0.8283
   48CHL1   H2B 4707   0.389   0.112   6.487 -1.1371 -1.4043 -2.6173
   48CHL1   C20 4708   0.897  -0.223   5.768  0.2618 -0.0980  0.1623
   48CHL1   H20 4709   0.925  -0.121   5.734  0.8917 -1.2019 -3.0117
   48CHL1   C21 4710   0.754  -0.260   5.720  0.4643 -0.9773 -0.1485
   48CHL1  H21A 4711   0.729  -0.356   5.769 -0.7398 -0.8945 -0.5643
   48CHL1  H21B 4712   0.684  -0.175   5.732  2.7765  1.1779 -0.9540
   48CHL1  H21C 4713   0.752  -0.278   5.610 -1.3545 -3.9644  0.2780
   48CHL1   C22 4714   1.001  -0.309   5.691  0.2069 -0.5478 -0.0098
   48CHL1  H22A 4715   0.978  -0.300   5.583  2.0548  0.3479 -0.3649
   48CHL1  H22B 4716   1.103  -0.268   5.707  0.2321 -1.1335  1.4890
   48CHL1   C23 4717   1.001  -0.458   5.743 -0.2121 -0.0172  0.0821
   48CHL1  H23A 4718   1.024  -0.466   5.852 -0.2850 -0.6104  0.0581
   48CHL1  H23B 4719   0.899  -0.495   5.722 -1.3039  3.3818 -1.2722
   48CHL1   C24 4720   1.117  -0.534   5.671 -0.3759  0.4712  0.0701
   48CHL1  H24A 4721   1.111  -0.499   5.565 -0.7686  0.9436  0.2418
   48CHL1  H24B 4722   1.208  -0.501   5.724 -1.0085 -0.2600  1.6800
   48CHL1   C25 4723   1.115  -0.685   5.681  0.1252 -0.3050 -0.6680
   48CHL1   H25 4724   1.200  -0.722   5.620  1.1386 -0.5416  0.8337
   48CHL1   C26 4725   1.144  -0.727   5.833 -0.0933  0.3834  0.1277
   48CHL1  H26A 4726   1.052  -0.693   5.884 -1.5161  2.4216 -3.4867
   48CHL1  H26B 4727   1.143  -0.838   5.841 -0.7392  0.4409  0.9269
   48CHL1  H26C 4728   1.235  -0.677   5.873 -0.2829  1.8836 -1.1964
   48CHL1   C27 4729   0.981  -0.749   5.638 -0.2268 -0.2721  0.5289
   48CHL1  H27A 4730   0.958  -0.716   5.534  0.5940 -2.1273 -0.2961
   48CHL1  H27B 4731   0.992  -0.859   5.629  1.7886 -0.1327  0.7878
   48CHL1  H27C 4732   0.903  -0.726   5.713 -1.4649  0.1551 -0.8500
   49CHL1    C3 4733   0.311   0.214   3.370  0.1198  0.2437 -0.0415
   49CHL1    H3 4734   0.324   0.106   3.393  0.9942  0.1161 -1.0572
   49CHL1    O3 4735   0.276   0.233   3.233 -0.1889  0.8109 -0.2195
   49CHL1   H3' 4736   0.331   0.306   3.202  0.1565  0.4412 -0.4956
   49CHL1    C4 4737   0.196   0.266   3.463 -0.0963  0.5390 -0.0692
   49CHL1   H4A 4738   0.169   0.371   3.438  1.3607  0.8999 -0.2198
   49CHL1   H4B 4739   0.102   0.210   3.439  0.9078  0.1195 -3.5980
   49CHL1    C5 4740   0.236   0.254   3.608  0.3901  0.3402  0.0675
   49CHL1    C6 4741   0.168   0.174   3.690  0.0712  0.3126  0.3626
   49CHL1    H6 4742   0.080   0.120   3.654 -1.7832  1.0922  3.3686
   49CHL1    C7 4743   0.196   0.153   3.838  0.8568 -0.3067 -0.3634
   49CHL1   H7A 4744   0.102   0.189   3.885  1.4018 -0.3841  0.8036
   49CHL1   H7B 4745   0.209   0.048   3.869 -0.6315 -0.2825  0.4493
   49CHL1    C8 4746   0.313   0.253   3.891 -0.3771  0.4232 -0.1908
   49CHL1    H8 4747   0.258   0.344   3.925  1.4428  1.4318  0.1923
   49CHL1   C14 4748   0.368   0.196   4.016  0.1674  0.0580 -0.2212
   49CHL1   H14 4749   0.439   0.117   3.983  0.6595  0.6399 -0.5718
   49CHL1   C15 4750   0.279   0.141   4.135  0.0209  0.1187 -0.7628
   49CHL1  H15A 4751   0.199   0.212   4.168  0.2733 -0.0952  0.3532
   49CHL1  H15B 4752   0.224   0.046   4.120  0.6725 -0.0755 -2.0573
   49CHL1   C16 4753   0.382   0.131   4.244 -0.1337 -0.1602  0.1052
   49CHL1  H16A 4754   0.351   0.177   4.340  0.4808  2.7691 -0.9799
   49CHL1  H16B 4755   0.397   0.025   4.273 -1.3079 -0.2786  0.3414
   49CHL1   C17 4756   0.510   0.213   4.203  0.0596 -0.1831 -0.1684
   49CHL1   H17 4757   0.572   0.130   4.162 -0.9605 -0.9218 -0.2449
   49CHL1   C13 4758   0.469   0.292   4.076 -0.3008  0.0741  0.2391
   49CHL1   C18 4759   0.392   0.418   4.123  1.1283 -0.6167 -0.6044
   49CHL1  H18A 4760   0.459   0.495   4.166 -0.3506  2.0267 -2.7514
   49CHL1  H18B 4761   0.333   0.471   4.046  1.5078 -0.7603 -0.9976
   49CHL1  H18C 4762   0.321   0.390   4.204  2.8828  2.1670  2.1125
   49CHL1   C12 4763   0.591   0.332   3.987  0.1990 -0.0562 -0.1633
   49CHL1  H12A 4764   0.661   0.410   4.022 -0.1957  0.0798  0.3368
   49CHL1  H12B 4765   0.650   0.243   3.957  0.6450  0.4438 -0.7918
   49CHL1   C11 4766   0.528   0.379   3.848  0.2406  0.1616 -0.1876
   49CHL1  H11A 4767   0.486   0.481   3.844 -0.5220 -0.1838 -2.2335
   49CHL1  H11B 4768   0.622   0.388   3.789  0.5112  2.5740  0.5219
   49CHL1    C9 4769   0.418   0.282   3.792  0.0999 -0.0271  0.2101
   49CHL1    H9 4770   0.466   0.182   3.781 -1.7617 -1.0422  0.7792
   49CHL1   C10 4771   0.360   0.330   3.650  0.5153 -0.4868 -0.2404
   49CHL1   C19 4772   0.321   0.480   3.657  0.0257  0.2810  0.6617
   49CHL1  H19A 4773   0.418   0.534   3.649  0.1173 -0.0734 -0.9831
   49CHL1  H19B 4774   0.273   0.525   3.567  0.7321  0.3052  0.2927
   49CHL1  H19C 4775   0.266   0.492   3.753  0.3925 -0.7189  1.0028
   49CHL1    C1 4776   0.468   0.291   3.550  0.6059  0.0703 -0.2307
   49CHL1   H1A 4777   0.558   0.355   3.566  0.7387  0.4546 -2.2283
   49CHL1   H1B 4778   0.499   0.190   3.582 -0.6453  0.4828  2.4995
   49CHL1    C2 4779   0.431   0.296   3.401 -0.8367  0.2828  0.3091
   49CHL1   H2A 4780   0.515   0.257   3.340  2.3253  3.7541  2.0060
   49CHL1   H2B 4781   0.430   0.401   3.364  1.4940 -0.0296 -0.8529
   49CHL1   C20 4782   0.595   0.286   4.310  0.2391 -0.1050  0.4736
   49CHL1   H20 4783   0.639   0.369   4.250 -2.0066 -0.2023 -1.4963
   49CHL1   C21 4784   0.718   0.197   4.335  0.5340  0.0515 -0.5170
   49CHL1  H21A 4785   0.766   0.171   4.238  0.2547  1.5994 -1.0830
   49CHL1  H21B 4786   0.687   0.103   4.385  0.0218 -1.1426 -2.9115
   49CHL1  H21C 4787   0.788   0.261   4.393  0.0883  1.8600 -1.8917
   49CHL1   C22 4788   0.522   0.322   4.442  0.2382  0.4495 -0.7360
   49CHL1  H22A 4789   0.431   0.384   4.423 -0.6106 -1.1981 -2.4299
   49CHL1  H22B 4790   0.480   0.235   4.497  1.1011  0.0939 -0.6239
   49CHL1   C23 4791   0.594   0.411   4.549 -0.2855 -0.0983  1.2222
   49CHL1  H23A 4792   0.693   0.369   4.576  0.5316 -0.0085 -1.3823
   49CHL1  H23B 4793   0.625   0.499   4.488 -0.7852 -1.3802 -0.9752
   49CHL1   C24 4794   0.502   0.447   4.669 -0.3660  0.1938  0.8403
   49CHL1  H24A 4795   0.408   0.497   4.637 -1.2344 -1.8255  0.1025
   49CHL1  H24B 4796   0.473   0.351   4.717  0.9537 -0.4150  0.4720
   49CHL1   C25 4797   0.566   0.527   4.780 -0.2243  1.2632  0.6162
   49CHL1   H25 4798   0.626   0.614   4.745  1.0741  0.3059  0.3895
   49CHL1   C26 4799   0.460   0.582   4.868  0.5945 -0.4030 -0.1090
   49CHL1  H26A 4800   0.511   0.642   4.947 -1.9975  0.8303  0.7289
   49CHL1  H26B 4801   0.382   0.639   4.814  1.1816 -0.9045 -1.5206
   49CHL1  H26C 4802   0.409   0.500   4.923  0.6031  0.0647  0.6111
   49CHL1   C27 4803   0.670   0.434   4.858  0.5176  0.2606 -0.1192
   49CHL1  H27A 4804   0.615   0.338   4.874  0.7207  0.2129  0.2983
   49CHL1  H27B 4805   0.763   0.405   4.806  0.9477 -0.5862  1.0783
   49CHL1  H27C 4806   0.698   0.478   4.956  0.2459 -1.4594  0.7822
   50CHL1    C3 4807   0.251   0.958   3.650 -0.2291  0.2070  1.1866
   50CHL1    H3 4808   0.355   0.919   3.647 -0.1680  0.2860  2.0230
   50CHL1    O3 4809   0.190   0.960   3.524  0.4098  0.3160 -0.5549
   50CHL1   H3' 4810   0.213   0.877   3.481 -0.2622  0.1931 -0.6967
   50CHL1    C4 4811   0.174   0.861   3.740 -0.0021 -0.4256 -0.0055
   50CHL1   H4A 4812   0.066   0.888   3.728  0.2768  0.7065 -0.1140
   50CHL1   H4B 4813   0.175   0.755   3.706  0.2265 -0.1334 -0.9566
   50CHL1    C5 4814   0.223   0.880   3.881 -0.9609 -0.4074 -0.1340
   50CHL1    C6 4815   0.256   0.762   3.940 -0.3231 -0.1042  0.5940
   50CHL1    H6 4816   0.239   0.665   3.891  2.0010  0.4086 -1.4219
   50CHL1    C7 4817   0.301   0.751   4.080  0.0883 -0.2205  0.5088
   50CHL1   H7A 4818   0.230   0.690   4.140 -0.2320  2.0737  2.6487
   50CHL1   H7B 4819   0.402   0.705   4.084 -0.4304 -1.3913  0.4613
   50CHL1    C8 4820   0.291   0.884   4.159  0.1463  0.0974  0.3542
   50CHL1    H8 4821   0.189   0.881   4.201 -0.0867  0.1656 -0.1972
   50CHL1   C14 4822   0.382   0.881   4.279 -0.4346  0.0271 -0.7635
   50CHL1   H14 4823   0.483   0.863   4.236  0.2286 -0.2665  0.8419
   50CHL1   C15 4824   0.358   0.765   4.376  0.0334  0.1283 -1.0750
   50CHL1  H15A 4825   0.248   0.751   4.381  0.1798 -0.5419  1.7528
   50CHL1  H15B 4826   0.407   0.671   4.341  0.8282  0.0957  0.0714
   50CHL1   C16 4827   0.421   0.802   4.503  0.6396 -0.3846  0.3421
   50CHL1  H16A 4828   0.336   0.822   4.572 -0.3110  1.3159 -1.2349
   50CHL1  H16B 4829   0.497   0.732   4.546  1.2722  0.9809  1.5024
   50CHL1   C17 4830   0.485   0.951   4.477 -0.2695  0.4756  0.5323
   50CHL1   H17 4831   0.585   0.929   4.433  0.5463  0.6153  2.2147
   50CHL1   C13 4832   0.389   1.006   4.366  0.3484  0.2478 -0.0313
   50CHL1   C18 4833   0.253   1.042   4.431  0.2006 -0.7316  0.3208
   50CHL1  H18A 4834   0.188   1.096   4.359  2.3522  2.6921  0.6883
   50CHL1  H18B 4835   0.203   0.965   4.493  0.2379  2.2572  4.4945
   50CHL1  H18C 4836   0.264   1.120   4.510 -0.5170 -1.0662  0.7607
   50CHL1   C12 4837   0.452   1.112   4.279  0.1615 -0.0203 -0.0096
   50CHL1  H12A 4838   0.472   1.212   4.322  1.3707 -1.3753  2.7869
   50CHL1  H12B 4839   0.555   1.086   4.246  1.2055  3.1042  0.4900
   50CHL1   C11 4840   0.357   1.134   4.152 -0.2201 -0.5699 -0.1035
   50CHL1  H11A 4841   0.262   1.177   4.188 -0.8892 -0.3411 -2.0429
   50CHL1  H11B 4842   0.400   1.206   4.079 -1.4812  1.7909  1.3784
   50CHL1    C9 4843   0.336   0.999   4.072 -0.2489 -0.3953  0.7155
   50CHL1    H9 4844   0.433   0.968   4.029 -1.9242 -1.2805 -2.8450
   50CHL1   C10 4845   0.252   1.019   3.944  0.5677  0.2508 -0.6214
   50CHL1   C19 4846   0.111   1.058   3.984 -0.0993  0.0174 -0.1876
   50CHL1  H19A 4847   0.065   0.989   4.058 -0.1026  0.3279  0.1069
   50CHL1  H19B 4848   0.106   1.166   4.011  0.8593  0.4913 -1.7654
   50CHL1  H19C 4849   0.062   1.060   3.884 -0.2209 -0.5499 -0.1419
   50CHL1    C1 4850   0.322   1.112   3.837  0.2636  0.0197  0.9633
   50CHL1   H1A 4851   0.323   1.217   3.872 -0.7850  2.1376 -4.3882
   50CHL1   H1B 4852   0.428   1.083   3.824 -0.2315 -0.4964 -3.3017
   50CHL1    C2 4853   0.255   1.101   3.703 -0.1135  0.2579 -0.4153
   50CHL1   H2A 4854   0.312   1.156   3.624  1.3224 -0.6627 -0.0625
   50CHL1   H2B 4855   0.153   1.144   3.703 -0.1833  0.0897 -0.5168
   50CHL1   C20 4856   0.507   1.029   4.607  0.0356 -0.4506  0.4618
   50CHL1   H20 4857   0.410   1.034   4.660  0.8189  0.7169  1.8448
   50CHL1   C21 4858   0.561   1.171   4.579 -0.0135  0.0992 -0.1941
   50CHL1  H21A 4859   0.469   1.226   4.550 -1.8232 -1.3452  2.4039
   50CHL1  H21B 4860   0.648   1.171   4.509 -0.1616  2.9864 -0.4762
   50CHL1  H21C 4861   0.590   1.210   4.679 -1.4856 -1.6568  0.9686
   50CHL1   C22 4862   0.608   0.963   4.705  0.0911  0.7549 -0.2217
   50CHL1  H22A 4863   0.603   0.852   4.696  0.3393  0.9055 -3.4792
   50CHL1  H22B 4864   0.713   0.990   4.681  0.5737  0.3581  1.3296
   50CHL1   C23 4865   0.577   1.001   4.855 -0.0743 -0.0185  0.1852
   50CHL1  H23A 4866   0.608   1.107   4.863 -2.6933  1.0386 -1.9479
   50CHL1  H23B 4867   0.467   0.994   4.873  0.1118  3.5153  3.9667
   50CHL1   C24 4868   0.654   0.914   4.958  0.1490 -0.1315  1.0601
   50CHL1  H24A 4869   0.625   0.814   4.920  1.1900 -0.3173  0.7196
   50CHL1  H24B 4870   0.761   0.929   4.930 -0.1844  1.1051  0.3562
   50CHL1   C25 4871   0.617   0.919   5.102  0.2666  0.4760 -0.1838
   50CHL1   H25 4872   0.510   0.897   5.119  0.5386 -0.4488  0.4019
   50CHL1   C26 4873   0.696   0.800   5.173 -0.2424  1.1855 -0.4149
   50CHL1  H26A 4874   0.676   0.700   5.130 -2.6967  0.9930  1.0089
   50CHL1  H26B 4875   0.804   0.818   5.155 -0.1693 -0.4661 -1.9024
   50CHL1  H26C 4876   0.664   0.810   5.279 -1.8516  2.3397 -0.9644
   50CHL1   C27 4877   0.668   1.050   5.168 -0.9493 -0.7258  0.5455
   50CHL1  H27A 4878   0.623   1.139   5.120 -1.0776  0.0555  2.0501
   50CHL1  H27B 4879   0.654   1.049   5.279 -0.2069 -2.3836  0.6648
   50CHL1  H27C 4880   0.774   1.051   5.136 -1.0191 -1.3251  0.2904
   51CHL1    C3 4881   4.910   4.125   3.367 -0.2309  0.0261 -0.4580
   51CHL1    H3 4882   4.799   4.133   3.362 -0.2337 -0.4453 -1.5272
   51CHL1    O3 4883   4.955   4.097   3.237 -0.0635 -0.4278 -0.3121
   51CHL1   H3' 4884   4.983   4.184   3.206 -1.5487  0.0642 -0.3630
   51CHL1    C4 4885   4.973   4.259   3.426  0.5783 -0.2861 -0.4434
   51CHL1   H4A 4886   5.084   4.257   3.419  0.6719 -1.4092  0.9846
   51CHL1   H4B 4887   4.933   4.347   3.371  0.1367 -0.8423 -1.0414
   51CHL1    C5 4888   4.957   4.275   3.575 -0.3638  0.0262 -1.1031
   51CHL1    C6 4889   4.906   4.393   3.620 -0.1095  0.0396  0.6777
   51CHL1    H6 4890   4.913   4.474   3.546 -0.0723 -1.8761 -1.5156
   51CHL1    C7 4891   4.871   4.427   3.760  0.0063 -0.3619 -0.2930
   51CHL1   H7A 4892   4.905   4.528   3.789 -1.5318 -0.5973  2.7534
   51CHL1   H7B 4893   4.760   4.426   3.772  0.1033 -0.5264  0.6570
   51CHL1    C8 4894   4.937   4.326   3.857 -1.1652 -0.3848 -0.3567
   51CHL1    H8 4895   5.047   4.342   3.851 -1.1454 -0.2695  0.1936
   51CHL1   C14 4896   4.884   4.357   4.000  0.1972 -0.1361 -0.3798
   51CHL1   H14 4897   4.777   4.327   3.987  1.0124 -3.4921 -0.3622
   51CHL1   C15 4898   4.886   4.491   4.066 -0.1558 -0.5679 -0.3753
   51CHL1  H15A 4899   4.988   4.534   4.056 -0.6792  0.5745 -0.9885
   51CHL1  H15B 4900   4.810   4.557   4.018  1.5863  3.3167  1.6854
   51CHL1   C16 4901   4.850   4.464   4.214  0.0888 -0.3892  1.0587
   51CHL1  H16A 4902   4.923   4.509   4.284 -0.4779 -0.0305  1.4230
   51CHL1  H16B 4903   4.749   4.506   4.231 -0.6407 -1.9644  0.7542
   51CHL1   C17 4904   4.859   4.312   4.231  0.4407  0.4658  0.5821
   51CHL1   H17 4905   4.757   4.269   4.216  0.3969  1.2186 -1.7826
   51CHL1   C13 4906   4.932   4.257   4.109  0.4594  0.0683 -0.2894
   51CHL1   C18 4907   5.080   4.274   4.125  0.1410  0.5049  0.4143
   51CHL1  H18A 4908   5.111   4.373   4.166  1.2065  0.5229 -0.3709
   51CHL1  H18B 4909   5.116   4.194   4.193  1.4289 -0.5356 -1.3865
   51CHL1  H18C 4910   5.136   4.273   4.028  2.6326  0.1596  1.7726
   51CHL1   C12 4911   4.900   4.116   4.065  0.2247  0.0455 -0.1740
   51CHL1  H12A 4912   4.949   4.050   4.140 -0.7389 -1.6543 -0.9977
   51CHL1  H12B 4913   4.789   4.113   4.063  0.0522  0.6719  2.7594
   51CHL1   C11 4914   4.953   4.089   3.925 -0.4883  0.0907 -0.2931
   51CHL1  H11A 4915   5.063   4.105   3.929 -0.4382 -0.0551 -0.9580
   51CHL1  H11B 4916   4.936   3.986   3.888  0.6491  0.0749 -0.8314
   51CHL1    C9 4917   4.918   4.186   3.811  0.3056  0.5667  0.6744
   51CHL1    H9 4918   4.808   4.171   3.806  0.5908 -1.5749 -0.2786
   51CHL1   C10 4919   4.976   4.151   3.667 -0.0247  0.2704 -0.0596
   51CHL1   C19 4920   5.127   4.115   3.674 -0.5371  0.4770  0.0886
   51CHL1  H19A 4921   5.189   4.197   3.717  1.0827 -0.7620  0.2231
   51CHL1  H19B 4922   5.130   4.025   3.740 -4.1093 -0.1115 -0.3845
   51CHL1  H19C 4923   5.177   4.087   3.579  0.3815  4.6401 -0.8710
   51CHL1    C1 4924   4.893   4.038   3.600  0.0360 -0.1084  0.3023
   51CHL1   H1A 4925   4.909   3.954   3.672 -0.6115 -0.9450 -0.4976
   51CHL1   H1B 4926   4.783   4.056   3.605 -0.3304 -1.9458 -0.4525
   51CHL1    C2 4927   4.937   4.007   3.458 -0.0268  0.5083  0.0819
   51CHL1   H2A 4928   4.873   3.918   3.439 -1.9296  1.4095  1.7872
   51CHL1   H2B 4929   5.044   3.979   3.454 -0.0040  0.2088  1.8716
   51CHL1   C20 4930   4.901   4.271   4.377  0.5955 -0.2189  0.1350
   51CHL1   H20 4931   5.008   4.300   4.383  0.7773 -0.7461 -0.4730
   51CHL1   C21 4932   4.887   4.121   4.406 -0.3667 -0.0464  0.3022
   51CHL1  H21A 4933   4.963   4.070   4.343  1.2239  1.0394  1.2552
   51CHL1  H21B 4934   4.792   4.082   4.365  0.3293 -0.5798 -0.8666
   51CHL1  H21C 4935   4.907   4.098   4.513 -0.3780  1.1298  0.5728
   51CHL1   C22 4936   4.831   4.353   4.491  0.0300  0.5981 -0.1280
   51CHL1  H22A 4937   4.891   4.333   4.582  0.3440  1.1198 -0.2162
   51CHL1  H22B 4938   4.841   4.462   4.472  1.6077  0.1509 -2.1787
   51CHL1   C23 4939   4.682   4.323   4.506 -0.0421  0.0496  0.6082
   51CHL1  H23A 4940   4.624   4.346   4.413 -3.7049 -1.1535  2.4169
   51CHL1  H23B 4941   4.690   4.213   4.514 -0.1727 -0.1620 -1.5757
   51CHL1   C24 4942   4.612   4.390   4.623  0.0110 -0.0494  0.4031
   51CHL1  H24A 4943   4.676   4.392   4.713 -2.1714 -2.4298  2.1459
   51CHL1  H24B 4944   4.603   4.499   4.604  1.6925 -0.1106 -0.9881
   51CHL1   C25 4945   4.469   4.346   4.645  0.3173  0.2463  0.1192
   51CHL1   H25 4946   4.468   4.236   4.626  0.3501  0.2900 -0.1374
   51CHL1   C26 4947   4.433   4.383   4.786 -0.9642 -0.5703 -0.2870
   51CHL1  H26A 4948   4.428   4.493   4.800  0.4105 -0.4913 -0.2549
   51CHL1  H26B 4949   4.336   4.335   4.810  0.1816 -1.6443  2.8280
   51CHL1  H26C 4950   4.506   4.333   4.854 -1.6003 -4.1505 -2.0125
   51CHL1   C27 4951   4.371   4.416   4.547 -0.1684  0.4662 -0.4220
   51CHL1  H27A 4952   4.413   4.427   4.445  2.2484 -3.1863 -0.0024
   51CHL1  H27B 4953   4.282   4.350   4.552  0.8776 -0.8971  2.4306
   51CHL1  H27C 4954   4.347   4.514   4.593 -1.9611 -0.7371  1.4147
   52CHL1    C3 4955   5.437   5.804   3.378 -0.0691 -0.2677 -0.3770
   52CHL1    H3 4956   5.337   5.837   3.411 -1.0739 -1.7993 -1.7474
   52CHL1    O3 4957   5.439   5.804   3.234  0.0380 -0.0855  0.5410
   52CHL1   H3' 4958   5.493   5.734   3.199  0.0665  0.2618 -0.1353
   52CHL1    C4 4959   5.557   5.886   3.437 -0.3213 -0.6670  0.2739
   52CHL1   H4A 4960   5.655   5.857   3.392  0.7955  0.9226  1.5870
   52CHL1   H4B 4961   5.542   5.989   3.398  0.3864  0.2666  2.3634
   52CHL1    C5 4962   5.564   5.883   3.586 -0.0979 -0.5499 -0.3593
   52CHL1    C6 4963   5.551   5.998   3.658  0.3808  0.1377  0.7911
   52CHL1    H6 4964   5.527   6.086   3.597 -1.1384 -1.9670 -1.8281
   52CHL1    C7 4965   5.579   6.009   3.804  0.3153 -0.0142  0.1354
   52CHL1   H7A 4966   5.663   6.078   3.825  2.4851 -3.1509  2.9307
   52CHL1   H7B 4967   5.485   6.045   3.852  0.6855  1.6062 -0.3022
   52CHL1    C8 4968   5.624   5.875   3.864  0.2470  0.5958 -0.1725
   52CHL1    H8 4969   5.733   5.859   3.856  0.3489  1.5920 -0.9608
   52CHL1   C14 4970   5.580   5.878   4.010  0.0238 -0.4953 -0.5440
   52CHL1   H14 4971   5.470   5.886   4.007  0.0311  0.7941  1.3090
   52CHL1   C15 4972   5.627   5.999   4.089  0.3973 -0.2004 -0.3023
   52CHL1  H15A 4973   5.729   6.038   4.068  0.0828  1.0429  0.3975
   52CHL1  H15B 4974   5.560   6.086   4.071 -1.2739 -0.9990  1.6403
   52CHL1   C16 4975   5.622   5.943   4.236  0.5124 -0.6333 -0.5155
   52CHL1  H16A 4976   5.723   5.966   4.278 -0.3231  2.1434  0.2455
   52CHL1  H16B 4977   5.554   6.005   4.299  1.0803 -1.6416  1.1595
   52CHL1   C17 4978   5.581   5.793   4.229  0.3617 -0.1906 -0.0532
   52CHL1   H17 4979   5.470   5.791   4.231  0.3361 -0.7621 -1.1573
   52CHL1   C13 4980   5.619   5.749   4.086  0.5914  0.0310 -0.0364
   52CHL1   C18 4981   5.771   5.735   4.075 -0.1181  0.2601 -0.3151
   52CHL1  H18A 4982   5.806   5.667   4.155  0.8764  0.1569 -0.8130
   52CHL1  H18B 4983   5.808   5.710   3.973 -0.5800 -0.4183 -0.3195
   52CHL1  H18C 4984   5.819   5.834   4.094 -0.5182  0.4914 -0.4942
   52CHL1   C12 4985   5.545   5.630   4.024 -0.2325  0.4262 -0.0125
   52CHL1  H12A 4986   5.577   5.532   4.066  1.0244  2.1145  3.3080
   52CHL1  H12B 4987   5.437   5.640   4.048 -0.0982 -0.0159  0.7990
   52CHL1   C11 4988   5.569   5.623   3.872  0.5728  0.1286 -0.0878
   52CHL1  H11A 4989   5.674   5.589   3.856  1.1901  2.0908 -0.4598
   52CHL1  H11B 4990   5.488   5.554   3.840 -1.0260  1.3383  1.2192
   52CHL1    C9 4991   5.553   5.760   3.799 -0.0363  0.4279 -0.3976
   52CHL1    H9 4992   5.444   5.777   3.812  0.0753  2.8851 -1.9524
   52CHL1   C10 4993   5.567   5.743   3.648 -0.4992 -0.5626  0.4623
   52CHL1   C19 4994   5.702   5.676   3.609 -0.3887 -0.6069  0.1627
   52CHL1  H19A 4995   5.791   5.720   3.658  0.1355 -1.7180  0.2284
   52CHL1  H19B 4996   5.706   5.568   3.634 -2.1628 -0.0730  3.2700
   52CHL1  H19C 4997   5.710   5.679   3.498  0.5428 -0.5984  0.2289
   52CHL1    C1 4998   5.457   5.651   3.586  0.0610  0.3908  0.5086
   52CHL1   H1A 4999   5.482   5.551   3.627  1.6913  0.2268 -0.7729
   52CHL1   H1B 5000   5.363   5.697   3.624 -1.2474 -1.2140 -0.6319
   52CHL1    C2 5001   5.448   5.661   3.431 -0.3460 -0.1398 -0.0699
   52CHL1   H2A 5002   5.356   5.606   3.400  0.6206 -2.1616  0.4468
   52CHL1   H2B 5003   5.539   5.620   3.383  0.3570 -0.6833  1.6289
   52CHL1   C20 5004   5.615   5.708   4.353 -0.3334  1.1797  0.9193
   52CHL1   H20 5005   5.725   5.706   4.363 -0.3536 -0.6779  1.2132
   52CHL1   C21 5006   5.568   5.563   4.347  0.3945 -0.0761 -0.0199
   52CHL1  H21A 5007   5.599   5.517   4.251  1.6604  2.6964 -1.0591
   52CHL1  H21B 5008   5.458   5.552   4.337  0.3491  0.3121  0.0490
   52CHL1  H21C 5009   5.607   5.500   4.429 -1.4630  0.7659  1.5901
   52CHL1   C22 5010   5.563   5.763   4.488  0.6759 -0.1166 -0.7639
   52CHL1  H22A 5011   5.575   5.873   4.497 -0.4769 -0.0016 -0.4677
   52CHL1  H22B 5012   5.454   5.738   4.490  0.2962  1.4367 -1.0250
   52CHL1   C23 5013   5.631   5.717   4.615 -0.1906  0.7361 -0.2937
   52CHL1  H23A 5014   5.603   5.612   4.640  1.6480  0.3463  0.3436
   52CHL1  H23B 5015   5.739   5.707   4.589 -0.1490 -3.1561  0.7511
   52CHL1   C24 5016   5.600   5.810   4.733  0.6774 -0.4032 -0.3140
   52CHL1  H24A 5017   5.641   5.912   4.716 -0.1622 -0.1135 -0.6448
   52CHL1  H24B 5018   5.489   5.818   4.730  0.7039 -0.1079 -3.3726
   52CHL1   C25 5019   5.639   5.779   4.876 -0.2839  1.2679  0.3462
   52CHL1   H25 5020   5.749   5.791   4.883 -0.0135 -0.9220  0.7430
   52CHL1   C26 5021   5.564   5.875   4.963 -0.8353  0.2399  0.0645
   52CHL1  H26A 5022   5.568   5.981   4.930 -0.6239 -0.4814 -2.4085
   52CHL1  H26B 5023   5.457   5.846   4.976 -0.1906 -1.6156  1.8225
   52CHL1  H26C 5024   5.613   5.880   5.062 -1.9425  2.8232  0.5641
   52CHL1   C27 5025   5.596   5.631   4.916 -0.0748 -0.6795  0.4131
   52CHL1  H27A 5026   5.490   5.609   4.890 -0.7503  1.6925  0.8391
   52CHL1  H27B 5027   5.651   5.550   4.865 -1.7814 -1.5820 -0.0654
   52CHL1  H27C 5028   5.607   5.618   5.026 -0.8313 -0.4716  0.5169
   53CHL1    C3 5029   5.289   5.314   3.283 -0.6644 -0.7717 -0.9023
   53CHL1    H3 5030   5.283   5.418   3.323  1.5127 -0.6733 -0.7268
   53CHL1    O3 5031   5.243   5.314   3.143  0.2594  0.2066  0.1871
   53CHL1   H3' 5032   5.323   5.328   3.091  0.4774  0.5848  0.6169
   53CHL1    C4 5033   5.440   5.271   3.278 -0.1730 -0.6320 -0.1387
   53CHL1   H4A 5034   5.444   5.177   3.220  1.7380 -0.7365  0.0969
   53CHL1   H4B 5035   5.501   5.348   3.226 -0.1539 -2.2900 -2.6905
   53CHL1    C5 5036   5.494   5.246   3.422 -0.4359  0.4145 -0.3577
   53CHL1    C6 5037   5.599   5.319   3.462  0.3224 -0.4813  0.1849
   53CHL1    H6 5038   5.639   5.400   3.399  0.4833 -0.6725  0.0424
   53CHL1    C7 5039   5.668   5.293   3.601  0.5620 -0.4074  0.3976
   53CHL1   H7A 5040   5.777   5.280   3.589  0.6213  1.1658 -1.1832
   53CHL1   H7B 5041   5.658   5.385   3.663  1.2870 -0.0842  0.0383
   53CHL1    C8 5042   5.601   5.176   3.679 -0.6966  0.2452  0.9090
   53CHL1    H8 5043   5.651   5.084   3.641 -0.0789  0.9963 -0.1680
   53CHL1   C14 5044   5.641   5.185   3.824 -0.2141 -0.3139 -0.5347
   53CHL1   H14 5045   5.596   5.282   3.853  3.2116  1.9884 -2.1966
   53CHL1   C15 5046   5.788   5.210   3.860  0.6052 -0.2217  0.1453
   53CHL1  H15A 5047   5.853   5.138   3.805 -1.4662 -1.3182 -0.9935
   53CHL1  H15B 5048   5.816   5.316   3.843 -0.2046  0.0792  0.6329
   53CHL1   C16 5049   5.784   5.190   4.013  0.4021  0.5950  0.1102
   53CHL1  H16A 5050   5.858   5.109   4.024  2.3665  2.3788  0.6318
   53CHL1  H16B 5051   5.802   5.284   4.070 -1.3991  0.7877  0.4273
   53CHL1   C17 5052   5.639   5.140   4.051  0.8737  0.1220  0.3131
   53CHL1   H17 5053   5.586   5.237   4.063 -1.0147 -0.6906 -0.9600
   53CHL1   C13 5054   5.583   5.075   3.919 -0.3572  0.0128 -0.7992
   53CHL1   C18 5055   5.641   4.935   3.903 -0.2481 -0.2291 -0.5041
   53CHL1  H18A 5056   5.749   4.933   3.931 -0.0148  0.9780 -1.2710
   53CHL1  H18B 5057   5.580   4.863   3.961  0.3063 -1.9932 -2.0123
   53CHL1  H18C 5058   5.636   4.912   3.795 -2.3248  2.4199 -1.0623
   53CHL1   C12 5059   5.431   5.078   3.894 -0.4587  0.0883  0.2247
   53CHL1  H12A 5060   5.376   5.002   3.954  1.9309  0.0521  2.5521
   53CHL1  H12B 5061   5.378   5.170   3.926 -0.8691  0.0830 -0.4106
   53CHL1   C11 5062   5.389   5.053   3.749  0.4107 -0.1172 -0.7139
   53CHL1  H11A 5063   5.411   4.948   3.723  0.1546 -0.6482  1.0847
   53CHL1  H11B 5064   5.279   5.061   3.730  0.4300  0.7440 -0.5031
   53CHL1    C9 5065   5.457   5.164   3.658  0.4366 -0.2890 -0.1459
   53CHL1    H9 5066   5.418   5.263   3.693  0.1600  0.6790 -2.9762
   53CHL1   C10 5067   5.415   5.149   3.511  0.0581  0.1252 -0.3198
   53CHL1   C19 5068   5.446   5.004   3.456  0.4969  0.0090 -1.1354
   53CHL1  H19A 5069   5.414   5.005   3.350 -1.0148  0.4813 -0.6963
   53CHL1  H19B 5070   5.546   4.971   3.491  1.1645  0.7151 -2.3312
   53CHL1  H19C 5071   5.379   4.933   3.509  0.6896  0.0124 -0.8855
   53CHL1    C1 5072   5.263   5.196   3.506 -1.0057  0.1256  1.1033
   53CHL1   H1A 5073   5.207   5.116   3.560  1.7247 -1.1684  2.2188
   53CHL1   H1B 5074   5.257   5.291   3.563  2.9310  1.0661  0.1994
   53CHL1    C2 5075   5.209   5.211   3.359 -0.0437 -0.1343  0.0623
   53CHL1   H2A 5076   5.101   5.235   3.368  0.3741  1.2410  2.3252
   53CHL1   H2B 5077   5.233   5.116   3.308  2.2254 -0.0808  0.9457
   53CHL1   C20 5078   5.638   5.061   4.181  0.3349  0.0346  0.7015
   53CHL1   H20 5079   5.703   4.971   4.175 -2.5885 -2.1275 -1.0952
   53CHL1   C21 5080   5.494   5.006   4.218 -0.1606  0.2288  0.5372
   53CHL1  H21A 5081   5.424   5.091   4.231  0.8800  1.2187 -0.1398
   53CHL1  H21B 5082   5.510   4.954   4.314  1.7003  0.0983  0.1966
   53CHL1  H21C 5083   5.466   4.939   4.134 -1.8835 -0.8360  1.8982
   53CHL1   C22 5084   5.692   5.149   4.299 -0.4944  0.0151  0.4263
   53CHL1  H22A 5085   5.794   5.189   4.285 -1.2340  1.9363  0.1901
   53CHL1  H22B 5086   5.626   5.237   4.313  0.9540  1.3343 -0.6883
   53CHL1   C23 5087   5.700   5.072   4.429 -0.1247  0.2462 -0.4511
   53CHL1  H23A 5088   5.596   5.063   4.466  0.4096  0.9944  1.3068
   53CHL1  H23B 5089   5.756   4.977   4.413  2.0633  1.3701  0.0930
   53CHL1   C24 5090   5.772   5.138   4.549 -0.0252  0.3660  0.0980
   53CHL1  H24A 5091   5.873   5.160   4.507  0.1450 -0.6525 -0.0585
   53CHL1  H24B 5092   5.725   5.236   4.570 -0.8735  0.5092 -2.1797
   53CHL1   C25 5093   5.780   5.062   4.687 -0.1511  0.4612  0.0998
   53CHL1   H25 5094   5.814   4.957   4.672  0.6690  1.1672 -4.1965
   53CHL1   C26 5095   5.876   5.128   4.790 -0.2513  0.3340 -0.1728
   53CHL1  H26A 5096   5.885   5.238   4.774  0.0466  0.5560  1.4208
   53CHL1  H26B 5097   5.849   5.126   4.897  1.0803 -3.0766  0.2177
   53CHL1  H26C 5098   5.976   5.081   4.775  0.1516  0.1265  2.6186
   53CHL1   C27 5099   5.645   5.056   4.761 -0.5794 -0.3638 -0.0311
   53CHL1  H27A 5100   5.612   5.159   4.787  0.7980 -0.5077  2.6204
   53CHL1  H27B 5101   5.563   5.002   4.709 -2.5484  1.3514  1.1450
   53CHL1  H27C 5102   5.661   5.009   4.860 -0.9882 -0.2008  0.1136
   54CHL1    C3 5103   4.693   5.700   3.251  0.1710  0.5816 -0.5828
   54CHL1    H3 5104   4.599   5.703   3.309  0.6291 -0.4336  0.2543
   54CHL1    O3 5105   4.654   5.726   3.120 -0.0722 -0.1333 -0.2982
   54CHL1   H3' 5106   4.738   5.740   3.075  1.9598  1.1930  3.4015
   54CHL1    C4 5107   4.785   5.810   3.307  0.3229  0.2237 -0.4403
   54CHL1   H4A 5108   4.872   5.833   3.243 -0.4538  1.0133 -1.2368
   54CHL1   H4B 5109   4.720   5.900   3.306  0.2658  0.1893 -0.0386
   54CHL1    C5 5110   4.818   5.770   3.443  0.0262  0.2555 -0.3500
   54CHL1    C6 5111   4.783   5.840   3.548  0.6219 -0.3264 -0.5681
   54CHL1    H6 5112   4.728   5.934   3.532 -0.9824 -1.1950 -0.3320
   54CHL1    C7 5113   4.829   5.817   3.688 -0.6264  0.1578 -0.1223
   54CHL1   H7A 5114   4.863   5.913   3.732 -2.4332  0.9455 -0.3333
   54CHL1   H7B 5115   4.743   5.784   3.751  1.5694 -0.1872  2.9439
   54CHL1    C8 5116   4.938   5.706   3.697  0.0461 -0.2806 -0.7677
   54CHL1    H8 5117   5.033   5.759   3.675 -0.3974  0.0255 -2.0093
   54CHL1   C14 5118   4.952   5.656   3.843  0.4640 -1.1882  0.3967
   54CHL1   H14 5119   4.857   5.600   3.859 -0.0754  0.1484  2.2520
   54CHL1   C15 5120   4.955   5.746   3.966  0.2390 -0.2118  0.7440
   54CHL1  H15A 5121   5.020   5.832   3.940  1.2188  0.0629  3.6772
   54CHL1  H15B 5122   4.855   5.793   3.979  0.7409  1.4089 -0.7718
   54CHL1   C16 5123   5.010   5.667   4.082  0.3359 -0.0748  0.6392
   54CHL1  H16A 5124   5.098   5.717   4.128  1.6286 -0.0978 -1.7036
   54CHL1  H16B 5125   4.925   5.650   4.153 -3.1908 -0.4744 -3.2888
   54CHL1   C17 5126   5.056   5.534   4.019  0.4182  0.6642 -0.7187
   54CHL1   H17 5127   4.964   5.472   4.018  0.7834  0.0814  0.1791
   54CHL1   C13 5128   5.068   5.558   3.867 -0.8617 -0.0844 -0.0987
   54CHL1   C18 5129   5.210   5.636   3.852  0.0871  0.8841  0.5357
   54CHL1  H18A 5130   5.249   5.699   3.934  1.9143  2.4324 -1.3986
   54CHL1  H18B 5131   5.283   5.556   3.827 -0.8754  0.2433 -0.3622
   54CHL1  H18C 5132   5.208   5.707   3.766  1.9567 -0.5112 -0.7374
   54CHL1   C12 5133   5.047   5.438   3.766 -0.3445 -0.7614 -1.1752
   54CHL1  H12A 5134   5.132   5.367   3.769 -0.0243 -0.3726 -0.9380
   54CHL1  H12B 5135   4.966   5.369   3.799 -0.4651 -0.2898 -0.4513
   54CHL1   C11 5136   5.031   5.487   3.623  0.3981  0.3563  0.0168
   54CHL1  H11A 5137   5.129   5.529   3.592  0.3773  0.8841  0.6496
   54CHL1  H11B 5138   5.002   5.394   3.569 -1.1481 -0.1525  1.6303
   54CHL1    C9 5139   4.919   5.589   3.605  0.6446  0.2781  0.2502
   54CHL1    H9 5140   4.828   5.535   3.640 -0.9769 -0.0952 -3.9640
   54CHL1   C10 5141   4.895   5.637   3.457 -0.3184  0.4141 -0.6467
   54CHL1   C19 5142   5.035   5.653   3.386  0.1997  0.8734  0.2262
   54CHL1  H19A 5143   5.087   5.555   3.379 -1.4862  0.0347 -1.4533
   54CHL1  H19B 5144   5.037   5.693   3.282 -0.0824 -2.8389 -1.3826
   54CHL1  H19C 5145   5.096   5.715   3.455  1.3269  2.1101 -1.7957
   54CHL1    C1 5146   4.814   5.524   3.387  0.1357 -0.5833  0.6328
   54CHL1   H1A 5147   4.881   5.435   3.378 -0.3404 -0.8910  0.0475
   54CHL1   H1B 5148   4.725   5.500   3.449 -0.9132  0.0340 -0.5755
   54CHL1    C2 5149   4.755   5.557   3.249 -0.0169  0.2062  1.2968
   54CHL1   H2A 5150   4.676   5.487   3.213 -2.7524  1.8288  3.6713
   54CHL1   H2B 5151   4.833   5.555   3.170  0.5771 -2.1180  1.8520
   54CHL1   C20 5152   5.164   5.459   4.093  0.4490  0.7802  0.0562
   54CHL1   H20 5153   5.263   5.507   4.078  0.3359  1.4693  1.3543
   54CHL1   C21 5154   5.160   5.310   4.053 -0.0330  0.4147  0.8014
   54CHL1  H21A 5155   5.060   5.265   4.071 -0.8014  0.1728 -3.1825
   54CHL1  H21B 5156   5.249   5.260   4.098  1.2460  1.7761 -0.1374
   54CHL1  H21C 5157   5.179   5.302   3.944  1.0394 -0.9025  1.0610
   54CHL1   C22 5158   5.139   5.466   4.245  0.0765  0.2890 -0.5191
   54CHL1  H22A 5159   5.145   5.568   4.287 -0.6788  0.0827  0.1206
   54CHL1  H22B 5160   5.038   5.425   4.268 -0.8497  3.0810  0.7677
   54CHL1   C23 5161   5.240   5.379   4.324 -0.5828 -0.3923 -1.1941
   54CHL1  H23A 5162   5.218   5.271   4.312  3.0556 -1.6256  1.4561
   54CHL1  H23B 5163   5.342   5.389   4.279  0.4162 -0.0783  1.0198
   54CHL1   C24 5164   5.244   5.414   4.472  1.0944 -0.3889  0.4543
   54CHL1  H24A 5165   5.274   5.519   4.488  2.4562 -0.3858 -1.6758
   54CHL1  H24B 5166   5.146   5.396   4.522  1.4015 -0.7260  0.9441
   54CHL1   C25 5167   5.336   5.327   4.558  0.8563  0.1639 -0.9268
   54CHL1   H25 5168   5.436   5.308   4.514  1.5655 -0.4245  0.8584
   54CHL1   C26 5169   5.369   5.397   4.686 -0.0877 -0.6093  0.3819
   54CHL1  H26A 5170   5.279   5.403   4.751 -0.6064 -0.1612 -0.3576
   54CHL1  H26B 5171   5.443   5.346   4.751 -0.9708 -1.0339  1.0781
   54CHL1  H26C 5172   5.417   5.494   4.662  0.2656 -1.2071 -1.4364
   54CHL1   C27 5173   5.283   5.190   4.589 -0.0175  0.2854 -0.4537
   54CHL1  H27A 5174   5.240   5.134   4.502 -1.0004  0.4945 -0.1187
   54CHL1  H27B 5175   5.364   5.125   4.627 -2.5433 -2.4358  0.6966
   54CHL1  H27C 5176   5.213   5.191   4.675 -1.3000  3.2329 -1.3937
   55CHL1    C3 5177   2.806   2.268   3.315 -0.0299  0.4127 -0.3704
   55CHL1    H3 5178   2.751   2.346   3.372  1.7324  0.4970  1.3474
   55CHL1    O3 5179   2.741   2.253   3.185 -0.3424 -0.9907 -0.2623
   55CHL1   H3' 5180   2.797   2.194   3.134  0.0721  0.7288 -1.9123
   55CHL1    C4 5181   2.954   2.311   3.309 -0.2395  0.3835 -0.0997
   55CHL1   H4A 5182   3.024   2.234   3.271  1.3857  0.9099  1.6629
   55CHL1   H4B 5183   2.968   2.397   3.239 -0.2979  1.2585  0.9333
   55CHL1    C5 5184   3.014   2.348   3.440  0.3534  0.8708 -0.2287
   55CHL1    C6 5185   3.061   2.473   3.478  0.1367  0.2756 -0.0658
   55CHL1    H6 5186   3.061   2.552   3.402 -2.6919  1.2375  0.8255
   55CHL1    C7 5187   3.106   2.515   3.615 -0.6147 -0.1238  0.4637
   55CHL1   H7A 5188   3.205   2.566   3.612  1.7602 -4.3176  0.0115
   55CHL1   H7B 5189   3.030   2.584   3.659  0.8563  3.7119 -2.4697
   55CHL1    C8 5190   3.130   2.391   3.704 -0.0527  0.2773 -0.3299
   55CHL1    H8 5191   3.224   2.343   3.669 -0.0753 -0.2084  0.2519
   55CHL1   C14 5192   3.122   2.439   3.849  0.0592 -0.1669 -0.4705
   55CHL1   H14 5193   3.021   2.474   3.876  0.1551  0.3740 -0.7925
   55CHL1   C15 5194   3.206   2.563   3.892 -0.1119  0.1105 -0.3289
   55CHL1  H15A 5195   3.307   2.553   3.848  0.5324 -0.4794  1.2118
   55CHL1  H15B 5196   3.160   2.651   3.842 -0.9010 -0.4156 -0.5487
   55CHL1   C16 5197   3.206   2.570   4.046 -0.5514  0.0496  0.1185
   55CHL1  H16A 5198   3.314   2.582   4.066 -0.5706  0.9557 -0.2549
   55CHL1  H16B 5199   3.137   2.643   4.095  0.0225  0.9618 -0.4084
   55CHL1   C17 5200   3.156   2.427   4.084  0.2567 -1.1451  1.0647
   55CHL1   H17 5201   3.048   2.429   4.110  0.3677  1.9298  1.6915
   55CHL1   C13 5202   3.162   2.335   3.956  0.5413 -0.2256  0.6381
   55CHL1   C18 5203   3.308   2.297   3.931  0.6578 -0.1266  0.1175
   55CHL1  H18A 5204   3.334   2.301   3.823 -3.0110 -2.1316 -1.0045
   55CHL1  H18B 5205   3.378   2.361   3.989  1.5291  0.6341 -1.7011
   55CHL1  H18C 5206   3.331   2.197   3.974  0.1299  1.2412  4.0021
   55CHL1   C12 5207   3.070   2.216   3.938 -0.1199 -0.1245 -0.0965
   55CHL1  H12A 5208   3.106   2.128   3.996 -2.2938 -0.4383  0.8809
   55CHL1  H12B 5209   2.970   2.246   3.974 -0.6386 -0.0517 -1.5129
   55CHL1   C11 5210   3.066   2.169   3.789 -0.2314 -0.8076  1.2153
   55CHL1  H11A 5211   3.162   2.128   3.753 -1.1724 -0.6011 -1.8516
   55CHL1  H11B 5212   2.995   2.085   3.772 -0.5534 -0.3840  0.4170
   55CHL1    C9 5213   3.023   2.289   3.691 -0.7099  0.0942  0.2093
   55CHL1    H9 5214   2.924   2.315   3.735 -1.2988 -1.2867 -0.2529
   55CHL1   C10 5215   2.995   2.239   3.550 -1.0156  0.6631  0.3461
   55CHL1   C19 5216   3.100   2.120   3.517 -0.0563 -0.3105  0.7439
   55CHL1  H19A 5217   3.103   2.094   3.409  2.1486 -1.7460  1.0871
   55CHL1  H19B 5218   3.202   2.142   3.553  0.1389 -1.7082  1.0935
   55CHL1  H19C 5219   3.064   2.031   3.574  0.8630 -0.9482  0.3572
   55CHL1    C1 5220   2.853   2.181   3.543  0.5521 -0.0329  0.4184
   55CHL1   H1A 5221   2.838   2.096   3.613 -1.2881 -0.3487 -0.2941
   55CHL1   H1B 5222   2.772   2.248   3.580 -0.2240  0.9290 -2.7538
   55CHL1    C2 5223   2.802   2.143   3.402  0.7025  0.9974 -0.3930
   55CHL1   H2A 5224   2.700   2.099   3.407  0.2290  2.1633  0.5271
   55CHL1   H2B 5225   2.869   2.066   3.357  0.8740  1.3846 -0.8099
   55CHL1   C20 5226   3.211   2.370   4.215 -0.1225  0.5431  0.0745
   55CHL1   H20 5227   3.316   2.335   4.204  0.2160  1.0012  1.6637
   55CHL1   C21 5228   3.126   2.248   4.266  0.0212 -0.7778  0.4548
   55CHL1  H21A 5229   3.026   2.295   4.277  0.8597  0.9162  1.2027
   55CHL1  H21B 5230   3.165   2.214   4.364  0.5655 -1.5030  0.0014
   55CHL1  H21C 5231   3.122   2.167   4.190 -1.8878  0.3055 -0.6916
   55CHL1   C22 5232   3.220   2.481   4.325  0.0960  0.4423  0.1875
   55CHL1  H22A 5233   3.292   2.563   4.304  0.1833  0.5731  0.9622
   55CHL1  H22B 5234   3.126   2.538   4.311  0.4709  0.5117 -2.5012
   55CHL1   C23 5235   3.242   2.443   4.468 -0.0488  0.1856 -0.1823
   55CHL1  H23A 5236   3.145   2.411   4.511  0.5484 -1.9054 -0.2815
   55CHL1  H23B 5237   3.308   2.354   4.477  0.2402  0.4916  1.0004
   55CHL1   C24 5238   3.282   2.560   4.558  0.1991 -0.1142 -0.4006
   55CHL1  H24A 5239   3.280   2.649   4.492 -0.9641 -0.1398 -0.4215
   55CHL1  H24B 5240   3.213   2.582   4.642 -0.3609 -2.3172 -0.2154
   55CHL1   C25 5241   3.421   2.552   4.625 -0.4352 -0.0149 -0.5478
   55CHL1   H25 5242   3.483   2.513   4.541 -0.7565 -0.5674 -0.5374
   55CHL1   C26 5243   3.475   2.683   4.678  0.3082  0.4813 -0.6058
   55CHL1  H26A 5244   3.468   2.759   4.597 -0.3977  2.1783  0.9634
   55CHL1  H26B 5245   3.421   2.729   4.764 -1.0450  0.5784 -1.4753
   55CHL1  H26C 5246   3.580   2.664   4.708  0.0961  0.3689  0.0909
   55CHL1   C27 5247   3.415   2.444   4.731 -0.3193 -0.0925  0.0592
   55CHL1  H27A 5248   3.515   2.436   4.778 -0.2960  2.5214  0.5941
   55CHL1  H27B 5249   3.341   2.485   4.803 -1.8021  2.8148 -2.8441
   55CHL1  H27C 5250   3.376   2.347   4.692  2.8223 -1.7387  0.6786
   56CHL1    C3 5251   2.939   0.485   3.382  0.0383 -0.3782  0.9069
   56CHL1    H3 5252   2.830   0.467   3.395 -0.5078  0.0224 -2.3776
   56CHL1    O3 5253   2.976   0.511   3.243 -0.7626 -0.5319  0.0400
   56CHL1   H3' 5254   2.919   0.455   3.190 -1.4970 -1.0954  1.3809
   56CHL1    C4 5255   2.979   0.600   3.470 -0.2693  0.5025 -0.3719
   56CHL1   H4A 5256   3.083   0.637   3.457 -0.9405  2.4128 -0.6861
   56CHL1   H4B 5257   2.909   0.682   3.444 -0.7583  0.3069  0.2890
   56CHL1    C5 5258   2.949   0.573   3.620 -0.1723 -0.3194  0.2580
   56CHL1    C6 5259   2.871   0.652   3.694 -0.7553 -0.2601  0.1474
   56CHL1    H6 5260   2.825   0.743   3.651  2.5074  1.3905 -0.2046
   56CHL1    C7 5261   2.847   0.646   3.845  0.1288 -0.2761  0.8826
   56CHL1   H7A 5262   2.854   0.749   3.886 -1.1930  0.6402 -1.0290
   56CHL1   H7B 5263   2.739   0.622   3.848 -0.3018  0.9390 -1.5606
   56CHL1    C8 5264   2.939   0.543   3.913  0.5219 -0.8987  0.1825
   56CHL1    H8 5265   3.038   0.592   3.919 -0.1783  0.6082  0.0675
   56CHL1   C14 5266   2.895   0.514   4.059  0.4625 -0.1376 -0.3632
   56CHL1   H14 5267   2.803   0.454   4.047  1.6149 -2.8704  3.0265
   56CHL1   C15 5268   2.854   0.633   4.149  0.5428 -0.5164 -0.3007
   56CHL1  H15A 5269   2.911   0.727   4.139  0.8296 -0.6789 -0.2171
   56CHL1  H15B 5270   2.751   0.663   4.121  1.0720 -0.2867 -2.0615
   56CHL1   C16 5271   2.860   0.574   4.293  0.1561 -0.0455 -0.2167
   56CHL1  H16A 5272   2.935   0.637   4.345  2.5591 -3.0104  0.1990
   56CHL1  H16B 5273   2.765   0.582   4.349  1.2927  2.6652  1.4987
   56CHL1   C17 5274   2.921   0.431   4.281  0.6053 -0.6805 -0.5910
   56CHL1   H17 5275   2.824   0.378   4.272 -1.7867  3.0487  0.7390
   56CHL1   C13 5276   2.989   0.432   4.139  0.4402  0.2579 -0.2269
   56CHL1   C18 5277   3.134   0.480   4.153  0.6767  0.4163 -0.4186
   56CHL1  H18A 5278   3.167   0.517   4.053  2.0951  0.0107 -0.1266
   56CHL1  H18B 5279   3.126   0.572   4.215  0.3226  1.5456 -2.0622
   56CHL1  H18C 5280   3.213   0.413   4.192  0.2160  1.2104  2.0283
   56CHL1   C12 5281   2.993   0.290   4.062 -0.0451  0.3100  0.7825
   56CHL1  H12A 5282   3.056   0.215   4.115  0.7032  1.2145  1.2077
   56CHL1  H12B 5283   2.895   0.238   4.070  1.7395 -3.7591 -1.1236
   56CHL1   C11 5284   3.031   0.309   3.910  0.1906  1.1227 -0.4331
   56CHL1  H11A 5285   3.142   0.318   3.912  0.2366  0.6526 -0.6970
   56CHL1  H11B 5286   3.014   0.211   3.860  0.8904  0.8401 -0.1327
   56CHL1    C9 5287   2.959   0.418   3.829  0.4848 -0.4051 -0.3445
   56CHL1    H9 5288   2.857   0.375   3.818  0.0569  0.1557  1.1820
   56CHL1   C10 5289   3.010   0.444   3.685  0.3232  0.6055  0.7697
   56CHL1   C19 5290   3.164   0.476   3.694  0.1369  0.0805  0.3174
   56CHL1  H19A 5291   3.210   0.495   3.594  1.9937 -0.8285  0.9426
   56CHL1  H19B 5292   3.179   0.568   3.754  0.9281  0.1242  0.0675
   56CHL1  H19C 5293   3.211   0.381   3.728  0.1087 -0.4322 -1.0036
   56CHL1    C1 5294   2.988   0.322   3.587 -0.0361 -0.6467 -0.5293
   56CHL1   H1A 5295   3.061   0.243   3.614  0.0127 -0.2204  0.6514
   56CHL1   H1B 5296   2.885   0.280   3.585 -0.1298 -0.4163 -0.6036
   56CHL1    C2 5297   3.012   0.364   3.436 -0.0654  0.0042  0.2287
   56CHL1   H2A 5298   2.994   0.279   3.367  3.1593  0.6206 -1.5781
   56CHL1   H2B 5299   3.117   0.395   3.418  0.0371 -0.0560  0.6962
   56CHL1   C20 5300   3.007   0.388   4.395 -0.1435  0.6844  0.5675
   56CHL1   H20 5301   3.096   0.453   4.405 -0.5018  0.7943  4.6336
   56CHL1   C21 5302   3.048   0.235   4.362  0.4228 -0.1256 -0.7640
   56CHL1  H21A 5303   3.083   0.169   4.444  0.3364  1.5721  0.7057
   56CHL1  H21B 5304   3.137   0.236   4.295 -0.1339 -3.0325 -1.7045
   56CHL1  H21C 5305   2.963   0.192   4.305 -1.2724  3.2640 -1.0734
   56CHL1   C22 5306   2.938   0.403   4.529  0.1555 -0.0900 -0.1093
   56CHL1  H22A 5307   2.911   0.511   4.530 -0.2881 -0.2006  0.1882
   56CHL1  H22B 5308   2.839   0.352   4.525  0.2625 -0.3611  0.5735
   56CHL1   C23 5309   3.016   0.373   4.665 -0.7504  0.4336  0.0710
   56CHL1  H23A 5310   3.024   0.262   4.669 -2.2069  0.3595  2.4827
   56CHL1  H23B 5311   3.113   0.428   4.664 -1.1353  1.1278  0.2697
   56CHL1   C24 5312   2.948   0.408   4.795  0.6687 -0.5320  0.4641
   56CHL1  H24A 5313   2.934   0.518   4.805  0.0128 -0.4808 -0.8581
   56CHL1  H24B 5314   2.851   0.355   4.780  1.0286 -0.9187 -0.5744
   56CHL1   C25 5315   3.028   0.354   4.917 -0.0937 -0.1587 -0.4547
   56CHL1   H25 5316   3.061   0.250   4.897 -1.5805 -0.8416  0.4387
   56CHL1   C26 5317   3.147   0.440   4.952 -0.0036  0.0100 -0.3860
   56CHL1  H26A 5318   3.105   0.541   4.970  0.9940  0.0458  2.1400
   56CHL1  H26B 5319   3.192   0.402   5.046 -0.7310 -0.6279 -0.2826
   56CHL1  H26C 5320   3.234   0.448   4.883  0.2229 -1.2452 -0.2709
   56CHL1   C27 5321   2.938   0.344   5.044 -0.2343 -0.9921 -0.7948
   56CHL1  H27A 5322   2.839   0.303   5.015 -1.1027  0.4742  0.0024
   56CHL1  H27B 5323   2.984   0.264   5.106 -0.1188 -0.5982 -0.3696
   56CHL1  H27C 5324   2.920   0.439   5.098 -1.5438  0.2564 -3.2587
   57CHL1    C3 5325   2.870   1.142   3.144 -0.0773 -0.4755 -0.1507
   57CHL1    H3 5326   2.978   1.147   3.171 -0.7253  3.6152  2.7921
   57CHL1    O3 5327   2.845   1.111   3.008 -0.1377 -0.4557 -0.2327
   57CHL1   H3' 5328   2.770   1.052   3.018  0.4932 -1.2090  0.1654
   57CHL1    C4 5329   2.785   1.037   3.224 -0.1730 -0.3575  0.2832
   57CHL1   H4A 5330   2.679   1.048   3.191  0.1088  0.0095 -0.5139
   57CHL1   H4B 5331   2.820   0.933   3.210  0.5851 -0.0812  0.0886
   57CHL1    C5 5332   2.802   1.073   3.371  0.0294  0.5582  0.1348
   57CHL1    C6 5333   2.869   0.995   3.462  0.8892 -0.0777  0.5285
   57CHL1    H6 5334   2.910   0.897   3.432  1.8975  0.0315  1.4728
   57CHL1    C7 5335   2.878   1.024   3.610  0.4626 -0.3448  0.0134
   57CHL1   H7A 5336   2.844   0.946   3.681  0.2571  0.6705  1.0396
   57CHL1   H7B 5337   2.982   1.041   3.646 -0.4337 -0.8068  3.1216
   57CHL1    C8 5338   2.790   1.139   3.662  0.4361  0.0149  0.2100
   57CHL1    H8 5339   2.692   1.089   3.676 -0.4669  1.2061 -1.5011
   57CHL1   C14 5340   2.840   1.193   3.798  0.0343  0.3315 -0.3542
   57CHL1   H14 5341   2.939   1.239   3.776  1.9259 -1.3914  3.5460
   57CHL1   C15 5342   2.858   1.092   3.908  0.1003  0.3318  0.0914
   57CHL1  H15A 5343   2.766   1.030   3.915  0.1029  0.1738 -1.0583
   57CHL1  H15B 5344   2.945   1.028   3.882  0.8229  1.4034 -0.2064
   57CHL1   C16 5345   2.879   1.174   4.037 -0.5087  0.2852  0.7608
   57CHL1  H16A 5346   2.813   1.146   4.123  0.1559  1.7739  1.8023
   57CHL1  H16B 5347   2.987   1.179   4.061  0.2023 -2.8838 -1.2177
   57CHL1   C17 5348   2.839   1.321   3.999  0.1818  0.1173 -0.2367
   57CHL1   H17 5349   2.935   1.372   3.975 -0.2698  1.4598  0.7325
   57CHL1   C13 5350   2.762   1.306   3.861 -0.1709 -0.0553  0.0293
   57CHL1   C18 5351   2.622   1.256   3.894  0.1270 -0.0174  0.0160
   57CHL1  H18A 5352   2.566   1.212   3.809  2.1516 -0.9088 -0.9426
   57CHL1  H18B 5353   2.626   1.171   3.966 -0.9372  1.7815  2.3303
   57CHL1  H18C 5354   2.574   1.341   3.947  0.5671  0.1699  0.1257
   57CHL1   C12 5355   2.748   1.418   3.762 -0.1948  0.1484 -0.7561
   57CHL1  H12A 5356   2.687   1.502   3.800  0.3153 -0.0018  0.4442
   57CHL1  H12B 5357   2.853   1.454   3.757  0.4832 -1.3505  1.4848
   57CHL1   C11 5358   2.694   1.375   3.627  0.6788  1.0115  0.0043
   57CHL1  H11A 5359   2.588   1.345   3.642  0.7231  1.3477  1.1658
   57CHL1  H11B 5360   2.688   1.451   3.547 -1.7879  0.2932 -0.5664
   57CHL1    C9 5361   2.781   1.255   3.563  0.4336 -0.2202  0.0440
   57CHL1    H9 5362   2.882   1.300   3.554 -0.8049  2.5445 -1.0434
   57CHL1   C10 5363   2.751   1.214   3.422 -0.0895 -0.0383  0.1771
   57CHL1   C19 5364   2.597   1.210   3.403 -0.7984 -0.1456  0.6969
   57CHL1  H19A 5365   2.554   1.310   3.427 -1.2807 -0.1003 -0.2847
   57CHL1  H19B 5366   2.558   1.184   3.302 -1.5019  0.4748  0.7979
   57CHL1  H19C 5367   2.542   1.140   3.468 -2.5830 -0.0935 -0.6594
   57CHL1    C1 5368   2.826   1.315   3.329 -0.4264 -0.9803  0.7546
   57CHL1   H1A 5369   2.790   1.417   3.351  0.3798  0.0736 -2.3395
   57CHL1   H1B 5370   2.935   1.317   3.350 -0.8492  0.1253  3.1543
   57CHL1    C2 5371   2.814   1.285   3.173  0.3739 -0.6243  0.4799
   57CHL1   H2A 5372   2.859   1.352   3.096  0.2054 -1.7665 -0.6560
   57CHL1   H2B 5373   2.705   1.300   3.161  0.3542  0.3198  1.6250
   57CHL1   C20 5374   2.780   1.402   4.110  0.3794 -0.2410 -0.3001
   57CHL1   H20 5375   2.686   1.350   4.137  0.5200 -0.7424 -0.7601
   57CHL1   C21 5376   2.754   1.552   4.065 -0.5043  0.7258 -0.1377
   57CHL1  H21A 5377   2.848   1.594   4.024 -1.3629  1.2971 -1.5856
   57CHL1  H21B 5378   2.728   1.617   4.152 -0.4734 -0.4704  0.8056
   57CHL1  H21C 5379   2.678   1.549   3.984  0.5270  0.0767 -1.1133
   57CHL1   C22 5380   2.868   1.413   4.237  0.7005  0.2889  0.5999
   57CHL1  H22A 5381   2.906   1.309   4.250 -1.1587 -0.6025 -0.6649
   57CHL1  H22B 5382   2.954   1.475   4.205  1.0815 -0.3009  0.4590
   57CHL1   C23 5383   2.808   1.475   4.371  0.1447 -0.8122  0.1835
   57CHL1  H23A 5384   2.742   1.564   4.357  0.3372 -0.8667 -1.2480
   57CHL1  H23B 5385   2.746   1.393   4.413 -0.5491 -0.5422 -0.2869
   57CHL1   C24 5386   2.924   1.503   4.465 -0.7833  0.5330 -0.2327
   57CHL1  H24A 5387   2.980   1.408   4.481 -0.5670  0.4656 -1.3308
   57CHL1  H24B 5388   2.982   1.574   4.403  1.0422 -3.0016 -2.9279
   57CHL1   C25 5389   2.884   1.566   4.604  0.0228 -0.1819 -0.2947
   57CHL1   H25 5390   2.817   1.653   4.585 -4.1544 -2.9923  0.3959
   57CHL1   C26 5391   2.788   1.472   4.680  0.5935  0.3374 -0.7231
   57CHL1  H26A 5392   2.753   1.521   4.773  1.4160  1.1514 -0.8201
   57CHL1  H26B 5393   2.709   1.441   4.608 -0.4778 -0.4012  0.7227
   57CHL1  H26C 5394   2.846   1.380   4.699 -0.2633 -0.8339 -3.2694
   57CHL1   C27 5395   3.007   1.603   4.681 -0.2426 -0.2790  0.2235
   57CHL1  H27A 5396   2.991   1.662   4.774  0.8860  1.4586 -0.6367
   57CHL1  H27B 5397   3.049   1.502   4.706 -3.0930 -2.1314 -1.9232
   57CHL1  H27C 5398   3.074   1.661   4.614  1.2401  1.4669  3.0293
   58CHL1    C3 5399   1.590   1.564   3.636 -0.1284 -0.5861  0.3143
   58CHL1    H3 5400   1.552   1.667   3.655  0.2611 -0.5576  0.9413
   58CHL1    O3 5401   1.547   1.524   3.503 -0.0396  0.4761 -0.5890
   58CHL1   H3' 5402   1.467   1.475   3.523  1.2085 -1.0324  1.1933
   58CHL1    C4 5403   1.738   1.565   3.644 -0.1591 -0.2006 -0.1222
   58CHL1   H4A 5404   1.769   1.462   3.616 -2.3198 -1.2111  0.9792
   58CHL1   H4B 5405   1.778   1.635   3.568  1.1367 -1.5924 -0.7693
   58CHL1    C5 5406   1.788   1.592   3.784 -0.3323 -0.3838 -0.1732
   58CHL1    C6 5407   1.878   1.692   3.800  0.5890  0.2429  0.0323
   58CHL1    H6 5408   1.907   1.752   3.712 -0.8489  0.6763 -0.1812
   58CHL1    C7 5409   1.928   1.722   3.945  0.1235  0.5865 -0.3896
   58CHL1   H7A 5410   2.034   1.756   3.945  0.0194  1.0960  2.1282
   58CHL1   H7B 5411   1.877   1.809   3.992  0.9769 -0.3824  2.5947
   58CHL1    C8 5412   1.902   1.611   4.050  0.1448 -0.3909 -0.6824
   58CHL1    H8 5413   1.966   1.522   4.028 -0.6571 -0.8461 -1.2467
   58CHL1   C14 5414   1.922   1.669   4.188  0.0582  0.6067  0.1504
   58CHL1   H14 5415   1.852   1.755   4.197  0.1826  0.7612 -0.2949
   58CHL1   C15 5416   2.053   1.735   4.222 -0.1628 -0.4731 -0.1831
   58CHL1  H15A 5417   2.138   1.674   4.183  0.5469 -0.0416  0.6497
   58CHL1  H15B 5418   2.054   1.837   4.178 -0.0763  0.4878  1.9180
   58CHL1   C16 5419   2.043   1.744   4.374  0.4536 -0.0238 -0.1953
   58CHL1  H16A 5420   2.139   1.709   4.419 -0.9973  0.0324  3.2220
   58CHL1  H16B 5421   2.024   1.843   4.419  0.1088  0.7694 -1.9930
   58CHL1   C17 5422   1.920   1.650   4.423  0.1856  0.5037 -0.0319
   58CHL1   H17 5423   1.836   1.721   4.437  0.3959  0.4947  1.4902
   58CHL1   C13 5424   1.893   1.570   4.302  0.5470 -0.8347  0.8248
   58CHL1   C18 5425   1.979   1.450   4.297 -0.6075 -0.8032  0.1498
   58CHL1  H18A 5426   2.086   1.471   4.317 -0.4390 -0.7358 -0.7687
   58CHL1  H18B 5427   1.951   1.378   4.377  0.5625  0.6118  1.9143
   58CHL1  H18C 5428   1.973   1.390   4.203  2.2568 -2.6137  0.9954
   58CHL1   C12 5429   1.740   1.542   4.285  0.7780 -0.1528 -0.1707
   58CHL1  H12A 5430   1.705   1.470   4.362 -1.4703  0.1033 -0.8553
   58CHL1  H12B 5431   1.679   1.635   4.291 -1.3135 -1.3227 -1.6890
   58CHL1   C11 5432   1.716   1.469   4.150 -0.2911 -0.6794 -0.2908
   58CHL1  H11A 5433   1.771   1.373   4.147 -1.8033 -1.5894 -0.1445
   58CHL1  H11B 5434   1.610   1.439   4.136 -0.7223  0.9292 -0.6699
   58CHL1    C9 5435   1.760   1.567   4.041  0.1607 -0.2727 -0.2225
   58CHL1    H9 5436   1.691   1.654   4.050  0.5849  0.0618 -0.1577
   58CHL1   C10 5437   1.724   1.512   3.896  0.4818  0.8212  0.0512
   58CHL1   C19 5438   1.790   1.367   3.888  0.3977 -0.7133 -0.2630
   58CHL1  H19A 5439   1.735   1.298   3.956 -0.0108  2.0485  2.4222
   58CHL1  H19B 5440   1.774   1.329   3.785 -1.6414 -0.8081  0.0531
   58CHL1  H19C 5441   1.900   1.354   3.898  0.7127 -1.9667 -3.7999
   58CHL1    C1 5442   1.570   1.508   3.882  0.4801 -0.5817 -0.0305
   58CHL1   H1A 5443   1.525   1.431   3.948  0.6715  0.9997  2.0614
   58CHL1   H1B 5444   1.528   1.608   3.903 -1.3217 -1.0113 -1.4282
   58CHL1    C2 5445   1.525   1.474   3.746 -0.1622  0.1412 -0.4471
   58CHL1   H2A 5446   1.414   1.479   3.744 -0.1729  1.1764  1.2546
   58CHL1   H2B 5447   1.547   1.368   3.720  0.2474  0.0528  0.2380
   58CHL1   C20 5448   1.933   1.580   4.557 -0.8740 -0.3438 -0.5335
   58CHL1   H20 5449   2.010   1.501   4.566  0.0261  0.7129  2.5478
   58CHL1   C21 5450   1.798   1.513   4.594 -0.0137  0.2785 -0.5430
   58CHL1  H21A 5451   1.719   1.572   4.544  1.1956  1.6062 -0.9494
   58CHL1  H21B 5452   1.779   1.493   4.702  1.1720  0.4072 -0.2947
   58CHL1  H21C 5453   1.790   1.411   4.551  0.5772  1.0123 -2.4922
   58CHL1   C22 5454   1.961   1.678   4.676  0.2044 -0.4757  0.0704
   58CHL1  H22A 5455   1.977   1.621   4.771 -0.9227  0.8128  1.0705
   58CHL1  H22B 5456   2.051   1.740   4.653  0.0090 -0.1275  0.2360
   58CHL1   C23 5457   1.853   1.786   4.706  0.6978 -0.0435 -0.0815
   58CHL1  H23A 5458   1.819   1.839   4.614  0.6301  0.7460  0.3849
   58CHL1  H23B 5459   1.768   1.738   4.760  0.8867  1.2112  1.4249
   58CHL1   C24 5460   1.896   1.899   4.803 -0.1689  0.3135  0.5784
   58CHL1  H24A 5461   1.953   1.864   4.891  0.4239 -0.9269 -0.2878
   58CHL1  H24B 5462   1.978   1.961   4.760  0.0118  1.5789  2.6266
   58CHL1   C25 5463   1.776   1.987   4.839 -0.1795 -0.6387 -0.5754
   58CHL1   H25 5464   1.692   1.971   4.768 -2.1458  1.2105  1.1690
   58CHL1   C26 5465   1.735   1.954   4.989 -0.6049  0.1311  0.5055
   58CHL1  H26A 5466   1.640   2.011   5.003 -1.0839 -0.5917  0.2168
   58CHL1  H26B 5467   1.718   1.844   4.992 -2.3458  0.2941 -1.3304
   58CHL1  H26C 5468   1.810   1.989   5.064  0.7923 -0.2245 -0.6890
   58CHL1   C27 5469   1.822   2.133   4.824  0.1290 -0.0338  0.1594
   58CHL1  H27A 5470   1.734   2.198   4.845 -0.0487 -0.0767 -0.4562
   58CHL1  H27B 5471   1.910   2.159   4.886  0.1932  2.8071 -0.9543
   58CHL1  H27C 5472   1.854   2.151   4.720  0.8959 -0.3291  0.3392
   59CHL1    C3 5473   6.588   0.650   3.333  0.5203  0.6125  0.3670
   59CHL1    H3 5474   6.695   0.676   3.325  0.7739 -0.7092 -0.9051
   59CHL1    O3 5475   6.542   0.626   3.205  0.5981  0.1968 -0.2091
   59CHL1   H3' 5476   6.525   0.715   3.174 -1.9853 -0.9013 -2.2694
   59CHL1    C4 5477   6.569   0.518   3.411 -0.3837 -0.5269  0.5349
   59CHL1   H4A 5478   6.470   0.468   3.406 -0.0977 -0.9695 -1.7999
   59CHL1   H4B 5479   6.626   0.439   3.357 -1.2851 -0.3064 -0.7828
   59CHL1    C5 5480   6.615   0.532   3.555  0.1233  0.4283 -0.2460
   59CHL1    C6 5481   6.699   0.442   3.610  0.4764 -0.5689 -0.0648
   59CHL1    H6 5482   6.728   0.348   3.560  0.0492 -0.2308 -0.9710
   59CHL1    C7 5483   6.750   0.461   3.756  0.4225  0.3023  0.8314
   59CHL1   H7A 5484   6.757   0.365   3.813 -0.3731  0.2983  0.9379
   59CHL1   H7B 5485   6.853   0.502   3.756  0.8014 -0.6131 -0.4087
   59CHL1    C8 5486   6.649   0.546   3.842 -0.4036 -0.7649  0.0184
   59CHL1    H8 5487   6.557   0.486   3.860  1.2436 -2.8595  2.0783
   59CHL1   C14 5488   6.713   0.575   3.980  0.6580 -0.4200  0.0817
   59CHL1   H14 5489   6.813   0.619   3.961  0.7283  0.6584  2.6088
   59CHL1   C15 5490   6.757   0.456   4.062 -0.6689 -1.0672 -0.5485
   59CHL1  H15A 5491   6.690   0.368   4.055 -0.9952 -0.9468  0.8164
   59CHL1  H15B 5492   6.857   0.419   4.032  1.5423  2.9833  1.0637
   59CHL1   C16 5493   6.773   0.514   4.205 -0.7649  0.3821  0.2269
   59CHL1  H16A 5494   6.730   0.444   4.280  1.4756  0.4469  1.6569
   59CHL1  H16B 5495   6.880   0.506   4.232 -1.3586  0.8912  3.0476
   59CHL1   C17 5496   6.724   0.664   4.203  0.6956 -0.1812 -0.2225
   59CHL1   H17 5497   6.821   0.713   4.177 -0.3435  0.5721 -3.0518
   59CHL1   C13 5498   6.639   0.673   4.068  0.1862 -0.6880 -0.0891
   59CHL1   C18 5499   6.505   0.620   4.104 -0.2084  0.7753  0.0136
   59CHL1  H18A 5500   6.510   0.535   4.175  0.2067  0.7770 -0.0068
   59CHL1  H18B 5501   6.432   0.694   4.144  1.4697  1.7678  1.3823
   59CHL1  H18C 5502   6.459   0.571   4.016 -1.6223  2.0701 -0.0146
   59CHL1   C12 5503   6.641   0.804   3.991 -0.2876  0.0232 -0.2675
   59CHL1  H12A 5504   6.588   0.883   4.050  1.5130  1.2408 -0.1730
   59CHL1  H12B 5505   6.741   0.847   3.966  0.2392 -1.8236 -1.5278
   59CHL1   C11 5506   6.557   0.788   3.860 -0.0265  0.0880 -0.1247
   59CHL1  H11A 5507   6.452   0.761   3.882 -0.2638 -0.7289 -2.0536
   59CHL1  H11B 5508   6.559   0.889   3.813  2.6782 -0.2389 -0.9010
   59CHL1    C9 5509   6.625   0.679   3.767  1.1851 -0.2652  0.4542
   59CHL1    H9 5510   6.722   0.730   3.749  1.3858 -0.2849  1.4363
   59CHL1   C10 5511   6.552   0.658   3.624  0.5866 -0.5888  0.6529
   59CHL1   C19 5512   6.399   0.641   3.658  0.0372 -0.3296  0.1526
   59CHL1  H19A 5513   6.387   0.559   3.732  0.0865 -0.6858 -0.2263
   59CHL1  H19B 5514   6.357   0.738   3.691  2.8189  2.0437 -2.6916
   59CHL1  H19C 5515   6.340   0.604   3.571 -1.8434  0.5403  1.0086
   59CHL1    C1 5516   6.570   0.784   3.545  0.4269 -0.4363  0.3295
   59CHL1   H1A 5517   6.522   0.874   3.587 -1.4467 -0.1849 -2.1379
   59CHL1   H1B 5518   6.677   0.813   3.537 -0.3923  2.9561  0.4562
   59CHL1    C2 5519   6.512   0.764   3.406  0.4749 -0.2833 -0.3880
   59CHL1   H2A 5520   6.527   0.864   3.360  1.9503  0.5286  1.6954
   59CHL1   H2B 5521   6.404   0.740   3.407  0.5414 -0.6195  0.8744
   59CHL1   C20 5522   6.668   0.720   4.334  0.2101  0.0198  0.2603
   59CHL1   H20 5523   6.585   0.658   4.373 -1.2063  1.0796 -0.9809
   59CHL1   C21 5524   6.623   0.863   4.332  0.5302  0.0918  0.0649
   59CHL1  H21A 5525   6.544   0.878   4.256 -1.7965 -1.2750  2.0697
   59CHL1  H21B 5526   6.703   0.938   4.312  1.2571 -0.2784  1.4190
   59CHL1  H21C 5527   6.574   0.894   4.427  1.9778  4.4492 -0.4214
   59CHL1   C22 5528   6.782   0.722   4.446  1.0634  0.0701 -0.7535
   59CHL1  H22A 5529   6.852   0.639   4.428  0.7145  0.1818 -2.9322
   59CHL1  H22B 5530   6.831   0.822   4.454 -1.1104  1.0512  2.0124
   59CHL1   C23 5531   6.714   0.703   4.584  0.0321 -0.1671  0.1851
   59CHL1  H23A 5532   6.634   0.780   4.592 -2.4342 -2.4315 -1.0124
   59CHL1  H23B 5533   6.651   0.611   4.581 -1.9425  1.1364 -0.5996
   59CHL1   C24 5534   6.812   0.682   4.702  0.4702  0.0828  0.2921
   59CHL1  H24A 5535   6.899   0.620   4.670  0.9581  0.0486  1.6171
   59CHL1  H24B 5536   6.854   0.782   4.726  1.6262 -0.0856 -0.8846
   59CHL1   C25 5537   6.744   0.633   4.828 -0.2176  0.5683 -0.1151
   59CHL1   H25 5538   6.652   0.695   4.829 -0.5100  0.4597 -3.9898
   59CHL1   C26 5539   6.706   0.491   4.804 -0.3615  0.8838 -0.1219
   59CHL1  H26A 5540   6.618   0.475   4.738 -0.9247 -3.0166  1.2750
   59CHL1  H26B 5541   6.785   0.427   4.759 -1.5363 -1.1486  0.5859
   59CHL1  H26C 5542   6.688   0.439   4.900  0.1404 -2.4315 -1.6844
   59CHL1   C27 5543   6.830   0.651   4.944 -0.1028 -0.3317 -0.5628
   59CHL1  H27A 5544   6.852   0.758   4.959 -1.3637 -0.0273 -0.7667
   59CHL1  H27B 5545   6.776   0.614   5.034 -0.1135 -0.6512 -0.6970
   59CHL1  H27C 5546   6.936   0.618   4.934  0.5008  0.4787  2.3839
   60CHL1    C3 5547   1.937   0.300   3.334  0.2974  0.4336 -0.2026
   60CHL1    H3 5548   1.851   0.367   3.356  0.2325  0.6209 -1.0039
   60CHL1    O3 5549   1.945   0.278   3.189  0.7587 -0.5221 -0.1637
   60CHL1   H3' 5550   1.944   0.364   3.146 -1.2886  0.2957  1.3629
   60CHL1    C4 5551   2.076   0.344   3.386 -0.2694  0.3601  0.2286
   60CHL1   H4A 5552   2.147   0.270   3.342 -1.3748 -0.5329 -0.0908
   60CHL1   H4B 5553   2.095   0.445   3.344 -2.8283  0.7446 -0.1555
   60CHL1    C5 5554   2.074   0.354   3.539  0.5164 -1.0953 -0.1934
   60CHL1    C6 5555   2.125   0.462   3.594  0.1056  0.1026  0.2473
   60CHL1    H6 5556   2.164   0.546   3.533 -0.6172  1.2182  1.2725
   60CHL1    C7 5557   2.145   0.487   3.735  0.2153  0.1106 -0.0013
   60CHL1   H7A 5558   2.249   0.517   3.762 -0.3114  1.7223  0.4004
   60CHL1   H7B 5559   2.082   0.578   3.743 -1.7942 -1.1795 -0.4282
   60CHL1    C8 5560   2.101   0.367   3.830  0.5299 -0.2102  0.4493
   60CHL1    H8 5561   2.183   0.293   3.846  0.7696  0.3125  1.8139
   60CHL1   C14 5562   2.050   0.416   3.962 -0.0818 -0.7885  0.1706
   60CHL1   H14 5563   1.964   0.481   3.939  0.6891  0.3682  0.4486
   60CHL1   C15 5564   2.143   0.515   4.034 -0.2755 -0.1278 -0.7589
   60CHL1  H15A 5565   2.248   0.493   4.003  0.6475  1.4936  0.9926
   60CHL1  H15B 5566   2.129   0.611   3.981 -1.0193 -1.1788 -2.5865
   60CHL1   C16 5567   2.098   0.504   4.177  0.7218 -0.1958  0.3479
   60CHL1  H16A 5568   2.187   0.485   4.242 -0.2482 -0.3899  1.6611
   60CHL1  H16B 5569   2.054   0.596   4.220  0.1321  0.0459 -0.7587
   60CHL1   C17 5570   1.989   0.395   4.182  0.6597  0.1303  0.0405
   60CHL1   H17 5571   1.891   0.445   4.171  0.5176  0.5935  2.6601
   60CHL1   C13 5572   2.011   0.308   4.056 -0.8572 -0.4210  0.2611
   60CHL1   C18 5573   2.132   0.209   4.086 -0.6649  0.7671 -1.0404
   60CHL1  H18A 5574   2.212   0.260   4.144  0.5015 -0.4918 -1.4981
   60CHL1  H18B 5575   2.100   0.134   4.160 -1.0916 -0.1480 -2.1326
   60CHL1  H18C 5576   2.179   0.160   3.998  0.2241  2.2289 -1.4331
   60CHL1   C12 5577   1.899   0.219   3.995  0.0082 -0.5807 -0.4998
   60CHL1  H12A 5578   1.874   0.129   4.054  0.6004  0.3990  1.3164
   60CHL1  H12B 5579   1.821   0.298   3.989  0.8822  0.2199 -1.7733
   60CHL1   C11 5580   1.935   0.178   3.854 -0.3404 -0.8215 -0.2286
   60CHL1  H11A 5581   2.018   0.104   3.853  1.3606  0.9131  2.0060
   60CHL1  H11B 5582   1.847   0.136   3.801  0.0655 -3.3932  0.9385
   60CHL1    C9 5583   1.988   0.287   3.759 -0.1234  0.6132 -0.8981
   60CHL1    H9 5584   1.913   0.365   3.738  1.9240  2.4507 -1.7432
   60CHL1   C10 5585   2.024   0.233   3.611  0.3144  1.0501 -0.0115
   60CHL1   C19 5586   2.134   0.116   3.623 -0.1586 -0.6253  0.9161
   60CHL1  H19A 5587   2.161   0.083   3.520 -0.0544 -1.4832  1.2060
   60CHL1  H19B 5588   2.209   0.162   3.690 -0.7066  4.0630 -1.2995
   60CHL1  H19C 5589   2.089   0.030   3.678 -2.5598  0.8131  1.3276
   60CHL1    C1 5590   1.895   0.175   3.547  0.3636 -0.1514  0.3171
   60CHL1   H1A 5591   1.866   0.081   3.597  1.9921  0.3629  2.3560
   60CHL1   H1B 5592   1.814   0.250   3.558  0.1570 -0.3152 -0.0616
   60CHL1    C2 5593   1.906   0.160   3.393  0.4899 -0.0041 -0.8773
   60CHL1   H2A 5594   1.811   0.118   3.351  0.5211 -0.3012 -0.6523
   60CHL1   H2B 5595   1.983   0.086   3.362  0.0645 -1.3829  1.1483
   60CHL1   C20 5596   1.975   0.328   4.319 -0.2781  0.9258 -0.2587
   60CHL1   H20 5597   2.054   0.254   4.343  1.6475  3.0301  0.1292
   60CHL1   C21 5598   1.835   0.247   4.324 -0.3990  0.3405 -0.1749
   60CHL1  H21A 5599   1.847   0.151   4.269 -0.2332 -0.3957  1.1223
   60CHL1  H21B 5600   1.754   0.313   4.285 -0.9380 -0.2887 -0.1472
   60CHL1  H21C 5601   1.816   0.218   4.429  0.7916 -1.3268 -0.3897
   60CHL1   C22 5602   1.983   0.437   4.430 -0.1912  0.7035 -0.1097
   60CHL1  H22A 5603   2.086   0.481   4.429  0.9696 -1.8527 -0.8785
   60CHL1  H22B 5604   1.902   0.513   4.426  0.4726  1.5610  1.3876
   60CHL1   C23 5605   1.976   0.376   4.570 -0.0513  0.3361  0.3683
   60CHL1  H23A 5606   1.873   0.336   4.584 -0.2302  0.9839  0.9865
   60CHL1  H23B 5607   2.050   0.294   4.582  1.3767  1.6731  0.9734
   60CHL1   C24 5608   2.011   0.474   4.689  0.0953  0.9844  0.0352
   60CHL1  H24A 5609   2.106   0.524   4.662  2.2795 -1.3275  2.7115
   60CHL1  H24B 5610   1.939   0.558   4.696 -0.6748  0.3909 -0.5316
   60CHL1   C25 5611   2.019   0.410   4.833  0.3292 -0.2180  0.3084
   60CHL1   H25 5612   2.087   0.322   4.832 -0.5096 -0.8909  0.5382
   60CHL1   C26 5613   2.088   0.509   4.930  0.1556 -0.2221  0.2718
   60CHL1  H26A 5614   2.086   0.476   5.036 -0.6065 -0.6154  0.1374
   60CHL1  H26B 5615   2.195   0.515   4.899 -0.4837  1.7646 -1.8543
   60CHL1  H26C 5616   2.048   0.611   4.914 -1.7451 -0.3287  3.4673
   60CHL1   C27 5617   1.878   0.365   4.875 -0.5023  0.1612  0.6761
   60CHL1  H27A 5618   1.866   0.334   4.981  0.3293 -0.4103  0.6107
   60CHL1  H27B 5619   1.812   0.454   4.871  2.2716  2.3339 -0.8421
   60CHL1  H27C 5620   1.856   0.284   4.803  1.8354  2.2545 -2.6878
   61CHL1    C3 5621   1.067   2.981   3.518  0.2173  0.2468 -0.2578
   61CHL1    H3 5622   1.169   2.951   3.551  0.1385 -2.4153 -2.1465
   61CHL1    O3 5623   1.065   2.990   3.383 -0.4232  0.0751  0.7491
   61CHL1   H3' 5624   0.995   2.931   3.352  0.6795 -0.3072 -1.1590
   61CHL1    C4 5625   0.952   2.891   3.559 -0.4777 -0.1006 -0.2713
   61CHL1   H4A 5626   0.855   2.913   3.510 -0.6623 -2.0798 -0.8495
   61CHL1   H4B 5627   0.984   2.789   3.530 -0.5264 -0.1074 -0.3009
   61CHL1    C5 5628   0.929   2.880   3.705 -0.0274  0.0736 -0.3747
   61CHL1    C6 5629   0.937   2.763   3.771  0.0880  0.3764 -0.0486
   61CHL1    H6 5630   0.952   2.676   3.705 -0.4582  0.0418  0.2613
   61CHL1    C7 5631   0.907   2.746   3.914  0.5463 -0.0315  0.6621
   61CHL1   H7A 5632   0.838   2.661   3.931  0.7937 -0.0306  1.7342
   61CHL1   H7B 5633   1.006   2.729   3.962  0.3810  0.4413  1.1818
   61CHL1    C8 5634   0.845   2.871   3.981  0.0307  0.1486 -0.6974
   61CHL1    H8 5635   0.739   2.878   3.949 -0.4846 -0.4667  0.7538
   61CHL1   C14 5636   0.845   2.855   4.129  0.1922 -0.0955  0.5455
   61CHL1   H14 5637   0.951   2.838   4.159 -0.1798 -3.6370  0.2484
   61CHL1   C15 5638   0.781   2.734   4.192  0.1673 -0.5826 -0.1688
   61CHL1  H15A 5639   0.700   2.694   4.127 -0.4007  0.9548 -0.4463
   61CHL1  H15B 5640   0.857   2.654   4.200  0.4092 -0.2076  1.7090
   61CHL1   C16 5641   0.742   2.775   4.340  0.1824 -0.7542  0.3404
   61CHL1  H16A 5642   0.633   2.755   4.338  0.3956 -2.3721  1.9662
   61CHL1  H16B 5643   0.781   2.695   4.406 -1.5060 -3.2364 -1.4828
   61CHL1   C17 5644   0.793   2.929   4.347 -0.5025 -0.1128  1.0156
   61CHL1   H17 5645   0.902   2.927   4.369 -0.1149 -1.3201 -0.8333
   61CHL1   C13 5646   0.794   2.977   4.203  0.5599  0.0657 -0.1578
   61CHL1   C18 5647   0.645   3.014   4.169 -0.5004 -0.8839  0.6403
   61CHL1  H18A 5648   0.616   3.114   4.206 -0.2965  0.3619 -2.3107
   61CHL1  H18B 5649   0.625   3.030   4.061 -0.3031  0.6254  0.8035
   61CHL1  H18C 5650   0.569   2.945   4.211 -0.5784 -1.5538 -0.5403
   61CHL1   C12 5651   0.891   3.099   4.171 -0.0533  0.4225  0.4972
   61CHL1  H12A 5652   0.853   3.183   4.234  1.4769  0.4495  1.4318
   61CHL1  H12B 5653   0.993   3.064   4.196  0.3706  0.1423 -1.4801
   61CHL1   C11 5654   0.894   3.124   4.017  0.4899 -0.3492  0.3179
   61CHL1  H11A 5655   0.795   3.171   3.996 -0.0165 -1.1880  0.7587
   61CHL1  H11B 5656   0.963   3.208   3.994 -0.1741  0.0234 -0.3858
   61CHL1    C9 5657   0.925   2.996   3.933 -0.2208 -0.4980 -0.0521
   61CHL1    H9 5658   1.031   2.969   3.954  0.5615  1.6530 -0.9792
   61CHL1   C10 5659   0.916   3.015   3.780  0.2809 -0.0383  0.3633
   61CHL1   C19 5660   0.779   3.076   3.750  0.4454  0.0200 -1.1050
   61CHL1  H19A 5661   0.690   3.026   3.795  0.7278 -0.0578 -0.6322
   61CHL1  H19B 5662   0.773   3.184   3.776 -2.2487 -0.9788  3.6302
   61CHL1  H19C 5663   0.769   3.074   3.639 -0.1681 -0.5193 -1.0490
   61CHL1    C1 5664   1.028   3.109   3.732  0.3145  0.3603  0.6735
   61CHL1   H1A 5665   1.007   3.213   3.766 -0.3247  0.3412  0.3594
   61CHL1   H1B 5666   1.122   3.074   3.779  1.0150 -0.5981 -1.3074
   61CHL1    C2 5667   1.044   3.116   3.580  0.3194 -0.1566 -0.8940
   61CHL1   H2A 5668   1.125   3.180   3.539  0.4073 -0.5545 -1.3460
   61CHL1   H2B 5669   0.950   3.168   3.550 -0.0142 -0.5449 -0.5318
   61CHL1   C20 5670   0.720   3.005   4.455 -0.0401 -1.2242 -0.2499
   61CHL1   H20 5671   0.612   3.002   4.429  0.0426 -0.8739 -0.6507
   61CHL1   C21 5672   0.755   3.156   4.477 -0.9605 -0.9649 -0.4941
   61CHL1  H21A 5673   0.707   3.224   4.404  1.0720  3.0925  1.6062
   61CHL1  H21B 5674   0.865   3.165   4.458 -0.8700 -0.2753  0.3368
   61CHL1  H21C 5675   0.726   3.184   4.580 -1.8875  1.2622 -1.2949
   61CHL1   C22 5676   0.734   2.941   4.595  0.2068 -0.2087 -0.5099
   61CHL1  H22A 5677   0.663   2.990   4.665  1.3018 -1.0090  1.2268
   61CHL1  H22B 5678   0.687   2.841   4.583 -1.5259  0.5210 -0.0050
   61CHL1   C23 5679   0.876   2.943   4.643  0.0855 -0.2085  0.0820
   61CHL1  H23A 5680   0.932   2.881   4.570  1.6075  0.4421  0.6467
   61CHL1  H23B 5681   0.911   3.049   4.643 -0.5504  0.2247 -4.6406
   61CHL1   C24 5682   0.890   2.872   4.782  0.4287  0.3027  0.3625
   61CHL1  H24A 5683   0.830   2.926   4.859 -0.1118 -3.2255  2.6174
   61CHL1  H24B 5684   0.852   2.768   4.774 -0.0798  0.4930  0.2245
   61CHL1   C25 5685   1.031   2.855   4.837  0.2945  0.2212 -0.4572
   61CHL1   H25 5686   1.099   2.817   4.759 -0.2156 -0.5366 -0.5443
   61CHL1   C26 5687   1.093   2.985   4.890 -0.3358  0.5850 -0.1792
   61CHL1  H26A 5688   1.021   3.038   4.956 -1.9295  1.1582 -2.2353
   61CHL1  H26B 5689   1.189   2.959   4.937 -1.2114 -2.4797  0.1302
   61CHL1  H26C 5690   1.116   3.043   4.798 -0.4296  0.0865 -0.5192
   61CHL1   C27 5691   1.020   2.748   4.949  0.1117  0.5873 -0.4135
   61CHL1  H27A 5692   1.119   2.737   4.999 -0.0086  4.3042  1.0008
   61CHL1  H27B 5693   0.940   2.763   5.024  0.8147 -0.5987  0.6214
   61CHL1  H27C 5694   0.995   2.650   4.904 -1.2665  0.9753 -0.5220
   62CHL1    C3 5695   4.512   3.659   3.268  0.6411  0.2602 -0.1666
   62CHL1    H3 5696   4.438   3.741   3.280 -1.1076 -1.6189  2.8931
   62CHL1    O3 5697   4.549   3.658   3.135  0.1782 -0.4206  0.0219
   62CHL1   H3' 5698   4.576   3.748   3.116 -0.8220 -0.5388 -2.3245
   62CHL1    C4 5699   4.636   3.685   3.349 -0.0374  0.1194  0.1567
   62CHL1   H4A 5700   4.715   3.608   3.333  2.2164  2.2758  0.1351
   62CHL1   H4B 5701   4.684   3.782   3.325  0.3900 -0.1204  0.0256
   62CHL1    C5 5702   4.601   3.689   3.500 -0.1791 -0.0903 -0.8475
   62CHL1    C6 5703   4.631   3.789   3.584  0.1896  0.4567  0.1906
   62CHL1    H6 5704   4.699   3.862   3.538  0.8675  0.7266  1.5775
   62CHL1    C7 5705   4.612   3.791   3.729 -0.1971  0.5165  0.3644
   62CHL1   H7A 5706   4.706   3.820   3.782  0.9846  2.7418 -2.6478
   62CHL1   H7B 5707   4.536   3.863   3.765  0.0589  0.0634  1.8887
   62CHL1    C8 5708   4.567   3.649   3.783  0.0405 -0.2791  0.2744
   62CHL1    H8 5709   4.662   3.591   3.786 -1.9637 -3.8976  3.2265
   62CHL1   C14 5710   4.515   3.654   3.924 -0.0957  0.3032 -0.0820
   62CHL1   H14 5711   4.435   3.730   3.928  0.5826  1.2334 -2.3475
   62CHL1   C15 5712   4.618   3.697   4.029  0.6663 -0.0643  1.2166
   62CHL1  H15A 5713   4.713   3.641   4.015  0.3452 -0.0462 -1.5704
   62CHL1  H15B 5714   4.647   3.804   4.020  1.3011 -0.1712  1.8716
   62CHL1   C16 5715   4.545   3.651   4.156  0.6350 -0.0320 -0.0968
   62CHL1  H16A 5716   4.622   3.606   4.223  1.0228  2.2652  1.0923
   62CHL1  H16B 5717   4.509   3.748   4.197  2.1415  1.1891 -1.5035
   62CHL1   C17 5718   4.432   3.546   4.119  0.0770  0.1235 -0.9224
   62CHL1   H17 5719   4.332   3.595   4.119 -1.5686 -2.8773  1.4046
   62CHL1   C13 5720   4.464   3.516   3.974  0.5075 -0.5531  0.4379
   62CHL1   C18 5721   4.570   3.402   3.962 -0.0293  0.0154 -0.5455
   62CHL1  H18A 5722   4.649   3.421   4.038 -0.4756  0.5024 -0.1891
   62CHL1  H18B 5723   4.521   3.308   3.993 -1.7301  1.4981  1.5943
   62CHL1  H18C 5724   4.614   3.401   3.860  3.1943  1.7780  0.7106
   62CHL1   C12 5725   4.344   3.482   3.880 -0.1703  0.4796  1.0288
   62CHL1  H12A 5726   4.282   3.400   3.920  0.2028  0.4843  1.6327
   62CHL1  H12B 5727   4.267   3.561   3.872 -0.7291 -0.2560 -1.7639
   62CHL1   C11 5728   4.397   3.457   3.739  0.1794  0.4938  0.2674
   62CHL1  H11A 5729   4.456   3.364   3.721 -2.1053 -0.6779 -1.9716
   62CHL1  H11B 5730   4.305   3.436   3.680  0.5801  0.1379 -0.2507
   62CHL1    C9 5731   4.474   3.580   3.686 -1.0553 -0.3488  0.0721
   62CHL1    H9 5732   4.394   3.655   3.675  0.3208  1.5582  2.2398
   62CHL1   C10 5733   4.530   3.558   3.544 -0.0299 -0.0857 -0.5878
   62CHL1   C19 5734   4.626   3.440   3.535 -0.2931 -0.5158  0.1935
   62CHL1  H19A 5735   4.680   3.428   3.439  1.4964 -0.6215  1.1686
   62CHL1  H19B 5736   4.708   3.454   3.609 -0.3588  2.7228 -0.1803
   62CHL1  H19C 5737   4.571   3.345   3.549  0.1843 -0.6776  1.0535
   62CHL1    C1 5738   4.409   3.525   3.449 -0.3167  1.0474 -0.5588
   62CHL1   H1A 5739   4.371   3.423   3.472 -0.6712  1.4653  0.7480
   62CHL1   H1B 5740   4.334   3.605   3.466 -0.9061  0.5101 -0.6211
   62CHL1    C2 5741   4.439   3.527   3.307 -0.3497 -0.8300  0.4581
   62CHL1   H2A 5742   4.343   3.521   3.252  0.3757  1.5435 -1.2569
   62CHL1   H2B 5743   4.503   3.440   3.280 -0.8270 -0.8462 -0.6864
   62CHL1   C20 5744   4.432   3.428   4.216  0.2608  0.0333 -0.3552
   62CHL1   H20 5745   4.521   3.362   4.214 -0.1688 -0.5715 -0.0500
   62CHL1   C21 5746   4.317   3.331   4.187  0.3670  0.5930  0.3802
   62CHL1  H21A 5747   4.330   3.277   4.091  1.5104  0.1641  0.7602
   62CHL1  H21B 5748   4.231   3.395   4.158 -1.2697 -1.2258  0.9741
   62CHL1  H21C 5749   4.281   3.269   4.272 -0.5829  0.1139 -0.3486
   62CHL1   C22 5750   4.421   3.473   4.364  0.0358 -0.3224 -0.7467
   62CHL1  H22A 5751   4.406   3.379   4.421 -3.4320  1.5756  1.8776
   62CHL1  H22B 5752   4.520   3.517   4.390  0.4791 -0.8580 -1.5070
   62CHL1   C23 5753   4.306   3.565   4.402 -0.6268  0.0423  0.0927
   62CHL1  H23A 5754   4.329   3.661   4.351  0.1325 -1.2941 -2.2446
   62CHL1  H23B 5755   4.215   3.522   4.356  1.2924 -3.6335 -0.6021
   62CHL1   C24 5756   4.303   3.587   4.552  0.5193 -0.1111  0.3189
   62CHL1  H24A 5757   4.212   3.642   4.585  1.4306  0.8120  1.3675
   62CHL1  H24B 5758   4.301   3.488   4.602 -0.9476 -1.5288 -2.3227
   62CHL1   C25 5759   4.417   3.665   4.622  0.6878  0.1818 -0.0193
   62CHL1   H25 5760   4.510   3.643   4.564  1.1836  1.2251  0.3566
   62CHL1   C26 5761   4.403   3.817   4.623 -0.2290 -0.3470  0.6221
   62CHL1  H26A 5762   4.374   3.858   4.524 -3.1940  0.4863  1.7310
   62CHL1  H26B 5763   4.320   3.853   4.687 -0.6138  1.8675 -0.9831
   62CHL1  H26C 5764   4.506   3.854   4.647  0.9739 -1.5979 -2.1920
   62CHL1   C27 5765   4.447   3.603   4.757 -0.4817 -0.6298 -0.5207
   62CHL1  H27A 5766   4.532   3.653   4.810 -1.9171 -1.7500  3.1185
   62CHL1  H27B 5767   4.350   3.613   4.810  0.2492  0.7712  0.6397
   62CHL1  H27C 5768   4.457   3.493   4.751  1.9286 -0.4668 -0.4488
   63CHL1    C3 5769   0.524   6.565   3.474  0.0138  0.0146 -0.5185
   63CHL1    H3 5770   0.484   6.484   3.538  0.6322  0.4723  0.4808
   63CHL1    O3 5771   0.440   6.577   3.357  0.3051  0.7346  0.5209
   63CHL1   H3' 5772   0.475   6.657   3.318  1.0144 -0.0072 -0.3989
   63CHL1    C4 5773   0.506   6.689   3.557 -0.3298 -0.1718 -0.5844
   63CHL1   H4A 5774   0.539   6.783   3.508 -1.0519 -0.3472 -1.4298
   63CHL1   H4B 5775   0.401   6.697   3.590  0.3338 -0.0301  1.6022
   63CHL1    C5 5776   0.577   6.670   3.694 -0.6333  0.7697 -0.5866
   63CHL1    C6 5777   0.517   6.670   3.808 -0.5001 -0.5077  0.7625
   63CHL1    H6 5778   0.408   6.683   3.813 -0.5774 -0.5605 -0.4760
   63CHL1    C7 5779   0.586   6.642   3.935 -0.2350 -0.4326 -0.2775
   63CHL1   H7A 5780   0.545   6.711   4.011  0.9093  1.3103 -1.1783
   63CHL1   H7B 5781   0.566   6.536   3.965  1.8653 -0.3485  1.7339
   63CHL1    C8 5782   0.739   6.672   3.929 -0.7339 -0.4062 -0.0576
   63CHL1    H8 5783   0.754   6.780   3.908  1.0013 -0.4006  0.9422
   63CHL1   C14 5784   0.812   6.619   4.052  0.4008  0.5575 -0.3594
   63CHL1   H14 5785   0.797   6.509   4.051 -1.6074  0.7527  1.2987
   63CHL1   C15 5786   0.758   6.668   4.190  0.5990 -0.0539 -0.2841
   63CHL1  H15A 5787   0.739   6.777   4.175  1.0012 -0.0367 -0.6856
   63CHL1  H15B 5788   0.669   6.614   4.227  1.9546 -0.9366  1.8638
   63CHL1   C16 5789   0.875   6.645   4.287  0.1060  0.4274 -0.4120
   63CHL1  H16A 5790   0.893   6.736   4.348  1.5740  0.2631 -0.5631
   63CHL1  H16B 5791   0.855   6.562   4.357  0.3596  0.0734 -0.7603
   63CHL1   C17 5792   1.004   6.614   4.204  0.1439 -0.5875 -0.5048
   63CHL1   H17 5793   1.016   6.504   4.208  2.7956 -0.3508 -0.2517
   63CHL1   C13 5794   0.960   6.651   4.056 -1.5071  0.2195 -0.1955
   63CHL1   C18 5795   0.995   6.796   4.030 -0.2450  0.0056 -0.5714
   63CHL1  H18A 5796   0.962   6.852   4.119  3.4998 -2.1977  2.4998
   63CHL1  H18B 5797   1.105   6.810   4.020  0.0185  0.5642  2.2828
   63CHL1  H18C 5798   0.947   6.835   3.937 -2.5242  1.2469  1.0234
   63CHL1   C12 5799   1.020   6.565   3.943  0.2858 -0.2419 -0.6284
   63CHL1  H12A 5800   1.125   6.598   3.927  0.6902 -0.5177  1.2651
   63CHL1  H12B 5801   1.021   6.461   3.982  0.4715  0.2085  0.6072
   63CHL1   C11 5802   0.947   6.573   3.807 -0.4854  0.5714  0.7480
   63CHL1  H11A 5803   0.988   6.671   3.776  0.2205 -0.5680 -2.2216
   63CHL1  H11B 5804   0.975   6.493   3.735  1.0538  0.5783  1.3010
   63CHL1    C9 5805   0.789   6.589   3.815 -0.2880  0.0664 -0.3021
   63CHL1    H9 5806   0.755   6.485   3.830  2.4242 -0.7332  1.0148
   63CHL1   C10 5807   0.729   6.642   3.679  0.1984 -0.6990  0.0274
   63CHL1   C19 5808   0.807   6.775   3.638 -0.3512 -0.1556 -0.1977
   63CHL1  H19A 5809   0.805   6.847   3.723 -1.3009 -3.0931  2.4777
   63CHL1  H19B 5810   0.912   6.743   3.624 -0.1107 -0.5769  2.1168
   63CHL1  H19C 5811   0.762   6.822   3.548 -0.4916  0.4107  0.1614
   63CHL1    C1 5812   0.744   6.527   3.573  0.2193  0.3623  0.2954
   63CHL1   H1A 5813   0.850   6.510   3.543 -0.1722  0.5539 -1.2848
   63CHL1   H1B 5814   0.705   6.437   3.623  0.3891 -0.1368 -0.4535
   63CHL1    C2 5815   0.667   6.543   3.445  0.1465  0.5044 -0.4223
   63CHL1   H2A 5816   0.682   6.452   3.383 -4.6342 -0.2300 -0.8620
   63CHL1   H2B 5817   0.705   6.635   3.395  3.1425 -0.6048 -0.4189
   63CHL1   C20 5818   1.132   6.667   4.260 -0.3771 -0.1476  0.1406
   63CHL1   H20 5819   1.136   6.778   4.254 -1.3271  0.1284  3.0370
   63CHL1   C21 5820   1.257   6.605   4.185 -0.0116 -0.3918 -0.2316
   63CHL1  H21A 5821   1.353   6.651   4.216 -0.6186  1.7429 -1.3311
   63CHL1  H21B 5822   1.241   6.634   4.079 -0.4275  0.0750 -0.0479
   63CHL1  H21C 5823   1.239   6.495   4.178 -2.8092 -0.2091  2.0795
   63CHL1   C22 5824   1.146   6.647   4.414  0.3165  0.2404 -0.9261
   63CHL1  H22A 5825   1.237   6.702   4.444 -0.5892  1.0147  0.4789
   63CHL1  H22B 5826   1.064   6.704   4.461 -0.2310  0.0572 -1.6452
   63CHL1   C23 5827   1.157   6.504   4.462 -0.5364  0.2009  0.2578
   63CHL1  H23A 5828   1.069   6.452   4.420 -0.8323 -0.3557  1.5072
   63CHL1  H23B 5829   1.247   6.462   4.412 -2.2055  0.9972 -3.7743
   63CHL1   C24 5830   1.143   6.482   4.618 -0.4134 -0.1885  0.2776
   63CHL1  H24A 5831   1.049   6.532   4.649  0.8513  1.9550  0.8370
   63CHL1  H24B 5832   1.148   6.374   4.644 -0.6437  0.4309  3.2263
   63CHL1   C25 5833   1.257   6.551   4.696 -1.0834  0.2384 -0.9969
   63CHL1   H25 5834   1.289   6.653   4.665 -0.9910  0.1789 -1.1014
   63CHL1   C26 5835   1.222   6.572   4.852 -0.0066  0.5356 -0.6409
   63CHL1  H26A 5836   1.178   6.482   4.900  0.5782  1.2482  1.3099
   63CHL1  H26B 5837   1.309   6.597   4.916 -0.3111 -2.0431  0.8880
   63CHL1  H26C 5838   1.138   6.645   4.857 -0.5141  0.1349 -2.5022
   63CHL1   C27 5839   1.380   6.454   4.679  1.0900 -0.3801 -0.1671
   63CHL1  H27A 5840   1.411   6.457   4.573  1.7970 -1.7725 -0.0241
   63CHL1  H27B 5841   1.466   6.488   4.740  1.0436 -1.2306  0.3992
   63CHL1  H27C 5842   1.360   6.346   4.700  0.1681 -0.4346 -1.2249
   64CHL1    C3 5843   4.423   4.916   3.416  0.2849 -0.2810 -0.3650
   64CHL1    H3 5844   4.515   4.978   3.415 -0.4914  1.0218 -3.1940
   64CHL1    O3 5845   4.386   4.896   3.279  0.6283 -0.1724  0.3141
   64CHL1   H3' 5846   4.302   4.848   3.278  0.0279  0.7484 -2.2958
   64CHL1    C4 5847   4.461   4.779   3.477 -0.5174  0.4230 -0.4767
   64CHL1   H4A 5848   4.377   4.717   3.439  0.1066 -0.8802  0.1968
   64CHL1   H4B 5849   4.558   4.750   3.430 -0.0507 -0.0395  0.7264
   64CHL1    C5 5850   4.475   4.764   3.626  0.6388 -0.2203  0.0689
   64CHL1    C6 5851   4.577   4.718   3.698  0.0392 -0.2208  0.6371
   64CHL1    H6 5852   4.665   4.683   3.642  0.3467  0.9208  0.3713
   64CHL1    C7 5853   4.585   4.705   3.848  0.0430  0.3923  0.0878
   64CHL1   H7A 5854   4.600   4.598   3.872 -0.9632 -0.7869 -3.8278
   64CHL1   H7B 5855   4.670   4.771   3.875  1.1864 -0.6150 -0.9458
   64CHL1    C8 5856   4.456   4.745   3.926 -0.0866  0.7277  0.3416
   64CHL1    H8 5857   4.393   4.654   3.929  2.3975 -1.0751  1.0813
   64CHL1   C14 5858   4.488   4.786   4.065  0.3976 -0.1168 -0.1311
   64CHL1   H14 5859   4.548   4.878   4.049 -1.1752  0.9674 -0.0191
   64CHL1   C15 5860   4.575   4.703   4.155  0.1195  0.0608 -0.0433
   64CHL1  H15A 5861   4.541   4.600   4.135  0.4282  0.1270 -0.9720
   64CHL1  H15B 5862   4.681   4.709   4.123  0.3790 -1.8614  0.3453
   64CHL1   C16 5863   4.544   4.753   4.304  0.3874 -0.2125  0.5327
   64CHL1  H16A 5864   4.516   4.669   4.372 -0.5744 -0.9045 -0.6729
   64CHL1  H16B 5865   4.634   4.805   4.343 -0.3039  0.1649  1.6756
   64CHL1   C17 5866   4.422   4.855   4.289 -0.9790  0.5167  0.1109
   64CHL1   H17 5867   4.477   4.951   4.276 -1.2288  0.5225 -1.0189
   64CHL1   C13 5868   4.362   4.825   4.155  0.1853 -0.2330 -0.1130
   64CHL1   C18 5869   4.271   4.698   4.186  0.7435  0.1526  0.5267
   64CHL1  H18A 5870   4.245   4.657   4.086  2.3747  0.6934 -0.1470
   64CHL1  H18B 5871   4.321   4.621   4.249 -1.3509  0.3600  2.6057
   64CHL1  H18C 5872   4.180   4.719   4.246  0.4845  1.7515 -0.3844
   64CHL1   C12 5873   4.288   4.945   4.082 -0.0990 -0.1540 -0.1601
   64CHL1  H12A 5874   4.189   4.963   4.131  0.4604  0.0910  0.9092
   64CHL1  H12B 5875   4.349   5.036   4.097 -0.8311  0.3763 -0.3278
   64CHL1   C11 5876   4.266   4.911   3.935  0.2161 -0.2178  0.3388
   64CHL1  H11A 5877   4.192   4.829   3.923 -0.5190  0.7023 -1.9714
   64CHL1  H11B 5878   4.211   4.998   3.892 -0.4429 -0.7745  0.0399
   64CHL1    C9 5879   4.390   4.861   3.854  0.9025  0.0138 -0.4020
   64CHL1    H9 5880   4.466   4.943   3.854 -1.5456  2.4866  1.4366
   64CHL1   C10 5881   4.364   4.832   3.703  0.2204 -0.2035 -0.1316
   64CHL1   C19 5882   4.232   4.744   3.694  0.2101 -0.6460  0.5515
   64CHL1  H19A 5883   4.242   4.653   3.757 -0.5061  0.2179  1.9618
   64CHL1  H19B 5884   4.139   4.795   3.727 -0.8946 -1.4460 -1.1332
   64CHL1  H19C 5885   4.209   4.706   3.592  3.3324 -2.8512  0.5366
   64CHL1    C1 5886   4.337   4.969   3.636  0.1053  0.1341  0.4117
   64CHL1   H1A 5887   4.258   5.023   3.691  2.5021  1.7963  2.4525
   64CHL1   H1B 5888   4.429   5.029   3.650  0.3423 -0.3340  0.9149
   64CHL1    C2 5889   4.305   4.978   3.482 -0.2206 -0.0187  0.6903
   64CHL1   H2A 5890   4.291   5.083   3.450 -0.0003 -0.6815 -1.8015
   64CHL1   H2B 5891   4.210   4.920   3.478  0.6286 -1.5794  1.7983
   64CHL1   C20 5892   4.326   4.879   4.412  0.3286  0.0060 -0.3586
   64CHL1   H20 5893   4.274   4.782   4.424  0.5835 -0.1526 -0.5140
   64CHL1   C21 5894   4.219   4.983   4.382 -0.5404  0.3543 -0.4577
   64CHL1  H21A 5895   4.269   5.069   4.332  2.4369 -1.3768 -0.6975
   64CHL1  H21B 5896   4.174   5.026   4.474 -1.6625 -1.0978 -0.2896
   64CHL1  H21C 5897   4.132   4.942   4.325 -0.4723 -0.4187 -0.0208
   64CHL1   C22 5898   4.403   4.927   4.547 -0.4517  0.3196 -0.0077
   64CHL1  H22A 5899   4.499   4.877   4.571 -0.6810  0.2641  0.8008
   64CHL1  H22B 5900   4.418   5.035   4.524 -0.0186  0.0315 -1.1436
   64CHL1   C23 5901   4.330   4.906   4.683  0.4511 -0.4210  0.0908
   64CHL1  H23A 5902   4.394   4.946   4.765 -0.7850  2.1338 -0.1099
   64CHL1  H23B 5903   4.235   4.963   4.688 -1.4218 -3.2628 -0.6425
   64CHL1   C24 5904   4.290   4.762   4.719 -0.1179  0.1919  1.0277
   64CHL1  H24A 5905   4.239   4.731   4.626 -1.0956  0.2645  1.5230
   64CHL1  H24B 5906   4.375   4.691   4.720 -0.8211 -0.6868 -0.0871
   64CHL1   C25 5907   4.196   4.746   4.843 -0.2777  0.0760  0.7821
   64CHL1   H25 5908   4.104   4.805   4.826 -0.2385  0.5391  2.0649
   64CHL1   C26 5909   4.162   4.606   4.858  0.2308  0.8269  0.3081
   64CHL1  H26A 5910   4.129   4.553   4.766  0.3773  1.6808 -0.2531
   64CHL1  H26B 5911   4.252   4.557   4.899 -0.5669  0.7936  2.1079
   64CHL1  H26C 5912   4.088   4.586   4.938  0.7573 -1.5742  0.2547
   64CHL1   C27 5913   4.273   4.796   4.971  0.0258 -0.0690 -0.5076
   64CHL1  H27A 5914   4.362   4.728   4.976  0.9387  1.0520 -1.0264
   64CHL1  H27B 5915   4.302   4.901   4.952  1.8224 -0.5759 -0.8125
   64CHL1  H27C 5916   4.203   4.786   5.056  0.0856  1.1132 -0.3104
   65CHL1    C3 5917   3.433   1.909   3.333  0.2762 -0.1558  0.1973
   65CHL1    H3 5918   3.328   1.892   3.367  1.9770 -3.2881  4.7407
   65CHL1    O3 5919   3.439   1.955   3.198 -0.4002 -0.2993 -0.0413
   65CHL1   H3' 5920   3.532   1.948   3.176 -0.6486 -0.5171 -1.0595
   65CHL1    C4 5921   3.502   2.010   3.413 -0.2745  0.3980  1.1561
   65CHL1   H4A 5922   3.599   2.030   3.363 -1.3386  1.9685 -0.3887
   65CHL1   H4B 5923   3.447   2.106   3.404 -1.5816 -0.4915 -1.9277
   65CHL1    C5 5924   3.524   1.960   3.554 -0.3139 -0.6175 -0.1812
   65CHL1    C6 5925   3.468   2.024   3.658  0.2345 -0.3657  0.0217
   65CHL1    H6 5926   3.413   2.119   3.643  2.2936  1.0269  0.8394
   65CHL1    C7 5927   3.475   1.982   3.802 -0.4153 -0.2992 -0.4095
   65CHL1   H7A 5928   3.492   2.071   3.866 -0.9312  0.1251 -0.8535
   65CHL1   H7B 5929   3.376   1.938   3.829  0.0015 -1.8119 -1.2236
   65CHL1    C8 5930   3.600   1.883   3.819 -0.3011 -0.9468 -0.2549
   65CHL1    H8 5931   3.696   1.937   3.803 -0.9727  0.7787  1.1800
   65CHL1   C14 5932   3.603   1.829   3.960  0.1169 -0.4054  0.7408
   65CHL1   H14 5933   3.507   1.774   3.970  0.0558 -0.2643  0.9598
   65CHL1   C15 5934   3.603   1.935   4.071  0.3694  0.3906  0.0289
   65CHL1  H15A 5935   3.678   2.013   4.045  2.3940 -0.7874  1.9933
   65CHL1  H15B 5936   3.504   1.983   4.084 -0.3403 -0.8534 -0.5508
   65CHL1   C16 5937   3.645   1.849   4.187 -0.1286 -0.2514 -0.3138
   65CHL1  H16A 5938   3.736   1.895   4.231  0.3989  0.6575 -2.2458
   65CHL1  H16B 5939   3.565   1.845   4.265 -1.0115  0.8276 -1.1521
   65CHL1   C17 5940   3.681   1.703   4.142 -0.2694 -0.2134  0.7564
   65CHL1   H17 5941   3.586   1.644   4.146  0.5287 -1.6596 -0.5097
   65CHL1   C13 5942   3.709   1.724   3.999  0.1103 -0.3135 -0.9866
   65CHL1   C18 5943   3.854   1.782   3.985  0.3369 -0.7564  0.1358
   65CHL1  H18A 5944   3.923   1.704   4.023 -0.7989 -1.3348  1.0588
   65CHL1  H18B 5945   3.870   1.811   3.879  1.0262 -0.4225  0.3211
   65CHL1  H18C 5946   3.870   1.877   4.042  0.6316  0.2381 -1.5298
   65CHL1   C12 5947   3.691   1.613   3.901 -0.1370 -1.1170  0.8948
   65CHL1  H12A 5948   3.770   1.535   3.902  1.4263  0.4096  1.5761
   65CHL1  H12B 5949   3.599   1.553   3.921  0.7296 -2.9174 -0.2839
   65CHL1   C11 5950   3.702   1.667   3.751 -0.2574 -0.2890 -0.4128
   65CHL1  H11A 5951   3.805   1.707   3.739 -0.6507  0.9088  0.0281
   65CHL1  H11B 5952   3.691   1.584   3.678 -0.8542 -0.6263  0.0544
   65CHL1    C9 5953   3.594   1.772   3.721 -0.3987  0.9234 -0.0550
   65CHL1    H9 5954   3.499   1.717   3.735 -0.0978  0.5279  0.5005
   65CHL1   C10 5955   3.595   1.824   3.575  0.2288 -0.4727 -0.4028
   65CHL1   C19 5956   3.739   1.832   3.533  0.0037  0.4285 -0.0663
   65CHL1  H19A 5957   3.804   1.741   3.543 -0.5500 -0.1104 -1.2452
   65CHL1  H19B 5958   3.758   1.866   3.429 -0.4460  1.5700  0.2172
   65CHL1  H19C 5959   3.783   1.913   3.595 -1.1681  0.5683  0.5972
   65CHL1    C1 5960   3.517   1.721   3.479  0.3078 -1.0520  0.2658
   65CHL1   H1A 5961   3.576   1.627   3.482  0.8096 -0.7300  1.3462
   65CHL1   H1B 5962   3.421   1.713   3.534  0.9969  0.4346  1.8095
   65CHL1    C2 5963   3.494   1.765   3.340  0.6061  0.3170  0.3225
   65CHL1   H2A 5964   3.427   1.691   3.291  1.2852 -0.0806 -0.0202
   65CHL1   H2B 5965   3.591   1.764   3.286  0.8039  3.7009  0.4214
   65CHL1   C20 5966   3.778   1.636   4.248  0.3530 -0.0023 -0.5257
   65CHL1   H20 5967   3.879   1.681   4.237  1.4722 -2.3067 -0.2255
   65CHL1   C21 5968   3.775   1.488   4.211  0.2678  0.7309 -0.2588
   65CHL1  H21A 5969   3.676   1.440   4.225  1.0573 -1.0999 -0.6549
   65CHL1  H21B 5970   3.847   1.429   4.271  1.4380  1.6206 -0.7331
   65CHL1  H21C 5971   3.791   1.473   4.102  0.5065 -1.6613  0.0608
   65CHL1   C22 5972   3.748   1.669   4.403 -0.1841  0.0555  0.5441
   65CHL1  H22A 5973   3.754   1.780   4.412 -0.0362  0.0939  0.0300
   65CHL1  H22B 5974   3.643   1.637   4.418 -1.1678  1.6154 -2.3635
   65CHL1   C23 5975   3.841   1.584   4.497 -0.0542 -0.0250  0.7130
   65CHL1  H23A 5976   3.812   1.479   4.475 -1.2455  0.5214 -0.4878
   65CHL1  H23B 5977   3.945   1.588   4.460  0.0664 -1.4235  0.8477
   65CHL1   C24 5978   3.819   1.637   4.634 -0.4402  0.1450 -0.3920
   65CHL1  H24A 5979   3.854   1.741   4.647  1.9950 -0.5310 -0.9805
   65CHL1  H24B 5980   3.710   1.638   4.654 -0.5227  1.4820 -0.8719
   65CHL1   C25 5981   3.883   1.537   4.733 -0.0388 -0.0999  0.7202
   65CHL1   H25 5982   3.854   1.436   4.698 -0.5575  0.9627 -2.1784
   65CHL1   C26 5983   4.033   1.547   4.722 -0.2231 -0.2416 -0.1146
   65CHL1  H26A 5984   4.077   1.470   4.789 -0.9062  0.2784  0.9632
   65CHL1  H26B 5985   4.060   1.536   4.615 -1.2409 -0.5137 -0.3570
   65CHL1  H26C 5986   4.072   1.645   4.756 -1.2041 -0.6549  2.3901
   65CHL1   C27 5987   3.843   1.561   4.884  0.4652  0.0405 -0.2244
   65CHL1  H27A 5988   3.893   1.648   4.933 -0.2864  0.4012 -0.0911
   65CHL1  H27B 5989   3.736   1.576   4.905  0.3428  1.1943 -1.5548
   65CHL1  H27C 5990   3.871   1.461   4.924  3.5758  0.5579 -0.8270
   66CHL1    C3 5991   3.687   2.403   3.211 -0.0740  0.7933  0.4400
   66CHL1    H3 5992   3.596   2.339   3.215  0.0578  0.6045  0.4317
   66CHL1    O3 5993   3.707   2.440   3.074  0.1505 -0.0131 -0.3442
   66CHL1   H3' 5994   3.627   2.485   3.047 -0.0510  0.2227  0.6346
   66CHL1    C4 5995   3.664   2.531   3.290 -0.7255 -0.2329 -0.1897
   66CHL1   H4A 5996   3.751   2.594   3.263  0.6768 -2.0189  0.0170
   66CHL1   H4B 5997   3.574   2.577   3.242 -0.1124 -0.4260 -1.5526
   66CHL1    C5 5998   3.658   2.511   3.438 -0.4506  0.0770 -0.3344
   66CHL1    C6 5999   3.549   2.553   3.506 -0.2852 -0.1586  0.1817
   66CHL1    H6 6000   3.460   2.589   3.451  0.1363 -0.4512 -0.7067
   66CHL1    C7 6001   3.547   2.546   3.659  0.5126  0.2331  0.2196
   66CHL1   H7A 6002   3.512   2.640   3.708  2.5803  0.3281  1.6622
   66CHL1   H7B 6003   3.474   2.469   3.693 -0.0707  0.3366 -0.7858
   66CHL1    C8 6004   3.682   2.493   3.732  0.2224 -0.0329  0.6323
   66CHL1    H8 6005   3.747   2.583   3.738 -1.2152  1.2205 -1.3513
   66CHL1   C14 6006   3.669   2.443   3.874  1.1179  0.3305  0.0466
   66CHL1   H14 6007   3.610   2.350   3.874  0.6668  0.6114  0.4802
   66CHL1   C15 6008   3.604   2.540   3.969  0.1513 -0.3006 -0.4309
   66CHL1  H15A 6009   3.652   2.638   3.950 -0.0851 -0.1131 -0.0899
   66CHL1  H15B 6010   3.496   2.554   3.947  0.0112  1.1534  0.9705
   66CHL1   C16 6011   3.632   2.478   4.105  0.1490  0.1319  0.7572
   66CHL1  H16A 6012   3.681   2.558   4.164  1.4937  0.2471 -0.4470
   66CHL1  H16B 6013   3.536   2.433   4.138 -1.1128 -0.1400 -2.8192
   66CHL1   C17 6014   3.732   2.358   4.082 -0.1831  0.9299 -0.0068
   66CHL1   H17 6015   3.674   2.265   4.064 -0.0337  0.7541  0.4021
   66CHL1   C13 6016   3.795   2.391   3.949 -0.8200  0.6212  0.2105
   66CHL1   C18 6017   3.903   2.504   3.974  0.8870 -0.1490 -0.1453
   66CHL1  H18A 6018   3.878   2.575   4.056  2.8627  0.2213  0.1780
   66CHL1  H18B 6019   4.003   2.460   3.994  1.2575  0.3243 -0.8812
   66CHL1  H18C 6020   3.910   2.570   3.885 -3.0872  2.0055  0.8994
   66CHL1   C12 6021   3.851   2.280   3.856  0.4524  0.2473  0.2144
   66CHL1  H12A 6022   3.953   2.249   3.888 -0.2695 -1.3062  1.0845
   66CHL1  H12B 6023   3.793   2.187   3.872 -0.9605  0.8394 -1.1839
   66CHL1   C11 6024   3.873   2.327   3.714 -0.7115 -0.0682 -0.5380
   66CHL1  H11A 6025   3.954   2.401   3.727  1.0627 -1.8500 -0.9943
   66CHL1  H11B 6026   3.917   2.248   3.650 -1.3746 -0.8368 -0.0604
   66CHL1    C9 6027   3.748   2.389   3.649 -0.0470  0.0747 -0.6379
   66CHL1    H9 6028   3.686   2.298   3.640  1.3716 -1.0630  0.4949
   66CHL1   C10 6029   3.775   2.435   3.503 -0.1727  0.2969 -0.4553
   66CHL1   C19 6030   3.897   2.527   3.491 -0.2166  0.3593 -0.1310
   66CHL1  H19A 6031   3.988   2.478   3.532 -0.9764  0.4192  1.7175
   66CHL1  H19B 6032   3.918   2.572   3.392  1.2368  1.4563  0.6347
   66CHL1  H19C 6033   3.884   2.618   3.554  0.2413  1.3579 -1.4414
   66CHL1    C1 6034   3.801   2.299   3.422  0.6962  1.0748  0.5977
   66CHL1   H1A 6035   3.898   2.249   3.441  0.6008 -1.9554 -4.7837
   66CHL1   H1B 6036   3.725   2.219   3.431 -0.1731  1.3636 -2.7145
   66CHL1    C2 6037   3.811   2.329   3.270 -1.0114  0.5250  0.1305
   66CHL1   H2A 6038   3.828   2.233   3.217  0.8746  0.3494  0.9437
   66CHL1   H2B 6039   3.907   2.382   3.250 -0.7086 -0.0584  0.0111
   66CHL1   C20 6040   3.835   2.327   4.192  0.1434 -0.4699 -0.1291
   66CHL1   H20 6041   3.907   2.411   4.201  0.5176 -0.8681  0.6899
   66CHL1   C21 6042   3.905   2.195   4.172 -0.5117  0.4697  0.3783
   66CHL1  H21A 6043   3.967   2.165   4.259  2.1856  0.1560 -1.4833
   66CHL1  H21B 6044   3.978   2.202   4.087 -2.3531  0.6728 -1.2560
   66CHL1  H21C 6045   3.837   2.110   4.150 -1.1601  1.4057 -1.4009
   66CHL1   C22 6046   3.758   2.331   4.330 -1.3215  0.1486 -0.1137
   66CHL1  H22A 6047   3.838   2.350   4.405 -0.9711  3.1212 -1.1014
   66CHL1  H22B 6048   3.706   2.427   4.351 -0.5193  0.5827 -0.0858
   66CHL1   C23 6049   3.669   2.207   4.358 -0.0192 -0.3242 -0.6984
   66CHL1  H23A 6050   3.575   2.211   4.299 -0.9737  1.9795  0.8298
   66CHL1  H23B 6051   3.738   2.120   4.351  1.2050  0.5880 -0.2509
   66CHL1   C24 6052   3.621   2.212   4.508 -0.1261 -0.2770 -0.6685
   66CHL1  H24A 6053   3.593   2.316   4.534 -0.5029 -0.7714  1.0346
   66CHL1  H24B 6054   3.531   2.148   4.509  0.9594 -1.8760 -1.1017
   66CHL1   C25 6055   3.723   2.168   4.618 -0.3433 -0.1286  0.6432
   66CHL1   H25 6056   3.816   2.218   4.584 -0.4583 -0.8100 -0.7434
   66CHL1   C26 6057   3.694   2.204   4.759 -0.0021  0.5645 -0.3647
   66CHL1  H26A 6058   3.602   2.145   4.778  0.6802 -0.6120 -0.5837
   66CHL1  H26B 6059   3.776   2.164   4.823 -0.5509 -0.3136 -0.1931
   66CHL1  H26C 6060   3.688   2.313   4.778 -0.0244  0.3698  0.8319
   66CHL1   C27 6061   3.757   2.014   4.616  0.1555 -0.3274 -0.5551
   66CHL1  H27A 6062   3.833   1.991   4.538  0.4484 -2.1883  0.2377
   66CHL1  H27B 6063   3.666   1.951   4.607 -0.0898 -0.0885  0.2354
   66CHL1  H27C 6064   3.810   1.996   4.712 -1.5677  1.9814  0.9377
   67CHL1    C3 6065   1.338   6.352   3.169 -0.1354  0.5230 -0.9407
   67CHL1    H3 6066   1.446   6.344   3.144  0.3758 -3.3473  1.6774
   67CHL1    O3 6067   1.264   6.323   3.049 -0.4204 -0.5935 -0.0436
   67CHL1   H3' 6068   1.251   6.411   3.013 -0.3023 -1.3522 -2.0444
   67CHL1    C4 6069   1.290   6.261   3.277 -0.4403 -0.2460  0.1997
   67CHL1   H4A 6070   1.182   6.279   3.298 -0.7867  0.1798 -1.7380
   67CHL1   H4B 6071   1.301   6.157   3.240  2.4549  0.0897 -0.0972
   67CHL1    C5 6072   1.366   6.288   3.406  0.4530  0.7266 -0.3781
   67CHL1    C6 6073   1.430   6.185   3.473 -0.0663  0.3874 -0.4110
   67CHL1    H6 6074   1.416   6.086   3.428  1.1920 -0.9264  1.8950
   67CHL1    C7 6075   1.503   6.191   3.610  0.2422  0.1630 -0.4902
   67CHL1   H7A 6076   1.446   6.130   3.683 -0.1719  0.6172 -0.4263
   67CHL1   H7B 6077   1.609   6.159   3.599  0.7146  0.5119  2.2416
   67CHL1    C8 6078   1.489   6.330   3.674 -0.3775 -0.1386  0.1926
   67CHL1    H8 6079   1.397   6.331   3.736 -1.4047  2.9321 -1.1703
   67CHL1   C14 6080   1.607   6.335   3.765 -0.0264  0.0821  0.1177
   67CHL1   H14 6081   1.699   6.329   3.704 -0.6290 -1.6459 -0.6752
   67CHL1   C15 6082   1.625   6.224   3.869  0.2076  0.0898 -0.4933
   67CHL1  H15A 6083   1.529   6.200   3.919  0.5000 -0.2664 -0.0923
   67CHL1  H15B 6084   1.653   6.135   3.808  3.9150  1.5170 -1.1121
   67CHL1   C16 6085   1.732   6.278   3.960  0.8904 -0.3812 -0.0349
   67CHL1  H16A 6086   1.703   6.261   4.066  3.6221  0.9883  1.0464
   67CHL1  H16B 6087   1.829   6.226   3.949  1.5232  0.5822  0.7296
   67CHL1   C17 6088   1.749   6.429   3.924  0.3164 -0.7345 -0.0088
   67CHL1   H17 6089   1.829   6.433   3.848 -1.1072 -0.0026 -1.5332
   67CHL1   C13 6090   1.621   6.466   3.837 -0.2411  0.7346  0.0920
   67CHL1   C18 6091   1.504   6.484   3.933 -0.6667 -0.1641 -0.8494
   67CHL1  H18A 6092   1.408   6.501   3.880 -0.4546  2.1095 -0.5927
   67CHL1  H18B 6093   1.485   6.403   4.007 -1.1056  1.0268  0.3801
   67CHL1  H18C 6094   1.509   6.584   3.981  0.2047 -0.0771 -1.1030
   67CHL1   C12 6095   1.631   6.578   3.736 -0.2411 -0.2710  0.0235
   67CHL1  H12A 6096   1.637   6.678   3.783  0.0611 -0.8336  1.2238
   67CHL1  H12B 6097   1.721   6.568   3.671 -0.9197 -3.4219 -0.5775
   67CHL1   C11 6098   1.509   6.579   3.636  0.1090  0.1601  0.7228
   67CHL1  H11A 6099   1.413   6.605   3.684 -1.4011 -0.6017 -1.7248
   67CHL1  H11B 6100   1.534   6.649   3.553  1.1606 -0.9111  0.1022
   67CHL1    C9 6101   1.492   6.444   3.569 -0.4416  0.1339 -0.1120
   67CHL1    H9 6102   1.582   6.428   3.506  0.0795 -1.5848  0.9858
   67CHL1   C10 6103   1.370   6.431   3.466  0.2051 -0.1313 -0.1039
   67CHL1   C19 6104   1.235   6.462   3.536  0.2664  0.6062  0.0693
   67CHL1  H19A 6105   1.227   6.564   3.580 -1.0967 -0.0723  1.4835
   67CHL1  H19B 6106   1.153   6.446   3.463  0.9578 -2.6472 -0.1182
   67CHL1  H19C 6107   1.222   6.391   3.620 -1.4457 -2.4673 -2.5726
   67CHL1    C1 6108   1.377   6.537   3.347 -0.4347 -0.1201 -0.7040
   67CHL1   H1A 6109   1.329   6.629   3.387 -3.8298 -2.1195  0.2090
   67CHL1   H1B 6110   1.484   6.561   3.333  0.0982 -1.5578  0.6072
   67CHL1    C2 6111   1.310   6.493   3.213 -0.1691 -0.5041 -0.3426
   67CHL1   H2A 6112   1.337   6.563   3.132  1.0833 -0.4481  0.0983
   67CHL1   H2B 6113   1.203   6.513   3.237 -0.2634  0.6818 -1.6321
   67CHL1   C20 6114   1.785   6.509   4.054  0.2979  0.3686  0.2887
   67CHL1   H20 6115   1.703   6.500   4.128 -0.6636 -0.9480 -0.8830
   67CHL1   C21 6116   1.781   6.663   4.023 -0.5014 -0.0503 -0.5269
   67CHL1  H21A 6117   1.843   6.725   4.091  1.1261 -0.4112 -1.6204
   67CHL1  H21B 6118   1.673   6.689   4.023 -1.2972 -2.9185  1.8384
   67CHL1  H21C 6119   1.842   6.683   3.932  2.0764 -1.0471  0.8723
   67CHL1   C22 6120   1.911   6.459   4.131  0.0431 -0.3409  0.1395
   67CHL1  H22A 6121   1.905   6.349   4.133  0.0582 -0.3312  1.2059
   67CHL1  H22B 6122   2.002   6.487   4.074 -0.2121  0.4465  0.1058
   67CHL1   C23 6123   1.918   6.517   4.274 -0.3824  0.0283 -0.1497
   67CHL1  H23A 6124   1.920   6.628   4.265 -0.1885  0.1125  0.8979
   67CHL1  H23B 6125   1.837   6.492   4.345  0.0651 -1.9479 -0.2964
   67CHL1   C24 6126   2.045   6.468   4.355 -0.4015 -1.0671  0.0508
   67CHL1  H24A 6127   2.024   6.364   4.389 -0.7281 -0.3854  2.0908
   67CHL1  H24B 6128   2.132   6.472   4.287  0.5573  0.3143  1.2911
   67CHL1   C25 6129   2.067   6.555   4.475  0.1393 -0.1807 -0.1994
   67CHL1   H25 6130   2.043   6.656   4.435  0.1085 -1.1511 -2.7665
   67CHL1   C26 6131   1.973   6.542   4.601  0.1846  0.0940  0.6853
   67CHL1  H26A 6132   1.865   6.546   4.575  0.0238 -1.0455  1.0801
   67CHL1  H26B 6133   1.991   6.442   4.647  1.2224  0.5381  1.2785
   67CHL1  H26C 6134   1.987   6.610   4.688 -1.5514  0.9374  0.3449
   67CHL1   C27 6135   2.215   6.568   4.513  0.4297 -0.2765 -0.8835
   67CHL1  H27A 6136   2.255   6.644   4.443 -0.5312 -2.0307 -3.4824
   67CHL1  H27B 6137   2.233   6.613   4.613  0.4783  0.4864 -1.2291
   67CHL1  H27C 6138   2.272   6.475   4.494  0.6970  0.1596 -2.3242
   68CHL1    C3 6139   4.895   0.079   3.166 -0.0903 -0.2134  0.4741
   68CHL1    H3 6140   4.813   0.007   3.148 -0.3667  0.3002 -0.3692
   68CHL1    O3 6141   4.921   0.149   3.045  0.1130 -0.0349 -0.2934
   68CHL1   H3' 6142   5.017   0.146   3.038  0.0386 -0.7682 -1.2040
   68CHL1    C4 6143   4.863   0.186   3.270  0.0620 -1.0805 -0.0613
   68CHL1   H4A 6144   4.946   0.258   3.291 -1.7697  1.1394 -0.0759
   68CHL1   H4B 6145   4.779   0.247   3.232 -0.4003 -1.1523  0.8212
   68CHL1    C5 6146   4.827   0.116   3.396 -0.4037  0.3467  0.1281
   68CHL1    C6 6147   4.702   0.135   3.443 -0.1499 -0.4972 -0.6772
   68CHL1    H6 6148   4.644   0.213   3.392 -1.4164 -0.6678  0.4489
   68CHL1    C7 6149   4.653   0.084   3.577 -0.1726 -0.4567 -0.1130
   68CHL1   H7A 6150   4.591   0.162   3.626  2.1592  2.3165 -1.2383
   68CHL1   H7B 6151   4.592  -0.008   3.567 -4.9257  2.5236 -1.1680
   68CHL1    C8 6152   4.777   0.038   3.655 -0.4168  0.1397  0.0385
   68CHL1    H8 6153   4.836   0.125   3.692  0.0903  0.3595 -1.2107
   68CHL1   C14 6154   4.735  -0.039   3.783  0.6918  0.6739  0.1043
   68CHL1   H14 6155   4.673  -0.126   3.752  0.3791  1.1116 -0.5123
   68CHL1   C15 6156   4.643   0.040   3.878 -0.0096 -0.5534  0.1380
   68CHL1  H15A 6157   4.697   0.132   3.910 -1.0527 -0.1636  0.8343
   68CHL1  H15B 6158   4.540   0.065   3.845  0.6683  2.8359  0.2491
   68CHL1   C16 6159   4.631  -0.063   3.995 -0.7342 -0.3322  0.5886
   68CHL1  H16A 6160   4.618  -0.015   4.094  1.5357 -0.1631  0.8564
   68CHL1  H16B 6161   4.544  -0.131   3.980 -0.2015 -0.9041  0.0103
   68CHL1   C17 6162   4.761  -0.153   3.991 -0.9813 -0.1119 -0.2655
   68CHL1   H17 6163   4.732  -0.259   3.974  1.6552 -0.9645  0.1327
   68CHL1   C13 6164   4.842  -0.104   3.870 -0.3835  0.3858 -0.3329
   68CHL1   C18 6165   4.936   0.007   3.931  0.0101  0.0889  0.6316
   68CHL1  H18A 6166   4.870   0.067   3.998  0.0606 -0.7441  1.4543
   68CHL1  H18B 6167   5.017  -0.042   3.990  0.7289 -1.2097 -1.3390
   68CHL1  H18C 6168   4.983   0.074   3.856 -1.5428  0.3174 -0.1896
   68CHL1   C12 6169   4.923  -0.204   3.779 -0.0090 -0.0795 -0.3315
   68CHL1  H12A 6170   5.004  -0.258   3.833  0.4274 -0.0072 -0.8975
   68CHL1  H12B 6171   4.853  -0.285   3.750 -0.8942  0.5014  0.1542
   68CHL1   C11 6172   4.974  -0.125   3.653  0.7025 -0.1418 -0.5072
   68CHL1  H11A 6173   5.043  -0.049   3.694 -1.7061  1.7560  0.3075
   68CHL1  H11B 6174   5.021  -0.200   3.586  2.1916 -0.2413  0.6102
   68CHL1    C9 6175   4.868  -0.053   3.570  0.4284  0.2443  0.6396
   68CHL1    H9 6176   4.799  -0.133   3.534  1.3870 -0.8594  1.1639
   68CHL1   C10 6177   4.932   0.025   3.452 -0.0686 -0.0587  0.7781
   68CHL1   C19 6178   5.053   0.107   3.492  0.6385 -0.2814  0.7526
   68CHL1  H19A 6179   5.094   0.177   3.415  0.1521  1.2279  1.8149
   68CHL1  H19B 6180   5.029   0.173   3.578 -2.0703  0.8315 -0.7259
   68CHL1  H19C 6181   5.136   0.039   3.521  0.5494 -0.4330  0.6485
   68CHL1    C1 6182   4.978  -0.077   3.337  0.4841 -0.0315 -0.5240
   68CHL1   H1A 6183   5.064  -0.142   3.364 -1.4545 -2.4268  0.2548
   68CHL1   H1B 6184   4.895  -0.145   3.307 -0.3035  0.4147  0.5668
   68CHL1    C2 6185   5.011  -0.010   3.204 -0.2489 -1.0392  0.3019
   68CHL1   H2A 6186   5.032  -0.087   3.128 -0.0750  0.3171 -1.0806
   68CHL1   H2B 6187   5.106   0.047   3.210 -0.7740 -0.1732  0.6986
   68CHL1   C20 6188   4.821  -0.167   4.130 -0.5013  0.3070  0.7225
   68CHL1   H20 6189   4.851  -0.068   4.170  0.1605 -0.3116  1.7864
   68CHL1   C21 6190   4.941  -0.262   4.115  0.2168  0.6755  0.0892
   68CHL1  H21A 6191   5.022  -0.233   4.045  0.5519 -0.1178  0.1386
   68CHL1  H21B 6192   4.918  -0.368   4.091  0.9196  0.7097 -0.7956
   68CHL1  H21C 6193   4.992  -0.269   4.213  0.3397  0.6875  0.0267
   68CHL1   C22 6194   4.726  -0.222   4.235  0.8536  1.1128  0.9432
   68CHL1  H22A 6195   4.628  -0.170   4.227  1.1867  1.5907 -0.1744
   68CHL1  H22B 6196   4.705  -0.327   4.204  1.4942  0.7952  1.5617
   68CHL1   C23 6197   4.781  -0.218   4.376 -0.1018 -1.0368 -0.5464
   68CHL1  H23A 6198   4.874  -0.278   4.372 -1.0212 -2.6096  0.4278
   68CHL1  H23B 6199   4.803  -0.112   4.400  1.4047 -1.3655 -0.3771
   68CHL1   C24 6200   4.670  -0.261   4.480  0.0484 -0.1931 -0.0789
   68CHL1  H24A 6201   4.603  -0.174   4.499 -0.9691 -0.9793  0.0458
   68CHL1  H24B 6202   4.601  -0.339   4.442  1.6309 -0.5061 -2.5340
   68CHL1   C25 6203   4.731  -0.311   4.610  0.0693  0.2205 -0.3377
   68CHL1   H25 6204   4.812  -0.386   4.596  0.6177  0.0711  2.9133
   68CHL1   C26 6205   4.787  -0.201   4.696 -0.1601  0.0436  1.0218
   68CHL1  H26A 6206   4.838  -0.254   4.779 -0.6078 -1.8432  0.1495
   68CHL1  H26B 6207   4.855  -0.131   4.645  0.4434  0.3302  2.1841
   68CHL1  H26C 6208   4.713  -0.132   4.742 -2.2193 -2.6628  2.0373
   68CHL1   C27 6209   4.623  -0.376   4.691 -0.5417  0.2882 -0.4449
   68CHL1  H27A 6210   4.553  -0.300   4.731  3.0617  3.1823  0.8169
   68CHL1  H27B 6211   4.577  -0.457   4.629 -2.3462 -1.0135  2.3777
   68CHL1  H27C 6212   4.663  -0.436   4.775  0.5093 -1.5798 -2.1601
   69CHL1    C3 6213   4.374   5.501   3.445  0.0015  0.6518  0.4550
   69CHL1    H3 6214   4.474   5.522   3.399 -1.1596  0.2246 -2.4537
   69CHL1    O3 6215   4.285   5.509   3.340 -0.5596 -0.5373 -0.4677
   69CHL1   H3' 6216   4.279   5.602   3.314  0.3820  0.5134  2.6401
   69CHL1    C4 6217   4.372   5.359   3.500 -0.0588 -0.3809 -0.2311
   69CHL1   H4A 6218   4.264   5.344   3.523 -0.3050  0.2042 -0.9621
   69CHL1   H4B 6219   4.399   5.282   3.425 -3.4243 -1.8074 -0.1868
   69CHL1    C5 6220   4.459   5.346   3.627  0.3661  0.1645  0.2729
   69CHL1    C6 6221   4.569   5.259   3.634 -0.5611 -0.2935 -0.5813
   69CHL1    H6 6222   4.598   5.191   3.552  0.2307  0.9712 -1.3719
   69CHL1    C7 6223   4.638   5.243   3.766  0.1778 -0.1991 -0.0581
   69CHL1   H7A 6224   4.650   5.134   3.785 -2.0034 -0.2389  1.4152
   69CHL1   H7B 6225   4.741   5.283   3.751  0.6616 -1.0738  0.8281
   69CHL1    C8 6226   4.575   5.311   3.892 -0.2688  0.7629  0.9751
   69CHL1    H8 6227   4.494   5.238   3.915  0.0091 -0.0084 -0.3367
   69CHL1   C14 6228   4.676   5.323   4.012  0.0565 -0.3652 -0.3844
   69CHL1   H14 6229   4.760   5.384   3.973 -0.0316  0.7648  1.1308
   69CHL1   C15 6230   4.729   5.193   4.071 -0.6740  0.2705  1.0210
   69CHL1  H15A 6231   4.641   5.126   4.079 -0.0726 -1.1349 -2.3635
   69CHL1  H15B 6232   4.817   5.152   4.017  1.5655  0.7806  4.0127
   69CHL1   C16 6233   4.780   5.232   4.212 -0.3568 -0.0902  0.0771
   69CHL1  H16A 6234   4.734   5.167   4.289  1.9575  0.0872  1.7325
   69CHL1  H16B 6235   4.891   5.221   4.218 -0.1636  0.5946 -1.6657
   69CHL1   C17 6236   4.734   5.379   4.237 -0.3213 -0.1785 -0.3199
   69CHL1   H17 6237   4.804   5.452   4.193  0.2372 -0.1881  0.5298
   69CHL1   C13 6238   4.620   5.394   4.133 -0.2324  0.6665 -0.2416
   69CHL1   C18 6239   4.491   5.316   4.179 -0.4389  0.3613  0.4970
   69CHL1  H18A 6240   4.452   5.380   4.261 -1.3243  0.2553  0.1775
   69CHL1  H18B 6241   4.409   5.296   4.106  1.4534 -0.0278 -1.6485
   69CHL1  H18C 6242   4.521   5.225   4.234 -0.4539  0.3415  0.4730
   69CHL1   C12 6243   4.572   5.538   4.090 -0.4308 -0.4339 -0.1133
   69CHL1  H12A 6244   4.522   5.581   4.180 -0.3974 -2.0412  0.7030
   69CHL1  H12B 6245   4.660   5.600   4.064 -0.9414 -0.2389 -1.4554
   69CHL1   C11 6246   4.475   5.529   3.973 -0.3442  0.0907  0.4610
   69CHL1  H11A 6247   4.380   5.481   4.005 -1.0154  0.8090 -0.4006
   69CHL1  H11B 6248   4.449   5.632   3.942 -3.0887 -0.8366 -0.6540
   69CHL1    C9 6249   4.521   5.447   3.848 -0.1590 -0.5700  0.2356
   69CHL1    H9 6250   4.615   5.493   3.811 -0.3118  1.9516  2.6410
   69CHL1   C10 6251   4.415   5.443   3.739 -0.8344 -0.2842  0.3485
   69CHL1   C19 6252   4.280   5.395   3.792 -0.5063  0.4558  0.6793
   69CHL1  H19A 6253   4.225   5.476   3.844 -1.6896  0.3825 -0.4133
   69CHL1  H19B 6254   4.208   5.379   3.709 -2.5293 -1.7402  2.6836
   69CHL1  H19C 6255   4.299   5.306   3.857  0.8447  0.8162  0.8070
   69CHL1    C1 6256   4.404   5.587   3.682  1.0823  0.0175  0.4808
   69CHL1   H1A 6257   4.365   5.653   3.762 -3.4123 -0.5136 -0.9779
   69CHL1   H1B 6258   4.509   5.618   3.660  1.5536 -1.4907  0.4620
   69CHL1    C2 6259   4.322   5.595   3.550  0.6936 -0.3108 -0.6042
   69CHL1   H2A 6260   4.323   5.703   3.523  1.8922  0.2387  1.3949
   69CHL1   H2B 6261   4.219   5.571   3.584 -0.1733  2.2763 -1.1743
   69CHL1   C20 6262   4.715   5.410   4.384  0.8652  0.1181 -0.5927
   69CHL1   H20 6263   4.612   5.383   4.415  2.0081 -2.3481  1.4855
   69CHL1   C21 6264   4.728   5.562   4.405  0.1747  0.2983 -0.6190
   69CHL1  H21A 6265   4.833   5.595   4.404  0.2663  0.4613  2.5405
   69CHL1  H21B 6266   4.677   5.587   4.501 -0.7109 -1.5118 -0.5598
   69CHL1  H21C 6267   4.675   5.622   4.329  0.5498 -0.3965 -1.4372
   69CHL1   C22 6268   4.814   5.340   4.488  0.2018 -0.0011  0.3315
   69CHL1  H22A 6269   4.789   5.232   4.484  0.2170 -0.0001 -3.4509
   69CHL1  H22B 6270   4.920   5.345   4.456 -0.2282 -0.8115 -1.2932
   69CHL1   C23 6271   4.801   5.390   4.631 -0.2481  0.5611  0.3078
   69CHL1  H23A 6272   4.834   5.496   4.637 -2.8056  1.4308  0.4253
   69CHL1  H23B 6273   4.696   5.391   4.669  0.2956  0.5978  1.8331
   69CHL1   C24 6274   4.889   5.310   4.730 -0.2366 -0.0749  0.2907
   69CHL1  H24A 6275   4.869   5.201   4.719  1.5905 -0.5066  0.9456
   69CHL1  H24B 6276   4.994   5.324   4.696 -0.5336  0.7985 -0.2914
   69CHL1   C25 6277   4.883   5.341   4.879 -0.4686  0.2453 -0.2293
   69CHL1   H25 6278   4.778   5.367   4.905  0.6990  1.2022  4.3696
   69CHL1   C26 6279   4.932   5.226   4.970  0.1566  0.3776  0.1563
   69CHL1  H26A 6280   5.021   5.173   4.929 -1.3004 -2.0076 -0.0849
   69CHL1  H26B 6281   4.968   5.270   5.065  2.5550  0.4692 -0.7252
   69CHL1  H26C 6282   4.850   5.151   4.975 -0.7708  1.2929 -0.8055
   69CHL1   C27 6283   4.955   5.470   4.912  0.6861 -0.4146  0.6612
   69CHL1  H27A 6284   4.939   5.548   4.835  0.2846 -1.4103 -0.2784
   69CHL1  H27B 6285   4.954   5.512   5.016  0.7628 -0.7400  0.7954
   69CHL1  H27C 6286   5.059   5.433   4.895 -0.0849 -1.6555 -1.7638
   70CHL1    C3 6287   6.067   0.501   3.308  0.4996  0.5097 -0.0285
   70CHL1    H3 6288   6.162   0.555   3.329  1.8395 -1.0031 -1.8904
   70CHL1    O3 6289   6.037   0.510   3.168 -0.3865 -0.5082  0.8741
   70CHL1   H3' 6290   5.981   0.439   3.137 -0.6494  0.4687 -0.9968
   70CHL1    C4 6291   6.114   0.354   3.335  0.4913 -0.7153  0.2265
   70CHL1   H4A 6292   6.033   0.282   3.309 -1.1891  1.4688 -0.9478
   70CHL1   H4B 6293   6.196   0.329   3.264 -0.6516 -1.9220 -0.7232
   70CHL1    C5 6294   6.157   0.343   3.479  0.5743 -0.0099 -0.3637
   70CHL1    C6 6295   6.276   0.300   3.520  0.5981  0.1704 -0.0941
   70CHL1    H6 6296   6.341   0.271   3.436  0.4038  0.9062 -0.5130
   70CHL1    C7 6297   6.314   0.279   3.658  0.2471 -0.5893  0.8913
   70CHL1   H7A 6298   6.353   0.176   3.670  0.8071 -0.4014  0.6767
   70CHL1   H7B 6299   6.395   0.348   3.691  0.2939  1.0502 -2.3121
   70CHL1    C8 6300   6.199   0.296   3.757 -0.7025 -0.1902 -0.1314
   70CHL1    H8 6301   6.147   0.198   3.752  1.2904 -1.2226 -1.9691
   70CHL1   C14 6302   6.262   0.327   3.895 -0.2284  0.5600 -0.2905
   70CHL1   H14 6303   6.322   0.421   3.893  2.7659 -1.1693  0.7600
   70CHL1   C15 6304   6.368   0.228   3.952 -0.0111  0.8515  0.2356
   70CHL1  H15A 6305   6.345   0.120   3.935 -2.0716  1.0865  1.2397
   70CHL1  H15B 6306   6.460   0.249   3.894 -0.7052 -0.3531 -1.3619
   70CHL1   C16 6307   6.372   0.255   4.100 -0.5732 -0.3858  0.4112
   70CHL1  H16A 6308   6.348   0.161   4.154 -1.9430 -0.3408 -0.0703
   70CHL1  H16B 6309   6.466   0.304   4.133  1.0165 -0.8090 -3.0339
   70CHL1   C17 6310   6.250   0.344   4.133  0.0817  0.0389  0.1702
   70CHL1   H17 6311   6.294   0.445   4.120 -0.8852  0.3766 -0.5999
   70CHL1   C13 6312   6.157   0.343   4.010 -0.6732 -0.2669  1.6327
   70CHL1   C18 6313   6.082   0.204   4.024 -0.5161  0.0422  0.3186
   70CHL1  H18A 6314   6.031   0.171   3.931 -1.2735  2.1136 -0.0541
   70CHL1  H18B 6315   6.155   0.128   4.058  0.8247  0.7139 -0.9558
   70CHL1  H18C 6316   5.990   0.208   4.087 -2.7930 -1.4051 -2.6071
   70CHL1   C12 6317   6.064   0.458   3.972  0.0569 -0.4812 -0.4490
   70CHL1  H12A 6318   5.980   0.467   4.045 -1.4207  0.4075 -2.1778
   70CHL1  H12B 6319   6.118   0.554   3.961  0.6121 -0.3656  2.3889
   70CHL1   C11 6320   5.996   0.422   3.838  0.3562 -0.0437  0.1539
   70CHL1  H11A 6321   5.928   0.334   3.850 -1.1840  1.0149 -0.4763
   70CHL1  H11B 6322   5.930   0.503   3.801 -0.1945 -0.5704 -0.0475
   70CHL1    C9 6323   6.100   0.405   3.720  0.0080  0.9437 -0.2134
   70CHL1    H9 6324   6.154   0.502   3.725 -0.7112  1.3444  0.0286
   70CHL1   C10 6325   6.044   0.388   3.575 -0.1417 -0.0988 -0.9289
   70CHL1   C19 6326   5.926   0.290   3.568 -0.2015 -0.6076  0.2665
   70CHL1  H19A 6327   5.938   0.190   3.617 -0.9679 -0.2103  1.3022
   70CHL1  H19B 6328   5.844   0.338   3.624  0.1076 -0.3449  0.4957
   70CHL1  H19C 6329   5.892   0.268   3.465  1.2044 -0.4351 -0.2507
   70CHL1    C1 6330   5.993   0.528   3.535  0.7074 -0.1945 -0.1996
   70CHL1   H1A 6331   5.905   0.552   3.599  1.7043 -0.0892  1.1848
   70CHL1   H1B 6332   6.065   0.612   3.544 -1.6747  2.0671 -0.8357
   70CHL1    C2 6333   5.948   0.533   3.392  0.4444 -0.4532 -0.4393
   70CHL1   H2A 6334   5.919   0.639   3.380  2.2644  0.4513  2.2112
   70CHL1   H2B 6335   5.854   0.474   3.382  0.4825 -0.6010  0.0516
   70CHL1   C20 6336   6.188   0.339   4.276 -0.1768  0.2301 -0.6728
   70CHL1   H20 6337   6.139   0.242   4.295  0.3927 -0.0598 -0.6466
   70CHL1   C21 6338   6.080   0.452   4.291 -0.2806  0.2514 -0.3099
   70CHL1  H21A 6339   6.063   0.479   4.397  0.3838  1.6409 -0.5392
   70CHL1  H21B 6340   5.981   0.414   4.255  1.1934 -2.1790 -2.1261
   70CHL1  H21C 6341   6.101   0.547   4.238 -0.3592  1.0459  1.0450
   70CHL1   C22 6342   6.290   0.355   4.386 -0.9292 -0.5399 -0.7090
   70CHL1  H22A 6343   6.380   0.299   4.353  1.6693  3.5246 -1.2175
   70CHL1  H22B 6344   6.311   0.464   4.385 -1.8098 -0.3304  0.5920
   70CHL1   C23 6345   6.237   0.322   4.527  0.4908 -0.4257 -0.4958
   70CHL1  H23A 6346   6.159   0.391   4.566  0.9750 -0.4293  0.5060
   70CHL1  H23B 6347   6.192   0.220   4.524 -0.2179 -0.2224  1.8792
   70CHL1   C24 6348   6.351   0.317   4.632 -0.2522 -0.1678  0.6705
   70CHL1  H24A 6349   6.433   0.261   4.583  1.7312  1.1430  2.3387
   70CHL1  H24B 6350   6.390   0.419   4.651  2.5449 -1.0977  0.3904
   70CHL1   C25 6351   6.316   0.235   4.761 -0.6037  0.2279 -0.7353
   70CHL1   H25 6352   6.252   0.149   4.732  0.7217 -0.6238 -1.2131
   70CHL1   C26 6353   6.450   0.193   4.838 -1.1647 -0.2159 -0.1851
   70CHL1  H26A 6354   6.512   0.284   4.845 -0.4772 -0.6862 -0.1002
   70CHL1  H26B 6355   6.443   0.157   4.942 -0.5680 -0.8210 -0.3474
   70CHL1  H26C 6356   6.519   0.130   4.778 -1.0324 -0.0891 -0.1641
   70CHL1   C27 6357   6.239   0.322   4.853 -0.9513  0.3079  0.7858
   70CHL1  H27A 6358   6.295   0.414   4.878 -0.7934  0.5576 -0.4274
   70CHL1  H27B 6359   6.145   0.351   4.803 -1.4878  0.2265  1.7140
   70CHL1  H27C 6360   6.209   0.270   4.947 -1.4521 -2.3632 -0.7583
   71CHL1    C3 6361   4.493   0.809   3.003 -1.0206  0.1495 -0.3411
   71CHL1    H3 6362   4.396   0.755   3.011 -2.6464  2.9845  0.2368
   71CHL1    O3 6363   4.491   0.893   2.888 -0.0459  0.1949 -0.8243
   71CHL1   H3' 6364   4.503   0.828   2.818 -1.1105  0.0443 -0.8850
   71CHL1    C4 6365   4.504   0.887   3.137  0.5715 -0.6672 -0.1606
   71CHL1   H4A 6366   4.574   0.972   3.125  0.2752  0.0361  2.4483
   71CHL1   H4B 6367   4.410   0.947   3.140  0.5463 -0.6118 -1.6802
   71CHL1    C5 6368   4.530   0.807   3.263  0.6624 -0.4449 -0.6145
   71CHL1    C6 6369   4.443   0.813   3.365 -0.2255 -0.1360  0.1078
   71CHL1    H6 6370   4.336   0.836   3.353 -0.8706 -1.6361  2.3817
   71CHL1    C7 6371   4.468   0.749   3.497 -0.7596  0.7068 -1.0898
   71CHL1   H7A 6372   4.427   0.810   3.581 -3.6176  0.3677 -2.1183
   71CHL1   H7B 6373   4.413   0.653   3.499 -0.7467  0.6397  2.4553
   71CHL1    C8 6374   4.622   0.706   3.512  0.3112 -1.0220  0.0338
   71CHL1    H8 6375   4.678   0.801   3.523 -1.4917  0.0104  0.6631
   71CHL1   C14 6376   4.638   0.623   3.634 -0.6993  0.4833 -0.2200
   71CHL1   H14 6377   4.583   0.528   3.619  0.7123 -0.5302  0.8138
   71CHL1   C15 6378   4.580   0.677   3.763 -0.1685  0.7804  0.0610
   71CHL1  H15A 6379   4.607   0.784   3.759  2.2749  0.2076 -1.0090
   71CHL1  H15B 6380   4.471   0.658   3.766  0.0088 -0.2141  0.8947
   71CHL1   C16 6381   4.642   0.595   3.870 -0.4409 -0.4551 -0.7062
   71CHL1  H16A 6382   4.691   0.670   3.936  1.7021 -1.5149 -0.9864
   71CHL1  H16B 6383   4.574   0.539   3.937  0.8815  1.8484  2.8988
   71CHL1   C17 6384   4.749   0.506   3.803 -0.5582 -0.1771  0.6594
   71CHL1   H17 6385   4.704   0.408   3.776 -1.6017  0.4609 -0.0021
   71CHL1   C13 6386   4.775   0.577   3.661  0.3969 -0.2126 -0.7377
   71CHL1   C18 6387   4.863   0.702   3.682 -0.9718 -0.3471 -0.1840
   71CHL1  H18A 6388   4.965   0.670   3.712 -0.1290  2.8428  0.8360
   71CHL1  H18B 6389   4.878   0.764   3.591  3.0844 -2.0541 -0.9059
   71CHL1  H18C 6390   4.827   0.767   3.765  1.9164 -0.5606  1.3572
   71CHL1   C12 6391   4.828   0.497   3.542  0.5781 -0.1615  1.0120
   71CHL1  H12A 6392   4.935   0.481   3.567  1.1238  1.7904  0.1491
   71CHL1  H12B 6393   4.770   0.404   3.525  1.3611 -0.2434 -1.7185
   71CHL1   C11 6394   4.812   0.571   3.406 -0.3002  0.4271  0.1424
   71CHL1  H11A 6395   4.897   0.643   3.405  1.6353 -1.7175  0.2695
   71CHL1  H11B 6396   4.821   0.501   3.320  0.0985 -0.8737  1.2032
   71CHL1    C9 6397   4.672   0.641   3.383 -0.4031 -0.1899 -0.2140
   71CHL1    H9 6398   4.603   0.555   3.371 -1.4330  0.7641 -1.3181
   71CHL1   C10 6399   4.664   0.734   3.258  0.3482  0.8433  0.8624
   71CHL1   C19 6400   4.788   0.819   3.248  0.6251 -0.5320 -0.5695
   71CHL1  H19A 6401   4.812   0.873   3.342 -1.1778 -1.2534  0.3621
   71CHL1  H19B 6402   4.872   0.756   3.211 -0.1378 -0.4800 -2.4804
   71CHL1  H19C 6403   4.782   0.896   3.169  0.2569 -1.2447 -1.2493
   71CHL1    C1 6404   4.657   0.643   3.119 -0.6386 -0.5221 -0.4873
   71CHL1   H1A 6405   4.755   0.590   3.112 -0.7003 -0.9861  1.4035
   71CHL1   H1B 6406   4.577   0.567   3.134 -1.8633  0.5058 -1.5957
   71CHL1    C2 6407   4.621   0.727   2.994 -0.0514 -0.2602 -0.0082
   71CHL1   H2A 6408   4.596   0.655   2.913 -0.4829  1.6341 -1.6344
   71CHL1   H2B 6409   4.703   0.785   2.946 -1.6744  2.1415 -0.0006
   71CHL1   C20 6410   4.860   0.465   3.898  0.2294 -0.9482  1.3485
   71CHL1   H20 6411   4.934   0.546   3.914  2.0355 -2.6692  1.9857
   71CHL1   C21 6412   4.932   0.335   3.855  0.2743 -0.2064 -0.2268
   71CHL1  H21A 6413   5.028   0.326   3.909 -0.5651 -0.4821  1.2681
   71CHL1  H21B 6414   4.964   0.344   3.749 -0.8792  0.7420 -0.5286
   71CHL1  H21C 6415   4.861   0.249   3.859  1.1337 -0.8784  1.4958
   71CHL1   C22 6416   4.801   0.449   4.043  0.6212 -0.6573  1.0513
   71CHL1  H22A 6417   4.771   0.543   4.093  1.6636  0.5240 -0.4595
   71CHL1  H22B 6418   4.707   0.390   4.045 -0.0883  0.2595 -1.5949
   71CHL1   C23 6419   4.895   0.386   4.150  0.6886  0.5551 -0.4462
   71CHL1  H23A 6420   4.945   0.299   4.102 -0.5774  0.0561 -0.8983
   71CHL1  H23B 6421   4.967   0.463   4.185 -0.0525  0.6466  0.9659
   71CHL1   C24 6422   4.817   0.334   4.269  0.0924 -0.7843  0.4580
   71CHL1  H24A 6423   4.734   0.404   4.295  0.5308  0.2440 -0.8277
   71CHL1  H24B 6424   4.759   0.246   4.237  0.9601 -0.7441 -1.3002
   71CHL1   C25 6425   4.910   0.304   4.397  0.0669 -0.2586  0.2219
   71CHL1   H25 6426   4.981   0.390   4.405 -0.2009  0.4681 -3.4612
   71CHL1   C26 6427   4.827   0.319   4.525 -0.7968  0.4755 -0.4662
   71CHL1  H26A 6428   4.891   0.321   4.616  0.2858  1.2486 -1.2185
   71CHL1  H26B 6429   4.764   0.411   4.529  0.9727  1.8648 -2.4570
   71CHL1  H26C 6430   4.755   0.234   4.522 -1.4416  1.0156 -0.6949
   71CHL1   C27 6431   4.986   0.173   4.385 -0.1971 -0.0037  0.2657
   71CHL1  H27A 6432   5.013   0.128   4.483 -1.1766  0.6473  0.8658
   71CHL1  H27B 6433   4.920   0.105   4.327  2.2859 -0.5527 -2.1074
   71CHL1  H27C 6434   5.081   0.184   4.329 -0.1226 -0.4765  0.2943
   72CHL1    C3 6435   3.183   5.804   3.006  0.0607  0.1884 -0.4749
   72CHL1    H3 6436   3.169   5.695   3.025  3.2357  0.0941  2.2788
   72CHL1    O3 6437   3.213   5.816   2.869  0.8757 -0.3112 -0.3989
   72CHL1   H3' 6438   3.131   5.812   2.821  0.5395 -0.9312  0.2117
   72CHL1    C4 6439   3.060   5.880   3.045 -0.1301 -0.4280  0.2756
   72CHL1   H4A 6440   3.082   5.988   3.027 -1.5772  0.4159  3.0985
   72CHL1   H4B 6441   2.979   5.857   2.973 -1.3728  0.7903  1.2452
   72CHL1    C5 6442   3.026   5.860   3.193 -0.7997 -0.6075  0.4967
   72CHL1    C6 6443   2.905   5.808   3.231 -0.1182 -0.3859  0.6330
   72CHL1    H6 6444   2.828   5.789   3.155 -0.6056  1.5530  0.5926
   72CHL1    C7 6445   2.867   5.783   3.373 -0.4015  0.1717 -1.0194
   72CHL1   H7A 6446   2.767   5.827   3.390  0.5059  1.7810  0.5036
   72CHL1   H7B 6447   2.869   5.673   3.390 -0.5540  0.3647  0.3852
   72CHL1    C8 6448   2.970   5.849   3.473  0.0924 -0.2014  0.2055
   72CHL1    H8 6449   2.948   5.957   3.487  2.9486  0.2771  1.7825
   72CHL1   C14 6450   2.955   5.776   3.606 -0.4746 -0.0133  0.7007
   72CHL1   H14 6451   2.989   5.672   3.590  1.2745  0.7855 -1.2018
   72CHL1   C15 6452   2.812   5.736   3.658 -0.6230  0.1081 -0.0346
   72CHL1  H15A 6453   2.744   5.821   3.636  1.4152  1.6459 -0.7076
   72CHL1  H15B 6454   2.778   5.640   3.611 -0.5818 -1.6671  3.2567
   72CHL1   C16 6455   2.841   5.732   3.810  0.1704 -0.1795  0.2370
   72CHL1  H16A 6456   2.784   5.809   3.866 -3.7500 -1.5013 -1.5537
   72CHL1  H16B 6457   2.807   5.635   3.852  0.3706 -0.2824  0.1602
   72CHL1   C17 6458   2.993   5.756   3.835 -1.4255  0.2046  0.6398
   72CHL1   H17 6459   3.047   5.659   3.824  1.1454  1.5427  0.6197
   72CHL1   C13 6460   3.035   5.835   3.717  0.4017 -0.2965 -0.2884
   72CHL1   C18 6461   2.994   5.980   3.737  0.0791  0.1002 -0.0924
   72CHL1  H18A 6462   2.887   5.999   3.759 -0.6397 -0.6782 -2.6311
   72CHL1  H18B 6463   3.058   6.023   3.817  0.9485 -0.2657 -0.5767
   72CHL1  H18C 6464   3.018   6.043   3.649  2.0754 -2.1053 -1.2240
   72CHL1   C12 6465   3.187   5.827   3.676  0.6563 -0.6126 -0.0025
   72CHL1  H12A 6466   3.250   5.888   3.744  0.1359  0.0113 -0.0639
   72CHL1  H12B 6467   3.216   5.720   3.679  1.8225 -0.4976 -3.1289
   72CHL1   C11 6468   3.205   5.881   3.544  1.2459 -0.6169 -0.1209
   72CHL1  H11A 6469   3.191   5.990   3.559 -0.5514 -1.0729  1.9334
   72CHL1  H11B 6470   3.308   5.863   3.508  2.4023  2.4687  1.2596
   72CHL1    C9 6471   3.112   5.832   3.435 -0.6136 -0.4253 -0.3749
   72CHL1    H9 6472   3.122   5.721   3.431  2.1337 -0.2527 -0.6063
   72CHL1   C10 6473   3.140   5.889   3.294 -0.2175  0.1045 -0.5063
   72CHL1   C19 6474   3.163   6.047   3.293 -0.2174 -0.4455 -0.3767
   72CHL1  H19A 6475   3.254   6.094   3.336 -1.9002  1.0663  1.7565
   72CHL1  H19B 6476   3.163   6.083   3.187  0.7341 -2.1396 -0.9918
   72CHL1  H19C 6477   3.079   6.087   3.354 -0.5787 -2.4514  0.5034
   72CHL1    C1 6478   3.269   5.827   3.234 -0.3614  0.6430  0.9764
   72CHL1   H1A 6479   3.361   5.862   3.286  1.6797 -0.2201 -1.7849
   72CHL1   H1B 6480   3.263   5.717   3.249  2.1644 -0.0655 -2.0843
   72CHL1    C2 6481   3.304   5.850   3.086  0.3612  0.0860  0.7855
   72CHL1   H2A 6482   3.405   5.808   3.069 -0.3836 -1.1899 -0.7511
   72CHL1   H2B 6483   3.308   5.960   3.068 -2.4167  0.0954 -0.3461
   72CHL1   C20 6484   3.034   5.797   3.974  0.6881 -0.5319 -0.6378
   72CHL1   H20 6485   2.998   5.898   4.003  2.3439 -0.2602  0.5787
   72CHL1   C21 6486   3.192   5.804   3.988  0.0547 -0.0893 -0.5655
   72CHL1  H21A 6487   3.220   5.807   4.095  0.5914  0.7651 -0.7237
   72CHL1  H21B 6488   3.223   5.903   3.949 -4.6423  0.8990 -2.4375
   72CHL1  H21C 6489   3.239   5.717   3.936 -0.2733 -0.6299  0.0279
   72CHL1   C22 6490   2.968   5.696   4.076  0.0329 -0.5349 -0.6083
   72CHL1  H22A 6491   2.863   5.729   4.087  0.8126  2.2450 -0.7797
   72CHL1  H22B 6492   2.974   5.590   4.044  1.1456 -0.6989  0.0861
   72CHL1   C23 6493   3.026   5.705   4.221  0.3161 -0.4176  0.0240
   72CHL1  H23A 6494   3.123   5.654   4.239 -0.5896 -2.5579 -0.8448
   72CHL1  H23B 6495   3.024   5.806   4.268  0.7570  0.3142 -1.4727
   72CHL1   C24 6496   2.931   5.616   4.312 -0.1805 -0.0243  0.0209
   72CHL1  H24A 6497   2.831   5.660   4.293  1.7188  4.1227 -1.5565
   72CHL1  H24B 6498   2.932   5.518   4.260  0.3842  0.4683 -0.9445
   72CHL1   C25 6499   2.964   5.588   4.459 -0.3886  0.2777  0.3201
   72CHL1   H25 6500   2.878   5.536   4.506  0.5034 -1.6224 -0.0599
   72CHL1   C26 6501   3.073   5.491   4.483  0.1232  0.4572 -0.8721
   72CHL1  H26A 6502   3.092   5.471   4.591 -2.4942  0.8139 -0.2787
   72CHL1  H26B 6503   3.049   5.394   4.434  0.1845 -0.2279  0.3907
   72CHL1  H26C 6504   3.169   5.515   4.433  2.1659 -2.0802  1.5012
   72CHL1   C27 6505   2.989   5.713   4.543  0.5824 -0.1670  0.6502
   72CHL1  H27A 6506   3.054   5.787   4.492  0.5857  0.3498  1.4091
   72CHL1  H27B 6507   2.898   5.776   4.553  0.3465 -0.5037  0.6420
   72CHL1  H27C 6508   3.027   5.691   4.645 -1.1722 -2.4674  0.9198
   73CHL1    C3 6509   4.638   6.245   3.334  0.1404  0.0945 -0.0958
   73CHL1    H3 6510   4.696   6.151   3.323  1.3816  0.7018  1.0352
   73CHL1    O3 6511   4.622   6.291   3.200  0.5349  0.3026 -0.1915
   73CHL1   H3' 6512   4.552   6.240   3.159  2.0132 -0.4163 -1.9146
   73CHL1    C4 6513   4.504   6.209   3.407  0.6886  0.2462 -0.2794
   73CHL1   H4A 6514   4.452   6.308   3.408 -0.9612 -0.5286 -2.0766
   73CHL1   H4B 6515   4.440   6.151   3.337  0.0179  1.3072 -0.5737
   73CHL1    C5 6516   4.524   6.157   3.548  0.3592  0.8018 -0.8099
   73CHL1    C6 6517   4.467   6.036   3.583 -1.3502  0.2909 -0.1348
   73CHL1    H6 6518   4.412   5.975   3.509  0.9781 -1.0513 -0.8678
   73CHL1    C7 6519   4.490   5.982   3.720  0.1200 -1.0395  0.2266
   73CHL1   H7A 6520   4.394   5.951   3.766 -1.1830  0.7830 -1.1387
   73CHL1   H7B 6521   4.558   5.894   3.721 -2.2472 -2.9981 -0.1232
   73CHL1    C8 6522   4.536   6.084   3.826  0.1168  0.3120  0.4799
   73CHL1    H8 6523   4.454   6.158   3.839 -1.0471 -0.6443 -0.9614
   73CHL1   C14 6524   4.572   6.025   3.966 -0.5109  0.1148 -0.9034
   73CHL1   H14 6525   4.665   5.965   3.956 -0.9364 -0.9977  1.1899
   73CHL1   C15 6526   4.476   5.929   4.015  0.4764  0.4854 -1.1131
   73CHL1  H15A 6527   4.373   5.966   3.997  0.6475  0.7289 -1.5891
   73CHL1  H15B 6528   4.471   5.829   3.966  0.3864  0.0270 -0.1831
   73CHL1   C16 6529   4.524   5.916   4.164  0.2354  0.0271 -0.5300
   73CHL1  H16A 6530   4.427   5.935   4.215 -0.2134  0.8357 -1.6421
   73CHL1  H16B 6531   4.561   5.817   4.196  2.4229  0.5657 -1.2363
   73CHL1   C17 6532   4.628   6.022   4.192  0.7464  0.3168  0.6882
   73CHL1   H17 6533   4.723   5.968   4.171 -0.1292 -0.5658 -1.1494
   73CHL1   C13 6534   4.617   6.123   4.071  0.7987 -0.2395  0.5810
   73CHL1   C18 6535   4.496   6.229   4.089 -0.2965  0.2978 -0.0939
   73CHL1  H18A 6536   4.525   6.298   4.171  2.1205  1.0479 -1.4701
   73CHL1  H18B 6537   4.474   6.274   3.990 -0.6760 -2.8039 -1.5583
   73CHL1  H18C 6538   4.400   6.179   4.112 -0.3005 -1.0854 -2.6716
   73CHL1   C12 6539   4.748   6.181   4.017 -1.3831 -0.1497  0.1118
   73CHL1  H12A 6540   4.783   6.260   4.086  0.3896  0.2628 -1.1729
   73CHL1  H12B 6541   4.826   6.102   4.023 -0.8347  0.4846  2.1770
   73CHL1   C11 6542   4.731   6.242   3.877  0.6478  0.4040 -0.6653
   73CHL1  H11A 6543   4.679   6.338   3.898  3.0810  1.8916 -1.0331
   73CHL1  H11B 6544   4.830   6.275   3.839  1.0675 -0.3384 -0.2370
   73CHL1    C9 6545   4.650   6.166   3.771  0.8316  0.1420 -0.5110
   73CHL1    H9 6546   4.733   6.097   3.742  0.7199 -0.1798 -0.0735
   73CHL1   C10 6547   4.614   6.242   3.640 -0.5287 -0.3901  0.5990
   73CHL1   C19 6548   4.542   6.372   3.680 -0.1319 -1.0667  0.5252
   73CHL1  H19A 6549   4.508   6.427   3.589 -2.8233 -1.3578  1.2476
   73CHL1  H19B 6550   4.452   6.366   3.745 -0.1509  0.3497  0.6624
   73CHL1  H19C 6551   4.614   6.443   3.726  1.5515 -0.4430 -2.7398
   73CHL1    C1 6552   4.740   6.285   3.565 -0.5767 -0.3014 -0.0336
   73CHL1   H1A 6553   4.790   6.362   3.629  1.4036 -1.0511 -0.6019
   73CHL1   H1B 6554   4.818   6.207   3.551 -0.3984  0.1279 -1.6621
   73CHL1    C2 6555   4.726   6.342   3.420 -0.4354 -0.0478  0.0062
   73CHL1   H2A 6556   4.823   6.353   3.369 -0.1095  0.3017  0.6850
   73CHL1   H2B 6557   4.687   6.445   3.406 -3.0420 -1.0679 -0.9492
   73CHL1   C20 6558   4.632   6.064   4.334  0.3907  0.1255  0.9247
   73CHL1   H20 6559   4.542   6.118   4.369  1.3481  2.1205  0.4258
   73CHL1   C21 6560   4.742   6.168   4.354 -0.0566  0.5969 -0.1464
   73CHL1  H21A 6561   4.832   6.128   4.303 -0.8650  0.9193 -1.9260
   73CHL1  H21B 6562   4.772   6.203   4.455 -2.0850  0.3559  0.5889
   73CHL1  H21C 6563   4.717   6.264   4.304 -2.5081  0.2713  0.3178
   73CHL1   C22 6564   4.661   5.951   4.437  0.1863  0.8814 -0.5043
   73CHL1  H22A 6565   4.580   5.876   4.421  1.9719 -1.2596 -0.1337
   73CHL1  H22B 6566   4.754   5.900   4.405 -0.8370 -2.1425  0.9068
   73CHL1   C23 6567   4.671   5.993   4.580 -0.2843 -0.2430 -0.4924
   73CHL1  H23A 6568   4.768   6.047   4.588 -1.3752  1.7347  0.0033
   73CHL1  H23B 6569   4.594   6.069   4.604 -1.0913 -1.2396  0.1969
   73CHL1   C24 6570   4.666   5.878   4.676 -0.7708 -0.4802 -0.3735
   73CHL1  H24A 6571   4.576   5.816   4.654  0.4665 -2.3513 -0.4220
   73CHL1  H24B 6572   4.747   5.803   4.662 -1.1274 -0.5710 -2.2383
   73CHL1   C25 6573   4.677   5.922   4.825 -0.0770  0.8418  0.4629
   73CHL1   H25 6574   4.769   5.984   4.832  0.3085  0.1701  1.6076
   73CHL1   C26 6575   4.553   5.998   4.874 -0.2499  0.8256  0.6369
   73CHL1  H26A 6576   4.558   6.013   4.984  0.3777  0.1482  0.7080
   73CHL1  H26B 6577   4.538   6.093   4.818  2.5326  0.1783 -1.4459
   73CHL1  H26C 6578   4.458   5.950   4.842  0.3540  1.1320 -1.8401
   73CHL1   C27 6579   4.694   5.790   4.907  0.2617  0.0750  0.3328
   73CHL1  H27A 6580   4.701   5.813   5.016  0.7527  2.3403 -0.1178
   73CHL1  H27B 6581   4.614   5.715   4.892  0.9695 -0.3589 -1.4882
   73CHL1  H27C 6582   4.789   5.735   4.890 -0.2602 -1.2836  1.6608
   74CHL1    C3 6583   5.456   6.504   3.195 -0.6796  0.3423  0.7883
   74CHL1    H3 6584   5.549   6.566   3.193  0.8622 -1.8336  1.0739
   74CHL1    O3 6585   5.432   6.466   3.058 -0.2031 -0.1345 -0.0641
   74CHL1   H3' 6586   5.474   6.380   3.049  1.9593  1.0471 -2.6231
   74CHL1    C4 6587   5.480   6.374   3.268  1.2958  0.9026  0.3448
   74CHL1   H4A 6588   5.396   6.305   3.245  1.4203  0.8578  0.0228
   74CHL1   H4B 6589   5.574   6.338   3.222  0.1867  1.3625 -2.4770
   74CHL1    C5 6590   5.498   6.403   3.418  0.7504  0.0935  1.2311
   74CHL1    C6 6591   5.608   6.360   3.484  0.1299  0.0109 -0.3983
   74CHL1    H6 6592   5.684   6.301   3.431  1.3015  0.1730  1.0536
   74CHL1    C7 6593   5.641   6.390   3.628  0.3026 -0.1259  0.2848
   74CHL1   H7A 6594   5.680   6.300   3.678  0.5581 -0.9121 -1.2767
   74CHL1   H7B 6595   5.727   6.460   3.641  0.0844  0.6000 -1.7275
   74CHL1    C8 6596   5.512   6.432   3.702  0.0834 -0.8056 -0.4331
   74CHL1    H8 6597   5.441   6.347   3.710 -1.5624  0.5185 -0.4601
   74CHL1   C14 6598   5.548   6.484   3.836 -0.3719 -0.5763 -0.9554
   74CHL1   H14 6599   5.613   6.573   3.827 -0.0812 -0.1837  3.2612
   74CHL1   C15 6600   5.639   6.399   3.922  0.2874 -0.0407 -0.0484
   74CHL1  H15A 6601   5.601   6.295   3.926  1.0949 -0.3577 -0.3082
   74CHL1  H15B 6602   5.744   6.399   3.885  0.7630 -0.8855  1.2168
   74CHL1   C16 6603   5.631   6.473   4.054 -0.9112 -1.1514 -0.0185
   74CHL1  H16A 6604   5.612   6.411   4.145 -2.6040  0.3667  0.7304
   74CHL1  H16B 6605   5.726   6.529   4.067 -0.7944 -1.8427  2.6826
   74CHL1   C17 6606   5.514   6.575   4.056 -0.4744  0.2919  0.3129
   74CHL1   H17 6607   5.557   6.667   4.011 -1.8237 -0.3790 -2.6337
   74CHL1   C13 6608   5.432   6.526   3.929 -0.4850  0.3624  0.0973
   74CHL1   C18 6609   5.339   6.403   3.959 -0.1681  0.3044  0.0270
   74CHL1  H18A 6610   5.314   6.347   3.866 -2.1878  0.7924  0.2308
   74CHL1  H18B 6611   5.370   6.326   4.033  0.1169 -0.3048 -0.7054
   74CHL1  H18C 6612   5.246   6.445   4.002 -2.2225 -2.2978 -1.5645
   74CHL1   C12 6613   5.352   6.634   3.856 -0.2061  0.0805 -0.3145
   74CHL1  H12A 6614   5.263   6.659   3.918 -0.3869  1.8768 -1.2219
   74CHL1  H12B 6615   5.412   6.725   3.833 -1.8203  1.6402  1.2646
   74CHL1   C11 6616   5.306   6.589   3.716  1.2701 -0.0742 -0.1243
   74CHL1  H11A 6617   5.233   6.508   3.734  3.1136 -1.5610  1.0661
   74CHL1  H11B 6618   5.270   6.677   3.659 -2.2528 -0.6898  0.9376
   74CHL1    C9 6619   5.430   6.537   3.629  0.2817 -0.2516  0.1347
   74CHL1    H9 6620   5.499   6.623   3.615  0.9295 -0.6376  0.8618
   74CHL1   C10 6621   5.390   6.483   3.486  0.3237 -0.1499 -0.4457
   74CHL1   C19 6622   5.267   6.392   3.498 -0.2866 -0.3766 -0.6533
   74CHL1  H19A 6623   5.173   6.453   3.499  0.0146  0.1251 -1.5279
   74CHL1  H19B 6624   5.255   6.332   3.405 -1.0601  1.2831 -1.6837
   74CHL1  H19C 6625   5.272   6.323   3.585 -0.4060 -0.4053 -0.6688
   74CHL1    C1 6626   5.364   6.611   3.399 -0.3585 -0.2235 -0.2780
   74CHL1   H1A 6627   5.271   6.656   3.439  1.2266  1.8033  1.3420
   74CHL1   H1B 6628   5.446   6.684   3.409  0.7775 -1.3516 -1.0564
   74CHL1    C2 6629   5.338   6.583   3.248  0.5913  0.3342 -0.3886
   74CHL1   H2A 6630   5.323   6.682   3.200 -0.4476  0.0205 -0.7461
   74CHL1   H2B 6631   5.247   6.520   3.241  0.3009  0.2739  2.5977
   74CHL1   C20 6632   5.441   6.613   4.188  0.7711  0.0285 -1.0051
   74CHL1   H20 6633   5.345   6.661   4.160 -0.0132 -0.5529  0.5751
   74CHL1   C21 6634   5.536   6.716   4.261  0.2702 -0.1002 -0.4964
   74CHL1  H21A 6635   5.632   6.670   4.293  0.1097  1.1195  2.0199
   74CHL1  H21B 6636   5.501   6.758   4.358  0.6097  0.7181 -0.7212
   74CHL1  H21C 6637   5.547   6.801   4.190 -1.8182 -0.8587 -1.8347
   74CHL1   C22 6638   5.404   6.499   4.281 -0.0943  0.5369 -0.1009
   74CHL1  H22A 6639   5.339   6.424   4.231 -2.6194  0.2742  3.1794
   74CHL1  H22B 6640   5.491   6.445   4.323  0.8799 -0.2684 -2.9170
   74CHL1   C23 6641   5.326   6.546   4.400  0.8740 -0.5579  0.0802
   74CHL1  H23A 6642   5.377   6.619   4.467 -0.1678 -0.3024  0.6099
   74CHL1  H23B 6643   5.240   6.607   4.367  0.7283 -0.6845  0.2215
   74CHL1   C24 6644   5.284   6.429   4.491 -0.1631 -0.7398  0.2737
   74CHL1  H24A 6645   5.215   6.364   4.432 -0.3553 -1.4799  1.2879
   74CHL1  H24B 6646   5.378   6.376   4.517 -0.0309  0.7313  3.2112
   74CHL1   C25 6647   5.224   6.466   4.632 -0.1651  0.1580  0.2070
   74CHL1   H25 6648   5.295   6.526   4.694 -0.6707  0.5240  0.4399
   74CHL1   C26 6649   5.098   6.551   4.618  0.3619  0.4831 -0.5268
   74CHL1  H26A 6650   5.102   6.650   4.568  1.6983  1.3920  1.2828
   74CHL1  H26B 6651   5.010   6.491   4.584 -0.4420  0.4417  1.4756
   74CHL1  H26C 6652   5.072   6.578   4.723 -0.0274 -0.7586 -0.2844
   74CHL1   C27 6653   5.204   6.330   4.706 -0.2051 -0.4290  0.4838
   74CHL1  H27A 6654   5.171   6.356   4.809 -0.8203  0.6749  0.0273
   74CHL1  H27B 6655   5.131   6.269   4.649  0.4743  0.5713 -1.5733
   74CHL1  H27C 6656   5.299   6.274   4.714  1.7344  2.6190  0.4224
   75CHL1    C3 6657   4.055   5.114   3.172 -0.6090 -0.5324  0.7976
   75CHL1    H3 6658   4.149   5.066   3.209  1.5821  2.8833  0.1173
   75CHL1    O3 6659   4.058   5.127   3.027  0.3212  0.2935 -0.0370
   75CHL1   H3' 6660   3.966   5.115   3.003 -0.2950  1.7643  1.4300
   75CHL1    C4 6661   3.933   5.038   3.213  0.2179 -0.3971 -1.3955
   75CHL1   H4A 6662   3.849   5.092   3.164 -1.1006 -0.4640  0.6400
   75CHL1   H4B 6663   3.948   4.939   3.164  0.0844 -0.2864 -1.6597
   75CHL1    C5 6664   3.909   5.031   3.364 -0.7221 -0.7685  0.2339
   75CHL1    C6 6665   3.904   4.915   3.424  0.3625  0.0704 -1.1126
   75CHL1    H6 6666   3.900   4.831   3.353  2.0215  0.5521 -1.8155
   75CHL1    C7 6667   3.885   4.893   3.571 -0.4871  0.4967 -0.6871
   75CHL1   H7A 6668   3.798   4.824   3.578 -0.6652  0.6853 -0.9964
   75CHL1   H7B 6669   3.971   4.840   3.617 -1.1106  1.4074  1.6595
   75CHL1    C8 6670   3.848   5.025   3.644 -0.5926  0.8022  0.4342
   75CHL1    H8 6671   3.737   5.032   3.642 -0.5293  1.8605 -0.1046
   75CHL1   C14 6672   3.880   5.010   3.795  0.0162  0.0534  0.1381
   75CHL1   H14 6673   3.991   5.012   3.797  0.0997 -0.4604 -1.7429
   75CHL1   C15 6674   3.842   4.879   3.871 -0.6797  0.5087  0.8797
   75CHL1  H15A 6675   3.742   4.847   3.834  0.3338 -0.3095 -1.3349
   75CHL1  H15B 6676   3.913   4.796   3.854 -0.9362  0.6265 -1.0005
   75CHL1   C16 6677   3.848   4.924   4.018 -0.4531 -0.1870  0.4188
   75CHL1  H16A 6678   3.753   4.899   4.070 -1.7731  0.0249 -1.7594
   75CHL1  H16B 6679   3.929   4.874   4.075 -1.0827 -0.8506  0.7568
   75CHL1   C17 6680   3.880   5.079   4.017  0.2836  0.2278  0.1287
   75CHL1   H17 6681   3.991   5.082   4.021  0.2284  0.9759  1.3757
   75CHL1   C13 6682   3.837   5.125   3.884 -0.6875  0.2867  0.5782
   75CHL1   C18 6683   3.685   5.141   3.889  0.6944  0.5526  0.2667
   75CHL1  H18A 6684   3.656   5.215   3.967  0.2457 -0.3997  1.0242
   75CHL1  H18B 6685   3.654   5.188   3.793  0.2466  4.0155  1.9431
   75CHL1  H18C 6686   3.627   5.049   3.911  0.6517 -0.3414 -3.0388
   75CHL1   C12 6687   3.904   5.257   3.831  0.0319 -0.3102  0.3578
   75CHL1  H12A 6688   3.852   5.341   3.881 -0.5272 -0.9737  0.9111
   75CHL1  H12B 6689   4.006   5.244   3.871 -0.1313 -0.8374  0.6199
   75CHL1   C11 6690   3.898   5.284   3.679  0.1339 -0.0327  0.5508
   75CHL1  H11A 6691   3.793   5.317   3.664 -0.0273 -0.3016  1.0612
   75CHL1  H11B 6692   3.960   5.371   3.646 -1.1732 -0.2179 -2.8166
   75CHL1    C9 6693   3.918   5.149   3.593 -0.3180 -0.2911 -0.3476
   75CHL1    H9 6694   4.024   5.118   3.602  0.4002  1.5880 -1.6487
   75CHL1   C10 6695   3.909   5.166   3.443 -0.1358 -0.5135 -0.6599
   75CHL1   C19 6696   3.777   5.240   3.398  0.3030  0.1863 -0.2030
   75CHL1  H19A 6697   3.761   5.341   3.442 -2.0509 -0.2178  0.0443
   75CHL1  H19B 6698   3.761   5.256   3.290 -0.0913  2.4704  0.1434
   75CHL1  H19C 6699   3.689   5.177   3.425  0.5045 -0.5960 -1.3178
   75CHL1    C1 6700   4.028   5.256   3.394 -0.6498 -0.4462  0.6183
   75CHL1   H1A 6701   4.027   5.361   3.428 -3.2955  0.4314 -1.7683
   75CHL1   H1B 6702   4.122   5.213   3.435 -0.1435 -0.2311 -0.2942
   75CHL1    C2 6703   4.048   5.253   3.238 -0.5995 -0.9704 -0.0964
   75CHL1   H2A 6704   4.136   5.317   3.214 -0.5664 -0.9900 -0.0255
   75CHL1   H2B 6705   3.966   5.314   3.193 -1.4583 -0.5119  1.9855
   75CHL1   C20 6706   3.831   5.138   4.151 -0.0692 -0.0057  0.9018
   75CHL1   H20 6707   3.720   5.136   4.147 -0.1506  1.5772 -3.8412
   75CHL1   C21 6708   3.889   5.286   4.163 -0.6330 -0.3918 -0.3637
   75CHL1  H21A 6709   3.997   5.281   4.137 -0.8705  0.5656 -1.6557
   75CHL1  H21B 6710   3.862   5.323   4.264 -2.8501 -1.8955 -0.3206
   75CHL1  H21C 6711   3.841   5.357   4.091  1.6693  1.3355 -0.2800
   75CHL1   C22 6712   3.886   5.064   4.278 -0.1957 -0.0001 -0.4650
   75CHL1  H22A 6713   3.885   4.953   4.266  0.5203  0.0733 -1.2444
   75CHL1  H22B 6714   3.994   5.087   4.286  0.0883 -0.7000 -1.9895
   75CHL1   C23 6715   3.814   5.106   4.408 -0.5786  0.3367  0.1102
   75CHL1  H23A 6716   3.818   5.215   4.430 -0.7712  0.3118  0.2701
   75CHL1  H23B 6717   3.710   5.073   4.390 -0.0366 -0.1670 -2.6986
   75CHL1   C24 6718   3.877   5.030   4.531  0.3462 -0.0710  0.3352
   75CHL1  H24A 6719   3.878   4.919   4.524 -0.8129 -0.1274  0.7883
   75CHL1  H24B 6720   3.982   5.065   4.529  0.1375  0.5844  0.6211
   75CHL1   C25 6721   3.826   5.067   4.671  0.3433  0.2852  0.1767
   75CHL1   H25 6722   3.884   5.006   4.743  1.2311 -0.5344 -1.1970
   75CHL1   C26 6723   3.859   5.216   4.717 -0.2615  0.0543  0.4037
   75CHL1  H26A 6724   3.837   5.295   4.643 -0.5442 -0.3076  0.1040
   75CHL1  H26B 6725   3.807   5.235   4.813 -2.3395 -1.2661 -0.3990
   75CHL1  H26C 6726   3.968   5.208   4.737  0.1389  4.4322  0.8675
   75CHL1   C27 6727   3.672   5.040   4.701  0.1686 -0.9588  0.0694
   75CHL1  H27A 6728   3.653   5.014   4.807 -0.5052  2.3464  0.8795
   75CHL1  H27B 6729   3.617   5.133   4.672  1.5594 -0.1135  0.0119
   75CHL1  H27C 6730   3.640   4.954   4.639  1.8101 -1.8774  0.4345
   76CHL1    C3 6731   2.307   5.934   3.296  0.0244  0.4507  0.1647
   76CHL1    H3 6732   2.235   6.002   3.346 -2.1448 -1.7506  0.2275
   76CHL1    O3 6733   2.331   5.981   3.168 -0.1986  0.4665  0.0723
   76CHL1   H3' 6734   2.401   5.922   3.140  3.1266  3.3499  1.6373
   76CHL1    C4 6735   2.440   5.933   3.377  0.3146 -0.2675 -0.1866
   76CHL1   H4A 6736   2.517   5.877   3.320  0.6962 -2.1778  2.0358
   76CHL1   H4B 6737   2.465   6.041   3.382  0.1140 -0.2349  0.1292
   76CHL1    C5 6738   2.419   5.878   3.515 -0.5184  0.0863 -0.2824
   76CHL1    C6 6739   2.454   5.946   3.628  0.0858  0.0842  0.7617
   76CHL1    H6 6740   2.493   6.047   3.608  1.3645 -0.7404 -1.1474
   76CHL1    C7 6741   2.451   5.888   3.767  0.9875 -0.7974  0.7324
   76CHL1   H7A 6742   2.545   5.915   3.820  1.0629  0.3104  0.0789
   76CHL1   H7B 6743   2.365   5.936   3.819 -0.8326 -1.1034 -1.8108
   76CHL1    C8 6744   2.434   5.736   3.755  1.4767 -0.4465  0.5025
   76CHL1    H8 6745   2.532   5.696   3.722  1.5243  0.4834 -0.5208
   76CHL1   C14 6746   2.395   5.682   3.888 -0.3134 -0.4598 -0.6200
   76CHL1   H14 6747   2.292   5.718   3.909 -0.8311 -1.8876 -0.6235
   76CHL1   C15 6748   2.478   5.721   4.018 -0.8654 -0.0541 -0.4702
   76CHL1  H15A 6749   2.585   5.725   3.988 -0.4914  1.1389  0.8973
   76CHL1  H15B 6750   2.436   5.812   4.065 -2.1722 -0.9291  0.1170
   76CHL1   C16 6751   2.474   5.593   4.116  0.5007  0.2774  0.0983
   76CHL1  H16A 6752   2.573   5.545   4.130  1.0864  1.8980  1.9377
   76CHL1  H16B 6753   2.442   5.622   4.218 -3.4370 -1.4987 -0.4428
   76CHL1   C17 6754   2.363   5.502   4.054  0.6073 -0.7118 -0.6836
   76CHL1   H17 6755   2.268   5.547   4.091  0.0635 -2.1622 -0.2363
   76CHL1   C13 6756   2.370   5.527   3.903 -1.1156  0.0842  0.0460
   76CHL1   C18 6757   2.488   5.449   3.849 -0.1635 -0.1812 -0.2724
   76CHL1  H18A 6758   2.574   5.462   3.918 -0.6852  1.5778  0.1001
   76CHL1  H18B 6759   2.459   5.343   3.836 -2.4088  0.1803  1.3177
   76CHL1  H18C 6760   2.525   5.477   3.748  0.1987 -0.6169 -0.2688
   76CHL1   C12 6761   2.246   5.511   3.814  0.0676 -0.3300 -0.3741
   76CHL1  H12A 6762   2.206   5.407   3.813  0.3078 -0.4313  0.1999
   76CHL1  H12B 6763   2.169   5.579   3.857  1.3839  1.2440 -0.4000
   76CHL1   C11 6764   2.277   5.545   3.669  0.2894  0.0797 -0.2416
   76CHL1  H11A 6765   2.352   5.468   3.642 -2.6803 -2.8631 -0.7298
   76CHL1  H11B 6766   2.190   5.527   3.602 -0.1055 -1.9972  0.7447
   76CHL1    C9 6767   2.326   5.695   3.662  0.5637  0.2710  0.4914
   76CHL1    H9 6768   2.234   5.752   3.687  0.3712 -0.6658  2.0786
   76CHL1   C10 6769   2.358   5.733   3.514  0.3680 -0.2810 -1.0642
   76CHL1   C19 6770   2.458   5.633   3.458  0.2758  0.2765  1.0824
   76CHL1  H19A 6771   2.537   5.612   3.533 -0.6803 -0.3488  1.9323
   76CHL1  H19B 6772   2.409   5.536   3.436 -1.6752  1.2428  1.0264
   76CHL1  H19C 6773   2.510   5.664   3.365  1.7470 -1.9070  1.0922
   76CHL1    C1 6774   2.226   5.741   3.430 -0.1938 -0.2586 -0.1926
   76CHL1   H1A 6775   2.166   5.648   3.422 -0.7690  0.1057 -0.1768
   76CHL1   H1B 6776   2.156   5.818   3.467 -0.0567 -0.5206  0.6317
   76CHL1    C2 6777   2.255   5.792   3.290  0.9017 -0.4174  1.0037
   76CHL1   H2A 6778   2.157   5.797   3.238  2.1902  0.4565 -1.5248
   76CHL1   H2B 6779   2.316   5.717   3.234  2.3981  0.9031  0.8066
   76CHL1   C20 6780   2.382   5.358   4.103  0.0153  0.6687  0.0366
   76CHL1   H20 6781   2.485   5.332   4.072 -1.3341 -1.8648 -2.9855
   76CHL1   C21 6782   2.284   5.258   4.037  0.1428 -0.3474 -0.0152
   76CHL1  H21A 6783   2.318   5.154   4.059  0.6032 -0.1249  0.3786
   76CHL1  H21B 6784   2.293   5.285   3.930 -3.7603  3.6656  0.3956
   76CHL1  H21C 6785   2.182   5.283   4.074  0.0992 -0.3591 -0.1295
   76CHL1   C22 6786   2.385   5.352   4.257  0.5236 -0.2016  0.0337
   76CHL1  H22A 6787   2.392   5.245   4.286 -0.5742 -0.4256 -0.4780
   76CHL1  H22B 6788   2.471   5.411   4.295 -0.0887  1.1879 -0.6425
   76CHL1   C23 6789   2.264   5.414   4.324  0.1073  0.0804  0.7863
   76CHL1  H23A 6790   2.242   5.518   4.292 -1.5145 -0.7374 -0.9695
   76CHL1  H23B 6791   2.178   5.348   4.298 -2.2414  3.7559 -1.7400
   76CHL1   C24 6792   2.280   5.411   4.475  0.7458 -0.5473  0.0846
   76CHL1  H24A 6793   2.285   5.303   4.501  1.4430 -0.5411  0.0019
   76CHL1  H24B 6794   2.378   5.452   4.507  0.7644 -0.1229 -0.5006
   76CHL1   C25 6795   2.157   5.480   4.547  0.0173  0.9052 -0.0348
   76CHL1   H25 6796   2.133   5.569   4.484 -0.7288 -1.1357 -2.8145
   76CHL1   C26 6797   2.050   5.377   4.541  0.4693  0.8865  0.6392
   76CHL1  H26A 6798   2.079   5.294   4.609  1.6165  2.5920  2.3241
   76CHL1  H26B 6799   1.956   5.418   4.584  0.3542  1.2880  0.0138
   76CHL1  H26C 6800   2.030   5.342   4.438  0.8931 -0.0221  0.8503
   76CHL1   C27 6801   2.199   5.529   4.687  0.5757  0.8745 -0.3458
   76CHL1  H27A 6802   2.108   5.575   4.731  1.5702 -0.3680  3.3918
   76CHL1  H27B 6803   2.239   5.449   4.753 -0.0160  1.9046  1.3340
   76CHL1  H27C 6804   2.281   5.603   4.673  1.1678  0.8661  2.4028
   77SOPE     N 6805   4.752   3.708   7.480  0.3874 -0.5603 -0.3397
   77SOPE   HN1 6806   4.800   3.617   7.467 -0.0879 -0.8832  0.0688
   77SOPE   HN2 6807   4.819   3.757   7.542 -1.6020 -0.3640  1.7983
   77SOPE   HN3 6808   4.674   3.686   7.547  0.2861  0.7352 -0.0130
   77SOPE   C12 6809   4.729   3.781   7.352 -0.1572  0.7649  0.3191
   77SOPE  H12A 6810   4.700   3.884   7.384 -1.2234  0.4898  0.2484
   77SOPE  H12B 6811   4.651   3.724   7.298 -2.1979  2.1150  1.6870
   77SOPE   C11 6812   4.855   3.788   7.259  0.4170  0.0238 -0.7003
   77SOPE  H11A 6813   4.829   3.815   7.155  1.8235  0.0293 -1.0790
   77SOPE  H11B 6814   4.904   3.688   7.255  1.1554  0.3373  0.0917
   77SOPE     P 6815   5.066   3.935   7.236 -0.0652  0.2525 -0.0270
   77SOPE   O13 6816   5.150   3.821   7.195  0.3343  0.5044 -0.1441
   77SOPE   O14 6817   5.148   4.034   7.320  0.3943  0.4230  0.4317
   77SOPE   O12 6818   4.933   3.886   7.314 -0.1742  0.6322 -0.5695
   77SOPE   O11 6819   5.010   4.002   7.110 -0.2761 -0.3722  0.1278
   77SOPE    C1 6820   4.943   4.126   7.112  0.2217  0.0167  0.2103
   77SOPE    HA 6821   5.000   4.209   7.160 -0.1760  0.1374  0.4744
   77SOPE    HB 6822   4.856   4.121   7.181 -0.6617 -1.3412 -0.9536
   77SOPE    C2 6823   4.910   4.176   6.972  0.5293  0.2686  0.1297
   77SOPE    HS 6824   4.994   4.245   6.951 -0.7827  2.3879  1.4404
   77SOPE   O21 6825   4.775   4.226   6.983  0.4825  0.2312  0.4665
   77SOPE   C21 6826   4.735   4.322   7.055 -0.2924  0.1950  0.4474
   77SOPE   O22 6827   4.801   4.387   7.136  0.5251  0.0618  0.1134
   77SOPE   C22 6828   4.591   4.351   7.021  0.1436 -0.6965 -0.4309
   77SOPE   H2R 6829   4.537   4.384   7.113 -2.4870 -0.4813 -1.9376
   77SOPE   H2S 6830   4.553   4.249   6.996 -1.2546 -0.3281  0.0619
   77SOPE    C3 6831   4.916   4.061   6.860 -0.3780  0.1667  0.6049
   77SOPE    HX 6832   4.836   3.986   6.876  0.0706 -0.0042  2.2513
   77SOPE    HY 6833   5.010   4.002   6.851  0.0648  1.1138 -1.8750
   77SOPE   O31 6834   4.896   4.122   6.737  0.6345  0.5606  0.2970
   77SOPE   C31 6835   5.009   4.179   6.680  0.5405  0.0544 -0.7917
   77SOPE   O32 6836   5.119   4.157   6.723  0.0303 -0.3473  0.3845
   77SOPE   C32 6837   4.971   4.278   6.567 -0.3744 -0.2507 -0.4358
   77SOPE   H2X 6838   4.963   4.377   6.616 -0.3871 -0.1421 -0.6558
   77SOPE   H2Y 6839   4.878   4.243   6.517 -0.5895 -1.0426  0.5079
   77SOPE   C23 6840   4.570   4.452   6.905 -0.3376  0.2043  0.0097
   77SOPE   H3R 6841   4.626   4.541   6.942 -0.9020  0.1304  1.1080
   77SOPE   H3S 6842   4.463   4.481   6.918 -0.8587 -2.1599  1.7279
   77SOPE   C24 6843   4.604   4.410   6.764  0.2714  0.3731  0.4347
   77SOPE   H4R 6844   4.570   4.488   6.692  1.8246 -0.6484 -1.5252
   77SOPE   H4S 6845   4.711   4.393   6.736  1.1526  2.1815  2.4431
   77SOPE   C25 6846   4.534   4.276   6.722  0.7887 -0.5205 -0.4298
   77SOPE   H5R 6847   4.566   4.195   6.791  1.5064  0.7711  0.8108
   77SOPE   H5S 6848   4.424   4.277   6.739  1.2505 -3.1774  4.9425
   77SOPE   C26 6849   4.563   4.235   6.578  1.2072  0.6305 -0.3056
   77SOPE   H6R 6850   4.667   4.200   6.564  0.9463 -0.8700  1.1404
   77SOPE   H6S 6851   4.496   4.150   6.550  0.8581  1.1727 -1.1734
   77SOPE   C27 6852   4.532   4.332   6.468 -0.0517 -0.1395 -0.5584
   77SOPE   H7R 6853   4.422   4.340   6.471 -0.0236  0.1345 -0.2463
   77SOPE   H7S 6854   4.572   4.434   6.487  0.5250 -0.3145 -0.7898
   77SOPE   C28 6855   4.567   4.276   6.325  0.4272  0.0287 -0.4413
   77SOPE   H8R 6856   4.677   4.269   6.315  0.5269  0.1976  0.4848
   77SOPE   H8S 6857   4.542   4.168   6.319  0.6565 -0.0524  0.0365
   77SOPE   C29 6858   4.513   4.364   6.214  0.3944  0.3974 -0.3198
   77SOPE   H91 6859   4.407   4.380   6.236  0.5371  0.0861  0.6670
   77SOPE  C210 6860   4.576   4.399   6.098  0.2832  1.0666 -0.4115
   77SOPE  H101 6861   4.529   4.473   6.031 -1.9311 -1.5847 -1.9941
   77SOPE  C211 6862   4.717   4.355   6.058 -0.1912  0.0877  0.2675
   77SOPE  H11R 6863   4.771   4.300   6.138  3.4915 -0.2072 -2.1827
   77SOPE  H11S 6864   4.783   4.442   6.038 -1.3842  1.2663  1.2493
   77SOPE  C212 6865   4.733   4.267   5.934 -0.7277  0.2770  0.9368
   77SOPE  H12R 6866   4.688   4.338   5.862 -1.1769 -0.5863  0.3422
   77SOPE  H12S 6867   4.674   4.173   5.933  0.0649 -0.2165  0.0470
   77SOPE  C213 6868   4.883   4.239   5.901 -0.1575 -0.7449  0.5814
   77SOPE  H13R 6869   4.924   4.173   5.980  1.2076 -1.9849 -1.0776
   77SOPE  H13S 6870   4.942   4.332   5.908  0.2569 -0.9084 -0.5318
   77SOPE  C214 6871   4.904   4.188   5.755  0.0712  0.6983 -0.2176
   77SOPE  H14R 6872   4.844   4.094   5.756  0.2733  0.5553 -0.9855
   77SOPE  H14S 6873   5.009   4.152   5.760  0.2381  1.3450  2.0925
   77SOPE  C215 6874   4.882   4.292   5.647  0.8138  0.1953 -0.5941
   77SOPE  H15R 6875   4.909   4.391   5.689  0.3349 -0.2094  0.7478
   77SOPE  H15S 6876   4.772   4.288   5.632  0.4077  0.2422  1.9101
   77SOPE  C216 6877   4.954   4.272   5.510 -0.0649 -0.1504  0.8510
   77SOPE  H16R 6878   4.959   4.166   5.478  0.3637  0.9184 -3.2388
   77SOPE  H16S 6879   5.060   4.299   5.531  0.4605 -0.3955 -1.2560
   77SOPE  C217 6880   4.901   4.364   5.402  0.1544  0.0115  0.0514
   77SOPE  H17R 6881   4.796   4.343   5.372  0.4725 -2.5651  0.5551
   77SOPE  H17S 6882   4.964   4.359   5.310  0.5123 -1.1461  0.3461
   77SOPE  C218 6883   4.904   4.515   5.435  0.4271  0.5559  0.1520
   77SOPE  H18R 6884   4.861   4.534   5.536  1.7603 -0.6227  0.9801
   77SOPE  H18S 6885   4.854   4.578   5.359  0.7876 -0.0988 -0.6344
   77SOPE  H18T 6886   5.010   4.545   5.451  0.1414  0.4878  2.6799
   77SOPE   C33 6887   5.081   4.291   6.455  0.3144  0.3558 -0.1991
   77SOPE   H3X 6888   5.180   4.312   6.501  0.9532 -0.3354 -1.2128
   77SOPE   H3Y 6889   5.052   4.377   6.391  1.2175  1.3363  0.6763
   77SOPE   C34 6890   5.080   4.174   6.354  0.4756 -0.2544 -0.3001
   77SOPE   H4X 6891   4.984   4.162   6.299  0.1964  2.4858 -0.5257
   77SOPE   H4Y 6892   5.103   4.087   6.419 -0.8011 -1.7368 -1.7350
   77SOPE   C35 6893   5.192   4.191   6.252 -0.3442 -0.4285  0.6809
   77SOPE   H5X 6894   5.274   4.245   6.304 -0.3967  0.2308  0.0960
   77SOPE   H5Y 6895   5.156   4.265   6.177  2.2262  1.1483  0.9013
   77SOPE   C36 6896   5.229   4.062   6.183  0.0973  0.1462 -0.3497
   77SOPE   H6X 6897   5.145   3.991   6.169 -0.2475  0.1695  1.4011
   77SOPE   H6Y 6898   5.300   4.009   6.251  0.4135 -0.9693 -1.5223
   77SOPE   C37 6899   5.297   4.081   6.043 -0.1866  0.5050  0.3230
   77SOPE   H7X 6900   5.370   4.165   6.050  1.0846 -0.4128 -1.1579
   77SOPE   H7Y 6901   5.223   4.120   5.970  1.2785  2.2874 -0.2751
   77SOPE   C38 6902   5.359   3.946   5.994 -0.5746  0.4944  0.1886
   77SOPE   H8X 6903   5.278   3.870   6.005  0.9111 -1.8370 -3.2268
   77SOPE   H8Y 6904   5.436   3.911   6.065 -0.8364  0.0673  0.2668
   77SOPE   C39 6905   5.413   3.945   5.852 -0.6479  0.2590 -0.2963
   77SOPE   H9X 6906   5.455   3.843   5.837 -1.1030  0.1520 -0.8778
   77SOPE   H9Y 6907   5.497   4.017   5.843 -0.4756  0.3659  1.6891
   77SOPE  C310 6908   5.308   3.956   5.741  0.1082 -0.4039 -0.2409
   77SOPE  H10X 6909   5.268   4.059   5.753  1.7349  0.2305  0.0086
   77SOPE  H10Y 6910   5.227   3.887   5.771  2.4759 -2.1237  2.7499
   77SOPE  C311 6911   5.365   3.956   5.606 -0.3556  0.2654  0.6445
   77SOPE  H11X 6912   5.421   3.863   5.580 -1.5065 -0.0316 -0.9436
   77SOPE  H11Y 6913   5.439   4.039   5.604 -0.0252 -0.0342  0.0087
   77SOPE  C312 6914   5.249   3.978   5.499 -0.7939 -0.2561  0.0165
   77SOPE  H12X 6915   5.171   4.050   5.531 -0.9978  0.1241 -1.2720
   77SOPE  H12Y 6916   5.208   3.876   5.485 -1.0332 -0.1215 -0.2674
   77SOPE  C313 6917   5.322   4.020   5.374  0.3246 -0.1519 -0.3520
   77SOPE  H13X 6918   5.403   3.955   5.335 -0.3506 -0.3442 -1.4813
   77SOPE  H13Y 6919   5.363   4.123   5.373  0.6334 -0.2343 -2.5371
   77SOPE  C314 6920   5.213   4.007   5.262  1.0046 -0.0804  0.3332
   77SOPE  H14X 6921   5.134   4.078   5.292  0.5592 -0.4565  0.0652
   77SOPE  H14Y 6922   5.171   3.904   5.257  1.3988 -0.2848  0.9947
   77SOPE  C315 6923   5.254   4.041   5.117 -0.1584  0.4854  0.2710
   77SOPE  H15X 6924   5.309   3.954   5.074  1.9661  2.0167 -0.2520
   77SOPE  H15Y 6925   5.330   4.121   5.120  0.2238  0.1055  1.2519
   77SOPE  C316 6926   5.138   4.080   5.017  0.1087 -0.6584 -0.4516
   77SOPE  H16X 6927   5.066   4.148   5.068  0.1496 -0.3839 -0.7602
   77SOPE  H16Y 6928   5.080   3.988   4.993 -1.4148 -0.2247  1.3036
   77SOPE  C317 6929   5.187   4.145   4.890 -0.1799 -0.4596  0.4978
   77SOPE  H17X 6930   5.250   4.083   4.824  0.1437  0.5810 -0.1859
   77SOPE  H17Y 6931   5.246   4.236   4.912  0.9293 -0.9226 -0.4788
   77SOPE  C318 6932   5.073   4.199   4.805  0.0578 -0.3458 -0.4357
   77SOPE  H18X 6933   4.994   4.122   4.801 -1.0991  0.7285  0.8174
   77SOPE  H18Y 6934   5.108   4.232   4.705 -1.3432  5.4949  0.6514
   77SOPE  H18Z 6935   5.021   4.286   4.850  0.9374  0.1857 -0.4243
   78SOPE     N 6936   4.132   4.506   7.616 -0.4986 -0.9051  0.4970
   78SOPE   HN1 6937   4.146   4.480   7.516  0.4980 -2.1214  0.9265
   78SOPE   HN2 6938   4.057   4.577   7.623 -1.9550 -2.0212 -2.1012
   78SOPE   HN3 6939   4.221   4.549   7.648 -1.3709  0.6021  0.9907
   78SOPE   C12 6940   4.099   4.387   7.694 -0.5818  0.0618  0.4620
   78SOPE  H12A 6941   4.120   4.397   7.803  1.7041 -2.3700  0.3492
   78SOPE  H12B 6942   4.162   4.303   7.658 -1.6654 -0.4899 -0.2067
   78SOPE   C11 6943   3.947   4.355   7.683  0.6489 -0.5584 -0.6309
   78SOPE  H11A 6944   3.930   4.254   7.728 -0.3576  0.2792  0.9580
   78SOPE  H11B 6945   3.919   4.351   7.576 -0.0561 -2.3289 -0.4192
   78SOPE     P 6946   3.709   4.442   7.755  0.5001 -0.2153  0.0339
   78SOPE   O13 6947   3.641   4.555   7.826 -0.9204 -0.4843  0.4709
   78SOPE   O14 6948   3.659   4.311   7.808  0.3121  0.2762 -0.0367
   78SOPE   O12 6949   3.871   4.448   7.757  0.1215  0.7322  0.8892
   78SOPE   O11 6950   3.663   4.456   7.610  0.3334 -0.6303  0.3400
   78SOPE    C1 6951   3.725   4.551   7.522 -0.4564 -0.0138 -0.3994
   78SOPE    HA 6952   3.830   4.521   7.501 -0.2759  0.0819  0.3383
   78SOPE    HB 6953   3.725   4.647   7.577 -1.3260 -1.0243  1.4390
   78SOPE    C2 6954   3.650   4.560   7.389  0.8334  0.4346  0.3516
   78SOPE    HS 6955   3.543   4.554   7.416  0.5723  0.2862 -0.6567
   78SOPE   O21 6956   3.695   4.448   7.311  0.1405  0.8197  0.2275
   78SOPE   C21 6957   3.592   4.401   7.240 -0.3163  0.1614  0.1118
   78SOPE   O22 6958   3.477   4.438   7.247  0.0911 -0.0475 -0.0289
   78SOPE   C22 6959   3.660   4.324   7.124  0.2851  0.4119  0.1179
   78SOPE   H2R 6960   3.715   4.239   7.169 -0.2537  1.0413  2.0680
   78SOPE   H2S 6961   3.726   4.386   7.059 -1.3150 -0.6348 -2.6603
   78SOPE    C3 6962   3.687   4.690   7.324  0.4486 -0.1343 -0.4928
   78SOPE    HX 6963   3.794   4.667   7.307 -0.1165 -2.1573 -1.7053
   78SOPE    HY 6964   3.680   4.767   7.403 -1.0262 -2.0113  1.3206
   78SOPE   O31 6965   3.619   4.712   7.202 -0.5481  0.0908 -0.0019
   78SOPE   C31 6966   3.497   4.759   7.210  0.0662  0.2678 -0.5286
   78SOPE   O32 6967   3.440   4.775   7.319  0.0293 -0.9955  0.1223
   78SOPE   C32 6968   3.441   4.800   7.073 -0.0530 -0.3401 -0.2196
   78SOPE   H2X 6969   3.335   4.828   7.090  0.0255 -0.8851  1.3237
   78SOPE   H2Y 6970   3.434   4.705   7.015 -3.1958  0.0896 -0.6942
   78SOPE   C23 6971   3.565   4.263   7.027 -0.0029 -0.3625 -0.2982
   78SOPE   H3R 6972   3.496   4.336   6.980 -0.5859 -1.8045 -1.7435
   78SOPE   H3S 6973   3.494   4.189   7.069 -2.3313  1.1120 -1.4621
   78SOPE   C24 6974   3.632   4.200   6.899  0.9147  0.5223 -0.1477
   78SOPE   H4R 6975   3.686   4.282   6.847  0.2971  0.3097 -1.1657
   78SOPE   H4S 6976   3.717   4.133   6.926  0.0501 -0.4992  0.1000
   78SOPE   C25 6977   3.537   4.133   6.806  0.3839 -0.0016  0.8026
   78SOPE   H5R 6978   3.496   4.040   6.851 -1.8080  0.1710 -0.6467
   78SOPE   H5S 6979   3.444   4.193   6.790 -0.4574 -1.6054 -0.7005
   78SOPE   C26 6980   3.591   4.105   6.664  0.2150  0.0028 -0.3642
   78SOPE   H6R 6981   3.627   4.202   6.624  3.6878 -0.4727  1.2194
   78SOPE   H6S 6982   3.682   4.043   6.681  0.7514  1.2769  1.9289
   78SOPE   C27 6983   3.514   4.021   6.565  0.2990 -0.0543  0.1008
   78SOPE   H7R 6984   3.488   3.919   6.601 -0.6235 -0.3434 -1.2853
   78SOPE   H7S 6985   3.416   4.073   6.552  0.1943 -0.5392 -1.2481
   78SOPE   C28 6986   3.591   4.009   6.429 -0.5132  0.0422  0.1479
   78SOPE   H8R 6987   3.524   3.960   6.355 -1.5080  1.0378  0.3704
   78SOPE   H8S 6988   3.604   4.114   6.397  1.3763 -0.6697 -1.5765
   78SOPE   C29 6989   3.731   3.949   6.426  0.4618  0.4278  0.0840
   78SOPE   H91 6990   3.771   3.952   6.529 -0.4048  3.3008  0.4422
   78SOPE  C210 6991   3.803   3.918   6.322  0.1480 -0.3616  0.1201
   78SOPE  H101 6992   3.905   3.878   6.334 -0.5508 -2.1340  0.4175
   78SOPE  C211 6993   3.768   3.918   6.173 -0.5396  0.2581 -0.5650
   78SOPE  H11R 6994   3.665   3.958   6.162 -0.9695  0.2013  2.3134
   78SOPE  H11S 6995   3.751   3.810   6.150 -1.3142  0.1339  0.5209
   78SOPE  C212 6996   3.876   3.984   6.086  0.4706 -0.6622  0.1723
   78SOPE  H12R 6997   3.977   3.962   6.127  0.6794 -0.6380 -0.3261
   78SOPE  H12S 6998   3.866   4.092   6.113 -1.3156  0.0964 -2.9721
   78SOPE  C213 6999   3.857   3.953   5.936 -0.2879 -0.1890 -0.1347
   78SOPE  H13R 7000   3.923   4.027   5.887  0.9130 -0.9707  0.2667
   78SOPE  H13S 7001   3.755   3.962   5.893 -0.6557  1.6631  1.0095
   78SOPE  C214 7002   3.913   3.810   5.910  0.0963  0.1465  0.3286
   78SOPE  H14R 7003   3.842   3.734   5.950 -1.3540  1.3069  0.0285
   78SOPE  H14S 7004   4.006   3.810   5.972 -1.5086  1.6655  2.9145
   78SOPE  C215 7005   3.928   3.786   5.759 -0.2498  0.0320  0.7060
   78SOPE  H15R 7006   3.827   3.784   5.714  0.1915 -3.1432 -0.3765
   78SOPE  H15S 7007   3.982   3.692   5.735 -1.1829 -0.0527 -1.2385
   78SOPE  C216 7008   4.015   3.892   5.683 -0.5663  0.1934 -0.2332
   78SOPE  H16R 7009   4.112   3.911   5.735 -0.0223  0.1039 -1.1988
   78SOPE  H16S 7010   3.955   3.985   5.678 -0.0022  0.6113  0.5167
   78SOPE  C217 7011   4.048   3.855   5.543  0.3259  0.2948  0.0074
   78SOPE  H17R 7012   4.106   3.762   5.523  1.7682  1.6078 -2.3198
   78SOPE  H17S 7013   4.106   3.932   5.490  0.0522  1.1473  0.9105
   78SOPE  C218 7014   3.914   3.843   5.458  0.2435  0.1748  0.2251
   78SOPE  H18R 7015   3.844   3.771   5.505 -0.1729  0.0628 -0.5490
   78SOPE  H18S 7016   3.931   3.805   5.355  0.0156  0.2980  0.1411
   78SOPE  H18T 7017   3.872   3.944   5.436  0.8720  0.2680 -0.5737
   78SOPE   C33 7018   3.522   4.922   7.013  0.1619  0.0736 -0.1728
   78SOPE   H3X 7019   3.629   4.903   7.035  0.4208  0.6896 -0.8473
   78SOPE   H3Y 7020   3.490   5.015   7.064  0.3140  1.0048 -1.6996
   78SOPE   C34 7021   3.503   4.920   6.861  0.2065  0.1903  0.3404
   78SOPE   H4X 7022   3.396   4.927   6.831  0.2943 -2.6011 -0.8781
   78SOPE   H4Y 7023   3.542   4.824   6.822 -1.9241 -0.7554  0.3619
   78SOPE   C35 7024   3.594   5.015   6.784  0.7512  0.4193  0.0275
   78SOPE   H5X 7025   3.691   4.964   6.766  0.1053 -0.6516 -0.4839
   78SOPE   H5Y 7026   3.607   5.115   6.831 -0.9353  1.3331 -1.3095
   78SOPE   C36 7027   3.533   5.066   6.648 -1.0051 -0.3406 -0.3487
   78SOPE   H6X 7028   3.593   5.146   6.600  0.1459 -0.2701  1.1231
   78SOPE   H6Y 7029   3.437   5.120   6.663 -2.2523 -1.9285 -2.1404
   78SOPE   C37 7030   3.515   4.947   6.557  0.1186 -0.4226 -0.3767
   78SOPE   H7X 7031   3.430   4.885   6.594  0.5367 -0.5933  0.3172
   78SOPE   H7Y 7032   3.601   4.877   6.551  0.5475  0.1773 -1.6328
   78SOPE   C38 7033   3.489   4.995   6.410 -0.0117 -0.1254 -0.7381
   78SOPE   H8X 7034   3.588   5.033   6.377  1.1647 -1.1382  1.3719
   78SOPE   H8Y 7035   3.425   5.086   6.413 -0.2602 -0.3139 -0.1859
   78SOPE   C39 7036   3.434   4.885   6.322  0.0860  0.1447 -0.1015
   78SOPE   H9X 7037   3.336   4.851   6.363 -0.4692  1.8616  0.0471
   78SOPE   H9Y 7038   3.509   4.803   6.327 -0.6958 -0.5722  0.0673
   78SOPE  C310 7039   3.416   4.928   6.171 -0.1857 -0.2557 -0.1693
   78SOPE  H10X 7040   3.498   4.998   6.145 -1.3598  0.3407 -2.4737
   78SOPE  H10Y 7041   3.328   4.995   6.173  0.2472  0.4358 -2.1603
   78SOPE  C311 7042   3.391   4.825   6.070 -0.1902 -0.3211 -0.1646
   78SOPE  H11X 7043   3.305   4.772   6.117  0.0811  1.0822  2.0357
   78SOPE  H11Y 7044   3.479   4.757   6.067  0.6339  0.7441 -2.4499
   78SOPE  C312 7045   3.383   4.883   5.921 -0.0328  0.3795 -0.5845
   78SOPE  H12X 7046   3.464   4.959   5.911  0.5304  0.1056  1.4511
   78SOPE  H12Y 7047   3.288   4.939   5.911 -0.4725 -0.0566  0.8994
   78SOPE  C313 7048   3.358   4.772   5.817 -0.2966 -0.2248  0.4243
   78SOPE  H13X 7049   3.262   4.722   5.844 -2.1308  1.0473 -3.1352
   78SOPE  H13Y 7050   3.445   4.703   5.815 -0.6084 -0.5999 -1.3582
   78SOPE  C314 7051   3.335   4.824   5.676  0.0493  0.0815  0.4263
   78SOPE  H14X 7052   3.255   4.901   5.678  0.5584  0.6091  1.0064
   78SOPE  H14Y 7053   3.332   4.746   5.597  4.0349 -1.3117  1.4131
   78SOPE  C315 7054   3.460   4.907   5.627 -0.3596  0.5698  0.2381
   78SOPE  H15X 7055   3.554   4.855   5.656  0.5216  2.5039  0.9866
   78SOPE  H15Y 7056   3.457   5.006   5.677 -0.8891  1.1998 -0.9883
   78SOPE  C316 7057   3.462   4.936   5.481  0.0966  0.5446  0.6911
   78SOPE  H16X 7058   3.473   4.844   5.419 -0.9367  0.0281  1.2362
   78SOPE  H16Y 7059   3.546   5.006   5.462  0.3644  0.3438  1.1027
   78SOPE  C317 7060   3.339   5.005   5.429  0.6840 -0.2973  0.4326
   78SOPE  H17X 7061   3.374   5.103   5.391  1.7187 -1.3980 -1.5832
   78SOPE  H17Y 7062   3.273   5.026   5.516  1.6609  1.7855  0.7344
   78SOPE  C318 7063   3.273   4.933   5.309 -0.2833  0.3301  0.7583
   78SOPE  H18X 7064   3.335   4.917   5.218  1.1370  0.8465  1.5977
   78SOPE  H18Y 7065   3.190   4.994   5.268  1.3188  2.2280  0.1819
   78SOPE  H18Z 7066   3.229   4.835   5.337 -0.4377  0.2621  0.2854
   79SOPE     N 7067   5.177   2.796   7.332 -0.1932 -0.1857 -0.1559
   79SOPE   HN1 7068   5.098   2.748   7.283 -0.1503 -0.0839 -0.3261
   79SOPE   HN2 7069   5.140   2.893   7.344  0.5967 -0.0160  0.9470
   79SOPE   HN3 7070   5.261   2.800   7.271 -0.6920  0.5973 -0.8200
   79SOPE   C12 7071   5.212   2.745   7.465 -0.1582 -0.1642 -0.3645
   79SOPE  H12A 7072   5.121   2.747   7.528 -0.4666 -1.7618 -0.7157
   79SOPE  H12B 7073   5.285   2.811   7.516  1.4307 -1.7426 -0.4835
   79SOPE   C11 7074   5.260   2.603   7.449 -1.0143  0.1426  0.6736
   79SOPE  H11A 7075   5.280   2.548   7.544  0.1477  1.3437  1.1560
   79SOPE  H11B 7076   5.359   2.602   7.398 -1.5639  0.8561 -0.4216
   79SOPE     P 7077   5.177   2.375   7.361  0.3052 -0.1306  0.0857
   79SOPE   O13 7078   5.041   2.338   7.312  0.0309 -0.0731 -0.2681
   79SOPE   O14 7079   5.214   2.321   7.496  0.3226  0.2675  0.3208
   79SOPE   O12 7080   5.170   2.532   7.367 -0.0802  0.2475  0.2543
   79SOPE   O11 7081   5.275   2.331   7.260  0.0900  0.2895 -0.1360
   79SOPE    C1 7082   5.346   2.401   7.159  0.0173 -0.2683 -0.2440
   79SOPE    HA 7083   5.435   2.341   7.132  0.3771  0.2929 -0.3143
   79SOPE    HB 7084   5.381   2.502   7.190  0.1239 -0.1402 -0.7683
   79SOPE    C2 7085   5.266   2.436   7.032  0.0802  0.0693 -0.3446
   79SOPE    HS 7086   5.169   2.475   7.070  1.7796  1.9368  2.4402
   79SOPE   O21 7087   5.252   2.316   6.945 -0.2577 -0.1311 -0.8351
   79SOPE   C21 7088   5.136   2.314   6.877 -0.4586  0.4739 -0.4589
   79SOPE   O22 7089   5.048   2.396   6.888  0.2758  0.2347  1.0511
   79SOPE   C22 7090   5.133   2.187   6.791 -0.8203 -0.4539 -0.4090
   79SOPE   H2R 7091   5.120   2.109   6.869 -2.1297 -0.4677 -0.6047
   79SOPE   H2S 7092   5.236   2.180   6.751  0.0811  1.0575  1.4864
   79SOPE    C3 7093   5.332   2.559   6.968 -0.0497 -0.0870  0.0862
   79SOPE    HX 7094   5.438   2.537   6.941  0.4546  1.6232  0.5661
   79SOPE    HY 7095   5.345   2.633   7.050  3.3229 -1.3237  0.8596
   79SOPE   O31 7096   5.266   2.609   6.843 -0.8069 -0.4991 -0.7998
   79SOPE   C31 7097   5.161   2.684   6.871  0.0983  0.1780 -0.5842
   79SOPE   O32 7098   5.099   2.693   6.978 -0.4181  0.0615  0.3504
   79SOPE   C32 7099   5.103   2.742   6.743  0.1183  0.7108 -0.0168
   79SOPE   H2X 7100   5.180   2.711   6.669 -0.5987 -1.0042 -0.0983
   79SOPE   H2Y 7101   5.100   2.852   6.753  1.1666  0.7195  0.2622
   79SOPE   C23 7102   5.013   2.175   6.695 -0.2904 -0.1745 -0.1544
   79SOPE   H3R 7103   4.924   2.200   6.757  1.2518  0.7691  1.7723
   79SOPE   H3S 7104   5.013   2.069   6.662  1.1723  0.1628 -1.3445
   79SOPE   C24 7105   5.028   2.260   6.568  0.7101 -0.0237  0.8160
   79SOPE   H4R 7106   4.940   2.245   6.502 -0.5824 -0.6263  2.6017
   79SOPE   H4S 7107   5.026   2.367   6.597 -1.0855 -0.1279  1.2015
   79SOPE   C25 7108   5.153   2.211   6.486 -0.5317 -0.0780  0.1126
   79SOPE   H5R 7109   5.230   2.289   6.503 -0.9567  0.6938 -1.3417
   79SOPE   H5S 7110   5.183   2.111   6.524 -0.7378 -0.0732  0.2950
   79SOPE   C26 7111   5.128   2.194   6.333 -0.3438 -0.5119 -0.2560
   79SOPE   H6R 7112   5.195   2.121   6.282 -0.3163  0.9650 -2.4528
   79SOPE   H6S 7113   5.025   2.152   6.323 -0.2603 -1.2096  1.5157
   79SOPE   C27 7114   5.133   2.332   6.266 -0.6315 -0.0573  0.5883
   79SOPE   H7R 7115   5.083   2.406   6.332 -1.3293  0.1365 -0.1361
   79SOPE   H7S 7116   5.237   2.369   6.257  0.2845 -2.6134 -0.2937
   79SOPE   C28 7117   5.086   2.338   6.116  0.0184  0.2192 -0.3044
   79SOPE   H8R 7118   4.977   2.350   6.131  0.5296  2.6830  2.1551
   79SOPE   H8S 7119   5.129   2.432   6.077 -1.3174  1.2464  0.5960
   79SOPE   C29 7120   5.106   2.221   6.022 -0.0256  0.6345 -0.6809
   79SOPE   H91 7121   5.104   2.122   6.071 -0.3619  0.3116 -1.3331
   79SOPE  C210 7122   5.114   2.223   5.886 -0.0312 -0.7809 -0.3637
   79SOPE  H101 7123   5.114   2.129   5.829 -1.3670 -0.2187 -1.3302
   79SOPE  C211 7124   5.098   2.343   5.793  0.6184  0.4561  0.1528
   79SOPE  H11R 7125   5.198   2.391   5.788  0.2038  1.2431 -1.7880
   79SOPE  H11S 7126   5.028   2.413   5.844 -2.8041 -1.8072 -1.0760
   79SOPE  C212 7127   5.054   2.316   5.651 -0.3532  0.5612  0.7861
   79SOPE  H12R 7128   5.020   2.411   5.604 -1.3432 -0.6663 -1.0940
   79SOPE  H12S 7129   4.966   2.250   5.663 -1.3819  1.7697  0.2143
   79SOPE  C213 7130   5.159   2.236   5.584 -0.3824 -0.3386  0.1605
   79SOPE  H13R 7131   5.194   2.135   5.615 -0.9031 -0.9292 -1.0816
   79SOPE  H13S 7132   5.237   2.313   5.597 -0.6514  0.1165 -0.8184
   79SOPE  C214 7133   5.138   2.225   5.433  0.4032  0.0282  0.4046
   79SOPE  H14R 7134   5.124   2.326   5.389  1.6488  0.4610  0.9655
   79SOPE  H14S 7135   5.034   2.187   5.421  1.2715 -1.8748 -1.8068
   79SOPE  C215 7136   5.225   2.135   5.348 -1.1571  0.9710  1.0256
   79SOPE  H15R 7137   5.217   2.032   5.387  0.7984  0.9288  1.4211
   79SOPE  H15S 7138   5.327   2.176   5.367 -0.6358 -0.0860  0.5820
   79SOPE  C216 7139   5.192   2.126   5.196  0.2082  0.0786 -0.1123
   79SOPE  H16R 7140   5.272   2.062   5.152 -0.3047  1.1878 -2.8318
   79SOPE  H16S 7141   5.203   2.230   5.158 -0.8075  1.3657  2.7866
   79SOPE  C217 7142   5.058   2.064   5.154  0.2163  0.2071 -0.5991
   79SOPE  H17R 7143   4.989   2.135   5.204  0.6146  0.2729 -0.1422
   79SOPE  H17S 7144   5.059   1.964   5.201  0.3302 -1.1308 -3.2275
   79SOPE  C218 7145   5.054   2.039   5.002  0.2167  0.6563 -0.5663
   79SOPE  H18R 7146   5.091   2.131   4.951 -2.9604  1.6914 -1.2656
   79SOPE  H18S 7147   4.949   2.038   4.965  0.5337 -1.2031 -1.4885
   79SOPE  H18T 7148   5.106   1.945   4.973  2.4188  1.7078 -0.2687
   79SOPE   C33 7149   4.974   2.665   6.701  0.1620 -0.4228  0.4675
   79SOPE   H3X 7150   4.908   2.666   6.790 -2.0249  2.2248 -1.0207
   79SOPE   H3Y 7151   4.999   2.557   6.691 -2.3922 -1.0793  0.5933
   79SOPE   C34 7152   4.899   2.737   6.587  0.4623  0.3971 -0.0055
   79SOPE   H4X 7153   4.915   2.847   6.591  1.6769  0.3571 -1.9461
   79SOPE   H4Y 7154   4.792   2.710   6.599  0.4943  0.5935  0.7250
   79SOPE   C35 7155   4.941   2.679   6.452  0.0259  0.4765 -0.5321
   79SOPE   H5X 7156   4.915   2.573   6.432  2.1430  0.2879 -2.8350
   79SOPE   H5Y 7157   5.051   2.669   6.464 -0.1473 -0.9639  0.0290
   79SOPE   C36 7158   4.913   2.764   6.324  0.6143  0.0576 -0.7188
   79SOPE   H6X 7159   4.944   2.870   6.334 -2.1770  0.8790  0.2418
   79SOPE   H6Y 7160   4.802   2.764   6.315  0.2006 -2.3243  2.6017
   79SOPE   C37 7161   4.988   2.713   6.203  0.0877 -0.0126  0.3561
   79SOPE   H7X 7162   4.966   2.607   6.180 -0.3384  0.0241  0.5820
   79SOPE   H7Y 7163   5.093   2.734   6.233 -1.0175  1.9508  3.3527
   79SOPE   C38 7164   4.966   2.795   6.071  0.2135 -0.0231 -0.4606
   79SOPE   H8X 7165   5.018   2.890   6.095 -0.4107 -0.2994  2.2867
   79SOPE   H8Y 7166   4.857   2.809   6.057  0.2842  0.9289 -0.1158
   79SOPE   C39 7167   5.010   2.720   5.945  0.1868 -0.3754  0.4594
   79SOPE   H9X 7168   4.946   2.632   5.925  0.4816 -1.2192  2.9210
   79SOPE   H9Y 7169   5.119   2.699   5.958  0.8151  2.4277  0.5617
   79SOPE  C310 7170   4.999   2.814   5.825  0.1719 -0.7194 -0.0122
   79SOPE  H10X 7171   5.076   2.891   5.847 -1.8892  1.0294  1.5020
   79SOPE  H10Y 7172   4.897   2.858   5.830  0.0270 -0.8622 -1.3393
   79SOPE  C311 7173   5.028   2.732   5.695  0.2467 -0.1336  0.0023
   79SOPE  H11X 7174   4.944   2.662   5.679  0.5222 -0.7414  1.1214
   79SOPE  H11Y 7175   5.129   2.687   5.702 -0.5473 -1.9678  0.0955
   79SOPE  C312 7176   5.020   2.817   5.572 -0.4276  0.3391  0.4179
   79SOPE  H12X 7177   5.095   2.898   5.590  0.7839 -0.6142 -0.1577
   79SOPE  H12Y 7178   4.918   2.852   5.547 -0.0603  0.2156 -1.4496
   79SOPE  C313 7179   5.067   2.739   5.452 -0.0677 -0.1073  0.5148
   79SOPE  H13X 7180   4.999   2.656   5.424 -1.7761  1.7875 -1.2201
   79SOPE  H13Y 7181   5.169   2.701   5.478 -0.1587 -0.3557  0.5142
   79SOPE  C314 7182   5.093   2.838   5.332 -0.0227  0.3225 -0.6048
   79SOPE  H14X 7183   5.195   2.881   5.335  0.5250 -0.9405  2.4761
   79SOPE  H14Y 7184   5.015   2.917   5.336  1.2776  1.6346 -0.5978
   79SOPE  C315 7185   5.083   2.750   5.197  0.0969  0.0310 -0.4500
   79SOPE  H15X 7186   5.136   2.654   5.214 -1.4401 -0.9666 -1.1432
   79SOPE  H15Y 7187   5.142   2.806   5.121  1.6796 -3.2511 -1.8279
   79SOPE  C316 7188   4.942   2.727   5.133 -0.0334 -0.1982  0.0817
   79SOPE  H16X 7189   4.909   2.830   5.108  1.0885  0.1675  0.0645
   79SOPE  H16Y 7190   4.866   2.680   5.199 -1.0650  1.3281  0.0380
   79SOPE  C317 7191   4.958   2.641   5.006  0.4717  0.1918 -0.0676
   79SOPE  H17X 7192   5.030   2.563   5.038  1.8953  2.1697  1.8860
   79SOPE  H17Y 7193   5.012   2.703   4.931  0.4044 -1.5117 -1.5820
   79SOPE  C318 7194   4.828   2.574   4.952 -0.2152 -0.3902  0.0509
   79SOPE  H18X 7195   4.772   2.658   4.907  2.3896  2.4965  1.8258
   79SOPE  H18Y 7196   4.758   2.538   5.030  0.0959  1.6930  1.3668
   79SOPE  H18Z 7197   4.848   2.493   4.879 -0.2120 -2.0004  1.7532
   80SOPE     N 7198   3.384   3.496   7.384  0.0129  0.6371 -1.0098
   80SOPE   HN1 7199   3.321   3.419   7.417  0.6256  0.6419  0.2458
   80SOPE   HN2 7200   3.456   3.440   7.334 -0.3225 -0.9935  0.2268
   80SOPE   HN3 7201   3.420   3.542   7.471 -0.6493 -1.7445  0.6470
   80SOPE   C12 7202   3.309   3.587   7.295  0.3958  0.8107  0.0196
   80SOPE  H12A 7203   3.274   3.531   7.206  0.9162 -0.6006  0.6753
   80SOPE  H12B 7204   3.378   3.669   7.266  0.2889  0.2089 -2.0824
   80SOPE   C11 7205   3.186   3.635   7.373  0.1905  0.4896  0.0062
   80SOPE  H11A 7206   3.124   3.551   7.410  1.2392 -0.6564 -0.7925
   80SOPE  H11B 7207   3.127   3.711   7.317 -0.0514  3.5979  3.9762
   80SOPE     P 7208   3.247   3.854   7.511 -0.1005  0.2353 -0.0714
   80SOPE   O13 7209   3.375   3.896   7.562 -0.7150  0.2434  0.0530
   80SOPE   O14 7210   3.127   3.887   7.593  0.2755  0.0588  0.3114
   80SOPE   O12 7211   3.235   3.698   7.491 -0.0377  0.2366  0.2814
   80SOPE   O11 7212   3.215   3.913   7.367 -0.1904 -0.0729 -0.5025
   80SOPE    C1 7213   3.152   4.040   7.353 -0.8148 -0.6022  0.2764
   80SOPE    HA 7214   3.219   4.114   7.304 -1.5129 -0.8019 -1.0231
   80SOPE    HB 7215   3.113   4.081   7.448 -2.0391 -0.1230 -0.4066
   80SOPE    C2 7216   3.035   4.023   7.249  0.5886 -0.5694  1.0338
   80SOPE    HS 7217   2.957   3.950   7.280 -1.0286  1.0114  0.8655
   80SOPE   O21 7218   3.095   3.989   7.120  0.4762  0.0962  0.6507
   80SOPE   C21 7219   3.008   3.951   7.027 -0.4498 -0.2005 -0.2825
   80SOPE   O22 7220   2.891   3.922   7.046  0.4169 -0.2232 -0.3757
   80SOPE   C22 7221   3.076   3.947   6.890  0.0767  0.0722 -0.8326
   80SOPE   H2R 7222   3.027   3.873   6.824  1.6174 -1.3714 -0.4111
   80SOPE   H2S 7223   3.182   3.914   6.895  0.8137  2.0019 -2.4615
   80SOPE    C3 7224   2.954   4.160   7.221 -0.4127 -0.8326  0.0391
   80SOPE    HX 7225   2.919   4.205   7.316  0.6843  0.1077  0.0296
   80SOPE    HY 7226   2.872   4.136   7.150 -1.2185  1.3427  0.1571
   80SOPE   O31 7227   3.039   4.265   7.163  0.6387 -0.1845  0.0652
   80SOPE   C31 7228   3.001   4.334   7.065 -1.2264 -0.4328  0.6144
   80SOPE   O32 7229   2.899   4.325   7.002  0.0636  0.2093  0.0885
   80SOPE   C32 7230   3.120   4.429   7.030  0.0900  0.6132  0.3691
   80SOPE   H2X 7231   3.211   4.371   7.054  0.6197  1.2324 -0.1398
   80SOPE   H2Y 7232   3.111   4.517   7.097  1.6043  1.0098  0.0858
   80SOPE   C23 7233   3.088   4.088   6.815 -0.7575  0.0740  0.5662
   80SOPE   H3R 7234   3.161   4.155   6.864  0.4959 -0.7265 -0.1562
   80SOPE   H3S 7235   2.990   4.140   6.814 -0.9536 -0.2378  1.8492
   80SOPE   C24 7236   3.127   4.071   6.667 -0.1929 -0.4562 -0.0427
   80SOPE   H4R 7237   3.175   4.167   6.638  1.1528 -0.8059  0.9045
   80SOPE   H4S 7238   3.211   3.997   6.666  0.5770  0.3060  2.0593
   80SOPE   C25 7239   3.015   4.041   6.567 -0.9043  0.0759  0.8866
   80SOPE   H5R 7240   2.982   3.938   6.595  2.0131 -1.8124 -1.9146
   80SOPE   H5S 7241   2.928   4.104   6.594 -1.3544 -0.5306  0.8804
   80SOPE   C26 7242   3.055   4.056   6.422 -0.5932 -0.4478  0.9186
   80SOPE   H6R 7243   3.079   4.163   6.404  0.0530 -0.6109  0.7889
   80SOPE   H6S 7244   3.147   3.997   6.399 -1.7104 -2.4618  1.3527
   80SOPE   C27 7245   2.939   4.016   6.325  0.7792 -0.4246 -0.7119
   80SOPE   H7R 7246   2.899   3.916   6.354 -0.1676  0.6012  1.8628
   80SOPE   H7S 7247   2.869   4.102   6.335  1.3747 -0.0515  0.4382
   80SOPE   C28 7248   2.971   4.004   6.166  0.1660 -0.3694  0.4730
   80SOPE   H8R 7249   2.876   3.983   6.113 -0.1873 -2.2793  1.7317
   80SOPE   H8S 7250   3.019   4.100   6.138 -1.9759  1.2213  1.9227
   80SOPE   C29 7251   3.067   3.888   6.132  0.9291 -0.2805 -0.2110
   80SOPE   H91 7252   3.167   3.901   6.174  1.2675 -3.3778  0.1742
   80SOPE  C210 7253   3.053   3.799   6.036 -0.1921 -0.0644 -1.0060
   80SOPE  H101 7254   3.137   3.731   6.018 -0.7331 -0.5937 -1.5715
   80SOPE  C211 7255   2.944   3.785   5.941 -0.6642 -0.2237  0.2207
   80SOPE  H11R 7256   2.854   3.838   5.980 -0.6801  0.7919 -1.1172
   80SOPE  H11S 7257   2.923   3.676   5.928 -0.6189 -0.2603  0.4568
   80SOPE  C212 7258   2.976   3.839   5.803  0.7416  0.8280  0.5252
   80SOPE  H12R 7259   2.889   3.826   5.735  0.8820  0.1146  0.4783
   80SOPE  H12S 7260   3.058   3.781   5.755  0.0256 -0.0413  0.3270
   80SOPE  C213 7261   3.021   3.991   5.791  0.5025 -0.0564 -0.1800
   80SOPE  H13R 7262   3.125   3.996   5.829  0.3066  0.5835  0.2835
   80SOPE  H13S 7263   2.954   4.057   5.850  1.6103  1.7144 -0.8353
   80SOPE  C214 7264   3.014   4.040   5.644 -0.0745 -0.7063  0.6568
   80SOPE  H14R 7265   3.043   3.963   5.570  1.1323  1.7844 -1.6258
   80SOPE  H14S 7266   3.088   4.122   5.635  0.0466 -0.9565 -0.7432
   80SOPE  C215 7267   2.879   4.096   5.607  0.1345 -0.7907  0.0418
   80SOPE  H15R 7268   2.857   4.180   5.675  1.9032  0.4169 -0.7901
   80SOPE  H15S 7269   2.798   4.022   5.622 -0.1663 -0.0826  2.2039
   80SOPE  C216 7270   2.878   4.152   5.464 -0.0444 -0.9120 -0.5314
   80SOPE  H16R 7271   2.980   4.141   5.421  0.7741 -1.7027  1.4852
   80SOPE  H16S 7272   2.839   4.256   5.468 -2.3444 -1.5730 -2.8991
   80SOPE  C217 7273   2.783   4.079   5.371  0.2688  1.3236  0.6216
   80SOPE  H17R 7274   2.677   4.092   5.401  0.5836  2.0600  1.4405
   80SOPE  H17S 7275   2.812   3.972   5.381 -2.5976  0.5324  1.2995
   80SOPE  C218 7276   2.789   4.115   5.221  0.0218  0.4387  0.0124
   80SOPE  H18R 7277   2.709   4.063   5.163 -0.5737  2.2940 -0.9150
   80SOPE  H18S 7278   2.883   4.076   5.178 -1.0030 -0.0163 -1.9201
   80SOPE  H18T 7279   2.784   4.226   5.222 -0.9697  0.4204  1.3466
   80SOPE   C33 7280   3.115   4.474   6.884 -0.2250  2.2694  0.2852
   80SOPE   H3X 7281   3.021   4.529   6.860 -1.4386 -0.4584 -1.8289
   80SOPE   H3Y 7282   3.129   4.385   6.819 -0.7786  2.0569  0.4432
   80SOPE   C34 7283   3.231   4.571   6.855  0.0777 -0.8007  0.0820
   80SOPE   H4X 7284   3.317   4.518   6.900 -0.5445 -0.7748  1.3480
   80SOPE   H4Y 7285   3.209   4.661   6.917 -0.2370 -0.9819  0.2338
   80SOPE   C35 7286   3.246   4.621   6.712 -0.5186  0.0732  0.1518
   80SOPE   H5X 7287   3.326   4.698   6.714  0.5133 -0.9853  0.3195
   80SOPE   H5Y 7288   3.148   4.650   6.668 -1.0750 -0.1142  1.2254
   80SOPE   C36 7289   3.303   4.506   6.623 -0.8223 -0.3815  0.3164
   80SOPE   H6X 7290   3.221   4.432   6.633  2.1925 -3.9635  0.6624
   80SOPE   H6Y 7291   3.393   4.469   6.677 -1.8183  0.4625  2.7240
   80SOPE   C37 7292   3.319   4.536   6.473  1.1295  0.1042 -0.5794
   80SOPE   H7X 7293   3.414   4.584   6.443  1.4432 -1.1350 -1.6184
   80SOPE   H7Y 7294   3.229   4.594   6.441  1.5768  0.9002 -0.4068
   80SOPE   C38 7295   3.314   4.400   6.402  0.1082 -0.1631 -0.3395
   80SOPE   H8X 7296   3.213   4.353   6.408  0.3196 -1.2921 -3.5870
   80SOPE   H8Y 7297   3.395   4.333   6.439  2.2796  0.8506 -2.9441
   80SOPE   C39 7298   3.338   4.421   6.252 -0.3335  0.5536  0.1082
   80SOPE   H9X 7299   3.449   4.426   6.242 -0.1386 -1.1529  0.9678
   80SOPE   H9Y 7300   3.296   4.520   6.223  2.1713  1.5675 -0.3359
   80SOPE  C310 7301   3.295   4.292   6.174 -0.3316 -0.5757  0.1092
   80SOPE  H10X 7302   3.192   4.254   6.191 -0.5357 -0.8135 -1.4938
   80SOPE  H10Y 7303   3.352   4.214   6.229  0.2286 -0.2588 -0.0122
   80SOPE  C311 7304   3.315   4.297   6.023  0.6482 -0.0299  0.0720
   80SOPE  H11X 7305   3.263   4.393   6.001 -0.3838 -0.7061 -0.5292
   80SOPE  H11Y 7306   3.269   4.208   5.975 -1.1522  0.3800  0.9153
   80SOPE  C312 7307   3.451   4.322   5.959 -0.6904 -0.2835 -0.2160
   80SOPE  H12X 7308   3.524   4.243   5.986  0.0333 -0.2075 -1.8326
   80SOPE  H12Y 7309   3.485   4.413   6.014 -0.8462 -0.5126  0.2627
   80SOPE  C313 7310   3.446   4.362   5.812 -0.1815 -0.3440 -0.6914
   80SOPE  H13X 7311   3.547   4.399   5.785 -0.4637  0.5528 -0.5319
   80SOPE  H13Y 7312   3.386   4.455   5.811  2.3183  1.3491 -1.4814
   80SOPE  C314 7313   3.398   4.250   5.723  0.4823  0.5185  0.5261
   80SOPE  H14X 7314   3.394   4.293   5.621 -1.1382  1.0408  0.7845
   80SOPE  H14Y 7315   3.299   4.211   5.755  1.0524 -2.0503 -0.5702
   80SOPE  C315 7316   3.479   4.122   5.726  0.0626  0.0276 -0.8195
   80SOPE  H15X 7317   3.494   4.080   5.827 -2.6453 -0.3167 -0.4905
   80SOPE  H15Y 7318   3.575   4.136   5.672  1.5240 -1.1277  1.3284
   80SOPE  C316 7319   3.415   4.001   5.660  0.9070  0.2387 -0.0117
   80SOPE  H16X 7320   3.419   4.015   5.550 -0.1767 -1.1025 -0.2436
   80SOPE  H16Y 7321   3.306   3.998   5.682  0.8612 -2.0032 -0.3014
   80SOPE  C317 7322   3.489   3.867   5.704 -0.3408  0.2246  0.1126
   80SOPE  H17X 7323   3.477   3.849   5.813  1.7122 -1.4379  0.1328
   80SOPE  H17Y 7324   3.597   3.888   5.689 -0.2311  1.4937  2.2705
   80SOPE  C318 7325   3.451   3.744   5.617  0.2552  0.3559  0.1250
   80SOPE  H18X 7326   3.489   3.650   5.663 -0.0358 -0.0504 -0.4492
   80SOPE  H18Y 7327   3.486   3.741   5.511 -0.2538 -3.4989 -0.0958
   80SOPE  H18Z 7328   3.340   3.753   5.618  0.4169  3.1501 -0.6761
   81SOPE     N 7329   5.619   0.496   7.064 -0.2674 -0.4178  0.2490
   81SOPE   HN1 7330   5.711   0.543   7.055  0.2505 -1.0783  1.7345
   81SOPE   HN2 7331   5.547   0.535   7.000 -1.2563 -3.7131 -0.8333
   81SOPE   HN3 7332   5.602   0.523   7.163  0.1622  2.9440 -0.4618
   81SOPE   C12 7333   5.619   0.344   7.034 -0.1762  0.2650 -0.7524
   81SOPE  H12A 7334   5.516   0.307   7.013 -0.8641  1.8290 -0.3026
   81SOPE  H12B 7335   5.667   0.292   7.119 -0.4044  1.9442  0.4761
   81SOPE   C11 7336   5.691   0.308   6.903 -0.6449  0.3964 -0.0927
   81SOPE  H11A 7337   5.800   0.327   6.918 -0.7773  0.9706  0.1794
   81SOPE  H11B 7338   5.653   0.376   6.824  2.0410  2.4513  0.2302
   81SOPE     P 7339   5.741   0.049   6.909 -0.0196  0.0857 -0.1614
   81SOPE   O13 7340   5.792   0.071   7.048  0.0085  0.5293  0.3608
   81SOPE   O14 7341   5.850   0.051   6.806  0.8111  0.0442  0.1930
   81SOPE   O12 7342   5.653   0.169   6.869  0.2777  0.0971 -0.0312
   81SOPE   O11 7343   5.642  -0.076   6.899 -0.1019  0.1652  0.2567
   81SOPE    C1 7344   5.503  -0.073   6.890 -0.6377 -0.1310 -0.0812
   81SOPE    HA 7345   5.464   0.022   6.930  0.3057  0.3633 -0.2915
   81SOPE    HB 7346   5.458  -0.146   6.960  1.0977 -2.5057 -1.2522
   81SOPE    C2 7347   5.442  -0.125   6.757 -0.1117  0.4321  0.1199
   81SOPE    HS 7348   5.331  -0.126   6.761 -0.1214  0.3377 -0.1397
   81SOPE   O21 7349   5.500  -0.258   6.719 -0.2035 -1.0974  0.4692
   81SOPE   C21 7350   5.441  -0.359   6.765 -0.4414  0.3019 -0.6684
   81SOPE   O22 7351   5.335  -0.361   6.830 -0.0543  0.2639  0.1092
   81SOPE   C22 7352   5.510  -0.489   6.721  0.1345  0.5665 -0.2182
   81SOPE   H2R 7353   5.494  -0.560   6.805 -3.3250 -0.6113 -1.7053
   81SOPE   H2S 7354   5.616  -0.463   6.701  0.0147  1.5612  0.3776
   81SOPE    C3 7355   5.475  -0.013   6.654 -0.0924 -0.2490  0.0847
   81SOPE    HX 7356   5.586  -0.007   6.664  0.2667 -1.6442 -2.3097
   81SOPE    HY 7357   5.426   0.082   6.684  1.2109  0.6904 -0.6791
   81SOPE   O31 7358   5.443  -0.052   6.517  0.5917  0.0348 -0.3699
   81SOPE   C31 7359   5.497   0.026   6.429 -0.6441  0.4212  0.1549
   81SOPE   O32 7360   5.596   0.099   6.450  0.1415 -0.6196  0.1373
   81SOPE   C32 7361   5.415   0.014   6.311  0.0156  0.6706  0.7594
   81SOPE   H2X 7362   5.343   0.098   6.315 -0.3190  0.6053 -2.0558
   81SOPE   H2Y 7363   5.365  -0.085   6.301  1.4245 -0.0006 -0.0028
   81SOPE   C23 7364   5.433  -0.548   6.603 -0.4278 -0.3622  1.0664
   81SOPE   H3R 7365   5.325  -0.565   6.621 -1.2937  3.1909 -0.0612
   81SOPE   H3S 7366   5.473  -0.651   6.586 -2.4367 -1.0608  0.2465
   81SOPE   C24 7367   5.441  -0.457   6.480  0.4358 -0.1434  0.3911
   81SOPE   H4R 7368   5.378  -0.511   6.405 -0.9692 -0.4711  1.7630
   81SOPE   H4S 7369   5.380  -0.366   6.497  2.0635  1.2187 -0.7815
   81SOPE   C25 7370   5.578  -0.417   6.418  0.1346  0.3646 -0.7222
   81SOPE   H5R 7371   5.638  -0.350   6.483  1.0984 -0.7503 -0.4159
   81SOPE   H5S 7372   5.627  -0.516   6.405 -0.6866 -0.3267  1.0553
   81SOPE   C26 7373   5.557  -0.366   6.283 -0.2346 -0.7557 -0.1267
   81SOPE   H6R 7374   5.519  -0.261   6.277 -3.8680 -1.9210 -0.1015
   81SOPE   H6S 7375   5.658  -0.346   6.241 -0.3861  0.8816  0.1986
   81SOPE   C27 7376   5.473  -0.451   6.184 -0.2162  0.9182 -0.8243
   81SOPE   H7R 7377   5.487  -0.558   6.210 -1.1098  0.6210 -1.5097
   81SOPE   H7S 7378   5.364  -0.435   6.201 -0.1886 -0.6706  1.2653
   81SOPE   C28 7379   5.497  -0.432   6.030  0.4751 -0.1197  0.1767
   81SOPE   H8R 7380   5.435  -0.509   5.979  0.4744 -0.2134  0.3177
   81SOPE   H8S 7381   5.462  -0.329   6.010 -0.5058 -0.0090  2.1433
   81SOPE   C29 7382   5.646  -0.458   5.990  0.4538 -0.1273 -0.4184
   81SOPE   H91 7383   5.703  -0.521   6.059  0.0715 -0.3316 -0.2875
   81SOPE  C210 7384   5.703  -0.399   5.880  0.2225  0.0445 -0.9067
   81SOPE  H101 7385   5.812  -0.408   5.869  0.3200 -0.0965  0.0448
   81SOPE  C211 7386   5.633  -0.309   5.782  0.0290  0.1133 -0.0149
   81SOPE  H11R 7387   5.685  -0.211   5.775  1.2633 -0.5087  0.1934
   81SOPE  H11S 7388   5.535  -0.268   5.814  0.5931  1.3020  0.2626
   81SOPE  C212 7389   5.644  -0.388   5.647  0.5433 -0.1838  0.1994
   81SOPE  H12R 7390   5.749  -0.416   5.625  0.7736  1.2264 -0.6225
   81SOPE  H12S 7391   5.606  -0.329   5.560  0.8348 -0.4090 -0.0842
   81SOPE  C213 7392   5.545  -0.517   5.641  0.4705 -0.7557 -0.2539
   81SOPE  H13R 7393   5.450  -0.493   5.694  0.7178  0.1388 -0.2001
   81SOPE  H13S 7394   5.583  -0.596   5.709 -4.3295 -2.7562  0.5302
   81SOPE  C214 7395   5.509  -0.574   5.502 -0.4802  0.4264 -0.6627
   81SOPE  H14R 7396   5.595  -0.598   5.436 -2.2480 -0.1289 -2.8948
   81SOPE  H14S 7397   5.450  -0.501   5.443  0.0264  2.4813  1.2087
   81SOPE  C215 7398   5.430  -0.696   5.536  0.5264  0.2378  0.3478
   81SOPE  H15R 7399   5.347  -0.661   5.601 -0.9898  0.9997 -1.8856
   81SOPE  H15S 7400   5.500  -0.766   5.587  1.3162  2.1535  2.0201
   81SOPE  C216 7401   5.361  -0.762   5.420 -0.1484 -0.4887 -0.0722
   81SOPE  H16R 7402   5.305  -0.683   5.365  0.3161  0.8357  1.2785
   81SOPE  H16S 7403   5.284  -0.828   5.465 -0.0934 -1.0552 -0.7847
   81SOPE  C217 7404   5.456  -0.842   5.324  0.2796  0.6567 -0.5801
   81SOPE  H17R 7405   5.546  -0.780   5.304  1.0967 -0.0376  0.7970
   81SOPE  H17S 7406   5.394  -0.855   5.233 -1.5308  1.5683  0.4720
   81SOPE  C218 7407   5.498  -0.968   5.394  0.1434  0.7355  0.0217
   81SOPE  H18R 7408   5.569  -0.953   5.479  0.0302 -1.3657  0.5336
   81SOPE  H18S 7409   5.540  -1.045   5.327 -2.5730 -1.0511  0.2343
   81SOPE  H18T 7410   5.412  -1.020   5.440  1.1008 -2.0913 -1.1631
   81SOPE   C33 7411   5.494   0.048   6.179 -0.1672 -0.1901  0.2047
   81SOPE   H3X 7412   5.579  -0.021   6.160  0.7855  1.7068 -3.0850
   81SOPE   H3Y 7413   5.533   0.151   6.188 -0.3279 -0.2207  1.4732
   81SOPE   C34 7414   5.403   0.050   6.058 -0.3721  0.7158  0.5875
   81SOPE   H4X 7415   5.350   0.148   6.056 -1.3660  0.1897  0.0938
   81SOPE   H4Y 7416   5.329  -0.034   6.058 -0.4170  0.6655  3.0817
   81SOPE   C35 7417   5.501   0.049   5.932 -0.0671 -0.1538  0.6527
   81SOPE   H5X 7418   5.562  -0.042   5.913 -0.5698  0.4302 -5.4575
   81SOPE   H5Y 7419   5.572   0.132   5.951  0.1431 -0.3843  0.8854
   81SOPE   C36 7420   5.411   0.068   5.812  0.2549  0.3029 -0.0990
   81SOPE   H6X 7421   5.353   0.163   5.810  1.2858  0.9591 -1.6505
   81SOPE   H6Y 7422   5.339  -0.016   5.805 -1.8358  2.0392 -0.2818
   81SOPE   C37 7423   5.494   0.071   5.683 -0.4274 -0.0883  0.5058
   81SOPE   H7X 7424   5.571  -0.007   5.699 -2.3398 -1.5804  3.2487
   81SOPE   H7Y 7425   5.541   0.171   5.670 -0.2803 -0.0902  0.9920
   81SOPE   C38 7426   5.410   0.036   5.561  0.1452  0.0390  0.8543
   81SOPE   H8X 7427   5.365   0.126   5.514 -0.3441 -1.2829 -1.3574
   81SOPE   H8Y 7428   5.334  -0.038   5.594 -0.5515  0.3709  0.0392
   81SOPE   C39 7429   5.493  -0.037   5.450 -0.3017 -0.1352 -0.6095
   81SOPE   H9X 7430   5.569  -0.090   5.511 -1.8641  2.3509  4.0409
   81SOPE   H9Y 7431   5.532   0.043   5.384  0.2718 -0.0820 -0.2109
   81SOPE  C310 7432   5.401  -0.126   5.369 -0.5932 -0.5586 -0.1387
   81SOPE  H10X 7433   5.335  -0.057   5.312  1.5217  2.1328  0.4446
   81SOPE  H10Y 7434   5.353  -0.206   5.428  1.2824 -2.2878 -0.8349
   81SOPE  C311 7435   5.483  -0.203   5.265  0.0395  0.5974  0.0276
   81SOPE  H11X 7436   5.428  -0.270   5.196  1.9154 -2.6294  1.4330
   81SOPE  H11Y 7437   5.562  -0.267   5.310  1.6654  1.9106 -0.8023
   81SOPE  C312 7438   5.562  -0.109   5.172 -0.2442  0.2419  0.3014
   81SOPE  H12X 7439   5.659  -0.093   5.223 -0.7698 -2.5621  2.4212
   81SOPE  H12Y 7440   5.512  -0.012   5.153 -0.7312 -0.3054 -1.4581
   81SOPE  C313 7441   5.587  -0.157   5.024  0.2333  0.2124 -0.3675
   81SOPE  H13X 7442   5.491  -0.189   4.978  0.4414  1.4270 -1.7235
   81SOPE  H13Y 7443   5.649  -0.249   5.024  0.8775  0.6352 -0.8959
   81SOPE  C314 7444   5.652  -0.053   4.941  0.3452 -0.4284 -0.2135
   81SOPE  H14X 7445   5.761  -0.042   4.958 -0.1087  2.8204  1.4990
   81SOPE  H14Y 7446   5.608   0.048   4.954  1.5447  0.1943 -0.8038
   81SOPE  C315 7447   5.646  -0.078   4.788  0.1289  0.1124  0.4732
   81SOPE  H15X 7448   5.540  -0.063   4.757 -0.5629 -0.1656  2.5339
   81SOPE  H15Y 7449   5.677  -0.184   4.771  0.0371  0.0609  0.6212
   81SOPE  C316 7450   5.722   0.016   4.694 -0.3227 -0.0221 -0.3007
   81SOPE  H16X 7451   5.831   0.025   4.714  0.3544 -0.7758 -3.1697
   81SOPE  H16Y 7452   5.683   0.118   4.717 -1.3584 -0.5830  0.5378
   81SOPE  C317 7453   5.705  -0.012   4.549 -0.3649  0.2732 -0.1821
   81SOPE  H17X 7454   5.599   0.012   4.526 -0.0934  0.3273 -1.4700
   81SOPE  H17Y 7455   5.718  -0.120   4.524  0.5284  0.7875 -2.1401
   81SOPE  C318 7456   5.806   0.065   4.463  0.3711 -0.2615  0.3954
   81SOPE  H18X 7457   5.824   0.167   4.503  2.8631 -0.3443 -0.3792
   81SOPE  H18Y 7458   5.764   0.084   4.362 -0.7952 -0.1654  0.8820
   81SOPE  H18Z 7459   5.905   0.017   4.453  2.4341  3.3918  1.5360
   82SOPE     N 7460   2.866   0.200   7.383  0.1721 -0.4017  0.3989
   82SOPE   HN1 7461   2.855   0.097   7.391  1.2765 -0.5739 -0.0369
   82SOPE   HN2 7462   2.937   0.241   7.447  1.5651  0.8729 -1.8202
   82SOPE   HN3 7463   2.774   0.243   7.404 -0.5892 -0.5428 -2.2752
   82SOPE   C12 7464   2.918   0.247   7.242  0.3078  0.3139 -0.6943
   82SOPE  H12A 7465   3.026   0.218   7.236  0.4507  0.5956  0.2748
   82SOPE  H12B 7466   2.919   0.357   7.257  1.4189  0.1404  0.7711
   82SOPE   C11 7467   2.834   0.185   7.132 -0.5854 -0.3092  0.2068
   82SOPE  H11A 7468   2.872   0.217   7.033  1.7458 -0.3186  1.0365
   82SOPE  H11B 7469   2.727   0.215   7.124 -0.7897 -1.1724 -0.4465
   82SOPE     P 7470   2.974  -0.050   7.100 -0.0893  0.6485 -0.2095
   82SOPE   O13 7471   2.932  -0.176   7.034  0.3005  0.6723 -0.3455
   82SOPE   O14 7472   3.073  -0.058   7.211  0.3062  0.3887  0.2162
   82SOPE   O12 7473   2.849   0.041   7.135 -0.1807  0.2280 -0.2219
   82SOPE   O11 7474   3.035   0.035   6.984  0.1545 -0.3183 -0.0449
   82SOPE    C1 7475   3.163  -0.007   6.925  0.4351 -0.5612 -0.3990
   82SOPE    HA 7476   3.219  -0.081   6.987 -0.8353 -0.1126  1.3557
   82SOPE    HB 7477   3.225   0.085   6.924  1.4171 -1.0485 -4.4596
   82SOPE    C2 7478   3.147  -0.053   6.780  0.8195 -0.1758 -0.3876
   82SOPE    HS 7479   3.233  -0.119   6.756 -0.7156 -1.4148 -2.8722
   82SOPE   O21 7480   3.145   0.060   6.691 -0.1359  0.4272  0.0360
   82SOPE   C21 7481   3.258   0.114   6.648  0.3988  0.0495 -0.1982
   82SOPE   O22 7482   3.367   0.076   6.690 -0.4795 -0.7166 -0.2977
   82SOPE   C22 7483   3.226   0.225   6.549  0.4783 -0.7551  0.2360
   82SOPE   H2R 7484   3.191   0.319   6.596 -1.7241 -1.5055  0.2070
   82SOPE   H2S 7485   3.145   0.198   6.479  1.0104  2.1922 -1.6384
   82SOPE    C3 7486   3.022  -0.135   6.746 -0.1346 -0.3644 -1.2311
   82SOPE    HX 7487   2.932  -0.082   6.786 -0.4088  0.1880 -2.5351
   82SOPE    HY 7488   3.036  -0.226   6.808 -1.6380 -0.0728 -0.4107
   82SOPE   O31 7489   3.007  -0.164   6.610 -0.0712  0.9368 -0.3760
   82SOPE   C31 7490   2.906  -0.255   6.582  0.0908 -0.3124 -0.6053
   82SOPE   O32 7491   2.838  -0.308   6.665  0.1793  0.3210 -0.3271
   82SOPE   C32 7492   2.889  -0.291   6.439  0.2765 -0.2704  0.3016
   82SOPE   H2X 7493   2.977  -0.252   6.384 -0.5517  1.0195 -0.1427
   82SOPE   H2Y 7494   2.792  -0.250   6.404 -0.6186 -1.6815  1.0106
   82SOPE   C23 7495   3.338   0.251   6.445  0.9411 -0.5045 -0.2580
   82SOPE   H3R 7496   3.371   0.157   6.396 -0.0737  0.0775 -2.1598
   82SOPE   H3S 7497   3.426   0.293   6.498  0.5866 -1.5036  1.1952
   82SOPE   C24 7498   3.297   0.337   6.325  0.0374 -0.2929 -0.1213
   82SOPE   H4R 7499   3.201   0.304   6.282 -0.2633 -0.2356  0.4915
   82SOPE   H4S 7500   3.280   0.442   6.360 -0.4735 -0.9623  1.7677
   82SOPE   C25 7501   3.398   0.347   6.214  0.2976 -0.1165  0.0311
   82SOPE   H5R 7502   3.488   0.397   6.256 -0.9416  0.6678  1.9565
   82SOPE   H5S 7503   3.435   0.247   6.186  0.0581 -0.1406 -0.2057
   82SOPE   C26 7504   3.349   0.422   6.089  0.5038  0.4263  0.2253
   82SOPE   H6R 7505   3.266   0.364   6.044  1.3627 -0.3698 -0.3838
   82SOPE   H6S 7506   3.310   0.518   6.128  1.1356 -0.0960  2.2744
   82SOPE   C27 7507   3.456   0.467   5.994  0.0472 -0.5471  0.2612
   82SOPE   H7R 7508   3.405   0.534   5.921 -2.3909 -3.6923 -1.1332
   82SOPE   H7S 7509   3.537   0.530   6.036  0.0958 -0.3454 -0.1294
   82SOPE   C28 7510   3.516   0.356   5.904  0.0521  0.7531 -0.6819
   82SOPE   H8R 7511   3.580   0.290   5.966 -0.2058  0.4640 -0.7239
   82SOPE   H8S 7512   3.430   0.289   5.884  0.0629 -1.0531  4.0383
   82SOPE   C29 7513   3.594   0.408   5.789 -0.2462 -0.7103  0.1817
   82SOPE   H91 7514   3.650   0.500   5.814  1.4921 -2.0599  1.6303
   82SOPE  C210 7515   3.585   0.376   5.660 -0.2973  0.2906  0.3789
   82SOPE  H101 7516   3.646   0.437   5.592 -2.5552  2.1716 -0.0659
   82SOPE  C211 7517   3.511   0.261   5.593  0.8291 -0.6623 -0.0784
   82SOPE  H11R 7518   3.433   0.318   5.538  1.9504  2.3642  1.2977
   82SOPE  H11S 7519   3.468   0.190   5.667 -2.3036 -2.1590 -3.0095
   82SOPE  C212 7520   3.599   0.188   5.494 -0.2465  0.5544  0.0883
   82SOPE  H12R 7521   3.673   0.125   5.547  0.4281 -0.7005 -2.2239
   82SOPE  H12S 7522   3.655   0.246   5.419 -0.2520 -2.4951 -2.4851
   82SOPE  C213 7523   3.501   0.084   5.424 -0.0120 -0.2238 -0.2593
   82SOPE  H13R 7524   3.485   0.004   5.499 -1.8567 -0.4659 -0.8600
   82SOPE  H13S 7525   3.567   0.041   5.345  1.7150 -0.4364  1.2187
   82SOPE  C214 7526   3.379   0.143   5.353  0.9348  0.4701 -0.4301
   82SOPE  H14R 7527   3.309   0.170   5.435  3.5871  3.6252  0.9987
   82SOPE  H14S 7528   3.332   0.057   5.299 -0.7656 -0.0764  1.7504
   82SOPE  C215 7529   3.394   0.266   5.258  0.0450  0.0153 -0.6874
   82SOPE  H15R 7530   3.445   0.338   5.326 -1.5772  0.1611  0.4286
   82SOPE  H15S 7531   3.302   0.316   5.221  1.0009  1.4800 -1.1940
   82SOPE  C216 7532   3.476   0.234   5.138  0.1045  0.7362 -0.3654
   82SOPE  H16R 7533   3.412   0.178   5.066  0.0649 -0.0792  0.2977
   82SOPE  H16S 7534   3.560   0.176   5.180  1.0984  1.0036 -1.8883
   82SOPE  C217 7535   3.518   0.363   5.057  0.5304 -0.2241 -0.5582
   82SOPE  H17R 7536   3.424   0.422   5.054  0.4473 -0.1800  1.4693
   82SOPE  H17S 7537   3.550   0.331   4.956 -2.0517 -1.6790 -1.0041
   82SOPE  C218 7538   3.621   0.457   5.125  0.0650 -0.2104 -0.1223
   82SOPE  H18R 7539   3.709   0.397   5.157 -1.6279 -1.2979  2.8909
   82SOPE  H18S 7540   3.573   0.494   5.218 -0.9892  0.3397 -0.8685
   82SOPE  H18T 7541   3.662   0.537   5.060 -2.0813  0.9611 -0.1373
   82SOPE   C33 7542   2.889  -0.448   6.413 -0.0563 -0.0309  0.2606
   82SOPE   H3X 7543   2.813  -0.484   6.486 -0.5387  1.5115  0.5394
   82SOPE   H3Y 7544   2.981  -0.500   6.449 -0.7237 -1.0128  0.6051
   82SOPE   C34 7545   2.832  -0.485   6.281  0.1271  0.0722 -0.0888
   82SOPE   H4X 7546   2.735  -0.432   6.272  0.7367  1.0405 -1.1740
   82SOPE   H4Y 7547   2.817  -0.595   6.285 -1.9080  0.3535  2.5963
   82SOPE   C35 7548   2.930  -0.451   6.167 -0.5804  0.3872  0.4400
   82SOPE   H5X 7549   2.999  -0.538   6.160 -0.9660  0.2164 -1.7104
   82SOPE   H5Y 7550   3.001  -0.365   6.167 -0.5653  0.4926 -2.6230
   82SOPE   C36 7551   2.865  -0.442   6.027  0.2522 -0.2985 -0.1080
   82SOPE   H6X 7552   2.774  -0.379   6.030  0.2690 -0.3052  0.8110
   82SOPE   H6Y 7553   2.830  -0.545   6.007  0.9027 -0.3244 -1.1517
   82SOPE   C37 7554   2.957  -0.409   5.915  0.1417  0.4318  0.4668
   82SOPE   H7X 7555   3.053  -0.463   5.928  1.2966  2.3368  0.3156
   82SOPE   H7Y 7556   2.999  -0.306   5.922 -2.3876  1.5711  0.0595
   82SOPE   C38 7557   2.899  -0.433   5.772  0.2146  0.0566 -0.2472
   82SOPE   H8X 7558   2.804  -0.377   5.760  1.4675  1.7727 -3.2686
   82SOPE   H8Y 7559   2.894  -0.544   5.770  0.1930  0.0578 -1.7752
   82SOPE   C39 7560   2.997  -0.380   5.663 -0.5124 -0.7085 -0.4113
   82SOPE   H9X 7561   3.092  -0.437   5.671  0.2958  0.4812 -1.1921
   82SOPE   H9Y 7562   3.009  -0.271   5.680 -0.7314 -0.8391  0.6895
   82SOPE  C310 7563   2.951  -0.402   5.521  0.4349 -0.3819 -0.5219
   82SOPE  H10X 7564   2.856  -0.348   5.498  1.0997  2.2821  2.2826
   82SOPE  H10Y 7565   2.924  -0.509   5.510  0.5833 -0.6297  1.2135
   82SOPE  C311 7566   3.058  -0.363   5.423  0.2350  1.0256 -0.4835
   82SOPE  H11X 7567   3.146  -0.422   5.456 -0.6644  0.5920  1.2643
   82SOPE  H11Y 7568   3.084  -0.256   5.433  1.8652  1.1822 -4.6100
   82SOPE  C312 7569   3.007  -0.390   5.283  0.0400 -0.2369 -0.2264
   82SOPE  H12X 7570   2.898  -0.377   5.270 -0.3915 -2.2423  0.9984
   82SOPE  H12Y 7571   3.029  -0.498   5.268  2.1694  0.1983 -0.6361
   82SOPE  C313 7572   3.091  -0.313   5.186  0.4918 -0.2545 -0.9212
   82SOPE  H13X 7573   3.194  -0.348   5.165  1.3263  2.3102 -1.4247
   82SOPE  H13Y 7574   3.107  -0.211   5.227 -1.2523  0.3067 -1.5510
   82SOPE  C314 7575   3.012  -0.298   5.055 -0.8663 -0.2415  0.2483
   82SOPE  H14X 7576   2.913  -0.261   5.089 -1.0522  0.0718 -0.6022
   82SOPE  H14Y 7577   3.000  -0.399   5.009 -3.1845 -0.5159  1.3064
   82SOPE  C315 7578   3.064  -0.187   4.964 -0.3229  0.3712  0.3105
   82SOPE  H15X 7579   3.170  -0.210   4.943 -0.0165 -1.6509  3.5088
   82SOPE  H15Y 7580   3.063  -0.095   5.027  0.8554  0.1774  0.6376
   82SOPE  C316 7581   2.993  -0.167   4.829 -0.4729  0.4971 -0.3301
   82SOPE  H16X 7582   2.891  -0.123   4.835 -0.5615  0.6518 -2.3602
   82SOPE  H16Y 7583   2.995  -0.252   4.757 -0.0130  0.5391 -0.3688
   82SOPE  C317 7584   3.081  -0.070   4.742  0.4532 -0.9915  0.3225
   82SOPE  H17X 7585   3.184  -0.111   4.738  0.2378 -1.8878  2.7654
   82SOPE  H17Y 7586   3.072   0.024   4.801 -0.6659 -0.9992  0.1840
   82SOPE  C318 7587   3.038  -0.064   4.594 -0.0736  0.0325 -0.4377
   82SOPE  H18X 7588   3.118  -0.020   4.531 -0.2089 -0.4128 -0.9277
   82SOPE  H18Y 7589   2.940  -0.019   4.569 -0.2456 -0.8274 -1.3968
   82SOPE  H18Z 7590   3.032  -0.168   4.554 -3.0862  0.5278 -1.5006
   83SOPE     N 7591   2.217   5.081   2.609  0.1255  0.5452  0.2084
   83SOPE   HN1 7592   2.309   5.127   2.624  0.7977 -0.6640 -0.1097
   83SOPE   HN2 7593   2.236   4.984   2.578 -0.8820  0.4833 -0.2651
   83SOPE   HN3 7594   2.161   5.136   2.541 -0.2472 -2.9281 -2.5574
   83SOPE   C12 7595   2.143   5.068   2.740  0.5152 -0.0421 -0.5159
   83SOPE  H12A 7596   2.042   5.025   2.726  0.8696 -1.4811  0.9853
   83SOPE  H12B 7597   2.137   5.173   2.775 -1.2472 -0.2783 -0.0328
   83SOPE   C11 7598   2.223   4.988   2.842 -0.3557 -0.2787  0.8237
   83SOPE  H11A 7599   2.173   5.004   2.940 -1.0168  1.3679  0.2618
   83SOPE  H11B 7600   2.323   5.034   2.856 -0.0443 -1.0592  1.2106
   83SOPE     P 7601   2.350   4.790   2.728 -0.1026  0.2519 -0.1701
   83SOPE   O13 7602   2.334   4.839   2.588  0.6980 -0.2525 -0.1485
   83SOPE   O14 7603   2.354   4.644   2.754 -0.0966 -0.2975 -0.4124
   83SOPE   O12 7604   2.226   4.856   2.801 -0.0841  0.3418 -0.4266
   83SOPE   O11 7605   2.482   4.865   2.780  0.0819 -0.3729  0.5524
   83SOPE    C1 7606   2.609   4.805   2.809  0.5672  0.2397  0.6812
   83SOPE    HA 7607   2.688   4.869   2.764 -0.6601  2.1056  1.0601
   83SOPE    HB 7608   2.609   4.709   2.753 -0.1164 -0.9298  2.5838
   83SOPE    C2 7609   2.631   4.795   2.961 -0.4319 -0.3828 -0.0032
   83SOPE    HS 7610   2.732   4.757   2.990 -1.4759 -1.8750  1.8778
   83SOPE   O21 7611   2.528   4.715   3.020  0.2859  0.4640  0.1063
   83SOPE   C21 7612   2.536   4.584   3.000 -0.3874  0.3096 -1.0618
   83SOPE   O22 7613   2.614   4.524   2.928  0.1111  0.0073 -0.4834
   83SOPE   C22 7614   2.413   4.525   3.077 -0.4810 -0.0812 -0.6710
   83SOPE   H2R 7615   2.382   4.440   3.012 -0.1225 -0.4985 -0.3090
   83SOPE   H2S 7616   2.326   4.593   3.074  0.6916  1.4735 -1.1970
   83SOPE    C3 7617   2.624   4.942   3.016  0.0620  0.2518  0.7139
   83SOPE    HX 7618   2.525   4.975   2.976  0.4849  1.0854  0.3256
   83SOPE    HY 7619   2.703   5.006   2.971 -0.0763 -0.8052 -1.1417
   83SOPE   O31 7620   2.642   4.935   3.166 -0.6700  0.0314  0.2089
   83SOPE   C31 7621   2.530   4.955   3.232  0.2493 -0.2677  0.7523
   83SOPE   O32 7622   2.423   4.988   3.182  0.1179  0.4855  0.2394
   83SOPE   C32 7623   2.549   4.925   3.391  0.4097 -0.6847  0.1051
   83SOPE   H2X 7624   2.614   5.008   3.424 -0.2760 -0.3268  0.5806
   83SOPE   H2Y 7625   2.592   4.822   3.393 -1.5968 -1.6160 -0.9831
   83SOPE   C23 7626   2.441   4.483   3.222 -0.1619  0.0251 -0.3889
   83SOPE   H3R 7627   2.474   4.573   3.278 -1.0749  0.8870 -1.1839
   83SOPE   H3S 7628   2.521   4.407   3.216 -2.2692 -2.2853 -0.6628
   83SOPE   C24 7629   2.324   4.433   3.299  0.1111 -0.1277 -0.2737
   83SOPE   H4R 7630   2.257   4.518   3.325 -2.1362 -1.8409 -0.1780
   83SOPE   H4S 7631   2.265   4.372   3.227  2.2893 -2.2411 -0.3942
   83SOPE   C25 7632   2.354   4.365   3.430 -0.3285 -0.0816 -0.3327
   83SOPE   H5R 7633   2.297   4.271   3.446 -1.7006  1.0541  2.2990
   83SOPE   H5S 7634   2.458   4.327   3.424  0.0485  1.0383 -1.3248
   83SOPE   C26 7635   2.345   4.468   3.545  0.0160 -0.5415  0.1836
   83SOPE   H6R 7636   2.430   4.538   3.527  2.7327 -2.6947  3.4902
   83SOPE   H6S 7637   2.253   4.530   3.547  0.9886  1.0770 -1.7069
   83SOPE   C27 7638   2.380   4.415   3.685  0.1164  0.0161 -0.3478
   83SOPE   H7R 7639   2.306   4.335   3.707 -0.9137 -0.3224 -4.1969
   83SOPE   H7S 7640   2.481   4.369   3.690  0.7770  1.4413 -0.1570
   83SOPE   C28 7641   2.368   4.518   3.800 -0.7109 -0.6746 -0.5875
   83SOPE   H8R 7642   2.417   4.479   3.892 -2.6443 -0.2572  0.6882
   83SOPE   H8S 7643   2.433   4.606   3.781 -2.0405  0.9213  1.7120
   83SOPE   C29 7644   2.226   4.575   3.816 -0.2943 -0.1340  0.0581
   83SOPE   H91 7645   2.158   4.589   3.731 -1.4345  1.3877  1.1539
   83SOPE  C210 7646   2.165   4.572   3.934  0.0088 -0.4163 -0.3627
   83SOPE  H101 7647   2.062   4.609   3.944 -1.6282 -3.8513 -2.5640
   83SOPE  C211 7648   2.229   4.541   4.072  0.8500  0.2230 -1.6864
   83SOPE  H11R 7649   2.320   4.600   4.094  1.4194 -1.3941  0.5811
   83SOPE  H11S 7650   2.259   4.434   4.077  0.3624  0.0979 -1.3155
   83SOPE  C212 7651   2.135   4.566   4.195 -0.4672 -0.0016 -0.5294
   83SOPE  H12R 7652   2.066   4.648   4.166 -2.8530 -1.3580  0.9478
   83SOPE  H12S 7653   2.191   4.593   4.287 -0.9291 -1.1034  0.0982
   83SOPE  C213 7654   2.050   4.445   4.234  0.3790  1.1942 -0.1655
   83SOPE  H13R 7655   2.127   4.376   4.276 -1.8947 -1.8962 -0.7357
   83SOPE  H13S 7656   2.007   4.396   4.144 -0.0099  0.3021  0.4955
   83SOPE  C214 7657   1.932   4.473   4.329 -0.1873  0.3625 -0.1522
   83SOPE  H14R 7658   1.874   4.382   4.353  1.1440 -0.6595 -0.6711
   83SOPE  H14S 7659   1.868   4.544   4.272 -2.1680 -1.4740 -0.3303
   83SOPE  C215 7660   1.964   4.539   4.463 -0.3985  0.0913  0.4421
   83SOPE  H15R 7661   1.865   4.564   4.505 -0.0136  1.8094  0.4209
   83SOPE  H15S 7662   2.025   4.631   4.445  0.5757 -0.8102 -1.0473
   83SOPE  C216 7663   2.041   4.443   4.558 -0.6052  0.2734  0.2224
   83SOPE  H16R 7664   2.118   4.382   4.507 -0.3061 -0.0885  1.0988
   83SOPE  H16S 7665   1.968   4.376   4.609 -0.8296 -0.4277 -0.9765
   83SOPE  C217 7666   2.126   4.512   4.666 -0.4429  0.4707 -0.1458
   83SOPE  H17R 7667   2.224   4.560   4.644  0.4926  0.4268  3.3646
   83SOPE  H17S 7668   2.166   4.432   4.731 -1.0379 -0.5170 -0.9757
   83SOPE  C218 7669   2.050   4.606   4.759 -0.2974  0.0785 -0.7992
   83SOPE  H18R 7670   2.101   4.611   4.858  0.8447 -1.8906 -1.2473
   83SOPE  H18S 7671   1.948   4.569   4.784 -0.1642  1.5172  2.4475
   83SOPE  H18T 7672   2.050   4.709   4.716 -2.2948 -0.0640 -1.2457
   83SOPE   C33 7673   2.407   4.938   3.442  0.8383  0.1979  0.7627
   83SOPE   H3X 7674   2.333   4.868   3.399 -0.0047  2.1264 -1.1005
   83SOPE   H3Y 7675   2.366   5.037   3.413 -0.4763 -0.7120 -0.5952
   83SOPE   C34 7676   2.390   4.929   3.598  0.2333 -0.2665  0.2760
   83SOPE   H4X 7677   2.430   4.829   3.627 -3.4528 -0.9850  3.8426
   83SOPE   H4Y 7678   2.279   4.927   3.610 -0.1453  0.8760 -2.3284
   83SOPE   C35 7679   2.465   5.041   3.662 -0.4576 -0.0675 -0.7369
   83SOPE   H5X 7680   2.423   5.137   3.624 -1.1564 -0.4241 -0.8707
   83SOPE   H5Y 7681   2.571   5.024   3.633 -0.7441  0.4070 -2.1378
   83SOPE   C36 7682   2.481   5.040   3.813 -0.6864 -0.1415 -0.1693
   83SOPE   H6X 7683   2.389   5.055   3.873  1.0396 -1.1455  2.9741
   83SOPE   H6Y 7684   2.549   5.115   3.858  0.3999 -0.2646 -1.5402
   83SOPE   C37 7685   2.520   4.898   3.864 -0.2994  0.0175  1.0265
   83SOPE   H7X 7686   2.613   4.862   3.816  0.0998 -0.8505  2.3845
   83SOPE   H7Y 7687   2.446   4.816   3.848 -1.0188  0.9503 -0.6801
   83SOPE   C38 7688   2.560   4.886   4.012 -0.5156  0.6195  0.1926
   83SOPE   H8X 7689   2.650   4.946   4.035 -0.2719  0.2343  0.2468
   83SOPE   H8Y 7690   2.577   4.776   4.018 -2.0239  0.3392 -0.2090
   83SOPE   C39 7691   2.445   4.919   4.108 -0.3034 -0.0546  0.9077
   83SOPE   H9X 7692   2.351   4.883   4.062  0.9030 -1.1892 -0.7659
   83SOPE   H9Y 7693   2.451   5.027   4.134 -0.7392  0.2316 -0.1350
   83SOPE  C310 7694   2.471   4.846   4.238  0.3196  0.3216  0.1249
   83SOPE  H10X 7695   2.565   4.889   4.278  0.9025  0.0358 -0.9088
   83SOPE  H10Y 7696   2.481   4.736   4.225  1.3926  0.1808  1.8782
   83SOPE  C311 7697   2.343   4.874   4.329 -0.3709  0.1943  1.0261
   83SOPE  H11X 7698   2.254   4.834   4.276  0.7489 -1.0191 -0.0273
   83SOPE  H11Y 7699   2.324   4.983   4.342 -2.5593 -0.3322  2.7276
   83SOPE  C312 7700   2.359   4.790   4.463 -0.4305  0.4168  0.4823
   83SOPE  H12X 7701   2.385   4.684   4.442 -2.4777 -0.0491  0.1433
   83SOPE  H12Y 7702   2.268   4.790   4.526 -0.3884  1.4521  0.5576
   83SOPE  C313 7703   2.472   4.848   4.559 -0.1832  0.2674  0.2744
   83SOPE  H13X 7704   2.463   4.957   4.581  2.6981  0.6195  0.0497
   83SOPE  H13Y 7705   2.574   4.831   4.518  0.2922  4.3954 -0.7150
   83SOPE  C314 7706   2.465   4.778   4.698  0.3828  0.8609 -0.7093
   83SOPE  H14X 7707   2.363   4.770   4.741  0.3457 -0.3527 -0.9878
   83SOPE  H14Y 7708   2.519   4.831   4.780  0.8267 -1.4125  0.5612
   83SOPE  C315 7709   2.528   4.637   4.698 -0.7221  0.0726  0.2359
   83SOPE  H15X 7710   2.633   4.653   4.665  0.5565  0.0800  3.8847
   83SOPE  H15Y 7711   2.481   4.582   4.613  1.2995  0.5441 -1.2537
   83SOPE  C316 7712   2.505   4.556   4.825 -0.2543 -0.3665  0.3497
   83SOPE  H16X 7713   2.397   4.539   4.842 -0.4185  0.7884  0.6005
   83SOPE  H16Y 7714   2.547   4.610   4.913  0.4456 -0.3050 -0.0113
   83SOPE  C317 7715   2.570   4.422   4.806  0.5549  0.5740  0.1857
   83SOPE  H17X 7716   2.679   4.432   4.789  0.8428  0.3413  1.7576
   83SOPE  H17Y 7717   2.509   4.368   4.730  0.7906 -2.9550  2.2770
   83SOPE  C318 7718   2.555   4.326   4.931  0.0358 -0.7285 -0.5383
   83SOPE  H18X 7719   2.604   4.378   5.015 -0.8428 -0.0540 -0.4197
   83SOPE  H18Y 7720   2.596   4.223   4.925 -3.0726 -2.1189 -0.2589
   83SOPE  H18Z 7721   2.447   4.302   4.949  0.2105 -1.6689 -0.6706
   84SOPE     N 7722   1.843   2.094   7.315  0.0962  0.1269  0.6576
   84SOPE   HN1 7723   1.923   2.122   7.255  1.7124 -1.4259  1.9810
   84SOPE   HN2 7724   1.843   1.991   7.330  1.0029 -0.1392 -0.8905
   84SOPE   HN3 7725   1.755   2.126   7.271 -0.7813  0.3413  2.4787
   84SOPE   C12 7726   1.858   2.167   7.443  0.6541 -0.6924 -0.5901
   84SOPE  H12A 7727   1.945   2.130   7.501  2.2895  2.2403 -0.9804
   84SOPE  H12B 7728   1.766   2.153   7.504 -0.1126  2.1206 -0.9684
   84SOPE   C11 7729   1.880   2.319   7.423 -0.0758  0.9388 -0.0067
   84SOPE  H11A 7730   1.881   2.356   7.528  1.2592  1.2804 -0.1299
   84SOPE  H11B 7731   1.800   2.370   7.365 -1.3913  1.5377  2.1885
   84SOPE     P 7732   2.090   2.469   7.370 -0.2393  0.6388  0.8022
   84SOPE   O13 7733   2.225   2.440   7.412  0.2853 -0.6801 -0.3980
   84SOPE   O14 7734   2.017   2.566   7.447  0.3811 -0.3146  0.5021
   84SOPE   O12 7735   2.002   2.342   7.357 -0.4188 -0.2098 -0.1231
   84SOPE   O11 7736   2.091   2.515   7.218  0.3586 -0.9392 -0.4664
   84SOPE    C1 7737   1.973   2.550   7.142 -0.6663 -0.3617 -0.0699
   84SOPE    HA 7738   1.974   2.655   7.107  3.1018  0.3700  1.7488
   84SOPE    HB 7739   1.882   2.535   7.204 -0.5816 -1.3792 -0.1647
   84SOPE    C2 7740   1.942   2.440   7.030 -0.3647  0.0580  0.6053
   84SOPE    HS 7741   1.950   2.339   7.075 -2.5175  0.5508  2.2647
   84SOPE   O21 7742   2.031   2.471   6.921 -0.5529  0.0407 -0.7984
   84SOPE   C21 7743   2.132   2.387   6.908  0.3079  0.0627 -0.3169
   84SOPE   O22 7744   2.122   2.269   6.946  0.5397 -0.6357  0.4638
   84SOPE   C22 7745   2.253   2.453   6.838 -0.1180 -0.2407  0.3208
   84SOPE   H2R 7746   2.323   2.476   6.922  2.8153 -2.3758 -1.3777
   84SOPE   H2S 7747   2.222   2.550   6.794 -2.3821 -0.3189  1.5990
   84SOPE    C3 7748   1.792   2.459   6.979  0.2651  0.6572 -0.5529
   84SOPE    HX 7749   1.791   2.555   6.923 -1.2632 -0.5818 -2.7763
   84SOPE    HY 7750   1.714   2.462   7.058 -0.9710 -0.9817 -1.6617
   84SOPE   O31 7751   1.751   2.357   6.884 -0.5334 -0.0500  0.2558
   84SOPE   C31 7752   1.743   2.233   6.932 -0.1998 -0.2851 -0.2810
   84SOPE   O32 7753   1.753   2.199   7.048 -0.5040 -0.3470 -0.1817
   84SOPE   C32 7754   1.734   2.134   6.815  0.3246 -0.1074 -0.0748
   84SOPE   H2X 7755   1.680   2.040   6.840 -0.2770  0.2414 -0.0506
   84SOPE   H2Y 7756   1.842   2.116   6.795  0.0074 -1.0611 -1.0627
   84SOPE   C23 7757   2.328   2.357   6.741  0.3194 -0.1586  0.2662
   84SOPE   H3R 7758   2.330   2.251   6.775 -0.5938  0.0673  1.0548
   84SOPE   H3S 7759   2.433   2.389   6.723  0.5623 -1.8048 -1.5693
   84SOPE   C24 7760   2.250   2.350   6.603 -0.3060  0.1988 -0.4343
   84SOPE   H4R 7761   2.147   2.318   6.632 -0.0034  0.3062  0.8097
   84SOPE   H4S 7762   2.247   2.451   6.555 -2.8328  1.3128  1.7959
   84SOPE   C25 7763   2.306   2.256   6.491  0.4165 -0.6888 -0.3528
   84SOPE   H5R 7764   2.405   2.296   6.457 -0.1260 -2.5029 -4.6923
   84SOPE   H5S 7765   2.325   2.154   6.530 -0.5217 -0.0757  1.7905
   84SOPE   C26 7766   2.207   2.246   6.374  0.1791 -0.4136  0.6647
   84SOPE   H6R 7767   2.113   2.208   6.419 -1.1865  0.7031 -1.1421
   84SOPE   H6S 7768   2.184   2.342   6.325 -1.8028 -0.2545  1.7977
   84SOPE   C27 7769   2.253   2.142   6.268  0.5191 -0.1037  0.0828
   84SOPE   H7R 7770   2.349   2.177   6.225  0.7220  0.9844  1.3578
   84SOPE   H7S 7771   2.264   2.045   6.321  0.0320 -0.3572 -0.2703
   84SOPE   C28 7772   2.140   2.100   6.166  0.1760  0.6384  0.0160
   84SOPE   H8R 7773   2.158   1.999   6.124  0.3418  1.3164 -1.5772
   84SOPE   H8S 7774   2.039   2.095   6.214  0.4317 -0.0191  0.4972
   84SOPE   C29 7775   2.130   2.208   6.053 -0.1099 -0.2029 -0.6271
   84SOPE   H91 7776   2.142   2.310   6.092  0.9095 -0.3262 -0.5928
   84SOPE  C210 7777   2.126   2.194   5.919 -0.0481  0.3492 -0.2663
   84SOPE  H101 7778   2.121   2.286   5.859  2.0709 -0.4275 -1.7484
   84SOPE  C211 7779   2.118   2.072   5.843 -0.4536 -0.1984 -0.3387
   84SOPE  H11R 7780   2.062   1.994   5.899  0.4980 -0.4372  0.2967
   84SOPE  H11S 7781   2.217   2.035   5.808  1.2057  3.3714  0.1856
   84SOPE  C212 7782   2.025   2.095   5.717 -0.6659 -0.2445 -0.1567
   84SOPE  H12R 7783   1.937   2.153   5.753 -1.3377  0.2482 -2.4690
   84SOPE  H12S 7784   1.977   2.001   5.681 -3.3026  2.0299 -3.0455
   84SOPE  C213 7785   2.094   2.172   5.604  0.2965 -0.0369 -0.0312
   84SOPE  H13R 7786   2.204   2.158   5.601  0.6198  2.2233 -0.5841
   84SOPE  H13S 7787   2.082   2.281   5.621 -2.2206 -0.0426 -1.2995
   84SOPE  C214 7788   2.035   2.144   5.468  0.6589 -0.0103  0.0305
   84SOPE  H14R 7789   1.927   2.172   5.469  0.7196  0.2298 -0.2810
   84SOPE  H14S 7790   2.025   2.034   5.461 -1.3354  0.1143  0.3692
   84SOPE  C215 7791   2.092   2.201   5.333  0.3519  0.3392 -0.1495
   84SOPE  H15R 7792   2.079   2.310   5.349 -2.8864  0.2256 -1.3498
   84SOPE  H15S 7793   2.028   2.167   5.249 -0.1713 -3.6054  1.6350
   84SOPE  C216 7794   2.243   2.154   5.310  0.2421  0.3797  0.3389
   84SOPE  H16R 7795   2.242   2.045   5.331 -0.9413  0.4148  0.5423
   84SOPE  H16S 7796   2.317   2.190   5.384 -0.8741  0.9227  1.2077
   84SOPE  C217 7797   2.283   2.191   5.168 -0.1936  0.0638 -0.3119
   84SOPE  H17R 7798   2.271   2.301   5.164  1.5582  0.2901 -0.0489
   84SOPE  H17S 7799   2.213   2.157   5.089 -3.4721  1.9890  1.5674
   84SOPE  C218 7800   2.428   2.152   5.141  0.6003  0.7593 -0.2902
   84SOPE  H18R 7801   2.485   2.231   5.088  1.3033  0.2004 -0.3942
   84SOPE  H18S 7802   2.435   2.049   5.100 -2.9412 -0.2207  1.2306
   84SOPE  H18T 7803   2.481   2.143   5.239  2.5946  1.1375 -1.2835
   84SOPE   C33 7804   1.679   2.193   6.680  0.0796 -0.0793 -0.4356
   84SOPE   H3X 7805   1.729   2.292   6.667 -0.1841  0.4577  2.1117
   84SOPE   H3Y 7806   1.570   2.216   6.678  0.2549  0.7619 -1.9735
   84SOPE   C34 7807   1.710   2.114   6.560 -0.6212  0.1644  0.0036
   84SOPE   H4X 7808   1.678   2.008   6.560 -0.1276 -0.0283  2.0319
   84SOPE   H4Y 7809   1.821   2.120   6.556 -0.5550  1.8401  2.3988
   84SOPE   C35 7810   1.644   2.183   6.435 -0.1481  0.2327 -0.7773
   84SOPE   H5X 7811   1.688   2.284   6.424  0.8910  0.3545  3.1276
   84SOPE   H5Y 7812   1.533   2.192   6.439 -0.1876 -0.7113  0.9591
   84SOPE   C36 7813   1.657   2.089   6.309  0.4922 -0.6161 -0.6506
   84SOPE   H6X 7814   1.594   1.999   6.322 -0.2309 -0.4770 -2.7924
   84SOPE   H6Y 7815   1.762   2.052   6.308 -0.0149 -2.1241 -0.1701
   84SOPE   C37 7816   1.629   2.163   6.177 -0.4922 -0.3788  0.1119
   84SOPE   H7X 7817   1.692   2.254   6.186  0.0310 -0.8204  1.1777
   84SOPE   H7Y 7818   1.519   2.172   6.182 -0.5472  0.2915 -1.6557
   84SOPE   C38 7819   1.650   2.073   6.052  0.0561  0.2810  0.3826
   84SOPE   H8X 7820   1.633   1.967   6.080  2.4696  0.2221  1.8780
   84SOPE   H8Y 7821   1.759   2.082   6.032  0.3348  1.1173  2.0696
   84SOPE   C39 7822   1.568   2.126   5.936 -0.0671 -0.0850 -0.5167
   84SOPE   H9X 7823   1.582   2.233   5.912 -0.3925 -0.2204 -1.3438
   84SOPE   H9Y 7824   1.460   2.104   5.954 -0.0823  0.0152 -0.4880
   84SOPE  C310 7825   1.607   2.069   5.792  0.3729  0.4641 -0.0006
   84SOPE  H10X 7826   1.609   1.959   5.806  0.5307  0.2828 -1.2854
   84SOPE  H10Y 7827   1.700   2.099   5.739  0.0719 -0.8579 -1.3732
   84SOPE  C311 7828   1.488   2.105   5.699  0.0891 -0.1981  0.5376
   84SOPE  H11X 7829   1.470   2.214   5.710  0.4703 -0.1075  0.3044
   84SOPE  H11Y 7830   1.397   2.051   5.729  1.2724 -1.7746  1.4284
   84SOPE  C312 7831   1.514   2.062   5.553 -0.5720 -0.2984  0.5695
   84SOPE  H12X 7832   1.416   2.085   5.505 -0.3544 -0.3882  0.0811
   84SOPE  H12Y 7833   1.531   1.954   5.535 -0.9573 -0.2006 -0.4765
   84SOPE  C313 7834   1.628   2.150   5.488  0.3799 -0.1707  0.2060
   84SOPE  H13X 7835   1.725   2.104   5.520  0.0019 -1.8980 -0.9745
   84SOPE  H13Y 7836   1.624   2.258   5.512 -1.3381  0.5528 -2.7898
   84SOPE  C314 7837   1.628   2.142   5.334 -0.1478  0.2649  0.3728
   84SOPE  H14X 7838   1.635   2.034   5.310  1.6036 -0.0416  2.0304
   84SOPE  H14Y 7839   1.719   2.196   5.298  0.6273  0.8032  2.9269
   84SOPE  C315 7840   1.510   2.205   5.262  0.1618  0.3230 -0.0834
   84SOPE  H15X 7841   1.423   2.153   5.307  0.0455  1.7749  1.5206
   84SOPE  H15Y 7842   1.519   2.170   5.158 -0.8867  1.4881 -0.5899
   84SOPE  C316 7843   1.497   2.357   5.289  0.0175  0.1791 -0.2973
   84SOPE  H16X 7844   1.458   2.359   5.393  0.7787 -2.7348  0.1512
   84SOPE  H16Y 7845   1.416   2.399   5.225  0.5794  0.3054 -0.9304
   84SOPE  C317 7846   1.627   2.434   5.265  0.8939 -0.2172 -0.2769
   84SOPE  H17X 7847   1.715   2.413   5.329  1.4756 -0.7228 -1.2059
   84SOPE  H17Y 7848   1.595   2.538   5.283 -0.1940 -0.6805  0.5775
   84SOPE  C318 7849   1.668   2.412   5.120 -0.3464 -0.7111  0.1651
   84SOPE  H18X 7850   1.706   2.310   5.100 -0.3773 -0.4200 -1.5879
   84SOPE  H18Y 7851   1.750   2.482   5.091 -1.2046 -0.4439 -1.8090
   84SOPE  H18Z 7852   1.585   2.420   5.046  1.6002  0.0250 -2.0744
   85SOPE     N 7853   6.664   4.832   2.557  0.5073  0.2746  0.2567
   85SOPE   HN1 7854   6.721   4.919   2.564 -0.8504  1.2789 -0.6675
   85SOPE   HN2 7855   6.676   4.799   2.459  1.3970 -0.5492  0.6192
   85SOPE   HN3 7856   6.563   4.849   2.571  0.5261  0.1891  0.4992
   85SOPE   C12 7857   6.708   4.721   2.650  0.8788 -0.2509  0.5113
   85SOPE  H12A 7858   6.817   4.704   2.635  1.2752  2.5257 -0.3263
   85SOPE  H12B 7859   6.649   4.632   2.619 -1.0285  1.5628 -1.3728
   85SOPE   C11 7860   6.676   4.744   2.799  0.5842 -0.5639  0.6516
   85SOPE  H11A 7861   6.703   4.852   2.802  1.4186 -0.7580  0.5473
   85SOPE  H11B 7862   6.750   4.688   2.860  2.6606 -1.8925 -2.8140
   85SOPE     P 7863   6.450   4.820   2.906 -0.1667  0.0371 -0.2000
   85SOPE   O13 7864   6.323   4.757   2.956  0.0916  0.2794  0.1821
   85SOPE   O14 7865   6.438   4.936   2.823  0.2858  0.0963 -0.2994
   85SOPE   O12 7866   6.536   4.714   2.819 -0.7240  0.5763 -0.3423
   85SOPE   O11 7867   6.548   4.849   3.023 -0.2291 -0.1984  0.1150
   85SOPE    C1 7868   6.580   4.761   3.124  0.0291  0.1990 -0.3107
   85SOPE    HA 7869   6.646   4.682   3.082  1.1007  0.6089  0.5467
   85SOPE    HB 7870   6.491   4.712   3.170  0.8050 -0.1255  0.8952
   85SOPE    C2 7871   6.665   4.823   3.233 -0.8838  0.7423 -0.4733
   85SOPE    HS 7872   6.653   4.743   3.309  0.0126  1.5492  0.5463
   85SOPE   O21 7873   6.611   4.950   3.274 -0.2328  0.4413  0.0583
   85SOPE   C21 7874   6.495   4.945   3.338  0.0596 -0.7669  0.5525
   85SOPE   O22 7875   6.439   4.841   3.368  0.0058  0.0882 -0.0142
   85SOPE   C22 7876   6.442   5.084   3.374  0.0838  0.7072 -0.1838
   85SOPE   H2R 7877   6.447   5.142   3.280 -1.6970  0.6924 -0.3118
   85SOPE   H2S 7878   6.521   5.126   3.440 -0.4405  2.6583 -0.7281
   85SOPE    C3 7879   6.809   4.837   3.188 -0.1673 -0.1987 -0.1139
   85SOPE    HX 7880   6.798   4.925   3.121 -0.2832 -0.1513 -0.0325
   85SOPE    HY 7881   6.835   4.748   3.126  2.2642  1.5587 -1.8098
   85SOPE   O31 7882   6.905   4.855   3.292  0.3990 -0.1355  0.0033
   85SOPE   C31 7883   6.935   4.752   3.371 -0.5689  0.2574 -0.0650
   85SOPE   O32 7884   6.905   4.635   3.344  0.2467 -0.7517  0.0175
   85SOPE   C32 7885   7.021   4.799   3.492  0.8518  0.1830 -0.9329
   85SOPE   H2X 7886   7.010   4.909   3.503  0.0400  0.2828 -2.5019
   85SOPE   H2Y 7887   7.129   4.777   3.476  0.9993  1.0853 -1.2220
   85SOPE   C23 7888   6.296   5.085   3.426  0.2538  0.0778 -0.0166
   85SOPE   H3R 7889   6.235   5.036   3.348  0.2497 -0.1674  0.1395
   85SOPE   H3S 7890   6.268   5.192   3.435  1.2630  0.2845  0.7998
   85SOPE   C24 7891   6.276   5.010   3.566  0.4981  0.0780  0.4256
   85SOPE   H4R 7892   6.213   4.922   3.540  0.5409  0.5049 -1.2230
   85SOPE   H4S 7893   6.370   4.972   3.611  0.4888 -0.3676  0.0736
   85SOPE   C25 7894   6.185   5.082   3.661  0.2923 -0.3685 -0.1531
   85SOPE   H5R 7895   6.235   5.176   3.693  1.7850 -0.9536 -0.7208
   85SOPE   H5S 7896   6.085   5.119   3.628  0.6719  1.1619  0.2981
   85SOPE   C26 7897   6.159   4.993   3.792  0.1008 -0.4971 -0.3184
   85SOPE   H6R 7898   6.052   4.967   3.802  0.1138 -1.1779 -1.8566
   85SOPE   H6S 7899   6.223   4.903   3.795  0.8060 -0.0372  3.0441
   85SOPE   C27 7900   6.206   5.061   3.923 -0.1316  0.3176  0.9127
   85SOPE   H7R 7901   6.305   5.105   3.897  0.0385  0.4605  1.7650
   85SOPE   H7S 7902   6.143   5.150   3.946 -1.5872 -0.8294  1.5485
   85SOPE   C28 7903   6.207   4.967   4.046 -0.1661 -0.6290 -0.1960
   85SOPE   H8R 7904   6.257   4.876   4.006 -0.9611 -0.8156 -0.8058
   85SOPE   H8S 7905   6.286   5.001   4.116 -0.5036  0.7141 -0.4460
   85SOPE   C29 7906   6.080   4.931   4.108 -0.0395  0.2824  0.4131
   85SOPE   H91 7907   6.004   4.890   4.040  2.2621 -2.1484 -0.8670
   85SOPE  C210 7908   6.053   4.953   4.237  0.3091  0.4166  0.2733
   85SOPE  H101 7909   5.950   4.935   4.272  0.5945  1.8004  2.0237
   85SOPE  C211 7910   6.144   5.020   4.340 -0.3794 -0.0693  0.8059
   85SOPE  H11R 7911   6.092   5.115   4.366 -0.6583  0.1732 -0.5175
   85SOPE  H11S 7912   6.247   5.049   4.311 -0.2935 -0.7149  0.4486
   85SOPE  C212 7913   6.150   4.931   4.464 -0.7323  0.0308 -0.2316
   85SOPE  H12R 7914   6.206   4.837   4.447  0.0536  0.5562 -0.5751
   85SOPE  H12S 7915   6.045   4.911   4.494 -0.4492 -0.8135  0.2201
   85SOPE  C213 7916   6.207   5.000   4.585  0.6653  0.5657 -0.1811
   85SOPE  H13R 7917   6.144   5.087   4.615 -0.9664  0.1499 -2.2339
   85SOPE  H13S 7918   6.302   5.050   4.553  1.5869  0.0908  1.6490
   85SOPE  C214 7919   6.242   4.906   4.701  1.0484 -0.2623 -0.0649
   85SOPE  H14R 7920   6.279   4.962   4.789  0.6225  0.1240 -0.1283
   85SOPE  H14S 7921   6.332   4.847   4.671  2.9656  2.2317  0.4767
   85SOPE  C215 7922   6.127   4.810   4.742 -0.2724  0.1569  0.1187
   85SOPE  H15R 7923   6.097   4.740   4.661  0.4469  0.4218 -0.3865
   85SOPE  H15S 7924   6.029   4.858   4.764 -1.7244 -2.8271  0.6886
   85SOPE  C216 7925   6.171   4.727   4.867 -0.5161  0.6428  0.3100
   85SOPE  H16R 7926   6.212   4.797   4.942  0.0260  2.1811 -1.3496
   85SOPE  H16S 7927   6.259   4.667   4.835 -0.6680  0.7039 -0.2491
   85SOPE  C217 7928   6.064   4.640   4.934 -0.1753  0.7948  0.2513
   85SOPE  H17R 7929   6.003   4.586   4.859  1.1986 -0.6224  0.1104
   85SOPE  H17S 7930   5.993   4.710   4.983  0.0114  1.0802  0.1193
   85SOPE  C218 7931   6.124   4.539   5.029 -0.6183  0.2592 -0.2907
   85SOPE  H18R 7932   6.040   4.484   5.077 -0.0766  0.7134  1.2075
   85SOPE  H18S 7933   6.188   4.579   5.110  0.3851  1.5979 -1.6848
   85SOPE  H18T 7934   6.182   4.461   4.974  1.4218  1.4921  0.0249
   85SOPE   C33 7935   6.980   4.732   3.635 -0.3667  0.3089  0.6862
   85SOPE   H3X 7936   7.055   4.771   3.706 -1.0938  2.3527  0.4002
   85SOPE   H3Y 7937   6.973   4.622   3.624  1.1425 -0.0818  3.1693
   85SOPE   C34 7938   6.848   4.787   3.693 -0.6371 -0.7474  0.3989
   85SOPE   H4X 7939   6.771   4.765   3.616 -3.0082  1.2362  2.0286
   85SOPE   H4Y 7940   6.846   4.898   3.699  1.5625 -0.6822  0.7386
   85SOPE   C35 7941   6.821   4.722   3.822 -0.3210  0.3536 -0.5839
   85SOPE   H5X 7942   6.914   4.728   3.883 -0.9021  1.9626  0.1912
   85SOPE   H5Y 7943   6.806   4.614   3.802  0.9491  0.0868 -0.1772
   85SOPE   C36 7944   6.707   4.794   3.901 -0.1948 -0.5569 -0.4397
   85SOPE   H6X 7945   6.610   4.779   3.850  0.2159 -2.6310 -0.6813
   85SOPE   H6Y 7946   6.738   4.900   3.890 -2.3951  0.4240  1.7979
   85SOPE   C37 7947   6.720   4.766   4.052 -0.4931  0.6164 -0.5394
   85SOPE   H7X 7948   6.825   4.772   4.086 -0.8345  1.5911  0.3753
   85SOPE   H7Y 7949   6.679   4.663   4.063 -0.4697  0.7821  1.3284
   85SOPE   C38 7950   6.650   4.874   4.140  0.1624  0.1143 -0.4049
   85SOPE   H8X 7951   6.539   4.872   4.134 -0.0418  3.5665  0.2326
   85SOPE   H8Y 7952   6.679   4.975   4.103  0.3911 -0.4743 -1.9324
   85SOPE   C39 7953   6.685   4.846   4.287 -0.0052 -0.1668  0.0468
   85SOPE   H9X 7954   6.661   4.937   4.348  1.9286  0.0226  0.6152
   85SOPE   H9Y 7955   6.796   4.835   4.288  0.2789  1.8832 -1.6154
   85SOPE  C310 7956   6.623   4.720   4.364  0.4199  0.1244 -0.0958
   85SOPE  H10X 7957   6.656   4.707   4.469  0.7967 -0.3518 -0.2685
   85SOPE  H10Y 7958   6.657   4.632   4.305  0.3899 -0.4513  0.7329
   85SOPE  C311 7959   6.467   4.730   4.355 -0.1071 -0.4665 -0.0617
   85SOPE  H11X 7960   6.446   4.717   4.247 -0.6071  0.4202 -0.0829
   85SOPE  H11Y 7961   6.436   4.833   4.382 -2.7352 -1.1079 -0.3203
   85SOPE  C312 7962   6.396   4.611   4.427  0.1549  0.7500 -0.9625
   85SOPE  H12X 7963   6.287   4.627   4.409 -0.2599 -1.2816 -0.5449
   85SOPE  H12Y 7964   6.416   4.617   4.536 -0.6246  0.0464 -0.7686
   85SOPE  C313 7965   6.437   4.473   4.374  0.5286  0.1504 -0.1500
   85SOPE  H13X 7966   6.546   4.461   4.390  0.3989 -0.2672  0.4479
   85SOPE  H13Y 7967   6.424   4.491   4.265 -1.6029  2.3739  0.3757
   85SOPE  C314 7968   6.353   4.354   4.414 -0.3949  0.1096 -0.8506
   85SOPE  H14X 7969   6.393   4.280   4.341  0.2075  1.5853 -2.0664
   85SOPE  H14Y 7970   6.245   4.373   4.395 -0.2287  2.0934 -0.0334
   85SOPE  C315 7971   6.386   4.301   4.558  0.1235 -0.6985 -0.1909
   85SOPE  H15X 7972   6.309   4.346   4.625 -1.3465 -1.3514 -1.3972
   85SOPE  H15Y 7973   6.491   4.332   4.576  0.3778 -0.4661 -1.9025
   85SOPE  C316 7974   6.363   4.156   4.570 -0.1504  0.1735 -0.2151
   85SOPE  H16X 7975   6.371   4.099   4.475 -2.1906  2.6119 -2.0205
   85SOPE  H16Y 7976   6.259   4.138   4.605 -0.0818  2.0042  1.1234
   85SOPE  C317 7977   6.456   4.090   4.673  0.0087 -0.5578 -0.4090
   85SOPE  H17X 7978   6.562   4.108   4.646 -0.8272  1.4046 -2.7959
   85SOPE  H17Y 7979   6.429   3.984   4.653  0.6881 -0.8533  0.2235
   85SOPE  C318 7980   6.420   4.124   4.815 -0.2676 -0.6774 -0.7181
   85SOPE  H18X 7981   6.480   4.055   4.878 -0.1756 -1.3858 -1.5564
   85SOPE  H18Y 7982   6.313   4.099   4.831 -0.4199  0.0574 -0.5622
   85SOPE  H18Z 7983   6.440   4.233   4.826  2.4126 -0.9964 -1.6108
   86SOPE     N 7984   2.680   1.863   2.300 -0.1131 -0.3683 -0.1078
   86SOPE   HN1 7985   2.583   1.878   2.266  0.0759  1.5488  0.0357
   86SOPE   HN2 7986   2.752   1.896   2.233  0.0288 -1.4674 -0.5041
   86SOPE   HN3 7987   2.689   1.760   2.312  2.4126 -0.0407  1.6930
   86SOPE   C12 7988   2.714   1.921   2.436  0.2522  0.2353 -0.5677
   86SOPE  H12A 7989   2.653   1.869   2.513 -0.1857  2.7467  0.8874
   86SOPE  H12B 7990   2.698   2.031   2.439 -0.2980  0.1282  1.6982
   86SOPE   C11 7991   2.858   1.892   2.477 -0.1014 -0.4224  0.6849
   86SOPE  H11A 7992   2.864   1.897   2.588 -2.0248 -2.2024  0.9291
   86SOPE  H11B 7993   2.929   1.972   2.448  0.3785  0.9057  4.7905
   86SOPE     P 7994   3.052   1.729   2.460  0.2657 -0.1333 -0.1414
   86SOPE   O13 7995   3.123   1.834   2.530  0.5677 -0.9192  0.4974
   86SOPE   O14 7996   3.109   1.663   2.339  0.3369 -0.1399 -0.0275
   86SOPE   O12 7997   2.900   1.757   2.430 -0.2656 -0.1279  0.1215
   86SOPE   O11 7998   3.042   1.612   2.564 -0.4449 -0.8508  0.2080
   86SOPE    C1 7999   2.976   1.633   2.692  0.2128  0.1823  0.4839
   86SOPE    HA 8000   2.906   1.548   2.709  0.6891 -0.3122  0.0280
   86SOPE    HB 8001   2.915   1.725   2.704  0.7172  0.3440  2.0702
   86SOPE    C2 8002   3.075   1.644   2.816 -0.4343  0.8686 -0.0110
   86SOPE    HS 8003   3.158   1.701   2.769 -1.6326 -0.6345 -4.3610
   86SOPE   O21 8004   3.111   1.510   2.854 -0.8348 -0.4334 -0.3129
   86SOPE   C21 8005   3.227   1.484   2.926  0.8161  0.4208  0.7156
   86SOPE   O22 8006   3.308   1.566   2.956  0.4572 -0.0159 -0.1135
   86SOPE   C22 8007   3.249   1.330   2.932  0.3185  0.1128  0.0936
   86SOPE   H2R 8008   3.325   1.311   2.853 -0.0536  1.0678 -0.5070
   86SOPE   H2S 8009   3.149   1.287   2.912  0.4293  0.3435 -1.0006
   86SOPE    C3 8010   3.016   1.719   2.944 -0.6029  0.3262  0.0875
   86SOPE    HX 8011   2.910   1.686   2.954 -0.2491 -0.4937  1.2113
   86SOPE    HY 8012   3.014   1.830   2.932 -1.1806  0.3921  0.7807
   86SOPE   O31 8013   3.088   1.692   3.068  0.1567  0.5948 -0.4877
   86SOPE   C31 8014   3.037   1.752   3.180  0.2080  0.2203 -0.0771
   86SOPE   O32 8015   2.940   1.825   3.182  0.0415  0.4735 -0.2719
   86SOPE   C32 8016   3.102   1.696   3.303  0.0946  0.5182  0.1103
   86SOPE   H2X 8017   3.210   1.707   3.279 -0.3820 -0.8084 -3.1315
   86SOPE   H2Y 8018   3.073   1.589   3.306  1.4049  0.1468  0.3945
   86SOPE   C23 8019   3.323   1.313   3.070  0.0879 -0.1503  0.2235
   86SOPE   H3R 8020   3.425   1.357   3.067  0.6501 -1.2774  1.4747
   86SOPE   H3S 8021   3.336   1.203   3.077  2.5584  0.0577 -0.1611
   86SOPE   C24 8022   3.249   1.357   3.194 -0.0598  0.4484 -0.4309
   86SOPE   H4R 8023   3.247   1.468   3.198 -0.2633  0.4732 -1.2113
   86SOPE   H4S 8024   3.148   1.314   3.184  0.1784 -0.5491  1.1266
   86SOPE   C25 8025   3.326   1.298   3.317 -0.9262 -0.4220  0.4306
   86SOPE   H5R 8026   3.315   1.188   3.322  1.1300 -0.8940 -2.6516
   86SOPE   H5S 8027   3.433   1.323   3.299 -1.6156  0.6251 -2.7581
   86SOPE   C26 8028   3.277   1.359   3.450  0.0665 -0.1222  0.3259
   86SOPE   H6R 8029   3.256   1.463   3.414  2.3222  0.4056  0.3943
   86SOPE   H6S 8030   3.184   1.308   3.482  0.9539 -1.0418  1.4996
   86SOPE   C27 8031   3.386   1.372   3.551 -0.3046 -0.0924  0.7262
   86SOPE   H7R 8032   3.425   1.272   3.579 -1.2081 -0.6052  0.2002
   86SOPE   H7S 8033   3.465   1.433   3.501 -1.7317  1.5483  0.3757
   86SOPE   C28 8034   3.342   1.442   3.685 -0.8475  0.4548 -0.6488
   86SOPE   H8R 8035   3.429   1.469   3.749 -0.4406  1.8031 -1.7100
   86SOPE   H8S 8036   3.300   1.541   3.659 -1.8254  1.1346  2.9996
   86SOPE   C29 8037   3.243   1.359   3.767 -0.4117  0.2893  0.1927
   86SOPE   H91 8038   3.168   1.307   3.705 -0.3336 -0.4046  0.6595
   86SOPE  C210 8039   3.232   1.329   3.904 -0.4429 -0.5302  0.2253
   86SOPE  H101 8040   3.153   1.265   3.945 -1.9375  2.6240  2.7099
   86SOPE  C211 8041   3.341   1.376   4.003 -0.5871  0.2608 -0.0393
   86SOPE  H11R 8042   3.359   1.485   4.004 -0.9884  0.3276 -0.0059
   86SOPE  H11S 8043   3.443   1.336   3.983  0.1731  0.1149  3.5279
   86SOPE  C212 8044   3.307   1.332   4.148 -0.1211 -0.0337  0.2233
   86SOPE  H12R 8045   3.355   1.236   4.178 -1.9982 -1.4943 -1.2232
   86SOPE  H12S 8046   3.198   1.332   4.164 -0.0568  1.2391  0.8604
   86SOPE  C213 8047   3.370   1.433   4.242 -0.2492 -0.0910  0.0619
   86SOPE  H13R 8048   3.342   1.540   4.227  2.0075  0.8006  1.6764
   86SOPE  H13S 8049   3.480   1.426   4.233 -0.3644 -2.2351 -0.0433
   86SOPE  C214 8050   3.324   1.390   4.382  0.1137 -0.6668 -0.0595
   86SOPE  H14R 8051   3.304   1.282   4.393 -2.5635 -0.1589  0.8229
   86SOPE  H14S 8052   3.240   1.459   4.404  0.6552  0.2081 -0.6758
   86SOPE  C215 8053   3.433   1.420   4.477  0.5537 -0.2396 -0.3757
   86SOPE  H15R 8054   3.445   1.530   4.474 -1.2868 -0.0282 -1.7308
   86SOPE  H15S 8055   3.525   1.364   4.449  2.2062  0.3480  3.2656
   86SOPE  C216 8056   3.392   1.385   4.621  0.7030 -0.0891  0.0293
   86SOPE  H16R 8057   3.356   1.280   4.617 -1.5738  0.6672 -3.1855
   86SOPE  H16S 8058   3.309   1.450   4.656  2.4574  2.2817  0.0118
   86SOPE  C217 8059   3.508   1.409   4.716 -0.2628 -0.5917 -0.1489
   86SOPE  H17R 8060   3.527   1.517   4.732 -0.5405 -0.6190  0.3896
   86SOPE  H17S 8061   3.593   1.377   4.652  0.4320  1.1524 -0.1382
   86SOPE  C218 8062   3.513   1.343   4.849  0.4126 -0.1361  0.2220
   86SOPE  H18R 8063   3.605   1.376   4.902 -0.0583 -1.9889  2.3775
   86SOPE  H18S 8064   3.516   1.232   4.844  1.9675 -0.3250  3.0466
   86SOPE  H18T 8065   3.432   1.362   4.923 -0.5179 -2.8875  0.0350
   86SOPE   C33 8066   3.056   1.762   3.436  0.3014 -1.1375 -0.3701
   86SOPE   H3X 8067   2.946   1.772   3.452  0.6367  0.1411  1.3941
   86SOPE   H3Y 8068   3.093   1.866   3.428 -0.3606 -0.8332  0.3829
   86SOPE   C34 8069   3.109   1.693   3.564  0.0640 -0.4809  0.1918
   86SOPE   H4X 8070   3.219   1.680   3.559 -0.0483 -1.2429 -4.0258
   86SOPE   H4Y 8071   3.073   1.588   3.572  1.4230 -0.9780  0.1500
   86SOPE   C35 8072   3.060   1.766   3.692  0.6209 -0.2271  0.2830
   86SOPE   H5X 8073   2.951   1.790   3.696  0.3646 -1.3890  0.8165
   86SOPE   H5Y 8074   3.121   1.854   3.663  0.4960 -0.8307 -2.0809
   86SOPE   C36 8075   3.093   1.711   3.826 -0.9951 -0.7007  0.2646
   86SOPE   H6X 8076   3.191   1.659   3.821 -1.5433 -1.9607  1.7279
   86SOPE   H6Y 8077   3.020   1.638   3.865 -0.9764 -0.0829  1.5002
   86SOPE   C37 8078   3.101   1.811   3.939  0.1885  0.6977 -0.2982
   86SOPE   H7X 8079   2.994   1.830   3.961 -0.4177 -1.6327 -0.9942
   86SOPE   H7Y 8080   3.150   1.905   3.905  0.2511 -0.4842 -3.9199
   86SOPE   C38 8081   3.178   1.761   4.067  1.2316  0.0546  0.1793
   86SOPE   H8X 8082   3.288   1.781   4.062  0.7060  3.0281 -1.9161
   86SOPE   H8Y 8083   3.142   1.657   4.082 -2.2926  0.9174 -1.3391
   86SOPE   C39 8084   3.138   1.841   4.189  0.2917 -0.3545 -0.4267
   86SOPE   H9X 8085   3.031   1.824   4.212  0.3227 -1.3725 -0.9438
   86SOPE   H9Y 8086   3.158   1.945   4.158 -0.6945 -0.6037 -2.0412
   86SOPE  C310 8087   3.211   1.808   4.324 -0.1388 -0.0378 -0.2520
   86SOPE  H10X 8088   3.319   1.834   4.312  0.7998 -3.1085  0.5906
   86SOPE  H10Y 8089   3.207   1.699   4.343  2.2353 -0.3677 -1.1894
   86SOPE  C311 8090   3.176   1.891   4.452 -0.4474  0.4339 -0.1403
   86SOPE  H11X 8091   3.078   1.855   4.489 -0.5523  1.6359  0.8212
   86SOPE  H11Y 8092   3.181   2.001   4.434 -0.6867  0.5888  0.7042
   86SOPE  C312 8093   3.284   1.859   4.562  0.2743 -1.0966 -0.5131
   86SOPE  H12X 8094   3.382   1.893   4.521  1.6027 -2.1169  1.6316
   86SOPE  H12Y 8095   3.282   1.750   4.584  0.3126 -0.5097  2.9393
   86SOPE  C313 8096   3.261   1.924   4.701 -0.0395 -0.4364  0.4225
   86SOPE  H13X 8097   3.159   1.896   4.736 -0.3097 -0.8294 -0.6385
   86SOPE  H13Y 8098   3.258   2.034   4.685 -1.1828 -0.6715 -1.3197
   86SOPE  C314 8099   3.369   1.889   4.813  0.7071 -0.2265  0.6187
   86SOPE  H14X 8100   3.365   1.961   4.898  0.0149 -1.9129  2.0878
   86SOPE  H14Y 8101   3.467   1.900   4.762 -1.0502  0.4950 -2.8740
   86SOPE  C315 8102   3.353   1.746   4.869 -0.2746 -0.2191 -0.2202
   86SOPE  H15X 8103   3.322   1.687   4.780 -0.7415 -0.8864  0.3708
   86SOPE  H15Y 8104   3.267   1.740   4.940 -0.9033  0.6556 -0.8834
   86SOPE  C316 8105   3.474   1.696   4.948  0.5927 -0.3326 -0.1137
   86SOPE  H16X 8106   3.571   1.716   4.897  0.5436 -0.3631 -0.2180
   86SOPE  H16Y 8107   3.463   1.586   4.944 -0.2864 -0.2446 -0.2615
   86SOPE  C317 8108   3.482   1.743   5.096 -0.1511  0.4967 -0.2420
   86SOPE  H17X 8109   3.384   1.725   5.146 -0.1097 -0.3274 -0.4348
   86SOPE  H17Y 8110   3.487   1.853   5.102 -0.5889  0.4883  0.3448
   86SOPE  C318 8111   3.597   1.668   5.173  0.1098  0.6322  0.8421
   86SOPE  H18X 8112   3.554   1.633   5.269  0.2624 -2.7487 -0.1999
   86SOPE  H18Y 8113   3.673   1.747   5.191  0.1243  2.3861 -4.9331
   86SOPE  H18Z 8114   3.639   1.581   5.118 -0.5664  0.7847  0.0676
   87SOPE     N 8115   4.277   6.641   2.360  0.4281  0.0011  0.0707
   87SOPE   HN1 8116   4.266   6.606   2.262  0.5271 -1.1701  0.4588
   87SOPE   HN2 8117   4.217   6.586   2.425 -0.9087 -0.0304 -1.1249
   87SOPE   HN3 8118   4.252   6.740   2.377 -1.1333 -0.7907  3.0849
   87SOPE   C12 8119   4.412   6.627   2.410 -0.2294  0.6343 -0.0444
   87SOPE  H12A 8120   4.476   6.698   2.353  0.5056  0.0337  0.0149
   87SOPE  H12B 8121   4.444   6.523   2.389 -1.6255  0.4886 -1.6431
   87SOPE   C11 8122   4.420   6.677   2.552  0.2672  0.0407 -0.0798
   87SOPE  H11A 8123   4.345   6.642   2.626  2.2465 -0.6101  1.7427
   87SOPE  H11B 8124   4.409   6.788   2.553 -0.2825  0.0011 -0.7722
   87SOPE     P 8125   4.657   6.752   2.644 -0.0193 -0.1211  0.2374
   87SOPE   O13 8126   4.663   6.857   2.541  0.4570 -1.1143  0.1126
   87SOPE   O14 8127   4.786   6.686   2.681  0.4292  0.5178 -0.3273
   87SOPE   O12 8128   4.549   6.640   2.599  0.3044 -0.2412  0.1844
   87SOPE   O11 8129   4.591   6.811   2.777  0.0833 -0.3204  0.5329
   87SOPE    C1 8130   4.594   6.735   2.897 -0.1058 -0.1935 -0.6412
   87SOPE    HA 8131   4.695   6.735   2.943 -0.4945  0.8959  0.2589
   87SOPE    HB 8132   4.566   6.629   2.880 -2.3810 -0.3510  2.8991
   87SOPE    C2 8133   4.493   6.790   3.003  0.2209  0.2619  0.2532
   87SOPE    HS 8134   4.396   6.757   2.958 -0.5269  0.3724  1.7371
   87SOPE   O21 8135   4.512   6.934   3.013 -0.1159  0.1519  0.1564
   87SOPE   C21 8136   4.407   7.002   3.050 -0.8325 -0.3159 -0.1175
   87SOPE   O22 8137   4.292   6.955   3.057 -0.0976 -0.0532 -0.2474
   87SOPE   C22 8138   4.451   7.153   3.086  0.2840 -0.1582  0.1723
   87SOPE   H2R 8139   4.462   7.208   2.990  2.1237  0.1669  0.5267
   87SOPE   H2S 8140   4.546   7.154   3.143  1.6981 -0.0563 -2.0599
   87SOPE    C3 8141   4.514   6.711   3.143  0.0360 -0.5225 -0.1057
   87SOPE    HX 8142   4.612   6.744   3.182  0.2230 -0.6249 -0.4841
   87SOPE    HY 8143   4.514   6.601   3.126 -2.4931 -0.1960 -3.1752
   87SOPE   O31 8144   4.420   6.760   3.242  0.0555 -0.5650  1.1082
   87SOPE   C31 8145   4.300   6.705   3.224 -0.6199  0.0645  0.2300
   87SOPE   O32 8146   4.267   6.614   3.149 -0.6634  0.1669  0.3386
   87SOPE   C32 8147   4.199   6.771   3.312  0.1353  0.0138  1.1668
   87SOPE   H2X 8148   4.107   6.754   3.252  1.0502 -1.0191  0.0184
   87SOPE   H2Y 8149   4.220   6.879   3.327 -2.7077  0.8406 -0.2269
   87SOPE   C23 8150   4.341   7.216   3.179  0.2970 -0.0964 -0.7054
   87SOPE   H3R 8151   4.237   7.204   3.141 -0.7458  1.2496  1.5560
   87SOPE   H3S 8152   4.354   7.325   3.192 -2.1219  0.1815 -0.0076
   87SOPE   C24 8153   4.366   7.164   3.322  0.5761 -0.4716 -0.2309
   87SOPE   H4R 8154   4.357   7.053   3.319  0.1099 -0.4504 -3.1483
   87SOPE   H4S 8155   4.476   7.176   3.338  0.6599 -0.1634 -1.0018
   87SOPE   C25 8156   4.278   7.235   3.425  0.5576  0.1611 -0.2892
   87SOPE   H5R 8157   4.291   7.344   3.412  2.5175 -0.2335 -2.2733
   87SOPE   H5S 8158   4.171   7.214   3.403  0.9210  0.5687 -2.7248
   87SOPE   C26 8159   4.325   7.184   3.569  0.0256 -0.5074  0.5028
   87SOPE   H6R 8160   4.314   7.073   3.576 -0.4733 -0.4856  0.1530
   87SOPE   H6S 8161   4.434   7.205   3.573 -0.1993  0.7695  0.3128
   87SOPE   C27 8162   4.255   7.242   3.694  0.2227 -0.5464 -0.7749
   87SOPE   H7R 8163   4.269   7.352   3.694  1.5519 -0.6246  1.9664
   87SOPE   H7S 8164   4.144   7.239   3.690  0.1552  0.0764  0.3658
   87SOPE   C28 8165   4.304   7.169   3.826 -0.5846 -0.2934  1.2230
   87SOPE   H8R 8166   4.262   7.066   3.821  0.9824 -0.9322  0.3728
   87SOPE   H8S 8167   4.414   7.154   3.819 -0.6211 -0.6376  1.3561
   87SOPE   C29 8168   4.252   7.242   3.947  0.0335  0.0189 -0.6625
   87SOPE   H91 8169   4.150   7.283   3.943 -0.7840 -1.8859 -0.1870
   87SOPE  C210 8170   4.318   7.233   4.066  0.2112  0.2344  0.4595
   87SOPE  H101 8171   4.282   7.284   4.156  1.5065  0.6079  0.7880
   87SOPE  C211 8172   4.448   7.164   4.097 -0.1193 -0.2866  0.2958
   87SOPE  H11R 8173   4.502   7.229   4.169 -1.5471 -0.3771  1.4983
   87SOPE  H11S 8174   4.508   7.135   4.008 -0.0517 -1.6206  0.7555
   87SOPE  C212 8175   4.423   7.029   4.166 -0.3646 -0.9821 -0.8208
   87SOPE  H12R 8176   4.524   6.982   4.161  1.1300  1.6452  1.5544
   87SOPE  H12S 8177   4.348   6.966   4.114 -0.5617 -0.1064 -1.6239
   87SOPE  C213 8178   4.389   7.042   4.321 -0.0657 -0.0636  0.3611
   87SOPE  H13R 8179   4.302   7.111   4.329 -0.6422 -0.7753  0.3002
   87SOPE  H13S 8180   4.475   7.089   4.373  0.7611 -1.8933  0.7368
   87SOPE  C214 8181   4.367   6.904   4.391 -0.3274  0.5827  0.1345
   87SOPE  H14R 8182   4.456   6.839   4.370 -0.5581 -0.0992  1.1862
   87SOPE  H14S 8183   4.278   6.852   4.348 -0.7830 -0.8795  2.6669
   87SOPE  C215 8184   4.339   6.904   4.541  1.2256  0.0430 -0.7242
   87SOPE  H15R 8185   4.264   6.980   4.571  3.3157  1.5060  1.1865
   87SOPE  H15S 8186   4.428   6.927   4.604 -0.3918 -2.1838  2.7123
   87SOPE  C216 8187   4.294   6.770   4.598 -0.4663  0.4028  0.2553
   87SOPE  H16R 8188   4.362   6.689   4.566 -1.7349 -1.0500  1.0751
   87SOPE  H16S 8189   4.200   6.741   4.545  0.8635 -0.6845 -1.6144
   87SOPE  C217 8190   4.252   6.778   4.747 -0.9354 -0.0484 -0.0687
   87SOPE  H17R 8191   4.169   6.708   4.768 -2.9337  2.5919  1.4228
   87SOPE  H17S 8192   4.201   6.877   4.755 -0.9412 -0.0524 -0.0568
   87SOPE  C218 8193   4.372   6.761   4.842  0.0545  0.5178 -0.1793
   87SOPE  H18R 8194   4.438   6.850   4.839 -0.4852  1.0419  1.8091
   87SOPE  H18S 8195   4.447   6.688   4.805  0.4440  1.2466 -0.8587
   87SOPE  H18T 8196   4.355   6.748   4.951  0.6820 -2.8248 -0.3787
   87SOPE   C33 8197   4.171   6.703   3.445 -0.2524 -0.5927  0.7422
   87SOPE   H3X 8198   4.271   6.680   3.489  0.2695  1.0379  0.4729
   87SOPE   H3Y 8199   4.132   6.599   3.438  0.6846 -0.8665 -0.8563
   87SOPE   C34 8200   4.100   6.791   3.550 -0.3014 -0.5187  0.0865
   87SOPE   H4X 8201   3.994   6.789   3.517 -0.5181  3.4310 -0.0051
   87SOPE   H4Y 8202   4.122   6.900   3.557 -2.9763  0.1897 -1.2308
   87SOPE   C35 8203   4.103   6.729   3.693  0.0033 -0.2742  0.4572
   87SOPE   H5X 8204   4.072   6.622   3.690  2.1180 -0.9290 -0.1659
   87SOPE   H5Y 8205   4.025   6.793   3.740  0.2314  1.5325 -1.4500
   87SOPE   C36 8206   4.244   6.741   3.763  0.0404  0.0233 -1.2835
   87SOPE   H6X 8207   4.288   6.844   3.765 -2.2443  1.2243  3.8420
   87SOPE   H6Y 8208   4.319   6.675   3.714  1.1024  1.5365 -1.7860
   87SOPE   C37 8209   4.243   6.700   3.924 -0.3262 -0.1648  0.4175
   87SOPE   H7X 8210   4.190   6.783   3.975 -0.5345  1.4538 -2.2242
   87SOPE   H7Y 8211   4.348   6.716   3.957 -0.3333  1.9413 -0.3942
   87SOPE   C38 8212   4.192   6.563   3.946  0.7551 -0.2281  1.1240
   87SOPE   H8X 8213   4.221   6.497   3.862  1.0037  2.3442 -0.9269
   87SOPE   H8Y 8214   4.082   6.560   3.963  0.9668 -0.1719  2.7221
   87SOPE   C39 8215   4.249   6.490   4.072  0.6666  0.0029  0.3989
   87SOPE   H9X 8216   4.358   6.507   4.065  0.5500  0.7846  0.4419
   87SOPE   H9Y 8217   4.231   6.381   4.057 -0.8530  0.4225 -1.1311
   87SOPE  C310 8218   4.191   6.553   4.201  0.2093 -0.0130 -0.4267
   87SOPE  H10X 8219   4.083   6.533   4.185  0.4669  0.1180 -2.7005
   87SOPE  H10Y 8220   4.195   6.664   4.203  0.6461 -0.0086 -1.3194
   87SOPE  C311 8221   4.247   6.506   4.338  0.5776 -0.0803 -0.2445
   87SOPE  H11X 8222   4.170   6.537   4.412 -1.1138  0.2184 -2.0380
   87SOPE  H11Y 8223   4.346   6.554   4.353  0.0889  1.4801 -1.6040
   87SOPE  C312 8224   4.252   6.360   4.352  0.5446  0.7888  0.0779
   87SOPE  H12X 8225   4.334   6.320   4.287  1.3012 -1.0107  2.0449
   87SOPE  H12Y 8226   4.152   6.324   4.321  1.1142 -0.6329 -0.2032
   87SOPE  C313 8227   4.291   6.303   4.490  0.0107 -0.2617  0.4183
   87SOPE  H13X 8228   4.393   6.341   4.511  0.3136 -0.8152 -0.0233
   87SOPE  H13Y 8229   4.297   6.192   4.483 -0.8001 -0.3351  0.7458
   87SOPE  C314 8230   4.204   6.355   4.608 -0.7399 -0.1539 -1.0539
   87SOPE  H14X 8231   4.097   6.348   4.582 -1.5778  0.5672  1.8986
   87SOPE  H14Y 8232   4.226   6.463   4.622  2.1199 -0.6374 -1.2044
   87SOPE  C315 8233   4.225   6.273   4.739  0.2747  0.0192 -0.5182
   87SOPE  H15X 8234   4.328   6.272   4.780 -0.3829  0.1646  1.2022
   87SOPE  H15Y 8235   4.209   6.168   4.705 -2.2133 -0.3467  1.5196
   87SOPE  C316 8236   4.127   6.293   4.855 -0.5794 -0.1134 -0.7376
   87SOPE  H16X 8237   4.145   6.223   4.939 -0.1499  2.0688  1.0665
   87SOPE  H16Y 8238   4.021   6.292   4.822 -0.7223 -0.2616 -0.2809
   87SOPE  C317 8239   4.152   6.427   4.926 -0.2566  0.3541 -0.3037
   87SOPE  H17X 8240   4.183   6.501   4.849  0.2111  1.2161  0.6956
   87SOPE  H17Y 8241   4.240   6.419   4.993  0.8568  3.0466 -1.2996
   87SOPE  C318 8242   4.036   6.472   5.020  0.0552 -0.2750  0.0814
   87SOPE  H18X 8243   3.951   6.520   4.967 -3.0910 -1.0003  3.9490
   87SOPE  H18Y 8244   4.066   6.554   5.089 -2.4836  1.6918 -0.9885
   87SOPE  H18Z 8245   3.987   6.384   5.068  2.6724 -1.9863 -0.2113
   88SOPE     N 8246   5.562   1.842   2.726 -0.1992  0.1302 -0.8034
   88SOPE   HN1 8247   5.477   1.880   2.771 -1.2119 -1.7601 -1.0454
   88SOPE   HN2 8248   5.622   1.898   2.661 -2.3273 -0.0292 -3.0778
   88SOPE   HN3 8249   5.509   1.795   2.650 -1.9175  3.6016 -1.9673
   88SOPE   C12 8250   5.636   1.751   2.821  0.2387 -0.1183  0.3720
   88SOPE  H12A 8251   5.658   1.800   2.918  0.3349 -0.2160  0.3992
   88SOPE  H12B 8252   5.736   1.729   2.778  0.2880  1.7338 -0.5692
   88SOPE   C11 8253   5.543   1.637   2.848  0.2116  0.3720  0.0613
   88SOPE  H11A 8254   5.448   1.664   2.898 -0.0845  0.7229 -0.6658
   88SOPE  H11B 8255   5.593   1.576   2.926  0.7905  3.4157  2.2279
   88SOPE     P 8256   5.411   1.443   2.722  0.2882 -0.3749  0.0152
   88SOPE   O13 8257   5.470   1.317   2.769 -0.6125 -0.2788 -1.2453
   88SOPE   O14 8258   5.346   1.443   2.588  0.1567 -0.5081  0.4347
   88SOPE   O12 8259   5.527   1.553   2.731 -0.8553 -0.3370  0.1136
   88SOPE   O11 8260   5.297   1.484   2.825 -0.7243  0.0374 -0.3393
   88SOPE    C1 8261   5.250   1.398   2.935  0.1072 -0.3275 -0.5657
   88SOPE    HA 8262   5.294   1.296   2.935  0.1546 -0.3058 -1.0954
   88SOPE    HB 8263   5.140   1.387   2.918 -0.1881  0.2865  0.7733
   88SOPE    C2 8264   5.282   1.465   3.074  0.0210 -0.4517 -0.0812
   88SOPE    HS 8265   5.268   1.575   3.072 -0.5597 -0.5275 -0.4935
   88SOPE   O21 8266   5.407   1.412   3.125  0.1019  0.0187 -0.0273
   88SOPE   C21 8267   5.484   1.498   3.203 -0.3161  0.9414 -0.8300
   88SOPE   O22 8268   5.455   1.611   3.231 -0.3937 -0.7907 -0.1704
   88SOPE   C22 8269   5.617   1.435   3.234 -0.6177 -0.3221 -0.1331
   88SOPE   H2R 8270   5.690   1.512   3.267 -1.6438  0.3348  0.6712
   88SOPE   H2S 8271   5.642   1.393   3.134 -2.2679  1.9732 -1.6047
   88SOPE    C3 8272   5.178   1.422   3.180  0.4609 -0.1154  0.1417
   88SOPE    HX 8273   5.193   1.312   3.183 -1.5216 -0.5881 -2.9964
   88SOPE    HY 8274   5.080   1.459   3.143  0.3886  1.0337  1.3947
   88SOPE   O31 8275   5.206   1.483   3.307  0.6084 -0.2867 -0.2543
   88SOPE   C31 8276   5.165   1.605   3.329 -0.0675 -0.1042 -0.1989
   88SOPE   O32 8277   5.106   1.678   3.248  0.1851  0.2404 -0.3994
   88SOPE   C32 8278   5.194   1.661   3.468 -0.7084  0.0738  0.5470
   88SOPE   H2X 8279   5.240   1.761   3.454  2.7546 -1.4828 -0.2188
   88SOPE   H2Y 8280   5.273   1.600   3.517  0.0797 -0.2552 -1.0555
   88SOPE   C23 8281   5.605   1.338   3.353  0.0188 -0.4761 -0.0174
   88SOPE   H3R 8282   5.709   1.306   3.377  0.9364  1.3297 -1.3652
   88SOPE   H3S 8283   5.544   1.253   3.316  0.1754 -0.5284 -0.1533
   88SOPE   C24 8284   5.508   1.376   3.470  0.0453 -0.4116 -0.6213
   88SOPE   H4R 8285   5.554   1.464   3.520 -0.1058 -1.0931  0.7644
   88SOPE   H4S 8286   5.413   1.421   3.435 -0.9048 -0.6080  1.5858
   88SOPE   C25 8287   5.489   1.263   3.571 -1.0449  0.1850 -0.0523
   88SOPE   H5R 8288   5.429   1.182   3.525  0.3175 -1.0527  0.3034
   88SOPE   H5S 8289   5.584   1.223   3.612 -0.9031  0.5068 -0.0655
   88SOPE   C26 8290   5.409   1.301   3.699  0.1977  0.0799  0.3410
   88SOPE   H6R 8291   5.452   1.387   3.754 -2.6343  0.3644  2.3458
   88SOPE   H6S 8292   5.305   1.333   3.675 -1.2337 -0.8906  4.4968
   88SOPE   C27 8293   5.403   1.192   3.810 -0.9836 -0.1487  0.3791
   88SOPE   H7R 8294   5.344   1.241   3.890 -0.2175 -0.0201  0.8708
   88SOPE   H7S 8295   5.327   1.121   3.769 -1.0940  1.4531 -2.4305
   88SOPE   C28 8296   5.542   1.151   3.860  0.1137  0.2269  0.1093
   88SOPE   H8R 8297   5.589   1.095   3.776  0.8140 -0.5659  1.0115
   88SOPE   H8S 8298   5.618   1.229   3.880 -0.4549  1.0619 -0.8874
   88SOPE   C29 8299   5.523   1.066   3.976 -1.2064 -0.1790 -0.8216
   88SOPE   H91 8300   5.543   0.960   3.958  1.1651 -0.1384  1.0651
   88SOPE  C210 8301   5.507   1.112   4.103  0.2158  0.9828  0.3364
   88SOPE  H101 8302   5.476   1.030   4.170  1.2356 -0.9072 -1.3789
   88SOPE  C211 8303   5.504   1.250   4.147  0.5187 -1.0038 -0.2600
   88SOPE  H11R 8304   5.446   1.259   4.242 -2.6269 -1.8367 -1.9729
   88SOPE  H11S 8305   5.454   1.328   4.086  2.1769  2.6530  2.6077
   88SOPE  C212 8306   5.646   1.309   4.178 -0.0579  0.0078 -0.2397
   88SOPE  H12R 8307   5.636   1.418   4.198 -0.1301 -0.1562  0.6788
   88SOPE  H12S 8308   5.721   1.300   4.097 -0.1986  0.3180 -0.4032
   88SOPE  C213 8309   5.698   1.243   4.309  0.1471  0.7754 -0.9475
   88SOPE  H13R 8310   5.695   1.133   4.293  1.9897  0.8111 -1.7249
   88SOPE  H13S 8311   5.618   1.272   4.381  0.4634 -1.9317  0.6496
   88SOPE  C214 8312   5.842   1.278   4.336 -0.3978  0.4119 -0.3745
   88SOPE  H14R 8313   5.901   1.257   4.245 -0.7380  0.2746 -0.5629
   88SOPE  H14S 8314   5.903   1.233   4.417  2.4739  1.7089 -1.7016
   88SOPE  C215 8315   5.864   1.432   4.368  0.1671  0.1614 -0.0395
   88SOPE  H15R 8316   5.789   1.464   4.444  2.1229  0.9924  1.6297
   88SOPE  H15S 8317   5.836   1.490   4.278  0.6550  0.6113  0.0987
   88SOPE  C216 8318   6.005   1.489   4.394 -0.5457  0.2203 -0.7429
   88SOPE  H16R 8319   6.076   1.464   4.313  1.0892 -0.3965  0.8009
   88SOPE  H16S 8320   6.050   1.454   4.490 -1.8218 -0.5154 -0.4000
   88SOPE  C217 8321   5.998   1.644   4.406  0.3122 -0.2053  0.1006
   88SOPE  H17R 8322   5.933   1.661   4.494  0.8092  0.5708  0.3247
   88SOPE  H17S 8323   5.951   1.664   4.307  1.0377  2.9528  0.3006
   88SOPE  C218 8324   6.130   1.719   4.423 -0.6102 -1.0346 -0.0038
   88SOPE  H18R 8325   6.183   1.707   4.326 -0.6440 -3.3903  0.2047
   88SOPE  H18S 8326   6.197   1.678   4.501 -0.5163 -0.8313  0.0218
   88SOPE  H18T 8327   6.118   1.829   4.434 -0.7084 -0.8418 -1.7554
   88SOPE   C33 8328   5.066   1.667   3.552  0.1086  0.6759  0.4543
   88SOPE   H3X 8329   5.004   1.575   3.556 -0.9670  1.4233  2.0336
   88SOPE   H3Y 8330   4.995   1.737   3.503 -0.7364 -1.3822 -1.4396
   88SOPE   C34 8331   5.104   1.708   3.696  0.3864 -0.0854  0.2341
   88SOPE   H4X 8332   5.145   1.811   3.699 -0.6091  0.3048  1.0980
   88SOPE   H4Y 8333   5.186   1.641   3.729  0.5270 -0.7061 -1.2993
   88SOPE   C35 8334   4.978   1.707   3.777  0.0021  0.0422  0.1523
   88SOPE   H5X 8335   4.944   1.601   3.785  0.7688 -0.2449 -0.2825
   88SOPE   H5Y 8336   4.899   1.770   3.731  3.2223  2.4337 -2.5256
   88SOPE   C36 8337   4.996   1.765   3.920  0.3446  0.0932  0.5381
   88SOPE   H6X 8338   5.003   1.876   3.917 -0.3870  0.2542  3.0301
   88SOPE   H6Y 8339   5.081   1.712   3.968  0.4105 -0.0884  0.2237
   88SOPE   C37 8340   4.867   1.733   4.005  0.0144  0.1285  0.3626
   88SOPE   H7X 8341   4.850   1.624   3.989 -1.2785  0.6769 -2.8931
   88SOPE   H7Y 8342   4.789   1.798   3.962  0.6148 -0.1498 -1.2217
   88SOPE   C38 8343   4.879   1.769   4.150  0.5167  0.1363  0.2120
   88SOPE   H8X 8344   4.778   1.767   4.196 -0.2189  1.7561 -1.1790
   88SOPE   H8Y 8345   4.918   1.873   4.152  0.5217  0.1744 -0.8578
   88SOPE   C39 8346   4.960   1.683   4.244 -0.1307 -0.6104  0.9910
   88SOPE   H9X 8347   5.065   1.696   4.211 -0.7794  0.3139 -0.8602
   88SOPE   H9Y 8348   4.919   1.580   4.236 -2.1011  0.2143 -0.2450
   88SOPE  C310 8349   4.933   1.711   4.395  0.5963  0.5401  0.1630
   88SOPE  H10X 8350   4.826   1.691   4.418  0.4506  2.2076  1.0685
   88SOPE  H10Y 8351   4.949   1.819   4.416  1.1970  0.6958 -0.9651
   88SOPE  C311 8352   5.024   1.623   4.487  0.0538  0.8312  0.1060
   88SOPE  H11X 8353   5.125   1.653   4.451  0.3303 -0.9263 -0.6516
   88SOPE  H11Y 8354   5.000   1.518   4.463 -0.9737  0.6799  1.6367
   88SOPE  C312 8355   5.006   1.660   4.638 -0.4233  0.1308  1.1599
   88SOPE  H12X 8356   4.905   1.629   4.675 -1.0713 -0.3630 -0.9292
   88SOPE  H12Y 8357   5.018   1.770   4.649 -0.7703  0.2258  0.6049
   88SOPE  C313 8358   5.110   1.592   4.728  0.0151  0.1153  1.0744
   88SOPE  H13X 8359   5.192   1.563   4.660 -1.0564  2.1304 -1.1880
   88SOPE  H13Y 8360   5.063   1.497   4.763  1.8148 -0.3753  2.3425
   88SOPE  C314 8361   5.159   1.677   4.845  0.0710  0.4604 -0.0410
   88SOPE  H14X 8362   5.071   1.713   4.903  0.4359  1.3691 -0.0309
   88SOPE  H14Y 8363   5.216   1.761   4.799  0.9636  0.5947  1.2726
   88SOPE  C315 8364   5.259   1.598   4.930 -0.7890 -0.4127  0.5295
   88SOPE  H15X 8365   5.358   1.577   4.884 -0.4399 -2.4878  2.0857
   88SOPE  H15Y 8366   5.215   1.503   4.964  0.0597 -1.3633 -0.9193
   88SOPE  C316 8367   5.289   1.686   5.057 -0.0522  0.5656  0.3406
   88SOPE  H16X 8368   5.185   1.709   5.090 -0.8916  0.3007 -1.9263
   88SOPE  H16Y 8369   5.344   1.775   5.021 -0.6653  0.8077 -0.0143
   88SOPE  C317 8370   5.367   1.610   5.171  0.1603 -0.1712  0.5831
   88SOPE  H17X 8371   5.301   1.527   5.203 -0.3716  0.8400  2.2088
   88SOPE  H17Y 8372   5.374   1.679   5.258  2.3254  0.2217  0.1509
   88SOPE  C318 8373   5.505   1.560   5.139 -0.1469  1.3121  0.8301
   88SOPE  H18X 8374   5.504   1.519   5.035  2.7830 -0.2275  1.3022
   88SOPE  H18Y 8375   5.547   1.483   5.208 -0.6337 -1.8443 -2.0995
   88SOPE  H18Z 8376   5.586   1.635   5.133  1.2954 -0.2043  0.6138
   89SAPC     N 8377   4.224   3.385   7.168  0.6789 -0.8020  0.6809
   89SAPC   C12 8378   4.159   3.312   7.059 -0.1818 -0.1079  0.0184
   89SAPC  H12A 8379   4.172   3.205   7.075  1.6969  0.2210  1.0465
   89SAPC  H12B 8380   4.215   3.314   6.967  1.8203  1.0028  1.1893
   89SAPC   C13 8381   4.353   3.328   7.212  0.5588  0.1327  0.2728
   89SAPC  H13A 8382   4.413   3.406   7.257  0.0861  2.5870 -2.9049
   89SAPC  H13B 8383   4.340   3.240   7.273  3.0036  0.1438  0.9191
   89SAPC  H13C 8384   4.414   3.302   7.127  2.0677  0.1070  1.3339
   89SAPC   C14 8385   4.248   3.524   7.130 -0.0940 -0.1884  0.4133
   89SAPC  H14A 8386   4.153   3.574   7.125  0.7414  1.4434 -0.0801
   89SAPC  H14B 8387   4.318   3.580   7.190  2.1735 -2.4557  0.0337
   89SAPC  H14C 8388   4.304   3.534   7.038  0.2130  1.5339  0.7572
   89SAPC   C15 8389   4.137   3.382   7.291 -0.0847 -0.5259  0.2222
   89SAPC  H15A 8390   4.141   3.284   7.335  0.7482 -0.5340  0.1410
   89SAPC  H15B 8391   4.169   3.452   7.368 -1.9476  1.1260 -0.4100
   89SAPC  H15C 8392   4.037   3.406   7.260  0.3340 -0.9591 -1.5766
   89SAPC   C11 8393   4.013   3.343   7.019 -0.0278 -0.1538  0.1302
   89SAPC  H11A 8394   3.984   3.293   6.924  0.1538  2.3604 -1.3209
   89SAPC  H11B 8395   4.015   3.451   6.993 -3.3668 -0.4719 -2.0549
   89SAPC     P 8396   3.884   3.177   7.170 -0.4555 -0.2614  0.5328
   89SAPC   O13 8397   3.983   3.078   7.120  0.6399 -0.2217 -0.0591
   89SAPC   O14 8398   3.870   3.194   7.319 -0.4498 -0.5025  0.1502
   89SAPC   O12 8399   3.912   3.322   7.111  0.3139  0.2774  0.0536
   89SAPC   O11 8400   3.734   3.150   7.121 -0.3615  0.2158  0.1832
   89SAPC    C1 8401   3.682   3.018   7.099 -0.4571 -0.8753  0.4878
   89SAPC    HA 8402   3.763   2.950   7.066  0.5102  0.8044 -0.7821
   89SAPC    HB 8403   3.636   2.972   7.189 -0.8782 -1.5514 -0.0684
   89SAPC    C2 8404   3.574   3.029   6.981  0.1696 -0.0940 -0.0629
   89SAPC    HS 8405   3.483   3.074   7.026  0.5732  0.3009  0.3722
   89SAPC   O21 8406   3.548   2.900   6.924 -0.4343  0.5373 -1.0011
   89SAPC   C21 8407   3.424   2.848   6.943 -0.7345  0.9654  0.8359
   89SAPC   O22 8408   3.331   2.909   6.988  0.5405  0.2112 -0.6347
   89SAPC   C22 8409   3.413   2.713   6.877 -0.0206  0.0055 -0.0052
   89SAPC   H2R 8410   3.499   2.647   6.905  0.9153  1.6010  1.0296
   89SAPC   H2S 8411   3.317   2.663   6.901 -0.1279  1.3163  2.5346
   89SAPC    C3 8412   3.633   3.125   6.877  0.2757 -0.2476  0.3585
   89SAPC    HX 8413   3.732   3.080   6.853  0.3244  0.6668 -1.3187
   89SAPC    HY 8414   3.649   3.228   6.915  0.4715 -0.3380  0.5209
   89SAPC   O31 8415   3.557   3.127   6.754  0.2436 -0.4707 -0.4905
   89SAPC   C31 8416   3.441   3.191   6.759 -0.2666  0.9585 -0.4964
   89SAPC   O32 8417   3.405   3.265   6.850 -0.3926  0.5471  0.1181
   89SAPC   C32 8418   3.350   3.142   6.647 -0.3887 -0.1242  0.1094
   89SAPC   H2X 8419   3.362   3.032   6.643  2.3086  0.0974 -0.1264
   89SAPC   H2Y 8420   3.383   3.183   6.549  0.4712 -0.1204  0.3938
   89SAPC   C23 8421   3.413   2.743   6.724  0.0494 -0.1091  0.1972
   89SAPC   H3R 8422   3.518   2.775   6.703  0.6736 -2.7349 -1.2287
   89SAPC   H3S 8423   3.338   2.818   6.689 -0.6478 -0.2224  1.4171
   89SAPC   C24 8424   3.382   2.623   6.643 -0.2201  0.2312  0.7946
   89SAPC   H4R 8425   3.348   2.661   6.544  1.0724  0.7628  0.5346
   89SAPC   H4S 8426   3.304   2.567   6.698 -1.7645  1.0969 -0.4419
   89SAPC   C25 8427   3.505   2.539   6.636 -0.0247  0.5817 -0.4933
   89SAPC   H5R 8428   3.568   2.550   6.725  0.0211  1.5036 -0.6295
   89SAPC   C26 8429   3.535   2.456   6.540  0.0068  0.0989 -0.2241
   89SAPC   H6R 8430   3.617   2.387   6.565 -1.1704 -1.3111 -0.1349
   89SAPC   C27 8431   3.450   2.424   6.418  0.3052 -0.3960  0.3436
   89SAPC   H7R 8432   3.365   2.495   6.407  2.0282  1.5623 -1.1353
   89SAPC   H7S 8433   3.402   2.324   6.420 -2.3180  0.7425 -0.8808
   89SAPC   C28 8434   3.549   2.436   6.308  0.2761  0.1338  0.1042
   89SAPC   H8R 8435   3.655   2.453   6.333  0.7006  0.6233 -1.8448
   89SAPC   C29 8436   3.522   2.436   6.176 -0.4164 -0.1866  0.2941
   89SAPC   H9R 8437   3.610   2.436   6.109 -2.1104 -0.0755 -2.0712
   89SAPC  C210 8438   3.388   2.436   6.110  0.0481 -0.4672 -0.1217
   89SAPC  H10R 8439   3.371   2.540   6.074 -0.5695 -0.0890  1.1750
   89SAPC  H10S 8440   3.308   2.423   6.186  0.2027 -3.2005 -0.3219
   89SAPC  C211 8441   3.378   2.340   5.999 -0.4482  0.2765  0.5245
   89SAPC  H11R 8442   3.355   2.237   6.029  1.0954 -0.4993 -0.8403
   89SAPC  C212 8443   3.397   2.368   5.871 -0.0489 -0.4988  0.0559
   89SAPC  H12R 8444   3.384   2.280   5.806  0.1432  0.2043 -0.9431
   89SAPC  C213 8445   3.427   2.501   5.808  0.6067 -0.3257 -0.3483
   89SAPC  H13R 8446   3.394   2.585   5.872  1.1481 -0.3119 -0.0830
   89SAPC  H13S 8447   3.366   2.520   5.718  1.0679 -0.7313 -0.7596
   89SAPC  C214 8448   3.571   2.524   5.773  0.5847  0.1256 -0.4228
   89SAPC  H14R 8449   3.644   2.505   5.852 -0.3327 -0.2950  0.3505
   89SAPC  C215 8450   3.615   2.547   5.647 -0.3904  0.0438 -0.3018
   89SAPC  H15R 8451   3.721   2.575   5.649 -0.4734  0.3555 -0.2501
   89SAPC  C216 8452   3.541   2.581   5.520 -0.1446 -0.0311  0.1099
   89SAPC  H16R 8453   3.440   2.621   5.545 -1.2365 -2.0739 -0.7702
   89SAPC  H16S 8454   3.533   2.491   5.455  1.5362 -1.4075  1.6660
   89SAPC  C217 8455   3.632   2.682   5.440  0.7329  0.0793 -0.0084
   89SAPC  H17R 8456   3.726   2.635   5.405  0.2330 -0.5866 -0.4799
   89SAPC  H17S 8457   3.655   2.766   5.509  0.0215  0.9361 -0.7755
   89SAPC  C218 8458   3.548   2.726   5.314 -0.2316 -0.4810  0.3367
   89SAPC  H18R 8459   3.483   2.808   5.351  0.4571  0.8264 -1.2410
   89SAPC  H18S 8460   3.491   2.640   5.271  0.8763 -1.4772  0.8034
   89SAPC  C219 8461   3.636   2.781   5.209 -0.4840  0.1392  0.4063
   89SAPC  H19R 8462   3.736   2.734   5.197  1.4843  3.9554  0.5985
   89SAPC  H19S 8463   3.664   2.884   5.238  0.8731 -0.6075  1.9216
   89SAPC  C220 8464   3.571   2.792   5.070  0.4946  0.3145 -0.1105
   89SAPC  H20R 8465   3.634   2.826   4.985  0.0606  1.7052  0.0999
   89SAPC  H20S 8466   3.486   2.863   5.064  0.2763 -0.0459 -2.2826
   89SAPC  H20T 8467   3.535   2.689   5.047  0.3934 -0.6370  3.7136
   89SAPC   C33 8468   3.208   3.191   6.686  0.8019  0.6802 -0.5619
   89SAPC   H3X 8469   3.204   3.302   6.679  0.9309  0.7258  0.0354
   89SAPC   H3Y 8470   3.178   3.150   6.786 -3.3227  0.7922 -1.5596
   89SAPC   C34 8471   3.101   3.130   6.592  0.4016 -0.6118  0.6068
   89SAPC   H4X 8472   3.003   3.177   6.615  1.1353  1.4010 -0.1632
   89SAPC   H4Y 8473   3.098   3.019   6.604 -0.8904 -1.0565 -2.6879
   89SAPC   C35 8474   3.131   3.158   6.442  0.4111  1.0501  0.3911
   89SAPC   H5X 8475   3.192   3.078   6.397 -0.3347  1.1054 -0.7508
   89SAPC   H5Y 8476   3.182   3.257   6.437 -0.7079  1.6690  0.8412
   89SAPC   C36 8477   2.996   3.158   6.364 -0.5676  0.7018  0.3631
   89SAPC   H6X 8478   2.937   3.251   6.381 -1.8589  0.1373 -0.8343
   89SAPC   H6Y 8479   2.929   3.078   6.400  0.1153  0.8112  1.9822
   89SAPC   C37 8480   3.008   3.150   6.211  0.3810  0.1170  0.1446
   89SAPC   H7X 8481   3.038   3.046   6.184 -0.4874 -0.0014 -0.4071
   89SAPC   H7Y 8482   3.076   3.231   6.178 -0.2825  0.3953 -0.5599
   89SAPC   C38 8483   2.874   3.177   6.142  0.0847  0.1146 -1.0229
   89SAPC   H8X 8484   2.794   3.133   6.205  0.2168  0.4880 -0.5902
   89SAPC   H8Y 8485   2.880   3.117   6.049  2.4443 -1.5035  0.0636
   89SAPC   C39 8486   2.847   3.330   6.142 -0.4177 -0.2741 -0.2030
   89SAPC   H9X 8487   2.906   3.384   6.218 -0.1721 -1.3952  0.4262
   89SAPC   H9Y 8488   2.744   3.356   6.174 -0.9682  0.0668 -2.1050
   89SAPC  C310 8489   2.868   3.383   5.998 -0.2558 -0.5709  0.1851
   89SAPC  H10X 8490   2.855   3.492   6.012 -2.1807 -0.4987 -1.6256
   89SAPC  H10Y 8491   2.787   3.342   5.934 -1.8824  1.5319  0.7979
   89SAPC  C311 8492   3.006   3.357   5.930 -0.1962  0.1685  0.7775
   89SAPC  H11X 8493   3.017   3.247   5.915 -1.7221  0.3334 -2.3300
   89SAPC  H11Y 8494   3.094   3.391   5.988  1.6269  2.0973 -2.8115
   89SAPC  C312 8495   3.035   3.429   5.796  0.4106  0.3145 -0.0411
   89SAPC  H12X 8496   3.053   3.535   5.822  1.2839 -0.0017  0.6982
   89SAPC  H12Y 8497   2.948   3.420   5.727  0.4945 -0.1108 -0.0944
   89SAPC  C313 8498   3.161   3.382   5.725 -0.6280  0.1275 -0.1295
   89SAPC  H13X 8499   3.164   3.274   5.698  2.8712 -0.5541  2.3817
   89SAPC  H13Y 8500   3.244   3.389   5.798 -1.7429  1.1224  1.0983
   89SAPC  C314 8501   3.171   3.454   5.599  0.3831  0.2931 -0.1432
   89SAPC  H14X 8502   3.175   3.563   5.621 -0.8521  0.4105 -0.4039
   89SAPC  H14Y 8503   3.076   3.425   5.549  0.4611  0.5433 -0.4417
   89SAPC  C315 8504   3.281   3.412   5.500 -0.1006 -0.0631  0.2571
   89SAPC  H15X 8505   3.296   3.303   5.516  1.9932  0.3392  1.4456
   89SAPC  H15Y 8506   3.377   3.459   5.529 -0.7609 -0.5387  3.6412
   89SAPC  C316 8507   3.239   3.447   5.361  0.2050  0.6462 -0.2234
   89SAPC  H16X 8508   3.216   3.555   5.362 -1.9406  0.2239  0.1051
   89SAPC  H16Y 8509   3.146   3.394   5.330  0.8393 -1.7330  1.6208
   89SAPC  C317 8510   3.352   3.426   5.263  0.1944 -0.7878  0.0072
   89SAPC  H17X 8511   3.370   3.317   5.261  0.1361 -0.7887 -1.2418
   89SAPC  H17Y 8512   3.443   3.479   5.298  1.3348 -1.7770 -1.3646
   89SAPC  C318 8513   3.321   3.471   5.118 -0.8533  0.0947  0.3602
   89SAPC  H18X 8514   3.296   3.579   5.118 -1.3012  0.0579 -2.4106
   89SAPC  H18Y 8515   3.239   3.412   5.070  1.2543 -0.5486 -2.7703
   89SAPC  H18Z 8516   3.404   3.465   5.044 -1.8390  2.9758 -1.1267
   90SAPC     N 8517   4.816   4.621   7.441 -0.5130  0.2244 -0.4975
   90SAPC   C12 8518   4.825   4.692   7.303  1.0407 -0.3315  0.2820
   90SAPC  H12A 8519   4.856   4.616   7.233 -1.5079 -2.4227  1.2845
   90SAPC  H12B 8520   4.903   4.767   7.303  0.2152  0.5426 -0.1615
   90SAPC   C13 8521   4.732   4.495   7.439 -0.0005  0.8034  0.5343
   90SAPC  H13A 8522   4.735   4.438   7.531 -0.1965  0.4344  0.3157
   90SAPC  H13B 8523   4.627   4.512   7.421  0.3838  0.6674 -2.2780
   90SAPC  H13C 8524   4.767   4.432   7.358  1.0210  0.2021  1.4159
   90SAPC   C14 8525   4.954   4.577   7.472  0.2056 -0.0485  0.3945
   90SAPC  H14A 8526   5.004   4.543   7.382  1.6238  0.6399  0.8929
   90SAPC  H14B 8527   5.012   4.659   7.513 -1.4180  1.7507 -0.7506
   90SAPC  H14C 8528   4.947   4.500   7.547 -2.1721 -1.0093 -0.7055
   90SAPC   C15 8529   4.763   4.708   7.549 -0.3623  0.1417  0.4469
   90SAPC  H15A 8530   4.681   4.774   7.526 -0.9698  0.5447  3.3421
   90SAPC  H15B 8531   4.738   4.646   7.635  0.9901  0.0920  0.8269
   90SAPC  H15C 8532   4.834   4.781   7.585 -1.1160  1.6195 -0.9765
   90SAPC   C11 8533   4.698   4.758   7.250 -0.2384 -0.3554 -0.1940
   90SAPC  H11A 8534   4.609   4.693   7.250  0.5157 -1.4451  0.9246
   90SAPC  H11B 8535   4.727   4.790   7.147  1.1156  2.6633  0.9974
   90SAPC     P 8536   4.738   5.023   7.308 -0.1633  0.2216 -0.7870
   90SAPC   O13 8537   4.714   5.107   7.427  0.1237  0.3151 -1.0576
   90SAPC   O14 8538   4.878   5.001   7.276  0.0546  0.0441  0.0585
   90SAPC   O12 8539   4.669   4.873   7.330 -0.4002 -0.0707  1.2506
   90SAPC   O11 8540   4.665   5.096   7.189  0.4810  0.0624 -0.3317
   90SAPC    C1 8541   4.522   5.096   7.185 -0.4709 -0.1225  0.2404
   90SAPC    HA 8542   4.473   5.005   7.225 -1.5560  0.1789 -0.3570
   90SAPC    HB 8543   4.485   5.182   7.245  0.8766 -0.3039  1.3782
   90SAPC    C2 8544   4.477   5.117   7.041  0.3871  0.2889 -0.6638
   90SAPC    HS 8545   4.368   5.094   7.038  0.1918 -0.2003  3.8865
   90SAPC   O21 8546   4.556   5.035   6.956  0.1116 -0.2077  0.7646
   90SAPC   C21 8547   4.520   4.906   6.946 -1.1382  0.4628  0.2683
   90SAPC   O22 8548   4.430   4.854   7.009 -0.3122  0.7089  0.0626
   90SAPC   C22 8549   4.610   4.836   6.845 -0.1445  0.8104  0.7205
   90SAPC   H2R 8550   4.671   4.912   6.793  0.0690  1.0973  1.3781
   90SAPC   H2S 8551   4.671   4.764   6.904 -2.0021  0.2526  2.0891
   90SAPC    C3 8552   4.493   5.259   6.975 -0.6658 -0.0438  0.0432
   90SAPC    HX 8553   4.602   5.269   6.955 -0.4849 -2.1416 -0.2554
   90SAPC    HY 8554   4.454   5.339   7.041  0.0850 -0.3076  0.8332
   90SAPC   O31 8555   4.413   5.262   6.854  0.0641  0.2039 -0.1854
   90SAPC   C31 8556   4.424   5.382   6.796  0.2888  0.7242 -0.2013
   90SAPC   O32 8557   4.502   5.466   6.830  0.0780  0.2842 -0.0126
   90SAPC   C32 8558   4.321   5.399   6.684 -0.4160  0.3125 -0.0773
   90SAPC   H2X 8559   4.325   5.508   6.660  0.3840  0.5542  1.0735
   90SAPC   H2Y 8560   4.220   5.379   6.725 -0.6287  0.5753 -0.4676
   90SAPC   C23 8561   4.526   4.773   6.728  0.9149  0.1792  0.3788
   90SAPC   H3R 8562   4.469   4.699   6.788 -2.6004  1.4645 -1.0994
   90SAPC   H3S 8563   4.594   4.728   6.652  0.4324  1.3546 -0.7819
   90SAPC   C24 8564   4.404   4.844   6.658 -0.3007  0.7341 -0.4060
   90SAPC   H4R 8565   4.450   4.938   6.618 -0.1758  0.6158 -0.5420
   90SAPC   H4S 8566   4.324   4.879   6.727  0.6612  0.1505  1.0652
   90SAPC   C25 8567   4.326   4.777   6.550 -0.1958 -0.8811  0.3558
   90SAPC   H5R 8568   4.236   4.717   6.572 -0.1667 -0.9923  0.1748
   90SAPC   C26 8569   4.363   4.780   6.419  0.5014 -0.2020 -0.4590
   90SAPC   H6R 8570   4.292   4.732   6.349 -1.0594 -3.6924  3.1178
   90SAPC   C27 8571   4.483   4.843   6.360 -0.1834  0.2110  0.3991
   90SAPC   H7R 8572   4.528   4.762   6.298 -0.8847 -0.2069  0.4230
   90SAPC   H7S 8573   4.556   4.852   6.443 -0.1496 -2.0742  0.6865
   90SAPC   C28 8574   4.471   4.963   6.274  1.0573 -0.1214 -1.0616
   90SAPC   H8R 8575   4.493   5.059   6.324 -0.3433  0.0031 -0.6301
   90SAPC   C29 8576   4.427   4.974   6.145  0.3753  0.7569 -0.3125
   90SAPC   H9R 8577   4.431   5.071   6.093 -1.2773  0.9869 -0.0651
   90SAPC  C210 8578   4.373   4.865   6.053  0.2375 -0.4949  0.2563
   90SAPC  H10R 8579   4.307   4.799   6.113 -0.3259  0.6283  0.9088
   90SAPC  H10S 8580   4.463   4.810   6.019 -0.8417 -1.4199 -1.2682
   90SAPC  C211 8581   4.294   4.914   5.935 -0.7273  0.2619  0.4023
   90SAPC  H11R 8582   4.284   5.023   5.934  0.7055  0.4277  1.6332
   90SAPC  C212 8583   4.234   4.839   5.832 -0.3718 -0.1521 -0.1718
   90SAPC  H12R 8584   4.181   4.899   5.757 -1.2439 -0.7190 -0.0246
   90SAPC  C213 8585   4.250   4.691   5.811 -0.2205  0.1384 -0.7062
   90SAPC  H13R 8586   4.192   4.638   5.889  0.5721 -0.6327 -0.6312
   90SAPC  H13S 8587   4.355   4.667   5.838 -0.4148  0.8020  0.7312
   90SAPC  C214 8588   4.220   4.648   5.670 -0.5555 -0.0673  0.1597
   90SAPC  H14R 8589   4.113   4.629   5.653  0.0120 -1.2877 -2.4970
   90SAPC  C215 8590   4.304   4.650   5.564  0.2114  0.0631 -0.0511
   90SAPC  H15R 8591   4.260   4.637   5.465 -0.8931  0.5043  0.3737
   90SAPC  C216 8592   4.450   4.690   5.568 -0.3268  0.5335  0.1055
   90SAPC  H16R 8593   4.479   4.756   5.653 -1.0307 -1.3421  1.8890
   90SAPC  H16S 8594   4.471   4.749   5.476  0.9390  0.2191  0.1714
   90SAPC  C217 8595   4.547   4.567   5.560  0.3773  0.2142 -0.3378
   90SAPC  H17R 8596   4.567   4.520   5.659 -0.1309  2.8096  1.0815
   90SAPC  H17S 8597   4.642   4.623   5.544  0.9640 -0.2608  1.2573
   90SAPC  C218 8598   4.516   4.463   5.452 -0.4274 -0.1036 -0.4195
   90SAPC  H18R 8599   4.411   4.428   5.464 -1.1984  2.7134  2.5943
   90SAPC  H18S 8600   4.589   4.382   5.472 -0.1766  0.6399  2.0528
   90SAPC  C219 8601   4.543   4.515   5.310  1.2492  0.5415  0.3256
   90SAPC  H19R 8602   4.646   4.554   5.298  1.8783 -0.4122  2.2811
   90SAPC  H19S 8603   4.475   4.602   5.303  0.1769  0.3821  5.2540
   90SAPC  C220 8604   4.512   4.407   5.210 -0.4709  0.6545  0.0361
   90SAPC  H20R 8605   4.528   4.445   5.107 -1.9613  0.1558 -0.4026
   90SAPC  H20S 8606   4.405   4.376   5.211  0.0427 -1.2264  0.9512
   90SAPC  H20T 8607   4.582   4.324   5.234 -0.5251  0.2506 -1.1387
   90SAPC   C33 8608   4.337   5.330   6.545 -0.9330 -0.6087  0.0208
   90SAPC   H3X 8609   4.322   5.222   6.566  0.1438 -0.5094  1.4459
   90SAPC   H3Y 8610   4.441   5.331   6.507 -1.5671  0.5595 -1.7967
   90SAPC   C34 8611   4.238   5.376   6.445  0.8414  0.3268 -1.2042
   90SAPC   H4X 8612   4.238   5.487   6.442  0.3268  0.5105  2.0163
   90SAPC   H4Y 8613   4.136   5.355   6.483  0.7676 -0.4284 -1.8081
   90SAPC   C35 8614   4.263   5.314   6.314 -0.0378 -0.0766 -0.2052
   90SAPC   H5X 8615   4.226   5.210   6.321  2.2031 -0.9474 -0.4233
   90SAPC   H5Y 8616   4.372   5.314   6.290  0.1981 -1.3549  0.7373
   90SAPC   C36 8617   4.176   5.383   6.203  0.2288 -0.3280  0.1646
   90SAPC   H6X 8618   4.218   5.485   6.200 -1.2418  0.3144  0.5760
   90SAPC   H6Y 8619   4.069   5.390   6.234 -0.1793  1.5515 -1.4979
   90SAPC   C37 8620   4.190   5.310   6.073  0.1288 -0.3913 -0.3163
   90SAPC   H7X 8621   4.169   5.201   6.081 -0.1251 -0.4645 -1.7720
   90SAPC   H7Y 8622   4.294   5.319   6.034 -0.1721 -0.2522 -1.1042
   90SAPC   C38 8623   4.105   5.372   5.962 -0.8124  0.8434 -0.8818
   90SAPC   H8X 8624   4.154   5.470   5.940  2.1397 -0.0322  1.2741
   90SAPC   H8Y 8625   4.007   5.374   6.014  0.7058 -1.7106  2.4048
   90SAPC   C39 8626   4.106   5.276   5.855  0.3864 -0.6153  0.2797
   90SAPC   H9X 8627   4.034   5.316   5.780  3.7358  0.9682 -2.3748
   90SAPC   H9Y 8628   4.079   5.174   5.891 -0.8063  0.0858  1.4535
   90SAPC  C310 8629   4.237   5.260   5.778  0.1137 -0.9187 -0.2970
   90SAPC  H10X 8630   4.319   5.227   5.845 -0.0589 -0.6345  0.0603
   90SAPC  H10Y 8631   4.248   5.362   5.736 -0.4272 -1.4536 -1.8070
   90SAPC  C311 8632   4.222   5.177   5.654 -0.6939  0.1723  0.0632
   90SAPC  H11X 8633   4.174   5.241   5.577 -1.3963 -1.0892 -0.5825
   90SAPC  H11Y 8634   4.150   5.094   5.672 -0.7833  0.2802  0.2011
   90SAPC  C312 8635   4.344   5.105   5.590  0.0980 -0.0660 -0.7134
   90SAPC  H12X 8636   4.386   5.033   5.663 -0.1443 -0.0350 -0.5428
   90SAPC  H12Y 8637   4.433   5.166   5.564  1.0460 -1.7474 -1.5880
   90SAPC  C313 8638   4.298   5.029   5.460  0.3142  0.2670 -0.0966
   90SAPC  H13X 8639   4.197   4.984   5.473  0.6415 -1.4279 -2.7533
   90SAPC  H13Y 8640   4.357   4.941   5.429 -0.6016 -0.3767 -0.0672
   90SAPC  C314 8641   4.297   5.125   5.334 -0.2922 -0.4307 -0.1340
   90SAPC  H14X 8642   4.399   5.165   5.315 -0.6487 -0.0140 -1.2036
   90SAPC  H14Y 8643   4.236   5.205   5.381  0.2270  0.0045 -0.1967
   90SAPC  C315 8644   4.234   5.060   5.206 -0.3090  0.5628 -0.0696
   90SAPC  H15X 8645   4.187   4.966   5.242  3.8900 -1.9380 -0.5089
   90SAPC  H15Y 8646   4.321   5.041   5.141  0.4360  0.8677  0.8200
   90SAPC  C316 8647   4.133   5.153   5.139  0.1476  0.3704 -0.1644
   90SAPC  H16X 8648   4.178   5.249   5.106 -1.2925  0.6687 -1.3783
   90SAPC  H16Y 8649   4.073   5.189   5.226  1.1682  1.2583  0.1938
   90SAPC  C317 8650   4.056   5.098   5.017  0.0529  0.4016 -0.4704
   90SAPC  H17X 8651   4.130   5.072   4.939 -0.4599  0.5817 -1.0222
   90SAPC  H17Y 8652   3.994   5.182   4.977  1.1104  2.0706  1.2461
   90SAPC  C318 8653   3.963   4.975   5.046 -0.3659  0.1097 -0.1006
   90SAPC  H18X 8654   3.915   4.929   4.957  0.0861  0.4701 -0.5377
   90SAPC  H18Y 8655   3.877   4.997   5.113 -0.3938  1.9903 -0.7241
   90SAPC  H18Z 8656   4.015   4.893   5.101 -1.0953  1.5489  2.9365
   91SAPC     N 8657   1.307   0.095   7.431 -0.1517 -0.2176 -0.0526
   91SAPC   C12 8658   1.214   0.130   7.551  0.6014 -0.4760  0.3786
   91SAPC  H12A 8659   1.238   0.086   7.646 -0.2164  0.4619  1.0364
   91SAPC  H12B 8660   1.111   0.101   7.533  0.4011  0.8416 -0.7605
   91SAPC   C13 8661   1.332  -0.053   7.438 -0.1821  0.1904  0.3821
   91SAPC  H13A 8662   1.366  -0.078   7.537  0.8364  0.4113  0.1017
   91SAPC  H13B 8663   1.246  -0.116   7.419  0.3926 -0.5796  0.2500
   91SAPC  H13C 8664   1.407  -0.076   7.363 -1.4859 -0.8206 -0.6764
   91SAPC   C14 8665   1.243   0.117   7.294 -0.2346 -0.0139  0.5328
   91SAPC  H14A 8666   1.192   0.212   7.289 -0.7194 -0.2259  1.3022
   91SAPC  H14B 8667   1.322   0.111   7.221 -0.3796 -0.3817  0.4059
   91SAPC  H14C 8668   1.176   0.036   7.270  0.4407  0.0482 -1.7251
   91SAPC   C15 8669   1.447   0.156   7.452  0.9355 -0.7093  0.0743
   91SAPC  H15A 8670   1.479   0.164   7.555  0.2510  0.1479  0.2297
   91SAPC  H15B 8671   1.517   0.100   7.392 -0.9872 -2.8885 -0.2972
   91SAPC  H15C 8672   1.450   0.257   7.417 -1.7183 -0.9394 -1.0240
   91SAPC   C11 8673   1.200   0.288   7.586  0.0617 -0.6031  0.3660
   91SAPC  H11A 8674   1.302   0.333   7.584 -0.4545  0.6413  1.2645
   91SAPC  H11B 8675   1.161   0.316   7.686 -0.0365  1.2466 -0.1450
   91SAPC     P 8676   0.958   0.343   7.480  0.3752 -0.1773  0.2255
   91SAPC   O13 8677   0.910   0.213   7.526  0.0604  0.0399 -0.0350
   91SAPC   O14 8678   0.905   0.463   7.541 -0.0620 -0.4009 -0.3994
   91SAPC   O12 8679   1.119   0.344   7.484  0.3102  0.0956 -0.1991
   91SAPC   O11 8680   0.922   0.336   7.325  0.2068  0.3244  0.2081
   91SAPC    C1 8681   0.976   0.420   7.228 -0.5425  0.8251 -0.0103
   91SAPC    HA 8682   0.933   0.521   7.243  0.3281  1.1395  0.4110
   91SAPC    HB 8683   1.086   0.433   7.239 -0.5150  0.0694  0.7165
   91SAPC    C2 8684   0.963   0.361   7.080 -0.1952  0.9880  0.0313
   91SAPC    HS 8685   0.854   0.341   7.066 -0.6885  0.5715  3.5350
   91SAPC   O21 8686   1.050   0.247   7.069  0.6815 -0.2857 -0.3194
   91SAPC   C21 8687   1.010   0.163   6.967 -0.5248  0.2722 -0.0410
   91SAPC   O22 8688   0.901   0.174   6.908 -0.0450 -0.2936 -0.3738
   91SAPC   C22 8689   1.104   0.043   6.916 -0.3552 -0.0934  0.8772
   91SAPC   H2R 8690   1.152   0.006   7.009  0.9254 -1.3229 -0.2171
   91SAPC   H2S 8691   1.035  -0.036   6.879  1.4009 -1.9980  1.4372
   91SAPC    C3 8692   1.013   0.471   6.988 -0.1518  0.3807  0.0131
   91SAPC    HX 8693   1.114   0.496   7.027  0.2014  1.0823 -1.3084
   91SAPC    HY 8694   0.958   0.567   6.992 -0.4360  0.2952 -1.5586
   91SAPC   O31 8695   1.030   0.423   6.853 -0.1304  0.0027  0.1574
   91SAPC   C31 8696   0.918   0.434   6.780 -0.2164  0.6251  0.3984
   91SAPC   O32 8697   0.809   0.471   6.818  0.6332 -0.8176 -0.2936
   91SAPC   C32 8698   0.948   0.394   6.636 -0.9666 -0.7312  0.6777
   91SAPC   H2X 8699   0.893   0.298   6.620 -3.0671  0.1604  2.1854
   91SAPC   H2Y 8700   1.058   0.388   6.622 -0.0317  1.9669  5.1286
   91SAPC   C23 8701   1.219   0.078   6.813  0.1260  0.7617  0.2095
   91SAPC   H3R 8702   1.309   0.118   6.864 -0.1558  1.0516  0.4860
   91SAPC   H3S 8703   1.196   0.154   6.735  0.9879  2.5934  1.6710
   91SAPC   C24 8704   1.267  -0.041   6.720 -0.1752  0.1840 -0.9373
   91SAPC   H4R 8705   1.352   0.003   6.663  1.2305 -1.1776  0.0464
   91SAPC   H4S 8706   1.180  -0.063   6.654  0.0911 -0.7763 -0.9834
   91SAPC   C25 8707   1.312  -0.163   6.800  0.9443  0.3071 -0.5916
   91SAPC   H5R 8708   1.409  -0.168   6.851  1.9460 -3.3311 -2.5381
   91SAPC   C26 8709   1.241  -0.277   6.799  0.0680  0.6661  0.0888
   91SAPC   H6R 8710   1.281  -0.358   6.862 -0.0884  0.2331 -0.3629
   91SAPC   C27 8711   1.107  -0.311   6.735 -0.3753 -0.3031  0.3261
   91SAPC   H7R 8712   1.103  -0.274   6.630  0.5052  2.8535  1.3175
   91SAPC   H7S 8713   1.031  -0.253   6.791 -0.1734 -1.1476  1.5166
   91SAPC   C28 8714   1.068  -0.460   6.749 -0.0580  0.3475 -0.1459
   91SAPC   H8R 8715   1.037  -0.490   6.850 -0.3334 -0.5649 -0.4935
   91SAPC   C29 8716   1.075  -0.567   6.660  0.1524 -0.0725  0.7587
   91SAPC   H9R 8717   1.029  -0.663   6.688 -2.0878  1.0655  1.2062
   91SAPC  C210 8718   1.126  -0.557   6.515  0.0829 -0.2060  0.6751
   91SAPC  H10R 8719   1.184  -0.466   6.489 -0.9099  0.2916  0.1275
   91SAPC  H10S 8720   1.035  -0.542   6.453  0.3602 -0.2761  0.2478
   91SAPC  C211 8721   1.193  -0.685   6.470 -0.0856  0.2169  0.2530
   91SAPC  H11R 8722   1.259  -0.741   6.538 -0.0589 -1.6828 -1.2483
   91SAPC  C212 8723   1.185  -0.731   6.347  0.2955 -0.3105  0.2271
   91SAPC  H12R 8724   1.227  -0.827   6.313 -0.7998 -0.5523 -0.4803
   91SAPC  C213 8725   1.116  -0.667   6.229  0.0515 -0.3571 -0.0602
   91SAPC  H13R 8726   1.181  -0.678   6.140  1.0482  1.3622  0.3904
   91SAPC  H13S 8727   1.104  -0.556   6.237 -0.1051 -0.4226  0.8044
   91SAPC  C214 8728   0.982  -0.727   6.218 -0.5780  0.3082  0.2390
   91SAPC  H14R 8729   0.971  -0.836   6.229 -2.6384  0.4440 -0.0626
   91SAPC  C215 8730   0.867  -0.656   6.212  0.7485  0.5371  0.0104
   91SAPC  H15R 8731   0.770  -0.708   6.220 -0.9671  3.4639 -0.3153
   91SAPC  C216 8732   0.846  -0.507   6.202 -0.2676  0.3670  0.1772
   91SAPC  H16R 8733   0.785  -0.484   6.112  0.5259  0.6178 -0.3072
   91SAPC  H16S 8734   0.942  -0.452   6.188 -0.1601 -0.2994 -2.0463
   91SAPC  C217 8735   0.777  -0.454   6.323  0.1194 -0.5216 -0.1087
   91SAPC  H17R 8736   0.733  -0.355   6.296 -1.3992 -0.7153  1.4834
   91SAPC  H17S 8737   0.858  -0.450   6.398 -0.5349 -2.3925  0.7426
   91SAPC  C218 8738   0.666  -0.530   6.386 -0.8571  0.9257  0.5194
   91SAPC  H18R 8739   0.706  -0.627   6.422 -1.0798  0.9913  0.9542
   91SAPC  H18S 8740   0.599  -0.550   6.301  0.3299  1.7659 -0.6512
   91SAPC  C219 8741   0.592  -0.461   6.502 -0.2899 -0.1115  0.0304
   91SAPC  H19R 8742   0.528  -0.541   6.543 -0.7384 -1.8842 -3.6838
   91SAPC  H19S 8743   0.525  -0.383   6.459 -2.3677 -1.0364  1.4371
   91SAPC  C220 8744   0.683  -0.398   6.611 -0.3924 -1.2083  0.5932
   91SAPC  H20R 8745   0.756  -0.469   6.656  0.3128 -0.1788  1.1282
   91SAPC  H20S 8746   0.627  -0.358   6.699 -1.9876 -1.5200 -0.2467
   91SAPC  H20T 8747   0.732  -0.307   6.571 -5.0703  0.8226 -1.1755
   91SAPC   C33 8748   0.877   0.483   6.537 -0.4787  0.2640 -0.0105
   91SAPC   H3X 8749   0.906   0.589   6.555  2.3939 -0.6242  1.1001
   91SAPC   H3Y 8750   0.768   0.482   6.560 -0.5523  0.5492 -0.3380
   91SAPC   C34 8751   0.890   0.438   6.395  0.1473  0.7881  0.4450
   91SAPC   H4X 8752   0.833   0.343   6.389  2.1784 -0.7847  3.4315
   91SAPC   H4Y 8753   0.999   0.427   6.374  0.0120  2.3805 -1.4377
   91SAPC   C35 8754   0.855   0.543   6.284  0.8729  0.6738  0.2148
   91SAPC   H5X 8755   0.916   0.635   6.287  2.0660 -0.0149 -1.2226
   91SAPC   H5Y 8756   0.754   0.583   6.306  0.9563  0.7007  0.5510
   91SAPC   C36 8757   0.866   0.479   6.150  0.1350 -0.3194  0.1852
   91SAPC   H6X 8758   0.785   0.407   6.126  1.7077 -2.0967 -0.0538
   91SAPC   H6Y 8759   0.966   0.429   6.150 -0.2186 -1.0443 -0.5413
   91SAPC   C37 8760   0.880   0.582   6.035  0.8049  0.2719 -0.1759
   91SAPC   H7X 8761   0.960   0.656   6.054  0.3686  0.7062 -0.0055
   91SAPC   H7Y 8762   0.787   0.636   6.007  1.6426  2.1354  0.5023
   91SAPC   C38 8763   0.892   0.509   5.899 -0.7022  0.3446 -0.5201
   91SAPC   H8X 8764   0.804   0.442   5.886 -0.4823 -0.4926  1.8537
   91SAPC   H8Y 8765   0.976   0.437   5.909 -1.9906 -1.2622 -0.8403
   91SAPC   C39 8766   0.924   0.607   5.781  0.0988  0.3289 -0.7311
   91SAPC   H9X 8767   1.021   0.661   5.787  0.1216  0.3409 -1.1679
   91SAPC   H9Y 8768   0.835   0.673   5.773 -0.2482 -0.0167  0.1036
   91SAPC  C310 8769   0.931   0.535   5.646 -0.3244  0.6369  0.4628
   91SAPC  H10X 8770   0.847   0.467   5.620 -0.4957  0.3513  1.7018
   91SAPC  H10Y 8771   1.014   0.462   5.654 -1.5296 -0.5498  5.3309
   91SAPC  C311 8772   0.974   0.625   5.532 -0.0970  0.3229  0.6850
   91SAPC  H11X 8773   1.061   0.694   5.539  0.1261  1.0129 -4.6291
   91SAPC  H11Y 8774   0.886   0.693   5.527 -0.6146 -0.2339  1.8680
   91SAPC  C312 8775   0.981   0.544   5.400 -0.3559  0.2180  0.7797
   91SAPC  H12X 8776   0.949   0.622   5.327 -1.9302  0.5817  1.8086
   91SAPC  H12Y 8777   0.909   0.460   5.392  2.3971 -2.5083  2.3992
   91SAPC  C313 8778   1.110   0.466   5.378 -0.3905  0.3443 -0.2546
   91SAPC  H13X 8779   1.115   0.389   5.458  2.3399  0.8393  0.1297
   91SAPC  H13Y 8780   1.190   0.538   5.404  1.4652 -1.5592 -0.4280
   91SAPC  C314 8781   1.129   0.404   5.237  0.3460  0.3313  0.4856
   91SAPC  H14X 8782   1.085   0.302   5.250 -1.5134  1.1235  0.7530
   91SAPC  H14Y 8783   1.236   0.383   5.215  0.2315 -1.5849  1.5134
   91SAPC  C315 8784   1.055   0.476   5.121 -0.8272 -0.7145  0.1581
   91SAPC  H15X 8785   1.086   0.582   5.125 -3.8306  0.3469 -1.7866
   91SAPC  H15Y 8786   0.946   0.473   5.138 -0.8079 -0.2486  0.3602
   91SAPC  C316 8787   1.079   0.426   4.975  0.0428 -0.6412 -0.6052
   91SAPC  H16X 8788   1.185   0.395   4.963  0.0105 -0.9364 -0.1338
   91SAPC  H16Y 8789   1.060   0.517   4.914 -1.3734  1.7688  3.1287
   91SAPC  C317 8790   0.995   0.302   4.940  0.3526  0.2880 -0.2115
   91SAPC  H17X 8791   0.885   0.310   4.933  0.3905  0.9222 -0.1585
   91SAPC  H17Y 8792   1.023   0.227   5.018  1.3134 -0.3526 -1.1400
   91SAPC  C318 8793   1.024   0.265   4.793 -0.1557  0.5511  0.0182
   91SAPC  H18X 8794   1.128   0.226   4.786  0.5221  1.5863  2.8126
   91SAPC  H18Y 8795   1.006   0.349   4.723 -2.3536 -0.9496 -1.3731
   91SAPC  H18Z 8796   0.954   0.191   4.749 -0.3110  0.5477  0.2665
   92SAPC     N 8797   0.536   5.963   7.455 -0.2561  0.1157  0.5930
   92SAPC   C12 8798   0.597   5.841   7.388 -0.0166 -0.2927 -0.3246
   92SAPC  H12A 8799   0.563   5.759   7.449 -0.7612  0.7526  0.7274
   92SAPC  H12B 8800   0.703   5.842   7.406 -0.1264 -0.6323  0.4182
   92SAPC   C13 8801   0.586   6.088   7.401 -0.0487  0.3334 -0.0179
   92SAPC  H13A 8802   0.530   6.175   7.432 -1.7636 -0.6736 -0.1608
   92SAPC  H13B 8803   0.690   6.097   7.429 -0.2013 -0.0554  0.7000
   92SAPC  H13C 8804   0.569   6.094   7.295 -0.6349  1.3427  0.1165
   92SAPC   C14 8805   0.389   5.954   7.436  0.1897  0.0161  0.4375
   92SAPC  H14A 8806   0.360   5.950   7.332  0.9742 -0.3719  0.2330
   92SAPC  H14B 8807   0.346   5.867   7.483 -1.1225  0.0975 -0.5395
   92SAPC  H14C 8808   0.335   6.035   7.483 -1.1689 -0.4722 -0.1970
   92SAPC   C15 8809   0.571   5.953   7.603  0.0059  0.7810 -0.3691
   92SAPC  H15A 8810   0.526   5.869   7.653 -1.4551  1.5254 -0.3878
   92SAPC  H15B 8811   0.679   5.958   7.612 -0.0493 -0.1827  1.2403
   92SAPC  H15C 8812   0.525   6.036   7.655 -1.7456 -0.3119 -0.1078
   92SAPC   C11 8813   0.563   5.808   7.244 -0.0991  0.5570  0.6362
   92SAPC  H11A 8814   0.455   5.824   7.224  0.2298  5.1608  1.5274
   92SAPC  H11B 8815   0.586   5.703   7.214  0.1240  0.8860 -0.3792
   92SAPC     P 8816   0.787   5.902   7.145  0.4591 -0.2776 -0.0449
   92SAPC   O13 8817   0.840   6.034   7.176 -0.1989  0.0876  0.1443
   92SAPC   O14 8818   0.843   5.796   7.229  0.1008  0.2405  0.0104
   92SAPC   O12 8819   0.630   5.895   7.158  0.1226  0.5252  0.0786
   92SAPC   O11 8820   0.809   5.868   6.998  0.3532 -0.1148 -0.1748
   92SAPC    C1 8821   0.713   5.813   6.909  0.3920  0.5783  0.2489
   92SAPC    HA 8822   0.773   5.746   6.843 -0.3028 -2.2179  2.2813
   92SAPC    HB 8823   0.631   5.766   6.966  1.4208  0.7668  1.9505
   92SAPC    C2 8824   0.651   5.930   6.825 -0.2023 -0.3622 -0.3972
   92SAPC    HS 8825   0.609   6.001   6.900  1.0021  0.1579 -0.2010
   92SAPC   O21 8826   0.543   5.880   6.741 -0.2132 -0.3126 -0.0365
   92SAPC   C21 8827   0.435   5.955   6.728  0.3466  0.0676  0.4566
   92SAPC   O22 8828   0.418   6.067   6.775 -0.3165  0.2719 -0.6509
   92SAPC   C22 8829   0.323   5.889   6.641  0.8190  0.1108  0.0453
   92SAPC   H2R 8830   0.380   5.803   6.599  1.2385 -1.0934  2.8617
   92SAPC   H2S 8831   0.246   5.848   6.709 -0.8673  0.1080 -1.7818
   92SAPC    C3 8832   0.751   6.011   6.736 -0.6545 -0.1130  0.5207
   92SAPC    HX 8833   0.843   6.038   6.792 -0.4144  0.6517 -0.2192
   92SAPC    HY 8834   0.696   6.104   6.710 -0.4889 -0.1144  0.1585
   92SAPC   O31 8835   0.781   5.942   6.613 -0.5853  0.1612  0.2734
   92SAPC   C31 8836   0.905   5.899   6.603  0.9478  0.2315  0.1050
   92SAPC   O32 8837   1.003   5.936   6.670  0.3782  1.0378  0.9348
   92SAPC   C32 8838   0.916   5.804   6.486 -0.1901  0.1774 -0.0126
   92SAPC   H2X 8839   0.976   5.712   6.505 -0.3417  0.2611  0.9071
   92SAPC   H2Y 8840   0.967   5.847   6.398 -0.6886 -0.1035 -0.4496
   92SAPC   C23 8841   0.260   5.996   6.553 -0.9942 -0.2462 -0.3537
   92SAPC   H3R 8842   0.344   6.056   6.511  0.2874 -2.7941 -1.7216
   92SAPC   H3S 8843   0.187   6.057   6.610 -1.4980 -0.2144 -1.0254
   92SAPC   C24 8844   0.193   5.930   6.432  0.4000  0.7232  0.7446
   92SAPC   H4R 8845   0.244   5.839   6.393 -0.9042  0.0773  0.4924
   92SAPC   H4S 8846   0.193   6.005   6.350 -0.9906  1.5330  1.4600
   92SAPC   C25 8847   0.051   5.886   6.471 -0.1810  0.4335 -0.3639
   92SAPC   H5R 8848   0.052   5.801   6.541  0.3468  1.2227  0.5994
   92SAPC   C26 8849  -0.059   5.933   6.419 -0.0370  0.0944 -0.2460
   92SAPC   H6R 8850  -0.154   5.894   6.458  0.9841  0.1983  2.5525
   92SAPC   C27 8851  -0.067   6.033   6.304 -0.1874 -0.4027  0.2747
   92SAPC   H7R 8852  -0.158   6.008   6.247  0.8787 -1.4390 -1.0254
   92SAPC   H7S 8853   0.013   6.025   6.227 -1.1906  0.1332 -0.8636
   92SAPC   C28 8854  -0.079   6.174   6.345  0.3174 -0.0074  0.0756
   92SAPC   H8R 8855  -0.042   6.198   6.446  0.7921  1.0244 -0.3296
   92SAPC   C29 8856  -0.118   6.277   6.258  0.1927  0.0110  0.3046
   92SAPC   H9R 8857  -0.121   6.382   6.291 -0.6045 -0.1072  0.6094
   92SAPC  C210 8858  -0.145   6.263   6.113  0.6090 -0.9418  0.1069
   92SAPC  H10R 8859  -0.250   6.230   6.102  0.6688 -1.2007  0.2959
   92SAPC  H10S 8860  -0.086   6.178   6.073  1.9972 -0.3694  0.8566
   92SAPC  C211 8861  -0.124   6.390   6.039  0.4170  0.1454  0.3852
   92SAPC  H11R 8862  -0.174   6.476   6.086 -0.3474 -0.0289 -0.0817
   92SAPC  C212 8863  -0.078   6.411   5.912 -0.0744  0.4081 -0.1155
   92SAPC  H12R 8864  -0.046   6.510   5.875  0.4861 -0.2957 -1.6244
   92SAPC  C213 8865  -0.043   6.296   5.817 -0.0462  0.3150  0.2549
   92SAPC  H13R 8866  -0.005   6.212   5.878  1.6820  1.4271  0.7733
   92SAPC  H13S 8867   0.051   6.321   5.763 -0.0273  3.4963  1.5723
   92SAPC  C214 8868  -0.165   6.248   5.725 -0.4668 -0.2681 -0.2285
   92SAPC  H14R 8869  -0.259   6.241   5.780 -1.2736 -0.2755 -1.5782
   92SAPC  C215 8870  -0.167   6.242   5.592 -0.6351  0.1709  0.3148
   92SAPC  H15R 8871  -0.258   6.208   5.541 -0.4818 -0.3275  0.3661
   92SAPC  C216 8872  -0.047   6.252   5.500 -0.1081 -0.0426  0.2374
   92SAPC  H16R 8873   0.046   6.258   5.560 -0.2225 -0.1625  0.4265
   92SAPC  H16S 8874  -0.049   6.345   5.440 -2.4781  0.1668  0.5303
   92SAPC  C217 8875  -0.028   6.130   5.408  0.2539  0.4176  0.0746
   92SAPC  H17R 8876   0.067   6.152   5.356 -0.3253 -0.6758 -1.4939
   92SAPC  H17S 8877  -0.102   6.122   5.326 -1.0425 -0.6932  1.2789
   92SAPC  C218 8878  -0.022   5.995   5.476  0.3907 -0.6676  0.2693
   92SAPC  H18R 8879  -0.121   5.972   5.521  0.4636  0.1951  0.8929
   92SAPC  H18S 8880   0.053   6.010   5.556 -0.2510  2.1309  0.4662
   92SAPC  C219 8881   0.012   5.880   5.395  0.0676  0.6842  0.0224
   92SAPC  H19R 8882   0.106   5.904   5.341  0.4187 -0.7282 -0.0552
   92SAPC  H19S 8883  -0.075   5.860   5.329 -0.9891  2.5243  0.8107
   92SAPC  C220 8884   0.040   5.757   5.488  1.4539  0.1285  0.1264
   92SAPC  H20R 8885   0.133   5.768   5.547  2.2581 -0.3542 -1.0184
   92SAPC  H20S 8886   0.043   5.670   5.419  0.8450  0.4851 -0.3709
   92SAPC  H20T 8887  -0.049   5.741   5.552 -0.9280  0.5312 -2.8304
   92SAPC   C33 8888   0.782   5.759   6.425  0.2966  0.3097  0.4156
   92SAPC   H3X 8889   0.789   5.726   6.319  1.3066 -1.0224  0.8683
   92SAPC   H3Y 8890   0.708   5.842   6.430 -1.0943 -0.9343  1.4497
   92SAPC   C34 8891   0.722   5.632   6.491  0.5203 -0.2866  0.1926
   92SAPC   H4X 8892   0.700   5.657   6.597 -1.0646 -1.7088  0.2243
   92SAPC   H4Y 8893   0.790   5.544   6.494 -0.7877 -1.3199  0.1987
   92SAPC   C35 8894   0.587   5.601   6.424  0.5075  0.2379  0.6168
   92SAPC   H5X 8895   0.607   5.567   6.320  0.2957  1.6551  0.0881
   92SAPC   H5Y 8896   0.525   5.693   6.430  0.2433  0.1986 -1.0706
   92SAPC   C36 8897   0.509   5.482   6.490 -0.3983 -0.0896  0.1476
   92SAPC   H6X 8898   0.499   5.497   6.599 -0.0198 -4.3789  0.9654
   92SAPC   H6Y 8899   0.558   5.388   6.456  2.2600  1.5916 -0.9763
   92SAPC   C37 8900   0.366   5.460   6.437  1.3173  0.4990  0.7306
   92SAPC   H7X 8901   0.308   5.554   6.442 -0.5590 -0.4289 -1.8285
   92SAPC   H7Y 8902   0.316   5.381   6.497 -0.1830  0.9514  0.1107
   92SAPC   C38 8903   0.351   5.414   6.288  0.7542  0.1737  0.1036
   92SAPC   H8X 8904   0.418   5.327   6.270 -0.7430 -1.1666  0.7277
   92SAPC   H8Y 8905   0.366   5.503   6.224 -1.0868 -0.8235 -1.8715
   92SAPC   C39 8906   0.211   5.360   6.244 -0.3613  0.2726 -0.7310
   92SAPC   H9X 8907   0.131   5.421   6.290 -0.9453 -1.1630  0.2464
   92SAPC   H9Y 8908   0.198   5.265   6.300  0.5715 -0.3607 -1.5373
   92SAPC  C310 8909   0.190   5.350   6.090 -0.1027 -0.5680 -0.4590
   92SAPC  H10X 8910   0.273   5.287   6.051  0.8025  0.0422  0.4424
   92SAPC  H10Y 8911   0.203   5.452   6.050 -0.6520  0.2953  1.4455
   92SAPC  C311 8912   0.046   5.304   6.050  0.2066 -0.0300  0.4320
   92SAPC  H11X 8913  -0.019   5.394   6.048 -1.2907 -1.0634 -0.2809
   92SAPC  H11Y 8914  -0.001   5.250   6.136 -0.6038  0.8161  0.5345
   92SAPC  C312 8915   0.043   5.233   5.911  0.6648  0.1292 -0.1251
   92SAPC  H12X 8916  -0.058   5.203   5.879  1.7110 -1.8762 -1.7144
   92SAPC  H12Y 8917   0.082   5.130   5.923 -0.0449 -0.2478 -0.9820
   92SAPC  C313 8918   0.096   5.327   5.802 -0.4318  0.3219  0.2732
   92SAPC  H13X 8919   0.207   5.329   5.815 -0.0993  1.0538 -2.0983
   92SAPC  H13Y 8920   0.042   5.424   5.797 -1.3025 -0.1842 -0.4516
   92SAPC  C314 8921   0.082   5.250   5.666  0.1991  0.1626  0.3309
   92SAPC  H14X 8922  -0.025   5.234   5.640  0.2382  1.7024 -0.9576
   92SAPC  H14Y 8923   0.122   5.148   5.684 -0.9256 -0.0510  1.7954
   92SAPC  C315 8924   0.150   5.329   5.551 -0.1598  0.6680  0.1133
   92SAPC  H15X 8925   0.259   5.333   5.570 -0.2435 -0.3939  0.9009
   92SAPC  H15Y 8926   0.101   5.429   5.547 -1.5508  0.0438  0.7513
   92SAPC  C316 8927   0.116   5.263   5.420  0.2216 -0.5341 -0.0037
   92SAPC  H16X 8928   0.026   5.308   5.375  1.4625  0.1661 -1.9054
   92SAPC  H16Y 8929   0.097   5.155   5.439  3.5480 -1.4140 -0.9924
   92SAPC  C317 8930   0.224   5.283   5.313 -0.3497  0.9099  0.2531
   92SAPC  H17X 8931   0.317   5.237   5.353  0.0421  1.5978  0.1371
   92SAPC  H17Y 8932   0.247   5.390   5.292 -1.5106  1.1343  0.0929
   92SAPC  C318 8933   0.186   5.210   5.177 -0.1377  0.3798 -0.3715
   92SAPC  H18X 8934   0.103   5.258   5.121 -0.5311  0.8278  0.5682
   92SAPC  H18Y 8935   0.162   5.104   5.200  0.2480  0.0923 -1.2229
   92SAPC  H18Z 8936   0.278   5.193   5.117  0.6263  2.6565  0.0304
   93SAPC     N 8937   2.329   0.162   7.819 -0.4051 -0.6349 -0.3421
   93SAPC   C12 8938   2.220   0.211   7.726 -0.1921  0.5857 -0.0008
   93SAPC  H12A 8939   2.231   0.318   7.715  1.9824  0.4042 -0.0002
   93SAPC  H12B 8940   2.123   0.187   7.766 -0.9167  1.2867 -1.2720
   93SAPC   C13 8941   2.315   0.017   7.852 -0.3938 -0.0517 -0.2589
   93SAPC  H13A 8942   2.222   0.009   7.906 -0.0013  0.9510  0.6074
   93SAPC  H13B 8943   2.298  -0.049   7.769 -2.5518  0.3773 -0.2224
   93SAPC  H13C 8944   2.395  -0.014   7.917  0.7346  2.1429 -0.4924
   93SAPC   C14 8945   2.467   0.182   7.764 -0.1390 -0.4413 -0.5283
   93SAPC  H14A 8946   2.542   0.137   7.826 -1.7694 -0.7033  1.3556
   93SAPC  H14B 8947   2.467   0.139   7.664  2.0647  1.7062 -1.5393
   93SAPC  H14C 8948   2.492   0.286   7.760  0.9210 -0.7093 -1.2367
   93SAPC   C15 8949   2.312   0.237   7.947 -0.3483 -0.5398  0.0957
   93SAPC  H15A 8950   2.348   0.338   7.937  0.1559 -0.6550  0.6869
   93SAPC  H15B 8951   2.212   0.224   7.986 -0.4394  0.8191  0.3377
   93SAPC  H15C 8952   2.380   0.193   8.019  0.6670  0.4094 -0.2541
   93SAPC   C11 8953   2.216   0.159   7.581  0.1900  0.4549  0.4657
   93SAPC  H11A 8954   2.297   0.201   7.517 -0.9032  2.3005  0.1988
   93SAPC  H11B 8955   2.128   0.207   7.533  0.3215  1.9689  1.6753
   93SAPC     P 8956   2.088  -0.064   7.544 -0.0908  0.3680  0.6662
   93SAPC   O13 8957   2.131  -0.201   7.511  0.2812  0.2199  0.3646
   93SAPC   O14 8958   1.995  -0.048   7.655  0.1334  0.6447 -0.1124
   93SAPC   O12 8959   2.221   0.018   7.574 -0.0479 -0.1726 -0.6972
   93SAPC   O11 8960   2.026   0.008   7.419  0.1868 -0.0650 -0.0835
   93SAPC    C1 8961   2.098   0.015   7.293 -0.4117 -0.0531 -0.3741
   93SAPC    HA 8962   2.059   0.098   7.231 -0.9406 -0.3132 -0.3961
   93SAPC    HB 8963   2.207   0.018   7.313 -0.7088  0.1498  1.3908
   93SAPC    C2 8964   2.076  -0.111   7.202 -0.1300  0.4896 -0.5994
   93SAPC    HS 8965   2.109  -0.205   7.250 -1.4003  0.0591 -0.5506
   93SAPC   O21 8966   2.132  -0.087   7.072  0.4301  0.1291 -0.1707
   93SAPC   C21 8967   2.159  -0.193   6.988 -0.1900 -0.1538 -0.3678
   93SAPC   O22 8968   2.168  -0.304   7.034 -0.3491  0.0250 -0.1242
   93SAPC   C22 8969   2.193  -0.152   6.843  0.3390  0.2468  0.6100
   93SAPC   H2R 8970   2.220  -0.044   6.837  1.8469 -0.1916 -1.9367
   93SAPC   H2S 8971   2.288  -0.198   6.808 -0.7849 -0.4735 -1.6682
   93SAPC    C3 8972   1.922  -0.145   7.198  0.0717 -0.4678 -0.1209
   93SAPC    HX 8973   1.872  -0.053   7.160  0.8381 -0.6106 -1.5279
   93SAPC    HY 8974   1.886  -0.146   7.303  2.1364  0.0465  0.6441
   93SAPC   O31 8975   1.880  -0.273   7.138  0.1447 -0.9575 -0.7082
   93SAPC   C31 8976   1.824  -0.261   7.019 -0.4067 -0.8028  0.4343
   93SAPC   O32 8977   1.807  -0.154   6.961 -0.4145  0.4050 -0.1387
   93SAPC   C32 8978   1.779  -0.389   6.959  0.1483  0.3968 -0.7005
   93SAPC   H2X 8979   1.749  -0.453   7.045  2.2086  1.7196  1.0880
   93SAPC   H2Y 8980   1.859  -0.444   6.905 -1.8846 -3.0788 -0.4799
   93SAPC   C23 8981   2.087  -0.185   6.728  0.3542 -0.1408 -0.3332
   93SAPC   H3R 8982   2.003  -0.117   6.755 -1.3410 -1.8949 -0.9563
   93SAPC   H3S 8983   2.043  -0.286   6.742 -1.5104 -0.0298 -4.1082
   93SAPC   C24 8984   2.148  -0.176   6.585 -0.2798  0.3638 -0.0535
   93SAPC   H4R 8985   2.075  -0.200   6.504 -1.9444 -0.3383  1.5903
   93SAPC   H4S 8986   2.225  -0.256   6.597 -1.5468 -0.6878  1.4889
   93SAPC   C25 8987   2.197  -0.033   6.560  0.2633 -0.0285  0.0364
   93SAPC   H5R 8988   2.202   0.040   6.642  1.0159 -0.8377  0.7305
   93SAPC   C26 8989   2.278   0.008   6.464 -0.0287 -0.4762  0.4951
   93SAPC   H6R 8990   2.296   0.116   6.455  1.7270 -0.8923 -2.0148
   93SAPC   C27 8991   2.302  -0.082   6.340  1.2371  0.0126 -0.2006
   93SAPC   H7R 8992   2.269  -0.017   6.256 -2.2783  1.2580  1.9205
   93SAPC   H7S 8993   2.242  -0.175   6.344  0.1983  0.7051  1.1455
   93SAPC   C28 8994   2.450  -0.120   6.321  0.1216  0.4811 -0.7804
   93SAPC   H8R 8995   2.511  -0.134   6.412  0.0570  2.4432 -0.3716
   93SAPC   C29 8996   2.526  -0.135   6.214 -0.2819 -0.2065  0.5779
   93SAPC   H9R 8997   2.629  -0.173   6.215 -0.0188  0.3161 -1.8016
   93SAPC  C210 8998   2.489  -0.107   6.072 -0.2721 -0.4514  0.0111
   93SAPC  H10R 8999   2.458  -0.001   6.071 -0.3912 -0.4889 -0.2400
   93SAPC  H10S 9000   2.394  -0.159   6.048  0.1026 -0.2838 -2.0219
   93SAPC  C211 9001   2.598  -0.139   5.971 -0.2420  0.0464 -0.3041
   93SAPC  H11R 9002   2.638  -0.241   5.979 -0.3803 -0.1000 -1.2593
   93SAPC  C212 9003   2.632  -0.070   5.867  0.0162  0.7591  0.2390
   93SAPC  H12R 9004   2.713  -0.109   5.804 -1.1852 -0.5803 -0.5343
   93SAPC  C213 9005   2.586   0.063   5.819  0.5575  1.0330  0.3789
   93SAPC  H13R 9006   2.485   0.071   5.864 -0.1834 -2.1360 -0.5066
   93SAPC  H13S 9007   2.578   0.052   5.709  1.1417 -0.1917  0.4366
   93SAPC  C214 9008   2.668   0.186   5.861 -0.7614 -0.1241  0.3677
   93SAPC  H14R 9009   2.776   0.171   5.848 -0.5615  1.5131 -0.0812
   93SAPC  C215 9010   2.637   0.305   5.921  0.2689 -0.2803 -0.0157
   93SAPC  H15R 9011   2.713   0.375   5.958 -0.8187  0.9641 -0.0503
   93SAPC  C216 9012   2.502   0.347   5.977  0.1650  0.7154  0.3567
   93SAPC  H16R 9013   2.429   0.280   5.928  1.9489 -0.5498 -0.6863
   93SAPC  H16S 9014   2.493   0.455   5.953  1.9735  0.1711 -3.4411
   93SAPC  C217 9015   2.499   0.314   6.128  0.4263 -0.6479  0.0569
   93SAPC  H17R 9016   2.595   0.347   6.174  0.3784 -1.5384  0.8304
   93SAPC  H17S 9017   2.499   0.203   6.143  0.0831 -0.9180 -1.7878
   93SAPC  C218 9018   2.381   0.397   6.195  0.1931  0.9997 -0.9376
   93SAPC  H18R 9019   2.285   0.372   6.144  0.8712  1.7512 -2.6451
   93SAPC  H18S 9020   2.407   0.503   6.175  1.8887  1.0399  1.1520
   93SAPC  C219 9021   2.379   0.377   6.346  0.4168  0.7128 -0.6481
   93SAPC  H19R 9022   2.448   0.447   6.397 -1.9227  1.4696  1.7190
   93SAPC  H19S 9023   2.412   0.272   6.361 -0.3960  0.2568 -1.8658
   93SAPC  C220 9024   2.238   0.406   6.398 -0.0364 -0.4150  0.9583
   93SAPC  H20R 9025   2.170   0.322   6.375 -0.0051 -0.2258  0.1597
   93SAPC  H20S 9026   2.199   0.496   6.347  2.1511 -0.6777 -1.3662
   93SAPC  H20T 9027   2.242   0.418   6.509 -0.5475 -0.0712  0.9417
   93SAPC   C33 9028   1.664  -0.385   6.854 -0.0478 -0.3222 -0.4668
   93SAPC   H3X 9029   1.598  -0.300   6.885 -0.5162 -0.4685 -1.0469
   93SAPC   H3Y 9030   1.602  -0.477   6.864 -2.1898  1.2171  1.9880
   93SAPC   C34 9031   1.713  -0.381   6.708  0.4197  0.4837 -1.2089
   93SAPC   H4X 9032   1.734  -0.489   6.693  0.8067  0.3441  0.1652
   93SAPC   H4Y 9033   1.809  -0.326   6.691  0.0949  2.0803  1.5157
   93SAPC   C35 9034   1.612  -0.336   6.605  0.3622  0.4226  0.4224
   93SAPC   H5X 9035   1.556  -0.247   6.642 -1.1803  0.4427 -1.7598
   93SAPC   H5Y 9036   1.529  -0.410   6.595 -1.1247  2.1088 -0.3047
   93SAPC   C36 9037   1.664  -0.304   6.461  0.0755  0.3024 -0.3672
   93SAPC   H6X 9038   1.679  -0.398   6.404  1.4609 -0.8720  1.8385
   93SAPC   H6Y 9039   1.757  -0.246   6.475  0.6152 -0.5266 -0.4447
   93SAPC   C37 9040   1.562  -0.212   6.384 -0.1503  0.3713 -0.2347
   93SAPC   H7X 9041   1.601  -0.172   6.289  1.8763  0.8160  0.7445
   93SAPC   H7Y 9042   1.537  -0.119   6.438 -2.1813 -0.2345 -0.0392
   93SAPC   C38 9043   1.427  -0.288   6.356 -0.2027  0.1380 -0.3930
   93SAPC   H8X 9044   1.338  -0.226   6.331 -0.5187 -0.3860 -0.5806
   93SAPC   H8Y 9045   1.403  -0.344   6.449  0.6444  2.4193  1.3032
   93SAPC   C39 9046   1.444  -0.394   6.248  0.3283  0.5858  0.9844
   93SAPC   H9X 9047   1.356  -0.462   6.245  0.1942  0.7397  1.4362
   93SAPC   H9Y 9048   1.527  -0.465   6.267  0.9488  0.7883 -0.8049
   93SAPC  C310 9049   1.442  -0.336   6.105  0.1895  0.2401  0.8403
   93SAPC  H10X 9050   1.524  -0.262   6.102  1.4559 -1.1754 -1.1708
   93SAPC  H10Y 9051   1.343  -0.288   6.092 -0.4747 -1.3343 -0.2041
   93SAPC  C311 9052   1.474  -0.427   5.987 -0.0192  1.0083  0.3727
   93SAPC  H11X 9053   1.412  -0.515   6.014 -2.8239  1.6613 -3.1366
   93SAPC  H11Y 9054   1.581  -0.454   5.993 -0.2180 -0.3988 -1.6230
   93SAPC  C312 9055   1.441  -0.373   5.846 -0.3800 -0.3861 -0.0273
   93SAPC  H12X 9056   1.488  -0.272   5.836  0.8748 -1.0542 -1.1766
   93SAPC  H12Y 9057   1.334  -0.342   5.845 -0.9481 -2.1566  1.2083
   93SAPC  C313 9058   1.488  -0.472   5.735 -0.7783  0.1665 -0.3289
   93SAPC  H13X 9059   1.432  -0.568   5.742 -2.7302  0.7991 -4.2344
   93SAPC  H13Y 9060   1.598  -0.486   5.732 -0.5766  1.7181 -3.0740
   93SAPC  C314 9061   1.464  -0.416   5.595  0.3997 -0.2201 -0.4909
   93SAPC  H14X 9062   1.526  -0.324   5.588  0.1078  0.0548  0.3727
   93SAPC  H14Y 9063   1.364  -0.372   5.574  1.6436  2.4259 -1.3557
   93SAPC  C315 9064   1.493  -0.512   5.480 -0.3336 -0.1529 -0.1182
   93SAPC  H15X 9065   1.419  -0.595   5.486  1.8536 -2.1071  2.1938
   93SAPC  H15Y 9066   1.593  -0.559   5.494  0.1646  1.2112  1.1342
   93SAPC  C316 9067   1.463  -0.453   5.335  0.4609 -0.1151 -0.2049
   93SAPC  H16X 9068   1.516  -0.518   5.262  0.7145 -1.5096  1.1791
   93SAPC  H16Y 9069   1.511  -0.353   5.325 -0.6327  0.2450 -2.3434
   93SAPC  C317 9070   1.327  -0.431   5.288  0.0973  0.0591  0.0569
   93SAPC  H17X 9071   1.286  -0.347   5.349 -1.0258  0.5684 -1.3407
   93SAPC  H17Y 9072   1.273  -0.525   5.312  0.2421  0.2950  1.4115
   93SAPC  C318 9073   1.315  -0.386   5.143 -0.1276  0.1384 -1.1196
   93SAPC  H18X 9074   1.218  -0.331   5.143  0.5575  1.5345  1.7466
   93SAPC  H18Y 9075   1.316  -0.476   5.078  3.4920 -1.1662  0.5024
   93SAPC  H18Z 9076   1.385  -0.305   5.115  1.1715 -0.7599 -0.5691
   94SAPC     N 9077   0.799   5.067   7.335 -0.0145 -0.3862  0.0932
   94SAPC   C12 9078   0.841   5.032   7.198 -0.4197 -0.3336 -0.1568
   94SAPC  H12A 9079   0.773   5.072   7.124  1.1977  0.0661 -1.4815
   94SAPC  H12B 9080   0.829   4.925   7.190  1.6203 -0.6590  0.5779
   94SAPC   C13 9081   0.668   5.002   7.352 -0.0463  0.4104 -0.3675
   94SAPC  H13A 9082   0.584   5.032   7.291 -0.6806  0.2097  0.3897
   94SAPC  H13B 9083   0.669   4.895   7.361 -1.1813  0.4528  0.3752
   94SAPC  H13C 9084   0.633   5.024   7.452  0.1516 -1.0113  0.0297
   94SAPC   C14 9085   0.889   5.006   7.447  0.4395  0.1133  0.4621
   94SAPC  H14A 9086   0.887   4.898   7.440 -0.6965  0.1074  0.7880
   94SAPC  H14B 9087   0.986   5.053   7.434 -0.1530  1.8261  1.8564
   94SAPC  H14C 9088   0.855   5.023   7.548 -0.9166 -0.2917  0.0893
   94SAPC   C15 9089   0.783   5.218   7.353 -0.3629 -0.2456 -0.1306
   94SAPC  H15A 9090   0.735   5.270   7.271 -1.8160 -2.5889 -0.8520
   94SAPC  H15B 9091   0.736   5.244   7.447  1.1433  1.4623  0.2222
   94SAPC  H15C 9092   0.888   5.244   7.362  0.0083 -1.3180 -1.0410
   94SAPC   C11 9093   0.984   5.065   7.164 -0.2660  0.5817 -0.0056
   94SAPC  H11A 9094   1.016   5.029   7.064 -1.5544 -3.3321  0.7838
   94SAPC  H11B 9095   1.052   5.006   7.229 -1.8088 -1.8566 -0.4671
   94SAPC     P 9096   0.975   5.307   7.070  0.1806  0.2072  0.2028
   94SAPC   O13 9097   0.982   5.444   7.133 -0.5219  0.0153  0.3030
   94SAPC   O14 9098   1.060   5.295   6.947  0.0037  0.6470  0.7681
   94SAPC   O12 9099   1.015   5.202   7.175  0.4640  0.0566  0.4739
   94SAPC   O11 9100   0.826   5.264   7.053 -0.2484 -0.0248 -0.2209
   94SAPC    C1 9101   0.772   5.238   6.921  0.0032 -0.7439  0.4758
   94SAPC    HA 9102   0.850   5.189   6.859  0.8910 -2.7238  2.9563
   94SAPC    HB 9103   0.681   5.175   6.934 -1.3120  1.1103  0.6415
   94SAPC    C2 9104   0.724   5.377   6.862  0.0845  0.2377  0.1720
   94SAPC    HS 9105   0.648   5.352   6.784 -0.3476 -1.2514  1.0486
   94SAPC   O21 9106   0.825   5.438   6.788 -0.4208 -0.4534  0.1381
   94SAPC   C21 9107   0.873   5.381   6.677  0.5232  0.5164 -0.1580
   94SAPC   O22 9108   0.817   5.298   6.610 -0.0720  0.0180 -0.0613
   94SAPC   C22 9109   1.007   5.445   6.644 -0.7097  0.0110 -0.2200
   94SAPC   H2R 9110   0.983   5.553   6.643 -0.3305  0.0934 -0.5064
   94SAPC   H2S 9111   1.072   5.405   6.725  0.7755 -1.2605 -1.9643
   94SAPC    C3 9112   0.663   5.468   6.963 -0.4098  0.4135 -0.4485
   94SAPC    HX 9113   0.745   5.531   7.005  2.5578 -3.9193  0.9437
   94SAPC    HY 9114   0.638   5.413   7.056  1.3557  2.6369  1.4806
   94SAPC   O31 9115   0.555   5.541   6.902  0.6096  0.0365  0.2023
   94SAPC   C31 9116   0.440   5.555   6.966  0.4156  0.2788 -0.2516
   94SAPC   O32 9117   0.414   5.503   7.076 -0.0301  0.0972  0.2796
   94SAPC   C32 9118   0.339   5.627   6.872  0.3036 -0.1463 -0.3621
   94SAPC   H2X 9119   0.354   5.610   6.764  0.3510  0.1365 -0.4005
   94SAPC   H2Y 9120   0.348   5.733   6.904 -0.4537 -0.4448  0.9315
   94SAPC   C23 9121   1.054   5.393   6.502  0.2005  0.1731 -0.3841
   94SAPC   H3R 9122   0.980   5.445   6.437  1.2132  1.5988 -0.4404
   94SAPC   H3S 9123   1.052   5.282   6.500  0.7796  0.1696 -1.3836
   94SAPC   C24 9124   1.197   5.431   6.466 -0.2228 -0.6865  0.1381
   94SAPC   H4R 9125   1.224   5.376   6.373 -0.8128  2.1104 -1.8075
   94SAPC   H4S 9126   1.267   5.401   6.547  0.8154 -1.9576 -1.1813
   94SAPC   C25 9127   1.220   5.576   6.436 -1.2085 -0.5508  0.2423
   94SAPC   H5R 9128   1.292   5.622   6.506  1.2414 -2.4492 -0.9065
   94SAPC   C26 9129   1.191   5.647   6.318  0.0620 -0.3242 -1.0724
   94SAPC   H6R 9130   1.232   5.747   6.301  0.3314 -0.4208 -0.9999
   94SAPC   C27 9131   1.101   5.590   6.206 -0.0978  0.6870  0.1228
   94SAPC   H7R 9132   0.997   5.613   6.237  0.1658 -0.2567  1.7856
   94SAPC   H7S 9133   1.110   5.480   6.201  0.0516  0.7027  0.0403
   94SAPC   C28 9134   1.140   5.649   6.067 -0.1317 -0.6471  0.6634
   94SAPC   H8R 9135   1.244   5.644   6.032  0.5921 -0.2015  2.6515
   94SAPC   C29 9136   1.052   5.694   5.976 -0.2829 -0.3229 -0.1700
   94SAPC   H9R 9137   1.100   5.722   5.881  0.2172 -2.4366 -0.6012
   94SAPC  C210 9138   0.901   5.713   5.983  0.0983  0.3338  0.3631
   94SAPC  H10R 9139   0.863   5.707   6.088 -0.9115 -0.6130 -0.0378
   94SAPC  H10S 9140   0.855   5.628   5.927  0.2703 -0.3734  1.2571
   94SAPC  C211 9141   0.844   5.843   5.924 -0.1479  0.3132 -0.2388
   94SAPC  H11R 9142   0.906   5.903   5.855 -0.4106 -0.5427 -1.2487
   94SAPC  C212 9143   0.721   5.886   5.937  1.0993 -0.6795  0.2517
   94SAPC  H12R 9144   0.690   5.976   5.881 -0.7247 -0.7142  1.1422
   94SAPC  C213 9145   0.610   5.831   6.028  0.5989 -0.5051  0.3010
   94SAPC  H13R 9146   0.648   5.793   6.125  0.0656 -0.3957  0.5520
   94SAPC  H13S 9147   0.555   5.752   5.973  2.1386 -0.6103 -1.1715
   94SAPC  C214 9148   0.515   5.944   6.062  0.3077  0.1412  0.2848
   94SAPC  H14R 9149   0.557   6.045   6.056  0.7259 -0.0846 -0.7240
   94SAPC  C215 9150   0.381   5.927   6.097 -0.3184  0.2301 -0.1899
   94SAPC  H15R 9151   0.329   6.023   6.101  2.0250  1.5572  0.4785
   94SAPC  C216 9152   0.297   5.805   6.104  0.1048 -0.1332  0.9290
   94SAPC  H16R 9153   0.288   5.764   6.207 -1.8803  0.0692  0.8780
   94SAPC  H16S 9154   0.330   5.718   6.043  1.1478 -0.3302  1.7447
   94SAPC  C217 9155   0.158   5.843   6.055 -0.0522  0.3742  0.2719
   94SAPC  H17R 9156   0.147   5.843   5.944  0.1044 -2.2955  0.1868
   94SAPC  H17S 9157   0.123   5.939   6.099 -1.6867 -0.8350  1.7522
   94SAPC  C218 9158   0.046   5.755   6.107 -0.0750 -0.3769  0.2621
   94SAPC  H18R 9159   0.045   5.767   6.217 -0.6919 -3.4031  0.6825
   94SAPC  H18S 9160   0.060   5.646   6.090 -1.3694 -0.6257  0.6207
   94SAPC  C219 9161  -0.089   5.792   6.047  1.0673  0.0837 -0.0939
   94SAPC  H19R 9162  -0.094   5.902   6.062 -1.9579 -0.1934  1.5923
   94SAPC  H19S 9163  -0.159   5.726   6.103 -0.3716  0.3454 -1.5119
   94SAPC  C220 9164  -0.098   5.750   5.902 -0.3653 -0.5004  0.6232
   94SAPC  H20R 9165  -0.065   5.645   5.892  1.1358  0.0276 -0.2385
   94SAPC  H20S 9166  -0.036   5.820   5.842 -3.1904  0.0824 -1.8448
   94SAPC  H20T 9167  -0.200   5.769   5.862 -0.3800 -1.9934 -0.0924
   94SAPC   C33 9168   0.194   5.574   6.911 -0.3650  0.7534 -0.2358
   94SAPC   H3X 9169   0.189   5.598   7.019  1.8669 -0.4625  0.2052
   94SAPC   H3Y 9170   0.203   5.463   6.903  1.7393  0.8402  0.1223
   94SAPC   C34 9171   0.068   5.621   6.823 -0.1365  0.7411 -0.1668
   94SAPC   H4X 9172   0.078   5.729   6.798 -1.4158  0.7152 -0.8639
   94SAPC   H4Y 9173  -0.018   5.598   6.889  0.9166  0.8173  1.2874
   94SAPC   C35 9174   0.052   5.555   6.690 -0.2195 -0.3926  0.1280
   94SAPC   H5X 9175   0.049   5.444   6.697 -0.7450 -0.4507 -0.8065
   94SAPC   H5Y 9176   0.133   5.573   6.617 -1.2699  1.4345 -0.6713
   94SAPC   C36 9177  -0.085   5.582   6.624  0.4917 -0.0607 -0.4669
   94SAPC   H6X 9178  -0.102   5.691   6.639 -3.3318 -0.8631  2.8397
   94SAPC   H6Y 9179  -0.154   5.540   6.700  1.3925 -1.5922 -0.4456
   94SAPC   C37 9180  -0.092   5.531   6.486  0.2071 -0.8772 -0.4650
   94SAPC   H7X 9181  -0.058   5.426   6.486 -0.4894 -1.1042 -0.1926
   94SAPC   H7Y 9182  -0.018   5.577   6.416 -0.5010 -0.6999 -1.1169
   94SAPC   C38 9183  -0.238   5.552   6.434  0.0739  0.2277 -0.3594
   94SAPC   H8X 9184  -0.258   5.662   6.435  1.9620  0.6650 -2.0622
   94SAPC   H8Y 9185  -0.299   5.494   6.506  3.5274 -2.6548  0.4948
   94SAPC   C39 9186  -0.259   5.488   6.295  0.0560  0.0432  0.0648
   94SAPC   H9X 9187  -0.253   5.379   6.320 -0.5863 -0.3631 -1.4749
   94SAPC   H9Y 9188  -0.174   5.518   6.231 -0.3873  0.8420 -0.1656
   94SAPC  C310 9189  -0.387   5.515   6.220 -0.3522 -0.4515 -0.0981
   94SAPC  H10X 9190  -0.405   5.623   6.201 -4.3591 -0.4404  2.5928
   94SAPC  H10Y 9191  -0.477   5.478   6.274  0.1717 -2.5047 -0.5328
   94SAPC  C311 9192  -0.390   5.428   6.092 -0.4178  0.8178 -0.1115
   94SAPC  H11X 9193  -0.494   5.400   6.068 -0.1989 -0.5950  0.4810
   94SAPC  H11Y 9194  -0.338   5.335   6.124 -1.2909  1.4280  3.6709
   94SAPC  C312 9195  -0.332   5.496   5.956 -0.5686 -0.2021 -0.2490
   94SAPC  H12X 9196  -0.223   5.490   5.974 -0.6499 -0.5338  0.1563
   94SAPC  H12Y 9197  -0.345   5.606   5.958  2.5351  0.2579  2.0927
   94SAPC  C313 9198  -0.380   5.414   5.835 -0.0921  0.6340 -0.0703
   94SAPC  H13X 9199  -0.488   5.434   5.819 -0.1789 -0.0984 -0.4554
   94SAPC  H13Y 9200  -0.383   5.306   5.857 -3.1539 -0.0482 -2.9107
   94SAPC  C314 9201  -0.289   5.432   5.714 -0.1393 -0.3705  0.7017
   94SAPC  H14X 9202  -0.200   5.366   5.713  2.3042  2.6973 -1.0729
   94SAPC  H14Y 9203  -0.253   5.537   5.711 -0.8783 -0.1246 -0.9872
   94SAPC  C315 9204  -0.357   5.400   5.580  0.0336  0.3683 -0.4723
   94SAPC  H15X 9205  -0.449   5.458   5.556 -1.4666 -1.9279 -0.5408
   94SAPC  H15Y 9206  -0.376   5.291   5.581  1.4147  0.1096 -0.0892
   94SAPC  C316 9207  -0.264   5.411   5.457 -0.2726  0.0189 -0.1539
   94SAPC  H16X 9208  -0.169   5.358   5.481 -0.9582 -0.1042  2.7211
   94SAPC  H16Y 9209  -0.237   5.518   5.448  1.6663  0.0585  3.7568
   94SAPC  C317 9210  -0.318   5.340   5.337  0.1904 -0.1373  0.1151
   94SAPC  H17X 9211  -0.341   5.235   5.364 -3.0018 -0.0798 -1.9196
   94SAPC  H17Y 9212  -0.234   5.342   5.264 -0.2967  1.1693 -0.4431
   94SAPC  C318 9213  -0.439   5.406   5.266  0.4098  1.0470  0.3856
   94SAPC  H18X 9214  -0.520   5.441   5.334  0.5598  3.3639 -0.5615
   94SAPC  H18Y 9215  -0.484   5.351   5.180 -2.1751  0.6325  1.8699
   94SAPC  H18Z 9216  -0.408   5.498   5.214  1.0888  0.0588 -1.0182
   95SAPC     N 9217   0.423   1.958   2.420  0.4010  0.1030  0.1816
   95SAPC   C12 9218   0.435   2.059   2.535  0.2493 -0.4261  0.5373
   95SAPC  H12A 9219   0.338   2.105   2.548  0.4337 -0.3329  1.7712
   95SAPC  H12B 9220   0.501   2.140   2.507 -2.5954  1.4951 -1.0171
   95SAPC   C13 9221   0.559   1.912   2.381 -0.5452 -0.3037  0.6114
   95SAPC  H13A 9222   0.605   1.998   2.335 -1.6707 -0.5232 -0.9980
   95SAPC  H13B 9223   0.609   1.863   2.463  0.5081  1.2838  0.9455
   95SAPC  H13C 9224   0.551   1.836   2.305 -0.7827  0.0361  0.2952
   95SAPC   C14 9225   0.340   1.836   2.452  0.2573  0.7919 -0.4334
   95SAPC  H14A 9226   0.391   1.770   2.521 -1.4130  1.3101  1.3688
   95SAPC  H14B 9227   0.244   1.872   2.484  0.6529  1.9448 -0.5199
   95SAPC  H14C 9228   0.323   1.766   2.371 -1.8011 -0.9779  1.3669
   95SAPC   C15 9229   0.348   2.017   2.306 -0.1721 -0.3170 -0.0765
   95SAPC  H15A 9230   0.398   2.099   2.257 -2.0467  0.0912 -1.3998
   95SAPC  H15B 9231   0.328   1.943   2.230 -1.9707 -0.5913  0.5975
   95SAPC  H15C 9232   0.250   2.050   2.340 -0.5881 -1.4614 -0.1384
   95SAPC   C11 9233   0.465   2.002   2.682  0.4468 -0.0282  0.1694
   95SAPC  H11A 9234   0.400   1.915   2.701  0.6479 -0.0279  0.8684
   95SAPC  H11B 9235   0.437   2.083   2.753 -1.7272 -1.8461  1.4808
   95SAPC     P 9236   0.656   1.841   2.772 -0.2061 -0.0330  0.2878
   95SAPC   O13 9237   0.572   1.719   2.743 -0.1046 -0.4173  0.2438
   95SAPC   O14 9238   0.801   1.836   2.744  0.3053  0.0501  0.0145
   95SAPC   O12 9239   0.607   1.967   2.689  0.4457 -0.3435 -0.3652
   95SAPC   O11 9240   0.627   1.879   2.925 -0.5852  0.2190 -0.1519
   95SAPC    C1 9241   0.699   1.809   3.031  0.1843 -0.8404 -0.1853
   95SAPC    HA 9242   0.647   1.716   3.061 -0.6207  0.2970  2.1915
   95SAPC    HB 9243   0.804   1.796   2.996  0.0383 -1.5236 -0.3879
   95SAPC    C2 9244   0.716   1.904   3.150 -0.3871  0.1921 -0.0972
   95SAPC    HS 9245   0.821   1.892   3.186  0.1724  1.3760 -1.2751
   95SAPC   O21 9246   0.609   1.884   3.252 -0.1109  0.3203  0.4281
   95SAPC   C21 9247   0.599   1.761   3.301  0.3035 -0.5174  0.4619
   95SAPC   O22 9248   0.686   1.677   3.294  0.4849  0.1207  0.7317
   95SAPC   C22 9249   0.464   1.749   3.374 -0.3758 -0.4167 -0.4497
   95SAPC   H2R 9250   0.383   1.757   3.299  0.2747  1.3651 -1.0252
   95SAPC   H2S 9251   0.457   1.647   3.417 -0.1893  0.0592  0.7285
   95SAPC    C3 9252   0.704   2.059   3.102 -0.5559 -0.1547 -0.1624
   95SAPC    HX 9253   0.595   2.060   3.079 -0.4006 -1.0492 -1.0033
   95SAPC    HY 9254   0.750   2.080   3.003 -2.0430  1.1527 -0.6050
   95SAPC   O31 9255   0.744   2.173   3.188  0.1504  0.8263  0.0720
   95SAPC   C31 9256   0.867   2.167   3.242 -0.3063 -0.1843 -0.2075
   95SAPC   O32 9257   0.957   2.099   3.198  0.1127 -0.1262  0.1011
   95SAPC   C32 9258   0.867   2.248   3.369  0.3699 -0.3068 -0.0252
   95SAPC   H2X 9259   0.761   2.261   3.402  0.2759  0.2446 -0.5171
   95SAPC   H2Y 9260   0.919   2.345   3.353 -1.2842  0.9769  1.7878
   95SAPC   C23 9261   0.441   1.862   3.478 -0.1469 -0.2668  0.5094
   95SAPC   H3R 9262   0.340   1.850   3.522 -1.0065  2.6213 -0.4756
   95SAPC   H3S 9263   0.453   1.955   3.418 -0.4816 -1.2853 -1.2252
   95SAPC   C24 9264   0.536   1.849   3.596  0.4140 -0.4902  0.6718
   95SAPC   H4R 9265   0.529   1.940   3.660  1.6079 -0.3084  0.5578
   95SAPC   H4S 9266   0.637   1.872   3.556  0.7072  0.0374  1.6760
   95SAPC   C25 9267   0.533   1.724   3.677  0.3105  0.1022  0.0177
   95SAPC   H5R 9268   0.549   1.632   3.617  0.2901 -0.0557  0.2523
   95SAPC   C26 9269   0.467   1.706   3.795  0.5965 -0.0710  0.1921
   95SAPC   H6R 9270   0.463   1.603   3.834 -1.4515 -0.7029 -1.4919
   95SAPC   C27 9271   0.408   1.800   3.895 -0.6700 -0.6165  0.3727
   95SAPC   H7R 9272   0.487   1.876   3.914 -1.3491  0.2771 -0.2339
   95SAPC   H7S 9273   0.395   1.737   3.985 -0.4595  0.2816  1.0396
   95SAPC   C28 9274   0.285   1.888   3.867 -0.4839  0.4532 -0.5346
   95SAPC   H8R 9275   0.242   1.884   3.765 -2.1339 -0.0986  0.1592
   95SAPC   C29 9276   0.218   1.965   3.955 -0.8224  0.0863  0.0780
   95SAPC   H9R 9277   0.140   2.024   3.905 -0.6822  0.2905  0.1034
   95SAPC  C210 9278   0.260   1.990   4.098  0.6330  0.4154 -0.1071
   95SAPC  H10R 9279   0.365   1.959   4.115  0.2147  0.2015  2.4920
   95SAPC  H10S 9280   0.210   1.921   4.169  0.7590  0.3920 -0.0406
   95SAPC  C211 9281   0.252   2.133   4.139  0.6460 -0.7216 -0.6433
   95SAPC  H11R 9282   0.268   2.202   4.055 -0.7461  0.0842 -0.2751
   95SAPC  C212 9283   0.204   2.177   4.260 -0.7510 -0.1121  0.3425
   95SAPC  H12R 9284   0.199   2.286   4.275 -1.3366  0.1695 -1.6270
   95SAPC  C213 9285   0.157   2.098   4.379  0.5485  0.0237  0.0814
   95SAPC  H13R 9286   0.233   2.105   4.460  0.3080  1.5007  0.2127
   95SAPC  H13S 9287   0.145   1.989   4.367 -2.2193  0.0136  2.1158
   95SAPC  C214 9288   0.023   2.139   4.439 -0.1360  0.1596 -0.5522
   95SAPC  H14R 9289  -0.050   2.141   4.357 -0.6951  2.1806 -0.0713
   95SAPC  C215 9290  -0.011   2.175   4.569  1.0791  0.3176  0.5068
   95SAPC  H15R 9291  -0.117   2.197   4.584  1.0398  1.6764 -1.3704
   95SAPC  C216 9292   0.074   2.177   4.692 -0.0420  0.1194  0.2324
   95SAPC  H16R 9293   0.177   2.145   4.663  0.0127 -0.0290  0.5819
   95SAPC  H16S 9294   0.025   2.108   4.764 -2.1890  0.0130 -1.2360
   95SAPC  C217 9295   0.068   2.319   4.752 -0.3610  0.2804  0.3245
   95SAPC  H17R 9296  -0.033   2.354   4.780  0.0141  0.0742  2.1072
   95SAPC  H17S 9297   0.104   2.382   4.668  0.1748  1.1958  1.2193
   95SAPC  C218 9298   0.169   2.331   4.864  0.2293 -0.1514 -1.1574
   95SAPC  H18R 9299   0.277   2.344   4.837  0.5943 -0.7743 -0.0391
   95SAPC  H18S 9300   0.161   2.257   4.946  2.2153 -0.6729 -1.3787
   95SAPC  C219 9301   0.138   2.465   4.945  0.2282  0.3749  0.8666
   95SAPC  H19R 9302   0.030   2.445   4.962 -0.1029  2.4058  1.3161
   95SAPC  H19S 9303   0.143   2.555   4.881 -1.9796 -0.2179 -0.2203
   95SAPC  C220 9304   0.212   2.476   5.072 -0.6036 -0.4230 -0.7097
   95SAPC  H20R 9305   0.167   2.418   5.155 -0.0540  1.0677  0.6946
   95SAPC  H20S 9306   0.214   2.586   5.089 -0.0613 -0.7297  1.5372
   95SAPC  H20T 9307   0.316   2.447   5.046 -0.6569  0.1596 -1.6312
   95SAPC   C33 9308   0.947   2.170   3.473 -0.2134  0.4335 -1.5840
   95SAPC   H3X 9309   0.950   2.236   3.562 -0.3952  0.6908 -1.7658
   95SAPC   H3Y 9310   1.053   2.151   3.448 -0.1166 -1.0300 -0.2526
   95SAPC   C34 9311   0.871   2.051   3.528 -0.6749  0.1304 -0.0496
   95SAPC   H4X 9312   0.871   1.983   3.440 -0.5100  1.0218 -0.7598
   95SAPC   H4Y 9313   0.768   2.071   3.566 -0.6476  1.3906 -0.5893
   95SAPC   C35 9314   0.956   1.988   3.644 -0.1068 -0.5494  0.7326
   95SAPC   H5X 9315   1.049   2.043   3.669 -1.5110  1.9737  0.7078
   95SAPC   H5Y 9316   0.980   1.885   3.609 -0.9813 -0.4927 -0.0857
   95SAPC   C36 9317   0.875   1.962   3.777  0.1799 -0.7589  0.6656
   95SAPC   H6X 9318   0.790   1.894   3.754 -0.6368  0.7492 -1.0227
   95SAPC   H6Y 9319   0.833   2.059   3.810 -1.5739 -1.5624  0.9270
   95SAPC   C37 9320   0.963   1.906   3.890  0.1885 -0.1331 -0.6331
   95SAPC   H7X 9321   1.069   1.938   3.892 -0.2589  1.4964  2.2060
   95SAPC   H7Y 9322   0.952   1.797   3.870 -0.8751 -0.3302  0.8099
   95SAPC   C38 9323   0.904   1.941   4.025 -0.5502  0.2331 -0.1115
   95SAPC   H8X 9324   0.800   1.903   4.033 -0.3962  0.2044  2.6017
   95SAPC   H8Y 9325   0.902   2.052   4.029 -0.5311  0.2581 -0.6654
   95SAPC   C39 9326   0.978   1.873   4.134 -0.9325  0.5220 -0.6715
   95SAPC   H9X 9327   1.084   1.895   4.109 -1.3733  1.2262 -2.0260
   95SAPC   H9Y 9328   0.975   1.762   4.120 -0.5795  0.3828  0.2925
   95SAPC  C310 9329   0.931   1.915   4.280 -0.0560  0.1027  0.1260
   95SAPC  H10X 9330   0.821   1.901   4.276 -0.3621  2.2834 -3.0526
   95SAPC  H10Y 9331   0.952   2.023   4.296 -2.5451  0.5852  0.5727
   95SAPC  C311 9332   0.994   1.839   4.392 -0.0613  0.0831 -0.8316
   95SAPC  H11X 9333   1.096   1.880   4.410 -1.0975  1.5492  2.5450
   95SAPC  H11Y 9334   1.001   1.729   4.394 -0.7053  0.0452 -0.1835
   95SAPC  C312 9335   0.923   1.873   4.525  0.5183  0.0341 -0.6067
   95SAPC  H12X 9336   0.818   1.839   4.535  0.4640  0.3545 -0.0926
   95SAPC  H12Y 9337   0.915   1.983   4.521  0.4051  0.0334 -0.4145
   95SAPC  C313 9338   0.995   1.812   4.644  0.2753 -0.0578 -0.0111
   95SAPC  H13X 9339   1.098   1.854   4.644  0.3647 -0.2620 -0.6446
   95SAPC  H13Y 9340   1.016   1.705   4.625 -1.3373 -0.7221  1.6776
   95SAPC  C314 9341   0.915   1.838   4.775 -0.0812  0.3221 -0.0294
   95SAPC  H14X 9342   0.816   1.788   4.776  0.4312 -0.7149 -0.1141
   95SAPC  H14Y 9343   0.898   1.948   4.783 -2.1184  0.2443 -2.1654
   95SAPC  C315 9344   0.989   1.790   4.902 -0.3580  0.1548 -0.7733
   95SAPC  H15X 9345   1.080   1.854   4.900 -1.2540  1.5598  0.8976
   95SAPC  H15Y 9346   1.008   1.685   4.870 -0.5010  0.4702 -1.9608
   95SAPC  C316 9347   0.910   1.790   5.029  0.3415 -0.8147 -0.7683
   95SAPC  H16X 9348   0.833   1.710   5.024  2.2248 -2.8237  0.3491
   95SAPC  H16Y 9349   0.869   1.890   5.051  1.7461  0.2942 -2.8834
   95SAPC  C317 9350   1.000   1.771   5.154 -0.1653  0.2472  0.0272
   95SAPC  H17X 9351   1.071   1.855   5.164  1.0974 -0.8416  0.5893
   95SAPC  H17Y 9352   1.060   1.678   5.144 -1.8322 -0.7325 -1.4688
   95SAPC  C318 9353   0.919   1.760   5.288  0.4124 -0.2342  0.8630
   95SAPC  H18X 9354   0.929   1.862   5.331  0.4843  0.1440 -0.0184
   95SAPC  H18Y 9355   0.973   1.687   5.352  0.8640 -1.3067 -0.6714
   95SAPC  H18Z 9356   0.812   1.733   5.275 -0.1226  1.6726  1.0860
   96SAPC     N 9357   5.860   3.825   2.512 -0.1872 -0.1746  0.0926
   96SAPC   C12 9358   5.817   3.900   2.632  0.8032  0.6871 -0.4843
   96SAPC  H12A 9359   5.773   3.833   2.704 -2.2108  0.5443 -2.2801
   96SAPC  H12B 9360   5.734   3.967   2.616  1.2092  1.3795  0.2621
   96SAPC   C13 9361   5.937   3.699   2.553  0.2249 -0.3563 -0.4824
   96SAPC  H13A 9362   5.998   3.715   2.640  0.7133  0.0741 -0.8959
   96SAPC  H13B 9363   5.865   3.619   2.555 -0.1224 -0.0464 -0.4292
   96SAPC  H13C 9364   6.011   3.674   2.478 -0.7948  1.2724 -2.1353
   96SAPC   C14 9365   5.747   3.784   2.426  0.7830  0.9073 -0.0117
   96SAPC  H14A 9366   5.697   3.711   2.488  2.9223  1.1121  2.1489
   96SAPC  H14B 9367   5.671   3.857   2.405 -0.9717 -0.1705  2.1446
   96SAPC  H14C 9368   5.775   3.741   2.332 -0.0042 -0.5748  0.4036
   96SAPC   C15 9369   5.955   3.910   2.428  0.3070 -0.2860  0.0346
   96SAPC  H15A 9370   5.897   3.984   2.375 -1.1207 -1.7182 -0.4924
   96SAPC  H15B 9371   6.036   3.955   2.483 -0.8063  1.2211  0.5004
   96SAPC  H15C 9372   6.006   3.856   2.350 -0.6907 -0.0283 -0.8175
   96SAPC   C11 9373   5.924   3.982   2.712 -0.0349  0.3182  0.1637
   96SAPC  H11A 9374   5.870   4.042   2.789 -0.5780 -0.1838  0.1735
   96SAPC  H11B 9375   5.973   4.058   2.647 -0.4132 -0.5292 -1.1319
   96SAPC     P 9376   6.166   3.919   2.779 -0.1150 -0.3564 -0.2767
   96SAPC   O13 9377   6.243   3.856   2.669  0.2322  0.3300  0.5791
   96SAPC   O14 9378   6.189   4.065   2.797  0.2801  0.7666 -0.2458
   96SAPC   O12 9379   6.019   3.888   2.761  1.0723 -0.5849 -0.0825
   96SAPC   O11 9380   6.210   3.845   2.907  0.3086 -0.3365  0.5716
   96SAPC    C1 9381   6.126   3.761   2.985  0.0939  0.1919  0.4408
   96SAPC    HA 9382   6.020   3.751   2.953 -1.0567  4.2040  2.3687
   96SAPC    HB 9383   6.174   3.661   2.981  1.4640  0.8703 -1.0179
   96SAPC    C2 9384   6.115   3.800   3.135  0.0218 -0.6946 -0.2377
   96SAPC    HS 9385   6.028   3.870   3.135 -1.3203 -2.1236  3.3463
   96SAPC   O21 9386   6.238   3.865   3.172  0.6230 -0.3706 -0.5610
   96SAPC   C21 9387   6.236   3.997   3.175 -0.3898 -0.5741 -1.0344
   96SAPC   O22 9388   6.139   4.067   3.157 -0.2992  0.2403 -0.4549
   96SAPC   C22 9389   6.373   4.062   3.210 -0.1060 -0.0873  0.0411
   96SAPC   H2R 9390   6.410   4.111   3.117  0.3170 -1.3955 -0.5081
   96SAPC   H2S 9391   6.348   4.144   3.281 -2.6714 -2.1971  1.8019
   96SAPC    C3 9392   6.087   3.691   3.242  0.1872 -0.4312  0.1497
   96SAPC    HX 9393   6.173   3.621   3.249  0.0913 -0.7977 -1.7386
   96SAPC    HY 9394   6.010   3.623   3.199 -0.9802  0.8623  0.1418
   96SAPC   O31 9395   6.053   3.752   3.367 -0.0760  0.1683 -0.0321
   96SAPC   C31 9396   5.923   3.774   3.379 -0.6561  0.6507  0.7281
   96SAPC   O32 9397   5.837   3.753   3.293 -0.4648  0.0804 -0.2811
   96SAPC   C32 9398   5.893   3.826   3.517  0.3008 -0.7535  0.0429
   96SAPC   H2X 9399   5.790   3.868   3.507 -0.5348 -2.9364 -1.1540
   96SAPC   H2Y 9400   5.966   3.906   3.542  0.3600 -0.6004 -0.6027
   96SAPC   C23 9401   6.480   3.967   3.265 -0.0889  0.2320 -0.0264
   96SAPC   H3R 9402   6.583   4.009   3.262 -0.1866  0.4629 -0.1766
   96SAPC   H3S 9403   6.482   3.874   3.204 -1.7626 -0.0749  0.3233
   96SAPC   C24 9404   6.467   3.919   3.409 -0.3209 -1.5559 -0.2298
   96SAPC   H4R 9405   6.549   3.850   3.439 -0.0921 -1.6586 -1.0450
   96SAPC   H4S 9406   6.377   3.855   3.416 -1.6938  0.3470  0.3169
   96SAPC   C25 9407   6.459   4.028   3.510  1.0530 -0.7296 -0.4098
   96SAPC   H5R 9408   6.558   4.067   3.536  0.2034  1.8495 -0.7879
   96SAPC   C26 9409   6.347   4.087   3.567 -0.6520 -0.1024 -0.4072
   96SAPC   H6R 9410   6.361   4.167   3.641  0.4121 -0.6008 -0.0541
   96SAPC   C27 9411   6.198   4.061   3.532 -0.3276  0.4484 -0.4820
   96SAPC   H7R 9412   6.160   4.036   3.634  0.7376  1.6475  0.2472
   96SAPC   H7S 9413   6.184   3.980   3.458  0.6073  1.9237 -2.3753
   96SAPC   C28 9414   6.120   4.182   3.487 -0.0870 -0.4781  0.2746
   96SAPC   H8R 9415   6.125   4.178   3.378  0.5050 -1.9602  0.3292
   96SAPC   C29 9416   6.053   4.281   3.552 -0.1773  0.1703 -0.3356
   96SAPC   H9R 9417   6.001   4.348   3.481 -1.7070 -0.0892  0.5071
   96SAPC  C210 9418   6.039   4.316   3.701  0.3179  0.4082  0.0370
   96SAPC  H10R 9419   6.000   4.421   3.706 -1.4573 -0.1576 -1.0373
   96SAPC  H10S 9420   6.133   4.306   3.759  1.2858 -0.4153 -1.6168
   96SAPC  C211 9421   5.930   4.242   3.777  0.2507 -1.0404  0.8335
   96SAPC  H11R 9422   5.830   4.238   3.730  0.8537 -0.9452 -0.5181
   96SAPC  C212 9423   5.950   4.187   3.893  0.0633  0.2697  0.5410
   96SAPC  H12R 9424   5.870   4.128   3.939  0.8923 -0.7907  0.6757
   96SAPC  C213 9425   6.070   4.181   3.985 -0.2490  0.1050  0.1960
   96SAPC  H13R 9426   6.056   4.222   4.087  0.7995  0.2346  0.3013
   96SAPC  H13S 9427   6.149   4.248   3.945 -1.6503  1.2424 -0.7857
   96SAPC  C214 9428   6.114   4.038   3.991 -0.7747  0.3348 -0.2919
   96SAPC  H14R 9429   6.172   3.998   3.907 -0.7324  0.7550 -0.4632
   96SAPC  C215 9430   6.113   3.967   4.103  0.1129 -0.7126  0.0456
   96SAPC  H15R 9431   6.149   3.863   4.100 -1.0379 -1.0934 -1.2204
   96SAPC  C216 9432   6.054   4.018   4.231 -0.5902 -0.1873  0.1793
   96SAPC  H16R 9433   5.946   4.044   4.225 -0.3286  1.0771  0.7843
   96SAPC  H16S 9434   6.109   4.106   4.269 -2.5742  1.2530 -0.1278
   96SAPC  C217 9435   6.074   3.905   4.333  0.4195  0.4035 -0.2078
   96SAPC  H17R 9436   6.046   3.943   4.434  0.5418 -1.3075  0.5103
   96SAPC  H17S 9437   6.180   3.871   4.333  0.6708  1.1240  1.0830
   96SAPC  C218 9438   5.981   3.779   4.306  0.3316  0.5048 -0.5516
   96SAPC  H18R 9439   6.025   3.725   4.220 -0.3318 -1.1789  0.1004
   96SAPC  H18S 9440   5.876   3.811   4.288 -0.8007 -2.5101 -0.0246
   96SAPC  C219 9441   5.982   3.682   4.425  0.0335 -0.0530  0.6298
   96SAPC  H19R 9442   5.928   3.588   4.400 -0.6950  0.8891 -1.5991
   96SAPC  H19S 9443   5.918   3.726   4.505  0.9590 -0.2479  1.5054
   96SAPC  C220 9444   6.122   3.660   4.486 -0.5786 -0.5638  0.5681
   96SAPC  H20R 9445   6.130   3.583   4.565  0.3495 -0.2672  0.7811
   96SAPC  H20S 9446   6.168   3.751   4.529 -0.0187 -0.7760  0.4352
   96SAPC  H20T 9447   6.184   3.614   4.406 -0.9556  1.3846 -0.9197
   96SAPC   C33 9448   5.899   3.721   3.624  0.0583 -0.1311  0.4942
   96SAPC   H3X 9449   6.002   3.680   3.630  0.4662  0.8868  0.7974
   96SAPC   H3Y 9450   5.831   3.639   3.594 -3.0617  1.5023  2.4638
   96SAPC   C34 9451   5.848   3.771   3.758 -0.9723 -0.1480  1.3195
   96SAPC   H4X 9452   5.744   3.803   3.735  0.1713  1.9224 -1.5891
   96SAPC   H4Y 9453   5.905   3.855   3.803  0.4858 -0.2578 -0.2482
   96SAPC   C35 9454   5.830   3.660   3.856 -0.4333  0.4710 -0.2301
   96SAPC   H5X 9455   5.777   3.568   3.823 -0.7751  0.7063 -0.3424
   96SAPC   H5Y 9456   5.783   3.711   3.943  0.8352 -0.9527  1.3655
   96SAPC   C36 9457   5.961   3.617   3.928 -0.2801 -0.3843  0.4205
   96SAPC   H6X 9458   6.018   3.701   3.972  1.2854 -1.8453  1.3319
   96SAPC   H6Y 9459   6.014   3.543   3.863 -0.9738 -1.4316  1.0222
   96SAPC   C37 9460   5.932   3.519   4.047  0.2292  0.1485  0.4379
   96SAPC   H7X 9461   5.863   3.443   4.003  0.3161  1.0246 -1.3002
   96SAPC   H7Y 9462   5.876   3.569   4.128  1.9310  1.0355  1.1126
   96SAPC   C38 9463   6.053   3.443   4.099 -0.1037 -0.0442 -0.2258
   96SAPC   H8X 9464   6.107   3.513   4.166  0.9143  0.1580 -1.2269
   96SAPC   H8Y 9465   6.128   3.428   4.018  0.0999  0.2363 -0.0895
   96SAPC   C39 9466   6.015   3.312   4.151  0.1061  0.5427 -0.2459
   96SAPC   H9X 9467   6.099   3.242   4.130  0.0673  0.7635 -1.1813
   96SAPC   H9Y 9468   5.925   3.276   4.097  0.7494  0.1944 -1.1231
   96SAPC  C310 9469   5.967   3.302   4.293  0.0528 -0.3419  0.1671
   96SAPC  H10X 9470   5.911   3.208   4.311  0.1491 -0.6024 -0.8574
   96SAPC  H10Y 9471   5.905   3.391   4.320  0.9604 -0.1333  1.6923
   96SAPC  C311 9472   6.088   3.288   4.379  0.3034 -0.4399 -0.1942
   96SAPC  H11X 9473   6.131   3.390   4.386  0.5080 -0.5735  0.5603
   96SAPC  H11Y 9474   6.160   3.220   4.327  0.1523 -0.4716 -0.3632
   96SAPC  C312 9475   6.057   3.234   4.518  0.5877 -0.4384  0.4168
   96SAPC  H12X 9476   6.028   3.128   4.502  0.1984 -0.2059 -0.5086
   96SAPC  H12Y 9477   5.975   3.287   4.569  0.5611  0.1675 -0.2323
   96SAPC  C313 9478   6.176   3.257   4.613  0.6602  0.9409 -0.3841
   96SAPC  H13X 9479   6.137   3.236   4.715  2.6695 -0.7326  0.1079
   96SAPC  H13Y 9480   6.203   3.364   4.615 -0.8734  1.3761 -1.3879
   96SAPC  C314 9481   6.294   3.168   4.579 -0.0957  0.9235 -0.1714
   96SAPC  H14X 9482   6.330   3.191   4.476 -1.0717  0.3004 -0.6658
   96SAPC  H14Y 9483   6.262   3.062   4.590 -1.4876  1.2543 -0.8043
   96SAPC  C315 9484   6.402   3.198   4.689  0.4037  0.0280 -0.0714
   96SAPC  H15X 9485   6.359   3.211   4.790 -0.0966  0.4413 -0.3324
   96SAPC  H15Y 9486   6.448   3.297   4.666  0.3772  0.0328 -0.1041
   96SAPC  C316 9487   6.506   3.082   4.702 -0.0118 -0.3210 -0.2901
   96SAPC  H16X 9488   6.579   3.082   4.619  3.1741  0.2110  2.2986
   96SAPC  H16Y 9489   6.453   2.984   4.709  0.6755 -0.8039 -1.5482
   96SAPC  C317 9490   6.592   3.097   4.831 -0.4736 -0.0237  0.4863
   96SAPC  H17X 9491   6.670   3.017   4.829 -2.9602 -2.6103 -1.0438
   96SAPC  H17Y 9492   6.534   3.077   4.923 -1.1956  1.0950  0.2951
   96SAPC  C318 9493   6.665   3.237   4.843  0.6308 -0.1341 -0.0985
   96SAPC  H18X 9494   6.722   3.262   4.751  3.3491 -2.3491  0.8407
   96SAPC  H18Y 9495   6.736   3.237   4.928 -0.5746 -1.3798  0.9554
   96SAPC  H18Z 9496   6.588   3.315   4.864  3.8308  2.8017  1.7024
   97SAPC     N 9497   0.611   6.161   2.568 -0.2432  0.2738 -0.4470
   97SAPC   C12 9498   0.605   6.014   2.600  0.0007  0.2516  0.3521
   97SAPC  H12A 9499   0.705   5.973   2.603  1.2664  2.6798 -2.9506
   97SAPC  H12B 9500   0.558   5.962   2.518 -1.3101 -0.8141  1.7273
   97SAPC   C13 9501   0.701   6.227   2.660  0.5378 -0.5274 -1.2223
   97SAPC  H13A 9502   0.734   6.325   2.627  0.1248 -0.0788 -0.3284
   97SAPC  H13B 9503   0.675   6.226   2.765  0.1593  0.4388 -1.2957
   97SAPC  H13C 9504   0.788   6.163   2.662  0.1325 -1.0743  0.3212
   97SAPC   C14 9505   0.674   6.190   2.432  0.7415 -0.2045  0.4501
   97SAPC  H14A 9506   0.613   6.161   2.348 -0.4230 -0.7918  1.4539
   97SAPC  H14B 9507   0.695   6.295   2.427 -1.4848  0.2444 -0.8507
   97SAPC  H14C 9508   0.773   6.150   2.420  0.5141 -0.3709 -1.0084
   97SAPC   C15 9509   0.477   6.223   2.584  0.5175 -0.3281  0.2068
   97SAPC  H15A 9510   0.487   6.330   2.586  2.0320 -0.4567  0.9903
   97SAPC  H15B 9511   0.419   6.212   2.494 -1.7406 -1.1665  1.6971
   97SAPC  H15C 9512   0.422   6.191   2.671  0.0266 -0.3930 -0.1276
   97SAPC   C11 9513   0.533   5.968   2.727 -0.0807  0.8142  0.7532
   97SAPC  H11A 9514   0.584   6.015   2.814 -1.4733 -1.3589  2.8445
   97SAPC  H11B 9515   0.557   5.863   2.754  3.5289  1.4966  0.7480
   97SAPC     P 9516   0.289   5.914   2.630  0.3286 -0.0386  0.2298
   97SAPC   O13 9517   0.210   6.010   2.546 -0.1127  0.0892  0.2824
   97SAPC   O14 9518   0.355   5.809   2.552 -0.2593 -0.7178 -0.4342
   97SAPC   O12 9519   0.393   5.992   2.729  0.3220  0.2714  0.4854
   97SAPC   O11 9520   0.180   5.836   2.723 -0.2373 -0.2251 -0.0391
   97SAPC    C1 9521   0.174   5.840   2.866 -0.5179 -0.1142  0.1979
   97SAPC    HA 9522   0.250   5.905   2.913  0.1461  1.3463 -2.6545
   97SAPC    HB 9523   0.077   5.891   2.886 -0.2701  0.4624 -0.0601
   97SAPC    C2 9524   0.183   5.700   2.926 -0.2857 -0.4111 -1.1464
   97SAPC    HS 9525   0.094   5.641   2.896 -1.1416  1.0905 -1.6676
   97SAPC   O21 9526   0.180   5.714   3.072  0.1702  0.6577  0.7402
   97SAPC   C21 9527   0.166   5.607   3.144 -0.2981 -0.1520  0.1511
   97SAPC   O22 9528   0.156   5.492   3.099 -0.2747 -0.5619  0.6440
   97SAPC   C22 9529   0.137   5.638   3.285 -0.1342  0.5820 -0.5216
   97SAPC   H2R 9530   0.165   5.743   3.306 -0.2438  0.2419  1.5371
   97SAPC   H2S 9531   0.027   5.630   3.291  0.0162 -1.1118  0.5336
   97SAPC    C3 9532   0.308   5.617   2.873 -0.4838  0.3248 -0.3608
   97SAPC    HX 9533   0.304   5.611   2.762 -0.1199 -0.2690 -0.3473
   97SAPC    HY 9534   0.299   5.513   2.913 -0.8091  0.6474  0.4218
   97SAPC   O31 9535   0.431   5.675   2.898  0.6261 -0.3448 -0.1736
   97SAPC   C31 9536   0.493   5.632   3.001  0.8344  0.2219  0.0521
   97SAPC   O32 9537   0.460   5.546   3.080 -0.4971  0.1484  0.0320
   97SAPC   C32 9538   0.612   5.722   3.019 -0.5042  0.7273 -0.4724
   97SAPC   H2X 9539   0.584   5.827   2.997  1.0627  1.1749 -0.4971
   97SAPC   H2Y 9540   0.689   5.690   2.945 -0.9637 -0.7364 -0.3531
   97SAPC   C23 9541   0.213   5.536   3.370  0.1330 -0.0268  0.7027
   97SAPC   H3R 9542   0.305   5.506   3.316 -0.6132 -0.1937 -0.5238
   97SAPC   H3S 9543   0.165   5.436   3.371  2.4497 -1.2487 -0.6504
   97SAPC   C24 9544   0.250   5.584   3.514 -0.0449 -0.3556  0.1764
   97SAPC   H4R 9545   0.267   5.492   3.575  0.5090 -0.6162 -0.3649
   97SAPC   H4S 9546   0.160   5.638   3.551 -0.6243 -2.1338  1.5009
   97SAPC   C25 9547   0.371   5.682   3.522  0.2058  0.4163 -0.2692
   97SAPC   H5R 9548   0.381   5.752   3.438  1.6900  0.4611 -0.0839
   97SAPC   C26 9549   0.462   5.694   3.618 -0.4749  0.3203 -0.1894
   97SAPC   H6R 9550   0.529   5.781   3.628  0.2474 -0.4117  1.8690
   97SAPC   C27 9551   0.472   5.599   3.733  1.4064 -0.1040  0.4270
   97SAPC   H7R 9552   0.550   5.524   3.705 -0.5291 -1.8993 -0.3839
   97SAPC   H7S 9553   0.377   5.545   3.752  0.7469  0.0131 -2.1783
   97SAPC   C28 9554   0.519   5.667   3.854 -0.3484 -1.0349 -0.2859
   97SAPC   H8R 9555   0.629   5.672   3.854 -0.3929  0.5193  0.0582
   97SAPC   C29 9556   0.448   5.722   3.950  0.4202  0.5380  0.1822
   97SAPC   H9R 9557   0.494   5.758   4.044 -0.6660  1.4525  0.3827
   97SAPC  C210 9558   0.297   5.729   3.955  0.1684 -0.6111 -0.2835
   97SAPC  H10R 9559   0.249   5.730   3.855 -1.0342 -0.2548  0.2803
   97SAPC  H10S 9560   0.274   5.833   3.987 -1.0844 -1.1832  0.7610
   97SAPC  C211 9561   0.252   5.615   4.036 -0.0202  0.3041 -0.1309
   97SAPC  H11R 9562   0.297   5.523   3.996  0.4413  0.7064 -0.5513
   97SAPC  C212 9563   0.174   5.614   4.145  0.0576 -0.3884 -0.2894
   97SAPC  H12R 9564   0.152   5.524   4.202 -1.0446 -0.0369 -0.1496
   97SAPC  C213 9565   0.122   5.737   4.214 -0.5932 -0.2755 -0.9699
   97SAPC  H13R 9566   0.011   5.729   4.212 -1.0058  3.4479  0.1033
   97SAPC  H13S 9567   0.140   5.832   4.160 -0.9513 -1.4024 -3.1609
   97SAPC  C214 9568   0.170   5.736   4.358 -0.1918  0.3847 -0.4473
   97SAPC  H14R 9569   0.111   5.681   4.433  1.7777  0.3484  1.1683
   97SAPC  C215 9570   0.277   5.801   4.400  0.6106 -0.0651  0.0471
   97SAPC  H15R 9571   0.306   5.809   4.506 -0.5124 -1.4924  0.4961
   97SAPC  C216 9572   0.359   5.888   4.310 -0.6366  0.4758 -0.7151
   97SAPC  H16R 9573   0.298   5.900   4.218 -2.0815 -0.0903  0.1513
   97SAPC  H16S 9574   0.464   5.854   4.294 -0.4357 -0.6555  2.2591
   97SAPC  C217 9575   0.372   6.040   4.359 -0.2724 -0.0081 -0.4032
   97SAPC  H17R 9576   0.269   6.082   4.350  0.2100  1.3321  0.0165
   97SAPC  H17S 9577   0.438   6.095   4.288  1.1199 -0.0528  0.8241
   97SAPC  C218 9578   0.418   6.056   4.507 -0.6811 -0.3743 -0.1133
   97SAPC  H18R 9579   0.514   5.999   4.511  0.5896  1.5220 -1.5171
   97SAPC  H18S 9580   0.341   6.011   4.573 -0.5351 -0.4439  0.0102
   97SAPC  C219 9581   0.440   6.202   4.552  0.4031  1.8337 -0.3479
   97SAPC  H19R 9582   0.342   6.254   4.547  0.3312  1.7157 -0.1638
   97SAPC  H19S 9583   0.505   6.250   4.476  0.9218 -1.5563 -2.2330
   97SAPC  C220 9584   0.508   6.211   4.685  0.6738  0.0521  0.6145
   97SAPC  H20R 9585   0.503   6.309   4.737  0.2061  1.4907 -1.9701
   97SAPC  H20S 9586   0.608   6.163   4.676  0.0204 -1.2443  0.0583
   97SAPC  H20T 9587   0.457   6.144   4.757  0.6016 -1.7086 -1.0005
   97SAPC   C33 9588   0.670   5.724   3.164  0.4745  0.4417  0.3390
   97SAPC   H3X 9589   0.683   5.618   3.197 -0.8711  0.0839 -0.2040
   97SAPC   H3Y 9590   0.606   5.788   3.228  0.1103  0.1709  0.2473
   97SAPC   C34 9591   0.810   5.785   3.167 -0.2874  0.0815 -0.0019
   97SAPC   H4X 9592   0.794   5.887   3.125  1.1530  0.0874 -0.5969
   97SAPC   H4Y 9593   0.873   5.737   3.088  0.8773  2.1992 -0.4472
   97SAPC   C35 9594   0.880   5.790   3.309 -0.7413 -0.2869 -0.3716
   97SAPC   H5X 9595   0.833   5.857   3.384  1.2960 -0.3691  1.0729
   97SAPC   H5Y 9596   0.982   5.828   3.287 -1.8313  2.1178 -1.7288
   97SAPC   C36 9597   0.888   5.647   3.361  0.2078  0.0753  0.1138
   97SAPC   H6X 9598   0.906   5.564   3.290  0.6421  0.5525 -0.3386
   97SAPC   H6Y 9599   0.791   5.615   3.405 -0.6947  0.2004 -1.7087
   97SAPC   C37 9600   0.989   5.633   3.478  0.3682 -0.6286  0.8001
   97SAPC   H7X 9601   1.083   5.682   3.445 -0.7413 -0.0900 -1.8074
   97SAPC   H7Y 9602   1.004   5.524   3.493  1.4888 -0.6765 -0.4691
   97SAPC   C38 9603   0.924   5.712   3.593 -0.2052  0.7202 -0.6412
   97SAPC   H8X 9604   0.824   5.664   3.606  0.5978 -1.4312 -1.8466
   97SAPC   H8Y 9605   0.919   5.820   3.567  1.1967  0.3297 -2.7839
   97SAPC   C39 9606   1.002   5.697   3.726  0.6027  0.2801 -0.2223
   97SAPC   H9X 9607   1.091   5.763   3.722  1.6789 -1.1934 -2.9474
   97SAPC   H9Y 9608   1.024   5.588   3.730  1.2189  0.2715 -2.4025
   97SAPC  C310 9609   0.920   5.735   3.851 -0.2623 -0.2009  0.0655
   97SAPC  H10X 9610   0.843   5.658   3.870  0.4882 -0.8664  0.4860
   97SAPC  H10Y 9611   0.872   5.833   3.830  2.1187  0.4968 -2.7865
   97SAPC  C311 9612   0.991   5.749   3.987  0.3897  0.4639  0.0089
   97SAPC  H11X 9613   1.061   5.836   3.989  0.2565  0.5825  1.9107
   97SAPC  H11Y 9614   1.043   5.656   4.020  2.7493  1.5626 -0.3859
   97SAPC  C312 9615   0.890   5.776   4.097 -0.2613 -0.2917  0.5431
   97SAPC  H12X 9616   0.809   5.704   4.068 -1.3748  0.3514  1.9708
   97SAPC  H12Y 9617   0.858   5.882   4.086  0.0392 -0.3280 -0.9472
   97SAPC  C313 9618   0.930   5.737   4.237  0.1966 -0.0712 -0.2061
   97SAPC  H13X 9619   1.025   5.791   4.256 -0.9332  1.0650  2.7617
   97SAPC  H13Y 9620   0.958   5.631   4.253  2.0020  0.4884  0.5547
   97SAPC  C314 9621   0.830   5.795   4.350  0.6163  0.3306  1.0049
   97SAPC  H14X 9622   0.741   5.730   4.363 -1.3413  2.3598 -1.3542
   97SAPC  H14Y 9623   0.789   5.894   4.320 -0.7866 -0.5068  0.0392
   97SAPC  C315 9624   0.900   5.812   4.481 -0.1702  0.7347 -0.2132
   97SAPC  H15X 9625   0.963   5.903   4.475  0.0019  0.7046  0.8665
   97SAPC  H15Y 9626   0.958   5.720   4.502 -1.4736  0.0228  0.4415
   97SAPC  C316 9627   0.794   5.840   4.596 -0.8356 -0.2160 -0.0945
   97SAPC  H16X 9628   0.744   5.749   4.635 -1.3532  1.1395  2.6599
   97SAPC  H16Y 9629   0.712   5.909   4.567 -1.1213 -0.5471 -0.0721
   97SAPC  C317 9630   0.858   5.899   4.727  0.3128  0.8738  0.0539
   97SAPC  H17X 9631   0.940   5.972   4.709  3.1021 -1.9797  0.2453
   97SAPC  H17Y 9632   0.909   5.812   4.774  0.1427 -0.0867 -1.4417
   97SAPC  C318 9633   0.753   5.957   4.824  0.1367  0.5061  0.1826
   97SAPC  H18X 9634   0.663   5.892   4.829 -1.3454  2.5709  3.6832
   97SAPC  H18Y 9635   0.711   6.057   4.800 -1.2942  0.7512  3.2546
   97SAPC  H18Z 9636   0.808   5.961   4.920 -1.8010  0.5166  1.3454
   98SAPC     N 9637   1.818   2.959   2.442 -0.0425 -0.6537  0.6459
   98SAPC   C12 9638   1.723   2.931   2.559 -0.5704 -0.4699 -0.0294
   98SAPC  H12A 9639   1.672   3.022   2.586 -0.8478 -0.7379  0.3541
   98SAPC  H12B 9640   1.785   2.901   2.643  0.3017 -0.4350 -0.6391
   98SAPC   C13 9641   1.921   2.851   2.431  0.6291 -0.3097  0.2133
   98SAPC  H13A 9642   1.868   2.757   2.426 -1.6015  0.8500  0.7573
   98SAPC  H13B 9643   1.970   2.860   2.335  0.0160 -2.9532 -0.4427
   98SAPC  H13C 9644   1.990   2.851   2.513  0.3211 -1.3880  0.4969
   98SAPC   C14 9645   1.742   2.975   2.320 -0.4506  0.2101  0.6828
   98SAPC  H14A 9646   1.695   2.881   2.296 -0.6064  0.6329 -0.7831
   98SAPC  H14B 9647   1.665   3.052   2.318 -0.8966 -0.2244 -1.8479
   98SAPC  H14C 9648   1.801   2.982   2.230 -3.1650 -2.5092 -1.5397
   98SAPC   C15 9649   1.892   3.088   2.463 -0.5603 -0.0737 -0.3850
   98SAPC  H15A 9650   1.926   3.132   2.371 -2.1251  1.6321 -0.1991
   98SAPC  H15B 9651   1.836   3.166   2.511  0.0356  0.1658 -0.0569
   98SAPC  H15C 9652   1.975   3.087   2.533 -0.2571  0.9778 -0.7179
   98SAPC   C11 9653   1.617   2.822   2.550  0.6272  0.1073  0.6199
   98SAPC  H11A 9654   1.539   2.850   2.475  0.7507 -1.4772 -0.1378
   98SAPC  H11B 9655   1.574   2.816   2.652  1.0368 -4.4641  0.7053
   98SAPC     P 9656   1.653   2.603   2.411  0.0459  0.2420  0.0069
   98SAPC   O13 9657   1.573   2.668   2.305 -0.0766 -0.1533  0.0027
   98SAPC   O14 9658   1.788   2.547   2.374 -0.1071  0.2431  0.0059
   98SAPC   O12 9659   1.672   2.697   2.529 -0.0385 -0.2921 -0.1596
   98SAPC   O11 9660   1.558   2.486   2.473  0.0966  0.3026  0.6225
   98SAPC    C1 9661   1.436   2.509   2.543 -0.5545  0.0130 -0.3879
   98SAPC    HA 9662   1.400   2.614   2.542 -0.7259 -0.0486 -0.6540
   98SAPC    HB 9663   1.358   2.448   2.492 -1.0294  1.8646 -1.9725
   98SAPC    C2 9664   1.449   2.466   2.689  0.0932 -0.1088 -0.1537
   98SAPC    HS 9665   1.354   2.416   2.715 -0.2715  1.4224  1.6720
   98SAPC   O21 9666   1.466   2.592   2.765 -0.1049  0.6340 -0.0285
   98SAPC   C21 9667   1.358   2.668   2.798 -0.7939  0.3224 -0.4665
   98SAPC   O22 9668   1.246   2.637   2.769 -0.6492 -0.9759 -0.0932
   98SAPC   C22 9669   1.395   2.794   2.870 -0.2700  0.6483 -0.1195
   98SAPC   H2R 9670   1.432   2.870   2.797 -0.3287  2.2914  1.4794
   98SAPC   H2S 9671   1.302   2.836   2.913  0.1324 -0.4238  1.8914
   98SAPC    C3 9672   1.570   2.374   2.717  0.4216  0.5197  0.0386
   98SAPC    HX 9673   1.662   2.436   2.713  0.7066  0.0379 -1.8352
   98SAPC    HY 9674   1.578   2.295   2.640  2.3600  2.0538 -1.4260
   98SAPC   O31 9675   1.548   2.319   2.853  0.1018 -0.2946 -0.1747
   98SAPC   C31 9676   1.607   2.382   2.952  0.4017  0.5684 -0.3118
   98SAPC   O32 9677   1.668   2.485   2.947 -0.0663  0.0811 -0.2295
   98SAPC   C32 9678   1.583   2.297   3.080  0.0080 -0.5848  1.2465
   98SAPC   H2X 9679   1.642   2.203   3.078 -0.8508 -1.1433 -0.3777
   98SAPC   H2Y 9680   1.474   2.276   3.087  0.4047 -3.7904 -0.0734
   98SAPC   C23 9681   1.499   2.774   2.986  0.1773  0.4705  0.0109
   98SAPC   H3R 9682   1.596   2.731   2.954  0.3607  1.4409 -0.8000
   98SAPC   H3S 9683   1.455   2.697   3.053 -0.1920 -0.4936 -1.3226
   98SAPC   C24 9684   1.538   2.906   3.058  0.4241 -0.4078 -0.3902
   98SAPC   H4R 9685   1.454   2.936   3.125  0.3569 -0.9748 -0.2113
   98SAPC   H4S 9686   1.544   2.984   2.979 -2.0258  1.7055  1.3331
   98SAPC   C25 9687   1.666   2.891   3.145 -0.2325 -0.1213  0.2848
   98SAPC   H5R 9688   1.763   2.896   3.093  0.8615 -1.1557  2.1338
   98SAPC   C26 9689   1.671   2.852   3.271  0.5955 -0.1551 -0.4444
   98SAPC   H6R 9690   1.764   2.848   3.330  0.9751 -1.3136 -1.0878
   98SAPC   C27 9691   1.552   2.825   3.358  0.0756  0.4611  0.1122
   98SAPC   H7R 9692   1.582   2.757   3.441 -1.5721  1.3925  1.5334
   98SAPC   H7S 9693   1.469   2.771   3.307 -0.2752 -2.0228  2.9865
   98SAPC   C28 9694   1.506   2.960   3.417  0.0961  0.8301 -0.3517
   98SAPC   H8R 9695   1.451   3.023   3.345  0.5341  0.8960 -0.6351
   98SAPC   C29 9696   1.499   2.977   3.548  1.0245  0.5220  0.0179
   98SAPC   H9R 9697   1.462   3.074   3.585  1.1934 -0.0030  1.6699
   98SAPC  C210 9698   1.542   2.880   3.663 -0.4262 -0.3283 -0.5796
   98SAPC  H10R 9699   1.593   2.950   3.733 -1.4996  0.8463 -0.9275
   98SAPC  H10S 9700   1.625   2.814   3.633  1.1973  0.5855  1.6092
   98SAPC  C211 9701   1.418   2.813   3.721 -0.3863 -0.5508 -0.6616
   98SAPC  H11R 9702   1.387   2.727   3.659  0.0542 -0.2630 -1.2857
   98SAPC  C212 9703   1.362   2.836   3.836  0.1790  0.2790  0.1342
   98SAPC  H12R 9704   1.271   2.778   3.858 -0.2056  0.7601 -0.1596
   98SAPC  C213 9705   1.399   2.944   3.937 -0.7625 -0.0779 -1.1270
   98SAPC  H13R 9706   1.310   3.003   3.969  1.6048  3.1672 -0.1009
   98SAPC  H13S 9707   1.470   3.021   3.901 -0.9599  1.3726  1.3714
   98SAPC  C214 9708   1.463   2.879   4.049  0.2176  0.1181 -0.7456
   98SAPC  H14R 9709   1.539   2.802   4.026  1.3122  1.5602 -2.2596
   98SAPC  C215 9710   1.429   2.892   4.184 -0.1018  0.3228  1.0874
   98SAPC  H15R 9711   1.479   2.833   4.262  1.0774 -0.4562 -0.2011
   98SAPC  C216 9712   1.326   2.982   4.242 -0.3157 -0.3719  0.7743
   98SAPC  H16R 9713   1.234   2.973   4.181 -0.0938 -1.8397  0.5976
   98SAPC  H16S 9714   1.366   3.084   4.225  2.5337 -1.7538 -1.5786
   98SAPC  C217 9715   1.283   2.965   4.388  0.0832  0.0103 -0.2172
   98SAPC  H17R 9716   1.230   2.868   4.394 -0.8352  0.5340  0.3200
   98SAPC  H17S 9717   1.213   3.044   4.421 -0.7670 -0.3771 -1.0709
   98SAPC  C218 9718   1.408   2.966   4.477 -0.1082 -1.0627  0.0801
   98SAPC  H18R 9719   1.470   3.055   4.454 -2.8644  0.7502 -0.7437
   98SAPC  H18S 9720   1.457   2.867   4.459 -0.7650 -1.0821 -1.7721
   98SAPC  C219 9721   1.386   2.976   4.630 -0.6429  0.5823 -0.5703
   98SAPC  H19R 9722   1.479   2.946   4.684 -1.0065  1.1079  0.3798
   98SAPC  H19S 9723   1.301   2.914   4.667  0.8712 -0.8258  0.6988
   98SAPC  C220 9724   1.362   3.121   4.669 -0.2777  0.1705 -0.1709
   98SAPC  H20R 9725   1.455   3.182   4.666 -1.1055  1.4559 -0.8644
   98SAPC  H20S 9726   1.329   3.126   4.775 -1.6387 -1.1131 -0.4968
   98SAPC  H20T 9727   1.275   3.159   4.611 -0.5836  0.7063  0.6201
   98SAPC   C33 9728   1.639   2.386   3.200  0.0833  0.2696 -0.1559
   98SAPC   H3X 9729   1.609   2.492   3.188  1.3657  0.5208 -1.3945
   98SAPC   H3Y 9730   1.750   2.396   3.194  0.0963 -0.0125 -0.4264
   98SAPC   C34 9731   1.590   2.331   3.334  0.1334  0.3343 -0.4696
   98SAPC   H4X 9732   1.610   2.222   3.340 -3.3966 -0.5293 -1.9274
   98SAPC   H4Y 9733   1.483   2.347   3.357  0.4911 -0.6455  2.1630
   98SAPC   C35 9734   1.673   2.392   3.455 -0.0070  0.0690  0.5231
   98SAPC   H5X 9735   1.646   2.499   3.446  1.7912  0.3911 -2.1739
   98SAPC   H5Y 9736   1.783   2.389   3.440 -0.2280 -2.3357 -1.3129
   98SAPC   C36 9737   1.645   2.339   3.594  1.0796  0.3879  0.4322
   98SAPC   H6X 9738   1.670   2.231   3.597  0.9536  0.3718  1.1470
   98SAPC   H6Y 9739   1.535   2.352   3.608  0.7813  0.2584 -1.5507
   98SAPC   C37 9740   1.718   2.428   3.699  0.1064  0.8102  0.1421
   98SAPC   H7X 9741   1.696   2.534   3.677  4.3296  1.4515 -1.9285
   98SAPC   H7Y 9742   1.825   2.436   3.673 -0.4980  3.0039 -2.0325
   98SAPC   C38 9743   1.693   2.400   3.840  0.6497 -1.0979  0.1322
   98SAPC   H8X 9744   1.727   2.300   3.875  1.6930 -0.5743  0.6610
   98SAPC   H8Y 9745   1.587   2.421   3.865  1.0086  1.3676 -0.1521
   98SAPC   C39 9746   1.774   2.500   3.932  0.1687 -0.5519 -0.4444
   98SAPC   H9X 9747   1.753   2.607   3.911 -3.5258 -0.9823  0.3739
   98SAPC   H9Y 9748   1.884   2.488   3.921  0.7139  3.0569 -0.3898
   98SAPC  C310 9749   1.742   2.473   4.077  0.8593 -0.3410  0.3021
   98SAPC  H10X 9750   1.753   2.363   4.083 -0.8154 -0.4529  3.2247
   98SAPC  H10Y 9751   1.641   2.500   4.114 -0.3767 -1.4756 -2.0307
   98SAPC  C311 9752   1.839   2.539   4.176 -0.7944 -0.6995  0.0966
   98SAPC  H11X 9753   1.939   2.526   4.130 -0.8788  0.0770 -0.3265
   98SAPC  H11Y 9754   1.825   2.500   4.279 -1.5708  1.2691  0.7913
   98SAPC  C312 9755   1.805   2.692   4.186  0.2985 -0.4527  0.3881
   98SAPC  H12X 9756   1.721   2.712   4.115 -0.7134  2.2193  2.1593
   98SAPC  H12Y 9757   1.898   2.736   4.142  0.2319 -3.0489 -2.7097
   98SAPC  C313 9758   1.763   2.748   4.322 -0.2390 -0.1789 -0.3777
   98SAPC  H13X 9759   1.664   2.712   4.357 -0.9831  1.2766 -0.9490
   98SAPC  H13Y 9760   1.749   2.858   4.317 -0.5700 -0.2850 -2.3821
   98SAPC  C314 9761   1.873   2.719   4.423  0.3051  0.1652 -1.1568
   98SAPC  H14X 9762   1.967   2.710   4.365  2.0165  1.7503  1.1914
   98SAPC  H14Y 9763   1.833   2.627   4.469  1.3721  0.8694  1.3627
   98SAPC  C315 9764   1.909   2.821   4.529  0.1876 -0.3114 -0.0719
   98SAPC  H15X 9765   1.945   2.910   4.472  2.7903 -0.4661  1.1560
   98SAPC  H15Y 9766   1.987   2.805   4.606 -1.2293 -0.4205  1.3850
   98SAPC  C316 9767   1.781   2.873   4.600  0.0039 -0.2325 -0.2088
   98SAPC  H16X 9768   1.762   2.783   4.662  3.2667 -2.0741 -1.5899
   98SAPC  H16Y 9769   1.706   2.902   4.524  0.1533 -0.2842 -0.3751
   98SAPC  C317 9770   1.804   3.002   4.682  0.4739  0.2852  0.4188
   98SAPC  H17X 9771   1.887   2.974   4.750 -0.1169 -1.0222  0.6541
   98SAPC  H17Y 9772   1.727   3.027   4.759  1.3467 -0.3509  1.5434
   98SAPC  C318 9773   1.833   3.121   4.596  0.0909 -0.2801  0.6191
   98SAPC  H18X 9774   1.741   3.130   4.534 -0.8318 -0.6070  1.8819
   98SAPC  H18Y 9775   1.922   3.111   4.531 -0.0874  0.7378  0.1903
   98SAPC  H18Z 9776   1.839   3.218   4.650  0.2918  0.1329 -0.1308
   99SAPC     N 9777   6.635   0.299   2.529  0.5689 -0.0270 -0.5332
   99SAPC   C12 9778   6.674   0.230   2.661 -0.5246 -0.5433  0.1184
   99SAPC  H12A 9779   6.764   0.279   2.695 -0.8262 -0.1439  0.3442
   99SAPC  H12B 9780   6.699   0.126   2.640  0.0209 -0.2052 -1.0119
   99SAPC   C13 9781   6.545   0.211   2.459  0.0129 -0.0304 -0.2914
   99SAPC  H13A 9782   6.464   0.180   2.523  0.4252  0.8734  0.7192
   99SAPC  H13B 9783   6.519   0.271   2.373  2.0438 -1.4808 -2.0266
   99SAPC  H13C 9784   6.598   0.127   2.418 -0.7578  0.2259 -1.8980
   99SAPC   C14 9785   6.562   0.427   2.558 -0.2640  0.3246  0.1583
   99SAPC  H14A 9786   6.537   0.488   2.472 -1.2328  0.6620  0.6542
   99SAPC  H14B 9787   6.477   0.403   2.620  0.4763  1.5271  1.7134
   99SAPC  H14C 9788   6.635   0.489   2.608  0.2192 -0.9470  1.0763
   99SAPC   C15 9789   6.755   0.329   2.440  0.6918  0.0646  0.1810
   99SAPC  H15A 9790   6.805   0.244   2.397 -0.3707 -1.2974  1.5666
   99SAPC  H15B 9791   6.715   0.383   2.355  2.7919 -1.8300 -2.1669
   99SAPC  H15C 9792   6.826   0.399   2.482  2.2197  0.0288 -2.1295
   99SAPC   C11 9793   6.568   0.234   2.775 -0.1393 -0.8012  0.2479
   99SAPC  H11A 9794   6.553   0.340   2.803 -1.4730 -1.2524  1.3386
   99SAPC  H11B 9795   6.601   0.196   2.874 -1.2394 -0.8536  0.6078
   99SAPC     P 9796   6.441   0.012   2.738  0.2323  0.7047  0.0748
   99SAPC   O13 9797   6.421  -0.049   2.602  0.3926 -0.0159  0.0575
   99SAPC   O14 9798   6.551  -0.045   2.818  0.2393 -0.2453  0.0866
   99SAPC   O12 9799   6.448   0.173   2.740 -0.0430  0.2265 -0.2448
   99SAPC   O11 9800   6.320  -0.020   2.828  0.1112 -0.2039  0.2004
   99SAPC    C1 9801   6.299   0.058   2.951 -0.4055  0.2311  0.5265
   99SAPC    HA 9802   6.334   0.163   2.946  0.8056 -0.1983 -0.4458
   99SAPC    HB 9803   6.188   0.059   2.962 -0.9499  0.1771 -3.4504
   99SAPC    C2 9804   6.352  -0.026   3.067 -0.0459 -0.3611  0.0626
   99SAPC    HS 9805   6.460  -0.040   3.049 -0.1824  0.0827 -1.2388
   99SAPC   O21 9806   6.284  -0.155   3.067  0.0078  0.1721 -0.6076
   99SAPC   C21 9807   6.355  -0.256   3.111 -0.3466 -0.6742 -0.1156
   99SAPC   O22 9808   6.471  -0.250   3.145  0.6729 -0.3149  0.0032
   99SAPC   C22 9809   6.265  -0.377   3.119  0.5956 -0.9909  0.0993
   99SAPC   H2R 9810   6.162  -0.344   3.146 -0.0157  0.6917 -3.6950
   99SAPC   H2S 9811   6.257  -0.398   3.010 -0.5662  0.0702 -0.0487
   99SAPC    C3 9812   6.337   0.047   3.216  0.7551 -0.3806  0.9439
   99SAPC    HX 9813   6.229   0.061   3.238  0.4095 -3.2022  1.4369
   99SAPC    HY 9814   6.389   0.143   3.197  0.3580 -0.4429 -0.5297
   99SAPC   O31 9815   6.390  -0.027   3.325  0.0335  0.0950 -0.6354
   99SAPC   C31 9816   6.511  -0.002   3.363  0.3940  0.6604  0.1534
   99SAPC   O32 9817   6.598   0.066   3.306  0.0722  0.5715 -0.5468
   99SAPC   C32 9818   6.527  -0.077   3.504  0.1809  0.4206 -0.3603
   99SAPC   H2X 9819   6.569  -0.179   3.492 -1.9049 -0.3052 -2.0042
   99SAPC   H2Y 9820   6.424  -0.078   3.547 -0.4474  2.6585 -1.6341
   99SAPC   C23 9821   6.306  -0.503   3.195  0.0043  0.7841 -0.1863
   99SAPC   H3R 9822   6.407  -0.545   3.173 -0.9394 -0.0359 -3.5679
   99SAPC   H3S 9823   6.241  -0.585   3.158 -2.1898  0.7961  3.2585
   99SAPC   C24 9824   6.288  -0.472   3.339 -0.9508  0.1795 -0.4593
   99SAPC   H4R 9825   6.179  -0.455   3.355 -1.2698 -2.7931  1.1296
   99SAPC   H4S 9826   6.350  -0.381   3.354  1.2374 -1.4189  0.7362
   99SAPC   C25 9827   6.334  -0.595   3.425 -0.2592  0.0794 -0.4725
   99SAPC   H5R 9828   6.315  -0.694   3.381 -0.4929  0.2776 -0.8250
   99SAPC   C26 9829   6.414  -0.587   3.533 -0.3670 -0.1339 -0.1019
   99SAPC   H6R 9830   6.461  -0.679   3.572  0.4264  0.8687  1.4420
   99SAPC   C27 9831   6.461  -0.464   3.609  0.0752 -0.2415 -0.1523
   99SAPC   H7R 9832   6.464  -0.368   3.554 -1.9112  0.0134  0.0934
   99SAPC   H7S 9833   6.565  -0.483   3.642  0.4393 -0.1378 -1.2071
   99SAPC   C28 9834   6.372  -0.451   3.727 -0.0917  0.3158  0.3447
   99SAPC   H8R 9835   6.263  -0.465   3.714  0.0293 -0.9640  0.6297
   99SAPC   C29 9836   6.410  -0.417   3.853  0.3332 -0.2182 -0.0217
   99SAPC   H9R 9837   6.331  -0.410   3.929  2.0925 -0.4397  1.9270
   99SAPC  C210 9838   6.547  -0.389   3.911  0.5469  0.5724  0.5422
   99SAPC  H10R 9839   6.525  -0.318   3.993  0.6492  1.1013  0.1174
   99SAPC  H10S 9840   6.615  -0.339   3.838  1.2658 -1.9203 -0.6058
   99SAPC  C211 9841   6.624  -0.516   3.959 -0.1167 -0.1096  0.6597
   99SAPC  H11R 9842   6.644  -0.595   3.885  0.9977  0.4953  0.2828
   99SAPC  C212 9843   6.681  -0.531   4.082  0.0326  0.6159 -0.0639
   99SAPC  H12R 9844   6.724  -0.629   4.106 -2.5546 -0.4843  0.4378
   99SAPC  C213 9845   6.673  -0.439   4.206  0.8785  0.0476  0.1284
   99SAPC  H13R 9846   6.702  -0.336   4.176  0.5681  0.8391  2.3824
   99SAPC  H13S 9847   6.746  -0.481   4.279  2.3077 -2.0450 -2.3326
   99SAPC  C214 9848   6.543  -0.442   4.272  0.3251  0.5257 -0.4812
   99SAPC  H14R 9849   6.468  -0.365   4.249  0.8494  1.0457 -0.4865
   99SAPC  C215 9850   6.488  -0.538   4.356  0.4434 -0.3528 -0.3509
   99SAPC  H15R 9851   6.389  -0.514   4.396  0.5578 -1.4918  0.6551
   99SAPC  C216 9852   6.555  -0.664   4.400  0.2487 -0.0257  0.3103
   99SAPC  H16R 9853   6.613  -0.627   4.487  2.2174 -0.5220 -0.7503
   99SAPC  H16S 9854   6.629  -0.693   4.323 -0.8756  1.0700 -1.2549
   99SAPC  C217 9855   6.476  -0.783   4.448 -0.0547  1.0432 -0.5772
   99SAPC  H17R 9856   6.428  -0.755   4.544 -0.8594  2.3563 -1.3371
   99SAPC  H17S 9857   6.549  -0.863   4.473  0.6516  1.6568 -0.6240
   99SAPC  C218 9858   6.365  -0.825   4.357  0.6422 -0.1898  0.3178
   99SAPC  H18R 9859   6.400  -0.859   4.257  1.8044 -0.9294  0.9503
   99SAPC  H18S 9860   6.303  -0.733   4.350  1.7872  0.7406  1.6793
   99SAPC  C219 9861   6.278  -0.944   4.412  0.7352 -0.1030 -0.3704
   99SAPC  H19R 9862   6.342  -1.020   4.461  0.8182  0.7276  0.8426
   99SAPC  H19S 9863   6.222  -0.984   4.324  1.7075  0.6508 -1.3702
   99SAPC  C220 9864   6.178  -0.897   4.519 -0.0888  0.7931 -0.8163
   99SAPC  H20R 9865   6.133  -0.799   4.494  0.5510  1.4226  0.4331
   99SAPC  H20S 9866   6.239  -0.875   4.609  2.7137 -2.4349 -1.7055
   99SAPC  H20T 9867   6.092  -0.967   4.530 -0.2127  1.2330  1.4244
   99SAPC   C33 9868   6.612   0.002   3.607 -0.1615  0.7075  0.6470
   99SAPC   H3X 9869   6.588   0.111   3.604 -0.7696  0.5871 -2.8498
   99SAPC   H3Y 9870   6.718   0.000   3.576 -0.7477 -1.8160 -1.5591
   99SAPC   C34 9871   6.592  -0.036   3.754  0.5393 -0.1516  0.8842
   99SAPC   H4X 9872   6.618  -0.143   3.765 -0.0689 -0.3437  0.5316
   99SAPC   H4Y 9873   6.484  -0.031   3.780 -0.2903 -0.5601 -2.1032
   99SAPC   C35 9874   6.679   0.031   3.857  0.0962 -1.0966 -0.2060
   99SAPC   H5X 9875   6.647   0.138   3.862 -2.4107 -1.7825 -0.4893
   99SAPC   H5Y 9876   6.784   0.021   3.822  0.1198 -0.6893 -0.2663
   99SAPC   C36 9877   6.667  -0.032   3.995 -0.0663  0.6377  0.4018
   99SAPC   H6X 9878   6.695  -0.138   3.979 -0.7612  0.3929  0.7626
   99SAPC   H6Y 9879   6.559  -0.028   4.018 -1.1797  1.9814 -4.1085
   99SAPC   C37 9880   6.759   0.033   4.094  0.2973 -0.2032 -0.2348
   99SAPC   H7X 9881   6.778   0.136   4.058 -1.0844  0.0147 -0.4022
   99SAPC   H7Y 9882   6.856  -0.020   4.086  0.8957  0.9538 -0.6996
   99SAPC   C38 9883   6.691   0.026   4.234 -0.2754 -0.1933  0.7860
   99SAPC   H8X 9884   6.684  -0.084   4.251  0.9513 -0.4999 -0.5014
   99SAPC   H8Y 9885   6.589   0.066   4.217 -0.3697 -0.5071  0.6180
   99SAPC   C39 9886   6.775   0.090   4.341  0.1093 -0.1260 -0.6830
   99SAPC   H9X 9887   6.774   0.198   4.315 -0.7319 -0.5171 -2.4699
   99SAPC   H9Y 9888   6.879   0.054   4.335  0.3503  0.2711  0.8471
   99SAPC  C310 9889   6.713   0.073   4.484 -0.2523  0.0142 -0.4445
   99SAPC  H10X 9890   6.725  -0.033   4.514 -1.3057  0.4702  1.8115
   99SAPC  H10Y 9891   6.602   0.081   4.493 -0.2407 -1.7956  2.4815
   99SAPC  C311 9892   6.783   0.161   4.590 -0.3550 -0.2430  0.4390
   99SAPC  H11X 9893   6.722   0.155   4.682 -1.2087 -0.5772 -0.1341
   99SAPC  H11Y 9894   6.788   0.259   4.538 -0.5014 -0.8204 -0.6941
   99SAPC  C312 9895   6.933   0.117   4.616 -0.3043 -0.4543 -0.5920
   99SAPC  H12X 9896   6.984   0.091   4.521 -0.9227  2.1115 -1.7098
   99SAPC  H12Y 9897   6.941   0.030   4.685  1.5024  0.3034  0.2435
   99SAPC  C313 9898   7.026   0.220   4.674 -0.2577  0.0008 -0.2756
   99SAPC  H13X 9899   7.022   0.317   4.619  2.8210  0.0609 -0.5667
   99SAPC  H13Y 9900   7.129   0.176   4.675 -0.8678 -1.4812  1.3071
   99SAPC  C314 9901   7.002   0.246   4.823  0.3106  0.0762  0.2247
   99SAPC  H14X 9902   6.893   0.261   4.837 -0.0629 -0.6307 -1.6752
   99SAPC  H14Y 9903   7.037   0.350   4.839 -0.0067  0.2731 -0.3141
   99SAPC  C315 9904   7.087   0.164   4.917 -0.3863 -0.0217  0.6792
   99SAPC  H15X 9905   7.192   0.196   4.902 -1.3075  2.4002 -1.2589
   99SAPC  H15Y 9906   7.065   0.057   4.894 -2.4301  0.4963  0.0437
   99SAPC  C316 9907   7.046   0.194   5.063 -0.8716 -0.0552 -0.9675
   99SAPC  H16X 9908   6.936   0.200   5.074 -0.9798  1.6727 -2.4478
   99SAPC  H16Y 9909   7.080   0.296   5.090 -1.5075 -0.4361  1.5353
   99SAPC  C317 9910   7.099   0.088   5.166 -0.2048  0.3527  0.4285
   99SAPC  H17X 9911   7.210   0.093   5.164 -0.0938 -1.7054 -0.7002
   99SAPC  H17Y 9912   7.073  -0.015   5.137 -1.9808  0.8369  0.2047
   99SAPC  C318 9913   7.062   0.126   5.304 -0.0799 -0.6713 -0.9432
   99SAPC  H18X 9914   6.963   0.094   5.342 -0.6967  1.1064 -0.9901
   99SAPC  H18Y 9915   7.072   0.235   5.323  0.5498 -0.4446 -2.3949
   99SAPC  H18Z 9916   7.120   0.067   5.378  1.1403  0.5266 -0.9078
  100SAPC     N 9917   6.768   5.696   2.530  0.0618  0.0425 -0.1866
  100SAPC   C12 9918   6.665   5.612   2.459 -0.6345 -0.3292  0.9847
  100SAPC  H12A 9919   6.655   5.515   2.504  0.0472 -1.8165 -1.8165
  100SAPC  H12B 9920   6.689   5.600   2.354 -1.0988 -1.5638  1.0106
  100SAPC   C13 9921   6.904   5.637   2.516 -0.2150 -0.0353  0.1160
  100SAPC  H13A 9922   6.901   5.540   2.562  0.2880  0.1716  0.6020
  100SAPC  H13B 9923   6.928   5.625   2.411 -1.1410 -0.1371 -0.0893
  100SAPC  H13C 9924   6.973   5.695   2.576  0.7957 -2.1967  1.1435
  100SAPC   C14 9925   6.775   5.841   2.470 -0.4409 -0.0785 -0.2717
  100SAPC  H14A 9926   6.867   5.878   2.513 -0.2667  1.5334 -1.9202
  100SAPC  H14B 9927   6.789   5.844   2.363  1.1019 -1.5613 -0.1622
  100SAPC  H14C 9928   6.683   5.895   2.489 -0.1985  0.0732  0.5475
  100SAPC   C15 9929   6.734   5.705   2.670 -0.2014  0.0893 -1.2645
  100SAPC  H15A 9930   6.806   5.762   2.728 -0.7438 -0.9012  0.4650
  100SAPC  H15B 9931   6.635   5.743   2.691 -0.0384 -0.1866  0.1414
  100SAPC  H15C 9932   6.736   5.606   2.715 -2.6963 -0.2819 -1.8542
  100SAPC   C11 9933   6.520   5.674   2.451 -0.7699 -0.3904 -0.3774
  100SAPC  H11A 9934   6.477   5.663   2.349  0.1371 -1.4791 -0.6675
  100SAPC  H11B 9935   6.534   5.782   2.474 -0.3163 -0.6974  0.8457
  100SAPC     P 9936   6.335   5.685   2.642 -0.4143  0.0604 -0.1399
  100SAPC   O13 9937   6.234   5.756   2.556  0.0450 -0.9181  0.5480
  100SAPC   O14 9938   6.284   5.586   2.741 -0.0128 -0.8871 -0.2755
  100SAPC   O12 9939   6.437   5.612   2.555  0.1058  0.5975  0.0313
  100SAPC   O11 9940   6.430   5.786   2.715 -0.1084 -0.2531 -0.0854
  100SAPC    C1 9941   6.402   5.922   2.740 -0.5611 -0.2716 -0.3374
  100SAPC    HA 9942   6.378   5.984   2.651 -1.5816 -1.7080 -1.1097
  100SAPC    HB 9943   6.312   5.929   2.804  0.5975  0.9115  1.2355
  100SAPC    C2 9944   6.517   5.992   2.817 -0.5979 -0.4722 -0.6967
  100SAPC    HS 9945   6.601   6.007   2.745 -0.4108 -0.3045 -0.4460
  100SAPC   O21 9946   6.563   5.898   2.917  0.1023 -0.2829 -0.0969
  100SAPC   C21 9947   6.477   5.875   3.016  0.2370  0.0507  0.0901
  100SAPC   O22 9948   6.366   5.925   3.024 -0.2236 -0.0372 -0.6816
  100SAPC   C22 9949   6.551   5.785   3.121  0.7185  0.5540  0.2531
  100SAPC   H2R 9950   6.537   5.681   3.085 -0.4396  0.0928  1.9122
  100SAPC   H2S 9951   6.658   5.812   3.110  0.5635  1.8927  1.5989
  100SAPC    C3 9952   6.484   6.138   2.864 -0.4093  0.0799  0.0402
  100SAPC    HX 9953   6.382   6.141   2.907 -2.3423  0.4866 -4.1395
  100SAPC    HY 9954   6.474   6.197   2.771  0.7277 -1.3342 -1.0346
  100SAPC   O31 9955   6.578   6.198   2.962 -0.0679  0.0515  0.0419
  100SAPC   C31 9956   6.679   6.256   2.900 -0.0703  0.4104  0.1895
  100SAPC   O32 9957   6.703   6.250   2.778  0.0209 -0.2570 -0.6260
  100SAPC   C32 9958   6.767   6.325   3.002  0.7596 -0.9583  0.3142
  100SAPC   H2X 9959   6.703   6.339   3.092 -2.1469 -0.2863 -1.7108
  100SAPC   H2Y 9960   6.784   6.429   2.968  0.6327 -1.1696 -0.4132
  100SAPC   C23 9961   6.497   5.798   3.264  0.4387 -0.2827  0.0577
  100SAPC   H3R 9962   6.391   5.764   3.271  0.7824 -1.2852  0.5728
  100SAPC   H3S 9963   6.492   5.908   3.275 -0.1734 -0.1327 -1.4150
  100SAPC   C24 9964   6.572   5.729   3.375 -0.1459  0.5872 -0.2413
  100SAPC   H4R 9965   6.533   5.761   3.474  1.4132  0.0410  0.5882
  100SAPC   H4S 9966   6.678   5.763   3.378  0.3216 -0.6799 -1.4290
  100SAPC   C25 9967   6.556   5.574   3.365 -0.1788 -0.0264 -0.0311
  100SAPC   H5R 9968   6.569   5.540   3.261  0.2621 -0.4336  0.1595
  100SAPC   C26 9969   6.525   5.479   3.457  0.5873 -0.0891 -0.2030
  100SAPC   H6R 9970   6.518   5.371   3.439 -2.0340 -0.0185  0.0702
  100SAPC   C27 9971   6.493   5.517   3.602  0.5357 -0.3728  0.1362
  100SAPC   H7R 9972   6.389   5.556   3.593  0.2652 -0.9231  0.7824
  100SAPC   H7S 9973   6.546   5.604   3.647  0.0055  1.4523 -2.4979
  100SAPC   C28 9974   6.491   5.395   3.691 -0.3534  0.0833  0.2677
  100SAPC   H8R 9975   6.397   5.361   3.735 -1.0522  1.3745 -0.1882
  100SAPC   C29 9976   6.598   5.313   3.715  0.2303  0.2194 -0.1235
  100SAPC   H9R 9977   6.585   5.228   3.784  2.5226  0.1368  0.2938
  100SAPC  C210 9978   6.736   5.331   3.663 -0.2987  0.0612  0.3805
  100SAPC  H10R 9979   6.802   5.309   3.749  1.9651  0.0389 -1.2868
  100SAPC  H10S 9980   6.754   5.436   3.633  2.3508 -0.4672 -0.1348
  100SAPC  C211 9981   6.778   5.242   3.549 -0.1892 -1.5776 -1.0662
  100SAPC  H11R 9982   6.695   5.216   3.481 -1.3171  0.3787 -0.5116
  100SAPC  C212 9983   6.901   5.196   3.517 -0.0256  0.1974 -0.3347
  100SAPC  H12R 9984   6.912   5.123   3.435 -1.0145 -0.4753  0.1180
  100SAPC  C213 9985   7.035   5.231   3.586 -0.2882  0.0818 -0.2738
  100SAPC  H13R 9986   7.013   5.312   3.659 -3.1262 -2.4777  2.0154
  100SAPC  H13S 9987   7.096   5.277   3.506  1.0287  2.0549  1.7293
  100SAPC  C214 9988   7.116   5.125   3.649 -1.0232  0.0533 -0.2969
  100SAPC  H14R 9989   7.161   5.051   3.582 -0.1868 -0.6211  0.9789
  100SAPC  C215 9990   7.154   5.118   3.775  0.3065  0.1693 -1.5074
  100SAPC  H15R 9991   7.215   5.031   3.804 -0.8538 -0.4905 -0.9935
  100SAPC  C216 9992   7.093   5.198   3.887 -0.3279 -0.0654 -0.2586
  100SAPC  H16R 9993   7.040   5.293   3.862 -0.1718  0.5179  1.5116
  100SAPC  H16S 9994   7.182   5.227   3.945 -0.4734  0.7022 -0.4081
  100SAPC  C217 9995   7.000   5.103   3.966  0.2291  0.1466 -0.2730
  100SAPC  H17R 9996   7.059   5.021   4.012  1.5309  2.2063  2.0190
  100SAPC  H17S 9997   6.926   5.055   3.899  1.8916  2.0292 -3.7325
  100SAPC  C218 9998   6.925   5.176   4.079 -1.0376  0.1008 -0.1270
  100SAPC  H18R 9999   6.853   5.105   4.127 -0.9248  0.5260  0.7003
  100SAPC  H18S10000   6.858   5.255   4.039  0.4051  1.0145 -0.7993
  100SAPC  C21910001   7.030   5.238   4.177  0.0701  0.3070  0.0093
  100SAPC  H19R10002   6.965   5.302   4.240  0.0612 -0.3725  0.7139
  100SAPC  H19S10003   7.099   5.310   4.129 -0.4356  1.9961  1.7010
  100SAPC  C22010004   7.121   5.147   4.254  0.0123  0.0264  0.2663
  100SAPC  H20R10005   7.067   5.060   4.298  0.1887 -1.3061 -2.0051
  100SAPC  H20S10006   7.185   5.208   4.321 -0.9115 -1.4300  2.5891
  100SAPC  H20T10007   7.197   5.101   4.187 -0.3878  2.2745 -1.8895
  100SAPC   C3310008   6.900   6.257   3.030  0.7338 -0.1549 -0.0139
  100SAPC   H3X10009   6.961   6.333   3.082  2.8397 -1.1450 -0.9075
  100SAPC   H3Y10010   6.954   6.237   2.935 -2.3484 -2.3426 -1.5028
  100SAPC   C3410011   6.882   6.130   3.116  0.4617  1.0985  0.6970
  100SAPC   H4X10012   6.975   6.070   3.128 -0.2030 -0.0816  0.1559
  100SAPC   H4Y10013   6.809   6.064   3.064 -1.3438  2.6639  1.1287
  100SAPC   C3510014   6.825   6.165   3.252 -0.3795  0.2574 -0.9037
  100SAPC   H5X10015   6.715   6.171   3.252 -0.3286  1.5560 -1.8330
  100SAPC   H5Y10016   6.878   6.255   3.292 -0.4865 -0.7441  1.6921
  100SAPC   C3610017   6.847   6.049   3.356  0.2209 -0.5569 -0.8342
  100SAPC   H6X10018   6.955   6.034   3.374 -0.1691 -1.5914  0.9789
  100SAPC   H6Y10019   6.810   5.954   3.312 -0.6850 -1.2745  1.3166
  100SAPC   C3710020   6.782   6.064   3.495 -0.3576 -0.2817 -0.8211
  100SAPC   H7X10021   6.675   6.073   3.469 -0.9266  3.0814  2.0352
  100SAPC   H7Y10022   6.819   6.159   3.539 -0.3612 -0.3011 -0.7766
  100SAPC   C3810023   6.839   5.944   3.579  0.3707 -0.8718 -0.3892
  100SAPC   H8X10024   6.948   5.942   3.558  0.9079  3.1310  1.1276
  100SAPC   H8Y10025   6.795   5.857   3.526 -2.4945  0.5211 -0.5301
  100SAPC   C3910026   6.805   5.951   3.733 -0.1806  1.0781 -0.8766
  100SAPC   H9X10027   6.846   6.049   3.767  0.1053  0.3620  0.9905
  100SAPC   H9Y10028   6.865   5.872   3.784 -0.7569  0.0338 -1.7731
  100SAPC  C31010029   6.659   5.938   3.768  0.5374 -0.4220  0.4266
  100SAPC  H10X10030   6.601   5.856   3.722 -2.4715  1.5970  0.2999
  100SAPC  H10Y10031   6.616   6.026   3.716  1.9542 -0.2142 -0.4434
  100SAPC  C31110032   6.628   5.937   3.919 -1.0005 -0.2163  0.3968
  100SAPC  H11X10033   6.539   5.997   3.948  1.0823  3.0091  0.5546
  100SAPC  H11Y10034   6.717   5.986   3.964  0.5225  0.1561 -2.7823
  100SAPC  C31210035   6.632   5.802   3.997  0.4200  0.1076  0.9463
  100SAPC  H12X10036   6.645   5.812   4.106 -0.8961 -0.2967  1.1625
  100SAPC  H12Y10037   6.730   5.757   3.968  1.7901  2.7004  1.2751
  100SAPC  C31310038   6.501   5.722   3.991  0.6789  0.3134 -0.6332
  100SAPC  H13X10039   6.476   5.711   3.883 -0.0273  1.4110 -0.5972
  100SAPC  H13Y10040   6.417   5.757   4.055 -0.7452 -1.1140 -1.6437
  100SAPC  C31410041   6.530   5.583   4.044 -0.1001  0.0116 -0.6352
  100SAPC  H14X10042   6.611   5.535   3.985  0.8405 -0.1884  0.7753
  100SAPC  H14Y10043   6.438   5.525   4.020 -0.4102  0.5572 -0.7868
  100SAPC  C31510044   6.542   5.581   4.197 -0.2600 -0.0054 -0.2325
  100SAPC  H15X10045   6.456   5.629   4.247  1.9386  2.2647  1.6466
  100SAPC  H15Y10046   6.625   5.649   4.228  0.0372  0.7658 -2.5356
  100SAPC  C31610047   6.565   5.436   4.252 -0.1953 -0.6905 -0.8988
  100SAPC  H16X10048   6.641   5.372   4.203  0.0301 -0.6306 -0.6366
  100SAPC  H16Y10049   6.467   5.389   4.231 -0.4298 -1.1706  1.0342
  100SAPC  C31710050   6.603   5.429   4.393 -0.2453  0.9483  0.0241
  100SAPC  H17X10051   6.512   5.463   4.448 -0.1004 -1.4343  1.9001
  100SAPC  H17Y10052   6.680   5.504   4.420 -0.8304  1.2403  0.9430
  100SAPC  C31810053   6.661   5.296   4.434 -0.3464  0.5043  0.1970
  100SAPC  H18X10054   6.586   5.223   4.397  0.2662  0.6142 -1.3314
  100SAPC  H18Y10055   6.676   5.303   4.544  0.6535  3.4431 -0.0371
  100SAPC  H18Z10056   6.759   5.288   4.382 -0.5924  0.2214 -0.2276
  101OSM      N10057   2.997   3.032   7.144  0.0800  0.0088  1.0611
  101OSM    C1510058   3.093   2.983   7.243 -0.8748 -0.7141  0.6400
  101OSM   H15A10059   3.044   2.920   7.316 -0.9389  0.8406  2.0002
  101OSM   H15B10060   3.144   3.061   7.298 -1.0584 -0.3027  0.2344
  101OSM   H15C10061   3.178   2.933   7.200  0.6501  0.8587  1.6970
  101OSM    C1410062   2.901   3.123   7.216 -0.1864 -0.3884 -0.4894
  101OSM   H14A10063   2.846   3.186   7.148  1.3025  2.2965  0.6722
  101OSM   H14B10064   2.942   3.193   7.286 -1.6616  0.2890 -0.2740
  101OSM   H14C10065   2.834   3.063   7.276  0.2210 -2.8476 -2.3379
  101OSM    C1310066   3.074   3.120   7.048  0.2844 -0.3757 -0.0984
  101OSM   H13A10067   3.005   3.142   6.968  1.3460  2.2596 -0.3998
  101OSM   H13B10068   3.162   3.072   7.007  1.6867  2.5458 -0.8120
  101OSM   H13C10069   3.111   3.211   7.095  1.0534  0.2103 -1.7753
  101OSM    C1210070   2.928   2.916   7.080 -0.1400  0.5367  0.0660
  101OSM   H12A10071   2.885   2.866   7.166  1.1351  1.6784  1.4287
  101OSM   H12B10072   3.008   2.857   7.037 -1.3555  1.6593 -4.1965
  101OSM    C1110073   2.823   2.946   6.963  0.3545  0.2012 -0.3472
  101OSM   H11A10074   2.774   2.848   6.947 -1.4241  0.7187  1.5266
  101OSM   H11B10075   2.877   2.977   6.871 -1.5618  3.2266 -0.6282
  101OSM      P10076   2.587   3.015   7.057 -0.1649  0.6375 -0.2416
  101OSM    O1310077   2.609   2.979   7.204 -0.7324 -0.3905  0.0317
  101OSM    O1410078   2.494   3.128   7.031 -0.2699 -0.5243  0.5808
  101OSM    O1110079   2.527   2.892   6.978  0.3797 -0.4979 -0.2136
  101OSM    O1210080   2.724   3.047   6.988  0.0596 -0.5820 -0.6582
  101OSM    C1S10081   2.538   2.874   6.835 -0.4706  0.4160 -0.0275
  101OSM    H1S10082   2.629   2.813   6.822  1.5021  3.0465  0.5670
  101OSM    H1T10083   2.566   2.968   6.782  0.0589 -0.3029 -1.0571
  101OSM     NF10084   2.431   2.781   6.626  0.7692 -0.8814  0.3502
  101OSM    HNF10085   2.390   2.844   6.561  0.8144 -0.0145  1.1434
  101OSM    C2S10086   2.401   2.809   6.772 -0.0460  0.4298  0.2140
  101OSM    H2S10087   2.378   2.714   6.825 -1.9093  0.2185 -0.9240
  101OSM    C3S10088   2.276   2.901   6.792 -0.2629  0.2691 -0.5688
  101OSM    H3S10089   2.297   3.001   6.747  1.5117 -1.0668 -2.9019
  101OSM     O310090   2.248   2.929   6.927 -0.7637  0.8116 -0.3426
  101OSM    HO310091   2.339   2.928   6.959 -0.8887 -0.4050  0.0228
  101OSM    C4S10092   2.156   2.836   6.736 -0.7117  1.2700 -0.5589
  101OSM    H4S10093   2.132   2.747   6.795  1.3837  0.0995 -1.3672
  101OSM    C5S10094   2.095   2.874   6.630  0.4954  0.6387  0.2587
  101OSM    H5S10095   2.120   2.969   6.579 -2.3051  2.0670  1.3617
  101OSM    C6S10096   1.985   2.804   6.573 -0.1528  0.4454  0.5429
  101OSM    H6S10097   1.957   2.843   6.472 -0.9799 -0.8602  0.2508
  101OSM    H6T10098   1.906   2.807   6.650 -0.5586  0.1369  0.1459
  101OSM    C7S10099   2.017   2.656   6.535  0.4943 -0.1890 -0.0268
  101OSM    H7S10100   2.026   2.603   6.632  1.4622 -0.4216 -0.2358
  101OSM    H7T10101   2.112   2.650   6.478 -0.6723 -2.2507 -1.9319
  101OSM    C8S10102   1.908   2.588   6.453  0.0052  0.1323 -0.2518
  101OSM    H8S10103   1.806   2.609   6.492 -0.3977 -1.5950 -0.2840
  101OSM    H8T10104   1.914   2.478   6.468 -0.8331 -0.0398 -1.0867
  101OSM    C9S10105   1.892   2.633   6.310 -0.5314 -0.3692  0.0711
  101OSM    H9S10106   1.996   2.650   6.273 -0.5381 -0.8576 -0.1850
  101OSM    H9T10107   1.842   2.731   6.300 -0.9674 -0.6432 -0.4617
  101OSM   C10S10108   1.830   2.530   6.217  1.0535  0.4313  0.3722
  101OSM   H10S10109   1.722   2.519   6.238  1.2435 -0.8109  0.7476
  101OSM   H10T10110   1.871   2.428   6.234 -1.0460 -0.3282  1.1512
  101OSM   C11S10111   1.838   2.573   6.072 -0.3197  0.2228 -0.4513
  101OSM   H11S10112   1.946   2.590   6.053  0.7458  0.0834  4.2225
  101OSM   H11T10113   1.784   2.668   6.049 -0.5177 -0.0506 -1.1139
  101OSM   C12S10114   1.777   2.467   5.979  0.4307 -0.0286 -0.0225
  101OSM   H12S10115   1.673   2.448   6.014  0.7180  0.5574  1.1869
  101OSM   H12T10116   1.818   2.363   5.981  0.7712  0.0632 -1.5802
  101OSM   C13S10117   1.784   2.512   5.834 -0.1196 -0.1329  0.0866
  101OSM   H13S10118   1.752   2.618   5.828 -2.4604 -0.7664  0.1880
  101OSM   H13T10119   1.721   2.441   5.776 -0.2172 -0.5178  0.6546
  101OSM   C14S10120   1.925   2.504   5.777  0.4800 -0.1446  0.0704
  101OSM   H14S10121   1.951   2.396   5.789 -0.1041 -0.3752 -0.6415
  101OSM   H14T10122   2.001   2.564   5.830 -0.0272 -0.5720  1.3141
  101OSM   C15S10123   1.928   2.528   5.622 -0.3063 -0.1614  0.7703
  101OSM   H15S10124   1.846   2.469   5.576  0.8541  0.0092 -1.7199
  101OSM   H15T10125   2.028   2.499   5.582 -0.5170  0.5371 -0.2859
  101OSM   C16S10126   1.914   2.674   5.590  0.0034 -0.1187 -0.6824
  101OSM   H16S10127   1.997   2.726   5.643 -1.8367  1.2961  0.9605
  101OSM   H16T10128   1.821   2.705   5.642  1.1379 -0.1643  1.4658
  101OSM   C17S10129   1.905   2.696   5.441 -0.3608 -0.0324  0.0549
  101OSM   H17S10130   1.919   2.806   5.446 -1.6899  0.1066  2.1436
  101OSM   H17T10131   1.799   2.671   5.415 -0.5196  1.0590 -0.3964
  101OSM   C18S10132   2.010   2.634   5.351 -0.1187 -0.1908 -0.5229
  101OSM   H18S10133   2.109   2.678   5.378 -1.3997  2.3011  0.3669
  101OSM   H18T10134   1.987   2.676   5.251 -1.7099 -0.4764 -0.3038
  101OSM   H18U10135   2.015   2.523   5.352 -2.3520 -0.3906 -2.4089
  101OSM    C1F10136   2.490   2.674   6.580  0.2798 -0.2455 -1.0372
  101OSM     OF10137   2.547   2.595   6.659  0.4911 -0.4405 -0.0504
  101OSM    C2F10138   2.455   2.638   6.440  0.0768  0.1893 -0.2162
  101OSM    H2F10139   2.476   2.725   6.374 -1.3617 -0.3358 -1.3872
  101OSM    H2G10140   2.353   2.597   6.426  1.1577 -1.5926 -4.3551
  101OSM    C3F10141   2.559   2.544   6.374  0.8272  0.0280 -0.7840
  101OSM    H3F10142   2.581   2.465   6.449 -1.3755 -2.2989 -2.4210
  101OSM    H3G10143   2.645   2.608   6.345 -1.2949  2.4550 -2.0998
  101OSM    C4F10144   2.509   2.485   6.244 -0.0832  0.4749  0.6967
  101OSM    H4F10145   2.437   2.403   6.265  0.7473 -0.0216  1.6834
  101OSM    H4G10146   2.592   2.425   6.202 -2.2933 -1.1314 -1.6542
  101OSM    C5F10147   2.468   2.583   6.128 -0.0553 -0.7241  0.0382
  101OSM    H5F10148   2.538   2.670   6.123  0.0622 -0.7562  0.8957
  101OSM    H5G10149   2.367   2.625   6.145  0.2138 -0.3913  0.8866
  101OSM    C6F10150   2.459   2.499   6.000 -0.5419  0.0748 -0.1655
  101OSM    H6F10151   2.383   2.420   6.017 -1.9231  1.7256  1.9055
  101OSM    H6G10152   2.556   2.454   5.971 -0.5150  0.5588 -0.8456
  101OSM    C7F10153   2.408   2.587   5.887 -0.0860 -0.0230 -0.3067
  101OSM    H7F10154   2.488   2.661   5.865 -1.1350  1.5817  0.9774
  101OSM    H7G10155   2.327   2.654   5.924  1.2689  0.9123  1.1002
  101OSM    C8F10156   2.372   2.513   5.758  0.2336  0.1320  0.9289
  101OSM    H8F10157   2.270   2.474   5.778 -0.1507 -0.3418 -1.5937
  101OSM    H8G10158   2.448   2.436   5.736  0.2070  0.8712 -2.1386
  101OSM    C9F10159   2.360   2.617   5.653  1.0749 -0.0733  0.1106
  101OSM    H9F10160   2.279   2.687   5.678  0.4265 -1.0205  0.7235
  101OSM   C10F10161   2.418   2.622   5.533 -0.2319  0.4390 -0.1289
  101OSM   H10F10162   2.388   2.704   5.466 -0.2044  2.0902  1.7708
  101OSM   C11F10163   2.519   2.524   5.488 -0.1433  0.9590 -1.2432
  101OSM   H11F10164   2.474   2.424   5.477  1.3243  0.2083 -0.7226
  101OSM   H11G10165   2.596   2.499   5.564 -0.7486 -1.4522 -1.3665
  101OSM   C12F10166   2.593   2.565   5.361  0.2345 -0.3351  0.7700
  101OSM   H12F10167   2.656   2.655   5.370 -1.2135  0.6791  1.0669
  101OSM   H12G10168   2.524   2.574   5.274 -0.1905 -1.2010  1.0035
  101OSM   C13F10169   2.679   2.452   5.307  0.1181 -0.1905  0.4610
  101OSM   H13F10170   2.606   2.373   5.278 -1.2835  1.0682  0.4280
  101OSM   H13G10171   2.743   2.412   5.388  1.7627  0.7375 -0.3276
  101OSM   C14F10172   2.758   2.489   5.178  0.2601 -0.2358 -0.0315
  101OSM   H14F10173   2.843   2.545   5.223  1.0837 -1.6511  0.2041
  101OSM   H14G10174   2.696   2.553   5.111  2.8462  0.4419 -1.9530
  101OSM   C15F10175   2.793   2.362   5.099  0.4050 -0.0074  0.0996
  101OSM   H15F10176   2.707   2.327   5.038 -0.9898  1.1795  1.3473
  101OSM   H15G10177   2.836   2.282   5.162  0.8030  1.0423  1.1899
  101OSM   C16F10178   2.905   2.398   4.992  0.1373 -0.3253 -0.6782
  101OSM   H16F10179   2.997   2.432   5.044 -1.0391  0.0016  1.2870
  101OSM   H16G10180   2.873   2.485   4.932 -2.6771 -2.3869 -2.4322
  101OSM   C17F10181   2.943   2.280   4.905 -0.8009 -0.2927 -0.0946
  101OSM   H17F10182   2.846   2.234   4.878 -2.2874  1.6614  1.5837
  101OSM   H17G10183   2.990   2.203   4.970  0.9267 -0.1800 -1.1474
  101OSM   C18F10184   3.029   2.316   4.786 -0.4567  0.5244  0.1274
  101OSM   H18F10185   3.037   2.220   4.731 -1.1347 -0.9239  2.4263
  101OSM   H18G10186   3.135   2.333   4.816 -0.6162 -1.5349  2.0199
  101OSM   H18H10187   2.977   2.401   4.736 -1.4129 -0.3107 -0.3093
  102OSM      N10188   4.817   2.529   7.699 -0.2257 -0.1476 -0.3908
  102OSM    C1510189   4.963   2.519   7.669 -1.0399  0.0805  0.2146
  102OSM   H15A10190   5.000   2.591   7.598 -0.9417 -0.6731 -0.5153
  102OSM   H15B10191   4.981   2.420   7.628 -1.7982 -1.3660  3.1044
  102OSM   H15C10192   5.008   2.541   7.765 -0.4015  0.1111 -0.0897
  102OSM    C1410193   4.791   2.453   7.824 -0.5168  0.1534  0.5338
  102OSM   H14A10194   4.813   2.348   7.816 -0.4978 -0.0643  2.8183
  102OSM   H14B10195   4.686   2.470   7.838 -0.6446  0.7413 -0.9257
  102OSM   H14C10196   4.859   2.471   7.905  0.4964 -1.3059  0.0442
  102OSM    C1310197   4.792   2.676   7.737  0.9957 -0.0938  0.5469
  102OSM   H13A10198   4.798   2.737   7.648  1.5521 -1.1317 -0.1541
  102OSM   H13B10199   4.873   2.704   7.802  2.8521 -2.6848 -0.4700
  102OSM   H13C10200   4.687   2.690   7.759  0.4968 -0.5736 -1.3215
  102OSM    C1210201   4.745   2.476   7.575  0.9424 -0.3388  0.7049
  102OSM   H12A10202   4.640   2.491   7.596  1.2552  1.5821  1.1135
  102OSM   H12B10203   4.778   2.374   7.566  2.3585  0.1118  0.5810
  102OSM    C1110204   4.774   2.558   7.448 -0.3020 -0.4517  0.3103
  102OSM   H11A10205   4.759   2.502   7.353 -0.6953  0.1267  0.0200
  102OSM   H11B10206   4.885   2.562   7.442 -0.3444 -1.3901 -2.6447
  102OSM      P10207   4.577   2.713   7.402  0.0049 -0.0932 -0.0244
  102OSM    O1310208   4.487   2.625   7.484 -0.2271  0.5251  0.0824
  102OSM    O1410209   4.541   2.860   7.400  0.3342  0.0227 -0.6689
  102OSM    O1110210   4.588   2.658   7.254 -0.2822 -0.1596 -0.2724
  102OSM    O1210211   4.729   2.697   7.444 -0.0957  0.2696  0.0094
  102OSM    C1S10212   4.545   2.729   7.135  0.5509 -0.7646 -0.3022
  102OSM    H1S10213   4.583   2.834   7.130 -1.7185  0.1013 -0.6971
  102OSM    H1T10214   4.435   2.744   7.126  1.0601  4.4828 -1.3347
  102OSM     NF10215   4.539   2.733   6.891 -0.1646 -0.4435  0.1566
  102OSM    HNF10216   4.440   2.729   6.884 -0.3002  0.2548  1.3128
  102OSM    C2S10217   4.583   2.659   7.007 -0.1099 -0.5325  0.2674
  102OSM    H2S10218   4.693   2.653   6.997 -0.3458 -1.7820 -2.2780
  102OSM    C3S10219   4.525   2.511   7.013  0.4107 -0.5639  0.6412
  102OSM    H3S10220   4.415   2.519   7.029 -0.0513 -1.2358 -1.7820
  102OSM     O310221   4.581   2.425   7.113  0.3426 -0.0379 -0.1207
  102OSM    HO310222   4.638   2.484   7.163  0.6901 -1.7616  1.6292
  102OSM    C4S10223   4.545   2.444   6.880  0.0138  0.1728  0.4730
  102OSM    H4S10224   4.451   2.438   6.824 -0.1298  0.4208  0.6871
  102OSM    C5S10225   4.656   2.397   6.815  0.7609  0.0149 -0.3607
  102OSM    H5S10226   4.758   2.413   6.853  1.0727 -0.1515 -1.1189
  102OSM    C6S10227   4.646   2.335   6.679  0.6178 -0.1494  0.5151
  102OSM    H6S10228   4.556   2.270   6.681 -0.4631  1.3023  0.6667
  102OSM    H6T10229   4.738   2.274   6.664  1.4679  0.4935  2.7360
  102OSM    C7S10230   4.634   2.438   6.560 -0.0110  0.4125 -0.8392
  102OSM    H7S10231   4.714   2.515   6.552 -0.6884  1.1153 -0.9153
  102OSM    H7T10232   4.540   2.496   6.568 -1.0950 -1.2538 -1.1311
  102OSM    C8S10233   4.638   2.373   6.418  0.5046  0.5958  0.4271
  102OSM    H8S10234   4.559   2.296   6.425  0.6594  0.4147  0.1760
  102OSM    H8T10235   4.735   2.321   6.403 -0.6586 -1.2284 -1.0745
  102OSM    C9S10236   4.606   2.468   6.306  0.1176 -0.2061 -0.6488
  102OSM    H9S10237   4.684   2.547   6.298  0.1264 -0.2936 -1.4532
  102OSM    H9T10238   4.505   2.513   6.313  0.5132  0.7424 -0.8882
  102OSM   C10S10239   4.607   2.377   6.175 -0.0866 -0.0260  0.2827
  102OSM   H10S10240   4.543   2.289   6.197  1.8377 -1.8834 -1.1382
  102OSM   H10T10241   4.705   2.328   6.156 -0.8107 -1.3387 -0.1571
  102OSM   C11S10242   4.575   2.450   6.047 -0.0644  0.9939  0.3426
  102OSM   H11S10243   4.482   2.511   6.054 -1.3012 -0.6663 -0.8344
  102OSM   H11T10244   4.544   2.374   5.971  2.1140 -1.0278  1.3548
  102OSM   C12S10245   4.691   2.526   5.976 -0.0383  0.7036  0.8861
  102OSM   H12S10246   4.771   2.451   5.954  1.2800  3.0245 -3.5142
  102OSM   H12T10247   4.733   2.599   6.047 -1.3792  1.4006  0.9837
  102OSM   C13S10248   4.654   2.608   5.856 -0.1591  0.3204 -0.4949
  102OSM   H13S10249   4.748   2.651   5.814 -0.4025  1.7140  0.3287
  102OSM   H13T10250   4.584   2.693   5.873 -1.0331 -0.5468  0.4129
  102OSM   C14S10251   4.596   2.515   5.750 -0.1300  0.0352  0.1370
  102OSM   H14S10252   4.517   2.451   5.793 -0.2224 -1.3983 -1.9944
  102OSM   H14T10253   4.674   2.445   5.713 -0.0124  0.4214 -0.3704
  102OSM   C15S10254   4.559   2.599   5.627 -0.5751 -0.5522 -0.0524
  102OSM   H15S10255   4.650   2.661   5.611 -0.3519 -0.8842 -0.0765
  102OSM   H15T10256   4.486   2.681   5.647  1.5213  1.8032 -1.3885
  102OSM   C16S10257   4.530   2.519   5.503  0.8276 -0.6322  0.1014
  102OSM   H16S10258   4.479   2.584   5.428  0.5369 -1.6640 -0.6230
  102OSM   H16T10259   4.467   2.433   5.535 -1.8488  2.2466  3.2835
  102OSM   C17S10260   4.662   2.462   5.440  0.3110 -0.3248 -0.0178
  102OSM   H17S10261   4.699   2.380   5.505  2.0385  1.6236  1.5430
  102OSM   H17T10262   4.750   2.530   5.438  0.9552 -1.1258 -1.8572
  102OSM   C18S10263   4.640   2.404   5.297  0.2510  0.3088  0.3784
  102OSM   H18S10264   4.633   2.483   5.219 -0.5464  1.3809  1.4975
  102OSM   H18T10265   4.546   2.345   5.296  0.6334 -0.3696  1.8022
  102OSM   H18U10266   4.725   2.337   5.272 -0.9507 -0.1100 -3.1632
  102OSM    C1F10267   4.618   2.826   6.831 -0.3862 -0.2228  1.0891
  102OSM     OF10268   4.727   2.847   6.878 -0.2465 -0.2029  0.7307
  102OSM    C2F10269   4.557   2.906   6.725  0.0472  0.2893  0.5092
  102OSM    H2F10270   4.623   2.987   6.688 -0.3564  1.4143  2.1655
  102OSM    H2G10271   4.466   2.951   6.770 -0.3128 -0.1007  0.1833
  102OSM    C3F10272   4.522   2.823   6.602  0.3873  0.1435 -0.6995
  102OSM    H3F10273   4.439   2.754   6.630 -0.0173  1.5636  1.9261
  102OSM    H3G10274   4.609   2.772   6.555  1.2770 -2.5318  3.3471
  102OSM    C4F10275   4.448   2.901   6.488  0.4042  0.4325  0.1171
  102OSM    H4F10276   4.362   2.959   6.528  1.2828  1.0096  1.2284
  102OSM    H4G10277   4.419   2.817   6.423  3.4731 -1.7792  1.3556
  102OSM    C5F10278   4.543   2.994   6.423 -0.7087 -0.2190  0.3814
  102OSM    H5F10279   4.646   2.988   6.466 -0.2886 -2.5058 -0.8028
  102OSM    H5G10280   4.514   3.101   6.417  1.0062  0.2216 -0.9251
  102OSM    C6F10281   4.572   2.949   6.278  0.2817  0.5505 -0.2516
  102OSM    H6F10282   4.573   2.838   6.280  0.1986  0.5483 -0.3191
  102OSM    H6G10283   4.673   2.984   6.246  0.4313  1.5687  1.2351
  102OSM    C7F10284   4.463   2.994   6.186 -0.0027 -0.2100 -0.0723
  102OSM    H7F10285   4.452   3.102   6.206 -0.3763 -0.2886  0.1709
  102OSM    H7G10286   4.366   2.953   6.222 -0.2505 -1.9899 -2.4537
  102OSM    C8F10287   4.498   2.962   6.041 -0.2503 -0.0826  0.1028
  102OSM    H8F10288   4.399   2.970   5.992 -0.5679 -0.9106  0.5890
  102OSM    H8G10289   4.538   2.860   6.023  0.9309  0.6959 -2.1333
  102OSM    C9F10290   4.597   3.059   5.982  0.1142  0.5165  0.4195
  102OSM    H9F10291   4.674   3.084   6.057  0.3993  1.4220 -0.1612
  102OSM   C10F10292   4.601   3.110   5.855  0.4165 -0.4394  0.0528
  102OSM   H10F10293   4.687   3.174   5.830 -1.3383  1.7566 -0.7410
  102OSM   C11F10294   4.503   3.079   5.743  0.7025  0.2744 -0.1182
  102OSM   H11F10295   4.470   3.175   5.697 -0.0716  0.2417  0.3388
  102OSM   H11G10296   4.408   3.043   5.788  1.5787  0.5966  2.1307
  102OSM   C12F10297   4.563   3.004   5.625  0.5889  0.1966 -0.0649
  102OSM   H12F10298   4.604   2.904   5.648 -1.7910 -0.9868 -0.6193
  102OSM   H12G10299   4.652   3.058   5.586 -0.5007  2.3898  0.3038
  102OSM   C13F10300   4.466   2.978   5.512 -0.1543 -0.9599  0.7829
  102OSM   H13F10301   4.417   3.073   5.481  0.9100 -1.4365 -2.8224
  102OSM   H13G10302   4.376   2.923   5.547 -2.7166  1.7163 -1.0906
  102OSM   C14F10303   4.525   2.915   5.396  1.1004 -0.0581 -0.1564
  102OSM   H14F10304   4.569   2.819   5.431  0.3479 -1.5513 -3.0642
  102OSM   H14G10305   4.608   2.970   5.348 -1.6176  3.3465 -1.3827
  102OSM   C15F10306   4.416   2.875   5.293 -0.5659 -0.9768  1.0360
  102OSM   H15F10307   4.355   2.967   5.280 -1.1126 -1.4012  0.5067
  102OSM   H15G10308   4.351   2.797   5.340 -2.0428 -0.1079  0.5258
  102OSM   C16F10309   4.481   2.824   5.163 -0.0683 -0.3172  0.5973
  102OSM   H16F10310   4.399   2.787   5.098 -1.4673  0.9175  1.5781
  102OSM   H16G10311   4.551   2.739   5.178  1.0722  0.7261  1.4409
  102OSM   C17F10312   4.571   2.920   5.085 -0.3233 -0.0690 -0.0499
  102OSM   H17F10313   4.648   2.861   5.031  0.5134  2.4147 -1.7641
  102OSM   H17G10314   4.628   2.990   5.150  2.5278 -2.2032 -0.0755
  102OSM   C18F10315   4.495   3.002   4.978  0.3419 -0.1941  0.1953
  102OSM   H18F10316   4.399   3.033   5.025  1.2758 -0.5085  2.4250
  102OSM   H18G10317   4.452   2.932   4.902 -2.3815  0.6055  0.9205
  102OSM   H18H10318   4.552   3.086   4.934  1.5158 -0.2170  1.5937
  103OSM      N10319   5.362   1.938   7.317 -0.1089  0.2968  1.0343
  103OSM    C1510320   5.465   1.833   7.311  0.3738  0.2283  0.0459
  103OSM   H15A10321   5.485   1.810   7.207  0.4807  2.2074 -0.4044
  103OSM   H15B10322   5.431   1.740   7.353  0.8726  0.3042  0.6327
  103OSM   H15C10323   5.555   1.864   7.362 -0.2111  0.3491  1.0150
  103OSM    C1410324   5.236   1.890   7.254  0.5082 -0.1646  0.2105
  103OSM   H14A10325   5.163   1.968   7.237  0.9910  0.2826  0.1371
  103OSM   H14B10326   5.188   1.822   7.322 -2.1008  2.5486  1.2977
  103OSM   H14C10327   5.240   1.853   7.152 -1.6405  1.0766 -0.4001
  103OSM    C1310328   5.329   1.953   7.456 -0.3657  0.3677  0.1853
  103OSM   H13A10329   5.302   2.054   7.486  1.1198  0.7526  0.3061
  103OSM   H13B10330   5.406   1.922   7.525 -0.9516  0.7309  1.0237
  103OSM   H13C10331   5.247   1.886   7.477  1.1007 -1.7694 -0.6523
  103OSM    C1210332   5.410   2.070   7.256 -0.3572  0.2041 -0.1563
  103OSM   H12A10333   5.327   2.140   7.258  0.0247  0.6408  1.2070
  103OSM   H12B10334   5.436   2.052   7.153  1.3994 -0.0649  0.3044
  103OSM    C1110335   5.539   2.141   7.316  0.5228  0.1349 -0.0535
  103OSM   H11A10336   5.526   2.150   7.426  3.2552 -3.4795  0.7585
  103OSM   H11B10337   5.552   2.248   7.290  1.8209  0.4514  1.6338
  103OSM      P10338   5.733   2.059   7.157 -0.0828 -0.2495 -0.2311
  103OSM    O1310339   5.825   2.176   7.164  0.0840  0.0173  0.1108
  103OSM    O1410340   5.789   1.919   7.138  0.2028 -0.2769  0.3924
  103OSM    O1110341   5.626   2.102   7.054  0.2322 -0.5240  0.2876
  103OSM    O1210342   5.655   2.064   7.292 -0.0676  0.2187  0.3900
  103OSM    C1S10343   5.651   2.058   6.918 -0.0740 -0.8813 -0.2443
  103OSM    H1S10344   5.623   1.951   6.912  1.9329 -1.6230  1.9872
  103OSM    H1T10345   5.756   2.065   6.884  0.5333 -0.4549  1.6542
  103OSM     NF10346   5.591   2.086   6.683 -0.0558 -0.1763 -0.1846
  103OSM    HNF10347   5.647   2.136   6.618  0.8142 -1.9053 -0.8384
  103OSM    C2S10348   5.570   2.140   6.817 -0.2274 -0.5597  0.2417
  103OSM    H2S10349   5.469   2.124   6.861 -0.3953  1.0899  0.5124
  103OSM    C3S10350   5.593   2.291   6.823  0.3686  0.3003 -0.5181
  103OSM    H3S10351   5.701   2.306   6.801  0.8434 -1.6986  0.1651
  103OSM     O310352   5.578   2.346   6.950  0.2682 -0.2536 -1.1497
  103OSM    HO310353   5.570   2.272   7.011 -1.1037  1.0163  0.3322
  103OSM    C4S10354   5.515   2.373   6.724  0.9861 -1.0182 -0.7934
  103OSM    H4S10355   5.408   2.358   6.739  1.0671 -0.7144  0.1248
  103OSM    C5S10356   5.568   2.466   6.642 -0.5050 -0.4993  0.9975
  103OSM    H5S10357   5.678   2.472   6.639 -0.3498 -3.0851 -0.9492
  103OSM    C6S10358   5.483   2.557   6.550 -0.3335 -0.5395 -0.5061
  103OSM    H6S10359   5.528   2.656   6.572 -0.1193 -0.4772 -1.1942
  103OSM    H6T10360   5.374   2.564   6.569 -0.4831  2.4131 -1.8665
  103OSM    C7S10361   5.516   2.508   6.408 -0.6065 -0.3147 -0.1978
  103OSM    H7S10362   5.484   2.402   6.401 -2.6260  0.1433  1.1280
  103OSM    H7T10363   5.626   2.513   6.397 -0.5688  0.8181  0.5112
  103OSM    C8S10364   5.444   2.597   6.306 -0.7927  0.1244 -0.2989
  103OSM    H8S10365   5.478   2.703   6.305  0.1158 -0.1407  0.3644
  103OSM    H8T10366   5.337   2.605   6.335 -0.6917 -1.6669  0.7096
  103OSM    C9S10367   5.476   2.529   6.174 -0.2079  0.3263  0.4417
  103OSM    H9S10368   5.433   2.426   6.175  0.4080  0.0664  0.4982
  103OSM    H9T10369   5.586   2.520   6.166 -0.3125  0.1887 -1.6281
  103OSM   C10S10370   5.422   2.603   6.049  0.3974 -0.2888  0.4173
  103OSM   H10S10371   5.462   2.707   6.049  3.6931 -1.4293  0.6655
  103OSM   H10T10372   5.311   2.607   6.051  0.3808  4.2995  1.9217
  103OSM   C11S10373   5.469   2.532   5.926 -0.1129  0.6884  0.8141
  103OSM   H11S10374   5.431   2.427   5.920 -1.6448  1.2884 -1.5127
  103OSM   H11T10375   5.577   2.513   5.939  0.2058  3.8001  4.6234
  103OSM   C12S10376   5.435   2.604   5.791  0.6027  0.2646  0.1901
  103OSM   H12S10377   5.482   2.703   5.806  1.1237 -0.0986  1.0081
  103OSM   H12T10378   5.325   2.622   5.792  0.3629 -0.9969 -0.4471
  103OSM   C13S10379   5.493   2.538   5.670  0.0065 -0.3683 -0.0954
  103OSM   H13S10380   5.457   2.434   5.653 -1.5910  0.0308  0.6501
  103OSM   H13T10381   5.603   2.532   5.687 -0.1150 -0.1959  0.7868
  103OSM   C14S10382   5.445   2.601   5.539  0.0433  0.2416 -0.1539
  103OSM   H14S10383   5.499   2.690   5.500  1.7797 -1.4822 -1.9021
  103OSM   H14T10384   5.340   2.631   5.559 -1.0617 -3.3347  0.1300
  103OSM   C15S10385   5.439   2.497   5.429 -0.5289  0.0090  0.9243
  103OSM   H15S10386   5.367   2.414   5.451  0.9151 -1.3445  0.6960
  103OSM   H15T10387   5.538   2.448   5.426 -0.8475 -0.6135 -1.1820
  103OSM   C16S10388   5.424   2.567   5.293 -0.0960 -0.4451 -0.6983
  103OSM   H16S10389   5.516   2.629   5.286 -1.8858  2.3373 -1.4909
  103OSM   H16T10390   5.348   2.645   5.316 -2.6084 -3.1961  0.9809
  103OSM   C17S10391   5.400   2.470   5.178  0.6783  0.4268  0.8958
  103OSM   H17S10392   5.375   2.526   5.085  2.7824 -1.0232 -0.6406
  103OSM   H17T10393   5.302   2.421   5.194  0.2699  0.9864  0.1543
  103OSM   C18S10394   5.502   2.363   5.149 -0.2227  0.1407 -0.9145
  103OSM   H18S10395   5.476   2.305   5.058  2.0435 -0.0427 -1.5043
  103OSM   H18T10396   5.500   2.292   5.234  2.3504  0.5344 -0.4434
  103OSM   H18U10397   5.604   2.405   5.141  0.2921 -1.1680 -1.5675
  103OSM    C1F10398   5.541   1.969   6.647 -0.2009  0.4131  0.2341
  103OSM     OF10399   5.471   1.897   6.722 -0.6502 -0.3521  0.0796
  103OSM    C2F10400   5.556   1.916   6.503 -0.0818 -0.5561 -0.5658
  103OSM    H2F10401   5.479   1.836   6.505  1.8431 -2.5345  0.5637
  103OSM    H2G10402   5.650   1.862   6.477 -0.4615 -1.3762 -0.2746
  103OSM    C3F10403   5.533   2.034   6.406 -0.2974 -0.7020 -0.1990
  103OSM    H3F10404   5.614   2.105   6.434 -1.4280  0.5602 -0.0124
  103OSM    H3G10405   5.436   2.087   6.417  0.1324  0.5740 -2.0895
  103OSM    C4F10406   5.538   1.976   6.266 -0.3075  0.3624  0.8316
  103OSM    H4F10407   5.464   1.893   6.260 -1.5919  1.5451 -0.2452
  103OSM    H4G10408   5.635   1.922   6.259 -0.3747  0.1416  1.4847
  103OSM    C5F10409   5.512   2.072   6.146  0.2708  0.4277  0.0612
  103OSM    H5F10410   5.583   2.157   6.149 -0.2022  0.8936 -1.4662
  103OSM    H5G10411   5.407   2.110   6.151  0.1327  0.2717 -1.4368
  103OSM    C6F10412   5.555   2.009   6.006  0.4556 -0.1165 -0.7676
  103OSM    H6F10413   5.512   1.907   5.999  0.5804 -0.4293  1.9011
  103OSM    H6G10414   5.666   2.012   6.009  0.4265  1.9240 -0.4295
  103OSM    C7F10415   5.488   2.084   5.886  0.0493  0.2316 -0.3827
  103OSM    H7F10416   5.517   2.190   5.903 -1.9017  0.5374  1.4532
  103OSM    H7G10417   5.378   2.078   5.901 -0.2043 -1.0257 -2.4058
  103OSM    C8F10418   5.522   2.027   5.747  0.1291  0.4064 -0.2782
  103OSM    H8F10419   5.476   2.099   5.677  2.6371  2.1663 -0.2346
  103OSM    H8G10420   5.483   1.924   5.733 -1.5986  1.0004 -0.0841
  103OSM    C9F10421   5.673   2.039   5.723  0.0818 -0.3401  0.1887
  103OSM    H9F10422   5.738   1.988   5.795  2.6719  0.8201 -1.1651
  103OSM   C10F10423   5.745   2.107   5.636  0.3010 -0.3198  0.1233
  103OSM   H10F10424   5.853   2.088   5.639  0.0930 -1.6889 -0.1271
  103OSM   C11F10425   5.685   2.183   5.524 -0.1518  0.6686 -0.7060
  103OSM   H11F10426   5.602   2.247   5.561 -0.2858 -1.2621  2.7493
  103OSM   H11G10427   5.635   2.106   5.462 -0.5562  0.3892 -0.0411
  103OSM   C12F10428   5.778   2.265   5.431 -0.4196  0.1987 -0.1570
  103OSM   H12F10429   5.793   2.360   5.487 -0.1572 -1.1888  2.2469
  103OSM   H12G10430   5.734   2.310   5.339 -1.2243 -2.0554 -0.9259
  103OSM   C13F10431   5.909   2.193   5.399  0.1590 -0.4145 -0.6685
  103OSM   H13F10432   5.878   2.089   5.375  1.0711 -1.0239  0.6656
  103OSM   H13G10433   5.970   2.188   5.492 -2.0193 -2.3069  0.7634
  103OSM   C14F10434   5.986   2.261   5.282  0.0189  0.2651 -0.1440
  103OSM   H14F10435   6.006   2.365   5.314  2.4396 -0.9624  2.9626
  103OSM   H14G10436   5.927   2.250   5.189 -0.1766  1.6737 -0.2071
  103OSM   C15F10437   6.129   2.201   5.258 -0.0667 -0.7267  0.1598
  103OSM   H15F10438   6.200   2.212   5.343  0.1482 -1.4730  0.0882
  103OSM   H15G10439   6.176   2.253   5.171 -1.6493 -0.1588 -0.3905
  103OSM   C16F10440   6.126   2.047   5.221  0.0575  0.1826 -0.4439
  103OSM   H16F10441   6.047   2.038   5.143  0.2592  0.1544 -0.6433
  103OSM   H16G10442   6.081   2.002   5.312 -0.2181 -2.2930 -1.7137
  103OSM   C17F10443   6.251   1.977   5.184 -0.2581 -0.6706 -0.2041
  103OSM   H17F10444   6.330   2.000   5.259 -0.7547 -1.5770  0.6161
  103OSM   H17G10445   6.288   2.027   5.092 -1.2429  2.0740  0.7793
  103OSM   C18F10446   6.238   1.830   5.148 -0.3135  0.2156 -0.0365
  103OSM   H18F10447   6.176   1.819   5.056 -1.3078  3.8400  0.0302
  103OSM   H18G10448   6.199   1.764   5.229 -0.6341 -0.8361 -1.0161
  103OSM   H18H10449   6.334   1.785   5.114 -1.0294  1.0468 -3.6027
  104OSM      N10450   5.487   4.082   7.132  0.0200  0.0213 -0.5167
  104OSM    C1510451   5.499   4.207   7.214 -0.2249  0.2959 -0.0273
  104OSM   H15A10452   5.591   4.231   7.267 -0.1218  1.1374 -0.5691
  104OSM   H15B10453   5.424   4.199   7.291  1.4465  0.4650  1.7113
  104OSM   H15C10454   5.477   4.291   7.151  0.8303  0.7299  0.1546
  104OSM    C1410455   5.486   3.961   7.222  0.4611 -0.4548 -0.2097
  104OSM   H14A10456   5.578   3.947   7.276 -0.0919 -0.7517  0.6842
  104OSM   H14B10457   5.483   3.865   7.173 -0.0705 -1.6547  2.0461
  104OSM   H14C10458   5.406   3.978   7.293 -0.2840  2.0635 -1.5180
  104OSM    C1310459   5.344   4.086   7.081 -0.2115  0.0412 -0.1284
  104OSM   H13A10460   5.336   4.170   7.014 -0.9527 -0.4850 -0.7103
  104OSM   H13B10461   5.271   4.080   7.161 -0.0063  1.6753  0.2209
  104OSM   H13C10462   5.331   3.997   7.022 -1.3387 -0.1456  0.3731
  104OSM    C1210463   5.599   4.080   7.024 -0.3659  0.3629  0.2548
  104OSM   H12A10464   5.599   4.169   6.963  1.1346 -0.3380 -0.8257
  104OSM   H12B10465   5.572   4.002   6.954  0.2959  0.4718 -0.1229
  104OSM    C1110466   5.747   4.073   7.078 -0.2948 -0.5101  0.1016
  104OSM   H11A10467   5.774   4.164   7.137  0.5004 -0.1911 -0.7202
  104OSM   H11B10468   5.809   4.075   6.985 -1.7488  0.9688 -0.8842
  104OSM      P10469   5.874   3.847   7.126  0.1506  0.5950 -0.4556
  104OSM    O1310470   6.010   3.896   7.147 -0.0013  0.1832 -0.3341
  104OSM    O1410471   5.834   3.721   7.201 -0.2445  0.8818 -0.4478
  104OSM    O1110472   5.856   3.809   6.982 -0.5777  0.4022  0.5985
  104OSM    O1210473   5.772   3.962   7.161  0.5296  0.6949 -0.4449
  104OSM    C1S10474   5.733   3.756   6.924 -0.4566 -1.0416 -0.7416
  104OSM    H1S10475   5.639   3.799   6.962 -0.6419 -0.3379 -1.9351
  104OSM    H1T10476   5.725   3.648   6.949  0.5162 -0.4612  2.6558
  104OSM     NF10477   5.597   3.722   6.724 -0.0702  0.2634 -0.1368
  104OSM    HNF10478   5.576   3.626   6.705 -0.5304  0.4958 -0.8351
  104OSM    C2S10479   5.729   3.762   6.774  0.9916  0.5265 -0.3141
  104OSM    H2S10480   5.751   3.869   6.752  0.6954  0.8175  0.7636
  104OSM    C3S10481   5.837   3.678   6.697  0.5713 -0.2129 -0.0663
  104OSM    H3S10482   5.825   3.571   6.725 -0.4172 -0.6290 -1.9489
  104OSM     O310483   5.971   3.697   6.740  0.7075  0.1299 -0.0714
  104OSM    HO310484   5.968   3.751   6.819 -1.6004  1.5744 -1.0485
  104OSM    C4S10485   5.829   3.699   6.544  0.5328 -0.2314  0.6326
  104OSM    H4S10486   5.737   3.654   6.504 -0.5723  2.4356 -0.0132
  104OSM    C5S10487   5.916   3.772   6.463 -0.3240  0.8441 -0.2684
  104OSM    H5S10488   6.013   3.811   6.497 -0.3655  0.1885  0.6349
  104OSM    C6S10489   5.900   3.796   6.313  0.5074  0.3069  0.1504
  104OSM    H6S10490   5.969   3.734   6.252 -1.5529 -1.4498 -0.5334
  104OSM    H6T10491   5.913   3.903   6.286  0.3998  0.2702 -0.0468
  104OSM    C7S10492   5.756   3.765   6.264  0.1139 -0.4393 -0.5470
  104OSM    H7S10493   5.686   3.822   6.329  0.1747 -1.3541  0.3440
  104OSM    H7T10494   5.725   3.659   6.280 -3.2518  0.2592 -1.6112
  104OSM    C8S10495   5.724   3.804   6.116 -0.7643 -0.6977  0.6527
  104OSM    H8S10496   5.756   3.910   6.106 -0.8256 -0.0927  5.0826
  104OSM    H8T10497   5.614   3.804   6.103 -0.8343  1.3533  0.8688
  104OSM    C9S10498   5.787   3.717   6.014 -0.4433  0.1538  0.0729
  104OSM    H9S10499   5.758   3.611   6.035  0.1334  0.1105  0.7026
  104OSM    H9T10500   5.898   3.724   6.019 -0.2159 -1.2103 -1.9908
  104OSM   C10S10501   5.729   3.748   5.875 -0.5533 -0.0876 -0.1678
  104OSM   H10S10502   5.755   3.855   5.865 -2.0158  1.0212  4.9315
  104OSM   H10T10503   5.619   3.764   5.872 -0.2570  2.0576 -2.4844
  104OSM   C11S10504   5.785   3.662   5.760 -0.1934  0.4133 -0.0095
  104OSM   H11S10505   5.759   3.554   5.760  1.8138 -0.1345  1.4653
  104OSM   H11T10506   5.896   3.657   5.766 -0.2756 -2.2573  0.1679
  104OSM   C12S10507   5.740   3.720   5.625 -0.3252  0.3400  1.1374
  104OSM   H12S10508   5.799   3.813   5.611 -1.4349  0.9846  0.6144
  104OSM   H12T10509   5.633   3.748   5.624 -0.2505  0.9106  3.1197
  104OSM   C13S10510   5.780   3.618   5.515  0.2230 -0.5841  0.3030
  104OSM   H13S10511   5.703   3.539   5.509 -3.2906  2.3194  2.8100
  104OSM   H13T10512   5.879   3.573   5.539  0.4971 -0.3401 -0.3482
  104OSM   C14S10513   5.806   3.683   5.374  0.2267  0.2616  0.4067
  104OSM   H14S10514   5.812   3.599   5.302 -0.9189  1.5521 -1.2885
  104OSM   H14T10515   5.908   3.725   5.360 -0.5283  1.4867 -1.9812
  104OSM   C15S10516   5.702   3.785   5.323 -0.1094 -0.2957 -0.2587
  104OSM   H15S10517   5.738   3.881   5.367 -0.9584  0.7357 -1.7263
  104OSM   H15T10518   5.598   3.766   5.357 -0.5130  1.3195 -0.5230
  104OSM   C16S10519   5.700   3.781   5.168 -0.6963  0.6941 -0.2286
  104OSM   H16S10520   5.628   3.700   5.144  0.3010  0.1961 -1.6410
  104OSM   H16T10521   5.793   3.744   5.120 -1.1884  1.2049 -1.6056
  104OSM   C17S10522   5.664   3.921   5.120  0.3083 -0.3808  0.8305
  104OSM   H17S10523   5.742   3.993   5.153  1.7086 -0.6475 -1.6905
  104OSM   H17T10524   5.569   3.963   5.160 -0.0639  0.2399 -0.6193
  104OSM   C18S10525   5.660   3.922   4.967 -0.1182  0.6706  0.1529
  104OSM   H18S10526   5.631   4.025   4.938 -1.3660 -0.2333 -2.0348
  104OSM   H18T10527   5.582   3.847   4.942  1.4919 -1.3067  0.8172
  104OSM   H18U10528   5.757   3.897   4.919 -0.1049 -0.3552  0.6832
  104OSM    C1F10529   5.499   3.808   6.751  0.6713 -0.0866 -0.2557
  104OSM     OF10530   5.520   3.919   6.802  0.4571  0.3836  0.2254
  104OSM    C2F10531   5.359   3.757   6.700  0.2139  0.3709  0.0765
  104OSM    H2F10532   5.297   3.728   6.787 -0.1370  0.2136 -0.2240
  104OSM    H2G10533   5.386   3.667   6.641  3.3167  1.3149 -0.1123
  104OSM    C3F10534   5.288   3.863   6.618 -0.0804  0.4885 -0.4471
  104OSM    H3F10535   5.348   3.875   6.525  1.1600 -0.6696  0.1457
  104OSM    H3G10536   5.290   3.960   6.671  1.3106 -0.2177  0.9132
  104OSM    C4F10537   5.140   3.832   6.576 -0.1005  0.0541 -0.4723
  104OSM    H4F10538   5.082   3.926   6.580 -1.8120 -0.9856  2.0222
  104OSM    H4G10539   5.094   3.769   6.656 -0.0718  0.1012 -0.4187
  104OSM    C5F10540   5.114   3.750   6.458 -0.1528 -0.2604  0.3136
  104OSM    H5F10541   5.132   3.808   6.365 -1.3292  0.9642  0.8249
  104OSM    H5G10542   5.013   3.704   6.451 -0.5392  0.8053 -2.3066
  104OSM    C6F10543   5.211   3.628   6.442  0.0362  0.3807  0.3745
  104OSM    H6F10544   5.198   3.555   6.525  0.2510 -0.5456 -0.3885
  104OSM    H6G10545   5.312   3.672   6.434 -0.3168  1.2832  0.7416
  104OSM    C7F10546   5.184   3.556   6.316  0.0929 -0.6155 -0.0171
  104OSM    H7F10547   5.198   3.626   6.230 -0.7228 -0.5647 -0.1231
  104OSM    H7G10548   5.077   3.533   6.296 -0.3057 -1.3552  2.6496
  104OSM    C8F10549   5.293   3.444   6.288 -0.1796 -0.3577 -0.1812
  104OSM    H8F10550   5.247   3.393   6.201 -2.2200  0.2692  0.4900
  104OSM    H8G10551   5.283   3.376   6.376  0.7439 -0.3843 -0.0831
  104OSM    C9F10552   5.439   3.477   6.268 -0.3649 -0.7389 -0.2662
  104OSM    H9F10553   5.505   3.465   6.355  0.0526 -0.1058 -0.4866
  104OSM   C10F10554   5.495   3.520   6.150 -0.3311  0.5591 -0.2208
  104OSM   H10F10555   5.597   3.560   6.153  0.4937 -1.4201 -0.4700
  104OSM   C11F10556   5.426   3.542   6.023 -1.0193 -0.3407  0.2747
  104OSM   H11F10557   5.446   3.645   5.987  3.9559 -2.0562 -2.8711
  104OSM   H11G10558   5.320   3.512   6.037 -0.4893 -2.9444 -0.5956
  104OSM   C12F10559   5.481   3.451   5.916  0.5317 -0.2392 -0.1937
  104OSM   H12F10560   5.490   3.348   5.959  0.1601 -1.0012 -1.8647
  104OSM   H12G10561   5.583   3.484   5.888  0.4026 -0.3931 -0.8582
  104OSM   C13F10562   5.391   3.443   5.792 -0.0942 -0.1791  0.4374
  104OSM   H13F10563   5.291   3.393   5.797 -0.7639  1.0663  0.0046
  104OSM   H13G10564   5.447   3.387   5.715  0.5696 -0.1298  0.8791
  104OSM   C14F10565   5.369   3.581   5.730 -0.2781 -0.3038  0.5325
  104OSM   H14F10566   5.465   3.637   5.726  0.2009 -1.1553 -0.1087
  104OSM   H14G10567   5.293   3.638   5.788  0.6368  1.4251  0.1237
  104OSM   C15F10568   5.308   3.573   5.584 -0.1013  0.4863 -0.3284
  104OSM   H15F10569   5.270   3.675   5.563 -0.2438  1.3379  3.3775
  104OSM   H15G10570   5.227   3.497   5.591 -1.2202  1.7112  0.4978
  104OSM   C16F10571   5.413   3.531   5.475 -0.2218 -0.0312 -0.0304
  104OSM   H16F10572   5.409   3.420   5.470  0.7933 -0.1196  0.7083
  104OSM   H16G10573   5.516   3.564   5.504 -0.2895  0.3155 -0.1798
  104OSM   C17F10574   5.387   3.588   5.335 -0.5475 -0.0902 -0.2187
  104OSM   H17F10575   5.489   3.605   5.297  0.0309 -1.3142  0.7008
  104OSM   H17G10576   5.354   3.694   5.341  1.7213  0.5624  3.1447
  104OSM   C18F10577   5.310   3.518   5.229  0.5154  0.4609  0.4350
  104OSM   H18F10578   5.319   3.562   5.128 -1.0109  2.2945  1.0271
  104OSM   H18G10579   5.200   3.508   5.238  0.2899  1.4093 -1.0064
  104OSM   H18H10580   5.345   3.412   5.226  4.1279  1.5237  0.7266
  105OSM      N10581   6.168   2.042   7.134 -0.2376  0.2983  0.1232
  105OSM    C1510582   6.126   2.142   7.029  0.0046 -0.4200 -0.4128
  105OSM   H15A10583   6.131   2.096   6.931 -3.2556  0.1742 -0.9401
  105OSM   H15B10584   6.186   2.232   7.032 -0.8427  0.1279  0.5376
  105OSM   H15C10585   6.022   2.167   7.043  0.5363  2.3392 -0.7825
  105OSM    C1410586   6.126   2.079   7.267  0.3941 -0.4376  0.2797
  105OSM   H14A10587   6.021   2.102   7.268  0.8726  2.1100 -0.9761
  105OSM   H14B10588   6.177   2.164   7.310  0.2054 -1.1870  2.0756
  105OSM   H14C10589   6.145   1.994   7.331  0.9928 -1.5142 -1.2652
  105OSM    C1310590   6.111   1.910   7.101 -0.1102 -0.1328 -0.4334
  105OSM   H13A10591   6.005   1.929   7.091 -0.1473 -0.9125 -1.7722
  105OSM   H13B10592   6.131   1.832   7.173  0.6205 -0.1346 -0.6388
  105OSM   H13C10593   6.153   1.875   7.008  2.9419  0.3814  0.6276
  105OSM    C1210594   6.323   2.039   7.118 -0.2799 -0.2232 -0.6187
  105OSM   H12A10595   6.367   2.016   7.022  0.8739 -0.3058 -0.0988
  105OSM   H12B10596   6.360   1.957   7.177  1.3331  0.6064 -0.4043
  105OSM    C1110597   6.411   2.148   7.185  0.0570 -0.5153  0.3117
  105OSM   H11A10598   6.513   2.114   7.160 -0.8730 -0.4892 -4.3411
  105OSM   H11B10599   6.395   2.145   7.295 -0.6136  1.0049  0.2809
  105OSM      P10600   6.351   2.394   7.218 -0.4110 -0.3177  0.1613
  105OSM    O1310601   6.203   2.390   7.235  0.0003 -0.5003 -0.3730
  105OSM    O1410602   6.433   2.399   7.344  0.1444 -0.2176  0.1173
  105OSM    O1110603   6.392   2.518   7.131  0.0606 -0.0056  0.0330
  105OSM    O1210604   6.397   2.273   7.127  0.1416  0.4297 -0.2989
  105OSM    C1S10605   6.525   2.521   7.069 -0.3736 -0.0606 -0.1015
  105OSM    H1S10606   6.583   2.427   7.072  1.3381  0.9436 -0.2237
  105OSM    H1T10607   6.590   2.602   7.109 -2.0511  0.2244  2.2280
  105OSM     NF10608   6.640   2.567   6.862  0.0728 -0.3736  0.6964
  105OSM    HNF10609   6.664   2.660   6.838 -0.8711 -0.3660 -0.2955
  105OSM    C2S10610   6.510   2.561   6.918  0.2203 -0.0441 -0.7140
  105OSM    H2S10611   6.452   2.484   6.864 -0.9108  0.4385 -0.2392
  105OSM    C3S10612   6.418   2.684   6.901  0.5916 -0.7460  0.1027
  105OSM    H3S10613   6.470   2.763   6.959  1.7246 -0.6102 -1.0467
  105OSM     O310614   6.282   2.669   6.947 -0.2302 -0.0884 -0.1499
  105OSM    HO310615   6.300   2.599   7.010  1.9198  0.7271  0.2340
  105OSM    C4S10616   6.410   2.736   6.752 -0.9238  0.3758 -0.0091
  105OSM    H4S10617   6.462   2.833   6.751  0.0259  0.0697  3.6310
  105OSM    C5S10618   6.338   2.696   6.642  0.2308 -0.2330 -0.1239
  105OSM    H5S10619   6.265   2.614   6.657  0.0170  0.4273  3.0609
  105OSM    C6S10620   6.339   2.762   6.508  0.6037  0.0065  0.7602
  105OSM    H6S10621   6.348   2.694   6.420 -3.0346  0.3024 -0.0156
  105OSM    H6T10622   6.414   2.844   6.506  0.2164  0.3621 -0.3214
  105OSM    C7S10623   6.208   2.843   6.480 -0.9373 -0.2581  0.9096
  105OSM    H7S10624   6.192   2.886   6.581  0.9572 -3.6743  2.8426
  105OSM    H7T10625   6.124   2.773   6.462 -2.1920  1.3290  0.3041
  105OSM    C8S10626   6.221   2.955   6.372  0.5627 -0.6564 -0.1883
  105OSM    H8S10627   6.303   3.020   6.409  2.9609 -3.3675 -0.3048
  105OSM    H8T10628   6.133   3.021   6.383  1.7362  0.6750  2.0674
  105OSM    C9S10629   6.230   2.896   6.227 -0.2557  0.2411 -1.3983
  105OSM    H9S10630   6.150   2.819   6.220 -1.7006  1.4750  0.4176
  105OSM    H9T10631   6.333   2.857   6.221 -0.6904 -1.2213 -0.1009
  105OSM   C10S10632   6.206   2.995   6.114  0.0014  0.7875 -0.0512
  105OSM   H10S10633   6.266   3.088   6.125  0.4140  0.2586  3.3168
  105OSM   H10T10634   6.099   3.025   6.112 -0.4667 -0.5765  1.7670
  105OSM   C11S10635   6.254   2.919   5.986  0.3308 -0.2745 -0.4231
  105OSM   H11S10636   6.214   2.815   5.987 -1.1017  0.2163 -1.8939
  105OSM   H11T10637   6.363   2.896   5.991  0.2530 -0.5808 -0.1367
  105OSM   C12S10638   6.210   3.003   5.861 -0.0462 -0.1898 -0.7569
  105OSM   H12S10639   6.266   3.099   5.862  0.6654 -0.5906 -1.0966
  105OSM   H12T10640   6.104   3.035   5.867 -0.0709 -0.4974  0.9613
  105OSM   C13S10641   6.247   2.926   5.736  0.0076 -0.7337 -0.8240
  105OSM   H13S10642   6.190   2.831   5.732 -0.8012 -0.2409 -1.1439
  105OSM   H13T10643   6.353   2.892   5.738  0.6811  1.2312  0.9814
  105OSM   C14S10644   6.218   2.991   5.598  0.1601 -0.8057 -0.2299
  105OSM   H14S10645   6.251   3.096   5.581  1.5091 -1.3565 -1.1489
  105OSM   H14T10646   6.106   2.992   5.600  0.1140  0.1224 -1.9179
  105OSM   C15S10647   6.268   2.899   5.488  0.0278  0.0242 -0.7977
  105OSM   H15S10648   6.200   2.813   5.473  0.3071 -0.2123 -0.7125
  105OSM   H15T10649   6.370   2.859   5.503 -0.6646 -1.6768 -0.3578
  105OSM   C16S10650   6.263   2.978   5.358  0.8021 -0.1609 -0.0956
  105OSM   H16S10651   6.318   3.075   5.364  2.1044 -0.6262 -3.0760
  105OSM   H16T10652   6.155   3.004   5.345  0.7750  1.6437  2.7883
  105OSM   C17S10653   6.322   2.904   5.243 -0.7285 -0.7022  0.2841
  105OSM   H17S10654   6.271   2.809   5.217 -1.4439  0.4584 -3.0607
  105OSM   H17T10655   6.426   2.881   5.276  0.3303  1.9997 -0.8572
  105OSM   C18S10656   6.342   2.991   5.120  0.6188  0.2787 -0.0582
  105OSM   H18S10657   6.390   3.086   5.153  0.3661 -0.3950  2.4368
  105OSM   H18T10658   6.236   3.008   5.092  0.4269 -0.9054 -0.0985
  105OSM   H18U10659   6.399   2.934   5.045  2.2628  0.4017  1.0455
  105OSM    C1F10660   6.717   2.465   6.834  0.0885 -0.1650  0.0368
  105OSM     OF10661   6.684   2.351   6.860 -0.3267 -0.1637  0.1859
  105OSM    C2F10662   6.854   2.499   6.792  0.4598 -0.1331 -0.3181
  105OSM    H2F10663   6.937   2.434   6.828  0.4208  1.2505  2.5208
  105OSM    H2G10664   6.891   2.598   6.826 -0.8088  0.3075 -0.1624
  105OSM    C3F10665   6.867   2.522   6.640  0.2251  0.1652  0.5608
  105OSM    H3F10666   6.794   2.603   6.617  0.0721 -0.2193 -0.3383
  105OSM    H3G10667   6.844   2.427   6.587 -1.0050  0.3909  0.6453
  105OSM    C4F10668   7.006   2.564   6.604 -0.8573 -0.2127  0.4340
  105OSM    H4F10669   7.090   2.493   6.623  0.8085  0.5982 -3.1347
  105OSM    H4G10670   7.030   2.653   6.666  1.6911 -0.1157 -0.5432
  105OSM    C5F10671   7.014   2.611   6.457  0.5672  0.4099 -0.8413
  105OSM    H5F10672   7.002   2.525   6.387 -0.5086 -0.2856  0.1764
  105OSM    H5G10673   7.118   2.650   6.458 -0.4776  3.6105 -2.5074
  105OSM    C6F10674   6.916   2.723   6.424 -0.1679  0.5273  0.3431
  105OSM    H6F10675   6.939   2.799   6.501 -1.1496 -0.4122  1.6119
  105OSM    H6G10676   6.811   2.688   6.434 -0.5066  1.3843 -0.1356
  105OSM    C7F10677   6.945   2.776   6.284  0.4813 -0.2646  0.3403
  105OSM    H7F10678   6.924   2.692   6.214  2.0554 -1.3337  1.0919
  105OSM    H7G10679   7.054   2.800   6.282  1.0800 -2.3550  2.6998
  105OSM    C8F10680   6.872   2.900   6.224 -0.3754  0.0960  0.0205
  105OSM    H8F10681   6.885   2.905   6.114 -0.0059 -1.5799 -0.0352
  105OSM    H8G10682   6.906   2.989   6.281  0.8763  0.1326 -0.7496
  105OSM    C9F10683   6.721   2.901   6.245 -0.5048 -0.3775 -0.1109
  105OSM    H9F10684   6.680   2.803   6.273 -0.8208  0.6538  3.5747
  105OSM   C10F10685   6.632   3.001   6.226  0.6040 -0.3504 -0.0298
  105OSM   H10F10686   6.528   2.997   6.261  0.6079 -1.3771 -0.1083
  105OSM   C11F10687   6.678   3.131   6.164  0.1568 -0.2713 -0.1091
  105OSM   H11F10688   6.785   3.131   6.135 -0.2123  2.3100 -1.8164
  105OSM   H11G10689   6.673   3.220   6.230 -2.2762  0.7186 -1.5008
  105OSM   C12F10690   6.595   3.169   6.032 -0.2244 -0.2111 -0.2740
  105OSM   H12F10691   6.605   3.278   6.014  2.2826 -0.6385 -1.9558
  105OSM   H12G10692   6.488   3.151   6.057  0.0947 -1.3078  0.3867
  105OSM   C13F10693   6.669   3.111   5.915  0.1006 -0.0119 -0.2168
  105OSM   H13F10694   6.689   3.003   5.931 -1.3871 -0.2453  0.2166
  105OSM   H13G10695   6.763   3.170   5.915 -0.6232  1.1929  1.1171
  105OSM   C14F10696   6.605   3.147   5.775 -0.5218  0.4204  0.1773
  105OSM   H14F10697   6.568   3.251   5.770 -1.6949  0.0485  0.6794
  105OSM   H14G10698   6.508   3.093   5.772  0.1997 -0.8747 -0.4379
  105OSM   C15F10699   6.690   3.124   5.649  0.4475 -0.1827 -0.0404
  105OSM   H15F10700   6.704   3.014   5.649 -2.1142 -0.6047  1.5074
  105OSM   H15G10701   6.790   3.166   5.671 -0.0874  0.4856  1.2450
  105OSM   C16F10702   6.615   3.174   5.528 -0.3535 -0.7080 -0.7383
  105OSM   H16F10703   6.559   3.268   5.547 -1.7771 -1.7371  0.4426
  105OSM   H16G10704   6.530   3.106   5.507  0.3472 -1.6744 -0.5125
  105OSM   C17F10705   6.702   3.198   5.404  0.0499 -0.0090  0.2081
  105OSM   H17F10706   6.776   3.119   5.381  1.5151  0.7073  2.1199
  105OSM   H17G10707   6.770   3.281   5.433  0.6781 -0.0934 -0.9682
  105OSM   C18F10708   6.627   3.233   5.277  0.0164  0.3157 -0.1873
  105OSM   H18F10709   6.641   3.150   5.205 -0.1497  1.2197 -1.2725
  105OSM   H18G10710   6.667   3.325   5.230  0.0058 -0.7651 -2.3967
  105OSM   H18H10711   6.520   3.253   5.298 -0.5003 -0.1428 -2.1764
  106OSM      N10712   3.850   1.553   7.697 -0.7722 -0.8203  0.7138
  106OSM    C1510713   3.721   1.480   7.704 -0.4622 -0.2028  0.2753
  106OSM   H15A10714   3.700   1.448   7.805  0.7202 -0.6188  0.4024
  106OSM   H15B10715   3.725   1.397   7.635 -0.3696  0.6575 -0.7868
  106OSM   H15C10716   3.634   1.542   7.686  0.1443  0.8838  0.9456
  106OSM    C1410717   3.851   1.674   7.796  0.3349 -0.4518  0.2746
  106OSM   H14A10718   3.825   1.638   7.894 -2.8428 -0.4999 -0.4639
  106OSM   H14B10719   3.767   1.737   7.770 -0.5302 -0.8663  1.9200
  106OSM   H14C10720   3.941   1.734   7.795 -1.4950  2.5327 -1.7444
  106OSM    C1310721   3.969   1.465   7.722  0.0846  0.0202  0.6637
  106OSM   H13A10722   3.976   1.376   7.661 -0.4744 -1.5096  2.6922
  106OSM   H13B10723   3.969   1.423   7.822  1.1400 -2.3181 -0.2394
  106OSM   H13C10724   4.065   1.512   7.707 -0.1618  0.6933  1.1750
  106OSM    C1210725   3.859   1.598   7.549  0.7638  0.2507  0.4262
  106OSM   H12A10726   3.781   1.673   7.541 -0.6996 -1.3122 -0.5138
  106OSM   H12B10727   3.822   1.517   7.488 -1.8746  0.5721  1.4625
  106OSM    C1110728   3.992   1.654   7.498  0.1376  0.0128  0.2541
  106OSM   H11A10729   4.028   1.724   7.576 -0.3042  0.9091 -0.3345
  106OSM   H11B10730   3.973   1.720   7.411  0.4049  0.6281  0.6527
  106OSM      P10731   4.114   1.479   7.341  0.1008  0.1346  0.0350
  106OSM    O1310732   4.227   1.384   7.350  0.5518 -0.9503  0.2823
  106OSM    O1410733   3.988   1.431   7.295  0.4765 -0.1710 -0.0815
  106OSM    O1110734   4.149   1.602   7.244 -0.1140  0.4037 -0.1112
  106OSM    O1210735   4.091   1.549   7.479 -0.0011  0.0452  0.3125
  106OSM    C1S10736   4.117   1.581   7.102 -0.2744 -0.4816 -0.2448
  106OSM    H1S10737   4.010   1.605   7.083 -0.5147 -1.1456  0.2451
  106OSM    H1T10738   4.133   1.478   7.066 -1.9098 -0.4433 -1.2143
  106OSM     NF10739   4.169   1.631   6.867 -0.1067 -0.5369 -0.6565
  106OSM    HNF10740   4.234   1.587   6.806  0.6665  0.6132 -0.6902
  106OSM    C2S10741   4.206   1.658   7.006  0.0970 -0.4388  0.2185
  106OSM    H2S10742   4.194   1.767   7.024  0.7073 -0.3167 -0.0954
  106OSM    C3S10743   4.355   1.623   7.038 -0.1723 -0.1385 -0.2508
  106OSM    H3S10744   4.376   1.515   7.025 -2.1450 -0.8343  1.8423
  106OSM     O310745   4.402   1.634   7.172  0.6664 -0.7253  0.2734
  106OSM    HO310746   4.317   1.638   7.218  0.2153 -1.5603 -0.4513
  106OSM    C4S10747   4.444   1.712   6.951  0.3734  0.1481  0.2300
  106OSM    H4S10748   4.470   1.659   6.858 -1.1033 -0.9363  0.3856
  106OSM    C5S10749   4.496   1.837   6.976  0.1066 -0.1635 -0.3530
  106OSM    H5S10750   4.474   1.895   7.067 -0.2642 -0.8631  0.0141
  106OSM    C6S10751   4.600   1.896   6.881 -0.2189  0.1970  0.2116
  106OSM    H6S10752   4.700   1.898   6.928  0.3853 -0.1509 -1.0184
  106OSM    H6T10753   4.560   1.998   6.860  1.0207  0.4669 -0.9647
  106OSM    C7S10754   4.633   1.830   6.741  0.6798  0.6565  0.2071
  106OSM    H7S10755   4.539   1.831   6.681  0.2649 -1.9917  0.6596
  106OSM    H7T10756   4.675   1.729   6.762 -0.9566 -0.4651 -1.5275
  106OSM    C8S10757   4.732   1.917   6.652 -0.0776 -0.2708 -0.3221
  106OSM    H8S10758   4.828   1.904   6.706  0.9516  2.3868 -1.3666
  106OSM    H8T10759   4.706   2.024   6.664 -0.4044 -0.6120  2.8201
  106OSM    C9S10760   4.738   1.889   6.503 -0.2051  0.1928  0.3172
  106OSM    H9S10761   4.742   1.781   6.480 -1.0689  0.1894  0.1556
  106OSM    H9T10762   4.835   1.924   6.461 -0.0071  0.2512  0.8135
  106OSM   C10S10763   4.630   1.963   6.428 -0.8689 -0.2185 -0.1808
  106OSM   H10S10764   4.641   2.073   6.444 -2.9540 -0.1140  1.0285
  106OSM   H10T10765   4.536   1.927   6.475  0.1139 -1.0382  1.2304
  106OSM   C11S10766   4.633   1.931   6.276 -0.0682 -0.4399 -0.1615
  106OSM   H11S10767   4.537   1.959   6.227  1.5378  3.3847 -1.5518
  106OSM   H11T10768   4.652   1.822   6.266 -1.2843 -0.7931  1.0121
  106OSM   C12S10769   4.744   2.007   6.205 -0.5933 -0.2521 -0.3694
  106OSM   H12S10770   4.837   1.993   6.264 -1.0223 -0.1403  0.3550
  106OSM   H12T10771   4.723   2.116   6.217  0.4202 -0.0227 -0.6323
  106OSM   C13S10772   4.770   1.980   6.053 -0.6834  0.7102 -0.1544
  106OSM   H13S10773   4.776   1.871   6.030  1.5872  0.9368 -0.8405
  106OSM   H13T10774   4.876   2.001   6.027 -0.2456 -3.6236 -3.0083
  106OSM   C14S10775   4.659   2.041   5.962  0.7133  0.4981 -0.5801
  106OSM   H14S10776   4.652   2.148   5.988  1.6605  0.5420 -0.4712
  106OSM   H14T10777   4.561   1.993   5.985  0.5229  0.6345 -1.0784
  106OSM   C15S10778   4.688   2.025   5.817  0.0424  0.3484  0.4387
  106OSM   H15S10779   4.699   1.919   5.785 -0.1591 -0.0652  1.6822
  106OSM   H15T10780   4.793   2.058   5.804  0.9150 -1.7288  1.7126
  106OSM   C16S10781   4.588   2.101   5.728  0.3038 -0.2900  0.8817
  106OSM   H16S10782   4.582   2.209   5.751 -2.8495  0.0289 -0.9148
  106OSM   H16T10783   4.482   2.072   5.746 -0.9043  2.7337 -0.6894
  106OSM   C17S10784   4.618   2.079   5.574  0.2751 -0.1184  0.1465
  106OSM   H17S10785   4.724   2.110   5.561  0.3298 -0.1921  0.3952
  106OSM   H17T10786   4.558   2.142   5.506  0.2951 -0.8423 -0.5521
  106OSM   C18S10787   4.601   1.933   5.536 -0.3003 -0.0040  0.4079
  106OSM   H18S10788   4.693   1.879   5.568 -1.5840 -1.2937  2.0747
  106OSM   H18T10789   4.588   1.916   5.427  1.1645  1.0667  0.0387
  106OSM   H18U10790   4.513   1.880   5.578  0.0040 -1.3609 -0.5799
  106OSM    C1F10791   4.051   1.661   6.817 -0.1042  0.1136  0.2552
  106OSM     OF10792   3.978   1.738   6.876  0.0399  0.1841 -0.4766
  106OSM    C2F10793   4.018   1.607   6.681 -0.4239  0.2401 -0.4152
  106OSM    H2F10794   4.050   1.501   6.672 -0.8590  0.1158 -0.5555
  106OSM    H2G10795   4.086   1.661   6.612  0.5036 -0.5966 -0.1768
  106OSM    C3F10796   3.877   1.620   6.642  0.5254 -0.1636 -0.4365
  106OSM    H3F10797   3.835   1.719   6.671  2.0182  0.8724 -1.6761
  106OSM    H3G10798   3.814   1.548   6.699 -0.6171 -0.3537 -1.8769
  106OSM    C4F10799   3.860   1.586   6.491  0.1841 -0.0066 -0.5272
  106OSM    H4F10800   3.756   1.566   6.457 -0.6906  1.0090  1.3849
  106OSM    H4G10801   3.929   1.503   6.466  1.2584  0.9501 -0.7976
  106OSM    C5F10802   3.911   1.696   6.394  0.5564  0.1997  0.0565
  106OSM    H5F10803   4.020   1.708   6.407  0.8110 -1.0614 -0.8301
  106OSM    H5G10804   3.853   1.791   6.406  0.6438  0.0997  1.4767
  106OSM    C6F10805   3.890   1.649   6.250  0.1639 -0.6602  0.0383
  106OSM    H6F10806   3.785   1.637   6.215  0.4743 -1.4076 -0.6834
  106OSM    H6G10807   3.936   1.550   6.230  0.1814 -0.5008 -0.7577
  106OSM    C7F10808   3.961   1.749   6.153  0.2968  0.0269  0.3229
  106OSM    H7F10809   4.063   1.771   6.191  0.8226  1.4462 -1.7526
  106OSM    H7G10810   3.910   1.847   6.137 -1.6832 -0.9950  0.0372
  106OSM    C8F10811   3.978   1.684   6.016 -0.0131 -0.2286 -0.5014
  106OSM    H8F10812   4.034   1.590   6.034  1.9262  0.8586 -0.6166
  106OSM    H8G10813   4.060   1.744   5.971 -0.4101  1.1273  0.5253
  106OSM    C9F10814   3.864   1.669   5.916  0.0787 -0.2489  0.1387
  106OSM    H9F10815   3.764   1.652   5.960  0.2451  0.5135  0.8405
  106OSM   C10F10816   3.884   1.658   5.782  0.0236  1.1302  0.2411
  106OSM   H10F10817   3.795   1.661   5.717  1.2785 -0.5661 -1.6624
  106OSM   C11F10818   4.018   1.642   5.713 -0.4373 -0.2429  0.2346
  106OSM   H11F10819   4.006   1.556   5.643  0.2042 -1.5250  1.6422
  106OSM   H11G10820   4.092   1.599   5.783 -1.1368  0.3068  1.3525
  106OSM   C12F10821   4.071   1.767   5.640 -0.3795 -0.0472  0.5069
  106OSM   H12F10822   4.108   1.833   5.722  2.5242  0.1427 -0.8219
  106OSM   H12G10823   3.990   1.819   5.585  0.9451  0.4739 -1.0426
  106OSM   C13F10824   4.183   1.741   5.539 -0.2966 -0.4449  0.3375
  106OSM   H13F10825   4.141   1.672   5.463 -0.8247  0.7563 -0.4952
  106OSM   H13G10826   4.278   1.702   5.581 -1.1902 -1.3470  1.6185
  106OSM   C14F10827   4.211   1.883   5.479  0.2069  0.0430  0.0071
  106OSM   H14F10828   4.263   1.938   5.560  2.0555 -1.1529 -0.3075
  106OSM   H14G10829   4.110   1.911   5.441 -0.3756  1.0393  2.1581
  106OSM   C15F10830   4.303   1.876   5.353 -0.0436  0.5620 -0.4851
  106OSM   H15F10831   4.248   1.810   5.283  0.7206  0.3224 -0.8700
  106OSM   H15G10832   4.392   1.818   5.384 -0.2777  1.5995  2.4229
  106OSM   C16F10833   4.330   2.002   5.271 -0.8619 -0.0162 -0.2004
  106OSM   H16F10834   4.380   2.081   5.330  1.1788 -1.2923 -0.1036
  106OSM   H16G10835   4.231   2.043   5.243 -1.1010  0.8935  1.7991
  106OSM   C17F10836   4.411   1.972   5.142  0.4160  0.1698  0.3308
  106OSM   H17F10837   4.362   1.893   5.081  0.7151  0.1744  0.0832
  106OSM   H17G10838   4.507   1.925   5.174 -0.1659 -2.3668 -1.3683
  106OSM   C18F10839   4.436   2.093   5.052 -0.2975  0.7119 -0.8402
  106OSM   H18F10840   4.500   2.074   4.963 -0.7819  0.5886 -1.1595
  106OSM   H18G10841   4.507   2.153   5.114  0.0953  1.4256 -1.9581
  106OSM   H18H10842   4.355   2.151   5.004 -1.4617  1.2054  1.5633
  107OSM      N10843   5.435   6.188   7.236  0.4284  0.4313 -0.5099
  107OSM    C1510844   5.352   6.101   7.150 -0.4952 -0.2472 -0.0686
  107OSM   H15A10845   5.350   6.000   7.188  1.2270 -0.8873 -1.5174
  107OSM   H15B10846   5.390   6.083   7.050 -0.9405 -0.6582 -0.1673
  107OSM   H15C10847   5.250   6.134   7.154  0.0495  1.6593 -0.8431
  107OSM    C1410848   5.422   6.326   7.183  0.3841 -0.0010  0.3362
  107OSM   H14A10849   5.466   6.335   7.084 -0.5162  3.1684  0.0939
  107OSM   H14B10850   5.475   6.394   7.248 -0.7425 -0.4151  1.7170
  107OSM   H14C10851   5.319   6.357   7.178  0.3299  0.5741  3.2327
  107OSM    C1310852   5.377   6.170   7.366  0.4945  0.2848 -0.9432
  107OSM   H13A10853   5.404   6.076   7.412  0.2730  0.6482 -0.0471
  107OSM   H13B10854   5.270   6.164   7.378  0.6885 -1.1039  0.3880
  107OSM   H13C10855   5.401   6.254   7.429 -1.0631  2.0860 -2.6206
  107OSM    C1210856   5.582   6.147   7.245  0.6776 -0.4975  0.0970
  107OSM   H12A10857   5.581   6.056   7.302  1.0381 -0.8416 -0.4404
  107OSM   H12B10858   5.643   6.214   7.304  1.0590 -0.4689 -0.3189
  107OSM    C1110859   5.656   6.116   7.113  0.3137 -0.8145  0.2389
  107OSM   H11A10860   5.658   6.208   7.050  2.2070 -0.0360  1.3649
  107OSM   H11B10861   5.603   6.033   7.061 -1.0055 -0.9832  1.7668
  107OSM      P10862   5.851   5.958   7.126 -0.3973 -0.1123  0.3603
  107OSM    O1310863   5.992   5.960   7.169  0.3138 -0.4890 -0.3632
  107OSM    O1410864   5.761   5.854   7.179 -0.8053 -0.4864 -0.2205
  107OSM    O1110865   5.846   5.933   6.973  0.3535  0.7405 -0.0731
  107OSM    O1210866   5.792   6.098   7.154 -0.0060 -0.4616 -0.5564
  107OSM    C1S10867   5.938   5.988   6.880 -0.5124  0.2088  0.2158
  107OSM    H1S10868   6.045   5.976   6.906 -0.1722  1.3970 -0.5605
  107OSM    H1T10869   5.919   6.097   6.874 -1.2369  0.1528  1.2692
  107OSM     NF10870   6.020   5.944   6.659 -0.1805  0.0537  0.4945
  107OSM    HNF10871   6.020   6.025   6.601  0.5710  0.1256  0.5831
  107OSM    C2S10872   5.907   5.930   6.745  0.0913 -0.0343 -0.0876
  107OSM    H2S10873   5.897   5.820   6.753 -2.1068 -0.0386 -1.9157
  107OSM    C3S10874   5.768   5.983   6.684  0.3287  0.8783 -0.0643
  107OSM    H3S10875   5.772   6.094   6.690  0.5200  1.0326 -2.2858
  107OSM     O310876   5.651   5.937   6.764  0.6606 -0.8720  0.5100
  107OSM    HO310877   5.696   5.882   6.828  2.7991 -1.5753 -1.4544
  107OSM    C4S10878   5.746   5.934   6.542  0.0614 -0.4107  0.0490
  107OSM    H4S10879   5.700   5.834   6.530 -1.1477  0.2014 -0.6864
  107OSM    C5S10880   5.755   6.020   6.442  0.3389  0.7083  0.3990
  107OSM    H5S10881   5.793   6.121   6.463  3.0656 -0.5694  2.3304
  107OSM    C6S10882   5.709   5.996   6.295 -0.0184  0.4881 -0.3124
  107OSM    H6S10883   5.630   6.069   6.269  0.2681  1.1251  0.5582
  107OSM    H6T10884   5.662   5.899   6.267  0.5327 -0.3535  1.4992
  107OSM    C7S10885   5.833   6.019   6.206 -0.3249 -0.5739 -0.1054
  107OSM    H7S10886   5.909   5.941   6.232 -1.1892 -0.8685  1.6330
  107OSM    H7T10887   5.877   6.120   6.216 -1.6130  0.4944 -3.6159
  107OSM    C8S10888   5.803   6.016   6.052  0.3318  0.3946 -0.0013
  107OSM    H8S10889   5.706   6.062   6.021 -0.6953 -0.8601  1.1968
  107OSM    H8T10890   5.804   5.908   6.030  0.8949  0.4964 -0.4820
  107OSM    C9S10891   5.918   6.078   5.973 -0.6253 -0.5253  0.3550
  107OSM    H9S10892   6.009   6.058   6.033  0.0091  0.9066 -0.0640
  107OSM    H9T10893   5.901   6.188   5.970 -1.3439 -0.6311 -2.0909
  107OSM   C10S10894   5.933   6.023   5.829 -0.3112  0.8150  0.2510
  107OSM   H10S10895   5.937   5.913   5.847 -0.0584  0.9022  0.7244
  107OSM   H10T10896   6.033   6.041   5.784  0.8564  1.6546  3.0130
  107OSM   C11S10897   5.826   6.054   5.724  0.2333 -0.4672 -0.5657
  107OSM   H11S10898   5.833   6.163   5.700 -3.2228  0.8403  3.2505
  107OSM   H11T10899   5.729   6.054   5.776  0.3324  2.0519 -0.2411
  107OSM   C12S10900   5.821   5.963   5.602  0.0827  0.2220  0.2188
  107OSM   H12S10901   5.719   5.968   5.558 -1.4432  0.2551  3.4766
  107OSM   H12T10902   5.833   5.860   5.642  0.8236 -0.5870 -1.9580
  107OSM   C13S10903   5.926   5.979   5.494  0.6799 -0.0181  0.3846
  107OSM   H13S10904   6.024   5.941   5.531 -0.2508  0.1704  3.2694
  107OSM   H13T10905   5.950   6.084   5.466  0.4417 -0.1011 -0.1389
  107OSM   C14S10906   5.886   5.907   5.371  0.4447 -0.0641  0.3333
  107OSM   H14S10907   5.787   5.950   5.348  0.4435 -0.3685 -0.2414
  107OSM   H14T10908   5.858   5.803   5.399 -1.6711  0.6795  1.1840
  107OSM   C15S10909   5.987   5.921   5.249  0.6377 -0.0569 -0.1689
  107OSM   H15S10910   6.084   5.898   5.297  0.9308  1.6923  0.1343
  107OSM   H15T10911   5.986   6.027   5.215 -1.2588  0.8450  2.3205
  107OSM   C16S10912   5.967   5.822   5.138  0.0829  0.4428  0.6957
  107OSM   H16S10913   5.859   5.814   5.112 -0.0483 -0.8006  1.5410
  107OSM   H16T10914   5.999   5.721   5.172  2.9019  0.7060 -0.8540
  107OSM   C17S10915   6.048   5.864   5.014  0.8227 -0.0343 -0.1934
  107OSM   H17S10916   6.148   5.906   5.040  1.0133  0.7119 -1.9836
  107OSM   H17T10917   5.994   5.945   4.960  0.2977 -0.3884 -0.2068
  107OSM   C18S10918   6.064   5.758   4.907 -0.1857  0.1549 -0.8836
  107OSM   H18S10919   5.979   5.700   4.865 -1.3853  1.0914  0.1836
  107OSM   H18T10920   6.130   5.684   4.957 -2.2791 -0.3246  1.3386
  107OSM   H18U10921   6.128   5.807   4.830 -1.9819  0.8026 -2.0214
  107OSM    C1F10922   6.123   5.876   6.676 -0.0011  0.2163 -0.2258
  107OSM     OF10923   6.133   5.797   6.771  0.1084  0.7704  0.2002
  107OSM    C2F10924   6.222   5.885   6.574  0.0095 -0.1132 -0.2939
  107OSM    H2F10925   6.267   5.784   6.575 -1.4391 -0.8570  2.7272
  107OSM    H2G10926   6.300   5.956   6.608 -0.1881 -0.4934  1.0226
  107OSM    C3F10927   6.166   5.921   6.431  0.0679 -0.2068 -0.2775
  107OSM    H3F10928   6.155   6.031   6.424  0.9365 -0.0338  0.7306
  107OSM    H3G10929   6.068   5.875   6.410  0.2170  0.1811 -1.9226
  107OSM    C4F10930   6.270   5.877   6.321  0.1948  0.0563  0.1078
  107OSM    H4F10931   6.282   5.767   6.324  1.2155  0.1709  0.5889
  107OSM    H4G10932   6.370   5.918   6.349  1.3843 -0.7700 -2.5282
  107OSM    C5F10933   6.254   5.936   6.184 -0.1904 -0.2152  0.2564
  107OSM    H5F10934   6.264   6.046   6.190  1.7377 -0.1181 -2.6009
  107OSM    H5G10935   6.160   5.916   6.129 -0.2801  0.2565  0.2331
  107OSM    C6F10936   6.375   5.897   6.091  0.7562 -0.1371 -0.7675
  107OSM    H6F10937   6.372   5.793   6.051 -0.7642  0.7361 -3.1110
  107OSM    H6G10938   6.475   5.901   6.139  0.9849  0.1797 -1.2561
  107OSM    C7F10939   6.389   5.985   5.967 -0.4428 -0.1251  0.1983
  107OSM    H7F10940   6.482   5.960   5.912  0.6852 -1.8487  2.6777
  107OSM    H7G10941   6.398   6.094   5.989  1.4303  0.1524 -1.6545
  107OSM    C8F10942   6.286   5.958   5.863  0.2861 -0.6493 -0.2012
  107OSM    H8F10943   6.320   6.030   5.787 -2.0929  1.7095  0.8167
  107OSM    H8G10944   6.192   5.997   5.907  0.6389 -0.8743  0.8012
  107OSM    C9F10945   6.270   5.811   5.817 -0.1049 -0.5228 -0.1607
  107OSM    H9F10946   6.206   5.758   5.889 -2.6714  1.4575 -0.8220
  107OSM   C10F10947   6.311   5.755   5.704  0.2030  0.4247  0.0453
  107OSM   H10F10948   6.265   5.660   5.671  2.7289 -0.2642 -1.8266
  107OSM   C11F10949   6.397   5.823   5.598  0.3398 -0.1272 -0.3541
  107OSM   H11F10950   6.500   5.783   5.597  0.4450  0.1286 -1.8446
  107OSM   H11G10951   6.399   5.932   5.617  1.4253 -0.3450  0.9403
  107OSM   C12F10952   6.343   5.799   5.459  0.0874  0.7976 -0.0070
  107OSM   H12F10953   6.252   5.864   5.453  0.1488  0.8157 -0.9309
  107OSM   H12G10954   6.307   5.695   5.441 -1.8373  1.4085  0.0077
  107OSM   C13F10955   6.442   5.834   5.342  0.9349  0.1638 -0.9994
  107OSM   H13F10956   6.512   5.747   5.342  3.5949  2.1789 -0.2851
  107OSM   H13G10957   6.495   5.931   5.345 -0.0661  0.7660 -2.0631
  107OSM   C14F10958   6.373   5.833   5.205  0.3574 -0.1037  0.0827
  107OSM   H14F10959   6.290   5.907   5.200  0.2292  0.4153  4.7337
  107OSM   H14G10960   6.307   5.744   5.200 -1.7147  1.2297  1.6098
  107OSM   C15F10961   6.475   5.835   5.094 -0.5375  0.5595 -0.4916
  107OSM   H15F10962   6.556   5.762   5.112  0.2194  1.1038 -1.5808
  107OSM   H15G10963   6.519   5.936   5.084 -1.1081  0.9053  0.4465
  107OSM   C16F10964   6.422   5.808   4.955 -0.0988 -0.0124 -0.6984
  107OSM   H16F10965   6.343   5.883   4.938 -0.4259  0.0283  0.8421
  107OSM   H16G10966   6.357   5.718   4.953 -0.0420 -0.0743  0.0796
  107OSM   C17F10967   6.530   5.805   4.852 -0.2557 -0.0581 -0.0790
  107OSM   H17F10968   6.485   5.806   4.750  1.5970 -0.7886 -0.9589
  107OSM   H17G10969   6.578   5.707   4.834 -1.0474 -0.0628 -2.6120
  107OSM   C18F10970   6.639   5.915   4.845 -0.1372  0.6960  0.5612
  107OSM   H18F10971   6.707   5.898   4.931  1.3796  2.0282 -0.3000
  107OSM   H18G10972   6.596   6.017   4.851  2.6698  2.0234 -0.0048
  107OSM   H18H10973   6.694   5.917   4.748 -0.8309 -0.8631  0.1103
  108OSM      N10974   0.813   1.579   7.589 -0.9157 -0.4144  0.2005
  108OSM    C1510975   0.833   1.695   7.500 -0.2282 -0.2923  0.1416
  108OSM   H15A10976   0.753   1.768   7.512 -0.8079 -0.6702 -1.2273
  108OSM   H15B10977   0.833   1.667   7.396 -0.4047 -0.5313  0.2059
  108OSM   H15C10978   0.925   1.748   7.521 -1.1224  1.3629  0.0711
  108OSM    C1410979   0.785   1.639   7.722  1.2572  0.0653 -0.4232
  108OSM   H14A10980   0.758   1.568   7.799 -0.3010  2.3331  1.2568
  108OSM   H14B10981   0.706   1.713   7.723  0.7488 -0.2583 -3.7967
  108OSM   H14C10982   0.869   1.688   7.769  0.9977 -0.9803  1.1934
  108OSM    C1310983   0.695   1.503   7.542  0.1493  0.7081  0.1308
  108OSM   H13A10984   0.713   1.456   7.446 -0.9324 -1.6075  0.9742
  108OSM   H13B10985   0.604   1.561   7.534 -0.9699 -1.0385 -0.2852
  108OSM   H13C10986   0.681   1.420   7.610  1.3249  0.2675 -0.1278
  108OSM    C1210987   0.940   1.495   7.599  0.3344  0.2130  0.7659
  108OSM   H12A10988   0.914   1.412   7.664  1.5391 -1.6464 -1.0357
  108OSM   H12B10989   1.014   1.535   7.666 -0.0864 -0.0665  1.4120
  108OSM    C1110990   1.009   1.440   7.475 -0.0256  0.4016 -0.4804
  108OSM   H11A10991   1.106   1.393   7.502 -0.4857  0.0909  0.6794
  108OSM   H11B10992   1.035   1.532   7.419  1.6325  0.1820 -0.1050
  108OSM      P10993   0.959   1.195   7.411 -0.1741 -0.2223 -0.0722
  108OSM    O1310994   1.064   1.158   7.505 -0.0922 -0.7430 -0.2185
  108OSM    O1410995   0.840   1.113   7.432 -0.2605  0.0318 -0.6889
  108OSM    O1110996   1.014   1.150   7.265 -0.2754  0.3045 -0.8418
  108OSM    O1210997   0.927   1.345   7.400  0.1570 -0.1888 -0.0864
  108OSM    C1S10998   0.922   1.140   7.153  0.4169  0.1512 -0.0270
  108OSM    H1S10999   0.877   1.240   7.136 -0.3731 -0.1395  0.2962
  108OSM    H1T11000   0.839   1.068   7.169 -0.9353  1.2780 -1.6387
  108OSM     NF11001   0.926   1.108   6.914  0.1708  0.3150  0.4366
  108OSM    HNF11002   0.870   1.030   6.886 -1.0416  1.1380  0.5102
  108OSM    C2S11003   1.003   1.087   7.035 -0.4357 -0.1707  0.3661
  108OSM    H2S11004   1.093   1.152   7.022 -1.1454  0.6623 -0.4282
  108OSM    C3S11005   1.040   0.941   7.061 -0.3171  0.0512  0.0744
  108OSM    H3S11006   0.947   0.882   7.077  0.2406 -1.0998 -0.8005
  108OSM     O311007   1.124   0.927   7.176  0.2948  0.2221  0.4221
  108OSM    HO311008   1.116   1.017   7.211  0.6101 -0.4524  2.3508
  108OSM    C4S11009   1.116   0.882   6.949 -0.0873  0.4038  0.2768
  108OSM    H4S11010   1.214   0.931   6.939  0.4953 -0.7742  0.0087
  108OSM    C5S11011   1.063   0.798   6.862 -0.9322  0.5859  0.7657
  108OSM    H5S11012   0.960   0.759   6.865 -0.8840 -0.1978 -2.9229
  108OSM    C6S11013   1.147   0.744   6.751 -0.1371 -0.5196 -0.4868
  108OSM    H6S11014   1.135   0.633   6.755 -1.6344 -0.4032 -1.3088
  108OSM    H6T11015   1.253   0.779   6.753  0.2048 -1.2858 -2.4965
  108OSM    C7S11016   1.116   0.804   6.613  0.0763 -0.5975 -0.1174
  108OSM    H7S11017   1.123   0.915   6.623 -0.1923 -0.7425  2.1892
  108OSM    H7T11018   1.010   0.781   6.587 -0.0166 -0.0435 -0.2623
  108OSM    C8S11019   1.216   0.756   6.510 -0.7163 -0.3677 -0.0720
  108OSM    H8S11020   1.218   0.647   6.491  2.4362 -0.3362 -0.4130
  108OSM    H8T11021   1.319   0.768   6.549 -0.1404 -0.9184 -1.3441
  108OSM    C9S11022   1.197   0.810   6.363 -0.2937  0.0727 -0.2376
  108OSM    H9S11023   1.220   0.916   6.341 -3.2302  0.6389 -0.9767
  108OSM    H9T11024   1.093   0.787   6.332  0.1625 -2.3788 -0.1800
  108OSM   C10S11025   1.287   0.730   6.258  0.2879 -0.1024 -1.1110
  108OSM   H10S11026   1.241   0.629   6.258 -1.3395  0.3506  3.7346
  108OSM   H10T11027   1.389   0.735   6.301  0.0013  0.6411 -0.4986
  108OSM   C11S11028   1.292   0.796   6.126  0.0578  0.3246  0.0709
  108OSM   H11S11029   1.355   0.888   6.127 -0.6141  0.8225 -1.1493
  108OSM   H11T11030   1.193   0.834   6.092 -0.7657 -0.7155  1.2350
  108OSM   C12S11031   1.335   0.705   6.012  0.1311  0.3248  0.1315
  108OSM   H12S11032   1.360   0.774   5.929 -0.0820  1.5201  1.0387
  108OSM   H12T11033   1.254   0.639   5.976  0.0140  0.3601  0.3286
  108OSM   C13S11034   1.448   0.611   6.054 -0.2995  0.3646 -0.2635
  108OSM   H13S11035   1.410   0.538   6.130 -1.6380  1.8234  0.5317
  108OSM   H13T11036   1.538   0.656   6.101 -0.2502  0.2227 -0.2195
  108OSM   C14S11037   1.508   0.536   5.931 -0.5719  0.0207  0.4255
  108OSM   H14S11038   1.424   0.519   5.861 -1.4790 -1.2304  1.7761
  108OSM   H14T11039   1.548   0.440   5.970  0.9519 -0.2702 -1.7122
  108OSM   C15S11040   1.616   0.603   5.859  0.2169 -0.8087 -0.6052
  108OSM   H15S11041   1.702   0.608   5.930 -0.6237  0.7210  0.3550
  108OSM   H15T11042   1.593   0.703   5.816  0.1346 -1.4457 -2.1101
  108OSM   C16S11043   1.654   0.533   5.729 -0.0979 -0.1027  0.1490
  108OSM   H16S11044   1.699   0.436   5.759 -1.0002 -0.0358  1.8658
  108OSM   H16T11045   1.733   0.595   5.680  0.3985  0.8600  2.0393
  108OSM   C17S11046   1.535   0.499   5.636  0.7832  0.3438 -0.1389
  108OSM   H17S11047   1.460   0.426   5.673 -1.5165  2.6465  0.0029
  108OSM   H17T11048   1.580   0.440   5.553 -1.7706 -2.6117  0.4032
  108OSM   C18S11049   1.461   0.617   5.577  0.5044  0.7436 -0.0554
  108OSM   H18S11050   1.424   0.689   5.653 -0.5042 -0.6503  0.8435
  108OSM   H18T11051   1.376   0.588   5.512  0.8864 -2.2119  0.6075
  108OSM   H18U11052   1.533   0.675   5.517 -0.0986  1.0789 -0.4645
  108OSM    C1F11053   0.894   1.223   6.851 -0.1236  0.5514  0.1785
  108OSM     OF11054   0.931   1.331   6.894  0.7130 -0.1732  0.1854
  108OSM    C2F11055   0.818   1.211   6.717 -0.0443 -0.3739  0.1746
  108OSM    H2F11056   0.869   1.282   6.648  0.5420 -2.4282 -1.6261
  108OSM    H2G11057   0.717   1.252   6.734 -0.1808 -0.8369  0.4810
  108OSM    C3F11058   0.820   1.070   6.653  0.0750  0.0161  0.1128
  108OSM    H3F11059   0.770   1.003   6.726 -0.1272  2.6638  2.5549
  108OSM    H3G11060   0.926   1.040   6.637 -0.3928 -1.9138  0.3172
  108OSM    C4F11061   0.758   1.067   6.515  0.4890  0.0167 -0.5222
  108OSM    H4F11062   0.801   1.141   6.444 -1.3803  0.5700 -1.1396
  108OSM    H4G11063   0.650   1.088   6.533  0.1496 -2.4342  0.7851
  108OSM    C5F11064   0.767   0.923   6.465  0.3584 -0.4015 -0.1792
  108OSM    H5F11065   0.716   0.864   6.543 -2.5964 -0.6237 -2.1379
  108OSM    H5G11066   0.876   0.903   6.467  0.6318  0.9632 -0.2573
  108OSM    C6F11067   0.696   0.902   6.330  0.1030  0.1914 -0.5178
  108OSM    H6F11068   0.594   0.944   6.335 -0.2244 -0.6832  0.4645
  108OSM    H6G11069   0.689   0.792   6.315 -3.3587  0.4193 -1.4181
  108OSM    C7F11070   0.774   0.942   6.195  0.4988  0.0170  0.1019
  108OSM    H7F11071   0.867   0.883   6.181 -0.2002 -1.5057  1.4755
  108OSM    H7G11072   0.790   1.052   6.189  1.7011 -0.2166 -1.4443
  108OSM    C8F11073   0.683   0.912   6.073 -0.4020  0.4531 -0.0285
  108OSM    H8F11074   0.578   0.923   6.109 -0.4074  0.2265  0.0233
  108OSM    H8G11075   0.682   0.802   6.064 -1.8306  0.5189 -1.2157
  108OSM    C9F11076   0.698   0.983   5.940  0.0763 -0.1004  0.7547
  108OSM    H9F11077   0.753   1.078   5.945  1.7956 -1.0369  0.4327
  108OSM   C10F11078   0.643   0.956   5.821 -1.0746  0.8960 -0.5522
  108OSM   H10F11079   0.641   1.025   5.736  1.6716 -0.4570 -1.8106
  108OSM   C11F11080   0.575   0.829   5.795 -0.1375  0.1631  0.2876
  108OSM   H11F11081   0.482   0.819   5.855  1.3455 -0.8213  2.5624
  108OSM   H11G11082   0.637   0.741   5.824 -0.0790  0.2889  0.5510
  108OSM   C12F11083   0.537   0.801   5.654 -0.2095 -1.0241 -0.0710
  108OSM   H12F11084   0.628   0.785   5.593 -0.5201 -2.7500 -0.1360
  108OSM   H12G11085   0.482   0.887   5.610 -1.9243  0.4953  4.4456
  108OSM   C13F11086   0.452   0.668   5.655 -0.5107  0.3714  0.1800
  108OSM   H13F11087   0.358   0.681   5.713 -1.8753  1.3849 -2.1104
  108OSM   H13G11088   0.504   0.583   5.704 -0.1373 -0.8519 -2.1844
  108OSM   C14F11089   0.424   0.620   5.513  0.3046 -0.1578 -0.4041
  108OSM   H14F11090   0.375   0.521   5.504  0.2352 -0.3182  1.3166
  108OSM   H14G11091   0.526   0.595   5.478  0.3458 -0.9993  0.2843
  108OSM   C15F11092   0.363   0.725   5.416  0.6361  0.2219 -0.2841
  108OSM   H15F11093   0.421   0.819   5.411 -1.1801  1.3677 -0.6730
  108OSM   H15G11094   0.256   0.740   5.440  0.1466 -2.3235 -0.5513
  108OSM   C16F11095   0.358   0.668   5.270 -0.4772  0.0235  0.1266
  108OSM   H16F11096   0.461   0.645   5.234  0.5105  4.5367 -0.6552
  108OSM   H16G11097   0.329   0.755   5.208  2.1354  2.3489  1.9079
  108OSM   C17F11098   0.263   0.548   5.248 -0.0012 -0.3274  0.4643
  108OSM   H17F11099   0.305   0.464   5.307  0.6796  0.4104  1.0517
  108OSM   H17G11100   0.274   0.505   5.146 -0.1019 -3.3562  1.6092
  108OSM   C18F11101   0.114   0.563   5.288 -0.4771  0.2250  0.2291
  108OSM   H18F11102   0.074   0.662   5.258  1.2145  0.5596 -1.0683
  108OSM   H18G11103   0.104   0.554   5.398 -0.5899  0.4459  0.2365
  108OSM   H18H11104   0.058   0.476   5.248  0.8064 -0.6754  0.3144
  109OSM      N11105   2.568   2.718   7.458  0.1560  0.0389  0.1586
  109OSM    C1511106   2.503   2.852   7.463  0.3828 -0.2664 -0.0251
  109OSM   H15A11107   2.395   2.844   7.463 -0.2772  4.7671  2.2200
  109OSM   H15B11108   2.535   2.921   7.386  0.1493  0.0237  0.1342
  109OSM   H15C11109   2.532   2.905   7.552  2.6910 -0.5035 -0.5615
  109OSM    C1411110   2.494   2.617   7.536 -0.6343  0.1011  0.0762
  109OSM   H14A11111   2.541   2.521   7.550 -0.7559  0.3646  2.6691
  109OSM   H14B11112   2.398   2.602   7.489 -0.5087  1.7418 -0.8044
  109OSM   H14C11113   2.466   2.651   7.635 -2.8405 -2.5041  0.4588
  109OSM    C1311114   2.564   2.669   7.316 -0.1302  0.5372 -0.8129
  109OSM   H13A11115   2.598   2.569   7.290 -0.5871  0.4319 -1.0062
  109OSM   H13B11116   2.625   2.741   7.263  0.5673  1.2230  0.8372
  109OSM   H13C11117   2.465   2.674   7.275 -0.8998 -1.3485  0.6783
  109OSM    C1211118   2.711   2.722   7.501 -0.1215 -0.0155 -0.1674
  109OSM   H12A11119   2.742   2.619   7.502 -0.7139 -0.1955  0.0819
  109OSM   H12B11120   2.713   2.753   7.605  1.4820 -1.8394  0.4020
  109OSM    C1111121   2.802   2.812   7.414 -0.3587  0.3644  0.1649
  109OSM   H11A11122   2.898   2.840   7.463  0.3738 -1.7261  0.0422
  109OSM   H11B11123   2.754   2.910   7.396  0.4937  0.6933 -0.3615
  109OSM      P11124   2.920   2.615   7.302  0.3414 -0.2809 -0.3513
  109OSM    O1311125   3.062   2.657   7.266  0.2958  0.4168 -0.2070
  109OSM    O1411126   2.900   2.546   7.429  0.0923 -0.2422  0.2232
  109OSM    O1111127   2.849   2.519   7.184  0.0283 -0.0604 -0.3984
  109OSM    O1211128   2.829   2.743   7.297 -0.5029 -0.1151  0.3384
  109OSM    C1S11129   2.786   2.579   7.074  0.1234  0.3685  0.4033
  109OSM    H1S11130   2.847   2.669   7.048  0.6494  0.4875  1.8881
  109OSM    H1T11131   2.683   2.614   7.094 -1.3733 -1.1420 -3.6923
  109OSM     NF11132   2.781   2.567   6.826  0.0667  0.1939  0.5458
  109OSM    HNF11133   2.703   2.560   6.765  1.4568  0.5559 -1.3638
  109OSM    C2S11134   2.789   2.487   6.948  0.1208  0.0073 -0.1800
  109OSM    H2S11135   2.883   2.429   6.938 -0.2480 -0.5565 -0.3909
  109OSM    C3S11136   2.682   2.379   6.960  0.1146  0.5943  0.3031
  109OSM    H3S11137   2.584   2.431   6.959 -0.9153 -1.2546 -1.1764
  109OSM     O311138   2.690   2.315   7.088  0.2166 -0.1055  0.2757
  109OSM    HO311139   2.734   2.379   7.145  1.3352 -1.3688  0.8871
  109OSM    C4S11140   2.680   2.285   6.838  0.3061 -0.1254  0.6548
  109OSM    H4S11141   2.657   2.329   6.740  1.3658  1.7040  1.1838
  109OSM    C5S11142   2.726   2.159   6.836  0.0066 -0.7879  0.0597
  109OSM    H5S11143   2.761   2.121   6.933 -0.8359  1.5417  1.3547
  109OSM    C6S11144   2.734   2.076   6.714  0.2174 -0.2100  0.3069
  109OSM    H6S11145   2.660   2.002   6.752 -0.3734  0.7166  0.9991
  109OSM    H6T11146   2.834   2.030   6.698  0.2962  0.2914 -0.6937
  109OSM    C7S11147   2.693   2.144   6.577 -0.3973  0.4738  0.0654
  109OSM    H7S11148   2.764   2.229   6.567 -0.8678  0.7538 -1.0082
  109OSM    H7T11149   2.591   2.187   6.588 -0.4223  0.8491 -1.4627
  109OSM    C8S11150   2.702   2.051   6.451  0.5323 -0.6333  0.1677
  109OSM    H8S11151   2.622   1.979   6.482 -1.9154  2.6586  2.1812
  109OSM    H8T11152   2.798   1.996   6.443  1.3538  0.9185 -0.9099
  109OSM    C9S11153   2.672   2.137   6.323  0.6353  0.2231 -0.1259
  109OSM    H9S11154   2.749   2.217   6.309 -1.4832  2.2035 -1.1430
  109OSM    H9T11155   2.576   2.191   6.336 -0.1951 -0.8924 -1.4562
  109OSM   C10S11156   2.654   2.053   6.197 -0.5220 -0.5945  0.1200
  109OSM   H10S11157   2.586   1.968   6.219 -0.6198 -0.5578 -0.0336
  109OSM   H10T11158   2.747   2.010   6.156 -0.4530  0.8635 -1.3588
  109OSM   C11S11159   2.606   2.144   6.083  0.2484 -0.0595  0.3390
  109OSM   H11S11160   2.686   2.217   6.056  1.2308 -1.7876 -1.7020
  109OSM   H11T11161   2.516   2.198   6.118  1.6291  1.6087  1.4966
  109OSM   C12S11162   2.571   2.076   5.946  0.7290  0.4180  0.1425
  109OSM   H12S11163   2.493   1.999   5.962  1.0217 -0.0449 -0.6113
  109OSM   H12T11164   2.667   2.029   5.915  0.6352  0.5162 -0.3033
  109OSM   C13S11165   2.527   2.181   5.842  0.3322  0.0915  0.2073
  109OSM   H13S11166   2.597   2.267   5.848  0.2483  0.1249  0.7587
  109OSM   H13T11167   2.431   2.227   5.873 -0.4401 -0.3375 -1.4691
  109OSM   C14S11168   2.506   2.123   5.694  0.1398  0.4335 -0.8245
  109OSM   H14S11169   2.472   2.207   5.630  3.3863  1.1772 -1.7821
  109OSM   H14T11170   2.434   2.039   5.699  1.2027 -0.5244 -0.9946
  109OSM   C15S11171   2.631   2.052   5.636 -0.3580 -0.1935 -0.9088
  109OSM   H15S11172   2.640   1.959   5.696  3.2524  1.5806  1.6703
  109OSM   H15T11173   2.723   2.112   5.655  0.5878 -1.9715  0.4254
  109OSM   C16S11174   2.618   2.042   5.488 -0.4654  1.0575  0.1839
  109OSM   H16S11175   2.581   2.137   5.443 -1.0033  0.4251 -0.7607
  109OSM   H16T11176   2.539   1.966   5.471 -0.7563  0.8267  2.3658
  109OSM   C17S11177   2.751   1.995   5.419 -0.0006  0.2870 -0.3953
  109OSM   H17S11178   2.799   1.916   5.480  0.5637  0.1993 -0.9511
  109OSM   H17T11179   2.817   2.084   5.414 -1.4682  1.3681 -1.6754
  109OSM   C18S11180   2.718   1.943   5.281 -0.2967 -0.1793  0.6265
  109OSM   H18S11181   2.807   1.914   5.221 -1.2815 -1.0823 -0.4492
  109OSM   H18T11182   2.678   2.029   5.223  1.6805 -0.5490 -1.4160
  109OSM   H18U11183   2.639   1.865   5.279 -0.9657  0.4863  0.5918
  109OSM    C1F11184   2.874   2.650   6.776  0.0437  0.0863  0.4593
  109OSM     OF11185   2.977   2.673   6.837 -0.1323  0.4519 -0.1375
  109OSM    C2F11186   2.852   2.703   6.635 -0.5210 -0.1807 -0.3340
  109OSM    H2F11187   2.788   2.794   6.630 -1.1539 -0.6631 -1.5666
  109OSM    H2G11188   2.793   2.622   6.587 -0.4808 -0.3554 -0.0871
  109OSM    C3F11189   2.986   2.728   6.555 -0.3381  0.4708 -0.0871
  109OSM    H3F11190   3.046   2.635   6.565  0.7387  1.2628  1.0649
  109OSM    H3G11191   3.028   2.813   6.613 -1.2882  0.8677  0.0497
  109OSM    C4F11192   2.965   2.786   6.413  0.2617  0.3659 -0.3426
  109OSM    H4F11193   3.064   2.832   6.393  0.3079  1.9434  2.9627
  109OSM    H4G11194   2.888   2.865   6.420 -0.1007  0.1819 -1.8989
  109OSM    C5F11195   2.921   2.691   6.299 -0.0199 -0.0473 -0.4683
  109OSM    H5F11196   2.858   2.610   6.343  1.2743 -0.4967  0.6370
  109OSM    H5G11197   3.014   2.650   6.255  0.5895  1.8056 -0.9569
  109OSM    C6F11198   2.854   2.773   6.186 -0.3595  0.7005  0.2708
  109OSM    H6F11199   2.909   2.869   6.174 -0.0710  0.2892 -2.4042
  109OSM    H6G11200   2.748   2.800   6.206 -1.2776 -1.7900 -0.8657
  109OSM    C7F11201   2.848   2.698   6.050 -0.2204 -0.0731  1.1983
  109OSM    H7F11202   2.778   2.612   6.063  1.7551 -2.3855 -1.9590
  109OSM    H7G11203   2.950   2.654   6.044 -0.7368 -1.1270 -0.8945
  109OSM    C8F11204   2.804   2.791   5.933 -0.4239 -0.5266 -0.1277
  109OSM    H8F11205   2.883   2.866   5.908 -1.2261  0.3208 -0.1773
  109OSM    H8G11206   2.709   2.840   5.964  0.0536  0.5993 -0.3779
  109OSM    C9F11207   2.792   2.686   5.819 -0.5831 -0.4701  0.8876
  109OSM    H9F11208   2.700   2.627   5.818 -0.7233 -0.3167 -1.5643
  109OSM   C10F11209   2.859   2.685   5.706 -0.4239  0.2266 -0.3946
  109OSM   H10F11210   2.818   2.610   5.638  0.0950 -0.2112 -0.2274
  109OSM   C11F11211   2.947   2.789   5.648 -0.3734  0.0265  0.0352
  109OSM   H11F11212   3.044   2.747   5.615 -0.9486 -1.9283  0.6816
  109OSM   H11G11213   2.965   2.876   5.714  0.9506  0.6189 -1.0591
  109OSM   C12F11214   2.887   2.845   5.516 -0.1970 -0.2787  0.2778
  109OSM   H12F11215   2.781   2.876   5.531 -0.6251 -1.4735 -0.1298
  109OSM   H12G11216   2.880   2.760   5.444  1.7863 -0.5110  0.3032
  109OSM   C13F11217   2.961   2.963   5.451 -0.4098  0.1386 -0.9282
  109OSM   H13F11218   3.060   2.921   5.424  1.1149  1.6985  1.8600
  109OSM   H13G11219   2.994   3.038   5.525  0.7147 -1.8333  0.6578
  109OSM   C14F11220   2.887   3.019   5.332 -0.2561  0.7119 -0.3627
  109OSM   H14F11221   2.786   3.052   5.366 -0.1066  1.3382 -0.5075
  109OSM   H14G11222   2.878   2.937   5.258 -0.4303  1.0337 -0.7001
  109OSM   C15F11223   2.964   3.140   5.280 -0.3035  0.0774  0.1498
  109OSM   H15F11224   3.069   3.106   5.265 -0.7650 -1.6698  0.6710
  109OSM   H15G11225   2.981   3.226   5.348  0.8578  0.8368 -1.0351
  109OSM   C16F11226   2.914   3.192   5.143  0.1059  0.4430 -0.4623
  109OSM   H16F11227   2.997   3.218   5.073 -2.2533  1.4776 -3.0665
  109OSM   H16G11228   2.845   3.278   5.156 -1.4242 -1.0301  1.6295
  109OSM   C17F11229   2.834   3.088   5.057 -0.2407 -0.1356  0.4627
  109OSM   H17F11230   2.732   3.078   5.100 -0.1135 -1.1518  0.5477
  109OSM   H17G11231   2.885   2.989   5.055  1.9877  0.9422 -2.0122
  109OSM   C18F11232   2.817   3.129   4.910 -0.1950  0.2746 -0.5260
  109OSM   H18F11233   2.916   3.112   4.862  0.5084  0.6054  0.7447
  109OSM   H18G11234   2.806   3.240   4.902  1.0635  0.5757  1.2659
  109OSM   H18H11235   2.739   3.065   4.865  1.8087 -1.6943 -1.4017
  110OSM      N11236   6.396   5.754   7.475  0.2377 -0.2449  0.5074
  110OSM    C1511237   6.462   5.625   7.443 -0.2739  0.4134  0.2478
  110OSM   H15A11238   6.432   5.585   7.348 -2.6216 -2.2831  1.9693
  110OSM   H15B11239   6.447   5.544   7.513  2.6991 -1.6254 -1.2801
  110OSM   H15C11240   6.568   5.642   7.441 -0.2286  0.2340  0.9035
  110OSM    C1411241   6.427   5.864   7.375 -0.2220  0.7561  0.5597
  110OSM   H14A11242   6.394   5.841   7.274  2.8550 -0.3453 -0.3224
  110OSM   H14B11243   6.535   5.868   7.373 -0.1688 -0.5055 -0.8488
  110OSM   H14C11244   6.402   5.965   7.404  1.8225  1.6480 -0.6260
  110OSM    C1311245   6.245   5.729   7.489 -0.2804 -0.1333  0.2063
  110OSM   H13A11246   6.230   5.655   7.566  2.8453 -0.3520  0.6979
  110OSM   H13B11247   6.201   5.687   7.400  3.3522 -1.2480 -1.1949
  110OSM   H13C11248   6.196   5.824   7.508 -1.3687 -0.3960 -1.1417
  110OSM    C1211249   6.447   5.799   7.609  0.0778  0.3014  0.2059
  110OSM   H12A11250   6.448   5.729   7.690  0.7874  2.4522  2.1684
  110OSM   H12B11251   6.379   5.877   7.638  0.2820  0.3679  0.5079
  110OSM    C1111252   6.584   5.867   7.626 -0.0362 -0.0530  0.2795
  110OSM   H11A11253   6.595   5.900   7.732  3.3996 -3.9129  1.4004
  110OSM   H11B11254   6.593   5.959   7.564 -0.2450 -0.4613 -0.3620
  110OSM      P11255   6.837   5.778   7.619 -0.1251  0.0397  0.3951
  110OSM    O1311256   6.878   5.921   7.645  0.5447  0.6332 -0.2427
  110OSM    O1411257   6.869   5.673   7.720 -0.4691  0.2854  0.4442
  110OSM    O1111258   6.897   5.739   7.472 -0.5123  0.1807  0.2705
  110OSM    O1211259   6.683   5.772   7.592 -0.3106  0.3236  0.6572
  110OSM    C1S11260   6.841   5.797   7.361  0.2250 -0.4000  0.2476
  110OSM    H1S11261   6.899   5.888   7.334 -0.1294 -0.2401  0.0138
  110OSM    H1T11262   6.733   5.822   7.360 -0.4214 -2.9663 -0.5708
  110OSM     NF11263   6.821   5.795   7.109 -0.8501 -0.3294 -0.4412
  110OSM    HNF11264   6.730   5.792   7.068 -0.8648 -1.4878 -0.3600
  110OSM    C2S11265   6.850   5.713   7.230 -0.4594 -0.5310 -0.1896
  110OSM    H2S11266   6.957   5.681   7.226  0.2448  1.0264  2.8799
  110OSM    C3S11267   6.766   5.592   7.258  0.8108  0.5707  0.5171
  110OSM    H3S11268   6.661   5.623   7.275  0.8839 -0.3752  3.0059
  110OSM     O311269   6.782   5.525   7.387  0.1706  0.1152  0.3862
  110OSM    HO311270   6.839   5.592   7.426 -1.4298  0.7356  1.7500
  110OSM    C4S11271   6.783   5.489   7.140 -0.1620 -0.1329 -0.0892
  110OSM    H4S11272   6.889   5.473   7.118  0.3399  0.5364  1.6430
  110OSM    C5S11273   6.685   5.419   7.071  0.9272  0.1127  0.6215
  110OSM    H5S11274   6.580   5.437   7.097  0.2570  0.3123 -1.9446
  110OSM    C6S11275   6.709   5.342   6.946 -0.3147  0.0456 -0.1612
  110OSM    H6S11276   6.817   5.354   6.922 -0.7528  0.1319 -2.1985
  110OSM    H6T11277   6.665   5.387   6.855  0.6190 -0.3629 -0.8253
  110OSM    C7S11278   6.667   5.192   6.942 -0.4599  0.7023 -0.5238
  110OSM    H7S11279   6.559   5.184   6.922 -0.5946  1.8538 -0.3049
  110OSM    H7T11280   6.698   5.151   7.041  3.4165 -0.4648 -2.0347
  110OSM    C8S11281   6.741   5.115   6.829  0.3962  0.5171 -0.6037
  110OSM    H8S11282   6.720   5.006   6.830 -0.1204  0.5890 -1.8610
  110OSM    H8T11283   6.848   5.139   6.842  0.2089  0.9339  0.2434
  110OSM    C9S11284   6.682   5.160   6.695 -0.0901 -0.1226  0.6051
  110OSM    H9S11285   6.699   5.265   6.663  1.2316 -0.3331  0.5733
  110OSM    H9T11286   6.571   5.151   6.703 -0.4503 -0.0670 -2.7987
  110OSM   C10S11287   6.740   5.072   6.583  0.3045  0.0019  0.7527
  110OSM   H10S11288   6.737   4.962   6.598 -0.4165 -0.5486 -2.6028
  110OSM   H10T11289   6.841   5.096   6.545  0.0534 -0.3825 -0.1630
  110OSM   C11S11290   6.651   5.091   6.460  1.4561  0.5729 -0.1911
  110OSM   H11S11291   6.652   5.198   6.431 -2.4287 -0.2089 -4.3113
  110OSM   H11T11292   6.548   5.065   6.494  1.2106 -0.3422 -1.5474
  110OSM   C12S11293   6.687   4.997   6.348 -0.6063  0.2142  0.0410
  110OSM   H12S11294   6.677   4.892   6.381 -2.3027  0.6071  0.8882
  110OSM   H12T11295   6.793   5.017   6.322 -0.1546  0.7942  2.1703
  110OSM   C13S11296   6.604   5.019   6.222  0.0150  0.3743  0.0623
  110OSM   H13S11297   6.586   5.126   6.198 -0.8158  0.0404 -0.8663
  110OSM   H13T11298   6.507   4.978   6.255  1.5550 -2.6867  1.1344
  110OSM   C14S11299   6.659   4.943   6.099  0.4652  0.4847  0.2657
  110OSM   H14S11300   6.687   4.837   6.114  0.2525  0.1208 -1.6893
  110OSM   H14T11301   6.752   4.993   6.066  0.5491 -0.3201 -0.7617
  110OSM   C15S11302   6.557   4.948   5.972  0.0243 -0.2413 -0.8152
  110OSM   H15S11303   6.529   5.056   5.982 -0.7106 -0.5927  1.6282
  110OSM   H15T11304   6.468   4.890   6.006 -1.0519  2.0746  0.5788
  110OSM   C16S11305   6.603   4.915   5.830  0.4207 -0.0403 -0.3798
  110OSM   H16S11306   6.565   4.816   5.799 -0.8272 -0.1945  1.4742
  110OSM   H16T11307   6.713   4.900   5.830  0.4484  0.0111 -2.0051
  110OSM   C17S11308   6.579   5.022   5.727 -0.5673 -0.0598 -0.1403
  110OSM   H17S11309   6.619   5.117   5.769  2.7073 -0.9446 -0.9194
  110OSM   H17T11310   6.475   5.043   5.695 -1.1817  0.7419  2.2009
  110OSM   C18S11311   6.667   4.987   5.603  0.1112  0.4770 -1.0040
  110OSM   H18S11312   6.767   4.952   5.635  0.0703  0.7514 -0.5642
  110OSM   H18T11313   6.667   5.077   5.538 -0.5026 -0.2867 -2.0803
  110OSM   H18U11314   6.626   4.901   5.547  0.2742 -1.0371  1.0710
  110OSM    C1F11315   6.899   5.897   7.072  0.4523 -0.1178 -0.7037
  110OSM     OF11316   7.015   5.903   7.112 -0.5417 -0.1004  0.0886
  110OSM    C2F11317   6.842   5.990   6.973 -0.1653 -0.5632  0.4764
  110OSM    H2F11318   6.740   6.024   7.002 -0.3994  1.5140 -2.3018
  110OSM    H2G11319   6.836   5.943   6.872  0.2145  1.4293 -0.5272
  110OSM    C3F11320   6.926   6.126   6.953  0.0269 -0.4684  0.2129
  110OSM    H3F11321   7.023   6.092   6.911 -0.1503  0.7818 -1.2860
  110OSM    H3G11322   6.950   6.171   7.052  1.3607 -0.2607 -0.1953
  110OSM    C4F11323   6.851   6.222   6.863  0.2630 -0.0916  0.0254
  110OSM    H4F11324   6.758   6.261   6.910 -0.6497 -1.4360 -0.5985
  110OSM    H4G11325   6.819   6.174   6.768 -1.7408 -0.3624  0.7937
  110OSM    C5F11326   6.944   6.341   6.825  0.2782  0.9991 -0.0752
  110OSM    H5F11327   7.037   6.300   6.781  0.3731 -0.4763  1.4008
  110OSM    H5G11328   6.979   6.383   6.922  1.1156 -2.8346  1.4741
  110OSM    C6F11329   6.870   6.438   6.733 -0.4180 -0.5069  0.5100
  110OSM    H6F11330   6.790   6.492   6.788 -1.1859 -1.8792  0.8017
  110OSM    H6G11331   6.823   6.373   6.656  0.9263 -0.4208 -0.4090
  110OSM    C7F11332   6.951   6.547   6.658  0.0781 -0.3754  0.1421
  110OSM    H7F11333   6.994   6.630   6.717  1.8837 -0.1285 -1.4214
  110OSM    H7G11334   6.888   6.592   6.578  0.9073  1.4016  0.4415
  110OSM    C8F11335   7.065   6.485   6.572 -0.2096  0.0060  0.9164
  110OSM    H8F11336   7.145   6.447   6.639 -0.1964 -0.7393  0.4845
  110OSM    H8G11337   7.119   6.560   6.509 -0.1258 -1.2443 -0.5481
  110OSM    C9F11338   7.022   6.366   6.480 -0.3139  0.6562 -0.0247
  110OSM    H9F11339   6.975   6.283   6.535  0.0494  1.0498  0.9092
  110OSM   C10F11340   7.021   6.363   6.349 -0.3140 -0.6195 -0.2138
  110OSM   H10F11341   6.990   6.272   6.294 -1.0996 -0.4749 -0.0314
  110OSM   C11F11342   7.065   6.474   6.257 -0.3177 -0.3898  0.7092
  110OSM   H11F11343   7.095   6.570   6.305 -0.2539  1.6372 -3.0162
  110OSM   H11G11344   6.976   6.514   6.204 -0.9442 -0.3873  1.7404
  110OSM   C12F11345   7.189   6.437   6.166 -0.0192 -0.2649  0.0869
  110OSM   H12F11346   7.260   6.385   6.233 -0.5445  1.0560  1.7229
  110OSM   H12G11347   7.229   6.529   6.119  1.2064 -0.1089  1.3772
  110OSM   C13F11348   7.154   6.349   6.045  0.1933 -0.2967 -0.3899
  110OSM   H13F11349   7.071   6.388   5.983 -2.0918 -0.3080  2.4589
  110OSM   H13G11350   7.114   6.248   6.070 -1.9987  0.4611 -0.6068
  110OSM   C14F11351   7.272   6.338   5.951 -0.1688  0.4193  0.4044
  110OSM   H14F11352   7.356   6.311   6.019  0.3155 -0.9712 -0.6981
  110OSM   H14G11353   7.290   6.436   5.902  0.3238  0.6846  1.1050
  110OSM   C15F11354   7.240   6.224   5.849  0.4635  0.4528 -0.6331
  110OSM   H15F11355   7.144   6.250   5.800 -0.7053  0.6581  1.6259
  110OSM   H15G11356   7.219   6.133   5.910  0.1349  1.5314  0.9109
  110OSM   C16F11357   7.347   6.212   5.734  0.0752 -0.0460  0.2237
  110OSM   H16F11358   7.450   6.214   5.776 -0.2898 -2.1921  1.3755
  110OSM   H16G11359   7.346   6.299   5.664 -1.0461 -1.6667 -1.9006
  110OSM   C17F11360   7.317   6.087   5.651  0.1150 -0.5785 -0.0061
  110OSM   H17F11361   7.305   6.002   5.722  1.1809 -2.6828 -2.1745
  110OSM   H17G11362   7.406   6.055   5.591 -0.7316 -0.9019 -1.1347
  110OSM   C18F11363   7.195   6.097   5.550 -0.2673  0.3223  0.2095
  110OSM   H18F11364   7.101   6.109   5.607 -0.1123 -0.3970  0.6263
  110OSM   H18G11365   7.203   6.012   5.479 -0.4133  0.1658  0.3798
  110OSM   H18H11366   7.202   6.184   5.481 -0.0146 -0.2441 -0.4990
  111OSM      N11367   1.633   5.320   7.312 -0.4712 -0.1272  0.4506
  111OSM    C1511368   1.639   5.469   7.329  0.2919 -0.0063  0.0697
  111OSM   H15A11369   1.737   5.510   7.309 -0.4226  2.6302  1.4093
  111OSM   H15B11370   1.609   5.502   7.428  2.7882  1.7923  0.3334
  111OSM   H15C11371   1.573   5.518   7.258 -0.6642 -1.0388  0.2177
  111OSM    C1411372   1.733   5.263   7.412  0.5049 -0.0582 -0.1740
  111OSM   H14A11373   1.835   5.285   7.385  0.4983 -0.9866 -1.0573
  111OSM   H14B11374   1.719   5.156   7.418 -4.5529  0.4079  1.3109
  111OSM   H14C11375   1.716   5.297   7.513 -2.6843  2.4104 -1.3422
  111OSM    C1311376   1.494   5.268   7.354  0.3356  0.5757 -0.4227
  111OSM   H13A11377   1.414   5.309   7.294 -0.0193  0.3623 -0.1033
  111OSM   H13B11378   1.474   5.304   7.454 -1.9842  0.4603 -0.7953
  111OSM   H13C11379   1.488   5.162   7.336  0.6801  0.8050 -2.0912
  111OSM    C1211380   1.663   5.276   7.170 -0.0073 -0.0108 -0.2398
  111OSM   H12A11381   1.600   5.333   7.104  0.1505  0.9078  0.3872
  111OSM   H12B11382   1.631   5.173   7.168 -0.2948 -0.0021  1.9869
  111OSM    C1111383   1.809   5.270   7.119  0.1538  1.1397  0.4065
  111OSM   H11A11384   1.875   5.358   7.133  0.0114  0.9623  2.3658
  111OSM   H11B11385   1.798   5.260   7.008 -0.7142 -0.1405  0.5768
  111OSM      P11386   1.843   5.008   7.139 -0.3052  0.1140 -0.0092
  111OSM    O1311387   1.924   4.932   7.237  0.3277  0.3587  0.2403
  111OSM    O1411388   1.697   4.988   7.142  0.0120  0.6034  0.0281
  111OSM    O1111389   1.908   4.972   7.001 -1.0360  0.2516 -0.0625
  111OSM    O1211390   1.880   5.158   7.161  0.6746  0.4824  1.0630
  111OSM    C1S11391   1.887   5.019   6.871  0.8295  0.1678 -0.1870
  111OSM    H1S11392   1.898   5.129   6.872 -3.6390  0.9311 -3.3027
  111OSM    H1T11393   1.785   4.989   6.839  0.5984  1.1648 -0.3911
  111OSM     NF11394   1.944   5.012   6.634 -0.3671  0.1192 -0.3573
  111OSM    HNF11395   1.906   4.948   6.568  0.2664 -1.0606  0.3592
  111OSM    C2S11396   1.977   4.955   6.766 -0.0165  0.0887  0.5757
  111OSM    H2S11397   2.079   4.987   6.794  0.2620 -1.6969  1.7573
  111OSM    C3S11398   1.984   4.803   6.773 -0.5559  0.0764 -0.6120
  111OSM    H3S11399   1.888   4.754   6.744 -0.4096  0.8832 -2.6067
  111OSM     O311400   2.022   4.749   6.900  0.2425  0.6930  0.1439
  111OSM    HO311401   2.027   4.821   6.964 -1.7072 -0.7613  2.0865
  111OSM    C4S11402   2.100   4.760   6.687  0.3912 -0.1958  0.0585
  111OSM    H4S11403   2.201   4.769   6.729  1.1152 -2.8788 -0.8602
  111OSM    C5S11404   2.089   4.707   6.561  0.8082 -0.6780  0.0470
  111OSM    H5S11405   1.992   4.683   6.516 -0.0506  1.7315  0.4565
  111OSM    C6S11406   2.208   4.667   6.478 -0.2359 -0.1813  0.0584
  111OSM    H6S11407   2.178   4.648   6.373  2.3176  1.8912 -1.1534
  111OSM    H6T11408   2.259   4.581   6.528 -0.0568  0.0432  0.2629
  111OSM    C7S11409   2.313   4.781   6.462 -0.5199  0.1563  0.4782
  111OSM    H7S11410   2.340   4.839   6.552  0.0500 -0.3873  0.6566
  111OSM    H7T11411   2.262   4.860   6.402  1.7301  2.0277  0.8723
  111OSM    C8S11412   2.432   4.734   6.382 -0.2719 -0.6501  0.3981
  111OSM    H8S11413   2.487   4.652   6.432 -0.2645 -0.2849  1.0023
  111OSM    H8T11414   2.494   4.824   6.360  0.7294 -1.8863 -2.1576
  111OSM    C9S11415   2.398   4.683   6.238 -0.0497 -1.0640  0.1810
  111OSM    H9S11416   2.330   4.755   6.187  0.4322 -1.4083 -0.9917
  111OSM    H9T11417   2.358   4.580   6.229  1.3426 -1.6807  0.7764
  111OSM   C10S11418   2.517   4.676   6.143  0.1791 -0.1713  0.0053
  111OSM   H10S11419   2.574   4.583   6.167  0.0669 -0.4186 -0.6757
  111OSM   H10T11420   2.580   4.766   6.158 -0.0748  0.0884 -0.4886
  111OSM   C11S11421   2.474   4.655   6.000  0.1005 -0.1968  0.1113
  111OSM   H11S11422   2.422   4.749   5.972  0.5762 -0.6597 -2.5777
  111OSM   H11T11423   2.406   4.567   6.000  0.6545 -0.6421  1.2910
  111OSM   C12S11424   2.603   4.640   5.921  0.5279  0.0837 -0.2833
  111OSM   H12S11425   2.651   4.551   5.969 -1.3035 -1.3467 -0.9864
  111OSM   H12T11426   2.675   4.722   5.938  1.9741 -0.5549 -2.7998
  111OSM   C13S11427   2.577   4.612   5.776 -0.5540  0.5350 -0.1955
  111OSM   H13S11428   2.537   4.700   5.721  0.8103  0.5327 -1.2511
  111OSM   H13T11429   2.503   4.530   5.769 -1.2745  1.0455  1.0814
  111OSM   C14S11430   2.699   4.564   5.685  0.0714 -0.2981 -0.2111
  111OSM   H14S11431   2.741   4.476   5.739 -0.3606  0.1962  0.9612
  111OSM   H14T11432   2.771   4.648   5.690  0.0585 -0.2964 -0.0457
  111OSM   C15S11433   2.666   4.526   5.547 -1.3088 -0.2798  0.6244
  111OSM   H15S11434   2.619   4.426   5.557 -0.4348 -0.5997  1.7748
  111OSM   H15T11435   2.750   4.498   5.480 -2.8526 -0.6174 -1.2651
  111OSM   C16S11436   2.567   4.617   5.463 -0.0171  0.4552 -0.7571
  111OSM   H16S11437   2.607   4.721   5.462 -1.8394  1.1914 -0.1136
  111OSM   H16T11438   2.468   4.611   5.513  1.0564  0.5171  1.5357
  111OSM   C17S11439   2.543   4.567   5.322  0.7109 -0.1334 -0.0417
  111OSM   H17S11440   2.640   4.557   5.268 -0.1347 -0.0692 -1.6170
  111OSM   H17T11441   2.499   4.648   5.260  0.2170 -1.2029 -1.1346
  111OSM   C18S11442   2.457   4.445   5.310  0.5914  0.2749 -0.5430
  111OSM   H18S11443   2.443   4.418   5.203 -2.7015  2.5202 -0.8127
  111OSM   H18T11444   2.354   4.463   5.346  0.2836 -2.3459  0.1447
  111OSM   H18U11445   2.506   4.359   5.362 -0.9674 -1.4696 -1.8109
  111OSM    C1F11446   1.957   5.142   6.602  0.7748 -0.0657 -0.3093
  111OSM     OF11447   2.008   5.228   6.669  0.3413 -0.4293 -0.6194
  111OSM    C2F11448   1.872   5.184   6.486 -0.5790 -0.0647 -0.8108
  111OSM    H2F11449   1.837   5.288   6.506 -0.8591 -0.2459 -0.3599
  111OSM    H2G11450   1.783   5.119   6.482  1.1800 -3.1691  3.2260
  111OSM    C3F11451   1.957   5.173   6.352 -0.2649 -0.3078 -0.3437
  111OSM    H3F11452   2.022   5.082   6.353 -0.9775 -0.8510 -1.5107
  111OSM    H3G11453   2.041   5.246   6.354  0.8253 -1.4827  1.9430
  111OSM    C4F11454   1.881   5.184   6.220  0.2920 -0.0286 -0.0767
  111OSM    H4F11455   1.833   5.285   6.225  0.7487  0.1456  1.5831
  111OSM    H4G11456   1.802   5.106   6.216  0.2460 -0.0312  0.6884
  111OSM    C5F11457   1.959   5.173   6.089  0.0875 -0.1580  0.4419
  111OSM    H5F11458   2.022   5.082   6.094 -0.5284 -0.5856  0.5033
  111OSM    H5G11459   2.026   5.262   6.084  0.2578 -0.2884  0.3808
  111OSM    C6F11460   1.882   5.160   5.958  0.0083 -0.1292  0.0030
  111OSM    H6F11461   1.812   5.074   5.956 -2.2309  1.6130 -0.7233
  111OSM    H6G11462   1.960   5.142   5.881 -0.9431 -0.8458 -0.8100
  111OSM    C7F11463   1.790   5.278   5.920  0.6478  0.2026 -0.2728
  111OSM    H7F11464   1.848   5.372   5.920 -1.0080  1.2557 -0.3828
  111OSM    H7G11465   1.701   5.282   5.987 -1.0866 -2.0482 -2.2558
  111OSM    C8F11466   1.726   5.266   5.779  0.8782 -0.4225  0.4525
  111OSM    H8F11467   1.693   5.161   5.778  2.0844 -0.8216 -0.2113
  111OSM    H8G11468   1.810   5.274   5.706 -0.7335  0.4425 -1.3923
  111OSM    C9F11469   1.615   5.368   5.753 -0.0235  0.6452 -0.2762
  111OSM    H9F11470   1.577   5.410   5.848  1.1103 -1.5023  1.2153
  111OSM   C10F11471   1.562   5.410   5.637 -0.6598  0.1167 -0.4062
  111OSM   H10F11472   1.488   5.491   5.633 -0.9064 -0.0988 -0.2504
  111OSM   C11F11473   1.610   5.360   5.502  0.3428 -0.5150 -0.2408
  111OSM   H11F11474   1.692   5.285   5.501 -0.4082 -1.3951 -2.1979
  111OSM   H11G11475   1.651   5.438   5.434 -0.3972  1.0869  1.0719
  111OSM   C12F11476   1.488   5.306   5.430  0.3074 -0.4322 -0.2070
  111OSM   H12F11477   1.413   5.387   5.417 -0.0957 -1.1292 -2.6670
  111OSM   H12G11478   1.441   5.223   5.487  0.4258  0.3772  1.1038
  111OSM   C13F11479   1.522   5.252   5.297  0.5760 -0.4618 -0.0016
  111OSM   H13F11480   1.614   5.190   5.294  0.6522 -0.2951 -1.7251
  111OSM   H13G11481   1.552   5.338   5.233  0.0553 -0.7529 -0.6463
  111OSM   C14F11482   1.399   5.181   5.240  0.2337 -0.2122  0.1001
  111OSM   H14F11483   1.319   5.255   5.219  0.7843  0.0180 -1.3141
  111OSM   H14G11484   1.363   5.110   5.318 -0.0083  1.7271  1.8429
  111OSM   C15F11485   1.424   5.083   5.121  0.1243  0.2287  0.2539
  111OSM   H15F11486   1.523   5.034   5.132 -0.0424 -0.2062 -0.1448
  111OSM   H15G11487   1.422   5.144   5.028  2.8618 -2.4650 -1.7538
  111OSM   C16F11488   1.319   4.972   5.104  0.6191  0.1766 -0.0168
  111OSM   H16F11489   1.212   4.994   5.127  0.9268  1.0326  0.6296
  111OSM   H16G11490   1.343   4.902   5.187  1.4514  1.9982  1.3315
  111OSM   C17F11491   1.328   4.902   4.968 -0.3618 -0.1321 -0.6778
  111OSM   H17F11492   1.278   4.803   4.973 -0.7577  0.1020  0.2289
  111OSM   H17G11493   1.438   4.888   4.968 -0.0805  0.7835  3.4007
  111OSM   C18F11494   1.273   4.990   4.852  0.5990  0.2739  0.3677
  111OSM   H18F11495   1.330   5.085   4.848  1.2171  0.3665  5.0121
  111OSM   H18G11496   1.164   5.006   4.865  0.3268 -1.0499 -0.0738
  111OSM   H18H11497   1.282   4.942   4.752 -1.1367  0.2222  0.2054
  112OSM      N11498   4.919   6.685   7.616  0.3041 -0.3655  0.1739
  112OSM    C1511499   5.025   6.578   7.651 -0.0477 -0.6400  0.2349
  112OSM   H15A11500   5.022   6.492   7.587 -1.4721 -1.2374  1.0528
  112OSM   H15B11501   5.011   6.556   7.756  1.9116  0.8867  0.8767
  112OSM   H15C11502   5.124   6.622   7.646 -0.0265 -0.8441 -2.5937
  112OSM    C1411503   4.782   6.635   7.635  0.0302 -0.0998  0.2511
  112OSM   H14A11504   4.764   6.560   7.560  2.1165 -0.4310  0.0097
  112OSM   H14B11505   4.710   6.711   7.609  0.3456  0.1014 -0.0514
  112OSM   H14C11506   4.771   6.598   7.736 -0.4319 -2.0318 -0.4764
  112OSM    C1311507   4.941   6.801   7.705 -0.6691 -0.1420 -0.6934
  112OSM   H13A11508   4.884   6.884   7.666 -0.9480  1.4440  2.7477
  112OSM   H13B11509   5.045   6.819   7.731 -1.3292 -0.1413  2.2379
  112OSM   H13C11510   4.897   6.782   7.802  1.3009 -0.4242  0.2044
  112OSM    C1211511   4.941   6.729   7.476 -0.0509  0.5501 -0.7866
  112OSM   H12A11512   4.974   6.642   7.421 -1.9139  0.0629 -1.2084
  112OSM   H12B11513   5.031   6.788   7.471  0.6979 -0.2409  1.9968
  112OSM    C1111514   4.832   6.802   7.395  0.4617  0.1264 -0.4068
  112OSM   H11A11515   4.731   6.757   7.404 -0.5103  2.4638  1.2441
  112OSM   H11B11516   4.868   6.794   7.290  2.9287  1.0932  0.2832
  112OSM      P11517   4.847   7.065   7.358 -0.1263  0.0012  0.3344
  112OSM    O1311518   4.774   7.176   7.410  0.7819  0.1680  0.0991
  112OSM    O1411519   4.997   7.080   7.358  0.7210  0.1309 -0.3870
  112OSM    O1111520   4.799   7.017   7.214 -0.6914  0.0013 -0.2247
  112OSM    O1211521   4.827   6.934   7.445 -0.0976 -0.4740  0.2867
  112OSM    C1S11522   4.655   7.016   7.198 -1.0331  0.1601 -0.2821
  112OSM    H1S11523   4.613   7.107   7.246  1.2037 -0.7763  3.8863
  112OSM    H1T11524   4.609   6.934   7.257 -1.0669 -1.3711 -2.3099
  112OSM     NF11525   4.500   7.075   7.008  0.0479  0.1361 -0.1742
  112OSM    HNF11526   4.426   7.029   6.959 -1.5476  2.1058  0.2215
  112OSM    C2S11527   4.627   7.011   7.045 -0.4763  0.1073  0.5900
  112OSM    H2S11528   4.712   7.067   7.002  0.3851 -0.6512  1.2623
  112OSM    C3S11529   4.650   6.862   6.990 -0.0349 -1.0051 -0.2705
  112OSM    H3S11530   4.559   6.800   7.004 -0.8466  0.4467  1.0570
  112OSM     O311531   4.766   6.804   7.056 -0.2876  0.0601  0.0118
  112OSM    HO311532   4.779   6.865   7.129  0.2862 -0.4206  0.3162
  112OSM    C4S11533   4.684   6.875   6.837 -0.0728  0.1805 -1.0675
  112OSM    H4S11534   4.782   6.916   6.807 -1.0760  2.3587 -1.6092
  112OSM    C5S11535   4.588   6.890   6.742 -0.5035  0.3447  0.3647
  112OSM    H5S11536   4.482   6.875   6.769 -0.6584 -0.9170 -0.8481
  112OSM    C6S11537   4.607   6.933   6.597  0.8491  0.1548 -0.6781
  112OSM    H6S11538   4.708   6.976   6.582  1.5044 -0.8248  0.6648
  112OSM    H6T11539   4.536   7.012   6.563 -0.1040 -0.5094 -0.2875
  112OSM    C7S11540   4.603   6.804   6.513 -0.0701  0.0862  0.0669
  112OSM    H7S11541   4.502   6.759   6.518 -0.0260 -0.0217 -0.0048
  112OSM    H7T11542   4.671   6.724   6.550 -0.7727 -0.3266  0.4819
  112OSM    C8S11543   4.638   6.827   6.367 -0.3692  0.0333  0.5231
  112OSM    H8S11544   4.747   6.848   6.361  0.3023 -2.7816  1.3033
  112OSM    H8T11545   4.587   6.917   6.327  0.2854 -0.3794 -1.4040
  112OSM    C9S11546   4.595   6.710   6.280 -0.3080  0.3199  0.3734
  112OSM    H9S11547   4.486   6.687   6.291 -0.5802  0.6293 -1.3686
  112OSM    H9T11548   4.646   6.623   6.327  2.0430  0.9198 -0.9399
  112OSM   C10S11549   4.630   6.716   6.130 -0.5498  0.5921  0.4544
  112OSM   H10S11550   4.735   6.682   6.112 -0.8202  0.1978 -0.4389
  112OSM   H10T11551   4.636   6.819   6.088  0.0835  0.0877 -0.7522
  112OSM   C11S11552   4.540   6.625   6.036 -0.6001 -0.4843  0.1177
  112OSM   H11S11553   4.439   6.666   6.019 -0.6368 -0.9973 -1.0053
  112OSM   H11T11554   4.535   6.526   6.085  2.7634  0.4009  2.6518
  112OSM   C12S11555   4.585   6.611   5.895 -0.3653  0.2452  0.4436
  112OSM   H12S11556   4.690   6.578   5.909 -0.1013  1.2372  0.9201
  112OSM   H12T11557   4.583   6.709   5.843 -2.1052  0.1046  0.1821
  112OSM   C13S11558   4.497   6.514   5.814  0.5137  0.3993  0.7437
  112OSM   H13S11559   4.394   6.550   5.796  0.6414  0.3926 -0.0319
  112OSM   H13T11560   4.480   6.411   5.852  0.7517 -0.5841 -1.6339
  112OSM   C14S11561   4.566   6.501   5.678  0.2377  0.7197 -0.5014
  112OSM   H14S11562   4.671   6.476   5.707  0.3561 -0.1450 -1.6200
  112OSM   H14T11563   4.565   6.600   5.627 -0.4323 -0.0414 -2.0310
  112OSM   C15S11564   4.493   6.404   5.594  0.0566 -0.2403  0.1844
  112OSM   H15S11565   4.467   6.316   5.657  2.9178 -0.5414  1.1310
  112OSM   H15T11566   4.557   6.358   5.516 -1.1613 -1.2682 -0.2248
  112OSM   C16S11567   4.359   6.464   5.542  0.0922  0.6008  0.1436
  112OSM   H16S11568   4.295   6.494   5.628  0.4401  1.3258  0.1488
  112OSM   H16T11569   4.303   6.379   5.496  0.0693  0.1377  0.9960
  112OSM   C17S11570   4.360   6.586   5.439  0.0897  0.2362  0.2576
  112OSM   H17S11571   4.356   6.683   5.493 -2.5764  1.3323 -1.6679
  112OSM   H17T11572   4.264   6.575   5.384 -0.1692 -3.0811  1.1705
  112OSM   C18S11573   4.470   6.590   5.336 -0.1843 -0.1519 -0.5471
  112OSM   H18S11574   4.566   6.574   5.390 -2.0974 -0.4246  3.1308
  112OSM   H18T11575   4.452   6.685   5.281  0.5696 -0.6113 -1.5948
  112OSM   H18U11576   4.454   6.514   5.257  1.7754 -0.4592 -0.6823
  112OSM    C1F11577   4.469   7.201   7.037  0.0878 -0.6469 -0.4629
  112OSM     OF11578   4.554   7.279   7.064 -0.6942 -0.0361  0.3391
  112OSM    C2F11579   4.330   7.246   7.045  0.1894  0.7335 -0.5574
  112OSM    H2F11580   4.305   7.269   7.151 -1.2762  0.6104 -0.8459
  112OSM    H2G11581   4.260   7.165   7.015 -0.7444  1.9934 -1.9590
  112OSM    C3F11582   4.306   7.370   6.951 -0.1164  0.2710  0.5771
  112OSM    H3F11583   4.371   7.456   6.977  1.1329 -0.6502  0.5871
  112OSM    H3G11584   4.198   7.393   6.950 -0.3203 -0.6468  0.7836
  112OSM    C4F11585   4.353   7.345   6.803  0.3458 -0.0925 -0.8478
  112OSM    H4F11586   4.303   7.251   6.771 -0.9183  0.9628 -2.1329
  112OSM    H4G11587   4.463   7.342   6.808  0.3659  0.9762 -0.2394
  112OSM    C5F11588   4.315   7.460   6.705 -0.4624  0.7877  0.2741
  112OSM    H5F11589   4.386   7.545   6.715 -0.1246  0.7931 -1.7563
  112OSM    H5G11590   4.211   7.498   6.713 -0.8297 -0.2348  0.5773
  112OSM    C6F11591   4.321   7.399   6.563  0.3853  0.0019 -0.4469
  112OSM    H6F11592   4.256   7.309   6.562 -2.9085  2.1838 -1.1701
  112OSM    H6G11593   4.425   7.372   6.536  0.4191  0.0758 -0.3924
  112OSM    C7F11594   4.263   7.491   6.459  0.0810 -0.1763  1.0196
  112OSM    H7F11595   4.308   7.593   6.468  1.3074 -0.5857 -0.1754
  112OSM    H7G11596   4.153   7.497   6.470  0.2732  0.4712  3.0553
  112OSM    C8F11597   4.297   7.426   6.322 -0.0045 -0.5531 -0.0244
  112OSM    H8F11598   4.244   7.328   6.323  0.0992 -0.6278 -0.7921
  112OSM    H8G11599   4.407   7.413   6.311  0.2713  2.0782 -1.3222
  112OSM    C9F11600   4.239   7.497   6.205 -0.0146  0.0773  0.6774
  112OSM    H9F11601   4.143   7.547   6.224  0.1153  0.6620 -0.1392
  112OSM   C10F11602   4.301   7.528   6.092 -0.3513  0.1723  0.1393
  112OSM   H10F11603   4.232   7.582   6.025  0.3571  1.4477  0.4160
  112OSM   C11F11604   4.436   7.477   6.046  0.3946 -0.5014  0.2233
  112OSM   H11F11605   4.442   7.366   6.057  2.2843 -0.5203 -0.7261
  112OSM   H11G11606   4.526   7.508   6.103  1.5820  1.0497 -2.3165
  112OSM   C12F11607   4.463   7.528   5.904  0.5412  0.3895  0.4246
  112OSM   H12F11608   4.566   7.499   5.874  0.0424  0.2332 -1.2842
  112OSM   H12G11609   4.466   7.638   5.891  0.1332  0.5213  1.4067
  112OSM   C13F11610   4.357   7.462   5.809 -0.5123  0.1609 -0.4531
  112OSM   H13F11611   4.269   7.531   5.808 -1.7111 -1.3108 -1.5741
  112OSM   H13G11612   4.319   7.368   5.854  0.1197 -0.0477 -0.3452
  112OSM   C14F11613   4.413   7.425   5.672  0.1741  0.7652 -0.8152
  112OSM   H14F11614   4.346   7.349   5.626  2.1136 -0.3203 -2.0045
  112OSM   H14G11615   4.514   7.379   5.684  0.9049  2.3244 -0.7744
  112OSM   C15F11616   4.415   7.540   5.576 -0.1626  0.1428  0.3926
  112OSM   H15F11617   4.508   7.596   5.598  0.1984 -0.4139  0.3074
  112OSM   H15G11618   4.327   7.606   5.588  0.3506  1.3581 -1.9403
  112OSM   C16F11619   4.412   7.494   5.425  0.6454  0.5427  0.0356
  112OSM   H16F11620   4.309   7.459   5.403 -0.1687  2.9933 -0.3389
  112OSM   H16G11621   4.476   7.404   5.415 -0.6955 -0.5118  0.6475
  112OSM   C17F11622   4.445   7.599   5.316  0.0739 -0.2559 -0.1543
  112OSM   H17F11623   4.552   7.580   5.296  0.3245  0.0545  0.8208
  112OSM   H17G11624   4.435   7.695   5.372 -2.4532 -0.6869  0.2550
  112OSM   C18F11625   4.350   7.595   5.193 -0.5468 -0.0115 -0.3617
  112OSM   H18F11626   4.247   7.627   5.220 -0.5491 -0.3828  0.0899
  112OSM   H18G11627   4.337   7.497   5.143 -1.7398  0.5612 -1.2265
  112OSM   H18H11628   4.393   7.668   5.122 -0.5999  0.2416 -0.1357
  113OSM      N11629   1.993   3.264   7.615 -0.3779  0.3122  0.0470
  113OSM    C1511630   2.129   3.217   7.566  0.0917 -0.8007  0.7057
  113OSM   H15A11631   2.189   3.298   7.527  1.9954 -2.2667  0.4025
  113OSM   H15B11632   2.100   3.157   7.481 -0.6480  1.8713 -1.0341
  113OSM   H15C11633   2.182   3.161   7.642  1.5275  1.2480  1.3079
  113OSM    C1411634   1.905   3.142   7.646  1.4599 -0.2093  0.1196
  113OSM   H14A11635   1.879   3.086   7.558  0.1294 -0.5800  0.7112
  113OSM   H14B11636   1.827   3.183   7.709  1.9974 -0.3578  0.8975
  113OSM   H14C11637   1.957   3.070   7.708 -0.2198 -0.1111  1.7554
  113OSM    C1311638   2.009   3.351   7.737 -0.2896 -0.2592  0.5102
  113OSM   H13A11639   1.912   3.392   7.762  1.2728  4.0905  0.3531
  113OSM   H13B11640   2.076   3.428   7.701 -3.2238  1.3044 -2.0454
  113OSM   H13C11641   2.064   3.305   7.818 -1.1603  0.4950  1.5500
  113OSM    C1211642   1.921   3.341   7.507  0.1124 -0.2738  0.6959
  113OSM   H12A11643   1.986   3.422   7.480  0.4561 -1.0416 -0.8602
  113OSM   H12B11644   1.831   3.390   7.541  0.3533  0.9936 -0.4229
  113OSM    C1111645   1.879   3.273   7.375  0.4669 -0.0262 -0.1339
  113OSM   H11A11646   1.954   3.207   7.328 -1.0355 -0.2564 -2.3476
  113OSM   H11B11647   1.862   3.353   7.299  1.4337  1.1219  0.8104
  113OSM      P11648   1.611   3.261   7.378 -0.1399 -0.1710  0.2435
  113OSM    O1311649   1.503   3.158   7.387  0.1523 -0.3097  0.3434
  113OSM    O1411650   1.607   3.373   7.475  0.8235 -0.1290  0.4012
  113OSM    O1111651   1.609   3.321   7.233  0.1930  0.5962  0.0075
  113OSM    O1211652   1.758   3.195   7.391 -0.2781  0.1030  0.0065
  113OSM    C1S11653   1.671   3.249   7.127 -0.4065  0.2334  0.1831
  113OSM    H1S11654   1.714   3.150   7.152  2.0931  0.8408 -1.4023
  113OSM    H1T11655   1.740   3.320   7.078  0.1659 -1.1254 -1.0482
  113OSM     NF11656   1.623   3.124   6.914  0.5259  0.0387  0.2401
  113OSM    HNF11657   1.648   3.170   6.829  1.5882 -0.2786  0.3646
  113OSM    C2S11658   1.564   3.213   7.012  0.5147 -0.1326  0.3827
  113OSM    H2S11659   1.477   3.163   7.061  2.7588 -2.0735  2.6930
  113OSM    C3S11660   1.509   3.348   6.946  0.0237  0.1372 -0.1732
  113OSM    H3S11661   1.587   3.386   6.876  1.5537 -2.9020 -0.2943
  113OSM     O311662   1.495   3.459   7.038 -0.1282 -0.5705  0.0806
  113OSM    HO311663   1.542   3.443   7.120  1.4467  2.3009 -0.1186
  113OSM    C4S11664   1.379   3.318   6.875 -0.2594 -0.8574  0.7491
  113OSM    H4S11665   1.394   3.285   6.771  0.9167 -1.6866  1.1579
  113OSM    C5S11666   1.255   3.322   6.929 -0.1721 -0.5130  0.4052
  113OSM    H5S11667   1.236   3.357   7.031 -0.6106 -2.7464  1.1580
  113OSM    C6S11668   1.134   3.274   6.855  0.4051 -0.0934  0.2516
  113OSM    H6S11669   1.066   3.362   6.852  1.6888  0.9259  0.3321
  113OSM    H6T11670   1.087   3.196   6.919 -1.7916 -0.6988 -1.9506
  113OSM    C7S11671   1.149   3.226   6.710  0.4626 -0.5673 -0.1376
  113OSM    H7S11672   1.211   3.134   6.703  0.2373 -0.7603  0.3766
  113OSM    H7T11673   1.186   3.309   6.646 -0.7229 -0.6386 -0.9476
  113OSM    C8S11674   1.009   3.199   6.643 -0.1096  0.3654  0.6689
  113OSM    H8S11675   0.947   3.286   6.674  0.0893  1.0378 -0.7446
  113OSM    H8T11676   0.956   3.116   6.695  0.5891 -0.1987  0.4989
  113OSM    C9S11677   1.025   3.186   6.491  0.8112 -0.2255 -0.0223
  113OSM    H9S11678   1.063   3.279   6.444 -2.5901  0.9124 -0.8216
  113OSM    H9T11679   0.917   3.181   6.466  1.0472 -0.3098 -1.0740
  113OSM   C10S11680   1.103   3.066   6.443 -0.4278 -0.2831 -0.5215
  113OSM   H10S11681   1.048   2.980   6.487  2.3026 -1.7740  0.2342
  113OSM   H10T11682   1.205   3.063   6.486 -0.5481 -0.5445 -0.2478
  113OSM   C11S11683   1.110   3.053   6.290  0.0243 -0.0448  0.1589
  113OSM   H11S11684   1.173   2.966   6.262 -3.1757 -2.5880  0.3139
  113OSM   H11T11685   1.145   3.149   6.245 -0.7128 -0.0282 -0.3887
  113OSM   C12S11686   0.977   3.010   6.229  0.0599  0.4323  0.0742
  113OSM   H12S11687   0.907   3.093   6.250  2.5794  2.9939 -0.9019
  113OSM   H12T11688   0.935   2.921   6.281 -0.9903  0.6700 -0.3503
  113OSM   C13S11689   0.979   2.974   6.074  0.4876 -0.1598  0.0724
  113OSM   H13S11690   0.874   2.938   6.060  0.1767  0.4703  0.6983
  113OSM   H13T11691   1.052   2.891   6.070  0.3976 -0.2034 -0.9185
  113OSM   C14S11692   1.005   3.096   5.981  0.4063  0.0134  0.2956
  113OSM   H14S11693   1.103   3.139   6.012 -0.1739  0.4503  1.5748
  113OSM   H14T11694   0.930   3.177   5.975  0.6622  0.1842 -0.9008
  113OSM   C15S11695   1.003   3.042   5.842 -0.0583 -0.0928  0.2462
  113OSM   H15S11696   0.895   3.022   5.828 -0.9218  4.4678 -0.9515
  113OSM   H15T11697   1.064   2.954   5.811  0.0859 -0.1258  0.6126
  113OSM   C16S11698   1.036   3.150   5.734 -0.3811  0.7660  0.1016
  113OSM   H16S11699   1.145   3.156   5.714 -0.6733  0.4323 -1.7955
  113OSM   H16T11700   1.005   3.247   5.780  0.6914  1.0826  0.1815
  113OSM   C17S11701   0.966   3.128   5.592 -0.3361 -0.4557 -0.1710
  113OSM   H17S11702   0.871   3.187   5.595 -0.3399 -0.4844  0.4464
  113OSM   H17T11703   0.935   3.022   5.581 -0.3084 -0.2962 -2.1318
  113OSM   C18S11704   1.044   3.174   5.468  0.2085  0.7728 -0.2368
  113OSM   H18S11705   1.152   3.178   5.497  0.1461  0.5100  0.0416
  113OSM   H18T11706   1.028   3.279   5.437  2.3663  1.3663  0.4552
  113OSM   H18U11707   1.020   3.105   5.384 -1.9990 -1.0153  1.7290
  113OSM    C1F11708   1.626   2.994   6.942  0.0403 -0.3830 -0.0347
  113OSM     OF11709   1.593   2.954   7.055 -0.0141 -0.0866  0.0599
  113OSM    C2F11710   1.683   2.914   6.830 -0.6471 -0.7523 -1.0285
  113OSM    H2F11711   1.761   2.845   6.870  0.1187 -0.7077 -2.4027
  113OSM    H2G11712   1.740   2.973   6.755  0.6688 -1.9694 -1.0402
  113OSM    C3F11713   1.570   2.833   6.767  0.3026 -0.4173 -0.3987
  113OSM    H3F11714   1.510   2.912   6.717  0.1501  0.9336  1.7704
  113OSM    H3G11715   1.498   2.776   6.828  0.4142 -0.7067 -0.5375
  113OSM    C4F11716   1.604   2.735   6.654  0.4043  0.4823  0.5731
  113OSM    H4F11717   1.662   2.648   6.692  2.4240  0.7521 -1.6504
  113OSM    H4G11718   1.690   2.765   6.591  0.7032 -1.5295 -0.0349
  113OSM    C5F11719   1.480   2.688   6.571  0.2263 -0.7280  0.6435
  113OSM    H5F11720   1.431   2.767   6.509 -1.0200 -0.4896  1.8770
  113OSM    H5G11721   1.403   2.655   6.644  0.6496  0.1485  1.5079
  113OSM    C6F11722   1.521   2.574   6.477 -0.0905 -0.0396  0.6144
  113OSM    H6F11723   1.573   2.497   6.538  2.5295  0.1906 -1.1168
  113OSM    H6G11724   1.607   2.598   6.411  0.3571  0.9700  1.5429
  113OSM    C7F11725   1.404   2.520   6.395  0.2186 -0.0102 -0.2284
  113OSM    H7F11726   1.325   2.481   6.464 -1.4136  1.9131 -0.9222
  113OSM    H7G11727   1.445   2.436   6.335  1.8732 -0.3365  1.2707
  113OSM    C8F11728   1.342   2.622   6.307 -0.4304  0.7137  0.4406
  113OSM    H8F11729   1.293   2.708   6.357  0.4577  1.2145  0.4831
  113OSM    H8G11730   1.261   2.566   6.256 -0.3028  1.6334 -0.8282
  113OSM    C9F11731   1.434   2.661   6.202  0.5643 -0.1348  0.7453
  113OSM    H9F11732   1.513   2.730   6.236 -0.7801  0.7394  2.2098
  113OSM   C10F11733   1.446   2.600   6.083  0.3619 -0.1691  1.0827
  113OSM   H10F11734   1.532   2.633   6.023 -0.5215 -0.2227 -0.2549
  113OSM   C11F11735   1.367   2.491   6.032 -0.2867  0.6060  0.1360
  113OSM   H11F11736   1.298   2.439   6.102  0.4755  1.5151  1.5934
  113OSM   H11G11737   1.423   2.406   5.988 -2.8966 -1.0405 -0.2913
  113OSM   C12F11738   1.266   2.533   5.922 -0.2555 -0.1410 -0.4029
  113OSM   H12F11739   1.209   2.625   5.948 -1.9446 -1.2544 -0.0439
  113OSM   H12G11740   1.191   2.454   5.902 -0.5029  0.5899 -2.5290
  113OSM   C13F11741   1.343   2.552   5.789 -0.3991 -0.1829 -0.2037
  113OSM   H13F11742   1.415   2.469   5.773  1.3075  0.7728  1.9181
  113OSM   H13G11743   1.396   2.649   5.802 -1.0872  0.3102 -1.0003
  113OSM   C14F11744   1.240   2.564   5.672 -0.2494 -0.6808 -1.2549
  113OSM   H14F11745   1.142   2.518   5.697 -1.6481  1.6905 -2.0113
  113OSM   H14G11746   1.274   2.506   5.583 -1.9474 -1.7402 -1.2511
  113OSM   C15F11747   1.208   2.709   5.637 -0.0249 -0.2206  0.2177
  113OSM   H15F11748   1.300   2.755   5.595 -0.6064  0.6690 -0.1153
  113OSM   H15G11749   1.175   2.764   5.727  1.1883  1.4567 -0.3015
  113OSM   C16F11750   1.101   2.724   5.532  0.0710  0.4561  1.2377
  113OSM   H16F11751   1.071   2.831   5.532  1.2523  0.9038 -1.9883
  113OSM   H16G11752   1.009   2.668   5.559 -0.3021  0.8013  0.6962
  113OSM   C17F11753   1.129   2.670   5.387  0.1276 -0.2924 -0.3168
  113OSM   H17F11754   1.030   2.672   5.337 -0.7947  0.0675  1.4237
  113OSM   H17G11755   1.145   2.561   5.377  0.5899 -0.1771 -0.8970
  113OSM   C18F11756   1.236   2.752   5.309  0.2210 -1.2038  0.1873
  113OSM   H18F11757   1.209   2.859   5.294 -2.0070 -1.6325  0.8818
  113OSM   H18G11758   1.261   2.707   5.211  0.3590 -0.9843  0.1196
  113OSM   H18H11759   1.331   2.745   5.368  0.3733  0.7821  0.2534
  114OSM      N11760   6.770   2.085   7.376  0.6137 -0.1335 -0.2966
  114OSM    C1511761   6.799   1.990   7.269 -0.6572  0.2929 -0.0737
  114OSM   H15A11762   6.841   1.904   7.319 -1.0256  1.0808  1.6702
  114OSM   H15B11763   6.864   2.039   7.199 -2.0243  1.1750 -0.7744
  114OSM   H15C11764   6.709   1.954   7.220 -0.0822 -2.8979  0.9537
  114OSM    C1411765   6.722   2.211   7.314 -0.1408  0.4103  0.0612
  114OSM   H14A11766   6.784   2.241   7.231  0.1015 -0.9821 -0.2973
  114OSM   H14B11767   6.710   2.290   7.386 -3.2085 -0.9028  1.1823
  114OSM   H14C11768   6.621   2.209   7.275 -0.4354  1.2922  0.7741
  114OSM    C1311769   6.646   2.030   7.444 -0.3282  0.0390 -0.2930
  114OSM   H13A11770   6.672   1.942   7.501 -1.1592  0.0346  0.0925
  114OSM   H13B11771   6.575   2.008   7.366 -2.4123  2.3998  0.7955
  114OSM   H13C11772   6.601   2.095   7.518 -0.0686  0.4903 -0.5224
  114OSM    C1211773   6.886   2.101   7.471  0.0682 -0.3385 -0.4229
  114OSM   H12A11774   6.899   2.009   7.525  3.8938  0.9984  1.2134
  114OSM   H12B11775   6.845   2.164   7.549  2.4621  0.3772  0.3501
  114OSM    C1111776   7.021   2.148   7.418 -0.8749 -0.1895  0.0113
  114OSM   H11A11777   7.091   2.146   7.504 -0.1974 -0.9970 -0.5394
  114OSM   H11B11778   7.015   2.257   7.403  1.0222 -0.0153  0.3444
  114OSM      P11779   7.133   1.941   7.319 -0.4596  0.8542 -0.2135
  114OSM    O1311780   7.270   1.968   7.368 -0.2881 -0.3187 -0.2618
  114OSM    O1411781   7.052   1.855   7.412 -0.3431 -0.5840  0.5293
  114OSM    O1111782   7.135   1.885   7.172 -0.5110 -0.5619  0.1090
  114OSM    O1211783   7.064   2.078   7.302 -0.1888 -0.0326 -0.1706
  114OSM    C1S11784   7.106   1.958   7.056  0.0105  0.3442  0.7354
  114OSM    H1S11785   7.050   2.053   7.073 -1.5460 -0.7000  1.6590
  114OSM    H1T11786   7.049   1.895   6.985 -0.2582  0.6272  0.7006
  114OSM     NF11787   7.193   2.049   6.848 -0.1240  1.4339 -0.6159
  114OSM    HNF11788   7.203   2.004   6.760  0.2423  1.3583 -0.5355
  114OSM    C2S11789   7.237   1.989   6.972  0.4768 -0.0490 -0.5261
  114OSM    H2S11790   7.298   2.067   7.022  2.6025 -1.2134 -1.1796
  114OSM    C3S11791   7.325   1.864   6.950  0.1978 -0.5593  0.1106
  114OSM    H3S11792   7.260   1.786   6.905  1.2310 -1.8602  0.7818
  114OSM     O311793   7.382   1.811   7.072 -0.4121  0.1411  0.4638
  114OSM    HO311794   7.326   1.850   7.139  0.8881  1.5573  0.7954
  114OSM    C4S11795   7.440   1.908   6.866 -1.1282  0.0043  0.4179
  114OSM    H4S11796   7.497   1.996   6.898  2.3240 -1.3336 -1.4928
  114OSM    C5S11797   7.468   1.857   6.745 -0.0576 -0.8930 -0.2127
  114OSM    H5S11798   7.417   1.771   6.699  1.7444 -0.3764 -3.5349
  114OSM    C6S11799   7.569   1.916   6.647  0.6107  0.5081  1.0489
  114OSM    H6S11800   7.636   1.830   6.628  1.3111  1.5412 -1.5617
  114OSM    H6T11801   7.628   2.005   6.677  0.9614  1.6687 -2.7077
  114OSM    C7S11802   7.511   1.965   6.513 -0.3627 -0.1239 -0.6175
  114OSM    H7S11803   7.427   2.036   6.531  0.2032  0.2281  0.7500
  114OSM    H7T11804   7.474   1.880   6.453 -0.8157  0.0927 -0.6449
  114OSM    C8S11805   7.610   2.032   6.420 -0.1264 -0.3029 -0.0975
  114OSM    H8S11806   7.706   1.985   6.450 -0.4141 -0.3272  0.8183
  114OSM    H8T11807   7.636   2.136   6.447 -0.0964  0.1255 -1.6577
  114OSM    C9S11808   7.573   2.021   6.272 -0.2075  0.3825  0.7143
  114OSM    H9S11809   7.502   2.095   6.231  0.7860 -0.1323 -2.1531
  114OSM    H9T11810   7.530   1.919   6.264  0.0758  0.4079 -1.9419
  114OSM   C10S11811   7.696   2.012   6.181 -0.2042 -0.3128  0.3873
  114OSM   H10S11812   7.767   1.939   6.225 -1.9049 -1.4006  1.4211
  114OSM   H10T11813   7.749   2.109   6.175  1.0949 -1.0424 -0.5862
  114OSM   C11S11814   7.649   1.969   6.033  0.7708  0.0329 -0.1805
  114OSM   H11S11815   7.578   2.041   5.986 -0.0263  0.4382  1.5600
  114OSM   H11T11816   7.605   1.867   6.033 -0.1688  0.4168 -0.9598
  114OSM   C12S11817   7.773   1.985   5.934 -0.1538  0.4454 -1.2276
  114OSM   H12S11818   7.750   1.921   5.846 -0.6220 -1.0849 -0.0485
  114OSM   H12T11819   7.858   1.944   5.993 -0.9594  2.8286  1.9070
  114OSM   C13S11820   7.802   2.130   5.889  0.5216 -0.1681 -0.1359
  114OSM   H13S11821   7.838   2.176   5.984  0.1843 -1.5023  0.6727
  114OSM   H13T11822   7.706   2.171   5.850 -0.4482 -2.3797 -0.2154
  114OSM   C14S11823   7.914   2.134   5.786 -0.0068 -0.4047  0.3854
  114OSM   H14S11824   7.991   2.064   5.825 -0.2080  0.3234  2.1681
  114OSM   H14T11825   7.974   2.228   5.786 -2.1227  1.0406 -1.3104
  114OSM   C15S11826   7.868   2.096   5.649  0.2864  0.2102 -0.2045
  114OSM   H15S11827   7.822   1.995   5.651  1.5923 -0.3845  1.0600
  114OSM   H15T11828   7.956   2.097   5.582  0.5212  1.6559  0.0980
  114OSM   C16S11829   7.773   2.204   5.601  0.3922 -0.7200  0.6887
  114OSM   H16S11830   7.784   2.298   5.658 -2.0503  0.0832 -0.0262
  114OSM   H16T11831   7.665   2.176   5.610  0.2169 -0.5964 -0.7506
  114OSM   C17S11832   7.788   2.240   5.446 -0.1754  0.0605  0.1654
  114OSM   H17S11833   7.807   2.140   5.401 -1.7785  0.0747 -0.6368
  114OSM   H17T11834   7.881   2.300   5.441  0.3865 -0.6387  1.5395
  114OSM   C18S11835   7.670   2.308   5.369 -0.0691  0.0138 -0.7916
  114OSM   H18S11836   7.590   2.231   5.371  0.3345 -0.4038  1.3357
  114OSM   H18T11837   7.693   2.341   5.266 -0.5557  2.0373 -0.2822
  114OSM   H18U11838   7.641   2.401   5.422  2.3985  1.5893 -2.0123
  114OSM    C1F11839   7.137   2.162   6.844 -0.9090 -0.3971 -0.1864
  114OSM     OF11840   7.145   2.240   6.943 -0.3056  0.1435 -0.3662
  114OSM    C2F11841   7.072   2.198   6.720  0.6783  0.1626  0.0970
  114OSM    H2F11842   7.118   2.293   6.686  0.6491  0.0950 -0.1364
  114OSM    H2G11843   6.968   2.223   6.748  1.1018  1.5773  0.5199
  114OSM    C3F11844   7.050   2.089   6.614 -0.2737 -0.7124 -0.2542
  114OSM    H3F11845   7.030   1.988   6.656 -1.9109 -0.4238 -0.2697
  114OSM    H3G11846   7.149   2.082   6.563  0.8595  2.1468  1.3132
  114OSM    C4F11847   6.942   2.116   6.505 -0.1622  0.5343 -0.4108
  114OSM    H4F11848   6.982   2.180   6.424 -1.4362 -0.9866 -2.3510
  114OSM    H4G11849   6.848   2.164   6.538 -1.7360 -2.0600 -0.8130
  114OSM    C5F11850   6.922   1.988   6.422 -0.1822 -0.0743  0.2425
  114OSM    H5F11851   6.815   1.967   6.400 -0.0599  0.5382 -1.0361
  114OSM    H5G11852   6.948   1.901   6.485 -0.4190 -1.1520 -1.0976
  114OSM    C6F11853   6.998   1.988   6.293 -0.3716 -0.3274  0.0888
  114OSM    H6F11854   7.098   2.036   6.296  0.2245 -1.5258  0.0136
  114OSM    H6G11855   6.940   2.042   6.215  4.4798  4.6413 -0.7059
  114OSM    C7F11856   7.050   1.853   6.237  0.0282 -0.0172 -0.4199
  114OSM    H7F11857   6.963   1.794   6.202 -0.1700  0.5323 -0.8807
  114OSM    H7G11858   7.122   1.806   6.307  2.1607 -2.3787 -3.8886
  114OSM    C8F11859   7.135   1.864   6.107 -0.2613 -0.0181 -0.5233
  114OSM    H8F11860   7.236   1.910   6.114 -0.6249  0.9429 -1.3987
  114OSM    H8G11861   7.083   1.943   6.049 -1.3006 -0.2151  0.0990
  114OSM    C9F11862   7.129   1.738   6.024 -0.3109 -0.0358 -0.4890
  114OSM    H9F11863   7.129   1.644   6.082  1.5592 -0.5743 -1.2915
  114OSM   C10F11864   7.112   1.728   5.898 -0.1116  0.1648  0.4699
  114OSM   H10F11865   7.112   1.630   5.849  0.7885  1.6218 -2.7261
  114OSM   C11F11866   7.091   1.840   5.794  0.2283 -0.4249 -0.2994
  114OSM   H11F11867   7.147   1.798   5.708  0.7545 -0.7194  0.1782
  114OSM   H11G11868   7.155   1.924   5.828  0.0778 -1.0390  1.6280
  114OSM   C12F11869   6.955   1.870   5.750 -0.0544  0.1902 -0.9281
  114OSM   H12F11870   6.920   1.778   5.699 -2.1727  0.7219 -0.5180
  114OSM   H12G11871   6.976   1.943   5.668  2.1988 -1.5332 -2.0166
  114OSM   C13F11872   6.845   1.925   5.846 -0.0973 -0.4498 -0.4787
  114OSM   H13F11873   6.762   1.977   5.794  1.4437  0.9991 -1.5900
  114OSM   H13G11874   6.895   2.010   5.896 -1.1369  0.7589 -1.4405
  114OSM   C14F11875   6.791   1.822   5.955 -0.1633  0.5719  0.0967
  114OSM   H14F11876   6.876   1.790   6.019 -0.1598  1.5656  0.6028
  114OSM   H14G11877   6.744   1.733   5.907  2.6164 -0.0212 -1.7514
  114OSM   C15F11878   6.693   1.877   6.062 -0.6570  0.0787  0.0460
  114OSM   H15F11879   6.753   1.942   6.130  2.5479 -0.8515 -1.6770
  114OSM   H15G11880   6.649   1.801   6.130  0.4751 -1.5055 -0.9268
  114OSM   C16F11881   6.577   1.953   5.990  0.8296 -0.2647  0.1778
  114OSM   H16F11882   6.556   1.902   5.893 -3.6658  0.0026  0.8276
  114OSM   H16G11883   6.605   2.058   5.970 -0.1447  0.6518  3.1834
  114OSM   C17F11884   6.448   1.966   6.073 -0.1373 -0.3114 -0.3280
  114OSM   H17F11885   6.386   1.874   6.067 -3.4744  1.6594  0.9764
  114OSM   H17G11886   6.395   2.050   6.023 -4.2044 -0.5701  2.9662
  114OSM   C18F11887   6.464   2.000   6.218 -0.8360 -0.5269  0.1074
  114OSM   H18F11888   6.527   1.933   6.280  1.2441  1.8412  0.7168
  114OSM   H18G11889   6.366   2.025   6.264 -1.0027 -2.0110  0.6082
  114OSM   H18H11890   6.521   2.095   6.221  0.1230 -1.0695 -0.4078
  115OSM      N11891   6.591   3.275   7.376 -0.2265 -0.5706  0.4663
  115OSM    C1511892   6.559   3.232   7.518  0.1217 -0.6659  0.0552
  115OSM   H15A11893   6.647   3.258   7.576  0.3213 -0.0583 -0.5006
  115OSM   H15B11894   6.537   3.127   7.518  1.7947 -1.0547 -0.6457
  115OSM   H15C11895   6.470   3.284   7.549  0.5946 -1.4903  3.0913
  115OSM    C1411896   6.637   3.417   7.378 -0.3500 -0.4093  0.6042
  115OSM   H14A11897   6.729   3.418   7.435  0.9512 -0.8675 -1.3962
  115OSM   H14B11898   6.567   3.489   7.416 -2.0995 -0.6928 -1.8504
  115OSM   H14C11899   6.682   3.452   7.286  0.0140  0.1399  0.9847
  115OSM    C1311900   6.697   3.187   7.336  0.7053 -0.1657  1.0470
  115OSM   H13A11901   6.662   3.085   7.327 -2.4496  0.8118  1.0342
  115OSM   H13B11902   6.784   3.199   7.398  0.9142 -0.8708  0.8982
  115OSM   H13C11903   6.726   3.212   7.235 -2.0661 -1.2968 -0.1549
  115OSM    C1211904   6.473   3.263   7.284 -0.1539 -0.7747 -0.3165
  115OSM   H12A11905   6.397   3.329   7.323 -0.0750 -1.7036  1.5200
  115OSM   H12B11906   6.430   3.166   7.301  0.4728 -1.2928 -1.5298
  115OSM    C1111907   6.485   3.281   7.127 -0.4295 -0.7965  0.5366
  115OSM   H11A11908   6.513   3.388   7.111 -1.5483 -0.5362  0.1996
  115OSM   H11B11909   6.382   3.268   7.087 -0.7660 -0.3771  1.2415
  115OSM      P11910   6.558   3.052   7.018 -0.1969  0.1628  0.1207
  115OSM    O1311911   6.681   3.008   6.944 -0.0231 -0.5312 -0.6193
  115OSM    O1411912   6.516   2.959   7.127 -0.6291 -0.3737 -0.5138
  115OSM    O1111913   6.432   3.065   6.918 -0.0381  0.0716 -0.7404
  115OSM    O1211914   6.586   3.201   7.068 -0.4777  0.4164 -1.2108
  115OSM    C1S11915   6.434   3.168   6.820 -0.8776 -0.4181  0.1284
  115OSM    H1S11916   6.537   3.166   6.778 -0.3246 -0.9997  1.4634
  115OSM    H1T11917   6.446   3.267   6.869  3.5007 -1.0327  0.6905
  115OSM     NF11918   6.334   3.263   6.614  0.4954  0.7600  0.2702
  115OSM    HNF11919   6.278   3.344   6.629 -1.8629 -1.0843  2.2624
  115OSM    C2S11920   6.319   3.163   6.715  0.6176 -0.2524  0.2925
  115OSM    H2S11921   6.326   3.061   6.671 -0.6400 -0.8608  1.4228
  115OSM    C3S11922   6.180   3.166   6.784 -0.1788 -0.7744  0.0867
  115OSM    H3S11923   6.147   3.260   6.834 -0.8185 -1.7944  1.6741
  115OSM     O311924   6.182   3.068   6.886 -0.1093 -0.3731 -0.5281
  115OSM    HO311925   6.274   3.063   6.913 -1.1042  0.6659  3.9376
  115OSM    C4S11926   6.069   3.132   6.689 -0.2031  0.1169 -0.4894
  115OSM    H4S11927   6.042   3.025   6.681 -0.7581  0.2817 -0.8445
  115OSM    C5S11928   5.984   3.233   6.655  0.2698  0.0604 -0.0600
  115OSM    H5S11929   6.004   3.336   6.690  1.5583  0.5038 -2.0002
  115OSM    C6S11930   5.861   3.224   6.566  0.4323  0.5996 -1.0062
  115OSM    H6S11931   5.765   3.247   6.617  0.0339  0.7553 -1.8128
  115OSM    H6T11932   5.841   3.121   6.528 -1.1860 -0.4942  2.3663
  115OSM    C7S11933   5.894   3.316   6.453  0.4837  0.5725 -0.0681
  115OSM    H7S11934   6.000   3.319   6.418 -0.1262  1.6831 -1.9652
  115OSM    H7T11935   5.877   3.423   6.476  2.9200  0.9953  0.0119
  115OSM    C8S11936   5.816   3.274   6.327  0.6720  0.1255 -0.5982
  115OSM    H8S11937   5.718   3.326   6.325 -1.0607 -2.8308  0.8324
  115OSM    H8T11938   5.801   3.165   6.324 -0.2849  0.2518 -0.5647
  115OSM    C9S11939   5.885   3.304   6.193  0.0466 -0.5994 -0.0349
  115OSM    H9S11940   5.979   3.245   6.195 -0.9893 -2.3513 -0.8203
  115OSM    H9T11941   5.897   3.411   6.167 -1.7458 -0.8073 -1.9773
  115OSM   C10S11942   5.809   3.248   6.072 -0.3476 -0.2355 -0.1225
  115OSM   H10S11943   5.707   3.292   6.063 -0.2805  0.1271  0.7486
  115OSM   H10T11944   5.797   3.139   6.093 -0.0951 -0.4904 -1.2299
  115OSM   C11S11945   5.885   3.280   5.947  0.3291  0.2578 -0.3059
  115OSM   H11S11946   5.976   3.218   5.926 -0.4314 -0.5876 -1.1910
  115OSM   H11T11947   5.900   3.390   5.948  0.9055  0.1800  0.3546
  115OSM   C12S11948   5.810   3.236   5.819  0.1996  0.3358  0.3888
  115OSM   H12S11949   5.735   3.318   5.810 -0.0451  0.1152  0.4127
  115OSM   H12T11950   5.765   3.136   5.832 -0.2702  0.4228 -0.4461
  115OSM   C13S11951   5.879   3.235   5.683 -0.2938  0.0205  0.4037
  115OSM   H13S11952   5.944   3.146   5.669 -0.1396  0.1182  0.5068
  115OSM   H13T11953   5.934   3.330   5.673  0.5023 -0.5763 -1.3415
  115OSM   C14S11954   5.771   3.225   5.567 -0.2864 -0.0501 -0.0190
  115OSM   H14S11955   5.705   3.314   5.580 -0.7860 -0.2928 -0.8564
  115OSM   H14T11956   5.708   3.134   5.573  1.2911 -1.1553  0.3910
  115OSM   C15S11957   5.829   3.250   5.432 -0.0019  0.0824  0.0509
  115OSM   H15S11958   5.904   3.173   5.405 -0.5462 -0.4072 -0.0795
  115OSM   H15T11959   5.892   3.342   5.429 -0.1754  0.1923 -2.4230
  115OSM   C16S11960   5.731   3.287   5.320 -0.4159 -0.1301 -0.2476
  115OSM   H16S11961   5.667   3.375   5.340  1.9268  2.0312 -1.6791
  115OSM   H16T11962   5.672   3.193   5.315  2.3203 -2.1012  1.2895
  115OSM   C17S11963   5.794   3.317   5.179 -0.5420  0.0967  0.4392
  115OSM   H17S11964   5.859   3.402   5.208 -1.7982  0.8118  1.2045
  115OSM   H17T11965   5.715   3.350   5.107  0.4039  0.0800 -0.6473
  115OSM   C18S11966   5.880   3.209   5.115 -0.2254  0.3983  0.4555
  115OSM   H18S11967   5.883   3.221   5.005  2.0421  0.0598  0.4320
  115OSM   H18T11968   5.854   3.110   5.158  1.2854  0.8222  2.5249
  115OSM   H18U11969   5.986   3.231   5.139 -0.2047 -0.3377  1.0883
  115OSM    C1F11970   6.411   3.246   6.507  0.2607  1.2134 -0.2416
  115OSM     OF11971   6.479   3.145   6.498  0.1926  0.1228  1.0042
  115OSM    C2F11972   6.412   3.340   6.397  0.5438 -0.1229 -0.4771
  115OSM    H2F11973   6.459   3.290   6.310  2.3267 -0.6094  0.7183
  115OSM    H2G11974   6.474   3.424   6.436  0.0384 -0.1522  0.3986
  115OSM    C3F11975   6.273   3.399   6.362  0.0675  0.1039  0.4237
  115OSM    H3F11976   6.238   3.464   6.445 -3.7346 -0.2704 -0.6887
  115OSM    H3G11977   6.198   3.322   6.336 -0.0601  0.1277  0.7229
  115OSM    C4F11978   6.273   3.496   6.241  0.6084  0.4012 -0.0248
  115OSM    H4F11979   6.345   3.578   6.264 -1.9431  2.6105  0.5398
  115OSM    H4G11980   6.169   3.532   6.231 -0.1284 -0.4400  3.5123
  115OSM    C5F11981   6.325   3.421   6.115  0.4443 -0.3224 -0.0501
  115OSM    H5F11982   6.274   3.322   6.107  0.6302 -0.3610 -0.8119
  115OSM    H5G11983   6.433   3.405   6.132  0.3291 -1.7894 -0.5262
  115OSM    C6F11984   6.317   3.504   5.990  1.1008  0.5226 -0.5856
  115OSM    H6F11985   6.367   3.603   5.993 -0.0370  1.1455 -1.4624
  115OSM    H6G11986   6.209   3.516   5.967  0.8255 -0.2524  0.2400
  115OSM    C7F11987   6.383   3.419   5.879  0.5612  0.1102  0.2598
  115OSM    H7F11988   6.348   3.314   5.888 -2.7288  0.9332 -1.5040
  115OSM    H7G11989   6.491   3.412   5.905  0.3917  2.0434  1.6361
  115OSM    C8F11990   6.369   3.473   5.737  0.3515 -0.1189  0.2638
  115OSM    H8F11991   6.448   3.433   5.670 -0.2652 -2.2078  0.7189
  115OSM    H8G11992   6.386   3.583   5.745  0.7899  0.1252 -2.8645
  115OSM    C9F11993   6.232   3.441   5.683  0.6436  0.0901  0.1950
  115OSM    H9F11994   6.151   3.431   5.757  0.1505  1.2586 -0.1723
  115OSM   C10F11995   6.213   3.403   5.557 -0.0134  0.8325  0.0110
  115OSM   H10F11996   6.113   3.375   5.523  0.1274 -2.3012  1.7938
  115OSM   C11F11997   6.313   3.418   5.433  1.0275  1.0339 -0.1054
  115OSM   H11F11998   6.329   3.315   5.394  0.6224  0.0499  2.1574
  115OSM   H11G11999   6.414   3.459   5.454  1.1241  1.3908 -1.1948
  115OSM   C12F12000   6.243   3.491   5.314 -0.2430  0.3389  0.0544
  115OSM   H12F12001   6.261   3.599   5.333 -1.3977  0.4620  0.5544
  115OSM   H12G12002   6.133   3.478   5.318 -0.0940 -1.4600 -0.7745
  115OSM   C13F12003   6.292   3.450   5.173  0.0218 -0.0116 -0.0370
  115OSM   H13F12004   6.260   3.345   5.156 -0.9433  0.1007  1.0454
  115OSM   H13G12005   6.403   3.452   5.163 -0.0357  2.5164 -0.7977
  115OSM   C14F12006   6.233   3.535   5.065  0.5320 -0.1727  0.5390
  115OSM   H14F12007   6.299   3.538   4.975 -1.2776  2.7434 -0.8511
  115OSM   H14G12008   6.241   3.642   5.096 -1.3983  0.3510 -0.5557
  115OSM   C15F12009   6.102   3.492   5.013  0.1423 -0.3877  0.1566
  115OSM   H15F12010   6.042   3.476   5.105  0.6079 -3.2404  0.0404
  115OSM   H15G12011   6.113   3.391   4.969  0.1424 -1.1532  1.8396
  115OSM   C16F12012   6.048   3.591   4.901  0.3502  0.3377 -0.3841
  115OSM   H16F12013   6.107   3.596   4.807  0.3506  2.0168 -0.3242
  115OSM   H16G12014   6.044   3.691   4.950 -1.7083  0.2071 -0.1914
  115OSM   C17F12015   5.902   3.569   4.874 -0.6970  0.0106 -0.8479
  115OSM   H17F12016   5.862   3.651   4.811  2.1338  0.9758 -1.5349
  115OSM   H17G12017   5.852   3.569   4.973 -0.0150  1.8198 -0.4655
  115OSM   C18F12018   5.881   3.431   4.802  0.4709 -0.3938 -0.0002
  115OSM   H18F12019   5.773   3.406   4.810  0.3599  0.3713  1.0883
  115OSM   H18G12020   5.933   3.345   4.849 -1.1221 -1.1556  0.4356
  115OSM   H18H12021   5.900   3.444   4.693 -0.6386  4.4980  0.1551
  116OSM      N12022   1.314   2.128   7.519 -0.0204  0.0831 -0.2769
  116OSM    C1512023   1.357   2.265   7.477  0.0212 -0.1296  0.5003
  116OSM   H15A12024   1.408   2.315   7.558  0.7975 -1.0220  0.5823
  116OSM   H15B12025   1.275   2.326   7.443  1.6093  1.6723 -0.3331
  116OSM   H15C12026   1.426   2.267   7.393  1.0675 -0.9493  1.3141
  116OSM    C1412027   1.223   2.161   7.631 -0.4190  0.5325 -0.1158
  116OSM   H14A12028   1.139   2.224   7.606 -2.3922 -1.3140  1.3928
  116OSM   H14B12029   1.277   2.186   7.721  0.1470 -0.2391 -0.2301
  116OSM   H14C12030   1.177   2.068   7.661  0.8157 -0.4310 -1.1199
  116OSM    C1312031   1.238   2.068   7.405 -0.0874 -0.0016  0.1383
  116OSM   H13A12032   1.191   1.976   7.437  0.4490 -0.0542  0.7933
  116OSM   H13B12033   1.300   2.050   7.318 -0.2132 -1.0463  0.2493
  116OSM   H13C12034   1.154   2.132   7.382  0.1921  0.2483 -0.2056
  116OSM    C1212035   1.434   2.049   7.554  0.5098  0.6442 -0.2046
  116OSM   H12A12036   1.484   2.096   7.638  2.7403 -0.0871 -1.0561
  116OSM   H12B12037   1.499   2.050   7.469 -0.2033 -0.0090 -0.7676
  116OSM    C1112038   1.408   1.900   7.589  0.4599  0.2814 -0.2026
  116OSM   H11A12039   1.329   1.909   7.666 -0.9222 -4.4524 -0.7949
  116OSM   H11B12040   1.492   1.850   7.642  0.4112 -0.3075 -0.6750
  116OSM      P12041   1.242   1.726   7.510 -0.2536 -0.2604  0.3053
  116OSM    O1312042   1.273   1.630   7.621  0.3902 -0.0088 -0.0332
  116OSM    O1412043   1.112   1.798   7.512 -0.0860 -0.1205  0.0641
  116OSM    O1112044   1.257   1.652   7.373 -0.0846 -0.5284 -0.3146
  116OSM    O1212045   1.361   1.826   7.482  0.4726 -0.1303 -0.7082
  116OSM    C1S12046   1.173   1.688   7.261 -0.1805  0.5196  0.1805
  116OSM    H1S12047   1.188   1.797   7.249 -1.0618  0.9659  2.5765
  116OSM    H1T12048   1.068   1.687   7.298 -0.5323  2.4411 -0.6558
  116OSM     NF12049   1.115   1.639   7.024  0.4495 -0.5320 -0.1937
  116OSM    HNF12050   1.031   1.586   7.013 -1.0331  1.9176 -1.7104
  116OSM    C2S12051   1.206   1.600   7.137 -0.3996 -0.0339 -0.5703
  116OSM    H2S12052   1.311   1.620   7.107  0.0140 -1.6154 -0.2809
  116OSM    C3S12053   1.206   1.446   7.177  0.4629  0.0200 -0.1495
  116OSM    H3S12054   1.101   1.418   7.202  0.3667 -0.5020 -1.0878
  116OSM     O312055   1.289   1.417   7.289  0.2197  1.1633 -0.6731
  116OSM    HO312056   1.286   1.490   7.352 -1.8327 -0.4100  1.1972
  116OSM    C4S12057   1.243   1.359   7.058 -0.3501 -0.0474  0.1071
  116OSM    H4S12058   1.160   1.347   6.986  2.6046  0.1280 -3.6580
  116OSM    C5S12059   1.364   1.308   7.022 -0.2160  0.1439  0.4048
  116OSM    H5S12060   1.449   1.315   7.092  1.2550 -1.1654 -1.1502
  116OSM    C6S12061   1.397   1.238   6.899  0.0858  0.0724 -0.4083
  116OSM    H6S12062   1.426   1.132   6.914  0.2281  0.2572  0.6982
  116OSM    H6T12063   1.481   1.292   6.850 -0.3066  0.6980 -0.4053
  116OSM    C7S12064   1.295   1.231   6.778 -1.1812  0.1967 -0.6104
  116OSM    H7S12065   1.291   1.336   6.741 -0.3175  1.1549  1.7942
  116OSM    H7T12066   1.192   1.202   6.806 -0.3280 -0.6234  1.9544
  116OSM    C8S12067   1.326   1.126   6.668  0.9390 -0.5302  0.4053
  116OSM    H8S12068   1.246   1.137   6.591  1.2435 -0.1191  0.1433
  116OSM    H8T12069   1.325   1.022   6.709  0.2014 -0.2019  1.2728
  116OSM    C9S12070   1.466   1.148   6.616  1.5602  0.1854  0.3728
  116OSM    H9S12071   1.542   1.090   6.672  1.1910 -0.5347  0.1428
  116OSM    H9T12072   1.488   1.256   6.631  0.2905  0.9148 -2.4034
  116OSM   C10S12073   1.476   1.091   6.474 -0.2347  0.0523 -0.1190
  116OSM   H10S12074   1.397   1.151   6.423 -0.0876  1.8267  1.5901
  116OSM   H10T12075   1.444   0.986   6.461  0.3528 -0.1654  0.1617
  116OSM   C11S12076   1.614   1.110   6.402  0.1129 -0.0960  0.1145
  116OSM   H11S12077   1.689   1.035   6.434 -0.4917 -0.2359  1.2475
  116OSM   H11T12078   1.654   1.209   6.432  1.5700  0.0954 -2.2236
  116OSM   C12S12079   1.599   1.089   6.247 -0.7122 -0.5772 -0.0245
  116OSM   H12S12080   1.683   1.148   6.204  1.5437 -3.7734 -0.3323
  116OSM   H12T12081   1.501   1.119   6.204  0.3133 -0.3704 -2.3862
  116OSM   C13S12082   1.632   0.952   6.212  0.3149  0.4138 -0.1049
  116OSM   H13S12083   1.560   0.883   6.260  1.7737 -0.6705  0.6143
  116OSM   H13T12084   1.728   0.925   6.262 -0.8523  0.3566  2.2260
  116OSM   C14S12085   1.645   0.919   6.065 -0.1344 -0.3603  0.0686
  116OSM   H14S12086   1.545   0.931   6.018 -0.1320 -1.7147 -0.3229
  116OSM   H14T12087   1.683   0.816   6.052  1.0713 -0.0774  1.1744
  116OSM   C15S12088   1.740   1.015   5.997  0.2366  0.0246 -0.2618
  116OSM   H15S12089   1.832   1.009   6.059  0.4258 -3.5257 -0.7340
  116OSM   H15T12090   1.701   1.119   6.010 -0.9586 -0.3163 -1.0225
  116OSM   C16S12091   1.774   0.988   5.854 -0.0981  0.1230 -0.6896
  116OSM   H16S12092   1.800   1.086   5.810  0.6532  0.9988  1.5736
  116OSM   H16T12093   1.683   0.954   5.801 -1.4295  1.2152  0.7911
  116OSM   C17S12094   1.888   0.884   5.846  0.3771 -0.2778 -0.7774
  116OSM   H17S12095   1.851   0.794   5.899  0.3609  0.0320 -0.2510
  116OSM   H17T12096   1.975   0.926   5.901  0.0572  0.1170 -0.5623
  116OSM   C18S12097   1.924   0.852   5.703 -0.3306 -0.0492  0.4824
  116OSM   H18S12098   1.967   0.945   5.659 -2.2100 -0.1075 -1.6340
  116OSM   H18T12099   1.833   0.812   5.654  0.0804 -0.0139 -0.3295
  116OSM   H18U12100   2.003   0.774   5.699  0.7356  1.0129 -0.1191
  116OSM    C1F12101   1.123   1.753   6.965 -0.3328 -1.0531  0.0776
  116OSM     OF12102   1.220   1.826   6.989 -0.0256  0.3848 -0.1894
  116OSM    C2F12103   1.018   1.789   6.873  0.1308 -0.7667 -0.5603
  116OSM    H2F12104   1.048   1.880   6.817  2.0084 -1.9948 -1.6659
  116OSM    H2G12105   0.929   1.810   6.936  1.5815  4.5022  0.2463
  116OSM    C3F12106   0.983   1.668   6.790  0.2335  0.3723  0.5313
  116OSM    H3F12107   0.896   1.694   6.726 -0.8247 -0.5010  1.5617
  116OSM    H3G12108   0.953   1.581   6.853  3.0040 -1.3718 -0.3756
  116OSM    C4F12109   1.107   1.630   6.703  0.5258 -1.2986 -0.1017
  116OSM    H4F12110   1.196   1.590   6.757  0.8622 -0.2793  0.1336
  116OSM    H4G12111   1.130   1.724   6.649 -1.5045 -0.4686  0.4091
  116OSM    C5F12112   1.060   1.520   6.607  0.3205 -0.0245  0.2825
  116OSM    H5F12113   0.959   1.553   6.573  0.4608 -1.9443 -2.3109
  116OSM    H5G12114   1.037   1.425   6.659 -3.7055  1.3643  1.4002
  116OSM    C6F12115   1.158   1.504   6.484 -0.2711 -0.1969 -0.0855
  116OSM    H6F12116   1.248   1.448   6.517  0.4541  0.9408 -0.0496
  116OSM    H6G12117   1.191   1.603   6.443  0.4322 -0.3085  0.1925
  116OSM    C7F12118   1.109   1.428   6.352 -0.6078 -0.9094 -0.5530
  116OSM    H7F12119   1.187   1.452   6.276 -0.4044 -2.1050 -0.7319
  116OSM    H7G12120   1.006   1.461   6.326 -1.3357 -0.9891  1.9772
  116OSM    C8F12121   1.109   1.278   6.366 -1.0996  0.3270  1.0983
  116OSM    H8F12122   1.053   1.238   6.453 -0.6676 -2.9833 -0.0303
  116OSM    H8G12123   1.209   1.230   6.367 -0.6144  1.3106  0.4833
  116OSM    C9F12124   1.042   1.217   6.240 -0.4014 -0.2140 -0.5560
  116OSM    H9F12125   0.937   1.184   6.243 -0.7635  0.8946 -0.5326
  116OSM   C10F12126   1.096   1.214   6.119 -0.3526 -0.7016  0.4146
  116OSM   H10F12127   1.039   1.171   6.036 -0.7421  0.2600  0.1734
  116OSM   C11F12128   1.233   1.265   6.073  0.2188  0.2375 -0.0084
  116OSM   H11F12129   1.297   1.269   6.164  0.9024  0.5431 -0.4931
  116OSM   H11G12130   1.231   1.368   6.030 -0.0298  1.5008  2.8003
  116OSM   C12F12131   1.300   1.165   5.980 -0.2717 -0.0923  0.2879
  116OSM   H12F12132   1.222   1.143   5.904 -0.5862  1.6641  0.0652
  116OSM   H12G12133   1.333   1.073   6.032 -0.7253 -0.2595  0.2814
  116OSM   C13F12134   1.422   1.218   5.911  0.0797  0.1556 -0.2312
  116OSM   H13F12135   1.516   1.201   5.967 -0.4029  0.5421  0.7260
  116OSM   H13G12136   1.409   1.325   5.885 -0.8066 -0.3960 -2.2733
  116OSM   C14F12137   1.437   1.143   5.770  0.4359  0.0233 -0.2681
  116OSM   H14F12138   1.338   1.120   5.724  0.3907 -2.2545  0.8001
  116OSM   H14G12139   1.474   1.040   5.788  2.0447  0.9956  2.6558
  116OSM   C15F12140   1.536   1.205   5.673  0.2173  0.0705  0.4481
  116OSM   H15F12141   1.549   1.134   5.589 -1.4242  1.0719 -0.7105
  116OSM   H15G12142   1.636   1.207   5.721  0.5995 -2.9590 -0.0502
  116OSM   C16F12143   1.496   1.343   5.623 -0.2822  0.6228  0.0518
  116OSM   H16F12144   1.583   1.395   5.577 -1.8420  0.1452 -3.8273
  116OSM   H16G12145   1.475   1.402   5.714  0.6866  1.1467 -0.0582
  116OSM   C17F12146   1.373   1.348   5.532 -0.4412 -0.4850 -1.0033
  116OSM   H17F12147   1.358   1.456   5.511 -0.1528 -0.2153  0.1023
  116OSM   H17G12148   1.287   1.311   5.592  1.0340 -0.3941  1.2598
  116OSM   C18F12149   1.376   1.277   5.392  0.0261  0.2050 -0.0462
  116OSM   H18F12150   1.273   1.280   5.350 -0.2424 -0.8411  0.4772
  116OSM   H18G12151   1.407   1.170   5.395  1.1545  0.5126 -0.4682
  116OSM   H18H12152   1.438   1.340   5.325  1.1113  1.5869  2.1383
  117OSM      N12153   1.182   4.481   7.281 -0.0116 -0.9067 -0.5392
  117OSM    C1512154   1.176   4.466   7.430  0.1600 -0.4083  0.0265
  117OSM   H15A12155   1.183   4.361   7.452  2.9065 -0.6146 -1.2954
  117OSM   H15B12156   1.086   4.510   7.470  0.5306  1.3299 -0.9474
  117OSM   H15C12157   1.252   4.520   7.486 -0.5522  2.1212 -1.2918
  117OSM    C1412158   1.320   4.465   7.234 -0.8149 -0.5214 -0.1945
  117OSM   H14A12159   1.327   4.479   7.127  2.4773  1.0231  0.0809
  117OSM   H14B12160   1.377   4.379   7.266  0.2041  0.2445  0.1346
  117OSM   H14C12161   1.388   4.547   7.255 -2.4604  1.2839 -1.4966
  117OSM    C1312162   1.081   4.392   7.232 -0.4150  0.0209 -0.5697
  117OSM   H13A12163   1.105   4.381   7.128 -1.3479 -0.5826 -0.7264
  117OSM   H13B12164   0.982   4.434   7.237 -0.7116 -0.6143 -1.0086
  117OSM   H13C12165   1.086   4.293   7.275 -2.0870  0.2744  0.3091
  117OSM    C1212166   1.143   4.626   7.233  0.1556 -0.1484  0.3887
  117OSM   H12A12167   1.171   4.633   7.129 -0.8228  0.0513  0.1262
  117OSM   H12B12168   1.206   4.691   7.293 -0.6407  1.8742 -0.8532
  117OSM    C1112169   0.993   4.660   7.256 -0.0678  0.0181  0.7926
  117OSM   H11A12170   0.993   4.771   7.251  3.8826  0.2065  1.7560
  117OSM   H11B12171   0.963   4.637   7.360 -1.8888 -0.7862  0.1395
  117OSM      P12172   0.750   4.649   7.176 -0.1084 -0.0412 -0.4238
  117OSM    O1312173   0.660   4.550   7.115  1.0514 -0.4629 -0.2801
  117OSM    O1412174   0.725   4.697   7.314 -0.2640 -0.4428  0.0721
  117OSM    O1112175   0.744   4.772   7.075 -0.0975  0.0193 -0.4665
  117OSM    O1212176   0.903   4.600   7.161  0.5892 -0.2597 -0.1725
  117OSM    C1S12177   0.836   4.782   6.966 -0.0626 -0.6910  0.0435
  117OSM    H1S12178   0.935   4.738   6.992  0.0057  0.6034  2.2288
  117OSM    H1T12179   0.861   4.890   6.949  0.5863 -0.5751  1.6155
  117OSM     NF12180   0.878   4.751   6.726 -0.1543 -0.4462 -0.4009
  117OSM    HNF12181   0.873   4.841   6.683 -1.7537  1.1376  2.7567
  117OSM    C2S12182   0.782   4.725   6.832 -1.3731  0.1986  0.0630
  117OSM    H2S12183   0.787   4.615   6.843  0.6127  0.0559 -1.6683
  117OSM    C3S12184   0.639   4.768   6.791  0.3953  0.1450  0.0617
  117OSM    H3S12185   0.633   4.878   6.772  1.3431  0.0265 -1.0383
  117OSM     O312186   0.540   4.744   6.892 -0.5722 -0.1902 -0.0185
  117OSM    HO312187   0.588   4.727   6.973  0.8328  2.8383 -0.0613
  117OSM    C4S12188   0.614   4.709   6.652 -0.0523 -0.7204  0.4388
  117OSM    H4S12189   0.628   4.784   6.573 -1.1530  1.2409  2.0423
  117OSM    C5S12190   0.566   4.590   6.626  0.4651  1.2048  0.2949
  117OSM    H5S12191   0.553   4.521   6.710  0.0942  0.9013 -0.0067
  117OSM    C6S12192   0.532   4.535   6.486 -0.5880 -0.3353 -0.5920
  117OSM    H6S12193   0.423   4.525   6.467 -0.4543  0.3137 -1.7802
  117OSM    H6T12194   0.589   4.441   6.474 -1.1330 -0.8655  0.7626
  117OSM    C7S12195   0.575   4.620   6.362 -0.1199  0.4369  0.1473
  117OSM    H7S12196   0.681   4.653   6.361 -0.2409  0.8277 -0.9416
  117OSM    H7T12197   0.518   4.715   6.354 -1.2642 -0.2714 -0.4547
  117OSM    C8S12198   0.538   4.551   6.229 -0.5184 -0.4849  0.1496
  117OSM    H8S12199   0.430   4.562   6.207 -0.4716 -1.0299 -0.3781
  117OSM    H8T12200   0.561   4.443   6.241 -0.6928 -0.4065  1.2161
  117OSM    C9S12201   0.617   4.613   6.114 -0.2170  0.4178 -1.2542
  117OSM    H9S12202   0.723   4.618   6.148 -0.5204 -0.5762 -0.0963
  117OSM    H9T12203   0.588   4.719   6.099  0.9416  1.1768  1.3381
  117OSM   C10S12204   0.605   4.533   5.986  0.1292  0.1037 -1.0612
  117OSM   H10S12205   0.497   4.514   5.965 -0.6073  2.4775  0.2214
  117OSM   H10T12206   0.648   4.432   6.001  0.0522  0.2262  0.0577
  117OSM   C11S12207   0.655   4.600   5.858 -0.2115 -0.2183 -0.7007
  117OSM   H11S12208   0.761   4.624   5.879 -0.3283 -0.1245 -0.2024
  117OSM   H11T12209   0.604   4.698   5.849  1.1763  0.5834 -0.0444
  117OSM   C12S12210   0.648   4.508   5.740  0.6343 -0.3479  0.4692
  117OSM   H12S12211   0.544   4.510   5.701 -0.1141 -2.0647  2.2286
  117OSM   H12T12212   0.677   4.404   5.766  1.2904 -0.2313  0.2261
  117OSM   C13S12213   0.728   4.567   5.617  0.0730 -0.2304  0.5984
  117OSM   H13S12214   0.834   4.541   5.640 -0.1208 -1.2083  0.4450
  117OSM   H13T12215   0.724   4.678   5.610  1.4336 -0.2516 -1.8111
  117OSM   C14S12216   0.687   4.509   5.487 -0.1660 -0.0544 -0.1665
  117OSM   H14S12217   0.743   4.561   5.407 -0.0217 -1.5815 -1.0981
  117OSM   H14T12218   0.579   4.527   5.470 -0.0373 -0.2134 -1.1995
  117OSM   C15S12219   0.717   4.360   5.484 -0.2065  0.4221 -0.1006
  117OSM   H15S12220   0.657   4.302   5.557  0.5244 -2.9621 -1.9696
  117OSM   H15T12221   0.819   4.346   5.526 -0.0557  0.0512 -0.5737
  117OSM   C16S12222   0.703   4.292   5.345  0.2077 -0.2294 -0.3058
  117OSM   H16S12223   0.774   4.340   5.273  0.7987  0.3155  0.6106
  117OSM   H16T12224   0.604   4.309   5.298 -0.2043 -0.3579  0.4948
  117OSM   C17S12225   0.726   4.140   5.350  0.4716 -0.1105  0.1769
  117OSM   H17S12226   0.663   4.091   5.428 -0.0564  0.7749  0.3138
  117OSM   H17T12227   0.832   4.119   5.379  0.5109 -1.0575 -0.6190
  117OSM   C18S12228   0.683   4.087   5.218 -0.1235  0.3421  0.7976
  117OSM   H18S12229   0.706   4.160   5.137  1.2183 -0.6119  0.3017
  117OSM   H18T12230   0.573   4.072   5.209 -0.1664 -0.0737  1.8757
  117OSM   H18U12231   0.734   3.992   5.192 -0.2473  0.1306  1.3076
  117OSM    C1F12232   0.990   4.681   6.710  0.0976  0.3590 -0.0088
  117OSM     OF12233   1.017   4.588   6.781 -0.0046 -0.4285 -0.6157
  117OSM    C2F12234   1.091   4.737   6.603  0.8198  0.0031 -0.2650
  117OSM    H2F12235   1.192   4.734   6.650 -0.4120 -0.8468  2.5200
  117OSM    H2G12236   1.058   4.841   6.582  0.2056 -0.1166  0.0985
  117OSM    C3F12237   1.070   4.650   6.479 -0.6204 -0.4566  0.3766
  117OSM    H3F12238   0.977   4.689   6.431  0.2433 -0.8264 -1.7300
  117OSM    H3G12239   1.063   4.542   6.506  1.5485 -0.8465 -0.4182
  117OSM    C4F12240   1.182   4.669   6.376 -0.5315  0.2344  0.0858
  117OSM    H4F12241   1.272   4.625   6.423 -0.3282  0.3278 -0.2150
  117OSM    H4G12242   1.196   4.779   6.365 -1.6595  0.5393  1.3316
  117OSM    C5F12243   1.144   4.615   6.242  0.0349  0.5311  1.1128
  117OSM    H5F12244   1.043   4.651   6.213 -1.0574 -1.7667  1.8550
  117OSM    H5G12245   1.136   4.504   6.238 -0.4016  0.5128  2.1315
  117OSM    C6F12246   1.248   4.652   6.133  0.5589  0.2512 -0.5922
  117OSM    H6F12247   1.345   4.612   6.170 -0.5463 -1.5207  0.4932
  117OSM    H6G12248   1.255   4.763   6.125 -0.7617  0.4469  0.6877
  117OSM    C7F12249   1.221   4.592   5.992  0.1761 -0.8377  0.3729
  117OSM    H7F12250   1.209   4.482   6.003 -1.5982 -0.8121 -0.9590
  117OSM    H7G12251   1.311   4.607   5.929  1.7228  0.6551  2.7715
  117OSM    C8F12252   1.092   4.657   5.923  0.6670  0.9555 -0.0301
  117OSM    H8F12253   1.008   4.642   5.993 -1.4425 -0.4525 -2.6600
  117OSM    H8G12254   1.071   4.601   5.828  0.3164 -0.3140  0.7703
  117OSM    C9F12255   1.108   4.802   5.893 -0.5148 -0.6122  0.1549
  117OSM    H9F12256   1.145   4.867   5.974  0.6388 -0.5706 -0.3948
  117OSM   C10F12257   1.093   4.862   5.770 -0.3586  0.6874  0.3947
  117OSM   H10F12258   1.107   4.971   5.764  0.7419  0.5135 -0.7145
  117OSM   C11F12259   1.035   4.793   5.649  0.2821 -0.1291  0.0314
  117OSM   H11F12260   0.932   4.765   5.682  0.7937  0.4125  2.2651
  117OSM   H11G12261   1.088   4.700   5.621 -0.8833 -1.0497  0.7524
  117OSM   C12F12262   1.027   4.893   5.526  0.3383 -0.5832 -0.4421
  117OSM   H12F12263   1.130   4.911   5.488  0.0771 -0.7992 -1.2737
  117OSM   H12G12264   0.990   4.990   5.567 -1.8390 -0.7774 -1.7643
  117OSM   C13F12265   0.927   4.840   5.421  0.1264  0.3186  0.0486
  117OSM   H13F12266   0.825   4.857   5.464 -0.2261  2.7349 -1.5415
  117OSM   H13G12267   0.937   4.733   5.395 -1.7327 -0.1993  1.2147
  117OSM   C14F12268   0.930   4.912   5.284  0.6550 -0.7151 -0.6374
  117OSM   H14F12269   0.859   4.862   5.214  0.2146 -0.2907 -0.4948
  117OSM   H14G12270   1.035   4.918   5.246  1.3017  0.4872  1.2097
  117OSM   C15F12271   0.890   5.056   5.302 -0.0890  0.1599  0.0035
  117OSM   H15F12272   0.974   5.111   5.350 -0.0041  0.4629 -0.4921
  117OSM   H15G12273   0.799   5.060   5.366  0.1277  1.5039  0.2565
  117OSM   C16F12274   0.853   5.118   5.163 -0.2298  0.0426  0.4730
  117OSM   H16F12275   0.945   5.140   5.104 -0.5723  1.1154  0.3180
  117OSM   H16G12276   0.815   5.218   5.191 -1.3546 -0.1553 -0.2825
  117OSM   C17F12277   0.739   5.050   5.089 -0.1931  0.1102  0.0659
  117OSM   H17F12278   0.649   5.054   5.154 -0.4696 -0.4701 -0.2743
  117OSM   H17G12279   0.762   4.946   5.059 -0.0984  0.5992 -1.6650
  117OSM   C18F12280   0.710   5.128   4.963  0.2884 -0.1773 -0.0420
  117OSM   H18F12281   0.790   5.132   4.886  0.8892 -0.8139  0.5324
  117OSM   H18G12282   0.679   5.233   4.983  1.1072  0.0960 -0.1335
  117OSM   H18H12283   0.621   5.084   4.914  0.8146 -0.0757 -1.1234
  118OSM      N12284   0.294   4.135   7.293  0.0463 -0.6807  1.1179
  118OSM    C1512285   0.375   4.105   7.409 -1.3656  0.2881  0.2982
  118OSM   H15A12286   0.439   4.181   7.451 -0.3241 -0.8091  0.7718
  118OSM   H15B12287   0.435   4.020   7.379 -2.2844 -0.0339 -0.7303
  118OSM   H15C12288   0.315   4.063   7.489 -0.9067  2.1185  1.6615
  118OSM    C1412289   0.209   4.263   7.319 -0.9113  0.4120 -0.1943
  118OSM   H14A12290   0.132   4.256   7.394 -2.0132  1.4574 -1.1847
  118OSM   H14B12291   0.150   4.284   7.232 -2.2646 -3.4554 -0.3903
  118OSM   H14C12292   0.268   4.349   7.348  0.6453 -0.5050 -0.5056
  118OSM    C1312293   0.380   4.171   7.174  0.1930  0.3095  0.3813
  118OSM   H13A12294   0.318   4.225   7.103  0.5348 -2.4967 -2.2583
  118OSM   H13B12295   0.414   4.078   7.130 -1.0588  0.2892 -0.5830
  118OSM   H13C12296   0.467   4.223   7.210 -0.2523  0.4473  1.2736
  118OSM    C1212297   0.189   4.021   7.266  0.1791  0.6423  0.6379
  118OSM   H12A12298   0.131   4.046   7.179 -1.7796 -1.5284  1.2180
  118OSM   H12B12299   0.125   4.025   7.352  0.2081  0.7539  0.6548
  118OSM    C1112300   0.245   3.882   7.247 -0.1963  0.1985 -0.5250
  118OSM   H11A12301   0.161   3.812   7.227  1.4525 -1.6229 -1.4167
  118OSM   H11B12302   0.285   3.841   7.343 -2.0917  1.1802  0.7347
  118OSM      P12303   0.489   3.820   7.175 -0.0770  0.4492 -0.1653
  118OSM    O1312304   0.589   3.900   7.101 -0.0000  0.1101 -0.1471
  118OSM    O1412305   0.518   3.810   7.320 -0.2764 -0.4412  0.1668
  118OSM    O1112306   0.495   3.676   7.109 -0.3651 -0.2489  0.5453
  118OSM    O1212307   0.342   3.880   7.147 -0.2744 -0.2470 -0.2649
  118OSM    C1S12308   0.393   3.652   7.009  0.5535 -0.0665  0.5779
  118OSM    H1S12309   0.293   3.699   7.016  1.1880  1.2694  0.8924
  118OSM    H1T12310   0.371   3.543   7.012 -0.7050  0.0401 -1.9077
  118OSM     NF12311   0.326   3.658   6.773 -1.0871  0.0672 -0.3433
  118OSM    HNF12312   0.310   3.574   6.723  0.1179 -1.5165  1.7643
  118OSM    C2S12313   0.446   3.662   6.862  0.1441 -0.0655 -0.1103
  118OSM    H2S12314   0.483   3.766   6.851  0.6299 -0.1099  1.0312
  118OSM    C3S12315   0.563   3.567   6.822 -0.4944 -0.8112 -0.6759
  118OSM    H3S12316   0.528   3.463   6.806  1.0650 -1.3413 -0.8811
  118OSM     O312317   0.662   3.553   6.926  0.7591  0.5339 -0.3037
  118OSM    HO312318   0.639   3.615   6.997  0.8744  0.4553 -0.1972
  118OSM    C4S12319   0.623   3.609   6.697 -0.4285  0.3814 -0.6216
  118OSM    H4S12320   0.583   3.550   6.612 -3.7543 -0.6498  1.4824
  118OSM    C5S12321   0.720   3.698   6.676 -0.1175  0.6966 -0.4292
  118OSM    H5S12322   0.765   3.758   6.756 -0.4858  1.8237 -1.0596
  118OSM    C6S12323   0.770   3.733   6.537 -0.2421 -0.0479 -1.1137
  118OSM    H6S12324   0.880   3.743   6.538 -0.2425  0.1545  1.1084
  118OSM    H6T12325   0.729   3.834   6.513 -3.6670 -0.7341  1.1344
  118OSM    C7S12326   0.728   3.641   6.420 -0.1382 -0.0208 -0.4308
  118OSM    H7S12327   0.619   3.620   6.429 -0.1982  0.0276 -0.9996
  118OSM    H7T12328   0.780   3.544   6.429  1.0918  0.3811 -2.4311
  118OSM    C8S12329   0.770   3.695   6.281 -0.5445 -0.0947  0.5819
  118OSM    H8S12330   0.878   3.715   6.272 -0.3340  0.6555  3.5231
  118OSM    H8T12331   0.719   3.793   6.272 -1.0294 -0.4027 -0.1927
  118OSM    C9S12332   0.724   3.599   6.167 -0.0916  0.3636 -0.0554
  118OSM    H9S12333   0.619   3.566   6.178 -0.6058  2.1709  1.0093
  118OSM    H9T12334   0.790   3.510   6.170  0.9002  1.0344 -0.8937
  118OSM   C10S12335   0.750   3.666   6.031 -0.7265 -1.0436  0.4201
  118OSM   H10S12336   0.858   3.655   6.005 -0.5555  0.7858  0.2346
  118OSM   H10T12337   0.759   3.777   6.034  1.6537 -1.1734  2.9677
  118OSM   C11S12338   0.675   3.618   5.910  0.5880  0.2630  0.1952
  118OSM   H11S12339   0.565   3.627   5.924  0.3392 -1.6039 -0.3470
  118OSM   H11T12340   0.695   3.509   5.902  0.6012  0.1766  1.1925
  118OSM   C12S12341   0.716   3.680   5.777  0.8958 -0.0031 -0.6089
  118OSM   H12S12342   0.822   3.650   5.775  0.7026 -0.7352 -0.1459
  118OSM   H12T12343   0.702   3.791   5.777 -0.5850 -0.1668 -0.7628
  118OSM   C13S12344   0.638   3.612   5.664 -0.3911  0.0940  0.3939
  118OSM   H13S12345   0.531   3.609   5.695 -0.6785  2.1311 -0.2531
  118OSM   H13T12346   0.673   3.508   5.650 -0.0911  0.2234  0.1890
  118OSM   C14S12347   0.644   3.690   5.533  0.0444  0.0892  0.2690
  118OSM   H14S12348   0.588   3.782   5.562  1.6260  0.3802  2.6981
  118OSM   H14T12349   0.579   3.632   5.464 -1.5968  1.7698  0.3132
  118OSM   C15S12350   0.792   3.720   5.478  0.0698 -0.4717  0.1765
  118OSM   H15S12351   0.834   3.797   5.547 -0.9443  0.0294  0.2604
  118OSM   H15T12352   0.779   3.764   5.377 -0.0303  2.7429  1.4694
  118OSM   C16S12353   0.870   3.586   5.467  0.2300 -0.0072  0.4747
  118OSM   H16S12354   0.808   3.499   5.435  1.9296 -1.0287 -0.1991
  118OSM   H16T12355   0.907   3.555   5.567  1.4405 -0.0916  0.0128
  118OSM   C17S12356   0.973   3.604   5.363 -0.9702  0.2021  0.1695
  118OSM   H17S12357   1.049   3.522   5.367 -0.8022  0.3925  1.2449
  118OSM   H17T12358   1.028   3.698   5.385 -2.7750  1.1775  0.6229
  118OSM   C18S12359   0.925   3.609   5.220 -0.1195  0.2071 -0.1317
  118OSM   H18S12360   0.917   3.505   5.180  1.1289  0.5806 -1.4151
  118OSM   H18T12361   0.992   3.659   5.147 -2.8816  2.8496 -1.0540
  118OSM   H18U12362   0.822   3.646   5.200 -0.3387 -0.0304  0.5226
  118OSM    C1F12363   0.225   3.750   6.770  0.1218 -0.1588  0.2327
  118OSM     OF12364   0.247   3.865   6.807  0.9100 -0.2622  0.4427
  118OSM    C2F12365   0.089   3.704   6.716 -0.5449 -0.3690  0.8351
  118OSM    H2F12366   0.009   3.766   6.763 -0.8257  0.9983 -1.3045
  118OSM    H2G12367   0.080   3.595   6.736 -2.3286 -0.8087 -1.8929
  118OSM    C3F12368   0.084   3.733   6.567 -0.0165 -0.0055 -0.3205
  118OSM    H3F12369   0.177   3.708   6.511 -0.6738 -0.1485 -1.3860
  118OSM    H3G12370   0.061   3.840   6.552 -0.7421 -0.1294 -0.1529
  118OSM    C4F12371  -0.038   3.665   6.509 -0.2275 -0.5258 -0.6851
  118OSM    H4F12372  -0.127   3.730   6.530  0.8539  0.7257  0.2297
  118OSM    H4G12373  -0.057   3.563   6.548 -0.7016  0.0650  0.7137
  118OSM    C5F12374  -0.021   3.645   6.363 -0.0802  0.1326  0.1844
  118OSM    H5F12375  -0.111   3.588   6.329 -0.5962  0.6558  0.6555
  118OSM    H5G12376   0.061   3.571   6.354 -0.4251 -0.1180 -1.1579
  118OSM    C6F12377  -0.005   3.768   6.272  0.3341 -0.2314 -0.0166
  118OSM    H6F12378   0.090   3.820   6.298  0.8669 -0.6126 -1.1344
  118OSM    H6G12379  -0.088   3.841   6.282  2.0602  1.9458 -0.7498
  118OSM    C7F12380  -0.005   3.737   6.122  0.5588  0.0174 -0.1966
  118OSM    H7F12381   0.073   3.658   6.106  1.9165  0.3178  3.7721
  118OSM    H7G12382   0.010   3.829   6.061  3.0698  1.0060  1.7271
  118OSM    C8F12383  -0.141   3.667   6.085  0.2461 -0.5481  0.6735
  118OSM    H8F12384  -0.215   3.696   6.162 -0.5127 -1.6890  0.4078
  118OSM    H8G12385  -0.139   3.556   6.096 -1.5182 -0.7073 -0.2899
  118OSM    C9F12386  -0.187   3.706   5.944 -0.4653 -0.1936 -0.5507
  118OSM    H9F12387  -0.260   3.788   5.940  1.2716  1.7120  2.5650
  118OSM   C10F12388  -0.148   3.650   5.832 -0.7079  0.5505  0.2746
  118OSM   H10F12389  -0.197   3.673   5.736  1.9344  1.5005 -0.9356
  118OSM   C11F12390  -0.047   3.539   5.830 -0.2383 -0.1912 -0.0734
  118OSM   H11F12391  -0.105   3.451   5.868 -3.1889  0.8420 -1.8758
  118OSM   H11G12392   0.049   3.558   5.882 -1.6637 -1.3694  3.3258
  118OSM   C12F12393  -0.023   3.489   5.682 -0.0330 -0.3462 -0.0171
  118OSM   H12F12394  -0.117   3.488   5.623 -1.3840  4.1839  1.6240
  118OSM   H12G12395   0.023   3.388   5.683 -1.3438 -0.9807 -0.9950
  118OSM   C13F12396   0.074   3.573   5.601 -0.3262 -0.1711 -0.2379
  118OSM   H13F12397   0.172   3.583   5.651  1.1821 -1.2389 -2.7901
  118OSM   H13G12398   0.029   3.674   5.588  1.4297  0.7679  0.7052
  118OSM   C14F12399   0.090   3.519   5.452  1.5203  0.0933  0.0636
  118OSM   H14F12400  -0.010   3.525   5.403  1.4674  1.2470  0.2694
  118OSM   H14G12401   0.114   3.411   5.449 -0.1781 -0.3865 -4.7613
  118OSM   C15F12402   0.195   3.590   5.363 -0.8606  0.1573 -0.6481
  118OSM   H15F12403   0.284   3.581   5.429 -0.9011  0.3882 -0.5611
  118OSM   H15G12404   0.167   3.692   5.329 -2.8127  0.3721  1.3543
  118OSM   C16F12405   0.227   3.511   5.233  0.0589 -1.3692 -0.2716
  118OSM   H16F12406   0.133   3.483   5.181  0.4098 -2.0291 -0.5729
  118OSM   H16G12407   0.274   3.411   5.250  1.7488 -0.5923 -0.2001
  118OSM   C17F12408   0.312   3.592   5.137  0.0135  0.0248  0.0213
  118OSM   H17F12409   0.343   3.528   5.051  1.4034 -0.3635  0.7777
  118OSM   H17G12410   0.402   3.625   5.193 -0.3541 -1.7246  1.7690
  118OSM   C18F12411   0.256   3.722   5.070  0.1782 -0.5585 -0.4275
  118OSM   H18F12412   0.266   3.801   5.147  0.1076 -1.4572  0.5336
  118OSM   H18G12413   0.149   3.699   5.050  0.1429  0.6376 -1.7706
  118OSM   H18H12414   0.314   3.735   4.976 -0.2175 -1.7360 -0.8630
  119OSM      N12415   3.435   0.948   7.517 -0.6001  0.3722  0.5365
  119OSM    C1512416   3.325   0.851   7.492  0.3588  0.1451  0.6738
  119OSM   H15A12417   3.262   0.831   7.578 -0.3703 -0.8565 -0.0760
  119OSM   H15B12418   3.366   0.752   7.476 -0.1812 -0.3403  2.0723
  119OSM   H15C12419   3.266   0.875   7.406  0.9073  1.5272  0.6591
  119OSM    C1412420   3.367   1.067   7.569 -0.0204  0.0431 -0.1153
  119OSM   H14A12421   3.313   1.049   7.661 -0.6834  0.9556 -0.3131
  119OSM   H14B12422   3.291   1.099   7.500 -0.8690 -2.8178 -0.6492
  119OSM   H14C12423   3.432   1.150   7.596  0.1416 -0.6934  1.9275
  119OSM    C1312424   3.522   0.884   7.624 -0.2276  0.1930 -0.0879
  119OSM   H13A12425   3.542   0.783   7.592 -0.6075 -0.1570  0.7542
  119OSM   H13B12426   3.479   0.872   7.722 -0.3771  0.5419 -0.1099
  119OSM   H13C12427   3.619   0.931   7.636 -0.5936  1.2579 -1.0625
  119OSM    C1212428   3.521   0.987   7.391 -0.2786  0.5969  0.4918
  119OSM   H12A12429   3.558   0.906   7.328 -0.6711 -0.1426  1.2014
  119OSM   H12B12430   3.614   1.033   7.422  0.4664  0.5788 -1.5013
  119OSM    C1112431   3.453   1.081   7.288  0.6304  0.0472 -0.1591
  119OSM   H11A12432   3.530   1.094   7.209  1.5325 -0.8717  0.5347
  119OSM   H11B12433   3.429   1.176   7.341 -0.6534  0.6174 -1.6723
  119OSM      P12434   3.228   1.078   7.155 -0.4143  0.0080  0.1942
  119OSM    O1312435   3.135   0.974   7.096 -0.1745  0.5305 -0.0276
  119OSM    O1412436   3.167   1.174   7.249  0.1683 -0.6052 -0.2060
  119OSM    O1112437   3.301   1.149   7.038 -0.3014  0.2916  0.3434
  119OSM    O1212438   3.347   1.007   7.238 -0.4137 -0.6428 -0.1185
  119OSM    C1S12439   3.387   1.089   6.937 -0.1391  0.0057 -0.2129
  119OSM    H1S12440   3.347   0.990   6.907  0.3213 -0.6339  1.1944
  119OSM    H1T12441   3.492   1.078   6.972  0.3076  2.1470 -0.6928
  119OSM     NF12442   3.444   1.092   6.694 -0.2782  0.4369  0.4237
  119OSM    HNF12443   3.537   1.104   6.660 -1.1434  0.1597 -2.2810
  119OSM    C2S12444   3.399   1.173   6.807  0.1126 -1.2356 -0.5081
  119OSM    H2S12445   3.298   1.204   6.774 -0.3056 -2.5385 -0.5057
  119OSM    C3S12446   3.469   1.306   6.834  0.1481 -0.4063 -0.5642
  119OSM    H3S12447   3.559   1.282   6.893  0.3006  0.9990 -0.1953
  119OSM     O312448   3.400   1.386   6.936  0.3561  0.0750  0.1466
  119OSM    HO312449   3.351   1.317   6.980  0.5976 -1.2915 -1.5886
  119OSM    C4S12450   3.499   1.380   6.712 -0.4590  0.1325 -0.6553
  119OSM    H4S12451   3.606   1.364   6.694 -0.1162 -1.4768  2.2485
  119OSM    C5S12452   3.421   1.464   6.649 -0.2314 -0.2246  0.1216
  119OSM    H5S12453   3.316   1.472   6.679  0.1245 -0.8314  1.5941
  119OSM    C6S12454   3.469   1.531   6.531  0.4603 -0.3941 -0.1984
  119OSM    H6S12455   3.572   1.506   6.498  2.0382  5.4432 -0.8509
  119OSM    H6T12456   3.454   1.640   6.548 -2.1951 -0.6319 -0.5418
  119OSM    C7S12457   3.399   1.501   6.401 -0.2702 -0.2091 -0.4835
  119OSM    H7S12458   3.293   1.533   6.402  0.0439  0.9178  1.1905
  119OSM    H7T12459   3.397   1.390   6.395  0.9223 -0.2576 -0.3011
  119OSM    C8S12460   3.454   1.555   6.271  0.2171  0.3768  0.1393
  119OSM    H8S12461   3.549   1.502   6.248 -0.2912  0.0111 -1.2449
  119OSM    H8T12462   3.474   1.664   6.266 -1.0708  0.6151 -0.2883
  119OSM    C9S12463   3.362   1.525   6.156  0.2656 -0.4998  0.3138
  119OSM    H9S12464   3.276   1.594   6.148  0.5017 -0.2068  0.2791
  119OSM    H9T12465   3.307   1.428   6.159  1.6603 -1.4652 -2.3122
  119OSM   C10S12466   3.438   1.535   6.023  0.3930  0.0464  0.2276
  119OSM   H10S12467   3.533   1.477   6.027 -0.4527 -1.3168  1.3699
  119OSM   H10T12468   3.457   1.642   5.998 -0.7681  0.5923  1.5587
  119OSM   C11S12469   3.346   1.487   5.906 -0.2995  0.5067  0.5330
  119OSM   H11S12470   3.246   1.533   5.926  0.5903  4.2152 -2.4130
  119OSM   H11T12471   3.339   1.377   5.922 -1.7801  1.0289  5.0169
  119OSM   C12S12472   3.410   1.523   5.774 -0.7943  0.7945 -0.2588
  119OSM   H12S12473   3.500   1.579   5.807  0.4177 -0.8535 -0.6727
  119OSM   H12T12474   3.334   1.586   5.722 -2.5876 -0.4027  0.8110
  119OSM   C13S12475   3.449   1.402   5.687  0.4301  0.0756  0.1779
  119OSM   H13S12476   3.358   1.361   5.639  0.5755 -2.2432  1.7245
  119OSM   H13T12477   3.474   1.313   5.749  0.2770  0.0952  0.2670
  119OSM   C14S12478   3.564   1.426   5.586 -0.4815  0.6881 -1.0573
  119OSM   H14S12479   3.662   1.436   5.639 -0.3843  0.0659 -1.1136
  119OSM   H14T12480   3.548   1.526   5.542 -1.4754  0.4099 -1.3526
  119OSM   C15S12481   3.587   1.315   5.485 -0.4366 -0.1984 -0.3053
  119OSM   H15S12482   3.497   1.296   5.422 -0.5014 -0.6441 -0.0854
  119OSM   H15T12483   3.616   1.226   5.545  2.1887  0.7442 -0.0662
  119OSM   C16S12484   3.709   1.349   5.395 -0.2932  1.0743 -0.2647
  119OSM   H16S12485   3.801   1.350   5.457 -0.6054  1.0377  0.2033
  119OSM   H16T12486   3.694   1.453   5.359  1.3104  0.6734 -2.2835
  119OSM   C17S12487   3.727   1.254   5.277 -0.0541  0.0915  0.5882
  119OSM   H17S12488   3.753   1.151   5.308 -1.5158 -1.6224 -3.2725
  119OSM   H17T12489   3.815   1.295   5.222  0.0992  0.7798  1.3105
  119OSM   C18S12490   3.608   1.252   5.184  0.3109  0.0146  0.2376
  119OSM   H18S12491   3.639   1.219   5.083 -0.7378 -1.3279  0.3307
  119OSM   H18T12492   3.556   1.350   5.174  0.0892 -0.1561 -0.3102
  119OSM   H18U12493   3.531   1.180   5.218  1.6709 -1.3455  0.5491
  119OSM    C1F12494   3.362   0.998   6.641  0.5378 -0.2492 -0.5765
  119OSM     OF12495   3.243   0.989   6.675  0.3735 -0.7999 -0.1058
  119OSM    C2F12496   3.419   0.908   6.535 -0.1657  0.2988  0.1219
  119OSM    H2F12497   3.476   0.831   6.590  1.1522  1.9967  1.2470
  119OSM    H2G12498   3.487   0.965   6.468 -1.4438  2.0671  0.2653
  119OSM    C3F12499   3.315   0.840   6.445 -0.1004  0.0316  0.4356
  119OSM    H3F12500   3.242   0.915   6.408  0.9285  0.6565 -0.3659
  119OSM    H3G12501   3.263   0.758   6.500 -2.1330  0.4457 -0.7869
  119OSM    C4F12502   3.383   0.771   6.322  0.3998 -0.6940  0.2124
  119OSM    H4F12503   3.299   0.750   6.252  3.1692 -2.9056 -2.7328
  119OSM    H4G12504   3.437   0.679   6.351  2.0351 -0.0984 -0.8556
  119OSM    C5F12505   3.469   0.864   6.242 -0.7594  0.2940  0.0560
  119OSM    H5F12506   3.567   0.890   6.287  0.4251 -1.1285 -1.5656
  119OSM    H5G12507   3.412   0.957   6.223 -1.1483  0.3076  1.2066
  119OSM    C6F12508   3.511   0.804   6.106  0.1349 -0.0868  0.3546
  119OSM    H6F12509   3.418   0.775   6.052  1.4613 -2.2890 -0.8758
  119OSM    H6G12510   3.574   0.716   6.131  0.4494  0.5496  1.8914
  119OSM    C7F12511   3.566   0.911   6.008  0.0803 -0.2101  0.5065
  119OSM    H7F12512   3.650   0.958   6.063 -0.1052  0.9219 -0.1441
  119OSM    H7G12513   3.493   0.990   5.979  1.8397  1.0169 -0.7953
  119OSM    C8F12514   3.592   0.846   5.874  0.1000  0.1330  0.7628
  119OSM    H8F12515   3.497   0.795   5.846  0.5946 -0.5702  0.3259
  119OSM    H8G12516   3.682   0.782   5.884  1.1704  1.6190  1.1218
  119OSM    C9F12517   3.629   0.939   5.759  0.3369 -0.2004  0.0976
  119OSM    H9F12518   3.636   1.041   5.798  0.2275 -0.2433  0.2295
  119OSM   C10F12519   3.654   0.903   5.632  0.6357 -0.1685 -0.7096
  119OSM   H10F12520   3.688   0.978   5.559  0.7361  1.6161  1.0834
  119OSM   C11F12521   3.649   0.765   5.575  0.6096  0.2798  0.0945
  119OSM   H11F12522   3.575   0.767   5.492 -0.8611  0.2338  1.3570
  119OSM   H11G12523   3.607   0.693   5.649  1.9963 -0.4847  0.1700
  119OSM   C12F12524   3.781   0.710   5.512 -0.0480 -0.5399 -0.6196
  119OSM   H12F12525   3.756   0.627   5.443 -0.2818  1.2235 -2.7578
  119OSM   H12G12526   3.847   0.670   5.593 -1.6916 -0.1281  1.0037
  119OSM   C13F12527   3.846   0.814   5.414 -0.1479 -0.4620  0.3555
  119OSM   H13F12528   3.919   0.870   5.476 -0.1390  1.0634 -0.9706
  119OSM   H13G12529   3.760   0.874   5.377 -0.3672 -0.2954  1.1140
  119OSM   C14F12530   3.917   0.757   5.289 -0.3695  0.0889 -0.0899
  119OSM   H14F12531   3.845   0.695   5.231 -1.3171  0.5872  0.5290
  119OSM   H14G12532   4.007   0.697   5.315  0.9266  0.9823 -2.2795
  119OSM   C15F12533   3.976   0.857   5.179 -0.0493 -0.2301  0.3868
  119OSM   H15F12534   4.062   0.920   5.209  0.8645 -1.8820  1.4119
  119OSM   H15G12535   3.895   0.932   5.162  1.6940  1.6176 -0.0899
  119OSM   C16F12536   3.998   0.783   5.043  0.0935  0.0073 -0.5957
  119OSM   H16F12537   3.909   0.718   5.029  0.2219  0.1613 -2.3262
  119OSM   H16G12538   4.092   0.727   5.061 -0.9178 -1.0887  1.7527
  119OSM   C17F12539   4.012   0.863   4.919 -0.5309  0.7717  0.5133
  119OSM   H17F12540   3.918   0.921   4.910 -1.4501 -0.4908  1.5819
  119OSM   H17G12541   4.013   0.792   4.834 -1.5465  0.3229  0.8634
  119OSM   C18F12542   4.127   0.959   4.937  0.1659 -0.2645  0.0904
  119OSM   H18F12543   4.111   1.029   5.021  0.3639 -0.4249  0.2640
  119OSM   H18G12544   4.133   1.015   4.842  1.4431  2.7296  1.8166
  119OSM   H18H12545   4.224   0.905   4.948 -0.5312 -1.5976 -0.0391
  120OSM      N12546   5.934   4.838   7.586 -0.2622  0.6881 -0.6059
  120OSM    C1512547   6.039   4.744   7.638 -0.0968 -0.1493  0.0169
  120OSM   H15A12548   6.076   4.677   7.562 -0.3515  0.7881 -0.9520
  120OSM   H15B12549   6.002   4.687   7.723  1.3864 -3.0992 -1.1602
  120OSM   H15C12550   6.123   4.799   7.678 -0.4728  2.0284 -1.9903
  120OSM    C1412551   5.806   4.764   7.594 -0.1247  0.2489  0.5287
  120OSM   H14A12552   5.725   4.827   7.563  0.3357  0.6346  0.1039
  120OSM   H14B12553   5.775   4.724   7.690 -2.6553  0.7274 -0.0300
  120OSM   H14C12554   5.805   4.685   7.521  0.5964  0.6729  0.0475
  120OSM    C1312555   5.942   4.952   7.682  0.4422 -0.0957 -0.1578
  120OSM   H13A12556   5.854   5.014   7.675  0.5084 -0.0211 -0.3415
  120OSM   H13B12557   6.037   5.002   7.665  0.9726 -1.3878 -1.1277
  120OSM   H13C12558   5.935   4.909   7.781 -0.5569 -1.8922 -0.9668
  120OSM    C1212559   5.970   4.873   7.445 -0.8228  0.1467  0.1708
  120OSM   H12A12560   5.902   4.950   7.411 -0.9158  0.2759  0.6415
  120OSM   H12B12561   5.946   4.789   7.381 -0.5040  0.4894 -0.4037
  120OSM    C1112562   6.111   4.918   7.401  0.4972 -0.7689  0.7397
  120OSM   H11A12563   6.102   4.937   7.292  0.3805 -0.7704  0.7487
  120OSM   H11B12564   6.182   4.835   7.420  1.1841 -0.3029  0.2199
  120OSM      P12565   6.113   5.182   7.421  0.0829 -0.0900 -0.4867
  120OSM    O1312566   6.021   5.232   7.527 -0.3554  0.3349 -0.0627
  120OSM    O1412567   6.239   5.259   7.409  0.2431  0.2167  0.1076
  120OSM    O1112568   6.037   5.176   7.285  0.0135  0.0762  0.3648
  120OSM    O1212569   6.157   5.032   7.467 -0.3000 -0.6984 -0.3787
  120OSM    C1S12570   6.050   5.263   7.174  0.0716 -0.2981 -0.3942
  120OSM    H1S12571   6.131   5.338   7.189 -0.5740  0.0826  1.4280
  120OSM    H1T12572   5.958   5.323   7.166 -0.3423 -0.9008 -0.2479
  120OSM     NF12573   6.108   5.292   6.938 -0.3670  0.3965  0.1844
  120OSM    HNF12574   6.032   5.334   6.889  0.2837  1.9690  0.4803
  120OSM    C2S12575   6.075   5.192   7.037 -0.0324 -0.0541 -0.5061
  120OSM    H2S12576   6.169   5.133   7.047  1.2839  1.8478 -0.9404
  120OSM    C3S12577   5.946   5.109   6.998 -0.6816 -0.3578 -0.6227
  120OSM    H3S12578   5.860   5.178   6.987 -0.6143 -0.0832  0.4775
  120OSM     O312579   5.904   5.029   7.111 -0.7194  0.6296  0.4474
  120OSM    HO312580   5.944   5.059   7.193  0.0971 -1.8513  1.0567
  120OSM    C4S12581   5.955   5.034   6.870 -0.5573 -0.4102  0.0134
  120OSM    H4S12582   5.939   5.099   6.783  1.6995 -1.5030 -1.3197
  120OSM    C5S12583   6.002   4.906   6.850  0.3818 -0.0919 -0.3860
  120OSM    H5S12584   6.030   4.844   6.937 -0.1242 -1.4001 -1.1243
  120OSM    C6S12585   6.005   4.847   6.712 -0.0037  0.0657  0.2426
  120OSM    H6S12586   6.000   4.736   6.707  1.0221  0.0348 -0.6517
  120OSM    H6T12587   6.102   4.857   6.658 -0.7268 -0.7781 -1.2514
  120OSM    C7S12588   5.903   4.896   6.607  0.0926  0.3001  0.3392
  120OSM    H7S12589   5.927   5.000   6.576 -2.0581  0.8164  0.2410
  120OSM    H7T12590   5.805   4.901   6.659 -0.8783  0.8927 -1.4218
  120OSM    C8S12591   5.887   4.811   6.482 -0.1379  0.4899  0.4734
  120OSM    H8S12592   5.854   4.706   6.502 -2.1429  0.4207 -2.5188
  120OSM    H8T12593   5.992   4.809   6.448  0.1001 -0.5148  1.2033
  120OSM    C9S12594   5.801   4.874   6.371 -0.2829  0.0589 -0.2504
  120OSM    H9S12595   5.841   4.978   6.373 -1.4462  0.6039 -2.0679
  120OSM    H9T12596   5.696   4.887   6.402 -0.0151  1.6834  0.0387
  120OSM   C10S12597   5.821   4.795   6.240  0.4666  0.0350 -0.9755
  120OSM   H10S12598   5.793   4.689   6.256  1.1928 -0.2318 -1.4185
  120OSM   H10T12599   5.928   4.798   6.212  0.6752 -1.1561 -0.3622
  120OSM   C11S12600   5.726   4.835   6.127 -0.3310 -0.2782  0.6373
  120OSM   H11S12601   5.729   4.946   6.127 -2.3220 -0.1878  0.5896
  120OSM   H11T12602   5.620   4.811   6.152 -0.6724 -0.4541 -0.8566
  120OSM   C12S12603   5.773   4.791   5.985 -0.0593 -0.4826  0.1885
  120OSM   H12S12604   5.753   4.685   5.959  2.8000 -0.9877 -0.3328
  120OSM   H12T12605   5.884   4.794   5.974  0.0581 -2.2742  0.5663
  120OSM   C13S12606   5.715   4.873   5.863  0.1556  0.0290  0.1958
  120OSM   H13S12607   5.745   4.979   5.877 -2.3824  0.9748 -0.9723
  120OSM   H13T12608   5.606   4.871   5.883  0.2733 -0.1515  0.8417
  120OSM   C14S12609   5.745   4.832   5.715 -0.4618 -0.0368  0.8891
  120OSM   H14S12610   5.664   4.760   5.694 -0.4552 -0.5127  2.3505
  120OSM   H14T12611   5.841   4.776   5.717  0.4887  1.5291  3.0559
  120OSM   C15S12612   5.736   4.945   5.610  0.6067  0.0151 -0.1553
  120OSM   H15S12613   5.823   5.011   5.625  0.0488  0.4977  1.1190
  120OSM   H15T12614   5.638   4.996   5.618 -0.6564 -2.1758 -0.5629
  120OSM   C16S12615   5.762   4.882   5.467 -0.5467  0.2105  0.2292
  120OSM   H16S12616   5.688   4.804   5.436 -1.1417  0.3091  1.3554
  120OSM   H16T12617   5.864   4.839   5.472 -0.9878 -0.9627 -0.3186
  120OSM   C17S12618   5.781   4.973   5.349 -0.1658 -0.5204 -0.2199
  120OSM   H17S12619   5.868   5.040   5.370 -0.4277  0.7328 -2.7415
  120OSM   H17T12620   5.690   5.036   5.338 -1.7564 -3.0990 -3.9453
  120OSM   C18S12621   5.817   4.896   5.216 -0.7910 -0.2541 -0.6812
  120OSM   H18S12622   5.889   4.950   5.151  0.2933  1.2826  1.6945
  120OSM   H18T12623   5.728   4.889   5.149 -0.1588  0.5678 -1.6494
  120OSM   H18U12624   5.854   4.796   5.247 -1.7583  0.0201  1.5557
  120OSM    C1F12625   6.226   5.353   6.934  0.8854 -0.0787 -0.2929
  120OSM     OF12626   6.311   5.327   7.017  0.1371 -0.7619  0.0312
  120OSM    C2F12627   6.251   5.455   6.822 -0.3673  0.0793 -0.8054
  120OSM    H2F12628   6.285   5.547   6.873  0.0346 -0.6775  0.3257
  120OSM    H2G12629   6.153   5.466   6.770 -0.2928  1.7289 -0.6438
  120OSM    C3F12630   6.361   5.423   6.718 -1.2360 -0.2689  0.2543
  120OSM    H3F12631   6.456   5.448   6.770 -1.9575  1.9828  0.5925
  120OSM    H3G12632   6.360   5.500   6.639 -2.2378  0.4938  0.9885
  120OSM    C4F12633   6.353   5.294   6.638  1.3077  0.8001  0.0225
  120OSM    H4F12634   6.363   5.202   6.699  2.3451  0.9759  0.1335
  120OSM    H4G12635   6.448   5.298   6.580  1.1879  1.2878 -0.1384
  120OSM    C5F12636   6.232   5.275   6.547  0.5204 -0.1111 -0.6190
  120OSM    H5F12637   6.217   5.364   6.482  0.9213  0.4947  0.1029
  120OSM    H5G12638   6.145   5.275   6.616  0.1196 -0.4109 -1.1216
  120OSM    C6F12639   6.235   5.144   6.467  0.3615  0.8291  0.4641
  120OSM    H6F12640   6.255   5.061   6.539  0.8317  1.4980  1.1180
  120OSM    H6G12641   6.317   5.154   6.393  0.2873 -0.6826  0.1345
  120OSM    C7F12642   6.104   5.119   6.386 -0.6933  0.0037  0.0600
  120OSM    H7F12643   6.019   5.144   6.454 -0.2177  0.3184  0.5398
  120OSM    H7G12644   6.106   5.010   6.366 -0.7973  0.1238 -0.6286
  120OSM    C8F12645   6.104   5.191   6.255  0.8006  0.3377  0.2048
  120OSM    H8F12646   6.198   5.171   6.200 -0.1133 -1.1986 -0.8551
  120OSM    H8G12647   6.105   5.300   6.279 -0.8257 -0.1303  2.8316
  120OSM    C9F12648   5.980   5.154   6.183  0.1651 -0.5777  1.1473
  120OSM    H9F12649   5.886   5.160   6.240 -0.5280  0.6809 -0.0898
  120OSM   C10F12650   5.979   5.102   6.061 -0.4663 -0.0744 -0.3481
  120OSM   H10F12651   5.885   5.078   6.010 -0.4062  0.3066 -0.6481
  120OSM   C11F12652   6.093   5.074   5.975  0.4102  1.0273  0.0312
  120OSM   H11F12653   6.093   4.964   5.960 -1.0181  0.8191  1.3601
  120OSM   H11G12654   6.191   5.105   6.016  0.2121  0.5210  0.9003
  120OSM   C12F12655   6.078   5.147   5.840 -0.2423 -0.1491  0.0412
  120OSM   H12F12656   6.105   5.253   5.859  0.4264 -0.3002 -0.0199
  120OSM   H12G12657   5.979   5.150   5.791  0.9391  1.2345 -2.4419
  120OSM   C13F12658   6.181   5.077   5.743  0.5490 -0.9241 -0.5216
  120OSM   H13F12659   6.157   4.970   5.760  0.4441 -0.7108  0.7421
  120OSM   H13G12660   6.283   5.093   5.784  0.4455  0.7401 -0.8147
  120OSM   C14F12661   6.169   5.116   5.599  0.7607 -0.6898  0.0502
  120OSM   H14F12662   6.219   5.215   5.587  0.2269 -0.3490  0.5946
  120OSM   H14G12663   6.062   5.136   5.579  1.0230  0.5398 -0.1955
  120OSM   C15F12664   6.216   5.031   5.482  0.5551  0.4436  0.1721
  120OSM   H15F12665   6.152   4.941   5.496 -0.5045  0.5558 -3.1875
  120OSM   H15G12666   6.322   4.996   5.481  0.6553  0.6001  1.8114
  120OSM   C16F12667   6.184   5.086   5.345  0.0430 -0.2228  0.1539
  120OSM   H16F12668   6.212   5.194   5.341 -1.3189  0.1553  0.5220
  120OSM   H16G12669   6.074   5.087   5.331 -0.0739  0.2034  1.0783
  120OSM   C17F12670   6.252   5.006   5.227 -0.1058  0.0860  0.1249
  120OSM   H17F12671   6.223   4.899   5.236  0.1283  0.0243  0.1547
  120OSM   H17G12672   6.363   5.004   5.224 -0.1108 -1.9829 -1.9897
  120OSM   C18F12673   6.205   5.040   5.084 -0.7086 -0.8112 -0.9282
  120OSM   H18F12674   6.221   5.150   5.071  0.6649 -1.0568 -1.4166
  120OSM   H18G12675   6.097   5.016   5.076 -0.8889 -0.4286  0.1265
  120OSM   H18H12676   6.260   4.983   5.006  1.4246 -1.0123  0.6272
  121OSM      N12677   0.586   2.534   7.745  0.1932 -0.3269  0.3248
  121OSM    C1512678   0.469   2.563   7.649 -0.5112 -0.2299  0.4014
  121OSM   H15A12679   0.484   2.531   7.548 -0.1337 -1.3776  0.8073
  121OSM   H15B12680   0.440   2.667   7.658 -1.4564 -0.6038  2.4447
  121OSM   H15C12681   0.385   2.509   7.691  0.0326 -2.8378 -1.6577
  121OSM    C1412682   0.543   2.549   7.887 -0.8994 -0.1145  0.0290
  121OSM   H14A12683   0.453   2.492   7.909 -1.6747  1.1332  0.1666
  121OSM   H14B12684   0.537   2.652   7.918 -0.4614 -0.1812  0.3339
  121OSM   H14C12685   0.618   2.506   7.951  0.1066 -1.2083 -1.7862
  121OSM    C1312686   0.626   2.388   7.722  0.7943  0.2473  0.4553
  121OSM   H13A12687   0.688   2.366   7.808 -0.0335 -0.5230  0.8768
  121OSM   H13B12688   0.679   2.383   7.629  2.1296  0.2360  1.1954
  121OSM   H13C12689   0.542   2.319   7.723  1.0348 -0.1510 -1.7674
  121OSM    C1212690   0.705   2.629   7.714 -0.3584  0.2247 -1.0519
  121OSM   H12A12691   0.781   2.607   7.787 -1.0292 -1.8404 -0.9058
  121OSM   H12B12692   0.671   2.728   7.742 -1.7919 -0.4812 -0.1175
  121OSM    C1112693   0.769   2.627   7.573  0.2110  0.2705 -0.6210
  121OSM   H11A12694   0.854   2.698   7.568 -0.7113  1.3509 -1.6268
  121OSM   H11B12695   0.699   2.664   7.495 -0.9413 -2.5811 -1.0596
  121OSM      P12696   0.949   2.437   7.554 -0.0031 -0.1921 -0.0045
  121OSM    O1312697   1.023   2.516   7.656 -0.2171 -0.6667 -0.0163
  121OSM    O1412698   0.955   2.286   7.574  0.3612  0.1657 -0.3815
  121OSM    O1112699   0.997   2.468   7.411 -0.0300  0.1417  0.3280
  121OSM    O1212700   0.795   2.494   7.535 -0.3157  0.1917 -0.5422
  121OSM    C1S12701   0.954   2.384   7.292 -0.2079 -0.4201 -0.6787
  121OSM    H1S12702   0.844   2.399   7.279 -0.0922  1.6057  0.1642
  121OSM    H1T12703   0.968   2.274   7.293 -2.0688 -0.7047 -1.5783
  121OSM     NF12704   0.960   2.368   7.040  0.0603 -0.2473  0.0209
  121OSM    HNF12705   1.002   2.303   6.977  0.1774 -0.7256  0.5812
  121OSM    C2S12706   1.024   2.421   7.159 -0.2160 -0.7002 -0.1575
  121OSM    H2S12707   1.027   2.531   7.144 -0.3288 -0.7928 -0.9168
  121OSM    C3S12708   1.172   2.391   7.177  0.2616  0.2544 -0.0705
  121OSM    H3S12709   1.181   2.281   7.194  0.6012  0.1128 -1.1371
  121OSM     O312710   1.236   2.459   7.286  0.9695  0.0802 -0.4329
  121OSM    HO312711   1.159   2.493   7.331  1.6340 -0.2115  0.9892
  121OSM    C4S12712   1.244   2.412   7.052  0.2629  0.1679  0.6164
  121OSM    H4S12713   1.237   2.513   7.010  0.1715  0.6796  1.8218
  121OSM    C5S12714   1.317   2.324   6.986  0.1018 -0.1989  0.4551
  121OSM    H5S12715   1.318   2.217   7.012 -0.7165  0.0474  1.5679
  121OSM    C6S12716   1.387   2.355   6.857  0.3611 -0.4078  0.1585
  121OSM    H6S12717   1.498   2.350   6.865  0.2696 -0.6361  1.7977
  121OSM    H6T12718   1.354   2.453   6.816  0.2758 -0.9956 -1.2177
  121OSM    C7S12719   1.321   2.260   6.742 -0.1144  0.3061  0.2669
  121OSM    H7S12720   1.379   2.281   6.650 -1.1399 -0.8473 -0.6652
  121OSM    H7T12721   1.216   2.291   6.723  0.3742  0.9536 -1.5700
  121OSM    C8S12722   1.330   2.105   6.774  0.2990 -0.4159 -0.3157
  121OSM    H8S12723   1.240   2.078   6.833  0.8284 -0.6202  0.4147
  121OSM    H8T12724   1.424   2.089   6.831 -1.2797  0.5084  2.7767
  121OSM    C9S12725   1.315   2.038   6.636  0.2075  0.1564  0.6579
  121OSM    H9S12726   1.324   1.928   6.645 -1.9572  0.0657  3.0338
  121OSM    H9T12727   1.399   2.075   6.574 -0.7455 -0.4545 -1.0650
  121OSM   C10S12728   1.181   2.069   6.557 -0.9161 -0.6927 -0.1122
  121OSM   H10S12729   1.155   2.177   6.559 -0.1805 -0.4552 -1.8120
  121OSM   H10T12730   1.096   2.015   6.603  0.3821 -3.5312 -0.8470
  121OSM   C11S12731   1.193   2.036   6.405 -0.2116  0.3351 -0.3658
  121OSM   H11S12732   1.263   2.107   6.355  0.4145 -0.9403 -1.3626
  121OSM   H11T12733   1.096   2.042   6.350  0.6909  1.6172 -1.9181
  121OSM   C12S12734   1.248   1.897   6.376  0.5050 -0.0073  0.7284
  121OSM   H12S12735   1.181   1.821   6.421 -2.3643  0.7875 -1.8599
  121OSM   H12T12736   1.356   1.895   6.401  0.8227  4.3038  0.4950
  121OSM   C13S12737   1.249   1.869   6.227  0.2286 -0.9707  0.4265
  121OSM   H13S12738   1.300   1.953   6.175 -1.9393  0.6240  0.7476
  121OSM   H13T12739   1.149   1.862   6.180  1.9939  0.6510 -4.1760
  121OSM   C14S12740   1.332   1.741   6.204 -0.1457 -0.2490 -0.6304
  121OSM   H14S12741   1.281   1.650   6.242  0.2034 -1.7046 -3.3803
  121OSM   H14T12742   1.420   1.751   6.271 -1.6594 -0.1961  1.4481
  121OSM   C15S12743   1.370   1.736   6.051  0.7150 -0.1161  0.0480
  121OSM   H15S12744   1.467   1.684   6.035  0.4117 -0.2508 -1.5686
  121OSM   H15T12745   1.381   1.840   6.014 -1.4338  0.7872  1.7117
  121OSM   C16S12746   1.261   1.664   5.965  0.0942  0.1003 -0.1930
  121OSM   H16S12747   1.163   1.697   6.005  2.3284  3.3995  3.1865
  121OSM   H16T12748   1.273   1.556   5.988  1.8660  0.7408  2.3170
  121OSM   C17S12749   1.244   1.705   5.824  0.1301  0.1583 -0.0211
  121OSM   H17S12750   1.345   1.709   5.779  0.6052 -4.3929  0.2282
  121OSM   H17T12751   1.200   1.805   5.803 -2.6621 -1.0307 -0.3414
  121OSM   C18S12752   1.149   1.616   5.743 -0.2917 -0.7868  0.5519
  121OSM   H18S12753   1.048   1.655   5.769 -0.1848 -1.5207  2.1933
  121OSM   H18T12754   1.158   1.509   5.772 -1.4594 -1.3620 -1.0726
  121OSM   H18U12755   1.165   1.619   5.633 -3.4974 -2.6947 -0.0903
  121OSM    C1F12756   0.835   2.397   6.994  0.3912 -0.3485 -0.6060
  121OSM     OF12757   0.775   2.498   7.033 -0.2402 -0.0736  0.0744
  121OSM    C2F12758   0.781   2.297   6.892 -0.5628 -0.1797  0.6422
  121OSM    H2F12759   0.718   2.213   6.926  2.6277 -2.6722  0.8963
  121OSM    H2G12760   0.867   2.258   6.833  0.0280 -2.4727  2.8401
  121OSM    C3F12761   0.698   2.375   6.787  0.5469 -0.6107  0.3188
  121OSM    H3F12762   0.772   2.448   6.749 -1.2528  0.2420 -1.7618
  121OSM    H3G12763   0.611   2.424   6.836 -1.0252 -0.9262 -2.0105
  121OSM    C4F12764   0.640   2.284   6.676 -0.4589  0.2510  0.3326
  121OSM    H4F12765   0.571   2.205   6.715  0.2542 -0.7150 -0.3090
  121OSM    H4G12766   0.726   2.235   6.626 -0.5527  1.1025 -0.6935
  121OSM    C5F12767   0.581   2.374   6.569  0.0976  0.4607  0.5573
  121OSM    H5F12768   0.663   2.441   6.535  3.2958 -3.1879  0.2843
  121OSM    H5G12769   0.492   2.429   6.607 -2.0598 -1.4297 -1.4304
  121OSM    C6F12770   0.527   2.292   6.457  0.1151 -0.4351 -0.7479
  121OSM    H6F12771   0.458   2.213   6.494  2.6970 -2.8032 -0.6932
  121OSM    H6G12772   0.608   2.238   6.404  1.1185 -0.6504  0.9447
  121OSM    C7F12773   0.466   2.377   6.337 -0.4183  0.7100 -0.2742
  121OSM    H7F12774   0.527   2.458   6.291  0.2105  0.2767 -0.2108
  121OSM    H7G12775   0.388   2.430   6.396  1.9460  0.5764  3.2720
  121OSM    C8F12776   0.401   2.292   6.223 -0.3167 -0.1290 -0.0555
  121OSM    H8F12777   0.334   2.214   6.264  0.0318 -2.1167 -2.9549
  121OSM    H8G12778   0.479   2.229   6.174  0.7587  0.4735  0.8406
  121OSM    C9F12779   0.315   2.371   6.129 -0.1479 -0.3828 -0.1689
  121OSM    H9F12780   0.277   2.465   6.171  1.4939  1.3489 -2.2942
  121OSM   C10F12781   0.319   2.356   5.993  0.0592  0.1960 -0.8123
  121OSM   H10F12782   0.242   2.413   5.940  0.0623  0.7604 -0.2265
  121OSM   C11F12783   0.387   2.245   5.916 -0.0579  0.0795 -0.1338
  121OSM   H11F12784   0.310   2.204   5.848 -1.7683  0.6993  1.3312
  121OSM   H11G12785   0.407   2.163   5.989 -0.2422  0.5663  0.4755
  121OSM   C12F12786   0.513   2.278   5.833  0.2221 -0.2136 -0.1831
  121OSM   H12F12787   0.585   2.326   5.903 -0.9115  1.5535 -0.1542
  121OSM   H12G12788   0.470   2.354   5.764 -0.7923 -2.5250 -2.2354
  121OSM   C13F12789   0.579   2.158   5.766  0.0047 -0.4904 -0.1018
  121OSM   H13F12790   0.583   2.080   5.845 -0.7399 -1.1854 -0.7280
  121OSM   H13G12791   0.686   2.175   5.741 -0.0268 -2.4937 -1.8957
  121OSM   C14F12792   0.513   2.113   5.633 -0.2412  0.2252 -0.0924
  121OSM   H14F12793   0.536   2.199   5.567 -1.9244 -0.2577 -1.3993
  121OSM   H14G12794   0.405   2.111   5.662 -0.3206  0.4740 -0.3676
  121OSM   C15F12795   0.559   1.985   5.564  0.1051  1.2054  0.4859
  121OSM   H15F12796   0.542   1.900   5.634  2.4324 -0.3561 -0.7143
  121OSM   H15G12797   0.670   1.998   5.566 -0.0531  2.8732  0.0024
  121OSM   C16F12798   0.500   1.985   5.423 -0.5390  0.0367  0.0951
  121OSM   H16F12799   0.566   1.919   5.363 -1.0707 -0.2903 -0.1391
  121OSM   H16G12800   0.518   2.089   5.389  0.3313  0.2237  1.0956
  121OSM   C17F12801   0.356   1.948   5.410  0.9216  0.1180  0.0725
  121OSM   H17F12802   0.311   2.004   5.325 -3.6899 -2.2455  0.5833
  121OSM   H17G12803   0.306   1.985   5.501 -0.1850 -0.5526 -0.2412
  121OSM   C18F12804   0.328   1.799   5.411 -0.4302  0.3425  0.7534
  121OSM   H18F12805   0.227   1.753   5.406  0.7727 -2.4971  0.2707
  121OSM   H18G12806   0.382   1.757   5.498 -0.3191 -0.0702  0.4923
  121OSM   H18H12807   0.375   1.761   5.317 -1.0859  2.7616 -0.6257
  122OSM      N12808   6.740   5.122   7.448 -0.5147  0.8199  1.0928
  122OSM    C1512809   6.718   4.989   7.388 -0.4238 -0.7215 -0.1405
  122OSM   H15A12810   6.783   4.912   7.428  1.1115 -0.7067 -2.3616
  122OSM   H15B12811   6.737   4.996   7.282  2.1139  1.7837  0.3460
  122OSM   H15C12812   6.620   4.948   7.405 -0.6684 -0.3135 -0.5519
  122OSM    C1412813   6.632   5.216   7.392  0.1760  0.5172 -0.2436
  122OSM   H14A12814   6.534   5.188   7.426  0.4672  0.0167  0.2147
  122OSM   H14B12815   6.630   5.211   7.284 -1.0058 -0.2966 -0.1973
  122OSM   H14C12816   6.664   5.313   7.428  4.0154 -1.1181  1.3723
  122OSM    C1312817   6.718   5.118   7.597  0.2543 -0.0734  0.9549
  122OSM   H13A12818   6.717   5.216   7.642 -2.0649 -0.0155  0.9289
  122OSM   H13B12819   6.795   5.068   7.654 -0.0076 -1.2459  0.3220
  122OSM   H13C12820   6.625   5.066   7.617  0.4338 -0.9493 -0.3241
  122OSM    C1212821   6.876   5.184   7.411 -0.3677 -0.0511  0.6335
  122OSM   H12A12822   6.875   5.289   7.434 -2.0711  0.3121 -0.8351
  122OSM   H12B12823   6.880   5.182   7.303  1.5374  1.1324  0.6424
  122OSM    C1112824   7.005   5.115   7.459  0.9837 -0.3497 -0.1539
  122OSM   H11A12825   7.002   5.096   7.569  2.4358 -1.4327 -0.2674
  122OSM   H11B12826   7.089   5.185   7.443  2.4640 -2.1307 -0.5285
  122OSM      P12827   7.114   4.877   7.456 -0.6479  0.4293 -0.1553
  122OSM    O1312828   7.222   4.921   7.545 -0.0445 -0.2433  0.4697
  122OSM    O1412829   7.039   4.755   7.499  0.1442  0.3167 -0.6330
  122OSM    O1112830   7.187   4.834   7.325  0.1037  0.5318 -0.3798
  122OSM    O1212831   7.025   4.997   7.385 -0.3711  0.4576  0.6294
  122OSM    C1S12832   7.113   4.776   7.214 -0.4916 -0.6639  0.0660
  122OSM    H1S12833   7.014   4.729   7.234  0.0774 -2.8721 -1.8654
  122OSM    H1T12834   7.164   4.680   7.190  0.7329  0.0799 -0.3268
  122OSM     NF12835   7.097   4.793   6.977  0.1810 -0.1107  0.4388
  122OSM    HNF12836   7.176   4.779   6.918  0.7969 -0.7437  1.3932
  122OSM    C2S12837   7.108   4.873   7.092 -0.0048  0.7346 -0.3601
  122OSM    H2S12838   7.013   4.928   7.112 -0.4308 -0.4573  1.0451
  122OSM    C3S12839   7.220   4.984   7.101 -0.2313 -0.1241  0.0307
  122OSM    H3S12840   7.320   4.942   7.125 -0.0872 -1.4090 -2.4846
  122OSM     O312841   7.208   5.091   7.198  0.2385 -0.5217  0.1035
  122OSM    HO312842   7.133   5.059   7.249 -0.2265  0.2773 -0.0596
  122OSM    C4S12843   7.231   5.050   6.963 -0.3788  0.2855  0.1139
  122OSM    H4S12844   7.311   5.013   6.898 -1.5671 -3.2004  0.4252
  122OSM    C5S12845   7.153   5.152   6.919  0.3307  0.1219 -0.1049
  122OSM    H5S12846   7.076   5.202   6.980 -0.4763 -0.8436 -0.3045
  122OSM    C6S12847   7.165   5.207   6.779 -0.3335  0.3543 -0.0938
  122OSM    H6S12848   7.216   5.304   6.792  2.5335 -0.7143 -2.2668
  122OSM    H6T12849   7.059   5.225   6.751 -1.4002 -1.1801  2.5690
  122OSM    C7S12850   7.236   5.125   6.663 -0.1020 -0.3627 -0.6893
  122OSM    H7S12851   7.344   5.111   6.683  0.1799  2.9234  0.6801
  122OSM    H7T12852   7.219   5.178   6.567  0.8106 -0.8549 -1.1342
  122OSM    C8S12853   7.167   4.982   6.642  0.0647  0.2213  0.7259
  122OSM    H8S12854   7.057   4.990   6.644  0.0972  0.5695  1.5509
  122OSM    H8T12855   7.199   4.922   6.730 -1.8358  0.5241  1.6641
  122OSM    C9S12856   7.203   4.933   6.498 -0.1527  0.0526 -0.0985
  122OSM    H9S12857   7.197   4.822   6.498 -0.5064  0.0643  0.6201
  122OSM    H9T12858   7.305   4.977   6.500 -0.9438  2.0371 -0.8560
  122OSM   C10S12859   7.117   4.980   6.388  0.2880 -0.1627  0.2295
  122OSM   H10S12860   7.126   5.090   6.377 -1.4435 -0.0939 -0.7368
  122OSM   H10T12861   7.010   4.960   6.405  0.4411 -1.0972  0.1253
  122OSM   C11S12862   7.172   4.923   6.258  0.0079  1.3426  0.0129
  122OSM   H11S12863   7.181   4.813   6.267  0.5461  1.5038  2.0314
  122OSM   H11T12864   7.275   4.963   6.250  1.1395 -0.6895  2.8439
  122OSM   C12S12865   7.100   4.960   6.127  0.0466  0.4208 -0.1546
  122OSM   H12S12866   7.098   5.071   6.127 -3.0515  0.4560  0.6571
  122OSM   H12T12867   6.997   4.917   6.128  0.1953  0.0501 -0.3761
  122OSM   C13S12868   7.181   4.913   6.010 -0.3804  0.9886  0.7121
  122OSM   H13S12869   7.186   4.803   6.000 -0.3411  0.9221  1.4531
  122OSM   H13T12870   7.289   4.943   6.008  0.0819 -0.1754 -3.7596
  122OSM   C14S12871   7.126   4.963   5.873  0.3524  0.3099 -0.1994
  122OSM   H14S12872   7.145   5.071   5.853  0.2609  0.1288 -1.3136
  122OSM   H14T12873   7.015   4.959   5.873  0.3392  0.6667  0.0944
  122OSM   C15S12874   7.187   4.889   5.760  0.4668  0.2574  0.4674
  122OSM   H15S12875   7.138   4.790   5.747  0.5903  0.2821 -0.2224
  122OSM   H15T12876   7.289   4.855   5.785  0.8699  1.1438  0.0757
  122OSM   C16S12877   7.186   4.964   5.625 -0.0372  0.6676 -0.0973
  122OSM   H16S12878   7.234   5.065   5.624 -0.8202  1.0631  0.8624
  122OSM   H16T12879   7.079   4.986   5.605  0.0314  1.2026  0.1061
  122OSM   C17S12880   7.257   4.886   5.522  0.3264 -0.8764 -0.9670
  122OSM   H17S12881   7.220   4.781   5.515 -0.1600 -0.8044  0.3277
  122OSM   H17T12882   7.366   4.896   5.536  0.3169  1.8898 -2.2749
  122OSM   C18S12883   7.238   4.949   5.384  0.3152  0.3598 -0.7353
  122OSM   H18S12884   7.288   4.895   5.301  2.4397 -1.1569  1.4004
  122OSM   H18T12885   7.280   5.052   5.388  0.0767  0.4273  2.8549
  122OSM   H18U12886   7.128   4.967   5.372 -0.0919 -0.4404  1.4507
  122OSM    C1F12887   6.981   4.738   6.937 -0.3246 -1.1377 -0.5119
  122OSM     OF12888   6.883   4.747   7.006 -0.3697 -0.1592 -0.2536
  122OSM    C2F12889   6.991   4.658   6.816 -0.7872 -0.1308 -0.3783
  122OSM    H2F12890   7.068   4.578   6.827 -0.9532 -0.1128  1.0970
  122OSM    H2G12891   7.030   4.720   6.732  0.7126  2.8811  2.3189
  122OSM    C3F12892   6.865   4.586   6.767  0.2857 -0.4049  0.0573
  122OSM    H3F12893   6.783   4.656   6.740 -1.7071 -1.6203  2.5828
  122OSM    H3G12894   6.827   4.519   6.847 -1.0199  1.2966  0.9207
  122OSM    C4F12895   6.887   4.513   6.638  0.1004 -0.1371  0.7698
  122OSM    H4F12896   6.807   4.441   6.610  0.7303 -0.1981 -0.9760
  122OSM    H4G12897   6.980   4.453   6.642  1.0508  1.1943 -0.3336
  122OSM    C5F12898   6.915   4.618   6.521 -0.3047 -0.4054 -0.2793
  122OSM    H5F12899   7.018   4.661   6.524 -1.1191  1.5600  1.3313
  122OSM    H5G12900   6.847   4.704   6.535 -2.1700 -1.2640 -3.2130
  122OSM    C6F12901   6.865   4.550   6.394  0.3962 -0.2952 -0.1893
  122OSM    H6F12902   6.770   4.498   6.418  0.1920  0.7475  1.4685
  122OSM    H6G12903   6.945   4.479   6.361  0.1951 -0.8184  0.4252
  122OSM    C7F12904   6.835   4.654   6.288 -0.2480  0.1548  0.4572
  122OSM    H7F12905   6.904   4.740   6.294 -0.0723  0.0069  0.5843
  122OSM    H7G12906   6.736   4.699   6.312 -0.2534  0.4688 -0.1358
  122OSM    C8F12907   6.818   4.592   6.141  0.1779 -0.7713  0.0821
  122OSM    H8F12908   6.750   4.658   6.083 -2.5849 -1.2829  2.4806
  122OSM    H8G12909   6.767   4.498   6.169 -2.0431  0.8256  1.7598
  122OSM    C9F12910   6.949   4.564   6.063  0.8621  0.5912  0.1648
  122OSM    H9F12911   7.044   4.602   6.105  1.3496  1.1689 -1.3657
  122OSM   C10F12912   6.960   4.536   5.931  0.2058  0.1437 -0.2664
  122OSM   H10F12913   7.059   4.531   5.883  0.0098  1.1419 -0.7926
  122OSM   C11F12914   6.845   4.495   5.840  0.0887 -0.2673 -0.2232
  122OSM   H11F12915   6.750   4.498   5.897  0.3173 -1.3448  0.2333
  122OSM   H11G12916   6.848   4.390   5.805  1.9188 -0.7164  1.1457
  122OSM   C12F12917   6.835   4.595   5.723 -0.1447 -0.0001  0.6805
  122OSM   H12F12918   6.922   4.571   5.657  1.3616  2.6349  1.5513
  122OSM   H12G12919   6.846   4.700   5.757 -0.7700 -0.4475  2.3350
  122OSM   C13F12920   6.699   4.576   5.647 -0.2746  0.2656  0.3686
  122OSM   H13F12921   6.679   4.660   5.577 -1.5262  0.6081  1.1052
  122OSM   H13G12922   6.628   4.571   5.733 -1.2701  0.4386 -0.4271
  122OSM   C14F12923   6.696   4.447   5.567  1.0824  0.3129  0.1675
  122OSM   H14F12924   6.718   4.353   5.622 -1.4496  0.2719  1.2365
  122OSM   H14G12925   6.770   4.475   5.489 -0.8697  4.3486 -0.4908
  122OSM   C15F12926   6.561   4.414   5.508  0.2681 -0.3274 -0.0316
  122OSM   H15F12927   6.508   4.506   5.476 -1.6151 -1.6308 -0.8857
  122OSM   H15G12928   6.492   4.378   5.588 -1.8601  2.8979 -0.2558
  122OSM   C16F12929   6.586   4.312   5.396  0.1901 -0.0336  0.0743
  122OSM   H16F12930   6.639   4.223   5.436 -1.1409  0.3372  2.8919
  122OSM   H16G12931   6.655   4.361   5.325  1.0882  1.1149  1.6935
  122OSM   C17F12932   6.461   4.253   5.325 -0.5485  0.0121 -0.0068
  122OSM   H17F12933   6.401   4.334   5.279 -2.4851 -1.1923  0.2958
  122OSM   H17G12934   6.398   4.207   5.404  0.1903 -1.4481 -0.2248
  122OSM   C18F12935   6.494   4.146   5.216  0.4214  0.0018 -0.1387
  122OSM   H18F12936   6.547   4.064   5.270 -0.4774 -0.2485  0.3797
  122OSM   H18G12937   6.557   4.200   5.142  0.4613 -1.8993 -1.5383
  122OSM   H18H12938   6.402   4.100   5.175 -0.5693  1.4695  0.3387
  123OSM      N12939   5.471   3.145   2.369 -0.2521 -0.0879 -0.1999
  123OSM    C1512940   5.553   3.025   2.329  0.1085  0.0559  0.1045
  123OSM   H15A12941   5.632   3.003   2.399  0.3202 -1.9850 -0.7273
  123OSM   H15B12942   5.600   3.033   2.232  0.9669 -0.2491  0.4898
  123OSM   H15C12943   5.499   2.933   2.313  1.7547 -0.9217 -0.0879
  123OSM    C1412944   5.538   3.272   2.330 -0.1575 -0.3118 -0.5817
  123OSM   H14A12945   5.639   3.277   2.369  0.4146 -0.0821 -2.0342
  123OSM   H14B12946   5.485   3.355   2.373  0.9921 -0.6743  1.6943
  123OSM   H14C12947   5.543   3.278   2.222  0.4290 -2.1704 -0.6923
  123OSM    C1312948   5.349   3.141   2.290  0.3096  0.4596 -0.3032
  123OSM   H13A12949   5.368   3.135   2.183 -0.0621 -2.2873 -0.2907
  123OSM   H13B12950   5.283   3.224   2.310 -0.6168 -0.4130  0.3591
  123OSM   H13C12951   5.291   3.052   2.308  2.3044 -1.1043 -1.1547
  123OSM    C1212952   5.437   3.136   2.520  0.1216 -0.0208  0.4509
  123OSM   H12A12953   5.521   3.105   2.580 -0.4531 -2.8796 -0.0808
  123OSM   H12B12954   5.363   3.059   2.533 -1.9572  1.7496 -0.2924
  123OSM    C1112955   5.374   3.256   2.597 -0.4388 -0.6065  0.0438
  123OSM   H11A12956   5.427   3.347   2.563 -1.0111 -0.0750  0.5398
  123OSM   H11B12957   5.388   3.247   2.707 -0.7561 -3.9524 -0.0971
  123OSM      P12958   5.118   3.193   2.618 -0.2467  0.0408  0.2264
  123OSM    O1312959   4.995   3.272   2.596  0.3573  0.0856  0.0310
  123OSM    O1412960   5.117   3.059   2.559 -0.3244 -0.1201  0.0264
  123OSM    O1112961   5.152   3.190   2.775  1.1779  0.2456 -0.1498
  123OSM    O1212962   5.236   3.280   2.566 -0.8192 -0.9439 -0.0496
  123OSM    C1S12963   5.160   3.319   2.836  0.0284  0.2429 -0.3018
  123OSM    H1S12964   5.071   3.382   2.815 -1.3397 -0.9536  1.5994
  123OSM    H1T12965   5.255   3.370   2.807 -0.2908  1.5106  0.7986
  123OSM     NF12966   5.168   3.437   3.049 -0.5932  0.8726 -0.2157
  123OSM    HNF12967   5.255   3.464   3.091  0.2381  0.3964 -1.5809
  123OSM    C2S12968   5.160   3.303   2.989 -0.3727  0.1132  0.1578
  123OSM    H2S12969   5.060   3.259   3.012 -0.5217  1.1757  1.7379
  123OSM    C3S12970   5.279   3.217   3.033  0.2944 -0.2424 -0.3168
  123OSM    H3S12971   5.370   3.271   2.998  0.3532 -0.5674 -0.6854
  123OSM     O312972   5.287   3.084   2.979  0.1336 -0.0948  0.0734
  123OSM    HO312973   5.209   3.062   2.928 -0.3921  0.8697  0.4313
  123OSM    C4S12974   5.291   3.223   3.183  0.2039  0.3095 -0.3003
  123OSM    H4S12975   5.374   3.291   3.210  1.4125  0.1840 -3.3491
  123OSM    C5S12976   5.242   3.136   3.273  0.1524  0.3790  0.1383
  123OSM    H5S12977   5.197   3.041   3.241  1.4994 -0.0620 -0.4851
  123OSM    C6S12978   5.287   3.131   3.422 -0.7160  0.3359 -0.2376
  123OSM    H6S12979   5.330   3.034   3.456 -2.6990  0.1085  1.8290
  123OSM    H6T12980   5.205   3.139   3.495  1.7356  3.3034  2.4641
  123OSM    C7S12981   5.383   3.238   3.466  0.7422 -0.4634  0.0151
  123OSM    H7S12982   5.323   3.329   3.446  0.7806  0.3617  3.1006
  123OSM    H7T12983   5.469   3.242   3.396 -0.3676  0.8013 -1.3434
  123OSM    C8S12984   5.433   3.210   3.608  0.7069 -0.2734 -0.0142
  123OSM    H8S12985   5.510   3.131   3.600  0.0362 -0.7241 -4.1072
  123OSM    H8T12986   5.344   3.175   3.666  1.6989 -4.6737 -0.7933
  123OSM    C9S12987   5.483   3.339   3.669  0.2242  0.4828 -0.2564
  123OSM    H9S12988   5.407   3.420   3.675 -0.8501 -0.5942  1.2931
  123OSM    H9T12989   5.567   3.386   3.613  0.0985 -0.4010 -1.2230
  123OSM   C10S12990   5.525   3.319   3.815 -0.5381  0.3771 -0.0767
  123OSM   H10S12991   5.627   3.275   3.828 -0.8761 -0.9993 -1.6626
  123OSM   H10T12992   5.453   3.244   3.855  0.0236 -0.5458 -0.7383
  123OSM   C11S12993   5.502   3.440   3.899  0.0738  0.5129 -0.2008
  123OSM   H11S12994   5.397   3.476   3.888 -0.2856 -0.4716 -0.0913
  123OSM   H11T12995   5.567   3.521   3.860  0.7633  0.1980  0.2605
  123OSM   C12S12996   5.525   3.414   4.050  1.0822 -0.1251  0.6817
  123OSM   H12S12997   5.627   3.377   4.073  1.4741 -0.0955 -0.8587
  123OSM   H12T12998   5.455   3.340   4.092 -0.6380 -0.1804 -2.0082
  123OSM   C13S12999   5.517   3.552   4.130  0.5502 -0.3340  0.7547
  123OSM   H13S13000   5.414   3.593   4.122  0.8385  0.3568  0.5133
  123OSM   H13T13001   5.576   3.627   4.074 -1.6388  0.9978  0.0985
  123OSM   C14S13002   5.569   3.555   4.270  0.4391  0.8706 -0.0264
  123OSM   H14S13003   5.528   3.649   4.314 -0.7568 -0.7407  2.5908
  123OSM   H14T13004   5.679   3.567   4.278  0.1414  3.1147  1.8265
  123OSM   C15S13005   5.521   3.435   4.357  0.1405 -0.0750 -0.1528
  123OSM   H15S13006   5.551   3.335   4.319 -0.4014 -0.3060  0.0216
  123OSM   H15T13007   5.413   3.442   4.333  0.2770  1.6681 -0.4463
  123OSM   C16S13008   5.542   3.446   4.507  0.2668 -0.1608  0.0046
  123OSM   H16S13009   5.561   3.550   4.540  0.3068 -0.6142  1.4710
  123OSM   H16T13010   5.622   3.378   4.544 -2.6405 -3.5955  0.5022
  123OSM   C17S13011   5.427   3.391   4.587 -0.2895  0.1918  0.2121
  123OSM   H17S13012   5.386   3.300   4.538  0.3604 -0.5757  1.0565
  123OSM   H17T13013   5.340   3.460   4.587 -1.2449 -0.9860 -0.5608
  123OSM   C18S13014   5.475   3.352   4.728 -0.6319 -0.1710  0.2100
  123OSM   H18S13015   5.518   3.448   4.763 -0.5811  0.1648 -0.7437
  123OSM   H18T13016   5.548   3.268   4.730 -1.4064 -0.8594  0.2456
  123OSM   H18U13017   5.384   3.327   4.788  0.5372 -0.6142  1.8770
  123OSM    C1F13018   5.067   3.525   3.058 -0.1511  0.5601  0.4781
  123OSM     OF13019   4.948   3.489   3.028  0.0706  0.2797 -0.1783
  123OSM    C2F13020   5.102   3.666   3.109  0.2811  0.5290 -0.0400
  123OSM    H2F13021   5.093   3.732   3.020  1.6383  2.2454  1.0256
  123OSM    H2G13022   5.209   3.657   3.139  1.5202 -1.7131 -4.2664
  123OSM    C3F13023   5.000   3.712   3.209  0.2511  0.4605 -0.2590
  123OSM    H3F13024   4.894   3.724   3.177 -0.6445  0.2121  2.3765
  123OSM    H3G13025   5.042   3.806   3.251  1.9129  0.3793 -1.6582
  123OSM    C4F13026   4.986   3.612   3.329  0.2169  0.6761 -0.1124
  123OSM    H4F13027   4.925   3.526   3.293  2.0304 -0.0856 -1.5480
  123OSM    H4G13028   4.924   3.665   3.405 -0.3439 -1.6366  1.1543
  123OSM    C5F13029   5.113   3.575   3.402  0.0376 -0.0298 -0.0696
  123OSM    H5F13030   5.172   3.661   3.442 -0.8035  0.8892 -0.7365
  123OSM    H5G13031   5.175   3.506   3.340  1.2480  0.7911  0.1774
  123OSM    C6F13032   5.066   3.484   3.519 -0.2737  0.8830 -0.6017
  123OSM    H6F13033   5.155   3.437   3.566  0.0037  1.1984 -0.8078
  123OSM    H6G13034   5.003   3.401   3.481  0.4141  0.0239  0.0709
  123OSM    C7F13035   4.992   3.562   3.632 -0.0059 -0.2467  0.1927
  123OSM    H7F13036   4.886   3.587   3.610  0.1472 -0.5073 -0.8498
  123OSM    H7G13037   5.048   3.658   3.627  0.6193 -0.5539  0.9655
  123OSM    C8F13038   4.998   3.492   3.769 -0.2311 -0.6474  0.0261
  123OSM    H8F13039   5.102   3.461   3.791  0.0657 -0.4276 -0.9968
  123OSM    H8G13040   4.910   3.424   3.766 -0.8982  0.0452  2.1063
  123OSM    C9F13041   4.947   3.592   3.865 -0.0777  0.1469 -0.4954
  123OSM    H9F13042   4.868   3.654   3.819  0.5232  0.4927 -1.0898
  123OSM   C10F13043   4.979   3.614   3.993 -0.1137 -0.6053  0.2153
  123OSM   H10F13044   4.920   3.689   4.047  1.6189  0.4582  0.6971
  123OSM   C11F13045   5.101   3.554   4.061 -0.2577  0.0474 -0.0177
  123OSM   H11F13046   5.180   3.631   4.047  1.2062 -0.7748  2.9072
  123OSM   H11G13047   5.149   3.469   4.008 -0.3162 -1.2343  1.8644
  123OSM   C12F13048   5.072   3.527   4.207  0.0428 -0.3246  0.1867
  123OSM   H12F13049   5.046   3.621   4.260 -1.4474  0.7788 -2.3300
  123OSM   H12G13050   5.168   3.497   4.254 -0.2612 -2.0455 -0.2183
  123OSM   C13F13051   4.973   3.415   4.233  0.3396 -0.3523 -0.5754
  123OSM   H13F13052   5.002   3.323   4.179 -0.9884 -1.1015 -0.0439
  123OSM   H13G13053   4.873   3.442   4.192 -1.2160 -1.2472  2.3403
  123OSM   C14F13054   4.957   3.406   4.385  0.2969  0.3337 -0.2272
  123OSM   H14F13055   4.908   3.502   4.413 -0.2005 -0.2072  0.8295
  123OSM   H14G13056   5.051   3.391   4.441 -0.2094 -0.1419  0.5135
  123OSM   C15F13057   4.857   3.296   4.429  0.2123  0.1949 -0.1628
  123OSM   H15F13058   4.898   3.203   4.385 -0.5685  1.2020 -3.2412
  123OSM   H15G13059   4.763   3.310   4.373 -0.6600 -1.1009  0.9259
  123OSM   C16F13060   4.850   3.283   4.584  0.1405  0.1628 -0.7281
  123OSM   H16F13061   4.829   3.386   4.619 -2.6305 -0.3470 -0.6612
  123OSM   H16G13062   4.943   3.239   4.625 -1.5812 -3.4572 -0.2914
  123OSM   C17F13063   4.738   3.186   4.623 -0.5565 -0.5713  0.3797
  123OSM   H17F13064   4.780   3.104   4.684 -0.5271  0.3907  1.6916
  123OSM   H17G13065   4.702   3.142   4.527 -1.1216  0.3971  0.1258
  123OSM   C18F13066   4.617   3.250   4.695  0.4627  0.1273  0.3231
  123OSM   H18F13067   4.638   3.302   4.791  0.2868  0.8977 -0.0469
  123OSM   H18G13068   4.552   3.162   4.716  0.7801 -0.1459  0.1712
  123OSM   H18H13069   4.568   3.329   4.634  1.4143  1.3174  1.0666
  124OSM      N13070   5.876   5.599   2.744  0.2562  0.1942  0.1398
  124OSM    C1513071   5.924   5.459   2.780 -0.7513  0.2502  0.4900
  124OSM   H15A13072   5.927   5.393   2.695  2.3160  1.6957 -0.7071
  124OSM   H15B13073   5.866   5.416   2.860 -0.0895 -2.4248 -0.3495
  124OSM   H15C13074   6.026   5.469   2.815 -0.2088 -0.4876 -0.7921
  124OSM    C1413075   5.884   5.689   2.867 -0.4605 -0.1820  0.3938
  124OSM   H14A13076   5.877   5.794   2.847  0.0898 -0.5192 -1.8437
  124OSM   H14B13077   5.983   5.692   2.910 -1.0029  4.4719  1.8549
  124OSM   H14C13078   5.809   5.659   2.939 -0.4651 -0.9543  0.0822
  124OSM    C1313079   5.953   5.660   2.637  0.1489  0.0923  0.6875
  124OSM   H13A13080   5.902   5.742   2.588 -1.0756 -0.1713  1.4784
  124OSM   H13B13081   5.990   5.585   2.568 -0.2057 -0.2462  0.8620
  124OSM   H13C13082   6.046   5.696   2.679 -0.3868 -0.8122  2.7620
  124OSM    C1213083   5.734   5.586   2.705 -0.3315  0.5670  0.5693
  124OSM   H12A13084   5.727   5.500   2.641 -1.3584 -1.1338  2.8356
  124OSM   H12B13085   5.706   5.679   2.658  0.6421  0.9461  0.7052
  124OSM    C1113086   5.623   5.560   2.809  0.7057  0.5317 -0.0128
  124OSM   H11A13087   5.524   5.554   2.760  0.6259 -0.6851  0.2635
  124OSM   H11B13088   5.612   5.654   2.868  0.6650 -0.1097  1.0259
  124OSM      P13089   5.571   5.311   2.889 -0.6944  0.1366  0.2352
  124OSM    O1313090   5.443   5.314   2.959  0.1557 -0.8114  0.1551
  124OSM    O1413091   5.566   5.260   2.752 -0.2728 -0.1809  0.9455
  124OSM    O1113092   5.671   5.229   2.974  0.1877  0.2710 -0.2858
  124OSM    O1213093   5.644   5.454   2.906  0.6537  0.0084 -0.5168
  124OSM    C1S13094   5.801   5.266   3.025  0.1192 -0.6647  0.2476
  124OSM    H1S13095   5.801   5.375   3.044 -0.8064 -0.9155  1.9263
  124OSM    H1T13096   5.886   5.238   2.958  1.6643  3.3965  0.2425
  124OSM     NF13097   5.950   5.304   3.221  0.3400 -0.0586 -0.4443
  124OSM    HNF13098   6.040   5.278   3.187  0.0189 -1.1764 -0.4839
  124OSM    C2S13099   5.838   5.221   3.167 -0.4555 -0.5711  0.1098
  124OSM    H2S13100   5.756   5.229   3.242 -1.3565  0.3046 -0.9373
  124OSM    C3S13101   5.863   5.075   3.157 -0.2828  0.3804  0.5452
  124OSM    H3S13102   5.932   5.052   3.073 -0.5964  0.5979  0.2250
  124OSM     O313103   5.742   5.001   3.113  0.6283 -0.2152 -1.2437
  124OSM    HO313104   5.678   5.069   3.091  0.0333 -0.3887 -0.1380
  124OSM    C4S13105   5.907   5.010   3.287 -0.5920  0.0102  0.1812
  124OSM    H4S13106   6.009   4.967   3.288  0.7087  2.7473 -1.7032
  124OSM    C5S13107   5.832   4.991   3.398  0.2955  0.0303  0.1500
  124OSM    H5S13108   5.734   5.040   3.397  1.3484  2.2819 -1.3292
  124OSM    C6S13109   5.895   4.922   3.518  0.2890 -0.4338 -0.1729
  124OSM    H6S13110   5.888   4.992   3.604  1.5262  0.7998 -1.0218
  124OSM    H6T13111   6.003   4.897   3.505  0.0911 -1.3879 -0.0588
  124OSM    C7S13112   5.812   4.794   3.563 -0.6908 -0.2659 -0.8200
  124OSM    H7S13113   5.824   4.707   3.494  1.0251 -0.6505 -0.0955
  124OSM    H7T13114   5.704   4.818   3.561 -0.7855 -0.6643 -0.6621
  124OSM    C8S13115   5.858   4.756   3.705  0.0432  0.5139  0.3755
  124OSM    H8S13116   5.778   4.689   3.744 -1.2989  0.9781 -1.4464
  124OSM    H8T13117   5.864   4.852   3.761  3.3447  0.6175  0.0607
  124OSM    C9S13118   5.999   4.690   3.706  0.5592 -0.3598  0.0871
  124OSM    H9S13119   6.072   4.758   3.658 -0.5259 -0.9514 -2.5864
  124OSM    H9T13120   5.999   4.598   3.642  0.6689 -0.4439  0.2084
  124OSM   C10S13121   6.040   4.646   3.848  0.2534 -0.0898  0.2323
  124OSM   H10S13122   6.069   4.735   3.906 -2.4986 -0.6189  2.6757
  124OSM   H10T13123   6.133   4.586   3.836  0.6761  0.8998 -2.1133
  124OSM   C11S13124   5.947   4.572   3.943 -0.1399  0.3721  0.3227
  124OSM   H11S13125   5.923   4.467   3.914 -0.8970  0.8192 -0.7401
  124OSM   H11T13126   5.853   4.627   3.965  0.2656  0.5423  1.7429
  124OSM   C12S13127   6.003   4.550   4.085  0.5845 -0.2110 -0.3961
  124OSM   H12S13128   6.034   4.649   4.125 -1.7619  0.0954  0.8262
  124OSM   H12T13129   6.086   4.477   4.071  0.6365 -0.2462  0.0637
  124OSM   C13S13130   5.912   4.492   4.191 -0.1710  0.4379 -0.0837
  124OSM   H13S13131   5.864   4.399   4.154  2.1016 -1.3540  1.1960
  124OSM   H13T13132   5.834   4.570   4.208  0.4567  0.4544  3.5882
  124OSM   C14S13133   5.981   4.453   4.332 -0.1577  0.0806 -0.1563
  124OSM   H14S13134   6.041   4.540   4.368  2.1514 -1.5108  0.0405
  124OSM   H14T13135   6.055   4.372   4.313 -0.2183 -0.0421  0.1302
  124OSM   C15S13136   5.872   4.396   4.430  0.0409 -0.0799 -0.7270
  124OSM   H15S13137   5.848   4.293   4.397 -0.8956  0.4279 -1.6733
  124OSM   H15T13138   5.782   4.462   4.428  1.1245  1.5066  0.2599
  124OSM   C16S13139   5.922   4.399   4.575 -0.3234 -0.4593  0.0908
  124OSM   H16S13140   5.996   4.479   4.596  0.7035 -1.7669  1.6708
  124OSM   H16T13141   5.970   4.301   4.593  0.8056  0.0526 -0.0094
  124OSM   C17S13142   5.824   4.408   4.688  0.2233 -0.3570 -0.0328
  124OSM   H17S13143   5.774   4.507   4.679 -0.9831 -1.0466 -1.1432
  124OSM   H17T13144   5.875   4.419   4.786  1.1968 -0.1428 -0.5531
  124OSM   C18S13145   5.725   4.293   4.694 -0.1763 -0.4659  0.3332
  124OSM   H18S13146   5.773   4.195   4.716  1.6159 -0.3881 -2.7049
  124OSM   H18T13147   5.667   4.287   4.600 -0.0378  0.5497  0.1790
  124OSM   H18U13148   5.645   4.316   4.767 -2.2713 -0.0753 -1.9715
  124OSM    C1F13149   5.934   5.429   3.274  0.9280 -0.1016  0.8840
  124OSM     OF13150   5.824   5.484   3.269  0.3238  0.2639  0.5144
  124OSM    C2F13151   6.059   5.503   3.299 -0.0029 -0.2596  0.5410
  124OSM    H2F13152   6.077   5.568   3.210  0.3187  0.0067  0.8033
  124OSM    H2G13153   6.141   5.428   3.302 -0.0634 -0.4708 -1.4042
  124OSM    C3F13154   6.053   5.589   3.426  0.6734 -0.0468 -0.4125
  124OSM    H3F13155   5.965   5.654   3.412 -0.9967 -1.8341  1.0454
  124OSM    H3G13156   6.145   5.651   3.433  2.1199 -2.1803  1.0401
  124OSM    C4F13157   6.018   5.525   3.564  0.0669 -0.4266 -0.6372
  124OSM    H4F13158   6.073   5.429   3.572  0.4997 -0.2984 -1.9512
  124OSM    H4G13159   5.910   5.500   3.560 -0.0625 -0.0884  0.4094
  124OSM    C5F13160   6.058   5.607   3.686 -0.8511 -0.8286  0.0049
  124OSM    H5F13161   6.018   5.711   3.680 -0.2806 -0.6073  0.0352
  124OSM    H5G13162   6.169   5.611   3.683 -0.8649  1.7765  0.0033
  124OSM    C6F13163   6.021   5.537   3.816  0.2640  0.3923 -0.5748
  124OSM    H6F13164   6.001   5.429   3.801 -3.0580  1.0776 -2.0835
  124OSM    H6G13165   5.931   5.575   3.868 -0.7668 -0.2553 -1.8133
  124OSM    C7F13166   6.136   5.541   3.923 -0.0976 -0.0201 -0.9752
  124OSM    H7F13167   6.176   5.643   3.905 -0.9623  0.1209 -2.2357
  124OSM    H7G13168   6.207   5.455   3.919 -0.9902 -0.8193 -0.2472
  124OSM    C8F13169   6.082   5.530   4.072  0.3567  0.0599  0.6239
  124OSM    H8F13170   6.034   5.430   4.077  0.7300 -0.4255 -2.7665
  124OSM    H8G13171   5.990   5.590   4.091 -0.9310 -1.7522  0.3969
  124OSM    C9F13172   6.185   5.556   4.173  0.3256  1.2869 -0.4398
  124OSM    H9F13173   6.257   5.621   4.122  1.8761 -1.6655 -2.3060
  124OSM   C10F13174   6.190   5.507   4.301  0.3071 -0.0228  0.7872
  124OSM   H10F13175   6.283   5.527   4.356  1.8612 -2.6625 -0.7085
  124OSM   C11F13176   6.107   5.408   4.374 -0.3776  0.4429 -1.0145
  124OSM   H11F13177   6.157   5.309   4.376 -2.4089 -0.6606  1.0028
  124OSM   H11G13178   6.015   5.378   4.318 -1.4471 -1.8054  1.6901
  124OSM   C12F13179   6.054   5.448   4.512 -0.5279 -0.4200  0.0764
  124OSM   H12F13180   6.016   5.353   4.556  1.3777 -0.2853  2.2008
  124OSM   H12G13181   5.969   5.520   4.509 -0.7991 -0.7603 -0.4156
  124OSM   C13F13182   6.163   5.501   4.605  0.5370 -0.5195 -0.3969
  124OSM   H13F13183   6.125   5.574   4.679 -0.6551 -0.3706 -1.1338
  124OSM   H13G13184   6.225   5.574   4.550 -1.3723  1.2768 -0.2990
  124OSM   C14F13185   6.236   5.387   4.681 -0.1463  0.0646  0.0774
  124OSM   H14F13186   6.289   5.319   4.611 -3.4003 -1.4113 -1.1357
  124OSM   H14G13187   6.152   5.337   4.733  0.2032  1.3274  1.9612
  124OSM   C15F13188   6.345   5.442   4.781  0.5510 -0.0515  0.3117
  124OSM   H15F13189   6.293   5.492   4.864 -1.8090 -0.5893 -0.7660
  124OSM   H15G13190   6.405   5.513   4.720 -1.5107  2.2542  0.8367
  124OSM   C16F13191   6.433   5.333   4.838 -0.2734 -0.3510 -0.4951
  124OSM   H16F13192   6.473   5.281   4.748  1.6106 -0.9622  0.6308
  124OSM   H16G13193   6.366   5.274   4.905 -0.6286  0.5443 -0.0561
  124OSM   C17F13194   6.549   5.382   4.932 -0.8078  0.3288 -0.3354
  124OSM   H17F13195   6.501   5.427   5.022 -1.9365 -1.7852  0.1879
  124OSM   H17G13196   6.602   5.466   4.882  0.7389 -0.2779  0.2400
  124OSM   C18F13197   6.650   5.273   4.966 -0.5239 -0.3232  0.0921
  124OSM   H18F13198   6.717   5.243   4.882  0.2107  2.0941 -0.2634
  124OSM   H18G13199   6.593   5.183   4.999  0.7234 -1.1255  0.0978
  124OSM   H18H13200   6.716   5.303   5.050  1.8504 -0.1406 -1.7457
  125OSM      N13201   6.637   1.191   2.659 -0.0918 -0.0821 -0.1229
  125OSM    C1513202   6.645   1.054   2.720  0.6936 -0.2259  0.1071
  125OSM   H15A13203   6.637   1.061   2.827  1.3046 -0.1174  0.1461
  125OSM   H15B13204   6.742   1.015   2.695  3.3721  4.5497  1.7582
  125OSM   H15C13205   6.564   0.990   2.687  1.0811 -0.8561  0.3626
  125OSM    C1413206   6.646   1.163   2.510  0.5003  0.4671 -0.3572
  125OSM   H14A13207   6.737   1.105   2.498  0.1007 -0.2567  0.0207
  125OSM   H14B13208   6.681   1.243   2.446  0.2797  0.5355 -0.3912
  125OSM   H14C13209   6.562   1.107   2.471  1.4343 -0.1700 -1.5532
  125OSM    C1313210   6.510   1.248   2.693  0.2668  0.4263  0.0624
  125OSM   H13A13211   6.477   1.310   2.611 -0.6530 -0.9893 -0.6839
  125OSM   H13B13212   6.505   1.289   2.792  0.5072 -1.2300  0.8026
  125OSM   H13C13213   6.437   1.171   2.713  0.4065  0.5215  0.9625
  125OSM    C1213214   6.748   1.283   2.695  0.6240 -0.0575 -0.4937
  125OSM   H12A13215   6.727   1.315   2.796  0.5565 -0.8515 -0.2449
  125OSM   H12B13216   6.735   1.371   2.635 -3.4016  0.4141  0.7915
  125OSM    C1113217   6.895   1.234   2.695  0.3375  0.0698 -0.3473
  125OSM   H11A13218   6.961   1.322   2.711  1.7408 -1.2245  1.3224
  125OSM   H11B13219   6.915   1.203   2.590 -0.5414 -1.9653  0.0352
  125OSM      P13220   7.004   1.012   2.771  0.1639  0.3281 -0.0045
  125OSM    O1313221   6.926   0.925   2.688  0.2931 -0.2479 -0.3040
  125OSM    O1413222   7.136   1.049   2.725  0.3258  0.4482 -0.3850
  125OSM    O1113223   7.015   0.935   2.907  0.1942  0.8946  0.1446
  125OSM    O1213224   6.920   1.139   2.800  0.0181  0.1895  0.1279
  125OSM    C1S13225   7.094   0.980   3.016  0.2198 -0.0951 -0.1763
  125OSM    H1S13226   7.193   1.021   2.986 -0.0150  0.2392 -0.4888
  125OSM    H1T13227   7.126   0.896   3.082 -0.1302  0.9624  1.3987
  125OSM     NF13228   7.082   1.114   3.233 -0.7920 -0.4729 -0.1931
  125OSM    HNF13229   7.066   1.078   3.325  1.2088  1.5287  1.0484
  125OSM    C2S13230   7.006   1.066   3.115 -0.1136 -1.0044 -0.4906
  125OSM    H2S13231   6.978   1.155   3.056 -0.2942  0.5972  1.8847
  125OSM    C3S13232   6.875   0.992   3.158 -0.2972 -0.1017 -0.5467
  125OSM    H3S13233   6.906   0.897   3.207 -1.6322 -0.4084 -0.2450
  125OSM     O313234   6.797   0.945   3.052 -0.0908 -0.1405  0.0179
  125OSM    HO313235   6.846   0.966   2.972 -1.0518  0.5464 -0.4215
  125OSM    C4S13236   6.784   1.078   3.239 -0.7801 -0.0885 -0.1072
  125OSM    H4S13237   6.735   1.154   3.176  0.0645 -0.2188 -0.9378
  125OSM    C5S13238   6.747   1.055   3.365 -0.6292  0.6011 -0.1002
  125OSM    H5S13239   6.789   0.969   3.420  1.3060  0.2643 -1.9888
  125OSM    C6S13240   6.652   1.151   3.430 -0.2972  0.1213 -0.1398
  125OSM    H6S13241   6.551   1.107   3.420 -0.4439 -0.0602  1.6948
  125OSM    H6T13242   6.651   1.250   3.380  0.0998  0.7502  1.0455
  125OSM    C7S13243   6.675   1.181   3.575  0.1971  0.3095  0.9831
  125OSM    H7S13244   6.748   1.263   3.594 -0.6026  1.4950 -0.8119
  125OSM    H7T13245   6.696   1.084   3.625 -1.5762 -0.3769  0.4716
  125OSM    C8S13246   6.555   1.250   3.636 -0.4396 -0.0773 -0.0103
  125OSM    H8S13247   6.465   1.189   3.608 -0.4622 -0.4770  0.9104
  125OSM    H8T13248   6.543   1.354   3.598 -0.2128 -0.9193 -2.6071
  125OSM    C9S13249   6.576   1.246   3.786  0.5068  0.4047 -0.1617
  125OSM    H9S13250   6.664   1.311   3.804  0.8761 -0.3483  0.8722
  125OSM    H9T13251   6.607   1.143   3.815  0.9070  0.5854  0.0672
  125OSM   C10S13252   6.459   1.293   3.867  0.3510  0.5454 -0.1886
  125OSM   H10S13253   6.371   1.224   3.872 -0.9573  2.1831  0.1536
  125OSM   H10T13254   6.410   1.377   3.815  1.0943  0.0851 -1.6710
  125OSM   C11S13255   6.490   1.325   4.013 -0.0246 -0.3458 -0.1031
  125OSM   H11S13256   6.390   1.363   4.043 -1.2782 -1.3408 -2.7376
  125OSM   H11T13257   6.556   1.415   4.019 -1.0118  0.3250  1.2784
  125OSM   C12S13258   6.534   1.212   4.112 -0.3512 -0.3809  0.9516
  125OSM   H12S13259   6.630   1.168   4.079 -0.1174  0.1068  0.9841
  125OSM   H12T13260   6.457   1.131   4.116 -0.3970 -0.5082 -1.3851
  125OSM   C13S13261   6.560   1.276   4.250  0.9769 -0.1527  0.3000
  125OSM   H13S13262   6.634   1.359   4.248 -1.5571  2.2681  0.2288
  125OSM   H13T13263   6.609   1.198   4.313 -0.1639  0.8924  2.6199
  125OSM   C14S13264   6.437   1.328   4.320 -0.1154 -0.8158 -0.2813
  125OSM   H14S13265   6.358   1.254   4.295  0.0287 -0.8088 -0.7576
  125OSM   H14T13266   6.390   1.420   4.281 -0.6136 -0.1996  1.6728
  125OSM   C15S13267   6.445   1.344   4.470  0.0328  1.1250 -0.6234
  125OSM   H15S13268   6.352   1.379   4.521  0.9029  0.8096  1.2841
  125OSM   H15T13269   6.527   1.417   4.488  1.3787 -0.7808  1.4936
  125OSM   C16S13270   6.483   1.217   4.549 -0.0991 -0.3317 -0.1221
  125OSM   H16S13271   6.576   1.174   4.505  0.3610  0.7582 -0.2366
  125OSM   H16T13272   6.399   1.144   4.546 -0.3264 -0.0754 -0.0621
  125OSM   C17S13273   6.497   1.246   4.704 -0.2478  0.3753  0.1024
  125OSM   H17S13274   6.415   1.310   4.742 -0.9835  0.6350 -1.8179
  125OSM   H17T13275   6.594   1.300   4.707  0.2952 -0.5968  0.2939
  125OSM   C18S13276   6.500   1.114   4.784  0.1592 -0.7777  0.5425
  125OSM   H18S13277   6.394   1.092   4.812 -0.7794  1.2267 -1.1816
  125OSM   H18T13278   6.565   1.130   4.872 -1.7079 -1.4677  2.1217
  125OSM   H18U13279   6.537   1.032   4.719  0.8252 -0.1474  0.1182
  125OSM    C1F13280   7.177   1.212   3.226 -0.6111  0.9940 -0.2107
  125OSM     OF13281   7.174   1.285   3.133  0.6044 -0.4886  0.3814
  125OSM    C2F13282   7.268   1.225   3.338 -0.5102 -0.2100  0.4534
  125OSM    H2F13283   7.266   1.143   3.413  4.2548 -2.2811 -1.2641
  125OSM    H2G13284   7.237   1.322   3.382 -1.7726  0.2463 -1.3256
  125OSM    C3F13285   7.420   1.236   3.299 -0.2205 -0.5010  0.3178
  125OSM    H3F13286   7.447   1.324   3.236 -2.0076  1.2962  1.9246
  125OSM    H3G13287   7.451   1.142   3.249  1.2457 -0.1754  0.5415
  125OSM    C4F13288   7.506   1.246   3.423 -0.3933 -0.1487  0.3856
  125OSM    H4F13289   7.613   1.239   3.395 -0.3057  0.5243  0.5390
  125OSM    H4G13290   7.481   1.169   3.500 -0.7002  0.5041  0.9516
  125OSM    C5F13291   7.498   1.384   3.487 -0.3586 -0.6206 -0.1987
  125OSM    H5F13292   7.391   1.414   3.486 -0.4010 -0.5633  1.6833
  125OSM    H5G13293   7.560   1.439   3.413 -0.1286 -0.6177 -0.0083
  125OSM    C6F13294   7.557   1.399   3.624 -0.0974  0.4504  0.0371
  125OSM    H6F13295   7.593   1.503   3.630  2.1960 -0.0483 -2.9626
  125OSM    H6G13296   7.648   1.336   3.613 -0.0385  0.6412 -0.5897
  125OSM    C7F13297   7.485   1.346   3.748  0.5967 -0.2079  0.2223
  125OSM    H7F13298   7.465   1.237   3.738 -1.3815  0.1441 -0.2097
  125OSM    H7G13299   7.388   1.398   3.735  0.9660  1.2113  2.4394
  125OSM    C8F13300   7.534   1.392   3.886  0.0488 -0.3859  0.2237
  125OSM    H8F13301   7.545   1.501   3.864 -0.1860 -0.4113 -0.0256
  125OSM    H8G13302   7.636   1.354   3.909  0.2446  0.8377  1.5181
  125OSM    C9F13303   7.430   1.376   3.990 -0.4512 -0.4496 -0.3306
  125OSM    H9F13304   7.368   1.289   3.966  0.8081 -1.7134  0.7746
  125OSM   C10F13305   7.425   1.451   4.100 -0.2813 -0.5461 -0.8488
  125OSM   H10F13306   7.361   1.402   4.175 -2.1366 -1.0420 -2.6705
  125OSM   C11F13307   7.526   1.564   4.143 -0.0062  0.1614  0.1419
  125OSM   H11F13308   7.528   1.653   4.077  0.2385 -1.3759 -2.0467
  125OSM   H11G13309   7.627   1.521   4.130  0.2250  0.4654  0.8749
  125OSM   C12F13310   7.509   1.600   4.287 -0.6002  0.6166 -0.2138
  125OSM   H12F13311   7.594   1.663   4.320  0.6992 -1.6251  0.9924
  125OSM   H12G13312   7.509   1.521   4.365 -0.6914 -0.3817 -1.1941
  125OSM   C13F13313   7.383   1.679   4.305 -0.3672 -0.3518 -0.4188
  125OSM   H13F13314   7.285   1.636   4.274 -0.3102 -0.7365 -0.0834
  125OSM   H13G13315   7.397   1.772   4.247  1.3892  0.0508  0.5897
  125OSM   C14F13316   7.361   1.709   4.457 -0.3658  0.2874  0.1527
  125OSM   H14F13317   7.463   1.736   4.492 -0.5109 -2.1525  2.7959
  125OSM   H14G13318   7.334   1.617   4.514  0.7087  0.1795  0.5296
  125OSM   C15F13319   7.265   1.828   4.483  0.2064 -0.2251 -1.0313
  125OSM   H15F13320   7.191   1.814   4.401  0.0692 -3.1753 -0.5163
  125OSM   H15G13321   7.317   1.925   4.469  1.2215  0.2074  4.0044
  125OSM   C16F13322   7.198   1.823   4.619 -0.3213 -1.1389  0.1379
  125OSM   H16F13323   7.131   1.735   4.628  0.2821 -1.4592  1.9766
  125OSM   H16G13324   7.137   1.915   4.633  2.9555  1.3778 -0.7516
  125OSM   C17F13325   7.306   1.800   4.725 -0.4106  0.0833  0.8634
  125OSM   H17F13326   7.371   1.889   4.718  1.1949 -1.1045 -0.2660
  125OSM   H17G13327   7.370   1.710   4.709  0.7651  0.7628  1.6186
  125OSM   C18F13328   7.258   1.781   4.869 -0.4527 -0.4724 -0.8370
  125OSM   H18F13329   7.220   1.678   4.890  2.5337 -1.2567  1.3935
  125OSM   H18G13330   7.178   1.855   4.892 -0.8897 -0.8575 -1.0928
  125OSM   H18H13331   7.344   1.819   4.929 -1.1341  1.4369 -1.0118
  126OSM      N13332   5.118   2.311   2.517 -0.3031 -0.4654  0.1063
  126OSM    C1513333   5.223   2.229   2.450 -0.0128  0.0145  0.1628
  126OSM   H15A13334   5.289   2.289   2.389 -0.6238 -1.4500 -2.0559
  126OSM   H15B13335   5.173   2.157   2.388 -0.1312 -2.0303  2.4937
  126OSM   H15C13336   5.275   2.168   2.522 -0.4124  0.1850  0.6103
  126OSM    C1413337   5.198   2.394   2.617  0.7076  0.0456  0.3487
  126OSM   H14A13338   5.257   2.467   2.564  2.0071  0.5476  2.3664
  126OSM   H14B13339   5.270   2.340   2.677  0.8557  1.4371  1.4647
  126OSM   H14C13340   5.133   2.448   2.683 -1.2588 -1.5375 -0.1897
  126OSM    C1313341   5.049   2.406   2.422  0.1496 -0.2307  0.2209
  126OSM   H13A13342   5.119   2.448   2.350 -0.9592  1.5444  0.1194
  126OSM   H13B13343   5.012   2.496   2.468  0.8219 -0.1743  0.6666
  126OSM   H13C13344   4.970   2.348   2.377 -0.4265  1.3469 -0.8828
  126OSM    C1213345   5.013   2.228   2.600 -0.0263 -0.3725  0.5490
  126OSM   H12A13346   4.948   2.179   2.530  0.9194 -1.0277  0.1118
  126OSM   H12B13347   4.951   2.300   2.652  1.2904  0.4576  1.0258
  126OSM    C1113348   5.072   2.130   2.703  0.1536  0.5506 -0.2156
  126OSM   H11A13349   4.989   2.098   2.769 -2.0483  2.5454 -1.8330
  126OSM   H11B13350   5.147   2.177   2.770 -1.6350  1.2162  1.4327
  126OSM      P13351   5.047   1.895   2.572  0.1340 -0.3352  0.2178
  126OSM    O1313352   4.914   1.944   2.531 -0.2539  0.4018 -0.2104
  126OSM    O1413353   5.132   1.836   2.468  0.9870 -0.2762  0.2579
  126OSM    O1113354   5.030   1.791   2.684 -0.0300  0.1007 -0.3392
  126OSM    O1213355   5.128   2.013   2.636  0.3277  0.4443 -0.0048
  126OSM    C1S13356   5.117   1.762   2.797  0.6033  0.3608 -0.0352
  126OSM    H1S13357   5.225   1.763   2.770  0.2261 -1.0891 -1.7529
  126OSM    H1T13358   5.108   1.656   2.828  0.1874  0.1313 -0.9203
  126OSM     NF13359   5.190   1.835   3.034  0.0039  0.4689 -0.3011
  126OSM    HNF13360   5.161   1.788   3.117 -2.1463  1.0535 -0.6552
  126OSM    C2S13361   5.090   1.847   2.929 -0.1931  0.0822 -0.3651
  126OSM    H2S13362   5.092   1.956   2.905  0.8588 -0.3435 -2.4500
  126OSM    C3S13363   4.942   1.822   2.984 -0.2363 -0.3287 -0.1513
  126OSM    H3S13364   4.938   1.716   3.019 -2.3119  0.2255  1.4814
  126OSM     O313365   4.855   1.821   2.876  0.1530 -0.0236 -0.5303
  126OSM    HO313366   4.914   1.815   2.801  0.7508  2.6775 -0.3943
  126OSM    C4S13367   4.900   1.910   3.093  0.1264  0.4902 -0.2345
  126OSM    H4S13368   4.921   1.870   3.193 -0.8319 -0.9234 -0.5672
  126OSM    C5S13369   4.830   2.025   3.068  0.5135  0.9396  0.0483
  126OSM    H5S13370   4.804   2.057   2.966 -0.9200  1.0795  0.4229
  126OSM    C6S13371   4.765   2.115   3.175  1.2591  0.3921  0.6484
  126OSM    H6S13372   4.667   2.149   3.138  1.3480  1.3275  1.2525
  126OSM    H6T13373   4.822   2.208   3.195 -0.5749  1.1212  2.7054
  126OSM    C7S13374   4.723   2.043   3.308  1.0552 -0.0311  0.2904
  126OSM    H7S13375   4.811   1.981   3.334  1.2653 -0.5546 -1.5209
  126OSM    H7T13376   4.642   1.972   3.280  1.4777 -0.4674  0.1540
  126OSM    C8S13377   4.680   2.143   3.420 -0.2333 -0.6437  0.4881
  126OSM    H8S13378   4.590   2.205   3.397  0.5435  0.8569  1.3366
  126OSM    H8T13379   4.769   2.209   3.430 -0.9155  0.6726 -1.4872
  126OSM    C9S13380   4.662   2.067   3.552  0.1180 -0.3853  0.0081
  126OSM    H9S13381   4.734   1.982   3.555 -0.6728 -1.0436  0.6065
  126OSM    H9T13382   4.560   2.024   3.558 -0.4849  1.1169  0.8769
  126OSM   C10S13383   4.690   2.154   3.680  0.1161 -0.1623 -0.2013
  126OSM   H10S13384   4.627   2.245   3.667  0.8011  0.2782 -0.5263
  126OSM   H10T13385   4.797   2.180   3.662  0.1453 -0.1616 -0.0289
  126OSM   C11S13386   4.677   2.093   3.822 -0.0807  0.0259  0.0411
  126OSM   H11S13387   4.720   1.991   3.830  1.8651  0.7649 -0.4996
  126OSM   H11T13388   4.570   2.081   3.851  0.1415 -0.7787  0.5657
  126OSM   C12S13389   4.749   2.187   3.924  0.0543  0.0786  0.5166
  126OSM   H12S13390   4.699   2.286   3.924  0.8905  0.6283  4.0981
  126OSM   H12T13391   4.855   2.199   3.896  0.0240  0.6945  0.6576
  126OSM   C13S13392   4.738   2.119   4.068 -0.3398  0.0353  0.8212
  126OSM   H13S13393   4.804   2.030   4.083  1.5048  1.2087  0.1032
  126OSM   H13T13394   4.636   2.081   4.087  0.1433 -0.4712  2.5708
  126OSM   C14S13395   4.743   2.224   4.180 -0.7877 -0.0961 -0.2044
  126OSM   H14S13396   4.659   2.293   4.158 -1.1118  0.1433  1.6284
  126OSM   H14T13397   4.834   2.287   4.173 -2.1200  2.2791  2.1063
  126OSM   C15S13398   4.727   2.159   4.320 -0.4816 -0.1165 -0.8074
  126OSM   H15S13399   4.817   2.098   4.345  1.5312  1.9496 -2.5612
  126OSM   H15T13400   4.640   2.090   4.318 -0.3153 -0.3154 -2.1031
  126OSM   C16S13401   4.712   2.269   4.431  0.0565  0.9772 -0.1336
  126OSM   H16S13402   4.629   2.244   4.501  0.2804  3.1501  0.9789
  126OSM   H16T13403   4.695   2.369   4.384  0.5330  1.2573  0.2784
  126OSM   C17S13404   4.829   2.255   4.521  1.0186  0.1660 -0.1701
  126OSM   H17S13405   4.924   2.287   4.474  0.8922  1.4151  0.3986
  126OSM   H17T13406   4.832   2.147   4.549 -1.6584  0.5503  1.9543
  126OSM   C18S13407   4.826   2.340   4.645  0.4408  0.1396 -0.0328
  126OSM   H18S13408   4.887   2.278   4.714  0.9455  0.1942 -0.4248
  126OSM   H18T13409   4.726   2.328   4.691  0.1773 -1.7591 -0.9764
  126OSM   H18U13410   4.868   2.441   4.623  0.7899  0.1425  0.6240
  126OSM    C1F13411   5.318   1.874   3.013  0.3364 -0.6611 -0.0225
  126OSM     OF13412   5.359   1.904   2.902 -0.2742 -0.3693  0.6400
  126OSM    C2F13413   5.414   1.871   3.132  0.0005  0.1705 -0.4169
  126OSM    H2F13414   5.505   1.815   3.103  0.3323 -0.0461  0.9729
  126OSM    H2G13415   5.356   1.818   3.212 -0.0298 -1.5571 -1.5293
  126OSM    C3F13416   5.447   2.019   3.171 -0.6394 -0.0072 -0.3406
  126OSM    H3F13417   5.499   2.052   3.079  0.2757 -0.6748 -0.0802
  126OSM    H3G13418   5.528   2.014   3.247  0.7779  0.6341 -1.7506
  126OSM    C4F13419   5.336   2.099   3.222  0.1492  0.5982 -0.1236
  126OSM    H4F13420   5.252   2.107   3.150  0.0284  0.0808 -0.0441
  126OSM    H4G13421   5.364   2.205   3.240 -1.9630  1.0428  0.8026
  126OSM    C5F13422   5.276   2.044   3.349  0.1362 -0.5783  0.2810
  126OSM    H5F13423   5.352   2.048   3.430  1.2760 -0.7009 -0.7655
  126OSM    H5G13424   5.218   1.950   3.336  2.2412 -1.9087  0.0545
  126OSM    C6F13425   5.167   2.146   3.390 -0.3495  0.2505 -0.0016
  126OSM    H6F13426   5.102   2.182   3.308 -0.5352  1.2985  0.5819
  126OSM    H6G13427   5.226   2.233   3.428  1.7001 -1.2332  0.3940
  126OSM    C7F13428   5.075   2.098   3.507 -0.2147 -0.0179 -0.1835
  126OSM    H7F13429   5.042   1.995   3.480 -1.1489 -0.1147  1.2446
  126OSM    H7G13430   4.982   2.157   3.515 -0.6654 -0.8783  1.2434
  126OSM    C8F13431   5.135   2.080   3.651  0.4887 -0.0840  0.1377
  126OSM    H8F13432   5.212   2.001   3.636  0.1976 -0.4960  0.7688
  126OSM    H8G13433   5.054   2.036   3.714  0.7622 -0.9739 -0.1247
  126OSM    C9F13434   5.200   2.200   3.716  0.0045 -0.7416  0.1355
  126OSM    H9F13435   5.221   2.288   3.654  2.0326  1.1030  3.1637
  126OSM   C10F13436   5.202   2.224   3.847 -0.5899  0.1044  0.1237
  126OSM   H10F13437   5.239   2.320   3.886 -2.4797  1.2122 -0.6418
  126OSM   C11F13438   5.171   2.120   3.946  0.1943  0.3609 -0.4951
  126OSM   H11F13439   5.227   2.025   3.932  0.5764  0.4417  0.4240
  126OSM   H11G13440   5.066   2.088   3.931 -0.4979  1.6851  1.1314
  126OSM   C12F13441   5.178   2.163   4.091 -0.5626 -0.1302 -0.4631
  126OSM   H12F13442   5.107   2.245   4.115 -1.1952 -0.4180 -1.3207
  126OSM   H12G13443   5.281   2.195   4.118 -1.4979  1.1746  1.9078
  126OSM   C13F13444   5.136   2.048   4.181  0.7804  1.0631 -0.0516
  126OSM   H13F13445   5.182   1.950   4.153 -0.6960 -0.6494  3.0458
  126OSM   H13G13446   5.034   2.017   4.149  1.4859 -0.9284 -0.5588
  126OSM   C14F13447   5.135   2.072   4.328 -0.5024  0.5151 -0.8363
  126OSM   H14F13448   5.095   1.979   4.373  0.0198  0.8140  0.2962
  126OSM   H14G13449   5.058   2.149   4.353 -1.4692 -1.2334  2.1292
  126OSM   C15F13450   5.266   2.121   4.393 -0.0144  0.5434  0.8198
  126OSM   H15F13451   5.293   2.219   4.349 -1.2001  0.6432  0.2730
  126OSM   H15G13452   5.351   2.051   4.380 -1.6727 -1.3743 -0.3996
  126OSM   C16F13453   5.241   2.140   4.538  0.1245 -0.5577  0.1874
  126OSM   H16F13454   5.177   2.059   4.577  0.3537 -1.8634 -1.9695
  126OSM   H16G13455   5.169   2.223   4.552 -1.6540 -2.0514  0.1988
  126OSM   C17F13456   5.366   2.148   4.628  0.1341  0.3581  0.7199
  126OSM   H17F13457   5.415   2.246   4.609  0.4187 -0.0447 -0.8108
  126OSM   H17G13458   5.433   2.062   4.606 -0.3093  0.3751 -0.8085
  126OSM   C18F13459   5.326   2.124   4.769 -0.2209 -0.0260 -0.1120
  126OSM   H18F13460   5.293   2.018   4.776  0.2258 -0.1960 -0.4842
  126OSM   H18G13461   5.237   2.188   4.789 -1.3926 -2.1024  1.7734
  126OSM   H18H13462   5.408   2.143   4.841 -0.4912 -0.0522  0.2038
  127OSM      N13463   4.201   4.887   2.807 -0.2191  0.0365 -0.6595
  127OSM    C1513464   4.223   5.020   2.731 -1.4109  0.4715  0.2017
  127OSM   H15A13465   4.180   5.013   2.632  0.1310 -0.8886 -0.4160
  127OSM   H15B13466   4.330   5.033   2.731 -1.5543  1.9847 -1.1699
  127OSM   H15C13467   4.197   5.106   2.792  0.9154 -0.2496  2.3827
  127OSM    C1413468   4.267   4.777   2.736 -0.2515  0.1024 -0.3002
  127OSM   H14A13469   4.240   4.684   2.782  0.3805  0.3768  0.6576
  127OSM   H14B13470   4.371   4.768   2.762 -0.1681 -0.7256 -0.8926
  127OSM   H14C13471   4.251   4.787   2.630 -2.6127 -0.4076 -0.0483
  127OSM    C1313472   4.276   4.887   2.939 -0.1441  0.1460 -0.0971
  127OSM   H13A13473   4.259   4.790   2.984  0.7908 -1.0064 -2.0881
  127OSM   H13B13474   4.236   4.960   3.008 -1.0446  0.7207 -1.1869
  127OSM   H13C13475   4.383   4.896   2.928 -0.0998 -1.2220 -1.1520
  127OSM    C1213476   4.054   4.861   2.822  0.0372 -0.3529 -0.3908
  127OSM   H12A13477   4.005   4.871   2.727  2.3861  0.1196 -1.6154
  127OSM   H12B13478   4.009   4.944   2.876 -1.4260 -1.7686  0.6732
  127OSM    C1113479   4.003   4.745   2.910  0.3914 -0.0935  0.1329
  127OSM   H11A13480   3.892   4.752   2.912  0.3397 -0.0051 -1.5412
  127OSM   H11B13481   4.030   4.778   3.013 -0.2690  2.0337 -0.3211
  127OSM      P13482   3.976   4.530   2.766  0.1555  0.0804 -0.2341
  127OSM    O1313483   3.913   4.627   2.673  0.5768 -0.2233  0.6343
  127OSM    O1413484   4.075   4.439   2.712  0.6464  0.0140  0.3132
  127OSM    O1113485   3.853   4.461   2.837 -0.1061 -0.0158 -0.7134
  127OSM    O1213486   4.052   4.615   2.880  0.0787 -0.6202  0.4899
  127OSM    C1S13487   3.859   4.425   2.976  0.1822  0.4031 -0.7277
  127OSM    H1S13488   3.955   4.437   3.032  0.1852 -1.5225 -0.2335
  127OSM    H1T13489   3.848   4.314   2.980  0.9105  0.3130 -0.9011
  127OSM     NF13490   3.751   4.444   3.202  0.0735 -0.5625 -0.2124
  127OSM    HNF13491   3.703   4.363   3.234 -1.6104  0.0071 -1.1515
  127OSM    C2S13492   3.735   4.477   3.059 -0.4110  0.9377  0.6413
  127OSM    H2S13493   3.733   4.588   3.064 -2.2062  0.9197  1.2159
  127OSM    C3S13494   3.605   4.434   2.996  0.1048 -0.1925  0.6395
  127OSM    H3S13495   3.599   4.326   2.968 -0.3546 -0.0378  0.1123
  127OSM     O313496   3.581   4.492   2.859  0.1351 -0.1298 -0.2684
  127OSM    HO313497   3.673   4.509   2.840  0.8934 -3.9451 -0.8088
  127OSM    C4S13498   3.490   4.479   3.080  0.2901 -0.2272  0.8164
  127OSM    H4S13499   3.492   4.586   3.105  1.0373  0.3103 -1.2832
  127OSM    C5S13500   3.407   4.400   3.151 -0.3027  0.1667  0.0999
  127OSM    H5S13501   3.423   4.291   3.153  0.5436  0.2958  1.3925
  127OSM    C6S13502   3.302   4.434   3.255  0.8834 -0.7167  0.1881
  127OSM    H6S13503   3.210   4.378   3.230  0.9026  0.5017 -3.2408
  127OSM    H6T13504   3.272   4.541   3.256 -2.0863 -1.4631 -0.1940
  127OSM    C7S13505   3.337   4.391   3.393 -0.6250  0.6062  0.1299
  127OSM    H7S13506   3.441   4.427   3.409  0.4561 -1.7032 -1.0915
  127OSM    H7T13507   3.364   4.283   3.398  0.2129  0.8012 -0.0203
  127OSM    C8S13508   3.238   4.407   3.501 -0.3274 -0.3559 -0.6774
  127OSM    H8S13509   3.135   4.376   3.471  0.2564 -1.8248 -1.2409
  127OSM    H8T13510   3.214   4.512   3.529 -2.8819 -0.7719 -1.0402
  127OSM    C9S13511   3.271   4.328   3.627 -0.9184 -0.2763 -0.3709
  127OSM    H9S13512   3.370   4.357   3.669  0.4683 -2.2819 -2.0558
  127OSM    H9T13513   3.272   4.220   3.602  2.1528  0.1021 -2.5179
  127OSM   C10S13514   3.173   4.344   3.743 -0.7470  0.0773 -0.0372
  127OSM   H10S13515   3.074   4.312   3.705 -0.8174 -0.2932  0.4508
  127OSM   H10T13516   3.176   4.446   3.786  0.9900 -0.0931  0.2971
  127OSM   C11S13517   3.212   4.251   3.859 -0.5565  1.3731  0.2573
  127OSM   H11S13518   3.311   4.285   3.895 -0.0305  1.3993 -1.1903
  127OSM   H11T13519   3.216   4.148   3.817 -0.0128  1.2611  0.5711
  127OSM   C12S13520   3.113   4.239   3.971 -0.3407 -0.2689  0.2133
  127OSM   H12S13521   3.034   4.176   3.926 -2.0444 -0.2382  2.9117
  127OSM   H12T13522   3.059   4.334   3.991 -2.8639 -1.4403 -0.6250
  127OSM   C13S13523   3.149   4.189   4.110 -0.9655  0.0193 -0.3397
  127OSM   H13S13524   3.239   4.249   4.134 -0.7416 -0.7845  0.8992
  127OSM   H13T13525   3.194   4.087   4.114  0.0890  0.3812 -2.0289
  127OSM   C14S13526   3.035   4.225   4.204  0.1519 -0.0966  0.1676
  127OSM   H14S13527   2.940   4.174   4.177  0.8784 -0.5096 -1.7234
  127OSM   H14T13528   3.006   4.332   4.194 -0.8330 -0.5479 -3.0286
  127OSM   C15S13529   3.068   4.184   4.349  0.7387 -0.5160 -0.5131
  127OSM   H15S13530   3.169   4.219   4.380  0.6888 -0.8829  0.0784
  127OSM   H15T13531   3.064   4.073   4.352 -1.0919 -0.5126 -1.5310
  127OSM   C16S13532   2.965   4.250   4.445  0.8810 -0.9498  0.2288
  127OSM   H16S13533   2.897   4.174   4.489 -1.0644  1.4784  1.6920
  127OSM   H16T13534   2.901   4.318   4.385  1.8806 -0.1908 -0.0168
  127OSM   C17S13535   3.023   4.333   4.562  0.8249  0.7557 -0.2500
  127OSM   H17S13536   2.931   4.380   4.604 -1.5313 -2.3992 -1.5500
  127OSM   H17T13537   3.090   4.412   4.521 -1.6299  2.7454 -0.6538
  127OSM   C18S13538   3.111   4.257   4.673 -0.1672 -0.0735  0.0284
  127OSM   H18S13539   3.208   4.219   4.634 -0.0975  1.1554 -1.0846
  127OSM   H18T13540   3.053   4.168   4.703  1.0446 -0.4642  1.2845
  127OSM   H18U13541   3.135   4.333   4.750  0.8383  0.5629 -0.8679
  127OSM    C1F13542   3.833   4.507   3.280  0.4057 -0.1296 -0.2743
  127OSM     OF13543   3.900   4.594   3.231  0.4295  0.6539  0.1353
  127OSM    C2F13544   3.842   4.461   3.423  0.7279 -0.1641  0.8803
  127OSM    H2F13545   3.942   4.492   3.460 -0.1928 -0.2670  3.6593
  127OSM    H2G13546   3.830   4.353   3.443  0.1297 -0.3179 -0.2006
  127OSM    C3F13547   3.737   4.542   3.504 -0.1175 -0.0044 -0.3883
  127OSM    H3F13548   3.642   4.559   3.449  0.2989  0.9020 -0.8502
  127OSM    H3G13549   3.784   4.641   3.525 -0.0240 -0.0267 -0.4896
  127OSM    C4F13550   3.705   4.481   3.640  0.4720  0.1635  0.0938
  127OSM    H4F13551   3.793   4.452   3.701  0.8912  0.0791 -0.5379
  127OSM    H4G13552   3.664   4.384   3.604 -1.6612  1.3292 -0.8272
  127OSM    C5F13553   3.605   4.554   3.725  0.8350 -1.1549 -0.1922
  127OSM    H5F13554   3.513   4.549   3.664  0.7991 -1.8390 -0.0955
  127OSM    H5G13555   3.619   4.663   3.739 -3.0871 -0.3235 -1.7175
  127OSM    C6F13556   3.571   4.484   3.862 -0.2599 -0.3741 -0.0999
  127OSM    H6F13557   3.667   4.505   3.915 -1.0771  1.0566  0.8733
  127OSM    H6G13558   3.553   4.375   3.852 -0.8680 -0.1640 -1.4918
  127OSM    C7F13559   3.457   4.548   3.942  0.5031 -0.0737 -0.0454
  127OSM    H7F13560   3.362   4.515   3.895  0.6280 -0.5260  0.0190
  127OSM    H7G13561   3.464   4.658   3.955  0.9886 -0.1327  0.1767
  127OSM    C8F13562   3.456   4.486   4.079  0.1990 -0.0748 -0.4543
  127OSM    H8F13563   3.528   4.538   4.145  0.2152  1.1852 -1.4397
  127OSM    H8G13564   3.484   4.382   4.052 -0.2569  0.1444 -1.8393
  127OSM    C9F13565   3.319   4.488   4.149  0.1412  0.5251 -0.3786
  127OSM    H9F13566   3.227   4.468   4.092  1.0570  0.8672 -2.0118
  127OSM   C10F13567   3.313   4.533   4.275  0.2996  0.3602 -0.5180
  127OSM   H10F13568   3.212   4.542   4.317 -0.0077  1.3805 -1.4438
  127OSM   C11F13569   3.420   4.582   4.366 -0.5240  0.1925  0.7218
  127OSM   H11F13570   3.450   4.678   4.318 -1.3796  0.9777  1.7134
  127OSM   H11G13571   3.511   4.520   4.381  1.1202  2.0153 -0.9434
  127OSM   C12F13572   3.356   4.594   4.501  0.7018  1.0958 -0.0218
  127OSM   H12F13573   3.312   4.498   4.534  0.5406  1.5807  1.2525
  127OSM   H12G13574   3.277   4.672   4.506 -0.3663  0.3147 -2.7890
  127OSM   C13F13575   3.456   4.632   4.609  0.5370 -0.3677 -0.1592
  127OSM   H13F13576   3.513   4.714   4.560  1.3382 -0.1555  1.0828
  127OSM   H13G13577   3.533   4.554   4.626  1.1522  0.2537 -0.0376
  127OSM   C14F13578   3.385   4.687   4.738  0.5233  0.1520 -0.3254
  127OSM   H14F13579   3.329   4.602   4.782 -0.4866  2.3637  3.0144
  127OSM   H14G13580   3.311   4.767   4.717  1.1147  1.1388  1.1858
  127OSM   C15F13581   3.490   4.740   4.838 -0.2311 -0.7531 -0.6548
  127OSM   H15F13582   3.533   4.832   4.792 -0.2792 -1.1445 -1.5025
  127OSM   H15G13583   3.562   4.655   4.839  2.0017  1.0193 -1.1009
  127OSM   C16F13584   3.431   4.765   4.977  0.1851  0.2247  0.3478
  127OSM   H16F13585   3.344   4.696   4.982  1.1877 -1.0207  1.0279
  127OSM   H16G13586   3.390   4.868   4.989 -0.0867  0.3871 -1.6262
  127OSM   C17F13587   3.536   4.741   5.087  0.6630 -0.2597  0.0646
  127OSM   H17F13588   3.554   4.633   5.106  1.2528  0.3219  3.2678
  127OSM   H17G13589   3.493   4.775   5.184  2.7164  1.5828  0.3950
  127OSM   C18F13590   3.673   4.812   5.073  0.2853  0.9944  0.1199
  127OSM   H18F13591   3.752   4.770   5.139 -1.0017 -0.7401  0.6455
  127OSM   H18G13592   3.673   4.923   5.086 -0.1803  1.1814 -1.2893
  127OSM   H18H13593   3.711   4.796   4.970  0.2402 -0.6237  0.3237
  128OSM      N13594   5.877   2.278   2.183  0.1680  0.4361  0.5316
  128OSM    C1513595   5.786   2.151   2.180  0.7500 -0.4255 -0.1806
  128OSM   H15A13596   5.708   2.162   2.106  2.7900  0.9349 -2.2870
  128OSM   H15B13597   5.737   2.127   2.273 -1.9043 -0.6365 -1.5354
  128OSM   H15C13598   5.846   2.063   2.160  1.1707 -0.4337  1.0282
  128OSM    C1413599   5.981   2.269   2.075 -0.4703 -0.3803  0.0933
  128OSM   H14A13600   6.069   2.216   2.110  1.0702  1.2014 -1.1967
  128OSM   H14B13601   6.011   2.370   2.051  0.8518 -0.6899  0.3406
  128OSM   H14C13602   5.941   2.241   1.979 -1.5658  1.7991 -0.1599
  128OSM    C1313603   5.789   2.395   2.161  0.4870 -0.0803  0.5939
  128OSM   H13A13604   5.756   2.380   2.059  3.7399  1.0994 -0.7681
  128OSM   H13B13605   5.846   2.486   2.157  0.1089  0.1765  0.9566
  128OSM   H13C13606   5.703   2.394   2.227  0.3856 -0.3949  0.4637
  128OSM    C1213607   5.947   2.287   2.323 -0.3164  0.2876 -0.3545
  128OSM   H12A13608   6.026   2.358   2.304  0.2651 -0.8741 -2.6979
  128OSM   H12B13609   5.992   2.190   2.341  2.9446  1.2992 -2.1608
  128OSM    C1113610   5.859   2.325   2.435  0.8151  0.3720 -0.1910
  128OSM   H11A13611   5.807   2.421   2.415 -2.8059 -1.0927  1.3603
  128OSM   H11B13612   5.935   2.344   2.513  0.9878 -0.7384 -0.0706
  128OSM      P13613   5.818   2.096   2.572 -0.4022 -0.0872  0.1649
  128OSM    O1313614   5.722   1.985   2.568 -0.0391 -0.2569  0.7722
  128OSM    O1413615   5.958   2.073   2.539 -0.0698 -0.6870 -0.7054
  128OSM    O1113616   5.805   2.171   2.713  0.1373  0.6139  0.5769
  128OSM    O1213617   5.772   2.211   2.476  0.6198 -0.3473  0.0869
  128OSM    C1S13618   5.732   2.288   2.731  0.0346  0.6948  0.0675
  128OSM    H1S13619   5.641   2.278   2.669  0.3528 -3.2236  0.0318
  128OSM    H1T13620   5.797   2.373   2.699  0.4778  0.8389  1.2748
  128OSM     NF13621   5.608   2.413   2.898  0.4660 -0.4448  0.0842
  128OSM    HNF13622   5.643   2.503   2.921  1.0374 -0.6168 -0.0943
  128OSM    C2S13623   5.699   2.301   2.882  0.5450 -0.5661  0.2189
  128OSM    H2S13624   5.649   2.206   2.909  1.4874 -0.8522  1.0142
  128OSM    C3S13625   5.823   2.314   2.974 -0.1689  0.3209 -0.3901
  128OSM    H3S13626   5.875   2.410   2.951 -0.2286  0.2588 -0.7893
  128OSM     O313627   5.915   2.208   2.952  0.6086  0.4770  0.0064
  128OSM    HO313628   5.896   2.178   2.863  0.5456 -0.0100  0.1827
  128OSM    C4S13629   5.782   2.302   3.116 -0.0931 -0.2499 -0.3855
  128OSM    H4S13630   5.739   2.204   3.142  2.4625 -1.3610 -0.0232
  128OSM    C5S13631   5.781   2.395   3.219 -0.4421  0.3881 -0.2414
  128OSM    H5S13632   5.835   2.490   3.207  0.5504 -0.1068  0.1535
  128OSM    C6S13633   5.737   2.378   3.360 -0.5132 -0.1902 -0.3279
  128OSM    H6S13634   5.649   2.444   3.372  1.1186  1.8751  1.1586
  128OSM    H6T13635   5.824   2.412   3.421  2.9127 -3.5310 -2.8250
  128OSM    C7S13636   5.685   2.246   3.418 -0.0781 -0.6176  0.6500
  128OSM    H7S13637   5.766   2.171   3.404 -1.3433 -1.7772 -0.5919
  128OSM    H7T13638   5.595   2.221   3.359 -0.3481 -0.6954  1.0911
  128OSM    C8S13639   5.646   2.273   3.559  0.4381 -0.0247 -0.1155
  128OSM    H8S13640   5.585   2.185   3.587  0.6390 -0.0462  0.2681
  128OSM    H8T13641   5.569   2.353   3.559 -0.5111 -0.9169  0.1565
  128OSM    C9S13642   5.766   2.302   3.660  0.4241 -0.1401  0.4587
  128OSM    H9S13643   5.817   2.392   3.618  1.9602 -1.8083 -1.4913
  128OSM    H9T13644   5.837   2.218   3.648  0.8733  0.6207 -4.0202
  128OSM   C10S13645   5.733   2.302   3.805 -0.1580  0.1951 -0.9836
  128OSM   H10S13646   5.698   2.404   3.832  0.3954 -0.2554  1.6472
  128OSM   H10T13647   5.827   2.283   3.861 -0.6445  0.7049  0.0186
  128OSM   C11S13648   5.624   2.203   3.847  0.1436 -0.3213 -0.0513
  128OSM   H11S13649   5.662   2.099   3.837  3.5374  0.6480  1.1985
  128OSM   H11T13650   5.538   2.230   3.782  0.7877  1.1385 -0.3540
  128OSM   C12S13651   5.578   2.213   3.993 -0.2072 -0.0962  0.1663
  128OSM   H12S13652   5.478   2.165   4.001 -1.2180  1.8239 -0.2656
  128OSM   H12T13653   5.569   2.320   4.019  2.4928 -0.4089  2.9853
  128OSM   C13S13654   5.687   2.150   4.074 -0.0670 -0.1821 -0.6428
  128OSM   H13S13655   5.780   2.211   4.072 -0.8426  1.0947  0.3291
  128OSM   H13T13656   5.716   2.054   4.026  2.6117  0.7401 -1.0532
  128OSM   C14S13657   5.643   2.136   4.226 -0.4082  0.2494 -0.2091
  128OSM   H14S13658   5.546   2.082   4.222 -0.1755 -0.1261 -0.7585
  128OSM   H14T13659   5.599   2.227   4.273 -1.2160 -0.0727 -0.3240
  128OSM   C15S13660   5.756   2.063   4.315  0.3563  0.5341 -0.0469
  128OSM   H15S13661   5.844   2.130   4.329  2.1353 -1.8867  1.1058
  128OSM   H15T13662   5.786   1.970   4.262  0.4364  2.9725 -4.8295
  128OSM   C16S13663   5.693   2.033   4.459 -0.0512 -0.9102 -0.0093
  128OSM   H16S13664   5.614   1.962   4.427 -0.9650  0.0114  0.1829
  128OSM   H16T13665   5.637   2.118   4.503  0.6140 -0.2535 -0.4159
  128OSM   C17S13666   5.796   1.957   4.540 -0.3694  0.2174 -0.0097
  128OSM   H17S13667   5.868   1.900   4.477 -0.1530 -1.8560  1.9765
  128OSM   H17T13668   5.747   1.889   4.613 -1.3534 -0.3899 -1.1807
  128OSM   C18S13669   5.884   2.058   4.624 -0.2778 -0.4987  0.4831
  128OSM   H18S13670   5.921   2.123   4.541 -1.3932  1.4235  1.4027
  128OSM   H18T13671   5.978   2.020   4.668  0.0161  1.6764  1.8886
  128OSM   H18U13672   5.831   2.125   4.695  0.7393 -0.0833  0.8626
  128OSM    C1F13673   5.480   2.412   2.869  0.4882 -0.4963 -0.5843
  128OSM     OF13674   5.427   2.315   2.819  0.5606  0.2198 -0.1070
  128OSM    C2F13675   5.404   2.544   2.880 -0.5688 -0.1841  0.7222
  128OSM    H2F13676   5.340   2.561   2.791 -1.8375 -0.5244  1.5454
  128OSM    H2G13677   5.474   2.628   2.900  0.8844 -1.1861  0.0233
  128OSM    C3F13678   5.308   2.531   2.997 -0.3169  0.2836  0.0335
  128OSM    H3F13679   5.219   2.476   2.959  0.2795  0.6617 -2.0280
  128OSM    H3G13680   5.279   2.636   3.016  1.0911  0.5172  1.0224
  128OSM    C4F13681   5.371   2.489   3.131 -0.2051 -0.3197  0.1446
  128OSM    H4F13682   5.453   2.561   3.150 -1.7175  1.1738  1.2648
  128OSM    H4G13683   5.413   2.386   3.132  2.3271  0.6196 -1.1517
  128OSM    C5F13684   5.279   2.488   3.254 -0.5705  0.3109  0.2696
  128OSM    H5F13685   5.222   2.393   3.257  1.0494 -0.7810 -1.2157
  128OSM    H5G13686   5.206   2.566   3.227 -0.3636  0.5439  0.3764
  128OSM    C6F13687   5.350   2.529   3.384  0.0256  1.0319 -0.3357
  128OSM    H6F13688   5.386   2.634   3.372 -1.3756  1.7777  1.4756
  128OSM    H6G13689   5.437   2.463   3.398  2.6040  3.9343 -1.4390
  128OSM    C7F13690   5.246   2.530   3.497 -0.5108 -0.5449 -0.1615
  128OSM    H7F13691   5.211   2.425   3.505  1.1311 -1.0470  0.6459
  128OSM    H7G13692   5.156   2.593   3.478 -0.0229  0.2409  0.0841
  128OSM    C8F13693   5.308   2.578   3.634 -0.3944  0.6223  0.3602
  128OSM    H8F13694   5.395   2.515   3.662 -1.5252 -0.3802  1.7555
  128OSM    H8G13695   5.233   2.551   3.711  1.5232 -0.7678  1.8613
  128OSM    C9F13696   5.329   2.728   3.647 -0.6153 -0.2094 -0.3202
  128OSM    H9F13697   5.243   2.790   3.618 -0.5692  0.1827  0.3680
  128OSM   C10F13698   5.439   2.792   3.681  0.0730 -1.1484 -0.0983
  128OSM   H10F13699   5.449   2.901   3.676  0.1523 -1.1165  0.6758
  128OSM   C11F13700   5.567   2.724   3.725  0.0755  0.4484 -0.2335
  128OSM   H11F13701   5.651   2.741   3.654 -0.0360 -0.9719 -0.7401
  128OSM   H11G13702   5.562   2.613   3.727  0.6564  0.4047 -0.8996
  128OSM   C12F13703   5.615   2.790   3.856 -0.3649  1.0492 -0.1119
  128OSM   H12F13704   5.703   2.733   3.891  0.6808  1.9971 -1.1136
  128OSM   H12G13705   5.536   2.782   3.934 -0.6818 -0.3612 -0.5440
  128OSM   C13F13706   5.648   2.940   3.836 -0.6481 -0.2900  0.0169
  128OSM   H13F13707   5.554   2.992   3.810 -1.9710 -3.1405 -1.3833
  128OSM   H13G13708   5.716   2.943   3.748 -0.9878 -2.4374 -0.3754
  128OSM   C14F13709   5.722   2.995   3.963 -0.2575  0.5416  0.0804
  128OSM   H14F13710   5.740   3.105   3.953 -3.3786  1.0464 -0.9625
  128OSM   H14G13711   5.815   2.935   3.975 -1.1627 -1.0370 -0.5057
  128OSM   C15F13712   5.633   2.986   4.095  0.0130  0.7046  0.5986
  128OSM   H15F13713   5.581   2.889   4.109  2.5642 -1.5369 -3.5259
  128OSM   H15G13714   5.560   3.069   4.082 -1.7345 -0.9812 -1.1639
  128OSM   C16F13715   5.718   3.024   4.210 -0.1619  0.3060  0.4704
  128OSM   H16F13716   5.728   3.135   4.208 -0.9815  0.3977 -1.9199
  128OSM   H16G13717   5.819   2.983   4.192 -0.6422 -1.0720  0.8015
  128OSM   C17F13718   5.666   2.959   4.341  0.2458 -0.1670  0.1297
  128OSM   H17F13719   5.653   2.851   4.321  0.7453 -0.2216  0.0767
  128OSM   H17G13720   5.563   2.997   4.361  0.3292 -1.2408  3.0508
  128OSM   C18F13721   5.763   2.998   4.451  0.5896  0.0858 -0.3087
  128OSM   H18F13722   5.868   2.997   4.415  0.9643  0.1803  0.7541
  128OSM   H18G13723   5.759   2.926   4.536  1.4645 -0.3555 -0.6271
  128OSM   H18H13724   5.736   3.104   4.470 -2.2530 -0.6995  0.5313
  129OSM      N13725   0.709   0.220   2.403 -0.3137  0.2075  0.3229
  129OSM    C1513726   0.565   0.274   2.404  0.1237 -0.3225 -0.1290
  129OSM   H15A13727   0.507   0.209   2.340 -0.0226 -1.1110  0.7927
  129OSM   H15B13728   0.562   0.377   2.372  0.8148  0.0901  1.0508
  129OSM   H15C13729   0.524   0.278   2.503  0.5318  3.5814  0.0553
  129OSM    C1413730   0.735   0.202   2.261 -0.0554 -0.0662  0.1811
  129OSM   H14A13731   0.727   0.301   2.217 -0.3711 -0.3918 -0.5107
  129OSM   H14B13732   0.666   0.138   2.208  1.0651 -1.9512  0.9013
  129OSM   H14C13733   0.828   0.155   2.236 -0.7171 -0.7039 -1.1415
  129OSM    C1313734   0.822   0.310   2.449 -0.0409 -0.0871 -0.0229
  129OSM   H13A13735   0.922   0.276   2.432  0.2519 -1.0339  3.0025
  129OSM   H13B13736   0.809   0.334   2.554  1.4121 -3.0188  0.9315
  129OSM   H13C13737   0.818   0.412   2.412 -2.6476  0.6702  2.0234
  129OSM    C1213738   0.712   0.085   2.473 -0.3016 -0.4555 -0.4350
  129OSM   H12A13739   0.810   0.044   2.455 -0.2897 -0.5151 -0.2313
  129OSM   H12B13740   0.653   0.026   2.404 -1.3237 -0.5450  0.4929
  129OSM    C1113741   0.665   0.072   2.624 -0.3796 -0.0015 -0.2045
  129OSM   H11A13742   0.729   0.138   2.687 -2.5217  0.9596  1.0653
  129OSM   H11B13743   0.681  -0.031   2.663 -0.8457  0.0943  0.2587
  129OSM      P13744   0.429  -0.014   2.586  0.2374 -0.0219 -0.2806
  129OSM    O1313745   0.298   0.054   2.545  0.0572  0.0813 -0.4986
  129OSM    O1413746   0.498  -0.080   2.475  0.5173 -0.3652  0.0851
  129OSM    O1113747   0.414  -0.118   2.702 -0.6523  0.2639 -0.3540
  129OSM    O1213748   0.528   0.103   2.640  0.5297 -0.4683  0.1003
  129OSM    C1S13749   0.374  -0.087   2.835  0.7053 -0.2091  0.5070
  129OSM    H1S13750   0.275  -0.036   2.839  1.1110  0.8175 -1.2883
  129OSM    H1T13751   0.458  -0.037   2.887  2.4146 -1.1787 -1.1452
  129OSM     NF13752   0.301  -0.189   3.053 -0.3214  0.1184 -0.4678
  129OSM    HNF13753   0.362  -0.177   3.131  0.5719  1.2213 -1.3052
  129OSM    C2S13754   0.355  -0.216   2.920 -0.1538 -0.0903 -0.1461
  129OSM    H2S13755   0.290  -0.294   2.876  0.4325 -0.3637 -0.5467
  129OSM    C3S13756   0.495  -0.288   2.941  0.0252 -0.0160 -0.8782
  129OSM    H3S13757   0.555  -0.215   3.000  0.5901  0.6801 -2.2792
  129OSM     O313758   0.571  -0.303   2.824 -0.1055  0.0006  0.3120
  129OSM    HO313759   0.519  -0.264   2.753  2.1385  2.0812 -0.3105
  129OSM    C4S13760   0.486  -0.423   3.020  0.1405 -0.0749  0.2125
  129OSM    H4S13761   0.466  -0.399   3.125 -3.3243 -0.5742 -0.2290
  129OSM    C5S13762   0.484  -0.554   2.980  0.2765 -0.1372 -0.0905
  129OSM    H5S13763   0.506  -0.578   2.875 -0.3762  1.3014 -0.5692
  129OSM    C6S13764   0.471  -0.672   3.079  0.2959  0.3683  0.4009
  129OSM    H6S13765   0.552  -0.747   3.064 -1.1123 -0.9475 -0.9398
  129OSM    H6T13766   0.380  -0.725   3.043  0.4065  1.8565 -2.3801
  129OSM    C7S13767   0.467  -0.642   3.233 -0.1885 -0.0231  0.3833
  129OSM    H7S13768   0.373  -0.585   3.246 -0.8261 -1.1843  1.1383
  129OSM    H7T13769   0.557  -0.584   3.264 -0.1458  1.2976 -2.0190
  129OSM    C8S13770   0.454  -0.768   3.323  0.5386 -0.2969  0.4919
  129OSM    H8S13771   0.551  -0.821   3.329  0.8572  0.3794  1.5810
  129OSM    H8T13772   0.373  -0.837   3.289  0.1181  0.3031  0.2598
  129OSM    C9S13773   0.417  -0.733   3.466  0.4218  0.3230 -0.6425
  129OSM    H9S13774   0.368  -0.818   3.518 -0.3989  0.5436 -1.0381
  129OSM    H9T13775   0.338  -0.656   3.471 -0.6534 -0.8243  0.3397
  129OSM   C10S13776   0.543  -0.692   3.557  0.5427  0.4405  0.0757
  129OSM   H10S13777   0.571  -0.604   3.495  0.8251 -0.0679 -0.5291
  129OSM   H10T13778   0.627  -0.764   3.557  0.0375 -0.2197  2.0743
  129OSM   C11S13779   0.514  -0.661   3.699  0.1118 -0.3847 -0.1872
  129OSM   H11S13780   0.445  -0.739   3.739  0.7833 -1.3821 -0.9334
  129OSM   H11T13781   0.459  -0.566   3.715  0.6282  0.0352 -0.8476
  129OSM   C12S13782   0.634  -0.661   3.790  0.7804  0.2744  0.0668
  129OSM   H12S13783   0.707  -0.590   3.745  2.4989 -2.3516 -1.5982
  129OSM   H12T13784   0.680  -0.762   3.792  0.7189  0.1965 -1.3815
  129OSM   C13S13785   0.603  -0.631   3.933 -0.4410  0.2568 -0.2314
  129OSM   H13S13786   0.528  -0.706   3.967  0.5632 -0.9339 -0.5698
  129OSM   H13T13787   0.548  -0.536   3.949 -1.1590 -0.4547  1.8538
  129OSM   C14S13788   0.734  -0.632   4.010  0.5348 -0.3627  0.0760
  129OSM   H14S13789   0.791  -0.546   3.970 -0.3888  0.9204  1.4456
  129OSM   H14T13790   0.789  -0.729   4.002 -0.0025 -0.5997 -0.8512
  129OSM   C15S13791   0.699  -0.612   4.159 -0.1026  0.5661 -0.0064
  129OSM   H15S13792   0.676  -0.710   4.207  0.5123  0.0252 -0.7867
  129OSM   H15T13793   0.613  -0.543   4.165  0.5222  1.2576  1.8582
  129OSM   C16S13794   0.810  -0.541   4.239  0.6438 -0.4234  0.5515
  129OSM   H16S13795   0.770  -0.445   4.278  1.7501  0.3438 -0.1330
  129OSM   H16T13796   0.900  -0.536   4.174 -0.2017 -0.2055 -0.6557
  129OSM   C17S13797   0.815  -0.616   4.369  0.5928 -0.3589  0.0804
  129OSM   H17S13798   0.852  -0.716   4.337  0.6393  0.1216 -1.4700
  129OSM   H17T13799   0.711  -0.631   4.405  0.7035 -0.0170  0.5540
  129OSM   C18S13800   0.903  -0.569   4.483  0.1087  0.0444 -0.0436
  129OSM   H18S13801   0.918  -0.650   4.558  0.7606  0.3531  0.1671
  129OSM   H18T13802   0.860  -0.482   4.537 -1.4164  0.1430 -1.3481
  129OSM   H18U13803   1.004  -0.546   4.443 -0.4876  1.2555 -0.9094
  129OSM    C1F13804   0.176  -0.171   3.078 -0.0991 -0.2223  0.0988
  129OSM     OF13805   0.098  -0.175   2.981  0.8892  0.2029  0.2133
  129OSM    C2F13806   0.132  -0.143   3.222 -0.0410 -0.3082 -0.0335
  129OSM    H2F13807   0.048  -0.070   3.211  1.8017  2.0188  0.3905
  129OSM    H2G13808   0.199  -0.086   3.290  0.8065  1.0979 -1.9365
  129OSM    C3F13809   0.075  -0.268   3.283  0.6357 -0.4548  0.3518
  129OSM    H3F13810   0.152  -0.348   3.285  0.9298 -0.1740  0.2862
  129OSM    H3G13811  -0.015  -0.302   3.227  0.1589  1.7078 -0.2827
  129OSM    C4F13812   0.037  -0.255   3.435 -0.4972  0.6394 -0.5610
  129OSM    H4F13813  -0.069  -0.272   3.464  0.1364 -2.2666  0.4435
  129OSM    H4G13814   0.052  -0.148   3.462  0.2491  0.7770 -1.4739
  129OSM    C5F13815   0.133  -0.348   3.517 -0.4288 -0.2252  0.5208
  129OSM    H5F13816   0.239  -0.321   3.496 -0.3266 -0.2543  1.0082
  129OSM    H5G13817   0.117  -0.456   3.495 -1.5835  0.0276  0.0341
  129OSM    C6F13818   0.121  -0.329   3.672 -0.0120 -0.2818 -0.2437
  129OSM    H6F13819   0.015  -0.347   3.702 -0.2806 -0.1001 -1.0650
  129OSM    H6G13820   0.144  -0.222   3.692 -0.7864 -0.2616  0.6069
  129OSM    C7F13821   0.213  -0.399   3.766  0.1870  0.1599 -0.7331
  129OSM    H7F13822   0.309  -0.344   3.756 -0.0111  0.8631  0.9683
  129OSM    H7G13823   0.239  -0.501   3.730 -0.9885  0.3024 -2.0592
  129OSM    C8F13824   0.166  -0.398   3.915  0.0696 -0.4025  0.0433
  129OSM    H8F13825   0.074  -0.460   3.908 -1.4744  1.7247  0.7020
  129OSM    H8G13826   0.122  -0.300   3.944  1.8204 -0.1022  1.8604
  129OSM    C9F13827   0.272  -0.453   3.999  1.1209 -0.5149 -0.2549
  129OSM    H9F13828   0.323  -0.542   3.960  0.5880 -0.7841 -0.3430
  129OSM   C10F13829   0.302  -0.416   4.126 -0.1377 -0.4282  0.4280
  129OSM   H10F13830   0.370  -0.479   4.186 -0.1867  0.1712  1.1236
  129OSM   C11F13831   0.221  -0.317   4.205 -0.1998  0.4066 -0.3136
  129OSM   H11F13832   0.148  -0.370   4.271 -1.2959  2.0994 -0.0917
  129OSM   H11G13833   0.155  -0.247   4.150  1.2235  1.7695 -0.3625
  129OSM   C12F13834   0.308  -0.227   4.300  0.1176  0.4558  0.3380
  129OSM   H12F13835   0.238  -0.155   4.347  0.0017 -0.0199  0.9070
  129OSM   H12G13836   0.384  -0.176   4.237  0.2946  0.5149  0.5985
  129OSM   C13F13837   0.388  -0.292   4.415 -0.0433  0.4394 -1.0646
  129OSM   H13F13838   0.473  -0.361   4.396 -1.3682 -1.3317 -0.8020
  129OSM   H13G13839   0.318  -0.357   4.472  0.5110  0.2453 -0.5869
  129OSM   C14F13840   0.436  -0.179   4.512 -0.5674 -0.1357  0.2962
  129OSM   H14F13841   0.343  -0.129   4.548 -0.5450  0.6084 -0.6495
  129OSM   H14G13842   0.483  -0.110   4.439  0.4053 -0.3315  0.7243
  129OSM   C15F13843   0.525  -0.234   4.624 -0.0996  0.3388 -0.8845
  129OSM   H15F13844   0.605  -0.292   4.571  1.7506  1.9420  0.0227
  129OSM   H15G13845   0.464  -0.311   4.676  1.5406 -0.8299 -0.5937
  129OSM   C16F13846   0.566  -0.146   4.738 -0.0962  0.2025 -0.3863
  129OSM   H16F13847   0.570  -0.205   4.832  4.5882 -0.8584 -1.0152
  129OSM   H16G13848   0.491  -0.065   4.752 -1.4135 -1.1303  0.6741
  129OSM   C17F13849   0.701  -0.087   4.733  1.2000  0.0542  0.2974
  129OSM   H17F13850   0.721  -0.034   4.637 -0.9366  0.4734  0.0214
  129OSM   H17G13851   0.776  -0.167   4.746  0.2388 -0.4452  3.6264
  129OSM   C18F13852   0.719   0.009   4.846  0.7449 -0.4513 -0.3719
  129OSM   H18F13853   0.703  -0.053   4.938  1.6005 -0.8599 -0.4888
  129OSM   H18G13854   0.650   0.096   4.849 -2.1496 -2.4482 -2.6046
  129OSM   H18H13855   0.824   0.042   4.862 -0.4861  3.5876  0.5134
  130OSM      N13856   5.237   3.685   2.470 -0.9601  1.0535  0.3187
  130OSM    C1513857   5.121   3.593   2.507 -0.8312 -0.0614 -0.3974
  130OSM   H15A13858   5.152   3.512   2.572 -0.0466  1.1237  0.7749
  130OSM   H15B13859   5.069   3.557   2.420 -0.8208 -0.1298 -0.3758
  130OSM   H15C13860   5.054   3.659   2.561  0.9652  1.3387  0.2472
  130OSM    C1413861   5.345   3.597   2.428 -0.0856  0.3480  0.0513
  130OSM   H14A13862   5.369   3.518   2.498 -0.3837 -0.5480 -0.8347
  130OSM   H14B13863   5.431   3.662   2.422  0.9939 -0.9963  0.3217
  130OSM   H14C13864   5.325   3.552   2.332 -0.3941  0.6316 -0.0169
  130OSM    C1313865   5.208   3.781   2.360 -0.1197  0.5642  0.0460
  130OSM   H13A13866   5.299   3.829   2.329  0.0186 -0.6064 -1.4844
  130OSM   H13B13867   5.147   3.864   2.391  2.0880  2.3129 -0.0678
  130OSM   H13C13868   5.165   3.729   2.275 -0.7318  2.1496 -0.6456
  130OSM    C1213869   5.270   3.768   2.598  0.4604  0.0714 -0.9709
  130OSM   H12A13870   5.193   3.842   2.615  0.6298 -0.3763  2.2924
  130OSM   H12B13871   5.362   3.821   2.579  0.0093  1.5924  0.7851
  130OSM    C1113872   5.281   3.688   2.730  0.2270 -0.2644  0.3578
  130OSM   H11A13873   5.181   3.641   2.741 -0.4764  0.1494 -3.0077
  130OSM   H11B13874   5.297   3.758   2.814 -2.9141  1.4020 -0.2853
  130OSM      P13875   5.538   3.621   2.733  0.3740 -0.0495  0.1363
  130OSM    O1313876   5.610   3.539   2.632  0.2685 -0.0408  0.1621
  130OSM    O1413877   5.555   3.768   2.715  0.8577 -0.5856 -0.0951
  130OSM    O1113878   5.603   3.587   2.874  0.2594  0.1812 -0.5326
  130OSM    O1213879   5.379   3.583   2.742 -0.0108  0.1425  0.3684
  130OSM    C1S13880   5.663   3.691   2.956  0.2593  0.1292 -0.3137
  130OSM    H1S13881   5.726   3.764   2.900  1.1078 -1.0893 -0.9956
  130OSM    H1T13882   5.742   3.654   3.025 -0.3256 -0.0909  0.2495
  130OSM     NF13883   5.650   3.866   3.121  0.3792  0.3412 -0.1476
  130OSM    HNF13884   5.679   3.843   3.213 -3.3560  0.3928  1.2309
  130OSM    C2S13885   5.568   3.768   3.056  0.3166  0.1054  0.3136
  130OSM    H2S13886   5.477   3.816   3.014 -0.7610 -2.4364 -0.4460
  130OSM    C3S13887   5.516   3.657   3.159 -0.1833  0.8821 -0.2161
  130OSM    H3S13888   5.608   3.604   3.191 -1.2067 -0.4775  0.5979
  130OSM     O313889   5.442   3.549   3.108  0.5267  0.7577  0.4460
  130OSM    HO313890   5.458   3.545   3.013  1.8743 -2.9850  0.6758
  130OSM    C4S13891   5.442   3.723   3.273 -0.3202  0.7425 -0.8927
  130OSM    H4S13892   5.335   3.751   3.275 -0.6228 -0.1381  2.3791
  130OSM    C5S13893   5.505   3.742   3.391  0.5715 -0.1999 -0.2659
  130OSM    H5S13894   5.614   3.725   3.397  0.8278  0.8900 -1.5277
  130OSM    C6S13895   5.438   3.798   3.510  0.5975  0.2264  0.0190
  130OSM    H6S13896   5.351   3.855   3.471 -1.6161 -2.3708  0.8444
  130OSM    H6T13897   5.509   3.864   3.565 -0.9402  0.2030  2.1667
  130OSM    C7S13898   5.389   3.702   3.626  0.0670 -0.7014  0.6423
  130OSM    H7S13899   5.483   3.662   3.670 -1.1862 -2.7236  1.6477
  130OSM    H7T13900   5.333   3.618   3.580 -0.0367 -0.3831  0.1826
  130OSM    C8S13901   5.296   3.763   3.736 -0.3364  0.2978 -0.2419
  130OSM    H8S13902   5.245   3.674   3.779  0.6785  0.1629  0.7226
  130OSM    H8T13903   5.220   3.829   3.689  0.2611  0.6995 -0.6604
  130OSM    C9S13904   5.378   3.821   3.852 -0.6372  0.2919 -0.0657
  130OSM    H9S13905   5.461   3.763   3.896 -1.4372 -1.5947 -0.9289
  130OSM    H9T13906   5.320   3.839   3.944 -2.2638  1.3342 -1.2322
  130OSM   C10S13907   5.453   3.953   3.826 -0.1429 -0.0468  0.3111
  130OSM   H10S13908   5.388   4.031   3.780 -1.1569  0.2213  2.0964
  130OSM   H10T13909   5.535   3.927   3.755 -1.2051 -3.0380  0.0150
  130OSM   C11S13910   5.523   4.021   3.947 -0.3126  0.2644 -0.2302
  130OSM   H11S13911   5.605   4.089   3.916 -1.0611  0.6145 -1.4811
  130OSM   H11T13912   5.569   3.947   4.016 -2.5508 -0.1970  0.8697
  130OSM   C12S13913   5.428   4.109   4.025  0.2664 -0.3437  0.2699
  130OSM   H12S13914   5.340   4.049   4.056  0.3239 -0.2920  0.5369
  130OSM   H12T13915   5.401   4.195   3.960  0.7308  0.6987  1.4166
  130OSM   C13S13916   5.492   4.169   4.156  0.8326 -0.2513  0.2118
  130OSM   H13S13917   5.416   4.240   4.195  0.0184 -0.2731 -1.2574
  130OSM   H13T13918   5.591   4.213   4.134  1.3267 -0.2239  2.2552
  130OSM   C14S13919   5.515   4.069   4.270 -0.2198  0.1035 -0.2504
  130OSM   H14S13920   5.582   3.987   4.236 -1.1777 -0.6867 -0.2499
  130OSM   H14T13921   5.419   4.021   4.297  0.0421 -0.9858 -1.1991
  130OSM   C15S13922   5.576   4.119   4.406 -0.0076 -0.8012  0.0058
  130OSM   H15S13923   5.498   4.163   4.470  1.4159  0.3504  1.0218
  130OSM   H15T13924   5.646   4.204   4.387 -0.2051 -0.0247  2.4496
  130OSM   C16S13925   5.650   4.005   4.480 -0.7130 -0.0672 -0.0459
  130OSM   H16S13926   5.703   4.047   4.568  1.5316 -0.5696 -1.0797
  130OSM   H16T13927   5.727   3.960   4.414 -0.4902 -0.0293  0.1869
  130OSM   C17S13928   5.562   3.894   4.536  0.8398 -0.2865  0.0513
  130OSM   H17S13929   5.513   3.823   4.466  0.8155 -0.3217  0.1051
  130OSM   H17T13930   5.487   3.930   4.610 -0.6657  0.2518 -1.6486
  130OSM   C18S13931   5.653   3.799   4.623 -0.0989  1.1276 -0.2678
  130OSM   H18S13932   5.738   3.854   4.671 -0.9357  0.9048  1.5579
  130OSM   H18T13933   5.706   3.744   4.543 -0.3931  0.2384  0.1371
  130OSM   H18U13934   5.592   3.728   4.682  0.9759 -0.0607 -0.5423
  130OSM    C1F13935   5.680   3.985   3.070 -0.3672  0.3293  0.5888
  130OSM     OF13936   5.637   4.039   2.974  0.2446  0.1619 -0.5457
  130OSM    C2F13937   5.797   4.043   3.136  0.5534 -0.7668  0.4295
  130OSM    H2F13938   5.880   4.061   3.064  1.2539 -0.5969  1.2583
  130OSM    H2G13939   5.823   3.990   3.230 -1.4450  0.0881  1.5349
  130OSM    C3F13940   5.761   4.184   3.176 -0.2262  0.7169 -0.2379
  130OSM    H3F13941   5.749   4.251   3.088 -0.0448  0.3448 -0.5500
  130OSM    H3G13942   5.840   4.237   3.233 -0.9457  3.0470 -1.2710
  130OSM    C4F13943   5.635   4.200   3.267  0.0359 -0.4621 -0.2364
  130OSM    H4F13944   5.625   4.135   3.357  0.6328  1.0267  0.9530
  130OSM    H4G13945   5.547   4.171   3.206 -1.1854  0.1542  1.1564
  130OSM    C5F13946   5.620   4.349   3.313 -0.2172  0.1165  0.2058
  130OSM    H5F13947   5.576   4.408   3.230 -0.3956  0.7600  0.7496
  130OSM    H5G13948   5.723   4.389   3.326 -0.1720  0.7374 -1.6705
  130OSM    C6F13949   5.528   4.377   3.434 -0.0513  0.9344 -0.0145
  130OSM    H6F13950   5.425   4.349   3.402 -0.7040 -1.2160  3.5027
  130OSM    H6G13951   5.522   4.480   3.474 -0.7351  0.5620  0.8759
  130OSM    C7F13952   5.555   4.293   3.563 -0.0514 -0.2562  0.4084
  130OSM    H7F13953   5.666   4.284   3.566  0.2330  1.1742 -2.3132
  130OSM    H7G13954   5.501   4.197   3.554 -1.2839  0.3826  0.7382
  130OSM    C8F13955   5.522   4.375   3.692 -0.5178  0.0228  0.0686
  130OSM    H8F13956   5.585   4.463   3.712 -0.9778  0.9117 -2.1511
  130OSM    H8G13957   5.545   4.310   3.779 -1.2718  1.2673  1.2321
  130OSM    C9F13958   5.379   4.403   3.714  0.3863 -0.0259 -0.3433
  130OSM    H9F13959   5.307   4.345   3.654 -0.9818  0.7208  0.5193
  130OSM   C10F13960   5.326   4.498   3.793  0.3942 -0.3205 -0.8030
  130OSM   H10F13961   5.216   4.499   3.788  0.2633 -2.0077  0.6673
  130OSM   C11F13962   5.388   4.590   3.892  0.4931  0.3528  0.2186
  130OSM   H11F13963   5.359   4.697   3.882  1.3363  0.7813  1.9927
  130OSM   H11G13964   5.499   4.589   3.896  0.5403  2.9265  3.1759
  130OSM   C12F13965   5.350   4.542   4.036 -0.1064  0.2193 -0.1356
  130OSM   H12F13966   5.384   4.436   4.046 -0.4528 -0.3749 -3.7241
  130OSM   H12G13967   5.240   4.542   4.050 -0.0917  0.2576 -0.0211
  130OSM   C13F13968   5.410   4.629   4.143  1.0745 -0.5847 -0.3558
  130OSM   H13F13969   5.348   4.721   4.149  0.5001 -0.5967 -4.0102
  130OSM   H13G13970   5.508   4.664   4.104  0.1629  1.3788 -0.9847
  130OSM   C14F13971   5.424   4.561   4.279 -1.0969 -0.5027  0.0773
  130OSM   H14F13972   5.498   4.479   4.287 -2.0054 -1.4525 -1.0481
  130OSM   H14G13973   5.319   4.534   4.304 -2.3759  2.8075 -1.0245
  130OSM   C15F13974   5.475   4.654   4.386 -0.2398 -0.0910 -0.1432
  130OSM   H15F13975   5.402   4.738   4.385  2.2243  2.1809 -1.8405
  130OSM   H15G13976   5.572   4.688   4.344 -0.7037  1.0322 -0.3558
  130OSM   C16F13977   5.488   4.590   4.524 -0.1358  0.2009 -0.1187
  130OSM   H16F13978   5.570   4.516   4.514 -0.0829  0.5562 -3.1367
  130OSM   H16G13979   5.394   4.540   4.556 -1.0940  2.2478  0.4538
  130OSM   C17F13980   5.519   4.685   4.635  0.3967  0.9387 -0.9279
  130OSM   H17F13981   5.462   4.776   4.608  0.0117  0.2059 -2.7389
  130OSM   H17G13982   5.625   4.718   4.629  0.8305  0.3456  1.7733
  130OSM   C18F13983   5.482   4.645   4.778  0.4983  0.0137 -0.3213
  130OSM   H18F13984   5.537   4.550   4.796  2.4093  0.9338 -1.0391
  130OSM   H18G13985   5.373   4.630   4.793  0.3052  0.2284 -1.4656
  130OSM   H18H13986   5.512   4.724   4.849 -2.3094  1.0705 -0.1659
  131OSM      N13987   4.410   2.902   2.344 -0.3404 -0.1324  0.5152
  131OSM    C1513988   4.261   2.877   2.333 -0.2236  0.2244  0.4596
  131OSM   H15A13989   4.203   2.908   2.419 -0.0174 -0.6438  0.9225
  131OSM   H15B13990   4.229   2.775   2.319  0.4440  0.3790 -2.9779
  131OSM   H15C13991   4.224   2.934   2.249  0.1453  2.5792  1.8140
  131OSM    C1413992   4.419   3.047   2.325 -0.4223  0.0505  0.1505
  131OSM   H14A13993   4.343   3.097   2.384 -0.0576  1.8871 -0.8395
  131OSM   H14B13994   4.393   3.068   2.222 -0.5934 -1.1549 -0.0583
  131OSM   H14C13995   4.518   3.082   2.353  0.0539 -1.1300 -0.0206
  131OSM    C1313996   4.460   2.870   2.473  0.2345 -0.0569 -0.4089
  131OSM   H13A13997   4.453   2.766   2.504  1.6566  0.3336  1.3778
  131OSM   H13B13998   4.406   2.917   2.553 -2.4189 -2.7822 -0.4111
  131OSM   H13C13999   4.567   2.887   2.478  0.9939 -3.5582 -1.5573
  131OSM    C1214000   4.487   2.837   2.231  0.5170 -0.1706 -0.5202
  131OSM   H12A14001   4.446   2.875   2.138 -0.4252  3.4321  1.1870
  131OSM   H12B14002   4.467   2.731   2.230  2.1516 -0.5344 -2.6144
  131OSM    C1114003   4.638   2.851   2.216  0.6590  0.1155 -0.1933
  131OSM   H11A14004   4.663   2.957   2.193 -0.1276  0.2769 -0.3293
  131OSM   H11B14005   4.667   2.805   2.119 -1.8218  1.6639 -1.7664
  131OSM      P14006   4.747   2.660   2.371  0.2292  0.2792  0.5096
  131OSM    O1314007   4.638   2.567   2.334  0.2638 -0.0034 -0.2566
  131OSM    O1414008   4.867   2.633   2.298  0.1557 -0.1440 -0.0603
  131OSM    O1114009   4.773   2.651   2.522 -0.1365 -0.3365 -0.3280
  131OSM    O1214010   4.706   2.809   2.337  0.3896  0.5313 -0.1903
  131OSM    C1S14011   4.824   2.763   2.597  0.9723 -0.2050  0.6317
  131OSM    H1S14012   4.753   2.848   2.590 -2.8821 -2.8253  3.7012
  131OSM    H1T14013   4.923   2.783   2.550  0.6677 -1.4608 -0.6147
  131OSM     NF14014   4.882   2.853   2.820  0.3046  0.2899 -0.1237
  131OSM    HNF14015   4.979   2.872   2.814  0.7576 -1.9666 -0.7368
  131OSM    C2S14016   4.844   2.733   2.749 -0.1918 -0.0634 -0.6531
  131OSM    H2S14017   4.752   2.699   2.801 -0.4389 -1.8888 -2.1963
  131OSM    C3S14018   4.948   2.619   2.780 -0.0670  0.4633 -0.3147
  131OSM    H3S14019   5.050   2.643   2.743  0.6298 -2.0997 -0.2076
  131OSM     O314020   4.918   2.497   2.717 -0.6163  0.3393  0.4742
  131OSM    HO314021   4.851   2.532   2.658  0.3280  0.4723 -0.5420
  131OSM    C4S14022   4.955   2.598   2.931 -0.0622 -0.0377  0.1558
  131OSM    H4S14023   5.004   2.675   2.994 -0.5867 -0.3053  0.9120
  131OSM    C5S14024   4.896   2.499   3.003  0.4769 -0.3325  0.0446
  131OSM    H5S14025   4.843   2.419   2.950 -1.0293  0.5342  0.1745
  131OSM    C6S14026   4.893   2.483   3.152  0.4336 -0.3689  0.2061
  131OSM    H6S14027   4.988   2.449   3.199  1.3026 -0.5614 -1.5964
  131OSM    H6T14028   4.820   2.400   3.167  0.0426  0.2009  1.6144
  131OSM    C7S14029   4.851   2.598   3.240  0.5070  0.3098  0.6135
  131OSM    H7S14030   4.774   2.657   3.186  1.3032 -0.6526 -1.7223
  131OSM    H7T14031   4.944   2.656   3.255  0.3874  0.7355 -0.2454
  131OSM    C8S14032   4.811   2.541   3.375  0.7851  0.5211 -0.1222
  131OSM    H8S14033   4.897   2.492   3.427 -0.2643 -1.2149  0.0439
  131OSM    H8T14034   4.740   2.456   3.363  1.5131 -0.0148 -0.7924
  131OSM    C9S14035   4.749   2.641   3.471 -0.0441 -0.3257 -0.5851
  131OSM    H9S14036   4.656   2.683   3.426  0.8412  2.5061 -0.0057
  131OSM    H9T14037   4.806   2.735   3.487  2.0348 -1.4671 -0.9239
  131OSM   C10S14038   4.730   2.570   3.607  0.3913  0.2267 -0.2041
  131OSM   H10S14039   4.707   2.462   3.591  2.0400 -0.0643 -0.9002
  131OSM   H10T14040   4.651   2.630   3.657  2.0690  2.2783  0.1130
  131OSM   C11S14041   4.849   2.592   3.702  0.0478 -0.6460  0.5133
  131OSM   H11S14042   4.856   2.700   3.729 -1.1915  0.0006 -1.5401
  131OSM   H11T14043   4.936   2.560   3.641  0.0984 -1.2087  0.8704
  131OSM   C12S14044   4.830   2.502   3.822 -0.2662 -0.1061  0.0381
  131OSM   H12S14045   4.871   2.401   3.803  1.8513  0.5881  0.6312
  131OSM   H12T14046   4.723   2.478   3.838  0.3780 -1.3744  2.9272
  131OSM   C13S14047   4.887   2.559   3.956 -0.0290 -0.3521 -0.0637
  131OSM   H13S14048   4.847   2.505   4.044 -0.0717  2.5016  1.8293
  131OSM   H13T14049   4.847   2.663   3.963  1.3386  0.0887  2.5697
  131OSM   C14S14050   5.036   2.562   3.974 -0.0095 -0.4092 -0.3706
  131OSM   H14S14051   5.077   2.652   3.923  1.0418 -0.3786  0.4826
  131OSM   H14T14052   5.092   2.479   3.925 -3.6726 -2.2916 -1.7781
  131OSM   C15S14053   5.071   2.585   4.128 -0.4307  0.4682  0.9286
  131OSM   H15S14054   5.024   2.502   4.186 -1.0026 -0.9969 -1.4898
  131OSM   H15T14055   5.033   2.684   4.163 -0.7751 -0.2417  2.6733
  131OSM   C16S14056   5.226   2.587   4.141 -0.0940  0.2788 -0.5784
  131OSM   H16S14057   5.278   2.675   4.097  0.2351  0.9929  1.1584
  131OSM   H16T14058   5.267   2.493   4.098 -0.0551 -0.2822  0.6475
  131OSM   C17S14059   5.272   2.602   4.290  0.2879  0.6738 -0.2420
  131OSM   H17S14060   5.221   2.524   4.349 -1.0240  0.0913 -2.0331
  131OSM   H17T14061   5.227   2.693   4.336 -2.4218 -0.3993 -0.5993
  131OSM   C18S14062   5.421   2.595   4.314  0.0127  0.0621 -0.1511
  131OSM   H18S14063   5.451   2.598   4.421 -0.3055 -1.2121 -0.0031
  131OSM   H18T14064   5.476   2.680   4.269 -0.3217  0.4324  0.1316
  131OSM   H18U14065   5.453   2.497   4.273 -0.1440  0.4445 -1.2101
  131OSM    C1F14066   4.790   2.948   2.830 -0.3449  0.1827  0.4295
  131OSM     OF14067   4.676   2.931   2.788  0.5697  0.0971 -0.3260
  131OSM    C2F14068   4.849   3.079   2.880 -0.4370 -0.5758 -0.1224
  131OSM    H2F14069   4.826   3.159   2.807  3.6952  0.0288 -1.0140
  131OSM    H2G14070   4.959   3.065   2.879 -0.2076  0.6557  2.0487
  131OSM    C3F14071   4.810   3.124   3.019  0.8297 -0.6541  0.2656
  131OSM    H3F14072   4.699   3.122   3.029  0.9341  1.0299  2.5510
  131OSM    H3G14073   4.837   3.230   3.035 -2.6007  0.1549  1.7018
  131OSM    C4F14074   4.849   3.041   3.143  0.1483 -0.3363  0.1402
  131OSM    H4F14075   4.956   3.010   3.139  0.0154 -0.6610 -1.8920
  131OSM    H4G14076   4.782   2.952   3.150 -0.0132 -0.5563 -2.9275
  131OSM    C5F14077   4.842   3.125   3.273  0.3897  0.0163  0.2888
  131OSM    H5F14078   4.738   3.163   3.266 -0.6158 -2.3710  1.1208
  131OSM    H5G14079   4.908   3.214   3.266 -0.5283  0.6359 -0.7974
  131OSM    C6F14080   4.862   3.048   3.405  0.4162  0.0553  0.2461
  131OSM    H6F14081   4.957   2.991   3.402  1.1236  1.2238 -0.1378
  131OSM    H6G14082   4.786   2.970   3.428 -0.4587  1.2041  1.4151
  131OSM    C7F14083   4.848   3.124   3.542  0.5806 -0.1639  0.1407
  131OSM    H7F14084   4.750   3.162   3.575  1.1818  1.8785 -0.3010
  131OSM    H7G14085   4.909   3.216   3.528 -0.5298  0.5973  0.2116
  131OSM    C8F14086   4.916   3.038   3.656 -0.2510 -0.4565 -0.3736
  131OSM    H8F14087   5.022   3.019   3.631 -0.2368 -2.7066  1.1405
  131OSM    H8G14088   4.856   2.945   3.663  1.9081 -2.0328 -1.6174
  131OSM    C9F14089   4.903   3.111   3.789 -0.1816  0.8869  0.0086
  131OSM    H9F14090   4.796   3.129   3.806 -0.7704  0.2758 -2.5894
  131OSM   C10F14091   4.998   3.168   3.869 -0.3351 -0.3548 -0.2357
  131OSM   H10F14092   4.964   3.224   3.957 -1.6358  1.1454 -1.6095
  131OSM   C11F14093   5.150   3.159   3.853 -0.0901  0.4044  0.1437
  131OSM   H11F14094   5.198   3.233   3.921  0.6940 -0.1505  0.2039
  131OSM   H11G14095   5.176   3.190   3.750  1.5136 -0.7828  0.1514
  131OSM   C12F14096   5.230   3.033   3.870 -0.6974  0.6459 -0.3248
  131OSM   H12F14097   5.338   3.058   3.856 -0.5879  0.3749  0.0252
  131OSM   H12G14098   5.223   2.965   3.782  2.2179  2.5109 -2.2226
  131OSM   C13F14099   5.222   2.961   4.001  0.1585  0.1167 -0.3513
  131OSM   H13F14100   5.268   2.860   3.989  0.0838  0.0864 -0.3854
  131OSM   H13G14101   5.116   2.932   4.013  0.9993 -2.8973  0.8802
  131OSM   C14F14102   5.251   3.039   4.132  0.6566  0.0087  0.0828
  131OSM   H14F14103   5.188   3.130   4.126  0.7829  0.0957  0.0775
  131OSM   H14G14104   5.353   3.083   4.125  0.7965 -0.5496 -2.3816
  131OSM   C15F14105   5.213   2.961   4.258 -0.4035 -1.0161 -0.5344
  131OSM   H15F14106   5.288   2.881   4.280  0.6818 -0.4352 -1.9524
  131OSM   H15G14107   5.119   2.902   4.257 -1.3179  0.1246  3.0272
  131OSM   C16F14108   5.213   3.044   4.391 -0.2212 -0.6232 -0.0291
  131OSM   H16F14109   5.138   3.126   4.394  1.3250  0.8767 -0.4748
  131OSM   H16G14110   5.312   3.094   4.395  0.1171 -1.2609 -0.3405
  131OSM   C17F14111   5.204   2.958   4.514 -0.2942  0.1012 -0.2877
  131OSM   H17F14112   5.283   2.881   4.525 -1.1996 -0.7991  0.0478
  131OSM   H17G14113   5.115   2.891   4.513  0.2406 -0.6465  0.2923
  131OSM   C18F14114   5.204   3.035   4.654 -0.4319 -0.1899 -0.5391
  131OSM   H18F14115   5.101   3.071   4.675 -1.0356 -2.4508  0.6076
  131OSM   H18G14116   5.282   3.114   4.667 -0.6668 -0.0449 -0.0061
  131OSM   H18H14117   5.217   2.964   4.738 -0.3918 -0.5950 -0.8846
  132OSM      N14118   4.456   1.165   2.558  0.1404  0.7903 -0.4914
  132OSM    C1514119   4.361   1.259   2.629 -0.5894  0.8141  0.1841
  132OSM   H15A14120   4.260   1.247   2.593 -0.5119 -2.4942  0.7706
  132OSM   H15B14121   4.393   1.361   2.610  0.8044  0.4027  0.2139
  132OSM   H15C14122   4.362   1.239   2.735  1.4334 -0.0093  0.0401
  132OSM    C1414123   4.596   1.206   2.595 -0.0864  0.2642  0.0689
  132OSM   H14A14124   4.671   1.133   2.567 -0.2743  0.0937 -0.0007
  132OSM   H14B14125   4.602   1.213   2.702  0.5747 -0.1835  0.0688
  132OSM   H14C14126   4.628   1.303   2.561  0.7227  0.4251  1.2279
  132OSM    C1314127   4.434   1.023   2.604 -0.3291 -0.2600 -0.3647
  132OSM   H13A14128   4.330   0.993   2.595 -0.2199 -0.3279 -1.5470
  132OSM   H13B14129   4.456   1.003   2.708  0.0335 -3.2127 -0.9177
  132OSM   H13C14130   4.500   0.955   2.553 -0.4108  0.2779 -1.2042
  132OSM    C1214131   4.426   1.171   2.413 -0.2218 -0.3108  0.2869
  132OSM   H12A14132   4.506   1.116   2.366 -0.9171 -1.2841  0.2114
  132OSM   H12B14133   4.431   1.275   2.383 -0.7454  0.3325  2.2980
  132OSM    C1114134   4.301   1.107   2.362  0.1662  0.3690 -0.8622
  132OSM   H11A14135   4.298   1.006   2.409  0.4938  1.4274  1.6142
  132OSM   H11B14136   4.310   1.106   2.252  1.2753  0.1553 -0.7806
  132OSM      P14137   4.037   1.136   2.356  0.3277  0.3001  0.0265
  132OSM    O1314138   3.969   1.261   2.318 -0.1380 -0.4300  0.0344
  132OSM    O1414139   4.041   1.044   2.246 -0.4631 -0.1539 -0.3747
  132OSM    O1114140   3.957   1.069   2.476  0.2725 -0.6599 -0.1022
  132OSM    O1214141   4.181   1.169   2.406  0.4144 -0.2257  0.0410
  132OSM    C1S14142   3.962   1.129   2.607  0.0079  0.2371 -0.1876
  132OSM    H1S14143   3.868   1.188   2.614  0.1432  0.4546 -0.2007
  132OSM    H1T14144   4.034   1.213   2.615  1.0588 -0.5591 -0.9517
  132OSM     NF14145   3.928   1.107   2.848 -0.8321  0.2247  0.5841
  132OSM    HNF14146   4.003   1.115   2.913 -0.2425 -2.7352  0.4045
  132OSM    C2S14147   3.971   1.032   2.731 -0.0754  0.2296  0.3921
  132OSM    H2S14148   3.900   0.949   2.714  1.3632 -0.6031 -1.9578
  132OSM    C3S14149   4.105   0.956   2.737 -0.1351 -1.1290 -0.2586
  132OSM    H3S14150   4.185   1.029   2.763 -0.9040 -0.2028 -0.4296
  132OSM     O314151   4.138   0.892   2.616  0.3883  0.2691 -0.1957
  132OSM    HO314152   4.058   0.904   2.563  1.5093  2.6342 -1.5144
  132OSM    C4S14153   4.083   0.859   2.846 -0.4390  0.1473 -0.4161
  132OSM    H4S14154   4.010   0.784   2.814  0.6288 -0.2596 -2.0129
  132OSM    C5S14155   4.134   0.865   2.970 -0.3162  0.0787 -0.6915
  132OSM    H5S14156   4.198   0.949   3.003 -1.3166  0.2709  0.8490
  132OSM    C6S14157   4.092   0.765   3.077  0.1186 -0.2750  0.1330
  132OSM    H6S14158   4.171   0.688   3.091 -0.6982 -1.0553  0.6199
  132OSM    H6T14159   3.999   0.713   3.045  0.2955 -1.3055  1.1933
  132OSM    C7S14160   4.062   0.825   3.214  0.7877 -0.1723 -0.2107
  132OSM    H7S14161   3.969   0.885   3.210 -0.2579 -1.7251 -0.2129
  132OSM    H7T14162   4.151   0.889   3.233  1.7738 -1.7540  0.8007
  132OSM    C8S14163   4.055   0.722   3.322  0.1237 -0.0525 -0.3187
  132OSM    H8S14164   4.151   0.666   3.329 -0.5542 -1.1219  1.0067
  132OSM    H8T14165   3.973   0.649   3.302  0.3861 -0.6081  0.5468
  132OSM    C9S14166   4.031   0.783   3.458  0.0106  0.0674  0.4676
  132OSM    H9S14167   3.924   0.812   3.466  0.0231  0.5442 -0.9305
  132OSM    H9T14168   4.083   0.881   3.470  0.2245  0.1271 -0.8781
  132OSM   C10S14169   4.062   0.702   3.586  0.1502  0.1148  0.8586
  132OSM   H10S14170   4.173   0.696   3.586  0.1786  0.6433  1.4564
  132OSM   H10T14171   4.025   0.597   3.579  1.1592 -0.1343 -2.0618
  132OSM   C11S14172   4.004   0.772   3.707  0.1514  0.0012 -0.7017
  132OSM   H11S14173   3.894   0.777   3.693 -0.2094  0.1836  1.7655
  132OSM   H11T14174   4.043   0.876   3.706  2.0114 -0.6191  0.7042
  132OSM   C12S14175   4.037   0.701   3.837 -0.6193 -0.8027 -0.7136
  132OSM   H12S14176   4.144   0.680   3.859 -0.6905 -0.4264  0.0494
  132OSM   H12T14177   4.003   0.596   3.824  1.7483 -1.8370  0.7839
  132OSM   C13S14178   3.985   0.772   3.962 -0.4357  0.4884 -0.0648
  132OSM   H13S14179   3.875   0.767   3.948 -0.4092 -0.8539  0.0758
  132OSM   H13T14180   4.023   0.876   3.960 -0.9582  0.6770 -0.3581
  132OSM   C14S14181   4.034   0.705   4.098 -0.4766  0.7941  0.7318
  132OSM   H14S14182   4.142   0.730   4.111 -0.4829  0.3815  1.6287
  132OSM   H14T14183   4.035   0.595   4.085 -1.4067  0.6542  1.7426
  132OSM   C15S14184   3.944   0.750   4.217 -0.1570  0.0048 -0.2109
  132OSM   H15S14185   3.835   0.734   4.207 -0.1738 -2.1875  2.3196
  132OSM   H15T14186   3.977   0.855   4.231  3.6284 -0.9365 -0.9144
  132OSM   C16S14187   3.970   0.681   4.347  0.4650  0.2795 -0.4340
  132OSM   H16S14188   3.977   0.572   4.324 -0.4935  0.1389 -0.1165
  132OSM   H16T14189   3.887   0.693   4.419 -1.3612 -0.6059 -2.2755
  132OSM   C17S14190   4.091   0.739   4.418 -0.8432  0.2606  0.0654
  132OSM   H17S14191   4.085   0.850   4.409  0.7070  0.2984 -0.7068
  132OSM   H17T14192   4.193   0.719   4.379 -0.9909 -0.0815 -0.1523
  132OSM   C18S14193   4.096   0.688   4.565  0.3225 -0.6074 -0.1629
  132OSM   H18S14194   4.074   0.580   4.574 -0.0256 -0.5637 -0.4856
  132OSM   H18T14195   4.023   0.747   4.625  1.3097  0.7593 -0.2452
  132OSM   H18U14196   4.197   0.717   4.603  0.4830  0.1277 -1.1157
  132OSM    C1F14197   3.800   1.141   2.873  0.3840  0.0920 -0.5402
  132OSM     OF14198   3.706   1.129   2.790 -0.1802  0.5118 -0.3282
  132OSM    C2F14199   3.783   1.196   3.008 -0.3159 -0.4399 -0.4520
  132OSM    H2F14200   3.748   1.300   2.996 -3.4806 -1.0017  2.4345
  132OSM    H2G14201   3.874   1.198   3.071  0.3152 -2.3223 -1.2263
  132OSM    C3F14202   3.671   1.122   3.090 -0.3965  0.3769  0.4005
  132OSM    H3F14203   3.673   1.012   3.080 -2.3319  0.4768 -2.3395
  132OSM    H3G14204   3.574   1.162   3.052 -0.6099  0.1884  0.7414
  132OSM    C4F14205   3.673   1.175   3.238 -0.0819  1.0030 -0.9272
  132OSM    H4F14206   3.582   1.143   3.293  1.1874  2.9635  2.6224
  132OSM    H4G14207   3.686   1.285   3.245 -1.1100  1.0403  1.7697
  132OSM    C5F14208   3.779   1.107   3.322 -0.0880  0.4928 -0.2292
  132OSM    H5F14209   3.882   1.145   3.305  1.1518 -1.8236  1.5794
  132OSM    H5G14210   3.785   1.004   3.281  1.8808  0.2478  0.5648
  132OSM    C6F14211   3.763   1.110   3.479  0.1470 -0.1315 -0.1768
  132OSM    H6F14212   3.855   1.072   3.528  0.3630  1.0735  0.3884
  132OSM    H6G14213   3.681   1.042   3.510  0.0664  0.7285  1.5905
  132OSM    C7F14214   3.732   1.255   3.536 -0.0450  0.3573  0.1082
  132OSM    H7F14215   3.644   1.294   3.479  1.0071  1.8668 -0.5557
  132OSM    H7G14216   3.816   1.322   3.508 -0.9264  0.6209 -2.1488
  132OSM    C8F14217   3.706   1.247   3.692  0.6968  0.0749 -0.1541
  132OSM    H8F14218   3.606   1.197   3.687  1.5422 -1.6066 -2.5328
  132OSM    H8G14219   3.703   1.354   3.721 -0.3183  0.0851 -0.2613
  132OSM    C9F14220   3.807   1.175   3.777  0.1121  0.1133  0.1980
  132OSM    H9F14221   3.910   1.204   3.753 -1.0240  0.7892 -5.3799
  132OSM   C10F14222   3.780   1.088   3.879 -0.1467  0.3269  0.8430
  132OSM   H10F14223   3.870   1.036   3.916 -0.5226 -1.6062 -0.7471
  132OSM   C11F14224   3.638   1.044   3.921  0.3080  0.2545  0.0478
  132OSM   H11F14225   3.630   0.933   3.930  0.7417  0.3423  2.2385
  132OSM   H11G14226   3.563   1.069   3.844  1.9696 -0.2814 -1.8276
  132OSM   C12F14227   3.619   1.101   4.064 -0.2899 -0.2925 -0.0424
  132OSM   H12F14228   3.516   1.082   4.101 -1.0059  0.3378 -1.6533
  132OSM   H12G14229   3.623   1.212   4.063 -0.6716 -0.2728 -1.3788
  132OSM   C13F14230   3.708   1.051   4.182  0.3979 -0.0316  0.3796
  132OSM   H13F14231   3.813   1.074   4.156  1.0311 -2.5305  0.4730
  132OSM   H13G14232   3.700   0.941   4.196  0.8175 -0.0605  0.3835
  132OSM   C14F14233   3.669   1.136   4.304 -0.5344  0.5437 -0.4086
  132OSM   H14F14234   3.571   1.095   4.338  0.9516 -1.7299  1.4445
  132OSM   H14G14235   3.653   1.241   4.270  1.2728  0.5241 -1.4332
  132OSM   C15F14236   3.779   1.137   4.413  0.5306  0.3910  0.5084
  132OSM   H15F14237   3.737   1.211   4.484 -1.2363 -0.6032  0.5606
  132OSM   H15G14238   3.869   1.179   4.362 -0.7310  2.5196 -0.0759
  132OSM   C16F14239   3.824   1.007   4.481  0.6394  0.0176  0.2382
  132OSM   H16F14240   3.923   1.024   4.529  0.3953  3.0276 -0.1820
  132OSM   H16G14241   3.832   0.933   4.399 -1.0237  2.5222 -2.3482
  132OSM   C17F14242   3.725   0.965   4.593  0.3820  0.2434  0.3938
  132OSM   H17F14243   3.744   0.859   4.620  0.6847  0.4586  1.0450
  132OSM   H17G14244   3.618   0.966   4.563  0.2798 -2.3911  0.4024
  132OSM   C18F14245   3.749   1.066   4.708  0.0616  0.0826  0.8185
  132OSM   H18F14246   3.696   1.026   4.797 -1.6570 -1.6152 -0.8820
  132OSM   H18G14247   3.707   1.166   4.686 -0.4617 -0.5463 -1.2105
  132OSM   H18H14248   3.858   1.075   4.726  0.1356  1.7213 -0.2467
  133OSM      N14249   1.526   2.138   2.259  0.5658  0.3074  0.0061
  133OSM    C1514250   1.451   2.017   2.201  0.0367  0.3306  0.4139
  133OSM   H15A14251   1.469   2.023   2.095 -3.2062  1.8084 -0.1890
  133OSM   H15B14252   1.345   2.022   2.223  0.5308 -1.7208  4.0649
  133OSM   H15C14253   1.488   1.926   2.244 -0.1384  1.3715  2.9345
  133OSM    C1414254   1.648   2.155   2.180  0.1188 -0.8465  0.4029
  133OSM   H14A14255   1.711   2.070   2.156 -1.1296 -1.3144 -1.4656
  133OSM   H14B14256   1.707   2.227   2.234 -0.7250  0.8813 -0.8753
  133OSM   H14C14257   1.616   2.193   2.084 -0.2403  1.1950  1.2811
  133OSM    C1314258   1.446   2.266   2.244  0.3728  0.6554  0.1801
  133OSM   H13A14259   1.414   2.291   2.144 -2.6886  0.7399  1.0615
  133OSM   H13B14260   1.501   2.347   2.290  0.8432  0.1444  0.5203
  133OSM   H13C14261   1.354   2.260   2.302  0.5620  1.6377  0.6081
  133OSM    C1214262   1.564   2.115   2.409 -0.6824  0.2112  0.4251
  133OSM   H12A14263   1.634   2.191   2.441 -3.1419  1.8332  2.2491
  133OSM   H12B14264   1.621   2.023   2.408  0.6193  0.9906  0.0140
  133OSM    C1114265   1.460   2.096   2.523  0.1981  0.5471  0.4373
  133OSM   H11A14266   1.399   2.188   2.506 -0.2523  0.3879  1.1603
  133OSM   H11B14267   1.510   2.088   2.623  2.3884  1.2978 -0.5277
  133OSM      P14268   1.276   1.915   2.580  0.2740 -0.3119 -0.0435
  133OSM    O1314269   1.145   1.914   2.508 -0.2145  0.3739 -0.7390
  133OSM    O1414270   1.324   1.784   2.633 -0.0190  0.1885 -0.1215
  133OSM    O1114271   1.259   2.023   2.696  0.0844 -0.4158  0.5821
  133OSM    O1214272   1.388   1.978   2.493 -0.2762  0.9966  0.0951
  133OSM    C1S14273   1.219   1.972   2.830 -0.0666 -0.2811  0.6310
  133OSM    H1S14274   1.273   1.880   2.861 -2.7309 -2.1465  0.1788
  133OSM    H1T14275   1.110   1.948   2.829  0.2557 -1.8313  0.9784
  133OSM     NF14276   1.205   2.003   3.066  0.2699  0.4400 -0.7311
  133OSM    HNF14277   1.117   2.027   3.106  0.8216 -1.4731  1.8569
  133OSM    C2S14278   1.235   2.068   2.937 -0.2504  0.4242 -0.0438
  133OSM    H2S14279   1.342   2.096   2.945 -0.3389  1.0251 -0.8537
  133OSM    C3S14280   1.149   2.195   2.908 -0.1313 -0.3809  0.1781
  133OSM    H3S14281   1.044   2.163   2.898  0.3361 -2.4266  1.2269
  133OSM     O314282   1.176   2.244   2.778  0.6845 -0.4656  0.2962
  133OSM    HO314283   1.252   2.191   2.754  0.4421 -0.5544 -0.2875
  133OSM    C4S14284   1.160   2.297   3.017  0.0065 -1.5494 -0.0608
  133OSM    H4S14285   1.085   2.272   3.094 -2.3676  0.9687 -1.3640
  133OSM    C5S14286   1.234   2.414   3.016 -0.0967  0.0882 -0.3251
  133OSM    H5S14287   1.302   2.444   2.936  2.3910  0.1188  1.6809
  133OSM    C6S14288   1.228   2.517   3.127 -0.5813 -0.0802  0.7186
  133OSM    H6S14289   1.245   2.617   3.083  3.7243 -1.6205 -1.7517
  133OSM    H6T14290   1.319   2.498   3.188 -0.2594 -0.7425  0.0487
  133OSM    C7S14291   1.101   2.503   3.210  0.0192 -0.5826 -0.2905
  133OSM    H7S14292   1.109   2.406   3.264  2.6369 -0.3044 -0.0732
  133OSM    H7T14293   1.021   2.516   3.134  1.6146 -0.4728 -1.9864
  133OSM    C8S14294   1.086   2.627   3.314 -0.7184 -0.1937  0.1369
  133OSM    H8S14295   0.994   2.612   3.375  0.4376  2.1796  2.6781
  133OSM    H8T14296   1.081   2.726   3.264 -0.3416  0.1731  0.8077
  133OSM    C9S14297   1.207   2.639   3.414 -0.4270 -0.0661  0.6227
  133OSM    H9S14298   1.191   2.727   3.481  0.5576 -0.2723  1.1474
  133OSM    H9T14299   1.300   2.669   3.361  0.7361 -3.5154  0.4960
  133OSM   C10S14300   1.247   2.517   3.499  0.6962  0.1656  0.3890
  133OSM   H10S14301   1.350   2.536   3.535  1.7399 -0.8483 -1.8151
  133OSM   H10T14302   1.241   2.420   3.444 -0.9302  0.0894  0.6743
  133OSM   C11S14303   1.150   2.507   3.618 -0.1307  0.3350  0.3522
  133OSM   H11S14304   1.041   2.501   3.596 -0.0997  1.1613 -0.0641
  133OSM   H11T14305   1.157   2.605   3.669 -2.0890 -0.1699  1.6783
  133OSM   C12S14306   1.208   2.407   3.723 -0.7705  0.1038 -0.4630
  133OSM   H12S14307   1.317   2.428   3.724 -0.9213  1.0254 -1.5803
  133OSM   H12T14308   1.205   2.302   3.685 -1.4284  0.4953 -1.5600
  133OSM   C13S14309   1.148   2.429   3.861  0.7010  0.0594 -0.1655
  133OSM   H13S14310   1.039   2.447   3.848  0.8836  1.1739 -0.2725
  133OSM   H13T14311   1.195   2.520   3.905 -0.1799  1.2657 -1.5755
  133OSM   C14S14312   1.162   2.311   3.962  0.1661  0.2657 -0.2522
  133OSM   H14S14313   1.266   2.275   3.980 -0.0480  0.6467  2.1260
  133OSM   H14T14314   1.102   2.228   3.917 -1.6141  2.1297 -1.4684
  133OSM   C15S14315   1.101   2.344   4.100  0.1657  0.0263 -0.1769
  133OSM   H15S14316   1.086   2.245   4.149 -0.6519  1.0858  1.8383
  133OSM   H15T14317   1.007   2.391   4.064  1.2695  0.6280 -2.4714
  133OSM   C16S14318   1.191   2.437   4.180 -0.2732  0.5129 -0.1845
  133OSM   H16S14319   1.227   2.510   4.106  0.1255 -1.0963 -1.6401
  133OSM   H16T14320   1.281   2.378   4.208 -0.4859 -0.1352 -0.8283
  133OSM   C17S14321   1.119   2.498   4.300 -0.1518 -0.0731  0.2815
  133OSM   H17S14322   1.104   2.416   4.373  2.6020 -1.2930 -0.3578
  133OSM   H17T14323   1.031   2.558   4.268  0.1989  0.8474  0.9850
  133OSM   C18S14324   1.207   2.606   4.368  0.4064 -0.2436  0.0464
  133OSM   H18S14325   1.235   2.684   4.295  1.2400 -2.3386 -2.0102
  133OSM   H18T14326   1.301   2.562   4.408  0.2098 -1.1729 -0.4858
  133OSM   H18U14327   1.151   2.649   4.454  0.1037  0.6809 -0.6110
  133OSM    C1F14328   1.274   1.898   3.122 -0.1419 -0.9683  0.5101
  133OSM     OF14329   1.379   1.860   3.063  0.1096 -0.6702 -0.1302
  133OSM    C2F14330   1.225   1.848   3.246 -0.0434  0.3475 -0.9994
  133OSM    H2F14331   1.172   1.755   3.215 -0.9457  1.3448 -2.5718
  133OSM    H2G14332   1.144   1.914   3.283  0.1719  0.7417 -1.2205
  133OSM    C3F14333   1.331   1.808   3.356 -0.4169  0.4160 -0.2579
  133OSM    H3F14334   1.393   1.720   3.328  1.0640  1.5292 -0.6129
  133OSM    H3G14335   1.274   1.779   3.447  2.1676  1.1658  1.7274
  133OSM    C4F14336   1.423   1.927   3.398 -0.6974  0.3521  0.1488
  133OSM    H4F14337   1.450   1.985   3.307 -0.3429  1.1569  0.7564
  133OSM    H4G14338   1.514   1.891   3.448  0.4043 -1.3496 -2.8327
  133OSM    C5F14339   1.358   2.013   3.501  0.4487 -0.1408  0.6887
  133OSM    H5F14340   1.252   2.036   3.479  1.0437  2.0562 -0.1366
  133OSM    H5G14341   1.410   2.112   3.496 -2.3181  1.3412 -1.7193
  133OSM    C6F14342   1.374   1.964   3.642  0.5385  0.1899 -0.8349
  133OSM    H6F14343   1.393   1.855   3.639  1.0156  0.2593 -0.4787
  133OSM    H6G14344   1.286   1.992   3.704  0.3255 -1.1412 -0.4959
  133OSM    C7F14345   1.497   2.026   3.715 -0.1250  0.0819 -0.2070
  133OSM    H7F14346   1.471   2.127   3.752  0.0890 -0.3449  1.1569
  133OSM    H7G14347   1.582   2.043   3.644 -0.5355  0.4519 -0.6169
  133OSM    C8F14348   1.536   1.937   3.841 -0.0725 -0.3040  0.0402
  133OSM    H8F14349   1.584   1.847   3.798  1.1779  0.8524 -1.0736
  133OSM    H8G14350   1.444   1.910   3.898 -1.6007  0.6878 -1.8465
  133OSM    C9F14351   1.636   2.008   3.920  0.4245 -0.2219  0.1088
  133OSM    H9F14352   1.736   2.022   3.876  0.5497 -3.7109 -1.0884
  133OSM   C10F14353   1.620   2.044   4.050 -0.0779  0.2295  0.1008
  133OSM   H10F14354   1.704   2.094   4.100  0.0265 -1.4356  1.6698
  133OSM   C11F14355   1.497   2.039   4.138  0.0982  0.6821  0.3297
  133OSM   H11F14356   1.503   1.941   4.188 -0.2890  1.5485  2.1661
  133OSM   H11G14357   1.416   2.041   4.062  0.9952  1.3964 -0.6391
  133OSM   C12F14358   1.482   2.161   4.226 -0.5156  0.0420  0.2508
  133OSM   H12F14359   1.387   2.143   4.281 -0.8619  1.6517  0.2370
  133OSM   H12G14360   1.476   2.251   4.161  0.4808 -1.1142 -1.5436
  133OSM   C13F14361   1.586   2.189   4.338 -0.6213  0.0595 -0.2945
  133OSM   H13F14362   1.673   2.255   4.318 -1.3934  1.8391  1.8239
  133OSM   H13G14363   1.626   2.093   4.379  0.2020  0.6013  0.1884
  133OSM   C14F14364   1.518   2.266   4.450  0.2990 -0.0213 -0.7154
  133OSM   H14F14365   1.428   2.209   4.481  1.8439 -1.6367  1.0742
  133OSM   H14G14366   1.475   2.358   4.405 -3.7096 -0.9364  0.7886
  133OSM   C15F14367   1.604   2.283   4.577 -0.0004  0.6636  0.0976
  133OSM   H15F14368   1.695   2.344   4.554 -0.2124  0.5243 -1.1980
  133OSM   H15G14369   1.635   2.179   4.602 -0.5158  0.4067 -0.3152
  133OSM   C16F14370   1.529   2.333   4.700 -0.3856 -0.2310 -0.5099
  133OSM   H16F14371   1.608   2.363   4.772  0.3397 -1.8540 -0.5848
  133OSM   H16G14372   1.469   2.245   4.732  2.2819 -1.8503  0.4328
  133OSM   C17F14373   1.454   2.461   4.683  0.0859 -0.1775  0.4307
  133OSM   H17F14374   1.381   2.491   4.762 -0.7711 -0.9608 -0.0516
  133OSM   H17G14375   1.387   2.440   4.598  1.2415  0.1899 -0.5991
  133OSM   C18F14376   1.545   2.582   4.648  0.1951  0.7263 -0.4378
  133OSM   H18F14377   1.613   2.608   4.732  2.3624 -1.2490 -1.4570
  133OSM   H18G14378   1.487   2.673   4.624  0.9515  1.2707 -0.2584
  133OSM   H18H14379   1.613   2.560   4.563 -2.3440 -1.1536 -2.1174
  134OSM      N14380   1.158   0.811   2.896  0.4420 -0.8006  0.0173
  134OSM    C1514381   1.084   0.944   2.864 -0.2601  0.0921  0.0387
  134OSM   H15A14382   1.069   0.970   2.761 -3.4304 -0.7550  0.1726
  134OSM   H15B14383   1.148   1.021   2.904  3.2844 -2.3374 -0.4635
  134OSM   H15C14384   0.997   0.952   2.927  0.1968 -1.3540  0.9117
  134OSM    C1414385   1.199   0.803   3.039  0.0773  0.0602 -0.0678
  134OSM   H14A14386   1.247   0.709   3.063 -0.6820 -0.0210  1.2481
  134OSM   H14B14387   1.109   0.813   3.098  0.0054  0.3521 -0.2274
  134OSM   H14C14388   1.269   0.881   3.068  0.4824 -0.2947 -0.0828
  134OSM    C1314389   1.065   0.696   2.858 -0.0389 -1.0106  0.0091
  134OSM   H13A14390   0.976   0.703   2.919  0.7747  0.1375  1.1311
  134OSM   H13B14391   1.111   0.602   2.885  0.7212  0.0098  2.6330
  134OSM   H13C14392   1.039   0.691   2.754 -0.2130 -0.8575  0.0425
  134OSM    C1214393   1.281   0.806   2.813  0.6968 -0.2136 -0.1318
  134OSM   H12A14394   1.331   0.901   2.826  3.4354 -1.3579 -1.3767
  134OSM   H12B14395   1.251   0.792   2.711 -0.3433 -2.4720  0.4179
  134OSM    C1114396   1.385   0.702   2.851 -0.7728 -0.1170  0.3922
  134OSM   H11A14397   1.433   0.718   2.949 -0.3854 -1.7859  0.5166
  134OSM   H11B14398   1.465   0.706   2.774 -1.6621 -0.8535 -0.6087
  134OSM      P14399   1.356   0.446   2.799  0.2108  0.0738 -0.0921
  134OSM    O1314400   1.252   0.348   2.854 -0.0190 -0.6588 -0.0088
  134OSM    O1414401   1.359   0.446   2.651  0.7517  0.5590  0.4039
  134OSM    O1114402   1.498   0.408   2.855  0.1164 -0.2978  0.2253
  134OSM    O1214403   1.314   0.580   2.854 -0.2461  0.2902  0.1376
  134OSM    C1S14404   1.523   0.388   2.997 -0.1630 -0.5847 -0.3969
  134OSM    H1S14405   1.470   0.465   3.056  1.5050 -1.0174  1.8008
  134OSM    H1T14406   1.631   0.411   3.006 -0.1876 -0.3953 -0.5925
  134OSM     NF14407   1.531   0.251   3.205  0.0138  0.7492  0.2216
  134OSM    HNF14408   1.626   0.228   3.225 -0.2555 -0.8399 -0.1770
  134OSM    C2S14409   1.503   0.248   3.057  0.5121 -0.2189 -0.0493
  134OSM    H2S14410   1.394   0.229   3.046  0.4050  0.7080 -0.6896
  134OSM    C3S14411   1.588   0.148   2.975 -0.5741 -0.4066  0.3531
  134OSM    H3S14412   1.696   0.173   2.974 -0.8165  0.7244  0.9349
  134OSM     O314413   1.551   0.144   2.838 -0.1756  0.0904 -0.0364
  134OSM    HO314414   1.503   0.226   2.828  1.4466  0.8340 -3.1916
  134OSM    C4S14415   1.573   0.007   3.023 -1.1415 -0.4036  0.4504
  134OSM    H4S14416   1.480  -0.015   3.078 -2.0575 -1.6397 -1.4990
  134OSM    C5S14417   1.675  -0.080   3.025 -0.5325  0.0588  0.2931
  134OSM    H5S14418   1.774  -0.058   2.981  0.2030  0.8677  2.2404
  134OSM    C6S14419   1.673  -0.215   3.098 -0.8104  0.4036 -0.7375
  134OSM    H6S14420   1.712  -0.289   3.025 -0.0371 -0.4814  0.5484
  134OSM    H6T14421   1.571  -0.247   3.128 -0.7281  3.5143  3.8947
  134OSM    C7S14422   1.774  -0.232   3.224  0.4633  0.0746 -0.4598
  134OSM    H7S14423   1.769  -0.339   3.254  2.1980  0.0161 -0.3212
  134OSM    H7T14424   1.731  -0.159   3.296  0.7723 -0.5506  0.3642
  134OSM    C8S14425   1.918  -0.202   3.186  0.5022 -0.1485  0.1392
  134OSM    H8S14426   1.937  -0.093   3.184 -0.7401  0.0670 -1.2870
  134OSM    H8T14427   1.926  -0.239   3.082 -1.9858 -0.8763  0.1456
  134OSM    C9S14428   2.026  -0.275   3.266 -0.2989  0.0535 -0.2089
  134OSM    H9S14429   2.121  -0.241   3.219  0.4323 -3.0904 -1.2249
  134OSM    H9T14430   2.023  -0.384   3.244  0.3620 -0.1744  0.8141
  134OSM   C10S14431   2.030  -0.223   3.411 -0.1685  0.5730  0.2111
  134OSM   H10S14432   1.930  -0.227   3.461  0.5932 -2.2430  1.7376
  134OSM   H10T14433   2.045  -0.116   3.387 -1.8261  0.2732 -2.5604
  134OSM   C11S14434   2.142  -0.281   3.502 -0.1614  0.6330  0.2339
  134OSM   H11S14435   2.162  -0.210   3.585  0.2737  1.1109 -0.2725
  134OSM   H11T14436   2.236  -0.287   3.444  0.1297 -1.0854  0.8244
  134OSM   C12S14437   2.116  -0.428   3.553  0.2862 -0.1222  0.5593
  134OSM   H12S14438   2.112  -0.482   3.456 -2.9002  1.0195 -0.0764
  134OSM   H12T14439   2.018  -0.438   3.606  1.1394 -2.1036  1.8955
  134OSM   C13S14440   2.223  -0.470   3.655  0.1357 -0.1057  0.2234
  134OSM   H13S14441   2.320  -0.438   3.611 -0.3754  2.2328  0.6345
  134OSM   H13T14442   2.227  -0.581   3.659  1.1038 -0.0492  1.0640
  134OSM   C14S14443   2.209  -0.415   3.791  0.2935  0.0572 -0.4607
  134OSM   H14S14444   2.128  -0.478   3.833  0.1386  0.5382 -0.0182
  134OSM   H14T14445   2.195  -0.306   3.776  0.0662  0.0797 -0.1107
  134OSM   C15S14446   2.331  -0.445   3.873  0.1295 -0.0192 -0.5421
  134OSM   H15S14447   2.424  -0.393   3.841  0.2035  0.9138  1.0804
  134OSM   H15T14448   2.345  -0.555   3.865  3.2119  0.3581 -1.6563
  134OSM   C16S14449   2.311  -0.425   4.028 -0.5598  1.1674 -0.8953
  134OSM   H16S14450   2.218  -0.473   4.066  0.3340 -0.4076 -0.6231
  134OSM   H16T14451   2.300  -0.316   4.046 -4.3411  1.0359 -1.5997
  134OSM   C17S14452   2.430  -0.481   4.107 -0.3505  0.2363  0.8441
  134OSM   H17S14453   2.527  -0.436   4.074  1.1882  0.8843  5.4695
  134OSM   H17T14454   2.424  -0.587   4.074 -2.0441  1.2468 -2.5327
  134OSM   C18S14455   2.404  -0.490   4.256 -0.8422  0.4706  0.2126
  134OSM   H18S14456   2.478  -0.547   4.316 -0.4407  0.5208 -0.2283
  134OSM   H18T14457   2.301  -0.526   4.273 -0.6909 -1.7095 -2.7275
  134OSM   H18U14458   2.407  -0.389   4.304  1.0759  0.0150  1.1676
  134OSM    C1F14459   1.442   0.305   3.282  0.7353 -0.4958 -0.5025
  134OSM     OF14460   1.324   0.306   3.255 -0.1017  0.6059  0.3155
  134OSM    C2F14461   1.490   0.371   3.411  0.5900  0.6736  0.8300
  134OSM    H2F14462   1.601   0.362   3.413  0.6765  0.9543 -0.9245
  134OSM    H2G14463   1.450   0.314   3.497  0.9746  0.9938  1.2243
  134OSM    C3F14464   1.443   0.522   3.423  0.3865  0.0804 -0.2753
  134OSM    H3F14465   1.332   0.522   3.426  0.3573 -0.7748 -0.9555
  134OSM    H3G14466   1.464   0.578   3.330 -2.8282 -0.1918 -1.2949
  134OSM    C4F14467   1.506   0.606   3.535 -0.4805  0.5189  0.3328
  134OSM    H4F14468   1.476   0.713   3.532  1.9136  1.2960  1.5814
  134OSM    H4G14469   1.614   0.596   3.512 -0.7652 -1.0982 -0.4548
  134OSM    C5F14470   1.463   0.546   3.670  0.2638 -0.3802  0.1442
  134OSM    H5F14471   1.505   0.444   3.680 -1.2009 -1.1399 -1.0858
  134OSM    H5G14472   1.353   0.532   3.668  0.3756 -1.5455  1.2107
  134OSM    C6F14473   1.509   0.631   3.793  0.4833 -0.1300  0.0893
  134OSM    H6F14474   1.442   0.720   3.796  0.3975 -0.0625 -1.9011
  134OSM    H6G14475   1.611   0.674   3.782  0.5682  0.0316  1.4424
  134OSM    C7F14476   1.494   0.538   3.915  0.3850 -0.3461  0.6189
  134OSM    H7F14477   1.549   0.442   3.911  0.5598 -0.2276  0.0412
  134OSM    H7G14478   1.387   0.511   3.921  0.1799  0.3089  0.0840
  134OSM    C8F14479   1.511   0.609   4.052  0.0332 -0.8873 -0.1944
  134OSM    H8F14480   1.457   0.541   4.122  0.5656 -1.5286 -0.3920
  134OSM    H8G14481   1.469   0.712   4.056  0.9524 -0.5249  0.1425
  134OSM    C9F14482   1.656   0.616   4.092 -0.5188  0.2848 -0.4484
  134OSM    H9F14483   1.719   0.596   4.005 -1.7707 -1.2834 -1.0279
  134OSM   C10F14484   1.715   0.673   4.197  0.2174  0.1163 -0.8331
  134OSM   H10F14485   1.824   0.667   4.198  0.2025 -0.1227 -0.6878
  134OSM   C11F14486   1.643   0.728   4.324 -0.4022 -0.4233 -0.2361
  134OSM   H11F14487   1.536   0.737   4.294 -0.4622  0.2415  0.1495
  134OSM   H11G14488   1.676   0.832   4.346 -0.9244 -0.4108  0.5276
  134OSM   C12F14489   1.654   0.649   4.451 -0.0441  0.4113  0.6816
  134OSM   H12F14490   1.755   0.659   4.497 -0.4808 -1.1565  2.1037
  134OSM   H12G14491   1.634   0.543   4.426 -2.7051  1.1853 -0.9140
  134OSM   C13F14492   1.543   0.687   4.547  0.1324 -0.0723 -0.6266
  134OSM   H13F14493   1.447   0.676   4.492  0.5524 -4.3307 -0.8309
  134OSM   H13G14494   1.545   0.795   4.573  0.7387 -0.2863  0.2691
  134OSM   C14F14495   1.534   0.605   4.678  0.1982  0.9156 -0.2691
  134OSM   H14F14496   1.628   0.615   4.736 -0.0936  1.7446  0.0686
  134OSM   H14G14497   1.520   0.496   4.660 -1.8209  1.0899 -0.0210
  134OSM   C15F14498   1.426   0.659   4.768  0.4660 -0.2766  0.2700
  134OSM   H15F14499   1.325   0.632   4.731  0.5462 -0.9060  0.4919
  134OSM   H15G14500   1.439   0.769   4.772  1.0217 -0.3808  2.5485
  134OSM   C16F14501   1.430   0.594   4.905  0.6882 -0.3887 -0.1485
  134OSM   H16F14502   1.536   0.568   4.925  1.3435  0.0647 -2.7706
  134OSM   H16G14503   1.365   0.504   4.899  1.4265 -1.0793  1.6495
  134OSM   C17F14504   1.375   0.673   5.026 -0.6143 -0.0131 -0.8462
  134OSM   H17F14505   1.370   0.607   5.115  0.2862 -0.9055 -1.4367
  134OSM   H17G14506   1.277   0.710   4.987 -0.9232 -0.7753 -0.8168
  134OSM   C18F14507   1.452   0.799   5.068 -0.6788 -0.6195 -0.4180
  134OSM   H18F14508   1.388   0.853   5.141 -1.4488 -2.6591  0.4869
  134OSM   H18G14509   1.483   0.858   4.978  0.4095  2.1414  1.6252
  134OSM   H18H14510   1.546   0.769   5.117 -1.7687 -0.5881  1.7859
  135OSM      N14511   3.595   3.631   2.621 -0.2221  0.1969  0.3618
  135OSM    C1514512   3.601   3.757   2.547 -0.0155 -0.6792  0.0909
  135OSM   H15A14513   3.683   3.820   2.578 -0.1947 -0.6463  0.5082
  135OSM   H15B14514   3.511   3.815   2.563 -1.1621 -2.4199  0.2101
  135OSM   H15C14515   3.614   3.743   2.441 -0.5990 -0.1896 -0.0527
  135OSM    C1414516   3.702   3.528   2.575 -0.1083 -0.3325 -0.0930
  135OSM   H14A14517   3.802   3.563   2.594  0.9986 -1.2655 -3.5181
  135OSM   H14B14518   3.686   3.500   2.472 -1.8825  0.3435 -0.0334
  135OSM   H14C14519   3.708   3.438   2.635  1.0625  0.4120  0.9772
  135OSM    C1314520   3.622   3.657   2.770 -0.4629  0.3120  0.9448
  135OSM   H13A14521   3.631   3.569   2.832 -1.0797  0.4514  1.2382
  135OSM   H13B14522   3.544   3.726   2.798  0.1243  0.7305  1.5838
  135OSM   H13C14523   3.718   3.706   2.767  0.5393 -1.5425 -2.0628
  135OSM    C1214524   3.458   3.570   2.595  0.1385  0.1385  0.6103
  135OSM   H12A14525   3.477   3.464   2.591  3.2748  0.6389 -0.6439
  135OSM   H12B14526   3.431   3.604   2.496 -1.4084 -1.7816  0.3109
  135OSM    C1114527   3.358   3.597   2.702  0.0784  0.5018  0.2282
  135OSM   H11A14528   3.384   3.538   2.793  1.4405 -1.8249 -1.5772
  135OSM   H11B14529   3.263   3.554   2.662 -0.5086  2.7286 -0.9181
  135OSM      P14530   3.266   3.835   2.643  0.2701  0.1410  0.0874
  135OSM    O1314531   3.332   3.851   2.514  0.4417 -0.0892  0.6833
  135OSM    O1414532   3.125   3.791   2.632 -0.3609 -0.7662  0.0068
  135OSM    O1114533   3.274   3.977   2.727  0.2802 -0.1659  0.4979
  135OSM    O1214534   3.339   3.735   2.731  0.3673 -0.4933  0.2252
  135OSM    C1S14535   3.224   3.980   2.863 -0.4518  0.5551 -0.8048
  135OSM    H1S14536   3.296   3.935   2.935  0.6408  0.1932 -2.0798
  135OSM    H1T14537   3.123   3.935   2.866  0.6810 -2.0956  1.0383
  135OSM     NF14538   3.154   4.113   3.052  0.0683  0.0813 -0.1960
  135OSM    HNF14539   3.057   4.128   3.068  0.0763 -1.2746  1.4914
  135OSM    C2S14540   3.218   4.126   2.928 -0.3403 -0.3093 -0.1963
  135OSM    H2S14541   3.324   4.158   2.943 -0.3912 -0.4165  0.4293
  135OSM    C3S14542   3.153   4.229   2.829 -0.1412 -0.4434 -0.9380
  135OSM    H3S14543   3.047   4.205   2.807 -0.6359 -0.4625  1.2767
  135OSM     O314544   3.218   4.236   2.703  0.1255 -0.3544  0.2256
  135OSM    HO314545   3.260   4.150   2.689  0.4231 -0.6455  2.5351
  135OSM    C4S14546   3.148   4.369   2.883 -0.3616  0.4254 -0.0515
  135OSM    H4S14547   3.242   4.421   2.906 -0.7067  0.3882  1.5364
  135OSM    C5S14548   3.038   4.433   2.908  0.5590  0.3353 -0.2770
  135OSM    H5S14549   2.941   4.381   2.895  1.6430 -1.7330 -0.4701
  135OSM    C6S14550   3.017   4.568   2.973  0.2198 -0.4057 -0.7316
  135OSM    H6S14551   2.958   4.639   2.912 -1.9382 -1.2861  0.2467
  135OSM    H6T14552   3.117   4.616   2.979 -0.1884  0.3077  1.8591
  135OSM    C7S14553   2.954   4.585   3.112  0.5387 -0.3175  0.0111
  135OSM    H7S14554   3.001   4.510   3.179  0.7983  1.2326  1.6336
  135OSM    H7T14555   2.851   4.549   3.090 -0.6434 -0.6401  4.8741
  135OSM    C8S14556   2.971   4.725   3.165  0.1584 -0.1106 -0.6058
  135OSM    H8S14557   2.949   4.796   3.083  0.0831 -1.5736 -1.9091
  135OSM    H8T14558   3.078   4.734   3.193 -0.0951  0.2689  0.2641
  135OSM    C9S14559   2.901   4.752   3.303  0.2005 -0.4518 -0.0423
  135OSM    H9S14560   2.792   4.731   3.294 -0.0534  0.1015  1.4923
  135OSM    H9T14561   2.903   4.860   3.327  1.9864 -0.4461 -0.0409
  135OSM   C10S14562   2.960   4.678   3.418 -0.0050  0.0702  0.1037
  135OSM   H10S14563   3.066   4.710   3.422  0.4226 -1.3250  0.5133
  135OSM   H10T14564   2.965   4.568   3.406  1.7204 -0.0439  1.4361
  135OSM   C11S14565   2.893   4.719   3.548 -1.0086 -0.3266  0.4072
  135OSM   H11S14566   2.800   4.660   3.561 -1.0906 -0.2735  0.0575
  135OSM   H11T14567   2.859   4.825   3.554 -1.2763 -0.4254  0.6861
  135OSM   C12S14568   2.980   4.689   3.670 -0.5952  0.4088  0.5262
  135OSM   H12S14569   3.076   4.744   3.666 -0.0338 -0.6090 -0.5136
  135OSM   H12T14570   2.998   4.580   3.681  0.0640  0.5812  1.2302
  135OSM   C13S14571   2.900   4.745   3.798 -0.2509 -0.0424 -0.2093
  135OSM   H13S14572   2.798   4.701   3.798  0.7113 -2.3981 -0.6327
  135OSM   H13T14573   2.895   4.855   3.781 -1.4297  0.2296  1.5762
  135OSM   C14S14574   2.975   4.726   3.934  0.0355  0.6154 -0.1450
  135OSM   H14S14575   3.072   4.780   3.942  0.1307  0.6954 -1.5691
  135OSM   H14T14576   3.004   4.619   3.941 -1.1647  0.3423  0.8490
  135OSM   C15S14577   2.876   4.736   4.054  0.6866 -0.0342  0.1162
  135OSM   H15S14578   2.794   4.662   4.042 -1.0545  1.6375  1.0935
  135OSM   H15T14579   2.835   4.839   4.051 -2.1338 -1.0948 -0.9716
  135OSM   C16S14580   2.949   4.705   4.185 -0.4317  0.2054 -0.0528
  135OSM   H16S14581   3.036   4.775   4.191 -0.3850  0.3673 -1.8967
  135OSM   H16T14582   2.994   4.604   4.177  0.6374  0.7754 -2.7536
  135OSM   C17S14583   2.863   4.713   4.309  0.1526 -0.4019  0.8276
  135OSM   H17S14584   2.785   4.635   4.303 -1.4103  1.2131 -1.7206
  135OSM   H17T14585   2.811   4.811   4.308 -0.1814 -0.5757 -0.0050
  135OSM   C18S14586   2.949   4.694   4.431  0.3736  0.3100  0.0057
  135OSM   H18S14587   3.010   4.601   4.432 -0.1081 -0.0854  2.9061
  135OSM   H18T14588   2.886   4.682   4.522  0.5480 -2.5131 -0.1558
  135OSM   H18U14589   3.014   4.784   4.433  2.0215 -0.8382  1.3415
  135OSM    C1F14590   3.214   4.061   3.157  0.3036 -0.4670 -0.7545
  135OSM     OF14591   3.332   4.052   3.160  0.0836 -0.5591  0.2277
  135OSM    C2F14592   3.121   4.012   3.267 -0.3001 -0.5645  0.4725
  135OSM    H2F14593   3.075   3.912   3.249 -0.1717 -0.4259 -0.7018
  135OSM    H2G14594   3.031   4.077   3.268 -0.7836 -1.2007 -0.2829
  135OSM    C3F14595   3.197   4.010   3.400  0.1986  0.9702 -0.6021
  135OSM    H3F14596   3.240   4.111   3.420 -0.2145  0.8540  1.0017
  135OSM    H3G14597   3.280   3.937   3.399  0.3364  1.0880  0.3758
  135OSM    C4F14598   3.109   3.970   3.520  0.2882  0.6118  0.3332
  135OSM    H4F14599   3.024   3.906   3.487  0.9497 -1.2598  2.0640
  135OSM    H4G14600   3.071   4.065   3.565 -1.0076  0.7527 -0.9879
  135OSM    C5F14601   3.188   3.896   3.631  0.2207  0.3255 -0.1273
  135OSM    H5F14602   3.270   3.959   3.673  0.7885  0.1463 -0.9536
  135OSM    H5G14603   3.227   3.801   3.588  1.2608  0.7542 -0.1638
  135OSM    C6F14604   3.092   3.865   3.748 -0.1412 -0.6060 -0.3764
  135OSM    H6F14605   2.988   3.846   3.714 -1.1934  1.9132  1.1503
  135OSM    H6G14606   3.085   3.961   3.804  0.9253 -1.1267  0.6816
  135OSM    C7F14607   3.149   3.758   3.843 -0.1216  0.3063  1.2007
  135OSM    H7F14608   3.249   3.791   3.878 -0.0144  1.3809 -0.0306
  135OSM    H7G14609   3.153   3.661   3.789 -0.2516  0.4033  1.0118
  135OSM    C8F14610   3.059   3.727   3.970  0.0148  0.0303  0.3428
  135OSM    H8F14611   3.058   3.817   4.035 -0.2158 -0.7038  1.3745
  135OSM    H8G14612   3.114   3.650   4.028  0.7325  0.2665 -0.0124
  135OSM    C9F14613   2.918   3.673   3.941 -0.6239  0.0868 -0.6170
  135OSM    H9F14614   2.908   3.598   3.862 -0.7636  0.2071 -0.7140
  135OSM   C10F14615   2.803   3.726   3.985 -0.3539  0.8224 -0.2259
  135OSM   H10F14616   2.706   3.683   3.957  0.6199 -3.0881  1.6621
  135OSM   C11F14617   2.786   3.841   4.077  0.1808 -0.4664  0.2010
  135OSM   H11F14618   2.727   3.923   4.031  2.9441  1.0955 -0.7909
  135OSM   H11G14619   2.886   3.885   4.096  0.1833 -0.1308 -0.5489
  135OSM   C12F14620   2.719   3.811   4.209 -0.0867 -0.9945 -0.2610
  135OSM   H12F14621   2.762   3.722   4.259  0.7491 -0.7827 -0.5858
  135OSM   H12G14622   2.610   3.796   4.191 -0.4900 -0.3854  1.4761
  135OSM   C13F14623   2.731   3.924   4.317  0.7039 -0.0711 -1.2043
  135OSM   H13F14624   2.644   3.991   4.301 -0.5828 -0.6127  2.6864
  135OSM   H13G14625   2.828   3.979   4.311 -0.7722  2.8324 -0.2994
  135OSM   C14F14626   2.733   3.860   4.457 -0.0360 -0.3951  0.3156
  135OSM   H14F14627   2.821   3.793   4.468  0.9669  1.1042  2.0835
  135OSM   H14G14628   2.638   3.805   4.470  0.6263 -1.2737  1.6550
  135OSM   C15F14629   2.733   3.966   4.563 -0.3551  0.3153  0.4755
  135OSM   H15F14630   2.676   4.057   4.532  0.2367  0.0305 -1.5985
  135OSM   H15G14631   2.839   3.996   4.579  0.6956 -0.3497 -3.8931
  135OSM   C16F14632   2.671   3.921   4.689  0.0060  0.3073  0.9767
  135OSM   H16F14633   2.566   3.897   4.664  0.7756 -1.3340 -1.0711
  135OSM   H16G14634   2.677   4.002   4.765 -0.1827 -1.0209  2.4614
  135OSM   C17F14635   2.724   3.789   4.750  0.5938 -0.0786  0.4302
  135OSM   H17F14636   2.835   3.778   4.744  0.3282 -2.9114 -1.8191
  135OSM   H17G14637   2.682   3.700   4.699  2.6716  0.0029 -1.6257
  135OSM   C18F14638   2.686   3.785   4.902 -0.8277 -0.8835  0.0457
  135OSM   H18F14639   2.752   3.710   4.951  0.8593 -0.2610 -1.1737
  135OSM   H18G14640   2.580   3.753   4.899 -0.8160 -1.0791  1.2279
  135OSM   H18H14641   2.690   3.888   4.945 -0.1643  0.1330 -2.2990
  136OSM      N14642   0.423   0.440   2.724 -0.1819 -0.2211  0.3823
  136OSM    C1514643   0.496   0.338   2.810 -0.4048 -0.0364  0.2295
  136OSM   H15A14644   0.430   0.285   2.876  0.3445  1.2173  2.0860
  136OSM   H15B14645   0.569   0.376   2.880 -0.5377 -1.0526  0.9480
  136OSM   H15C14646   0.541   0.259   2.751 -0.9732 -0.4580  0.3575
  136OSM    C1414647   0.511   0.510   2.627  0.2858 -0.6834  0.2016
  136OSM   H14A14648   0.566   0.442   2.563  0.1948  0.0048 -0.6168
  136OSM   H14B14649   0.592   0.572   2.664  0.0037  0.7131 -1.4439
  136OSM   H14C14650   0.453   0.577   2.566 -0.3494 -1.3113  0.1003
  136OSM    C1314651   0.330   0.356   2.641  0.1522  0.1022  0.0447
  136OSM   H13A14652   0.379   0.286   2.575  0.9308  1.8602 -1.3262
  136OSM   H13B14653   0.257   0.415   2.589 -2.1812 -2.0363  0.6846
  136OSM   H13C14654   0.281   0.289   2.711 -1.0740  0.2517 -0.6521
  136OSM    C1214655   0.347   0.529   2.825  0.6223 -0.1386  0.2958
  136OSM   H12A14656   0.317   0.464   2.906 -2.8101  2.8735  1.7109
  136OSM   H12B14657   0.260   0.565   2.773 -0.0212 -0.7365  0.9352
  136OSM    C1114658   0.420   0.639   2.905 -0.0558 -0.4751 -0.2493
  136OSM   H11A14659   0.353   0.686   2.979  0.9478  2.0446 -0.8465
  136OSM   H11B14660   0.447   0.727   2.843 -0.9276 -0.1796 -0.2221
  136OSM      P14661   0.518   0.533   3.118  0.0101  0.0410 -0.0075
  136OSM    O1314662   0.401   0.449   3.138  1.0217 -0.0357 -0.5093
  136OSM    O1414663   0.650   0.479   3.154 -0.1523 -0.3707 -0.1626
  136OSM    O1114664   0.503   0.676   3.190  0.4284 -0.2497  0.0036
  136OSM    O1214665   0.535   0.576   2.965  0.0686  0.2510  0.3462
  136OSM    C1S14666   0.611   0.768   3.180  0.0302  0.2714 -0.6362
  136OSM    H1S14667   0.561   0.861   3.147 -1.2486  0.9126  2.6980
  136OSM    H1T14668   0.679   0.736   3.099 -0.3444  2.1275 -1.7306
  136OSM     NF14669   0.774   0.684   3.332 -0.2262  0.1680  0.3275
  136OSM    HNF14670   0.739   0.595   3.357  0.4579 -0.8173 -1.9145
  136OSM    C2S14671   0.675   0.788   3.319  0.0119  0.1783  0.5498
  136OSM    H2S14672   0.730   0.884   3.313 -0.5111  0.4398 -0.1307
  136OSM    C3S14673   0.570   0.804   3.430 -0.9229 -0.0231 -0.1661
  136OSM    H3S14674   0.492   0.724   3.429  0.5663 -1.5614  0.4156
  136OSM     O314675   0.486   0.916   3.391 -0.1307  0.2601 -0.0233
  136OSM    HO314676   0.522   0.937   3.304  0.9917  1.3117  0.6541
  136OSM    C4S14677   0.623   0.826   3.566 -0.1080 -0.2737 -0.3041
  136OSM    H4S14678   0.674   0.922   3.580  0.0954 -0.6465  1.8386
  136OSM    C5S14679   0.621   0.742   3.673 -0.2487  0.5724 -0.1822
  136OSM    H5S14680   0.576   0.642   3.661  1.8605 -0.5827  0.9307
  136OSM    C6S14681   0.670   0.768   3.814 -0.3373  0.1083 -1.0566
  136OSM    H6S14682   0.718   0.671   3.839 -1.6646 -0.0397  1.2359
  136OSM    H6T14683   0.584   0.750   3.881  0.4880 -1.7290 -0.4295
  136OSM    C7S14684   0.754   0.891   3.850  0.3169 -0.4049  1.1190
  136OSM    H7S14685   0.729   0.981   3.791  3.1119 -0.6814 -0.6762
  136OSM    H7T14686   0.860   0.868   3.828 -0.0589 -2.6632  1.3690
  136OSM    C8S14687   0.757   0.907   3.999 -0.3374 -0.2033 -0.9190
  136OSM    H8S14688   0.756   0.807   4.048 -1.4229 -0.7941 -2.0623
  136OSM    H8T14689   0.654   0.941   4.020 -0.1156 -0.4266  0.6724
  136OSM    C9S14690   0.856   0.999   4.053 -1.4530 -0.8125  0.2895
  136OSM    H9S14691   0.895   1.067   3.974 -0.3996 -2.0468 -0.2979
  136OSM    H9T14692   0.955   0.954   4.075  0.3401  2.6239 -0.0553
  136OSM   C10S14693   0.814   1.080   4.179 -0.4957 -0.1429  0.4452
  136OSM   H10S14694   0.774   1.001   4.247  3.3021 -1.6973  1.1175
  136OSM   H10T14695   0.737   1.154   4.150  0.3814  0.4371 -0.4368
  136OSM   C11S14696   0.944   1.141   4.246  0.4496  0.6948  0.5131
  136OSM   H11S14697   1.009   1.182   4.166  0.2514 -0.3979 -0.2249
  136OSM   H11T14698   0.993   1.053   4.292 -1.0125  0.1876  1.1888
  136OSM   C12S14699   0.906   1.234   4.362  0.5554  0.3680 -0.2206
  136OSM   H12S14700   0.880   1.172   4.450  2.6696 -0.4978 -0.1375
  136OSM   H12T14701   0.822   1.297   4.327 -0.4046 -0.4235  0.6157
  136OSM   C13S14702   1.018   1.318   4.410 -0.1178  0.3288 -0.5752
  136OSM   H13S14703   1.054   1.380   4.325  0.5996  0.2980 -0.2945
  136OSM   H13T14704   1.110   1.268   4.447 -0.3244  1.2152  1.2444
  136OSM   C14S14705   0.997   1.409   4.532  0.5309  1.1681 -0.2489
  136OSM   H14S14706   0.910   1.475   4.512 -1.9750 -1.9518 -0.3115
  136OSM   H14T14707   1.085   1.474   4.551  0.6032  0.9315  0.2447
  136OSM   C15S14708   0.991   1.318   4.658  0.2317 -0.2245  0.3342
  136OSM   H15S14709   1.067   1.362   4.727  0.7842  0.6273 -0.7951
  136OSM   H15T14710   1.013   1.211   4.638 -0.5809 -0.4366  0.5582
  136OSM   C16S14711   0.862   1.334   4.741  0.3598 -0.2192 -0.7171
  136OSM   H16S14712   0.865   1.270   4.831 -1.5458  1.4821  0.6583
  136OSM   H16T14713   0.795   1.281   4.669  2.7313 -1.5653 -2.0759
  136OSM   C17S14714   0.821   1.474   4.786  0.5645  0.0280 -0.1789
  136OSM   H17S14715   0.821   1.531   4.691 -0.0440  1.1959  0.4943
  136OSM   H17T14716   0.903   1.505   4.855  0.9869 -1.9325  0.2584
  136OSM   C18S14717   0.693   1.502   4.859 -0.0065  0.1736  0.0306
  136OSM   H18S14718   0.698   1.595   4.919 -1.6143  1.1675 -1.2751
  136OSM   H18T14719   0.676   1.423   4.934 -0.3546 -0.0691 -0.2939
  136OSM   H18U14720   0.606   1.496   4.789  1.2600 -1.3333 -1.4955
  136OSM    C1F14721   0.895   0.687   3.271  0.3740 -1.1250  0.2746
  136OSM     OF14722   0.922   0.790   3.209  0.4944  1.1485 -0.3289
  136OSM    C2F14723   0.991   0.569   3.279 -0.1111  0.0245  0.3755
  136OSM    H2F14724   1.073   0.589   3.207  1.8316 -0.4813  2.3321
  136OSM    H2G14725   0.935   0.475   3.256  0.9427 -1.6702  3.9578
  136OSM    C3F14726   1.075   0.560   3.408  0.1376 -0.5483 -0.3478
  136OSM    H3F14727   1.145   0.646   3.412 -0.9506  0.4157 -1.1389
  136OSM    H3G14728   1.135   0.467   3.411 -1.2005 -1.3966  1.5703
  136OSM    C4F14729   0.988   0.555   3.533 -0.1986  0.0379 -0.4130
  136OSM    H4F14730   0.929   0.461   3.545 -0.4696  0.4818  2.4550
  136OSM    H4G14731   0.920   0.642   3.542  0.4452  0.3473  2.8491
  136OSM    C5F14732   1.084   0.561   3.658  0.3370 -0.1767  0.8963
  136OSM    H5F14733   1.152   0.648   3.669 -0.7503  0.6136  1.6644
  136OSM    H5G14734   1.155   0.477   3.648  1.3994  0.5751  1.8941
  136OSM    C6F14735   0.996   0.558   3.787  0.2320  0.1661 -0.0286
  136OSM    H6F14736   0.917   0.483   3.765  1.8509 -0.7800 -3.2711
  136OSM    H6G14737   0.940   0.652   3.805 -2.3641 -0.8036 -2.2421
  136OSM    C7F14738   1.069   0.518   3.919  0.0174 -0.4603  0.4343
  136OSM    H7F14739   1.128   0.603   3.956  0.4301  0.2306 -1.6681
  136OSM    H7G14740   1.150   0.446   3.896 -0.7288 -1.7248  1.5899
  136OSM    C8F14741   0.981   0.455   4.027 -0.5924  0.2838 -0.9939
  136OSM    H8F14742   0.956   0.350   3.999  0.6699  0.1211 -1.5813
  136OSM    H8G14743   0.888   0.515   4.040 -0.3948  0.1681  1.3661
  136OSM    C9F14744   1.041   0.439   4.165 -0.8471  0.0452 -1.0031
  136OSM    H9F14745   1.128   0.373   4.174 -0.6450  0.2561 -1.3823
  136OSM   C10F14746   0.984   0.491   4.280 -0.2275  0.5487 -0.7617
  136OSM   H10F14747   1.037   0.464   4.373  1.2456  0.8399 -1.4939
  136OSM   C11F14748   0.858   0.570   4.296  0.4896  0.6418  0.1930
  136OSM   H11F14749   0.809   0.538   4.391  1.0728  0.2090  0.3535
  136OSM   H11G14750   0.781   0.547   4.219 -1.8278 -2.1927  3.1129
  136OSM   C12F14751   0.881   0.720   4.307  0.2634 -0.2208 -0.4986
  136OSM   H12F14752   0.787   0.772   4.333  1.6413  1.1314  2.2821
  136OSM   H12G14753   0.915   0.766   4.212 -1.5923  0.0417 -1.0579
  136OSM   C13F14754   0.974   0.775   4.425 -0.0136 -0.5741 -0.2603
  136OSM   H13F14755   1.031   0.866   4.395 -1.5510 -0.1657 -2.1350
  136OSM   H13G14756   1.064   0.711   4.437  2.0396  1.1297 -4.5065
  136OSM   C14F14757   0.895   0.795   4.553  0.3952  0.0135 -0.4664
  136OSM   H14F14758   0.855   0.701   4.596 -1.3258  0.4844 -0.9523
  136OSM   H14G14759   0.813   0.855   4.507  0.2904  0.3200  0.1066
  136OSM   C15F14760   0.970   0.879   4.657 -0.2624  0.5807  0.1607
  136OSM   H15F14761   0.905   0.912   4.741  0.7450  0.1091  1.1397
  136OSM   H15G14762   1.007   0.974   4.612  2.7113  0.1278  1.4078
  136OSM   C16F14763   1.079   0.798   4.729  0.2066 -0.4838  0.1172
  136OSM   H16F14764   1.156   0.761   4.659 -1.3359 -1.5383 -1.1050
  136OSM   H16G14765   1.027   0.711   4.775  2.6524 -1.3072  1.5153
  136OSM   C17F14766   1.143   0.898   4.822 -0.0177 -0.3138 -0.6100
  136OSM   H17F14767   1.149   0.997   4.773  0.2792  1.0325  1.9661
  136OSM   H17G14768   1.246   0.869   4.853 -1.1635 -1.7267  2.2501
  136OSM   C18F14769   1.067   0.917   4.954  1.0218 -0.8392 -0.6145
  136OSM   H18F14770   1.089   0.844   5.034 -1.8686  0.2391  1.3057
  136OSM   H18G14771   0.961   0.932   4.924  0.1413 -1.8230  1.8021
  136OSM   H18H14772   1.097   1.018   4.989 -2.0822  0.3035 -0.9526
  137OSM      N14773   3.489   3.143   2.230 -0.0545  0.6479  0.0393
  137OSM    C1514774   3.503   3.265   2.147  0.1787  0.1821  0.2314
  137OSM   H15A14775   3.516   3.349   2.214 -0.5518 -0.1255  0.7646
  137OSM   H15B14776   3.416   3.279   2.085  1.0491 -0.8745 -1.2984
  137OSM   H15C14777   3.584   3.245   2.078 -0.1538 -1.2423  0.2271
  137OSM    C1414778   3.501   3.018   2.143 -0.1259  0.5941  0.8725
  137OSM   H14A14779   3.409   2.992   2.093  1.4109 -1.5610 -1.0666
  137OSM   H14B14780   3.513   2.930   2.205 -0.8465  0.2432  0.5268
  137OSM   H14C14781   3.584   3.016   2.073  0.3692  2.6545  1.3225
  137OSM    C1314782   3.612   3.145   2.308 -0.2525 -0.0076  0.7106
  137OSM   H13A14783   3.690   3.096   2.252  1.0913  2.0180  0.7102
  137OSM   H13B14784   3.607   3.101   2.406  1.0034  2.2008  1.8431
  137OSM   H13C14785   3.650   3.244   2.329  0.4664 -0.3081  0.8381
  137OSM    C1214786   3.375   3.147   2.330 -0.5584  0.6373  0.3875
  137OSM   H12A14787   3.378   3.054   2.386 -0.7424  0.7928  0.6547
  137OSM   H12B14788   3.290   3.129   2.267 -1.9619 -0.4891  2.4837
  137OSM    C1114789   3.360   3.263   2.433 -0.2997  0.1354  0.3453
  137OSM   H11A14790   3.250   3.270   2.448 -0.6036 -1.1220 -1.0796
  137OSM   H11B14791   3.394   3.359   2.387 -0.6678  0.2809  0.3726
  137OSM      P14792   3.411   3.134   2.658 -0.2603 -0.4078  0.1244
  137OSM    O1314793   3.406   3.003   2.584 -0.0745 -0.8016 -0.2197
  137OSM    O1414794   3.518   3.151   2.759  0.6491 -0.5081 -0.3880
  137OSM    O1114795   3.267   3.181   2.714  0.4151  0.1852 -0.1908
  137OSM    O1214796   3.441   3.244   2.548  0.2410 -0.3645  0.5443
  137OSM    C1S14797   3.209   3.131   2.832 -0.2030  0.5437 -0.3752
  137OSM    H1S14798   3.289   3.079   2.889  1.1744  3.2218  0.3096
  137OSM    H1T14799   3.133   3.056   2.805  1.4065 -1.4168  0.2531
  137OSM     NF14800   3.122   3.197   3.060  0.4761  0.2649 -0.6962
  137OSM    HNF14801   3.028   3.172   3.086  1.0379  0.8416  2.2066
  137OSM    C2S14802   3.153   3.248   2.924 -0.2969  0.5928  0.4725
  137OSM    H2S14803   3.233   3.324   2.939  0.2089 -0.2107  2.2199
  137OSM    C3S14804   3.033   3.323   2.856  0.9772  0.6499 -0.2001
  137OSM    H3S14805   2.950   3.249   2.865  0.9964  0.1033 -3.3503
  137OSM     O314806   3.036   3.348   2.720 -0.1307 -0.0959  0.8244
  137OSM    HO314807   3.124   3.317   2.698 -0.5321  0.0994 -1.2001
  137OSM    C4S14808   2.987   3.449   2.937 -0.7954  0.5304  0.2391
  137OSM    H4S14809   2.924   3.419   3.022 -1.2231 -2.7788 -1.0973
  137OSM    C5S14810   3.023   3.577   2.911 -0.3661  0.0454  0.1815
  137OSM    H5S14811   3.080   3.599   2.819  0.7422 -1.0959  0.5549
  137OSM    C6S14812   2.987   3.689   2.999 -0.5031  0.0441  0.9761
  137OSM    H6S14813   2.923   3.766   2.950  2.3069 -0.0222 -3.3175
  137OSM    H6T14814   3.077   3.747   3.030 -1.1435  0.0433  3.0290
  137OSM    C7S14815   2.919   3.662   3.132  0.5386  0.4002  0.0321
  137OSM    H7S14816   2.842   3.585   3.111  0.3128  0.4127  0.7726
  137OSM    H7T14817   2.866   3.756   3.157  1.7363  0.7006  1.6109
  137OSM    C8S14818   3.015   3.615   3.247  0.4599  0.2606  0.8966
  137OSM    H8S14819   3.076   3.705   3.270 -0.8616  1.0949  1.2597
  137OSM    H8T14820   3.080   3.530   3.218  0.7176  0.8951 -0.4313
  137OSM    C9S14821   2.938   3.558   3.364  0.1416 -0.6107 -0.3931
  137OSM    H9S14822   3.016   3.549   3.443 -0.7078 -2.2907  0.3095
  137OSM    H9T14823   2.915   3.451   3.344  1.7087 -1.4208  1.7097
  137OSM   C10S14824   2.828   3.652   3.410 -0.3608  0.4992 -0.6093
  137OSM   H10S14825   2.739   3.651   3.344 -3.9698 -0.9034  3.7331
  137OSM   H10T14826   2.864   3.756   3.422  0.0490  0.2791  0.1379
  137OSM   C11S14827   2.772   3.621   3.552 -1.3727 -0.5340  0.2497
  137OSM   H11S14828   2.741   3.712   3.607  1.5791 -0.5046  2.0983
  137OSM   H11T14829   2.848   3.573   3.618 -1.4132 -0.7165  0.1659
  137OSM   C12S14830   2.650   3.529   3.543 -0.1955 -0.2815  0.0162
  137OSM   H12S14831   2.665   3.452   3.464  0.9307  0.6660 -0.7274
  137OSM   H12T14832   2.571   3.591   3.495 -0.5133 -1.3299 -0.8479
  137OSM   C13S14833   2.603   3.478   3.678  0.1593  0.2535  0.0871
  137OSM   H13S14834   2.605   3.557   3.756  3.3356 -1.3734  1.8742
  137OSM   H13T14835   2.676   3.400   3.709 -0.0251 -1.3023 -3.0033
  137OSM   C14S14836   2.455   3.422   3.664 -0.2250 -0.2151  0.4498
  137OSM   H14S14837   2.463   3.325   3.610  1.6895  0.9951 -1.6149
  137OSM   H14T14838   2.402   3.480   3.585 -0.4000 -0.7295  0.1829
  137OSM   C15S14839   2.370   3.418   3.789  0.2666  0.0266  0.6286
  137OSM   H15S14840   2.268   3.386   3.760  0.3578  0.2176  0.0811
  137OSM   H15T14841   2.363   3.525   3.819 -1.8646 -0.1568  0.9111
  137OSM   C16S14842   2.440   3.344   3.909 -0.2170  0.3745  0.4402
  137OSM   H16S14843   2.373   3.373   3.993 -2.5057 -0.2275 -1.0494
  137OSM   H16T14844   2.539   3.387   3.933 -0.2985 -0.2494  2.0021
  137OSM   C17S14845   2.446   3.192   3.905 -0.1016 -0.1053 -0.0264
  137OSM   H17S14846   2.513   3.160   3.821  0.0149 -0.3690  0.1648
  137OSM   H17T14847   2.345   3.154   3.880 -1.7078  2.4453  2.0800
  137OSM   C18S14848   2.485   3.119   4.037 -0.5448  0.0336  0.8015
  137OSM   H18S14849   2.406   3.141   4.111  0.4574  1.2777  1.5449
  137OSM   H18T14850   2.584   3.150   4.077 -0.5417 -1.1632  1.7593
  137OSM   H18U14851   2.491   3.009   4.025  1.5436  0.3110 -1.4198
  137OSM    C1F14852   3.210   3.155   3.152 -0.4882 -0.3778 -0.1997
  137OSM     OF14853   3.326   3.152   3.126 -0.0332 -0.5499  0.1215
  137OSM    C2F14854   3.167   3.120   3.297  0.8273 -0.5698 -0.0130
  137OSM    H2F14855   3.084   3.046   3.296 -0.6011  0.8957  2.0325
  137OSM    H2G14856   3.120   3.207   3.349 -0.7174  0.1855 -2.5016
  137OSM    C3F14857   3.282   3.082   3.392  0.2122 -0.2809  0.8967
  137OSM    H3F14858   3.356   3.164   3.384 -2.2270  2.2858  2.7199
  137OSM    H3G14859   3.317   2.983   3.356 -0.2902 -0.0112 -0.4040
  137OSM    C4F14860   3.227   3.056   3.536 -0.1593 -0.2351  0.4145
  137OSM    H4F14861   3.169   2.962   3.522 -0.7788  0.3204 -0.8889
  137OSM    H4G14862   3.169   3.144   3.569  1.2896 -0.0764  2.8041
  137OSM    C5F14863   3.337   3.020   3.642 -0.3610  0.1923 -0.1287
  137OSM    H5F14864   3.410   3.103   3.651 -0.4131  0.2067  0.1473
  137OSM    H5G14865   3.393   2.928   3.616  0.4941  1.1356 -1.8224
  137OSM    C6F14866   3.280   2.988   3.778  0.5905  0.1332 -0.5379
  137OSM    H6F14867   3.209   2.902   3.774 -0.0165  0.6678 -1.3768
  137OSM    H6G14868   3.218   3.071   3.817  0.7428  0.0833 -0.1843
  137OSM    C7F14869   3.394   2.965   3.876 -0.3582  0.0740  0.1923
  137OSM    H7F14870   3.458   3.056   3.875  1.4625 -1.1367  1.0920
  137OSM    H7G14871   3.453   2.877   3.841 -1.0529  0.1080 -1.1266
  137OSM    C8F14872   3.342   2.926   4.012 -0.5617  0.1870  0.2451
  137OSM    H8F14873   3.272   2.841   3.997 -0.8068 -0.1683  2.8823
  137OSM    H8G14874   3.288   3.013   4.056  0.2558 -0.1153  1.9377
  137OSM    C9F14875   3.442   2.871   4.112  0.2779 -0.3839  0.1819
  137OSM    H9F14876   3.425   2.765   4.137  2.5818 -0.8837 -0.1079
  137OSM   C10F14877   3.540   2.940   4.167  0.8128  0.1153  0.3314
  137OSM   H10F14878   3.601   2.889   4.243  0.6885 -2.3840 -1.1183
  137OSM   C11F14879   3.584   3.082   4.144 -0.0570 -0.4711  0.5915
  137OSM   H11F14880   3.501   3.136   4.094 -0.5122 -0.1299  1.6907
  137OSM   H11G14881   3.669   3.073   4.073 -1.1452 -0.4766 -0.7615
  137OSM   C12F14882   3.621   3.170   4.272 -0.2579  0.1764 -0.2878
  137OSM   H12F14883   3.550   3.151   4.355 -0.2803 -0.2597 -0.4058
  137OSM   H12G14884   3.623   3.279   4.249  0.3553  0.2457  0.0806
  137OSM   C13F14885   3.762   3.143   4.322  1.2293  0.4202  0.1341
  137OSM   H13F14886   3.831   3.121   4.238 -0.6577  0.8579 -1.6063
  137OSM   H13G14887   3.761   3.048   4.379 -0.0869 -1.3509 -2.6818
  137OSM   C14F14888   3.823   3.249   4.415  0.2287  0.6108 -0.1317
  137OSM   H14F14889   3.748   3.263   4.496 -1.0604  3.3997 -1.6849
  137OSM   H14G14890   3.834   3.349   4.368 -2.2630  0.5116 -1.0604
  137OSM   C15F14891   3.959   3.206   4.467 -0.8075 -0.3502 -0.2350
  137OSM   H15F14892   4.043   3.224   4.396 -0.7189  2.1727  0.3943
  137OSM   H15G14893   3.965   3.097   4.483 -1.0325 -0.4534 -0.8266
  137OSM   C16F14894   3.997   3.268   4.603 -0.1485  0.3189 -0.1208
  137OSM   H16F14895   3.913   3.239   4.671 -0.9325  0.2975 -1.0824
  137OSM   H16G14896   4.011   3.375   4.579  2.7524 -0.3603 -1.9021
  137OSM   C17F14897   4.124   3.209   4.670  0.0014  0.6068  0.2194
  137OSM   H17F14898   4.212   3.214   4.603 -0.4473  1.4854 -0.3179
  137OSM   H17G14899   4.099   3.103   4.692  0.2096  0.5018 -0.0508
  137OSM   C18F14900   4.166   3.293   4.792  0.3932  0.1546  0.5819
  137OSM   H18F14901   4.195   3.397   4.770  0.0750  0.3214  0.9293
  137OSM   H18G14902   4.256   3.239   4.830 -0.6721 -3.1180 -1.1012
  137OSM   H18H14903   4.094   3.298   4.877  0.3227  0.9431  0.4752
  138OSM      N14904   3.149   0.898   2.344  0.3373  0.1887  0.1449
  138OSM    C1514905   3.108   0.990   2.453 -0.2020 -0.1663 -0.3607
  138OSM   H15A14906   3.188   1.057   2.480  0.4568 -1.8265  2.0772
  138OSM   H15B14907   3.093   0.938   2.546  1.4836  0.7764  0.4746
  138OSM   H15C14908   3.017   1.045   2.434  0.6962  1.7658  0.6280
  138OSM    C1414909   3.049   0.788   2.342 -0.0345 -0.3305  0.2793
  138OSM   H14A14910   2.970   0.821   2.276 -0.8475 -1.4774  0.6232
  138OSM   H14B14911   3.000   0.771   2.437  0.4556  0.4648  0.6807
  138OSM   H14C14912   3.085   0.693   2.306 -0.0231  0.2246 -1.2349
  138OSM    C1314913   3.143   0.977   2.215 -0.0406 -0.2211  0.1275
  138OSM   H13A14914   3.122   0.914   2.130  1.1279  0.5199 -0.7297
  138OSM   H13B14915   3.239   1.022   2.199  0.5577 -1.4544  0.1680
  138OSM   H13C14916   3.061   1.047   2.219 -0.4250 -0.6994  1.5813
  138OSM    C1214917   3.283   0.834   2.369 -0.3865 -0.1368 -0.3608
  138OSM   H12A14918   3.351   0.916   2.388  0.6306 -1.4248  2.0749
  138OSM   H12B14919   3.318   0.782   2.281 -2.2497  0.0212 -1.2319
  138OSM    C1114920   3.299   0.733   2.490  0.0146 -1.1225 -0.3217
  138OSM   H11A14921   3.246   0.777   2.577  0.3060  0.1474 -0.7738
  138OSM   H11B14922   3.407   0.720   2.515 -0.0207 -0.2177  0.3650
  138OSM      P14923   3.237   0.483   2.554  0.2730  0.0669  0.0247
  138OSM    O1314924   3.104   0.423   2.551 -0.0896  0.2788  0.5363
  138OSM    O1414925   3.350   0.389   2.530  0.2038 -0.2665 -0.0960
  138OSM    O1114926   3.262   0.549   2.702  0.6334 -0.6306 -0.6003
  138OSM    O1214927   3.244   0.609   2.457  0.2224 -0.4345 -0.0729
  138OSM    C1S14928   3.249   0.466   2.826  0.4022  0.0056 -0.0581
  138OSM    H1S14929   3.328   0.390   2.843 -2.7998 -3.1130  2.3784
  138OSM    H1T14930   3.148   0.419   2.826 -1.0043  2.7783  0.7120
  138OSM     NF14931   3.247   0.461   3.065  0.1187 -0.3515 -0.4124
  138OSM    HNF14932   3.159   0.450   3.110 -0.5944  1.0041 -1.3762
  138OSM    C2S14933   3.253   0.551   2.950  0.7576  0.3688  0.2044
  138OSM    H2S14934   3.353   0.599   2.957  1.0335 -0.1727 -0.0548
  138OSM    C3S14935   3.153   0.672   2.953 -0.4059  0.1347 -0.3938
  138OSM    H3S14936   3.052   0.627   2.958 -0.0287 -1.0355 -2.2590
  138OSM     O314937   3.159   0.753   2.834  0.1322  0.3975  0.0654
  138OSM    HO314938   3.234   0.719   2.784 -0.5100  1.0925 -1.4227
  138OSM    C4S14939   3.167   0.765   3.077  0.2455  0.2553 -0.3044
  138OSM    H4S14940   3.100   0.734   3.159 -0.6673 -0.3666 -1.2534
  138OSM    C5S14941   3.247   0.870   3.095 -0.7811 -0.0397 -0.1450
  138OSM    H5S14942   3.312   0.909   3.016 -2.7475  0.6741 -1.5129
  138OSM    C6S14943   3.254   0.953   3.220 -0.7842 -0.2836 -0.2455
  138OSM    H6S14944   3.185   1.039   3.234  0.8064  0.9429  0.3648
  138OSM    H6T14945   3.358   0.986   3.241 -0.2973 -1.7499 -0.2267
  138OSM    C7S14946   3.222   0.869   3.341 -0.6540 -0.2634 -0.7233
  138OSM    H7S14947   3.291   0.782   3.348  1.0916  1.0853 -0.4898
  138OSM    H7T14948   3.123   0.818   3.341 -0.5690 -1.0369  4.7551
  138OSM    C8S14949   3.241   0.942   3.471  0.3211  0.4851 -0.0634
  138OSM    H8S14950   3.182   1.036   3.473 -3.7535 -1.8416  1.2607
  138OSM    H8T14951   3.346   0.979   3.472 -0.1779  2.0702 -1.6768
  138OSM    C9S14952   3.222   0.853   3.591 -1.4022  0.6648  0.2402
  138OSM    H9S14953   3.291   0.766   3.580 -0.5655  1.3773 -0.3513
  138OSM    H9T14954   3.116   0.822   3.602 -2.3904  4.0461  1.5767
  138OSM   C10S14955   3.268   0.927   3.722  0.0500  0.9142  0.3374
  138OSM   H10S14956   3.241   1.034   3.710  1.1269  1.1638 -0.0532
  138OSM   H10T14957   3.379   0.925   3.712 -0.0127 -1.8986 -0.7651
  138OSM   C11S14958   3.230   0.864   3.853  0.3009 -0.5991  0.2069
  138OSM   H11S14959   3.253   0.755   3.860  0.6841 -0.5451 -0.2060
  138OSM   H11T14960   3.119   0.863   3.861  0.3204 -0.5316  0.4918
  138OSM   C12S14961   3.288   0.932   3.980  0.3663 -0.2477 -0.0557
  138OSM   H12S14962   3.264   1.041   3.984  0.1288 -0.2579 -1.0777
  138OSM   H12T14963   3.398   0.919   3.989  0.1155 -3.4077 -0.5942
  138OSM   C13S14964   3.211   0.858   4.091 -0.5961  0.7575  0.4882
  138OSM   H13S14965   3.250   0.755   4.103 -0.6134  0.7698  0.6463
  138OSM   H13T14966   3.106   0.842   4.056  0.9624 -1.1615 -4.0551
  138OSM   C14S14967   3.233   0.924   4.226 -0.2148 -0.9356 -0.9142
  138OSM   H14S14968   3.188   1.025   4.224 -2.0283 -1.5932  1.4842
  138OSM   H14T14969   3.341   0.935   4.253 -0.5412  1.5418 -0.3456
  138OSM   C15S14970   3.174   0.844   4.347  0.5891 -0.4458  0.3031
  138OSM   H15S14971   3.250   0.816   4.422  0.7302 -1.6333 -0.2649
  138OSM   H15T14972   3.132   0.750   4.306  1.2503 -0.5283 -0.1946
  138OSM   C16S14973   3.065   0.930   4.412 -0.2915 -0.3523 -0.4315
  138OSM   H16S14974   2.987   0.961   4.339  0.2431  2.0262 -0.0990
  138OSM   H16T14975   3.109   1.027   4.444  0.8361 -1.6469  2.2495
  138OSM   C17S14976   2.984   0.875   4.527  0.2686 -0.5293  0.3055
  138OSM   H17S14977   2.963   0.768   4.511  3.5830 -1.2591 -0.0341
  138OSM   H17T14978   2.893   0.936   4.544  0.6850 -0.3662  2.1786
  138OSM   C18S14979   3.063   0.869   4.658  0.3568 -0.6060 -0.6458
  138OSM   H18S14980   2.994   0.848   4.742  1.0008  1.0344  0.3330
  138OSM   H18T14981   3.089   0.976   4.670 -0.0959 -0.5738  0.0661
  138OSM   H18U14982   3.152   0.801   4.659  1.2612  0.5498  0.3603
  138OSM    C1F14983   3.347   0.388   3.104 -0.4284 -0.7187 -0.1708
  138OSM     OF14984   3.457   0.402   3.052  0.4641 -0.3230 -0.2452
  138OSM    C2F14985   3.321   0.292   3.210  0.1723 -0.2962 -0.5357
  138OSM    H2F14986   3.241   0.222   3.177  1.5360 -0.9682 -2.6223
  138OSM    H2G14987   3.266   0.346   3.290 -2.4185 -0.9515 -1.7394
  138OSM    C3F14988   3.453   0.228   3.258  0.1890 -0.1797 -0.1631
  138OSM    H3F14989   3.520   0.311   3.288 -0.2133  0.4664 -0.9968
  138OSM    H3G14990   3.499   0.180   3.168 -0.4866  1.0962 -1.2288
  138OSM    C4F14991   3.439   0.113   3.354  0.1434 -0.2538  0.6530
  138OSM    H4F14992   3.536   0.065   3.381 -0.9547 -2.2537  1.2501
  138OSM    H4G14993   3.364   0.041   3.315 -0.9769  1.6435 -0.8703
  138OSM    C5F14994   3.393   0.155   3.492  0.2444 -0.1499 -0.8431
  138OSM    H5F14995   3.290   0.196   3.477  0.3374  0.2640 -0.3871
  138OSM    H5G14996   3.451   0.237   3.538 -1.4489  0.1827  0.8359
  138OSM    C6F14997   3.384   0.041   3.594 -1.1495  0.2345  0.7770
  138OSM    H6F14998   3.493   0.025   3.609 -1.1507  0.0546  0.5846
  138OSM    H6G14999   3.339  -0.051   3.551 -1.0006 -0.1052  1.3352
  138OSM    C7F15000   3.314   0.091   3.717 -0.0711 -0.0312  0.1374
  138OSM    H7F15001   3.229   0.155   3.685 -0.8468 -0.5485  1.1045
  138OSM    H7G15002   3.383   0.161   3.769 -1.2840  2.7142 -1.7088
  138OSM    C8F15003   3.276  -0.029   3.796  0.1779  0.4894  0.0379
  138OSM    H8F15004   3.365  -0.092   3.818  0.6814  1.3741  0.6043
  138OSM    H8G15005   3.188  -0.074   3.746  1.0352 -0.4335 -0.6964
  138OSM    C9F15006   3.218   0.011   3.929  0.0331 -0.6550  0.7735
  138OSM    H9F15007   3.108   0.010   3.939 -0.2241 -0.1317 -1.4209
  138OSM   C10F15008   3.291   0.025   4.037  0.1470 -0.0276  0.1171
  138OSM   H10F15009   3.241   0.054   4.131 -0.0385 -1.5050  0.5134
  138OSM   C11F15010   3.440   0.002   4.061 -0.1642 -0.2417  0.8595
  138OSM   H11F15011   3.489  -0.044   3.973 -0.0085  1.4644  0.0070
  138OSM   H11G15012   3.465  -0.078   4.135  0.1087 -1.2450 -0.2901
  138OSM   C12F15013   3.518   0.128   4.102 -0.5991 -0.6498  0.4825
  138OSM   H12F15014   3.491   0.211   4.033 -2.0475 -0.4909  1.2013
  138OSM   H12G15015   3.620   0.098   4.069 -0.9644  0.0095 -1.4016
  138OSM   C13F15016   3.495   0.176   4.242 -0.0998  0.8228  0.0325
  138OSM   H13F15017   3.406   0.241   4.251 -0.5059  0.1019  1.6058
  138OSM   H13G15018   3.577   0.243   4.274  0.9221  0.2320 -1.2537
  138OSM   C14F15019   3.484   0.060   4.346 -0.3556 -0.0738  0.3023
  138OSM   H14F15020   3.565  -0.016   4.347  0.2454  0.5204 -0.6738
  138OSM   H14G15021   3.386   0.008   4.341 -1.1347  1.3242  0.6071
  138OSM   C15F15022   3.482   0.125   4.488 -0.0316  0.3248  0.1700
  138OSM   H15F15023   3.394   0.193   4.491  0.9568  1.6063  0.7920
  138OSM   H15G15024   3.577   0.182   4.487  1.8020 -2.4853 -1.3212
  138OSM   C16F15025   3.457   0.028   4.609  0.0620 -0.5915  0.1594
  138OSM   H16F15026   3.536  -0.050   4.607  0.5862 -0.0437 -1.1616
  138OSM   H16G15027   3.363  -0.030   4.601 -0.6315  0.2632  1.5884
  138OSM   C17F15028   3.445   0.101   4.737 -0.4286  0.3844 -0.3651
  138OSM   H17F15029   3.537   0.158   4.762  1.1571 -0.9414 -2.7686
  138OSM   H17G15030   3.429   0.024   4.816  0.0322 -0.1431 -0.7773
  138OSM   C18F15031   3.331   0.200   4.740  0.3512  0.0241 -0.3238
  138OSM   H18F15032   3.350   0.304   4.705 -1.6085  0.6283  0.3008
  138OSM   H18G15033   3.287   0.205   4.842 -1.8558  0.4138 -1.2386
  138OSM   H18H15034   3.249   0.159   4.678  0.4275  0.1963 -0.5404
  139OSM      N15035   3.642   4.249   2.537  0.7898  0.5904  0.7829
  139OSM    C1515036   3.495   4.222   2.546 -0.1003 -0.6261  0.3911
  139OSM   H15A15037   3.474   4.133   2.603 -0.6785 -0.5497  0.3046
  139OSM   H15B15038   3.455   4.210   2.446 -2.6312 -3.1105  1.5560
  139OSM   H15C15039   3.442   4.308   2.585  1.1207  1.5939 -2.4954
  139OSM    C1415040   3.712   4.139   2.461  0.0162  0.0834 -0.0148
  139OSM   H14A15041   3.819   4.155   2.457  0.3166 -1.6817  0.4013
  139OSM   H14B15042   3.667   4.131   2.363 -0.3784  0.1928  0.1548
  139OSM   H14C15043   3.696   4.052   2.522 -0.2370 -0.7236 -1.1936
  139OSM    C1315044   3.674   4.371   2.461  0.2235 -0.5986 -0.2849
  139OSM   H13A15045   3.645   4.365   2.358  0.6600 -0.9806 -0.3913
  139OSM   H13B15046   3.779   4.398   2.469  0.7335 -2.0757 -1.4616
  139OSM   H13C15047   3.628   4.460   2.501  0.1934 -0.4710 -0.6043
  139OSM    C1215048   3.698   4.253   2.671 -0.2414  0.1551  0.8455
  139OSM   H12A15049   3.662   4.341   2.722 -0.3180  0.9638 -0.5659
  139OSM   H12B15050   3.804   4.273   2.662  0.2308 -1.6061  1.9299
  139OSM    C1115051   3.680   4.123   2.760  0.0990 -1.0867 -0.0677
  139OSM   H11A15052   3.571   4.123   2.781 -0.2184 -0.3873 -1.6041
  139OSM   H11B15053   3.707   4.149   2.865 -2.9706 -1.6327  0.9583
  139OSM      P15054   3.867   3.954   2.774  0.8186 -0.1189 -0.4412
  139OSM    O1315055   3.888   3.808   2.756  0.0598 -0.3088 -0.3790
  139OSM    O1415056   3.974   4.053   2.734  0.3216  0.1345  0.5639
  139OSM    O1115057   3.825   3.973   2.928  0.6919 -0.4282  0.5224
  139OSM    O1215058   3.720   4.000   2.710  0.1646  0.7903  0.0661
  139OSM    C1S15059   3.733   3.892   2.991 -0.1443 -0.5042 -0.2459
  139OSM    H1S15060   3.745   3.784   2.968 -3.9747 -1.0656 -0.2105
  139OSM    H1T15061   3.641   3.920   2.936  0.2454  0.6468 -0.3357
  139OSM     NF15062   3.574   3.862   3.178 -0.7983  0.1994 -0.3971
  139OSM    HNF15063   3.500   3.918   3.144 -0.8894  0.2939 -0.0391
  139OSM    C2S15064   3.704   3.919   3.142  0.2804  0.3090  0.8659
  139OSM    H2S15065   3.784   3.857   3.188  1.3592  0.8663 -0.2061
  139OSM    C3S15066   3.722   4.064   3.190  0.6728 -0.3578 -0.0211
  139OSM    H3S15067   3.647   4.139   3.157  1.3145 -0.3984 -1.6124
  139OSM     O315068   3.848   4.118   3.147  0.5297 -0.2873 -0.1987
  139OSM    HO315069   3.854   4.075   3.061  0.7911 -2.3009  0.7839
  139OSM    C4S15070   3.713   4.051   3.338  0.1618 -0.4362 -0.3244
  139OSM    H4S15071   3.795   3.994   3.384  1.5168  0.4096 -1.5790
  139OSM    C5S15072   3.610   4.095   3.416 -0.3438 -0.5374  0.2884
  139OSM    H5S15073   3.523   4.131   3.360 -0.0047  0.3990  0.3389
  139OSM    C6S15074   3.589   4.073   3.561  0.4382  1.1698 -0.6396
  139OSM    H6S15075   3.479   4.067   3.577  0.4188  1.1723 -0.7777
  139OSM    H6T15076   3.630   4.159   3.618  0.6471  0.1544  0.8100
  139OSM    C7S15077   3.659   3.948   3.616 -1.2849  0.2120 -0.4780
  139OSM    H7S15078   3.770   3.949   3.623 -0.9891  3.8859 -2.9222
  139OSM    H7T15079   3.630   3.863   3.551 -1.0957 -2.0890  2.2396
  139OSM    C8S15080   3.603   3.916   3.756 -0.0636  0.3570 -0.2872
  139OSM    H8S15081   3.642   3.818   3.792 -0.8566  0.8804  2.2116
  139OSM    H8T15082   3.493   3.906   3.762  0.1891 -3.0152  2.2040
  139OSM    C9S15083   3.651   4.013   3.868 -0.0036 -0.0392  0.0232
  139OSM    H9S15084   3.625   4.118   3.843  0.2158  0.6554  2.4745
  139OSM    H9T15085   3.762   4.007   3.878  0.0873  2.4482  1.2433
  139OSM   C10S15086   3.595   3.978   4.006 -0.4700 -0.8075  0.0339
  139OSM   H10S15087   3.610   3.869   4.022  1.1214 -0.4015  1.5849
  139OSM   H10T15088   3.484   3.986   4.014 -0.5766 -1.6214 -0.4792
  139OSM   C11S15089   3.681   4.055   4.110  0.0716 -0.0639 -0.7636
  139OSM   H11S15090   3.670   4.164   4.097 -1.2215  0.1077  1.3052
  139OSM   H11T15091   3.789   4.029   4.108 -0.0715 -1.1588 -4.7754
  139OSM   C12S15092   3.640   4.034   4.258  0.3555  0.2687  0.2253
  139OSM   H12S15093   3.712   4.097   4.314  1.6843 -0.4404 -0.6292
  139OSM   H12T15094   3.657   3.932   4.299  3.7078  0.3607 -0.6441
  139OSM   C13S15095   3.502   4.104   4.295 -0.2686  0.0872  0.0731
  139OSM   H13S15096   3.426   4.047   4.238 -1.3595  1.8370 -0.2592
  139OSM   H13T15097   3.512   4.209   4.262  1.0256  0.2397  0.8728
  139OSM   C14S15098   3.463   4.093   4.446 -0.0409  0.1556 -0.7637
  139OSM   H14S15099   3.470   3.986   4.475 -1.7932 -0.0924 -1.1611
  139OSM   H14T15100   3.357   4.123   4.457 -0.1286 -0.0118 -1.1284
  139OSM   C15S15101   3.544   4.175   4.548 -0.4276  0.3713 -0.2155
  139OSM   H15S15102   3.537   4.285   4.537  3.7295  0.7047 -1.0391
  139OSM   H15T15103   3.652   4.157   4.530 -0.1680  1.8798 -0.2361
  139OSM   C16S15104   3.513   4.130   4.694 -0.3016 -0.1717 -0.1996
  139OSM   H16S15105   3.517   4.019   4.695 -0.6102 -0.2585 -2.4435
  139OSM   H16T15106   3.409   4.160   4.717 -0.3405  0.4798 -1.1462
  139OSM   C17S15107   3.606   4.188   4.799  0.4857 -0.6177  0.0695
  139OSM   H17S15108   3.702   4.134   4.784  0.8995 -0.4646  1.8497
  139OSM   H17T15109   3.571   4.161   4.902 -0.3534  0.7270  0.1583
  139OSM   C18S15110   3.626   4.339   4.792 -0.0461  0.2523  0.0757
  139OSM   H18S15111   3.662   4.374   4.692  0.8572 -0.8402  0.0021
  139OSM   H18T15112   3.696   4.381   4.867 -2.4437  3.2882  0.8147
  139OSM   H18U15113   3.526   4.385   4.809  0.0512  0.9289 -1.0754
  139OSM    C1F15114   3.555   3.732   3.167  0.1094  0.7388  0.0679
  139OSM     OF15115   3.651   3.655   3.153  0.0198 -0.2868  0.8898
  139OSM    C2F15116   3.420   3.689   3.148  0.0719  0.0821  0.2751
  139OSM    H2F15117   3.397   3.687   3.040 -1.4091  1.2674  0.5319
  139OSM    H2G15118   3.354   3.764   3.197  0.1564  2.3576 -2.8097
  139OSM    C3F15119   3.390   3.555   3.211  0.6966 -0.2975  0.2756
  139OSM    H3F15120   3.461   3.482   3.166  0.5701  0.4834 -1.2536
  139OSM    H3G15121   3.286   3.525   3.185  0.3970  0.8815  0.0619
  139OSM    C4F15122   3.415   3.554   3.367  0.1136  0.2449  0.4698
  139OSM    H4F15123   3.351   3.634   3.412 -0.1456 -0.5868  1.6125
  139OSM    H4G15124   3.522   3.561   3.394  0.3789  1.7197 -0.7700
  139OSM    C5F15125   3.367   3.424   3.428  0.1887 -0.0570 -0.4068
  139OSM    H5F15126   3.442   3.350   3.394  0.9568  0.8501 -0.7547
  139OSM    H5G15127   3.274   3.415   3.367  0.0173  4.9769 -1.3539
  139OSM    C6F15128   3.343   3.429   3.579  0.2757 -0.1731  0.3894
  139OSM    H6F15129   3.277   3.345   3.608 -0.6765  0.3858 -0.1438
  139OSM    H6G15130   3.279   3.512   3.614 -1.2995 -0.8919 -0.6827
  139OSM    C7F15131   3.474   3.409   3.659 -0.0597  0.5435 -0.0799
  139OSM    H7F15132   3.524   3.507   3.640 -0.2227  0.1414 -3.1778
  139OSM    H7G15133   3.531   3.336   3.598  0.1077  1.8846 -1.5923
  139OSM    C8F15134   3.453   3.372   3.802  0.5041  0.3416 -0.0301
  139OSM    H8F15135   3.368   3.301   3.816  0.0869  1.0720  1.3584
  139OSM    H8G15136   3.403   3.458   3.853 -0.2422 -0.9182  1.4399
  139OSM    C9F15137   3.569   3.327   3.882 -0.1133  1.1395 -0.1875
  139OSM    H9F15138   3.613   3.232   3.850 -1.0780  0.8104 -0.5731
  139OSM   C10F15139   3.618   3.393   3.980  0.4275 -0.9228 -0.4201
  139OSM   H10F15140   3.695   3.341   4.039 -1.2050 -3.0022  0.0024
  139OSM   C11F15141   3.569   3.531   4.028 -0.6578 -0.7836  0.3126
  139OSM   H11F15142   3.515   3.603   3.963  1.1234  1.5526  1.2905
  139OSM   H11G15143   3.649   3.597   4.067 -1.9695  1.5363 -0.7376
  139OSM   C12F15144   3.480   3.529   4.155  0.1909  0.7011 -0.3147
  139OSM   H12F15145   3.538   3.490   4.241  1.9180  0.5288 -1.5078
  139OSM   H12G15146   3.394   3.465   4.127  0.1439  0.9993 -0.8865
  139OSM   C13F15147   3.423   3.665   4.204 -0.3012 -0.3276  0.1067
  139OSM   H13F15148   3.373   3.712   4.117  1.2148  0.9495 -0.1206
  139OSM   H13G15149   3.498   3.738   4.242 -2.0931  1.7199 -0.1017
  139OSM   C14F15150   3.302   3.646   4.303  0.3184  0.3287 -0.3024
  139OSM   H14F15151   3.341   3.582   4.386 -1.5635 -0.0844  0.3105
  139OSM   H14G15152   3.233   3.581   4.245  0.3994 -1.5585  1.5855
  139OSM   C15F15153   3.248   3.778   4.349 -0.1360  0.1297  1.1327
  139OSM   H15F15154   3.237   3.842   4.259  1.1763 -1.8901 -0.5626
  139OSM   H15G15155   3.317   3.832   4.417  0.0397  1.8857 -0.3728
  139OSM   C16F15156   3.111   3.758   4.415  0.0821 -0.3806  0.7969
  139OSM   H16F15157   3.060   3.684   4.352  0.6158  0.4517 -0.6655
  139OSM   H16G15158   3.062   3.858   4.416 -1.7179 -1.2242  0.0272
  139OSM   C17F15159   3.119   3.700   4.562  0.4282  0.3193 -0.0824
  139OSM   H17F15160   3.201   3.625   4.562  0.1201 -0.0196  0.2453
  139OSM   H17G15161   3.023   3.656   4.597  0.0150  1.0475 -0.2761
  139OSM   C18F15162   3.145   3.810   4.662  0.2341 -0.9065  0.5765
  139OSM   H18F15163   3.227   3.878   4.630  1.5806 -4.3197 -4.5468
  139OSM   H18G15164   3.174   3.764   4.758  1.1298 -1.6606 -0.0349
  139OSM   H18H15165   3.057   3.876   4.676  2.0272  1.7074  0.2801
  140OSM      N15166   3.776   0.262   2.330 -0.0518  0.2536  0.0488
  140OSM    C1515167   3.883   0.252   2.431 -0.6554 -0.1951 -0.0117
  140OSM   H15A15168   3.929   0.348   2.448 -0.1487  0.3449 -3.6467
  140OSM   H15B15169   3.958   0.181   2.402  0.8300 -0.2392  3.4247
  140OSM   H15C15170   3.855   0.203   2.524 -2.5170 -0.2723 -0.5605
  140OSM    C1415171   3.827   0.279   2.189 -0.1000  0.1100  0.1320
  140OSM   H14A15172   3.896   0.362   2.176  0.5011 -0.4099 -0.0596
  140OSM   H14B15173   3.744   0.296   2.122  0.9167 -1.0872 -1.5324
  140OSM   H14C15174   3.869   0.183   2.162  3.2843  0.3363  3.6797
  140OSM    C1315175   3.693   0.138   2.336 -0.5723 -0.2632 -0.3488
  140OSM   H13A15176   3.744   0.047   2.307 -3.0470 -1.2192 -2.0295
  140OSM   H13B15177   3.604   0.128   2.275  1.1425  2.1525 -3.5313
  140OSM   H13C15178   3.669   0.111   2.438  1.0096 -1.8526 -0.3590
  140OSM    C1215179   3.682   0.384   2.363 -0.4621  0.5770 -0.1751
  140OSM   H12A15180   3.651   0.380   2.466 -1.5998 -3.5596 -0.4772
  140OSM   H12B15181   3.589   0.368   2.310 -0.0919 -1.7376 -0.2707
  140OSM    C1115182   3.739   0.524   2.336  0.5248 -0.2921  0.0570
  140OSM   H11A15183   3.676   0.613   2.355  1.7994  0.6978 -0.2306
  140OSM   H11B15184   3.771   0.528   2.229 -1.3450  0.7848 -0.5162
  140OSM      P15185   3.863   0.630   2.552  0.1213  0.2403 -0.0756
  140OSM    O1315186   3.973   0.575   2.636  0.8288 -0.0975 -0.1817
  140OSM    O1415187   3.884   0.773   2.519  0.0888  0.2613  0.1947
  140OSM    O1115188   3.715   0.609   2.610 -0.4411  0.0495 -0.1225
  140OSM    O1215189   3.856   0.551   2.415  0.3635  0.0455  0.1314
  140OSM    C1S15190   3.691   0.505   2.705  0.8917 -0.4067  0.3744
  140OSM    H1S15191   3.750   0.412   2.694  1.5519 -0.0512  0.8099
  140OSM    H1T15192   3.586   0.470   2.715  0.7389  0.3864  1.8533
  140OSM     NF15193   3.716   0.428   2.938 -0.3493 -0.3189 -0.2098
  140OSM    HNF15194   3.629   0.423   2.985 -0.4709  1.6740 -0.1538
  140OSM    C2S15195   3.723   0.549   2.850  0.0061 -0.3409  0.1001
  140OSM    H2S15196   3.828   0.586   2.847  0.0157 -0.3415  0.4047
  140OSM    C3S15197   3.637   0.677   2.900 -0.3972  0.2168 -1.1164
  140OSM    H3S15198   3.532   0.642   2.894 -0.7909  0.3349  2.6993
  140OSM     O315199   3.651   0.782   2.807  0.4044 -0.0127  0.2680
  140OSM    HO315200   3.665   0.724   2.732 -0.9418 -0.4872  0.3370
  140OSM    C4S15201   3.670   0.724   3.035 -0.5451 -0.4897  0.6027
  140OSM    H4S15202   3.775   0.756   3.048 -0.2389 -1.2617  0.1057
  140OSM    C5S15203   3.594   0.713   3.142 -0.5853 -0.3245  0.1689
  140OSM    H5S15204   3.488   0.689   3.126 -0.5014  0.7145 -2.5184
  140OSM    C6S15205   3.644   0.754   3.276  0.8362  0.0712  0.2781
  140OSM    H6S15206   3.600   0.855   3.294  0.0651  0.6258 -3.7969
  140OSM    H6T15207   3.755   0.755   3.286  0.9202 -3.0816  0.6951
  140OSM    C7S15208   3.580   0.663   3.384 -0.5421  0.5129 -0.2376
  140OSM    H7S15209   3.637   0.569   3.369  2.4859  2.0695  0.7320
  140OSM    H7T15210   3.472   0.651   3.360 -0.0387  0.9308 -2.9713
  140OSM    C8S15211   3.599   0.713   3.529 -0.4978  0.8118  0.1402
  140OSM    H8S15212   3.530   0.800   3.537 -2.0791 -0.2926 -0.8997
  140OSM    H8T15213   3.706   0.743   3.541 -0.3328  0.0117  0.7400
  140OSM    C9S15214   3.569   0.615   3.633 -0.2931 -0.7794 -0.1144
  140OSM    H9S15215   3.606   0.512   3.616 -0.3302 -0.5740 -1.5347
  140OSM    H9T15216   3.459   0.601   3.621 -0.7773  2.0953  0.3907
  140OSM   C10S15217   3.619   0.661   3.765  0.5325 -0.7070 -0.2086
  140OSM   H10S15218   3.583   0.765   3.782  2.3816 -0.3221  2.0306
  140OSM   H10T15219   3.729   0.647   3.773  0.1975 -2.5463  3.1811
  140OSM   C11S15220   3.548   0.576   3.870 -0.6142  0.2180  0.3312
  140OSM   H11S15221   3.570   0.467   3.874 -2.5000 -0.4819 -3.4858
  140OSM   H11T15222   3.438   0.584   3.860 -1.0890 -1.9547  2.7735
  140OSM   C12S15223   3.570   0.643   4.006 -0.0364 -0.2380 -0.1607
  140OSM   H12S15224   3.530   0.746   3.997 -0.1019 -0.1312  1.2134
  140OSM   H12T15225   3.678   0.647   4.031  0.3882 -2.4240 -1.3291
  140OSM   C13S15226   3.495   0.562   4.111  0.1865 -0.0640 -0.2174
  140OSM   H13S15227   3.535   0.458   4.110  0.4396  0.0339 -0.2684
  140OSM   H13T15228   3.385   0.561   4.098 -0.0130 -2.3385  1.0375
  140OSM   C14S15229   3.518   0.628   4.247  0.0680  0.1646  0.2646
  140OSM   H14S15230   3.475   0.730   4.246 -0.9290 -0.1817  2.2662
  140OSM   H14T15231   3.625   0.650   4.267 -0.3778  2.9599 -0.0563
  140OSM   C15S15232   3.462   0.536   4.353 -0.0614 -0.3314  0.5049
  140OSM   H15S15233   3.525   0.444   4.357 -1.1462 -1.0827  1.1244
  140OSM   H15T15234   3.358   0.504   4.330  0.1490 -3.2357  2.8852
  140OSM   C16S15235   3.459   0.610   4.491  0.0647  0.9729 -0.0666
  140OSM   H16S15236   3.375   0.566   4.549 -0.4194 -2.4249 -2.9895
  140OSM   H16T15237   3.442   0.719   4.478  3.3936  1.9842  2.5201
  140OSM   C17S15238   3.582   0.576   4.578 -0.4311  0.0396  0.2974
  140OSM   H17S15239   3.669   0.614   4.521 -0.5131 -2.1612 -1.4154
  140OSM   H17T15240   3.587   0.465   4.574 -0.2593  0.0519  0.1863
  140OSM   C18S15241   3.580   0.618   4.727  0.2089  0.4065 -0.2426
  140OSM   H18S15242   3.558   0.727   4.729 -0.8140  0.2171 -0.5613
  140OSM   H18T15243   3.683   0.617   4.768  0.2551  1.1822 -0.3237
  140OSM   H18U15244   3.510   0.557   4.788 -0.4483 -1.9132 -3.0677
  140OSM    C1F15245   3.803   0.328   2.947 -0.1063 -1.1005  0.0107
  140OSM     OF15246   3.892   0.318   2.864  0.0921  0.2175  0.0930
  140OSM    C2F15247   3.782   0.233   3.054 -0.2821  0.1378 -0.0206
  140OSM    H2F15248   3.746   0.135   3.014 -1.0701  0.0906  0.7591
  140OSM    H2G15249   3.699   0.267   3.120 -0.1330 -1.3208  0.9629
  140OSM    C3F15250   3.907   0.217   3.139 -0.2822  0.2328 -0.3931
  140OSM    H3F15251   3.996   0.198   3.075  0.5063 -3.3773  1.5087
  140OSM    H3G15252   3.893   0.124   3.198  0.0960  0.2862 -0.2153
  140OSM    C4F15253   3.944   0.332   3.237  0.6574 -0.2080 -0.1101
  140OSM    H4F15254   3.961   0.428   3.183  0.9203 -0.3040 -0.1998
  140OSM    H4G15255   4.036   0.307   3.295 -0.9526 -0.7562  2.3381
  140OSM    C5F15256   3.836   0.349   3.344 -0.7122  0.1690  0.2693
  140OSM    H5F15257   3.733   0.356   3.303 -1.0493  2.0777  1.3317
  140OSM    H5G15258   3.847   0.452   3.383 -0.2532  0.9628 -1.8201
  140OSM    C6F15259   3.864   0.255   3.464  0.3527 -0.2740  0.7955
  140OSM    H6F15260   3.970   0.275   3.492 -0.5257  2.4902  2.5377
  140OSM    H6G15261   3.849   0.151   3.429  1.1157  0.3336 -1.4923
  140OSM    C7F15262   3.792   0.300   3.595 -0.1522  0.1325 -0.2606
  140OSM    H7F15263   3.685   0.298   3.568 -0.0116  3.3357 -1.5165
  140OSM    H7G15264   3.816   0.406   3.620 -0.3052 -0.2653  1.7464
  140OSM    C8F15265   3.829   0.217   3.718  0.2745  0.0915 -0.4429
  140OSM    H8F15266   3.940   0.224   3.727  0.0011  3.5660  3.0879
  140OSM    H8G15267   3.794   0.114   3.694  3.4046 -1.6570  1.7771
  140OSM    C9F15268   3.756   0.267   3.841  0.7111  0.5779  0.4854
  140OSM    H9F15269   3.650   0.289   3.822  0.2817  0.3671  2.3991
  140OSM   C10F15270   3.800   0.302   3.964 -0.1380  0.2234 -0.5598
  140OSM   H10F15271   3.722   0.345   4.029  0.2541 -0.9285  0.7214
  140OSM   C11F15272   3.935   0.281   4.025 -0.3114 -1.1081  0.0629
  140OSM   H11F15273   3.968   0.381   4.060  0.2256 -1.6751  1.2456
  140OSM   H11G15274   4.013   0.251   3.952  0.9596 -0.6112  1.1736
  140OSM   C12F15275   3.945   0.189   4.148  0.4895  0.3138  0.0396
  140OSM   H12F15276   4.048   0.157   4.171  0.0310  0.0924  1.9629
  140OSM   H12G15277   3.889   0.093   4.144  0.1445  0.5191 -0.1099
  140OSM   C13F15278   3.903   0.260   4.283 -0.0788 -0.2600 -0.3069
  140OSM   H13F15279   3.796   0.290   4.278 -0.5714 -1.7082  0.8216
  140OSM   H13G15280   3.963   0.353   4.287 -0.3870 -0.0648 -0.1042
  140OSM   C14F15281   3.935   0.176   4.409  0.5931 -0.5525  0.1819
  140OSM   H14F15282   4.041   0.145   4.416  1.5486  2.4857  0.2909
  140OSM   H14G15283   3.872   0.084   4.405  1.0306 -0.8232 -2.1756
  140OSM   C15F15284   3.903   0.254   4.539  1.0932  0.1792 -0.5858
  140OSM   H15F15285   3.806   0.307   4.531  1.8888  1.4173 -3.2313
  140OSM   H15G15286   3.991   0.322   4.537  2.9630 -2.1177 -2.3029
  140OSM   C16F15287   3.906   0.157   4.655 -0.1588  0.4630  0.0813
  140OSM   H16F15288   3.982   0.080   4.631  0.0657  0.6745  0.1025
  140OSM   H16G15289   3.805   0.113   4.671 -0.9581  1.7447 -1.1561
  140OSM   C17F15290   3.922   0.212   4.798  0.9411  0.2451 -0.0946
  140OSM   H17F15291   4.030   0.232   4.814  1.0759  1.8754 -2.5604
  140OSM   H17G15292   3.889   0.130   4.865  2.3644 -0.8206 -0.6510
  140OSM   C18F15293   3.841   0.339   4.834  0.5172  0.1792 -0.4446
  140OSM   H18F15294   3.846   0.365   4.942 -2.9317  0.4121 -0.2107
  140OSM   H18G15295   3.734   0.331   4.803  0.1563  2.5592  0.0041
  140OSM   H18H15296   3.879   0.424   4.774 -0.6331 -0.2754 -1.9069
  141OSM      N15297   5.165   5.644   2.457  0.5003  0.0314 -0.0219
  141OSM    C1515298   5.156   5.570   2.328  0.8408  0.5092 -0.2795
  141OSM   H15A15299   5.169   5.629   2.238  0.0254  1.2639  0.0801
  141OSM   H15B15300   5.069   5.506   2.316  0.2819  0.9996  1.0068
  141OSM   H15C15301   5.237   5.499   2.332  0.6238  0.2376 -0.5970
  141OSM    C1415302   5.048   5.724   2.482 -0.0874  0.5784  0.0347
  141OSM   H14A15303   4.962   5.662   2.502  0.2515 -0.7633 -2.2924
  141OSM   H14B15304   5.028   5.802   2.411  1.2660  1.3020  0.4119
  141OSM   H14C15305   5.069   5.770   2.578  0.0083 -0.6244  0.6231
  141OSM    C1315306   5.177   5.547   2.571  0.4855  0.1105  0.0344
  141OSM   H13A15307   5.083   5.496   2.586  0.3238  0.4478  0.1779
  141OSM   H13B15308   5.195   5.594   2.666  0.9903 -1.8576  0.9518
  141OSM   H13C15309   5.259   5.478   2.558  1.7840  1.5255  0.3851
  141OSM    C1215310   5.284   5.734   2.453  0.1392 -0.1486 -0.1108
  141OSM   H12A15311   5.275   5.810   2.377 -2.0950 -0.9054 -0.6749
  141OSM   H12B15312   5.370   5.674   2.427  1.0748  0.7266  0.8505
  141OSM    C1115313   5.328   5.794   2.594 -0.1426  0.6449  0.0494
  141OSM   H11A15314   5.408   5.869   2.581 -0.1584  0.3432 -2.1013
  141OSM   H11B15315   5.360   5.709   2.658 -2.0163 -0.7078 -0.7306
  141OSM      P15316   5.169   5.990   2.632 -0.1625 -0.6132 -0.0821
  141OSM    O1315317   5.244   6.036   2.511 -0.1102  0.3238 -0.1925
  141OSM    O1415318   5.022   5.987   2.629  0.1700 -0.7718 -0.2454
  141OSM    O1115319   5.211   6.084   2.759  0.4225 -0.2773  0.4652
  141OSM    O1215320   5.223   5.846   2.671 -0.4451 -0.1426 -0.4216
  141OSM    C1S15321   5.340   6.066   2.819  0.3168 -0.2180 -0.4497
  141OSM    H1S15322   5.406   6.146   2.781 -0.2807 -0.0004 -1.0568
  141OSM    H1T15323   5.382   5.964   2.804  0.0813 -0.3096 -0.4914
  141OSM     NF15324   5.445   6.042   3.042  0.0376  0.1177  0.4460
  141OSM    HNF15325   5.456   5.963   3.102  2.6485  1.7035  2.2975
  141OSM    C2S15326   5.323   6.074   2.974  0.2726  0.0379 -0.2678
  141OSM    H2S15327   5.306   6.183   2.992  2.7328  0.7593 -1.7518
  141OSM    C3S15328   5.198   5.987   3.029  0.2197 -0.9333  0.1636
  141OSM    H3S15329   5.238   5.884   3.019 -1.2836 -1.4034 -1.4193
  141OSM     O315330   5.078   5.981   2.957 -0.5069 -0.0093 -0.5184
  141OSM    HO315331   5.110   6.014   2.873  0.1761  1.6436  0.3252
  141OSM    C4S15332   5.173   6.011   3.177 -0.0589  0.3056 -0.3484
  141OSM    H4S15333   5.243   5.962   3.246 -0.9568 -1.1069 -0.3839
  141OSM    C5S15334   5.073   6.079   3.231  0.5802  0.0304  0.6426
  141OSM    H5S15335   5.000   6.120   3.160 -1.3567 -1.9011  1.3963
  141OSM    C6S15336   5.044   6.099   3.380 -0.0353 -0.1023 -0.0758
  141OSM    H6S15337   4.947   6.048   3.396 -1.1754  1.9377 -0.1707
  141OSM    H6T15338   5.033   6.209   3.390 -0.6741 -0.0131 -1.5528
  141OSM    C7S15339   5.131   6.047   3.490  0.2189 -0.1644 -0.0795
  141OSM    H7S15340   5.236   6.078   3.475  1.3280 -2.2008  2.5446
  141OSM    H7T15341   5.111   5.938   3.485 -1.0338  0.1038 -1.9778
  141OSM    C8S15342   5.086   6.114   3.624  0.0671  0.4631 -1.3841
  141OSM    H8S15343   4.976   6.103   3.631  0.0865  0.7598 -0.4957
  141OSM    H8T15344   5.109   6.223   3.616  1.3182  0.3910  0.5843
  141OSM    C9S15345   5.172   6.065   3.745 -0.3122  0.2561 -0.6871
  141OSM    H9S15346   5.274   6.108   3.749  0.6526 -1.9250 -0.0984
  141OSM    H9T15347   5.175   5.954   3.752  0.6474  0.1471 -2.3266
  141OSM   C10S15348   5.122   6.103   3.880  0.6555 -0.3444  0.6215
  141OSM   H10S15349   5.019   6.062   3.876  0.1146  1.0576 -0.4473
  141OSM   H10T15350   5.110   6.213   3.885 -0.0081 -0.1856 -2.7676
  141OSM   C11S15351   5.195   6.047   3.999  0.1510  0.7342 -0.0553
  141OSM   H11S15352   5.298   6.089   4.004 -0.1530  1.7563 -1.6338
  141OSM   H11T15353   5.203   5.936   3.996 -2.0476  0.5562 -1.6811
  141OSM   C12S15354   5.110   6.078   4.125  0.2203 -0.3457 -0.8495
  141OSM   H12S15355   5.012   6.025   4.120 -0.7359  1.1099  1.1202
  141OSM   H12T15356   5.083   6.183   4.148  1.7041  0.2514 -1.7246
  141OSM   C13S15357   5.182   6.020   4.254  0.2791 -0.5843  0.1965
  141OSM   H13S15358   5.272   6.084   4.267 -0.3265  0.2003  0.6145
  141OSM   H13T15359   5.200   5.911   4.241 -0.3593 -0.9022  1.7972
  141OSM   C14S15360   5.091   6.023   4.382 -0.5531 -0.4842  0.0404
  141OSM   H14S15361   4.995   5.974   4.355 -2.9473  3.6189  0.3470
  141OSM   H14T15362   5.059   6.125   4.411 -0.0385  0.0408 -1.1616
  141OSM   C15S15363   5.169   5.960   4.500 -0.2415 -0.2633  0.3231
  141OSM   H15S15364   5.251   6.033   4.513 -0.8301  0.3139  0.8901
  141OSM   H15T15365   5.211   5.861   4.473  2.5269  0.0562  2.9767
  141OSM   C16S15366   5.084   5.948   4.631 -0.5540  0.0701  0.0118
  141OSM   H16S15367   4.980   5.921   4.603 -0.2417 -0.0817 -1.0642
  141OSM   H16T15368   5.072   6.046   4.682  0.7855  1.0122 -1.3781
  141OSM   C17S15369   5.145   5.851   4.744  0.4296  0.0783  0.0061
  141OSM   H17S15370   5.248   5.877   4.779  0.4477 -1.0167  0.8211
  141OSM   H17T15371   5.164   5.757   4.690  2.2380  0.5031 -0.1678
  141OSM   C18S15372   5.049   5.832   4.865  1.1203 -0.1903  0.6559
  141OSM   H18S15373   5.018   5.930   4.908  2.0100  0.8056 -0.8813
  141OSM   H18T15374   5.089   5.770   4.948 -0.8154 -1.0499  0.9929
  141OSM   H18U15375   4.957   5.782   4.829  1.5729  0.1349 -1.0458
  141OSM    C1F15376   5.553   6.123   3.021  0.3010  0.2644 -0.8443
  141OSM     OF15377   5.535   6.240   2.996  0.4515 -0.2295  1.2436
  141OSM    C2F15378   5.689   6.069   3.060 -0.0086  0.3459 -0.2504
  141OSM    H2F15379   5.726   6.014   2.971 -0.0733  1.7263 -1.1517
  141OSM    H2G15380   5.676   6.000   3.147  1.8655 -0.3164 -0.4356
  141OSM    C3F15381   5.783   6.189   3.100  0.0998  0.1436  0.7577
  141OSM    H3F15382   5.738   6.237   3.190  3.2489  3.6254  0.6724
  141OSM    H3G15383   5.770   6.262   3.018 -2.7868 -0.3427  0.6624
  141OSM    C4F15384   5.924   6.168   3.138  0.2522  0.3685 -0.9624
  141OSM    H4F15385   5.978   6.259   3.171 -1.7951  1.2620  0.0883
  141OSM    H4G15386   5.965   6.126   3.044 -0.6280 -2.6239 -0.1251
  141OSM    C5F15387   5.955   6.065   3.247  0.2273 -0.0260 -0.1599
  141OSM    H5F15388   6.057   6.021   3.247  0.1858 -0.2448  2.0726
  141OSM    H5G15389   5.886   5.979   3.234  1.5031 -0.8284 -2.0039
  141OSM    C6F15390   5.962   6.133   3.391  0.0164 -0.1768 -0.6370
  141OSM    H6F15391   5.882   6.210   3.402 -0.1979 -0.4866  0.0169
  141OSM    H6G15392   6.059   6.183   3.409  0.9990 -2.3003  0.3471
  141OSM    C7F15393   5.945   6.028   3.502 -0.0951  0.5804 -0.1649
  141OSM    H7F15394   6.026   5.953   3.492  0.1325  0.9075 -0.8268
  141OSM    H7G15395   5.845   5.981   3.499  0.6313 -1.2060  1.4617
  141OSM    C8F15396   5.965   6.099   3.639  0.2888  0.5759 -0.0448
  141OSM    H8F15397   5.886   6.173   3.662  0.6014  0.3079  2.1454
  141OSM    H8G15398   6.058   6.160   3.643  1.8943 -1.7751  0.4712
  141OSM    C9F15399   5.990   5.991   3.742  0.4092 -0.5794  0.4223
  141OSM    H9F15400   5.923   5.904   3.746  0.3099 -0.6840 -1.8560
  141OSM   C10F15401   6.074   6.002   3.844 -0.9538  0.2539 -0.2109
  141OSM   H10F15402   6.081   5.915   3.910 -1.6501 -0.7260 -1.3729
  141OSM   C11F15403   6.168   6.118   3.876  0.0498 -0.0249  0.0216
  141OSM   H11F15404   6.146   6.214   3.825  1.0787  0.4789  0.4880
  141OSM   H11G15405   6.277   6.107   3.856 -0.3717 -0.4739 -2.2489
  141OSM   C12F15406   6.147   6.139   4.027 -0.1384 -0.9895  0.4005
  141OSM   H12F15407   6.229   6.206   4.060 -0.9249 -0.8901  2.2631
  141OSM   H12G15408   6.150   6.044   4.084  0.5467 -3.1843 -2.9984
  141OSM   C13F15409   6.017   6.216   4.049 -0.4710 -0.1239  0.3779
  141OSM   H13F15410   5.932   6.148   4.026  0.1165 -1.4324  1.8760
  141OSM   H13G15411   6.008   6.307   3.987 -0.4545  0.1280  0.7401
  141OSM   C14F15412   6.015   6.231   4.197  0.3613  0.0971 -0.7595
  141OSM   H14F15413   6.093   6.298   4.238  1.4000 -1.5869  0.0898
  141OSM   H14G15414   6.027   6.129   4.240 -0.0804  0.5366  0.4600
  141OSM   C15F15415   5.884   6.284   4.257  0.7210 -0.2369  0.0620
  141OSM   H15F15416   5.801   6.222   4.216 -0.8896  1.5226  0.5327
  141OSM   H15G15417   5.865   6.386   4.219  3.4178  0.8101  1.2866
  141OSM   C16F15418   5.890   6.289   4.410  1.0694 -0.1707  0.6982
  141OSM   H16F15419   5.961   6.368   4.442  2.3720  0.6443 -3.5760
  141OSM   H16G15420   5.913   6.196   4.467  0.6379  0.6889  2.3298
  141OSM   C17F15421   5.749   6.333   4.470 -0.4327 -0.4612 -0.3502
  141OSM   H17F15422   5.701   6.409   4.405  1.0623  0.4925 -0.3736
  141OSM   H17G15423   5.765   6.385   4.567 -1.3186  4.0297 -2.3626
  141OSM   C18F15424   5.646   6.225   4.498 -0.8778  0.0739 -0.7279
  141OSM   H18F15425   5.562   6.225   4.425  0.4315 -2.8160 -2.3891
  141OSM   H18G15426   5.610   6.255   4.599  1.0204  0.0365 -0.0113
  141OSM   H18H15427   5.685   6.124   4.518 -1.4295  0.4408  2.9208
  142OSM      N15428   5.967   0.995   2.224 -0.6400 -0.7516 -0.4479
  142OSM    C1515429   5.851   1.068   2.166 -0.3160  0.2004 -0.0623
  142OSM   H15A15430   5.845   1.170   2.202  2.0150  0.7904 -1.0987
  142OSM   H15B15431   5.758   1.022   2.194  0.7312 -2.4070 -0.5550
  142OSM   H15C15432   5.854   1.061   2.058  1.3236  0.1989 -0.0455
  142OSM    C1415433   5.987   0.876   2.142  0.1759 -0.1761  0.5123
  142OSM   H14A15434   6.064   0.811   2.182 -1.2791 -0.8314  2.3675
  142OSM   H14B15435   5.990   0.892   2.035  1.0242  0.4396  0.6166
  142OSM   H14C15436   5.904   0.808   2.151  1.6097 -1.9798  0.7765
  142OSM    C1315437   6.086   1.080   2.194 -0.4168 -0.3088  0.1484
  142OSM   H13A15438   6.111   1.077   2.088  0.2182  0.0684  0.2815
  142OSM   H13B15439   6.162   1.022   2.244  0.3579 -1.3000 -2.0271
  142OSM   H13C15440   6.085   1.179   2.235  1.2694  0.3414 -1.2208
  142OSM    C1215441   5.953   0.976   2.374 -0.3713 -0.0949 -0.0667
  142OSM   H12A15442   5.974   1.068   2.426  0.8862 -0.8740  0.8481
  142OSM   H12B15443   6.039   0.915   2.400  0.2346  0.1364 -1.4291
  142OSM    C1115444   5.834   0.888   2.424  0.4677 -0.1375 -0.2037
  142OSM   H11A15445   5.731   0.926   2.410 -0.3348 -2.2315 -0.3900
  142OSM   H11B15446   5.846   0.887   2.535  3.8064 -2.1185 -0.4438
  142OSM      P15447   5.929   0.642   2.441  0.0491  0.5012  0.1496
  142OSM    O1315448   5.877   0.511   2.391 -0.1501 -0.4302  0.4036
  142OSM    O1415449   6.075   0.678   2.424  0.1496  0.8298  0.2784
  142OSM    O1115450   5.882   0.661   2.590 -0.0153 -0.1715 -0.3432
  142OSM    O1215451   5.843   0.753   2.370 -0.0886 -0.3968 -0.2160
  142OSM    C1S15452   5.981   0.682   2.701  0.0824 -0.2411  0.3034
  142OSM    H1S15453   6.065   0.749   2.673 -0.0235  0.3782  1.3945
  142OSM    H1T15454   6.020   0.584   2.733  0.3981  0.0704  0.8847
  142OSM     NF15455   6.001   0.758   2.938  0.0982  0.6857  0.3538
  142OSM    HNF15456   5.991   0.697   3.016  1.2648 -0.0911 -0.0623
  142OSM    C2S15457   5.909   0.749   2.824 -1.3064 -0.0526 -0.1939
  142OSM    H2S15458   5.872   0.851   2.802 -1.2161  0.4042  1.6420
  142OSM    C3S15459   5.782   0.660   2.871  0.5584  0.2599  0.1642
  142OSM    H3S15460   5.824   0.562   2.905 -0.5142 -0.1202  0.4177
  142OSM     O315461   5.682   0.626   2.774  0.1293  0.0099 -0.8224
  142OSM    HO315462   5.731   0.643   2.693 -0.0659  2.7968 -0.4627
  142OSM    C4S15463   5.711   0.720   2.988 -0.3164 -0.0060  0.2860
  142OSM    H4S15464   5.661   0.813   2.957 -0.4977 -0.2320 -0.1093
  142OSM    C5S15465   5.708   0.658   3.106 -0.0192  0.9689 -0.7644
  142OSM    H5S15466   5.765   0.565   3.124 -2.2086 -0.2055  0.5553
  142OSM    C6S15467   5.632   0.727   3.223 -0.3853  0.3868 -0.0351
  142OSM    H6S15468   5.610   0.655   3.304 -1.9333  0.4148 -0.3828
  142OSM    H6T15469   5.532   0.760   3.185 -0.1477  1.8909  0.5434
  142OSM    C7S15470   5.700   0.850   3.287  0.2163 -0.4748 -0.1693
  142OSM    H7S15471   5.719   0.928   3.210  1.5019 -1.5074 -0.9485
  142OSM    H7T15472   5.794   0.806   3.328  1.1291  0.0220 -1.6504
  142OSM    C8S15473   5.621   0.921   3.402  0.4330  0.2481 -0.2457
  142OSM    H8S15474   5.531   0.955   3.347  0.7619  1.4165 -0.0832
  142OSM    H8T15475   5.672   1.014   3.435  0.7582  1.7371 -4.3006
  142OSM    C9S15476   5.584   0.841   3.528 -0.6116 -0.2643 -0.3720
  142OSM    H9S15477   5.538   0.745   3.497 -1.7204  0.0930  0.1336
  142OSM    H9T15478   5.505   0.906   3.571 -1.9828 -0.9804 -1.7395
  142OSM   C10S15479   5.696   0.819   3.633 -0.7242 -0.4676 -0.5841
  142OSM   H10S15480   5.725   0.920   3.668  0.6271 -0.8337 -0.6015
  142OSM   H10T15481   5.786   0.782   3.580  0.2366  0.5654  0.3015
  142OSM   C11S15482   5.665   0.731   3.753 -0.0769  0.0125 -0.5926
  142OSM   H11S15483   5.642   0.626   3.725 -0.1995  0.1174 -0.8892
  142OSM   H11T15484   5.572   0.769   3.801 -0.4162 -0.7302 -0.6597
  142OSM   C12S15485   5.796   0.740   3.840  0.2848 -0.2773 -0.5409
  142OSM   H12S15486   5.813   0.847   3.862 -0.3532 -0.4879  1.0708
  142OSM   H12T15487   5.882   0.720   3.773  1.2861 -0.6225  0.8174
  142OSM   C13S15488   5.789   0.664   3.972 -0.0768 -0.2185 -0.1853
  142OSM   H13S15489   5.884   0.674   4.028  0.3698 -0.2848 -0.9206
  142OSM   H13T15490   5.774   0.555   3.953  1.7727 -0.4803 -0.3541
  142OSM   C14S15491   5.668   0.718   4.059 -0.0482  0.1610 -0.0697
  142OSM   H14S15492   5.573   0.666   4.035 -1.3403  2.4652 -0.1966
  142OSM   H14T15493   5.650   0.825   4.034  2.5336  0.6171 -0.2690
  142OSM   C15S15494   5.714   0.714   4.211 -0.0072 -0.1288 -0.2760
  142OSM   H15S15495   5.816   0.756   4.216  0.0296 -0.0733 -1.3310
  142OSM   H15T15496   5.716   0.610   4.251 -0.4097 -0.2966 -0.6867
  142OSM   C16S15497   5.626   0.801   4.304  0.0997  0.0080 -0.3548
  142OSM   H16S15498   5.524   0.759   4.311  0.4476 -0.5279  3.4168
  142OSM   H16T15499   5.608   0.893   4.244 -0.4718 -0.5099 -0.9825
  142OSM   C17S15500   5.689   0.834   4.439  1.2348 -0.1868 -0.5853
  142OSM   H17S15501   5.788   0.879   4.415  1.2217  0.1829  0.0392
  142OSM   H17T15502   5.713   0.744   4.501  2.6131  0.0016 -0.8051
  142OSM   C18S15503   5.598   0.927   4.528  0.4178  1.0499  0.1127
  142OSM   H18S15504   5.557   1.005   4.460  1.7994  1.1058 -0.7039
  142OSM   H18T15505   5.663   0.971   4.607  3.0602 -0.1882 -1.2580
  142OSM   H18U15506   5.523   0.857   4.571 -1.0538  0.6742 -2.7844
  142OSM    C1F15507   6.104   0.834   2.938  0.1382 -0.4040 -0.3817
  142OSM     OF15508   6.125   0.913   2.845  0.1123  0.4386  0.1867
  142OSM    C2F15509   6.191   0.836   3.060  0.2011  0.4579 -0.3237
  142OSM    H2F15510   6.297   0.832   3.025  0.0243  1.6613 -1.0688
  142OSM    H2G15511   6.189   0.742   3.118  1.3216  0.9551  0.5751
  142OSM    C3F15512   6.156   0.957   3.143 -0.3204  0.1223  0.0845
  142OSM    H3F15513   6.045   0.953   3.157 -0.3104 -0.0022  0.1290
  142OSM    H3G15514   6.190   1.049   3.092 -1.9173  2.3948  2.8026
  142OSM    C4F15515   6.191   0.957   3.280 -0.6595  1.4108 -0.1415
  142OSM    H4F15516   6.297   0.989   3.293 -0.3264  0.0948  0.6566
  142OSM    H4G15517   6.177   0.850   3.307  0.0883  0.9244 -1.5374
  142OSM    C5F15518   6.115   1.051   3.372  0.7384 -1.1155 -0.1273
  142OSM    H5F15519   6.013   1.007   3.377  0.8659 -1.7253 -1.9667
  142OSM    H5G15520   6.114   1.158   3.341  1.0381 -1.0048  0.2385
  142OSM    C6F15521   6.176   1.048   3.513  0.5325 -0.0571 -0.0055
  142OSM    H6F15522   6.131   1.133   3.569  1.4413  0.2254  0.3039
  142OSM    H6G15523   6.287   1.055   3.509  0.7716 -2.8234 -0.5457
  142OSM    C7F15524   6.140   0.931   3.598  0.3499  0.4707 -0.5061
  142OSM    H7F15525   6.190   0.836   3.572 -0.0273 -0.4479  1.8672
  142OSM    H7G15526   6.031   0.922   3.577  0.6674  0.9592 -2.5769
  142OSM    C8F15527   6.173   0.963   3.745 -0.1056  1.0783  0.0266
  142OSM    H8F15528   6.111   1.051   3.772 -0.2383  1.3114 -0.9957
  142OSM    H8G15529   6.270   1.016   3.750 -0.1536  1.4032 -1.9391
  142OSM    C9F15530   6.161   0.849   3.844 -0.0614  0.9749  0.5785
  142OSM    H9F15531   6.156   0.749   3.797 -1.2486  0.1730  2.2934
  142OSM   C10F15532   6.146   0.866   3.974 -0.1866  0.9277  0.1319
  142OSM   H10F15533   6.128   0.780   4.041  0.4113  0.1293 -0.7186
  142OSM   C11F15534   6.138   0.996   4.045  0.7731  0.4671  0.8370
  142OSM   H11F15535   6.035   1.010   4.085  0.0750  0.0362 -0.7411
  142OSM   H11G15536   6.172   1.083   3.984  1.4593  0.3520  1.0410
  142OSM   C12F15537   6.228   0.989   4.173  0.1337 -0.0565 -0.1477
  142OSM   H12F15538   6.246   1.091   4.213  0.6199 -0.4218  0.5828
  142OSM   H12G15539   6.331   0.953   4.152  0.5493  2.3174 -2.8632
  142OSM   C13F15540   6.162   0.888   4.271  0.2999  0.3866  0.1755
  142OSM   H13F15541   6.162   0.789   4.222 -2.8185  0.5752 -0.4558
  142OSM   H13G15542   6.055   0.915   4.290  0.2674 -0.4747  1.3865
  142OSM   C14F15543   6.244   0.879   4.395 -0.5836  0.4351 -0.3194
  142OSM   H14F15544   6.254   0.984   4.431  0.5567  0.3116 -0.2525
  142OSM   H14G15545   6.339   0.834   4.362 -0.3738  0.8548 -0.2937
  142OSM   C15F15546   6.171   0.812   4.510  0.6619 -0.2139  0.3392
  142OSM   H15F15547   6.142   0.708   4.484  2.8249 -0.8321  0.2361
  142OSM   H15G15548   6.075   0.867   4.521  0.9261  0.3595 -0.1397
  142OSM   C16F15549   6.250   0.813   4.641  0.2829 -0.2963  0.6494
  142OSM   H16F15550   6.263   0.917   4.678  0.8035  0.7040 -2.0997
  142OSM   H16G15551   6.354   0.793   4.607 -0.2506 -0.7662 -0.7852
  142OSM   C17F15552   6.196   0.705   4.748  0.3736  0.2606  0.1912
  142OSM   H17F15553   6.184   0.605   4.700 -1.4548  0.6102 -0.1638
  142OSM   H17G15554   6.101   0.736   4.795  1.1375  1.6123  0.9116
  142OSM   C18F15555   6.293   0.690   4.867  0.3553  0.7080  0.8992
  142OSM   H18F15556   6.240   0.649   4.956 -0.9562  1.6570  0.5910
  142OSM   H18G15557   6.334   0.791   4.888  0.2011  0.9024  0.2786
  142OSM   H18H15558   6.375   0.632   4.820  1.9992  3.2986  0.3500
  143OSM      N15559   4.746   6.251   2.679 -0.1965 -0.2646 -0.3436
  143OSM    C1515560   4.828   6.287   2.554 -0.0955  0.0650 -0.1138
  143OSM   H15A15561   4.874   6.201   2.508 -0.7215  0.2650 -1.1574
  143OSM   H15B15562   4.891   6.372   2.578 -0.1790 -0.1859  1.0567
  143OSM   H15C15563   4.758   6.319   2.478  0.4519  0.2706 -0.5324
  143OSM    C1415564   4.847   6.207   2.781  0.5174  0.0537 -0.5014
  143OSM   H14A15565   4.912   6.290   2.804  1.7269 -0.6955 -1.0755
  143OSM   H14B15566   4.911   6.136   2.730  1.3824  0.3915  0.0980
  143OSM   H14C15567   4.813   6.160   2.872  0.2110 -0.9064 -1.0956
  143OSM    C1315568   4.683   6.380   2.730  0.5129  0.0208 -0.2267
  143OSM   H13A15569   4.618   6.426   2.658 -2.6157 -1.9966  1.0541
  143OSM   H13B15570   4.759   6.446   2.768  1.0051  0.7100 -2.3084
  143OSM   H13C15571   4.619   6.352   2.813 -0.5181  0.0815 -0.9822
  143OSM    C1215572   4.645   6.146   2.654  0.2191 -0.4985  0.5182
  143OSM   H12A15573   4.602   6.111   2.747 -1.5190 -0.7135 -0.3460
  143OSM   H12B15574   4.693   6.050   2.639 -0.3168 -0.5458 -0.9990
  143OSM    C1115575   4.541   6.178   2.545 -0.6877  0.0046 -0.4257
  143OSM   H11A15576   4.575   6.170   2.439 -1.9968 -0.4357 -0.8370
  143OSM   H11B15577   4.498   6.280   2.553 -0.3912  0.0689  0.3444
  143OSM      P15578   4.350   6.073   2.691 -0.0863 -0.2949  0.1773
  143OSM    O1315579   4.199   6.074   2.679  0.3400  0.3992  0.3560
  143OSM    O1415580   4.397   5.954   2.765  0.2894  0.2985 -0.9782
  143OSM    O1115581   4.388   6.196   2.779 -0.5400  0.5727  0.3496
  143OSM    O1215582   4.430   6.086   2.550 -0.4933 -0.0122  0.4102
  143OSM    C1S15583   4.326   6.323   2.789  0.7615  0.4696  0.0924
  143OSM    H1S15584   4.259   6.340   2.702 -1.3073 -0.4453  1.4108
  143OSM    H1T15585   4.402   6.403   2.779  0.2200  0.9602 -0.1668
  143OSM     NF15586   4.147   6.443   2.904  0.4647  0.1964 -0.6473
  143OSM    HNF15587   4.166   6.509   2.977 -1.3545 -0.1631  0.2139
  143OSM    C2S15588   4.233   6.322   2.913 -0.5726 -0.1849 -0.2227
  143OSM    H2S15589   4.168   6.232   2.899 -1.9528  0.6430  0.6083
  143OSM    C3S15590   4.300   6.298   3.051  0.8574 -0.1546 -0.1880
  143OSM    H3S15591   4.359   6.392   3.057  1.6754 -0.7321  1.4921
  143OSM     O315592   4.384   6.184   3.063 -0.2203 -0.7825  0.1314
  143OSM    HO315593   4.383   6.142   2.977  1.2623 -2.3080  0.7877
  143OSM    C4S15594   4.193   6.293   3.158 -0.4855 -0.5761  0.7455
  143OSM    H4S15595   4.166   6.390   3.202 -0.1527 -0.0901 -0.0810
  143OSM    C5S15596   4.146   6.186   3.212  0.3733  0.3868 -0.3312
  143OSM    H5S15597   4.193   6.090   3.186 -0.9993 -0.3459 -0.2286
  143OSM    C6S15598   4.052   6.185   3.330 -0.5255 -0.0979 -0.3621
  143OSM    H6S15599   3.986   6.095   3.326  2.3486 -2.3106 -1.3140
  143OSM    H6T15600   3.994   6.280   3.336 -0.5527 -0.1679  0.6579
  143OSM    C7S15601   4.136   6.163   3.458  0.1484 -0.7041 -0.0398
  143OSM    H7S15602   4.211   6.244   3.467  0.8376 -1.1297 -1.5758
  143OSM    H7T15603   4.183   6.063   3.458  3.8949  0.9027  0.0522
  143OSM    C8S15604   4.046   6.194   3.584 -1.2255 -0.3216 -0.7173
  143OSM    H8S15605   3.953   6.137   3.565 -0.9935 -0.6389 -0.9134
  143OSM    H8T15606   4.032   6.303   3.597  0.2850 -0.2996  1.2187
  143OSM    C9S15607   4.108   6.156   3.717  0.2344  0.2217  0.2418
  143OSM    H9S15608   4.194   6.224   3.739 -1.2513  1.7606  1.5696
  143OSM    H9T15609   4.152   6.054   3.711  1.1827  0.6558 -0.6178
  143OSM   C10S15610   4.015   6.162   3.832  0.0831  0.2566 -1.0278
  143OSM   H10S15611   3.922   6.113   3.797 -0.5114  0.7371 -0.1858
  143OSM   H10T15612   3.978   6.266   3.848  1.4648  0.8935 -1.8051
  143OSM   C11S15613   4.062   6.086   3.961 -0.4638  0.9215 -0.4480
  143OSM   H11S15614   4.165   6.118   3.984 -0.3812 -0.2794  1.0100
  143OSM   H11T15615   4.055   5.976   3.947 -1.1886  1.0475 -1.1916
  143OSM   C12S15616   3.969   6.128   4.077 -0.4478  0.9282  0.2414
  143OSM   H12S15617   3.860   6.110   4.059  0.2430 -2.9928 -1.0809
  143OSM   H12T15618   3.983   6.237   4.094  3.4205  0.5488  0.2416
  143OSM   C13S15619   4.003   6.050   4.206  0.1955 -0.6586 -0.3655
  143OSM   H13S15620   4.107   6.076   4.235 -0.1002 -0.8795  0.9350
  143OSM   H13T15621   4.010   5.939   4.195 -1.4587 -0.9087  0.8204
  143OSM   C14S15622   3.898   6.075   4.321  0.2535  0.8433 -0.6119
  143OSM   H14S15623   3.798   6.037   4.292 -0.6947  0.4741  2.7319
  143OSM   H14T15624   3.882   6.184   4.330 -1.9416  0.6862 -1.9624
  143OSM   C15S15625   3.939   5.997   4.442 -0.3116 -0.8365 -0.3894
  143OSM   H15S15626   4.038   6.038   4.469 -1.4298  2.5245 -0.9549
  143OSM   H15T15627   3.942   5.887   4.424 -0.2783 -0.8812 -0.1162
  143OSM   C16S15628   3.842   6.017   4.562  0.0613 -0.2063 -0.3012
  143OSM   H16S15629   3.855   5.938   4.639 -1.8521 -1.5152 -1.2447
  143OSM   H16T15630   3.738   5.995   4.530  0.8895 -3.8098 -0.9398
  143OSM   C17S15631   3.841   6.156   4.616 -0.1374 -1.1820 -0.1954
  143OSM   H17S15632   3.828   6.234   4.538  2.8797  2.1028  2.2920
  143OSM   H17T15633   3.939   6.165   4.667 -0.8429 -0.8256  1.1130
  143OSM   C18S15634   3.740   6.182   4.726 -0.0377  0.0341 -0.4683
  143OSM   H18S15635   3.753   6.113   4.812 -2.0578  0.5349  0.3024
  143OSM   H18T15636   3.637   6.178   4.683 -0.3763  0.3687  0.2959
  143OSM   H18U15637   3.754   6.283   4.770  1.4173  0.3157 -1.5094
  143OSM    C1F15638   4.060   6.487   2.812  0.1229 -0.2757  0.4675
  143OSM     OF15639   4.015   6.418   2.724  0.7007  0.5165 -0.4888
  143OSM    C2F15640   4.014   6.624   2.806 -0.1065 -0.2177 -0.6227
  143OSM    H2F15641   4.009   6.660   2.701 -0.9100 -1.5107 -1.0440
  143OSM    H2G15642   4.098   6.683   2.848 -0.1413 -0.4440 -0.2345
  143OSM    C3F15643   3.886   6.659   2.887 -0.3690  0.1013 -0.0439
  143OSM    H3F15644   3.807   6.592   2.847  0.2620 -0.2771 -0.6826
  143OSM    H3G15645   3.851   6.763   2.874  0.1890  0.0363 -2.6289
  143OSM    C4F15646   3.902   6.624   3.040 -0.0837  0.0639  0.4786
  143OSM    H4F15647   3.977   6.698   3.075  0.8988  0.8634 -2.9093
  143OSM    H4G15648   3.948   6.525   3.061  0.4892  0.0499 -0.7704
  143OSM    C5F15649   3.778   6.634   3.124 -0.6461 -0.3795  0.9286
  143OSM    H5F15650   3.701   6.561   3.089 -2.0132  0.4043  2.1888
  143OSM    H5G15651   3.737   6.737   3.125  1.6409  0.5747  1.6401
  143OSM    C6F15652   3.820   6.591   3.262  0.4846  0.4864 -0.6663
  143OSM    H6F15653   3.901   6.657   3.301  0.1105  0.4543  0.2005
  143OSM    H6G15654   3.869   6.492   3.262  0.5155  0.4926  0.3463
  143OSM    C7F15655   3.707   6.592   3.363 -0.2186 -0.9502  0.5409
  143OSM    H7F15656   3.616   6.543   3.324  0.6490 -1.8391 -0.4504
  143OSM    H7G15657   3.689   6.701   3.374  3.7811 -0.2703  2.4386
  143OSM    C8F15658   3.756   6.529   3.494  0.1489  0.4581 -0.9371
  143OSM    H8F15659   3.842   6.585   3.536 -1.3600  0.4818  2.4462
  143OSM    H8G15660   3.789   6.425   3.470  1.8265  1.0162 -1.1746
  143OSM    C9F15661   3.647   6.522   3.598 -0.3800 -0.4173  0.3358
  143OSM    H9F15662   3.562   6.464   3.559  1.1383 -1.8885 -0.8828
  143OSM   C10F15663   3.638   6.571   3.724 -0.7275 -0.6737  0.2673
  143OSM   H10F15664   3.546   6.565   3.785 -0.3747 -0.3510  0.8442
  143OSM   C11F15665   3.739   6.661   3.794 -0.4400 -0.2032  0.0688
  143OSM   H11F15666   3.686   6.754   3.826 -1.2859 -0.5014 -0.4510
  143OSM   H11G15667   3.814   6.696   3.720  1.5410 -1.6563  1.2843
  143OSM   C12F15668   3.807   6.595   3.912 -0.3974 -0.2653  0.2739
  143OSM   H12F15669   3.878   6.667   3.957 -0.0601 -0.9288  0.8178
  143OSM   H12G15670   3.865   6.503   3.889  3.1016  1.6107  0.9343
  143OSM   C13F15671   3.700   6.569   4.030  0.0340  0.2493 -0.3497
  143OSM   H13F15672   3.644   6.478   3.999 -0.7864  1.0143 -1.1803
  143OSM   H13G15673   3.636   6.660   4.034  1.6994  1.5459 -1.7969
  143OSM   C14F15674   3.766   6.528   4.164  0.7139 -0.4133 -0.2751
  143OSM   H14F15675   3.847   6.456   4.139  1.6157  0.9261 -1.3532
  143OSM   H14G15676   3.688   6.482   4.229 -0.9716 -0.2190 -2.0754
  143OSM   C15F15677   3.839   6.643   4.242  0.2736 -0.3237 -0.5691
  143OSM   H15F15678   3.770   6.730   4.250  0.8834  0.0752  0.5833
  143OSM   H15G15679   3.930   6.674   4.186  2.0972  3.1208  3.7254
  143OSM   C16F15680   3.878   6.592   4.382  0.1453  0.3075  0.0956
  143OSM   H16F15681   3.966   6.644   4.425  0.4346 -1.0291  1.2008
  143OSM   H16G15682   3.901   6.483   4.384 -0.8097  0.1082  1.1523
  143OSM   C17F15683   3.760   6.618   4.478 -0.1627 -0.3527 -0.6267
  143OSM   H17F15684   3.675   6.557   4.441 -0.0739 -1.0407  0.2662
  143OSM   H17G15685   3.740   6.727   4.485  1.3508 -0.1667  2.7107
  143OSM   C18F15686   3.800   6.572   4.622 -0.5113  0.4943  0.7264
  143OSM   H18F15687   3.838   6.469   4.612  0.6083  0.7758  1.7705
  143OSM   H18G15688   3.714   6.570   4.693  0.5182  0.4060  1.9997
  143OSM   H18H15689   3.880   6.639   4.661  0.2093 -0.3673  0.7347
  144OSM      N15690   5.484   0.308   2.542  0.4274  0.7945 -0.0527
  144OSM    C1515691   5.515   0.287   2.689  0.2821  0.2791 -0.1036
  144OSM   H15A15692   5.573   0.366   2.736  1.8775 -2.1500  2.3131
  144OSM   H15B15693   5.580   0.204   2.708 -0.5745  0.2456  3.2771
  144OSM   H15C15694   5.425   0.277   2.749  1.0646  0.2890  1.1040
  144OSM    C1415695   5.609   0.309   2.459 -0.4050  0.3158 -0.1974
  144OSM   H14A15696   5.643   0.206   2.463 -2.1166 -0.3356 -1.1263
  144OSM   H14B15697   5.682   0.379   2.497 -0.8114  0.6884 -0.1009
  144OSM   H14C15698   5.588   0.323   2.354 -0.6222 -0.4596 -0.2667
  144OSM    C1315699   5.400   0.194   2.497  0.2971  0.2361  0.1419
  144OSM   H13A15700   5.349   0.216   2.404 -2.7070 -0.2166  1.5691
  144OSM   H13B15701   5.327   0.173   2.573  1.1267 -0.6353  0.7258
  144OSM   H13C15702   5.446   0.097   2.484 -0.8245  0.1005 -4.7253
  144OSM    C1215703   5.406   0.431   2.527  0.0236 -0.0280  0.4703
  144OSM   H12A15704   5.470   0.515   2.550  0.8834 -1.1983  2.7506
  144OSM   H12B15705   5.319   0.429   2.591 -0.3767 -0.3282 -0.0803
  144OSM    C1115706   5.348   0.446   2.380  0.4689  0.3706 -0.5428
  144OSM   H11A15707   5.419   0.414   2.301  0.3043 -0.8631 -0.2161
  144OSM   H11B15708   5.337   0.555   2.358 -1.0305 -0.1186 -2.4472
  144OSM      P15709   5.089   0.404   2.442 -0.0825  0.0380 -0.2459
  144OSM    O1315710   5.013   0.509   2.369  0.2217  0.1753 -0.3398
  144OSM    O1415711   5.016   0.273   2.473  0.9247  0.3608 -0.0750
  144OSM    O1115712   5.143   0.463   2.585  0.6509 -0.1169  0.5723
  144OSM    O1215713   5.221   0.378   2.356 -0.1691  0.3595  0.5688
  144OSM    C1S15714   5.132   0.608   2.609 -0.5572  0.8389 -0.0791
  144OSM    H1S15715   5.044   0.664   2.570 -3.0453 -2.4786  0.3111
  144OSM    H1T15716   5.226   0.662   2.585  0.1029  0.3965  1.3776
  144OSM     NF15717   5.124   0.765   2.790  0.0205 -0.2715 -0.6224
  144OSM    HNF15718   5.217   0.796   2.810  0.0948 -0.7367 -0.1980
  144OSM    C2S15719   5.128   0.621   2.764  0.4888  0.0937  0.3625
  144OSM    H2S15720   5.031   0.577   2.795 -0.9303  1.6777 -1.5016
  144OSM    C3S15721   5.246   0.543   2.837  0.1695  0.9474 -0.5816
  144OSM    H3S15722   5.343   0.580   2.796  0.5809  0.0965 -0.4066
  144OSM     O315723   5.260   0.399   2.813 -0.0516 -0.9654 -0.2749
  144OSM    HO315724   5.192   0.381   2.749 -0.0526 -0.5112 -0.4040
  144OSM    C4S15725   5.229   0.564   2.981 -0.3484 -0.8192 -0.1006
  144OSM    H4S15726   5.127   0.553   3.021 -0.0068 -0.9624  0.7504
  144OSM    C5S15727   5.328   0.583   3.068 -0.2437  0.3450 -0.1810
  144OSM    H5S15728   5.433   0.585   3.037 -0.1798  2.3982  0.0575
  144OSM    C6S15729   5.314   0.600   3.221 -1.1506  0.9625 -0.1985
  144OSM    H6S15730   5.321   0.706   3.253 -1.8026 -0.0611  3.8264
  144OSM    H6T15731   5.403   0.567   3.278 -1.3497 -0.3759 -0.6407
  144OSM    C7S15732   5.201   0.527   3.288 -0.5741 -0.5510  0.7089
  144OSM    H7S15733   5.194   0.430   3.235 -0.1777 -0.0925 -0.2137
  144OSM    H7T15734   5.116   0.596   3.266  1.6420  2.2376  0.3661
  144OSM    C8S15735   5.215   0.522   3.436  0.0710 -0.4174  0.7377
  144OSM    H8S15736   5.312   0.474   3.460  1.0451  1.4195  0.7280
  144OSM    H8T15737   5.134   0.454   3.469  1.3475 -3.0313 -1.1939
  144OSM    C9S15738   5.207   0.661   3.509  0.2551  0.4255  0.1775
  144OSM    H9S15739   5.108   0.712   3.506  0.5693  1.0201 -0.3091
  144OSM    H9T15740   5.283   0.729   3.465  0.2128  0.6761  0.4831
  144OSM   C10S15741   5.239   0.638   3.658  0.2735  0.6505 -0.4609
  144OSM   H10S15742   5.327   0.574   3.677 -0.8538 -0.8612 -0.1850
  144OSM   H10T15743   5.155   0.577   3.697  0.8467  1.2890  1.9014
  144OSM   C11S15744   5.250   0.766   3.746 -0.7176  0.5114 -0.0187
  144OSM   H11S15745   5.173   0.840   3.717 -3.0141 -0.5434  2.8706
  144OSM   H11T15746   5.349   0.812   3.727 -0.9788  1.4175  0.7619
  144OSM   C12S15747   5.239   0.730   3.897 -0.2127 -0.1921  0.6560
  144OSM   H12S15748   5.336   0.716   3.949  1.2933  1.7856 -1.4221
  144OSM   H12T15749   5.172   0.642   3.905 -0.3912 -0.3063 -1.4160
  144OSM   C13S15750   5.179   0.840   3.987 -0.1000 -0.2326  0.9343
  144OSM   H13S15751   5.084   0.887   3.955  0.9981  0.9414 -0.7976
  144OSM   H13T15752   5.244   0.929   3.985  0.0891 -0.3625 -1.5192
  144OSM   C14S15753   5.160   0.810   4.139 -0.4437  1.2003  0.2785
  144OSM   H14S15754   5.260   0.805   4.186 -0.2727  0.0038 -0.1848
  144OSM   H14T15755   5.118   0.707   4.144 -1.0378  1.4450  0.5064
  144OSM   C15S15756   5.069   0.908   4.212 -0.6553  0.3184 -0.4298
  144OSM   H15S15757   4.977   0.925   4.151  0.0034 -0.3499 -1.6419
  144OSM   H15T15758   5.125   1.003   4.216 -2.4281  1.4231 -0.4365
  144OSM   C16S15759   5.051   0.866   4.364  0.4378  0.1740 -0.4021
  144OSM   H16S15760   4.980   0.938   4.410 -0.8641 -1.0913 -0.3787
  144OSM   H16T15761   5.148   0.881   4.416  0.5615 -1.0712 -0.2403
  144OSM   C17S15762   5.010   0.713   4.400  0.4257  0.2642  0.0458
  144OSM   H17S15763   5.091   0.640   4.380  0.9683  0.8485  0.0777
  144OSM   H17T15764   4.933   0.685   4.325 -0.6596 -1.6387  1.7804
  144OSM   C18S15765   4.958   0.686   4.543  0.2314 -0.8484 -0.0628
  144OSM   H18S15766   4.913   0.585   4.554  0.4632 -0.9262  0.1556
  144OSM   H18T15767   4.874   0.756   4.564 -0.3286 -2.3440  3.3119
  144OSM   H18U15768   5.039   0.688   4.618  1.4102 -1.4366 -1.2884
  144OSM    C1F15769   5.022   0.849   2.768  0.2065  0.3486 -0.9498
  144OSM     OF15770   4.917   0.809   2.728  0.1209 -0.2506  0.1735
  144OSM    C2F15771   5.051   0.995   2.785 -0.1932 -0.0371  0.6218
  144OSM    H2F15772   5.081   1.033   2.685 -3.5557 -2.2849 -1.4652
  144OSM    H2G15773   5.134   1.009   2.857 -0.3535  2.4364  0.3958
  144OSM    C3F15774   4.934   1.084   2.832 -0.0394  0.5341  0.3333
  144OSM    H3F15775   4.849   1.066   2.763  2.1389 -0.4698 -2.2730
  144OSM    H3G15776   4.961   1.192   2.826  1.3862  0.2491  1.2232
  144OSM    C4F15777   4.895   1.039   2.971  0.8811 -0.5306 -0.1207
  144OSM    H4F15778   4.852   0.937   2.972 -1.5408  0.2992 -3.2024
  144OSM    H4G15779   4.804   1.101   2.989 -1.3172 -3.4866 -0.2157
  144OSM    C5F15780   4.989   1.077   3.089  0.1869  0.0628  0.2242
  144OSM    H5F15781   4.916   1.073   3.172  2.1618  0.1866  2.0388
  144OSM    H5G15782   5.030   1.180   3.084  1.4496 -0.4541 -0.4276
  144OSM    C6F15783   5.091   0.963   3.128 -0.1386  0.6440 -0.5127
  144OSM    H6F15784   5.113   0.901   3.039 -1.4937  2.0245 -1.8908
  144OSM    H6G15785   5.041   0.890   3.195  0.3926  0.5954 -0.1659
  144OSM    C7F15786   5.223   1.008   3.193  0.6935  0.4872 -0.1853
  144OSM    H7F15787   5.250   1.104   3.144  0.2264  0.3483 -0.7225
  144OSM    H7G15788   5.306   0.940   3.163 -0.0690 -0.6589  0.2252
  144OSM    C8F15789   5.229   1.021   3.343  0.0439  0.3856 -0.0734
  144OSM    H8F15790   5.337   1.031   3.370 -0.2562  1.8000  0.7159
  144OSM    H8G15791   5.184   0.927   3.382 -1.7886  1.4700  0.5356
  144OSM    C9F15792   5.160   1.141   3.399  0.0067  0.0492  0.0592
  144OSM    H9F15793   5.213   1.235   3.379  1.0112 -0.6668 -0.7399
  144OSM   C10F15794   5.053   1.155   3.477  0.0589 -0.1724  0.3355
  144OSM   H10F15795   5.030   1.258   3.507  0.4866  0.2671 -0.7842
  144OSM   C11F15796   4.962   1.051   3.542  0.4643 -0.4164  0.1503
  144OSM   H11F15797   5.012   0.953   3.523 -0.9546 -1.4057  1.2395
  144OSM   H11G15798   4.855   1.043   3.512  0.6602  0.8480 -0.9895
  144OSM   C12F15799   4.960   1.063   3.699  0.2048  0.1620 -0.0807
  144OSM   H12F15800   5.066   1.074   3.731  0.6961  0.8055 -1.8016
  144OSM   H12G15801   4.908   0.974   3.740 -1.2354  1.5011  1.1484
  144OSM   C13F15802   4.876   1.181   3.750 -0.0133  0.1570  0.8579
  144OSM   H13F15803   4.770   1.184   3.717 -0.7042 -0.0264  2.9350
  144OSM   H13G15804   4.915   1.275   3.705 -0.3981  0.4472  1.1144
  144OSM   C14F15805   4.884   1.190   3.906  1.0341 -0.5745  0.2531
  144OSM   H14F15806   4.855   1.101   3.966 -0.4351  0.9181  1.8913
  144OSM   H14G15807   4.812   1.267   3.942 -0.7589 -0.1554 -3.7080
  144OSM   C15F15808   5.019   1.250   3.957  0.4755 -0.0740  0.4815
  144OSM   H15F15809   5.039   1.336   3.889  0.9553 -2.2211 -2.2728
  144OSM   H15G15810   5.090   1.167   3.938 -0.0530 -0.2095 -1.0427
  144OSM   C16F15811   5.024   1.277   4.101  0.5717  0.1385 -0.2517
  144OSM   H16F15812   4.980   1.191   4.155 -0.2836  0.8377  0.2025
  144OSM   H16G15813   4.964   1.370   4.110 -1.0912 -1.0366  1.9593
  144OSM   C17F15814   5.171   1.303   4.148  0.1230 -0.0341 -0.1325
  144OSM   H17F15815   5.214   1.372   4.072  1.3151 -1.4694 -0.8042
  144OSM   H17G15816   5.221   1.203   4.151  0.9456  0.3525 -0.5684
  144OSM   C18F15817   5.180   1.379   4.275 -0.1001 -0.3861  0.0472
  144OSM   H18F15818   5.282   1.415   4.297 -0.7717  1.6299  0.0347
  144OSM   H18G15819   5.152   1.315   4.362 -0.2935  0.4446  0.6125
  144OSM   H18H15820   5.104   1.460   4.279 -1.5347 -1.6282 -0.8474
  145SAPE     N15821   2.296   1.985   7.227  0.0758 -0.2364  0.0851
  145SAPE   HN115822   2.311   2.079   7.270 -2.0249  0.4081 -0.5080
  145SAPE   HN215823   2.356   1.969   7.144  0.4657  1.3340  0.0297
  145SAPE   HN315824   2.195   1.994   7.206 -0.2815 -1.7951  1.0080
  145SAPE   C1215825   2.323   1.876   7.326 -0.3272 -0.5586 -0.3852
  145SAPE  H12A15826   2.415   1.907   7.380 -2.6519  1.4220  2.7704
  145SAPE  H12B15827   2.345   1.780   7.275 -2.9514 -2.2913  1.5215
  145SAPE   C1115828   2.191   1.858   7.410  0.3585 -0.0962  0.3402
  145SAPE  H11A15829   2.172   1.948   7.472 -1.3159  0.4258 -0.8461
  145SAPE  H11B15830   2.221   1.772   7.473 -0.1154 -1.2713 -0.9825
  145SAPE     P15831   1.959   1.744   7.369 -0.3178  0.2389  0.2533
  145SAPE   O1315832   1.989   1.682   7.500 -0.5117  0.4959  0.6628
  145SAPE   O1415833   1.834   1.826   7.365 -0.1520 -0.6272  0.8901
  145SAPE   O1215834   2.078   1.829   7.325 -0.0610 -0.6276 -0.4941
  145SAPE   O1115835   1.952   1.625   7.263  0.3768 -0.9308 -0.6738
  145SAPE    C115836   2.050   1.580   7.172 -0.1250  0.5502  0.0906
  145SAPE    HA15837   2.148   1.568   7.224 -1.4836 -0.1172  2.6436
  145SAPE    HB15838   2.035   1.477   7.133  2.2770  0.9846 -2.2841
  145SAPE    C215839   2.064   1.680   7.051  0.3796  1.3610 -0.3889
  145SAPE    HS15840   2.077   1.780   7.098 -1.2224  1.1212  0.6230
  145SAPE   O2115841   1.938   1.683   6.981  0.4843  0.8057 -0.1183
  145SAPE   C2115842   1.859   1.787   6.986 -0.0127  0.6757  0.5383
  145SAPE   O2215843   1.887   1.900   7.021 -0.4056  0.1719 -0.4650
  145SAPE   C2215844   1.719   1.752   6.936  0.4526 -0.4105  0.6405
  145SAPE   H2R15845   1.653   1.742   7.025  1.2614 -0.0681  1.2834
  145SAPE   H2S15846   1.683   1.828   6.862 -0.7577 -2.4134 -0.9317
  145SAPE    C315847   2.181   1.637   6.958  0.2909 -0.0568 -0.6243
  145SAPE    HX15848   2.167   1.528   6.940  2.3758 -0.7530  1.4882
  145SAPE    HY15849   2.280   1.643   7.007  1.5339  0.0230 -3.0382
  145SAPE   O3115850   2.191   1.714   6.839  0.4623  0.1569  0.0993
  145SAPE   C3115851   2.228   1.837   6.858  0.7103  0.3523  0.2637
  145SAPE   O3215852   2.261   1.876   6.966 -0.3549 -0.8144 -0.6151
  145SAPE   C3215853   2.224   1.918   6.731  0.1034  0.2836 -0.1684
  145SAPE   H2X15854   2.287   1.858   6.662  2.0419  1.0117  0.9087
  145SAPE   H2Y15855   2.289   2.007   6.744 -1.0048  0.9827  0.8073
  145SAPE   C2315856   1.705   1.620   6.863 -0.5679  0.3828  0.0032
  145SAPE   H3R15857   1.746   1.540   6.929 -1.4176 -0.5285 -0.5495
  145SAPE   H3S15858   1.757   1.612   6.766  0.7414 -1.1945  0.7871
  145SAPE   C2415859   1.559   1.590   6.843 -0.9021  0.5394 -0.5316
  145SAPE   H4R15860   1.511   1.594   6.943 -0.9118 -0.2843 -0.4940
  145SAPE   H4S15861   1.558   1.485   6.808  1.6380  0.1512  0.3064
  145SAPE   C2515862   1.485   1.687   6.757 -0.0212  0.0006  0.1238
  145SAPE   H5R15863   1.444   1.771   6.815  2.1356 -0.2877  2.2147
  145SAPE   C2615864   1.486   1.693   6.621  0.7141  0.1834  0.4334
  145SAPE   H6R15865   1.427   1.772   6.572  1.5423 -0.8722 -2.4484
  145SAPE   C2715866   1.565   1.609   6.523  0.0612 -0.7401  0.0351
  145SAPE   H7R15867   1.492   1.543   6.470 -1.2961  0.1020  0.8018
  145SAPE   H7S15868   1.637   1.551   6.584  2.8206 -0.2391 -2.5066
  145SAPE   C2815869   1.634   1.694   6.420  0.4234  0.3280  0.0493
  145SAPE   H8R15870   1.646   1.802   6.437  0.1201  0.4119 -0.2709
  145SAPE   C2915871   1.675   1.632   6.309  0.1061  0.4127 -0.2071
  145SAPE   H9R15872   1.728   1.687   6.230  1.2909 -0.2674  0.0882
  145SAPE  C21015873   1.660   1.484   6.286  0.4307 -0.5072 -0.0001
  145SAPE  H10R15874   1.624   1.429   6.375 -1.9276  2.4409  1.0335
  145SAPE  H10S15875   1.758   1.435   6.270  0.3640 -0.3145 -1.0331
  145SAPE  C21115876   1.588   1.459   6.153 -0.0219  0.2124 -0.1952
  145SAPE  H11R15877   1.486   1.420   6.168 -0.7653  0.2703 -4.0534
  145SAPE  C21215878   1.631   1.480   6.033 -0.4301  0.3348  0.4467
  145SAPE  H12R15879   1.569   1.464   5.944  1.4481  3.3473 -1.5772
  145SAPE  C21315880   1.772   1.519   5.988  0.8049 -0.0570  0.2900
  145SAPE  H13R15881   1.804   1.428   5.932  0.5535 -0.0298  0.0979
  145SAPE  H13S15882   1.839   1.528   6.076  0.7679  1.3438  0.1926
  145SAPE  C21415883   1.782   1.641   5.904 -0.0443 -0.8464 -0.1058
  145SAPE  H14R15884   1.777   1.736   5.959 -0.9505 -0.9101 -0.0599
  145SAPE  C21515885   1.818   1.646   5.775  0.2305  0.3170 -0.1900
  145SAPE  H15R15886   1.838   1.740   5.721  1.0577  0.3472  0.1445
  145SAPE  C21615887   1.834   1.522   5.691 -0.4777 -0.0766 -0.6570
  145SAPE  H16R15888   1.739   1.465   5.690 -1.3173  1.2698  0.1362
  145SAPE  H16S15889   1.897   1.452   5.751  0.3350  2.0878  1.1400
  145SAPE  C21715890   1.901   1.534   5.550  0.9250  0.2177  0.4743
  145SAPE  H17R15891   1.910   1.428   5.519  1.0687  0.0017  1.2345
  145SAPE  H17S15892   2.002   1.577   5.567  0.6398  0.9323  0.3988
  145SAPE  C21815893   1.828   1.629   5.454 -0.3273  0.6468 -0.0729
  145SAPE  H18R15894   1.835   1.736   5.486  0.0410  0.1862  1.4905
  145SAPE  H18S15895   1.725   1.587   5.454 -0.1531  0.1804  0.9883
  145SAPE  C21915896   1.861   1.613   5.299 -0.2018 -0.0517  0.2513
  145SAPE  H19R15897   1.773   1.657   5.248  1.8035  2.6028 -1.1988
  145SAPE  H19S15898   1.880   1.505   5.282  3.4409  0.4626  0.1667
  145SAPE  C22015899   1.980   1.700   5.254 -0.3176 -0.1089  0.4139
  145SAPE  H20R15900   1.975   1.801   5.298  0.0677  0.8235 -1.5820
  145SAPE  H20S15901   1.982   1.691   5.143 -0.0062  2.0457  0.2180
  145SAPE  H20T15902   2.073   1.647   5.285 -0.8728  0.8173  4.1984
  145SAPE   C3315903   2.076   1.950   6.684  0.0061  0.9156 -0.3871
  145SAPE   H3X15904   2.059   2.060   6.692 -1.7691  0.5237  4.0184
  145SAPE   H3Y15905   2.005   1.891   6.746  0.0290 -1.0010 -2.0787
  145SAPE   C3415906   2.047   1.907   6.538 -0.1226  0.3463  0.0245
  145SAPE   H4X15907   2.127   1.941   6.468  0.3594 -2.6660 -1.0434
  145SAPE   H4Y15908   1.957   1.962   6.506 -0.2375 -0.0023 -0.2587
  145SAPE   C3515909   2.022   1.756   6.517 -0.1355  0.0109 -0.0851
  145SAPE   H5X15910   1.934   1.716   6.572  0.2873  0.8284  1.2372
  145SAPE   H5Y15911   2.112   1.694   6.536  2.0426  2.5798 -1.3132
  145SAPE   C3615912   1.988   1.721   6.370 -0.1566 -0.3780 -0.4446
  145SAPE   H6X15913   1.922   1.804   6.335  0.1017 -0.2301 -0.5912
  145SAPE   H6Y15914   1.951   1.617   6.369  1.1459 -0.8697  0.0010
  145SAPE   C3715915   2.109   1.728   6.276 -0.3260  0.3014  0.1776
  145SAPE   H7X15916   2.181   1.657   6.320 -2.8255 -1.6801  1.3342
  145SAPE   H7Y15917   2.135   1.835   6.288 -2.0429  0.6239  1.4613
  145SAPE   C3815918   2.074   1.694   6.131 -0.5049 -0.3125 -0.0013
  145SAPE   H8X15919   2.010   1.776   6.093 -1.9623 -0.9581  0.9343
  145SAPE   H8Y15920   2.026   1.595   6.116  2.6852 -2.0012  0.0362
  145SAPE   C3915921   2.211   1.667   6.064 -0.0083 -0.5772  0.0582
  145SAPE   H9X15922   2.266   1.578   6.099  0.8677 -0.0941 -0.0556
  145SAPE   H9Y15923   2.275   1.753   6.092  0.8104 -0.8192 -1.0243
  145SAPE  C31015924   2.191   1.669   5.909 -0.0840  0.0628 -0.0590
  145SAPE  H10X15925   2.138   1.763   5.883 -0.3489 -0.1106 -0.1475
  145SAPE  H10Y15926   2.145   1.574   5.874  0.0630  0.6116 -1.8459
  145SAPE  C31115927   2.327   1.669   5.841  0.4447  0.1065 -0.0545
  145SAPE  H11X15928   2.381   1.576   5.866  1.2626  0.3547 -0.8399
  145SAPE  H11Y15929   2.386   1.757   5.872  0.0391  0.1181  0.7069
  145SAPE  C31215930   2.322   1.658   5.687  0.3569  0.3829 -0.1828
  145SAPE  H12X15931   2.297   1.759   5.648 -0.0562  0.9197  1.4000
  145SAPE  H12Y15932   2.238   1.590   5.660  0.2259 -0.2556  1.6869
  145SAPE  C31315933   2.458   1.612   5.626 -0.4613 -0.4909  0.2837
  145SAPE  H13X15934   2.484   1.515   5.674  1.4973 -0.4369 -0.5819
  145SAPE  H13Y15935   2.533   1.689   5.655 -1.4635  0.5821  0.0920
  145SAPE  C31415936   2.469   1.591   5.480  0.0528  0.0750  1.1410
  145SAPE  H14X15937   2.452   1.687   5.427 -1.4118  0.0365  1.5071
  145SAPE  H14Y15938   2.382   1.529   5.449 -0.1439  1.0048 -0.2782
  145SAPE  C31515939   2.601   1.527   5.429 -0.1496 -0.2100 -0.5433
  145SAPE  H15X15940   2.625   1.428   5.475 -0.2751  0.7952  1.8281
  145SAPE  H15Y15941   2.679   1.601   5.454 -2.2078  1.0000  3.0665
  145SAPE  C31615942   2.610   1.503   5.283 -0.3598  0.4225 -0.1245
  145SAPE  H16X15943   2.714   1.482   5.249 -0.3080 -0.4200  0.5282
  145SAPE  H16Y15944   2.562   1.582   5.222  1.3515  1.3958 -0.2582
  145SAPE  C31715945   2.544   1.369   5.243 -0.5383 -0.2831 -0.8443
  145SAPE  H17X15946   2.441   1.360   5.283 -0.4316  0.5719 -0.3706
  145SAPE  H17Y15947   2.608   1.290   5.288  2.0774  1.1954 -1.7292
  145SAPE  C31815948   2.547   1.340   5.089 -0.5679  0.3485 -0.1136
  145SAPE  H18X15949   2.520   1.419   5.016  1.4741  0.5834 -0.6643
  145SAPE  H18Y15950   2.479   1.253   5.073  1.9685 -2.3202  2.3651
  145SAPE  H18Z15951   2.647   1.296   5.070  0.4062 -0.2969  4.9874
  146SAPE     N15952   5.353   0.856   7.189 -0.2258  0.8147 -0.2186
  146SAPE   HN115953   5.372   0.958   7.192  0.4045  0.6957  0.1468
  146SAPE   HN215954   5.368   0.819   7.285 -0.9445 -0.3191 -0.5283
  146SAPE   HN315955   5.416   0.813   7.119 -1.0087  0.2417 -0.5815
  146SAPE   C1215956   5.203   0.835   7.152 -0.3426  0.0052  0.7065
  146SAPE  H12A15957   5.142   0.919   7.192 -2.5744 -1.8714  1.4521
  146SAPE  H12B15958   5.171   0.742   7.204 -0.1868 -0.3289  0.2100
  146SAPE   C1115959   5.182   0.822   7.006  0.3379 -0.4144  0.2662
  146SAPE  H11A15960   5.218   0.909   6.948  2.3476 -0.5456  1.2104
  146SAPE  H11B15961   5.072   0.830   6.992  0.5375  2.2072 -0.3105
  146SAPE     P15962   5.374   0.686   6.876 -0.2016  0.0285  0.2325
  146SAPE   O1315963   5.467   0.791   6.922  0.4724  0.0068  0.1127
  146SAPE   O1415964   5.429   0.551   6.900 -0.1283  0.6014  0.3185
  146SAPE   O1215965   5.240   0.696   6.965 -0.3770  0.4625  0.3115
  146SAPE   O1115966   5.324   0.715   6.734 -0.0294 -0.4165 -0.0338
  146SAPE    C115967   5.213   0.642   6.674 -0.2571  0.1991 -0.4561
  146SAPE    HA15968   5.193   0.545   6.724  0.7143  0.2669  0.0880
  146SAPE    HB15969   5.127   0.712   6.670  0.6870  1.3719 -3.5744
  146SAPE    C215970   5.244   0.609   6.520  0.4035  0.2072 -0.6783
  146SAPE    HS15971   5.307   0.518   6.513  1.6014  0.6806  2.3891
  146SAPE   O2115972   5.306   0.725   6.466 -0.4333  0.4028 -0.1605
  146SAPE   C2115973   5.441   0.718   6.464 -0.6153 -0.2223 -0.5546
  146SAPE   O2215974   5.504   0.616   6.468  0.0094  0.3254 -0.3458
  146SAPE   C2215975   5.499   0.859   6.466  0.4665  0.9399 -0.0080
  146SAPE   H2R15976   5.430   0.926   6.521 -0.2728 -0.2038  0.4907
  146SAPE   H2S15977   5.586   0.852   6.534  0.7836  2.2143 -0.2513
  146SAPE    C315978   5.111   0.586   6.438 -0.7009 -0.0338 -0.4040
  146SAPE    HX15979   5.134   0.597   6.330 -1.6139 -3.3482 -1.0379
  146SAPE    HY15980   5.038   0.660   6.475  0.1195 -0.2475  1.7711
  146SAPE   O3115981   5.047   0.464   6.479  0.3576 -0.8014 -0.0507
  146SAPE   C3115982   5.106   0.344   6.460 -0.4655  1.2826 -0.3496
  146SAPE   O3215983   5.221   0.330   6.421  0.4581 -0.3515  0.1103
  146SAPE   C3215984   5.019   0.228   6.503 -0.5029 -0.3586 -0.5248
  146SAPE   H2X15985   4.913   0.258   6.490 -0.1934  0.5793 -1.0386
  146SAPE   H2Y15986   5.026   0.216   6.613 -2.0889 -2.2187 -0.5782
  146SAPE   C2315987   5.553   0.905   6.326  0.1478  0.3803  0.2269
  146SAPE   H3R15988   5.634   0.833   6.300  1.8989  2.0954  0.7259
  146SAPE   H3S15989   5.605   1.003   6.336 -0.8304  0.7415  2.2793
  146SAPE   C2415990   5.443   0.920   6.220  0.1754  0.3982  0.9907
  146SAPE   H4R15991   5.460   1.016   6.166 -0.7291 -0.0466 -0.1393
  146SAPE   H4S15992   5.352   0.948   6.278 -0.7325  3.2544 -1.4826
  146SAPE   C2515993   5.430   0.794   6.138 -0.3705  0.1825  0.4097
  146SAPE   H5R15994   5.386   0.709   6.193 -1.8742  0.5463 -0.1749
  146SAPE   C2615995   5.486   0.776   6.011 -0.3375 -0.0488 -0.3835
  146SAPE   H6R15996   5.470   0.681   5.956 -1.5382  0.3249 -0.7153
  146SAPE   C2715997   5.573   0.879   5.936 -0.2617  0.3739  0.2020
  146SAPE   H7R15998   5.666   0.907   5.991  0.0058  0.1816 -0.1424
  146SAPE   H7S15999   5.519   0.974   5.920 -0.6461  0.1433  0.1305
  146SAPE   C2816000   5.615   0.832   5.797 -0.0352  0.0035 -0.5634
  146SAPE   H8R16001   5.534   0.805   5.727 -1.5291  1.3581  0.5712
  146SAPE   C2916002   5.736   0.843   5.743 -1.1482 -0.6291  0.0068
  146SAPE   H9R16003   5.746   0.813   5.638  1.4179 -0.0701  0.0330
  146SAPE  C21016004   5.871   0.861   5.827  0.2919  0.2303 -0.0378
  146SAPE  H10R16005   5.931   0.768   5.818 -2.2668 -1.3247 -3.1970
  146SAPE  H10S16006   5.863   0.864   5.938  2.0442  0.1365  0.1112
  146SAPE  C21116007   5.941   0.984   5.767 -0.4520 -0.2746 -0.0515
  146SAPE  H11R16008   5.868   1.063   5.744 -2.4873 -1.6105  1.4779
  146SAPE  C21216009   6.067   1.000   5.733  0.8385  0.4386  0.1355
  146SAPE  H12R16010   6.097   1.096   5.688 -0.9515  0.8569 -0.2207
  146SAPE  C21316011   6.170   0.892   5.757  0.0063  0.1327  0.3182
  146SAPE  H13R16012   6.153   0.827   5.668 -0.6388  1.5505 -0.6152
  146SAPE  H13S16013   6.154   0.833   5.850 -1.9237 -1.3956 -0.8985
  146SAPE  C21416014   6.313   0.939   5.778 -0.3876 -0.1376 -0.3674
  146SAPE  H14R16015   6.333   1.031   5.835 -3.2236 -1.7996  3.8380
  146SAPE  C21516016   6.419   0.879   5.721 -0.0688 -0.0591  0.5921
  146SAPE  H15R16017   6.517   0.928   5.725 -0.4996  1.0109 -0.9924
  146SAPE  C21616018   6.416   0.749   5.642  0.5059  0.7346  0.0167
  146SAPE  H16R16019   6.318   0.699   5.657  0.6282  0.4833 -0.0281
  146SAPE  H16S16020   6.498   0.686   5.681  3.3318  4.0078 -0.1434
  146SAPE  C21716021   6.427   0.774   5.485 -0.0251 -0.7102 -0.5303
  146SAPE  H17R16022   6.521   0.825   5.456 -0.2766 -0.6167 -1.1775
  146SAPE  H17S16023   6.346   0.846   5.461  1.2887  0.6929 -0.9072
  146SAPE  C21816024   6.395   0.649   5.399 -0.1991 -0.2877  0.0319
  146SAPE  H18R16025   6.395   0.672   5.290 -0.3487 -1.6123 -0.2647
  146SAPE  H18S16026   6.306   0.591   5.431 -0.6360  0.6962  0.6666
  146SAPE  C21916027   6.506   0.546   5.414 -0.7049 -0.1231  0.2722
  146SAPE  H19R16028   6.491   0.512   5.519  0.4571  0.2469  0.5728
  146SAPE  H19S16029   6.605   0.596   5.408  0.1433 -1.2871  2.9376
  146SAPE  C22016030   6.494   0.422   5.322  0.4255  0.0728  0.4623
  146SAPE  H20R16031   6.586   0.361   5.309  0.2361 -0.5867  1.9797
  146SAPE  H20S16032   6.459   0.452   5.221 -0.0170  0.5309  0.7440
  146SAPE  H20T16033   6.419   0.354   5.368 -1.0373  0.7568 -0.7991
  146SAPE   C3316034   5.040   0.094   6.435  0.3125 -0.0429 -0.2744
  146SAPE   H3X16035   4.958   0.033   6.479 -0.1749  1.4786  1.0516
  146SAPE   H3Y16036   5.140   0.062   6.469 -0.1966 -0.8053  0.5595
  146SAPE   C3416037   5.015   0.105   6.285  0.3277  1.4111  0.2781
  146SAPE   H4X16038   5.086   0.176   6.239  1.0740 -0.8789 -2.3627
  146SAPE   H4Y16039   4.910   0.139   6.268 -0.8574 -1.0550  2.0701
  146SAPE   C3516040   5.048  -0.026   6.218 -0.4489 -0.4152  0.8502
  146SAPE   H5X16041   4.983  -0.108   6.255  0.0070 -1.2290 -0.0990
  146SAPE   H5Y16042   5.156  -0.039   6.238 -0.7685 -2.2160  1.6009
  146SAPE   C3616043   5.022  -0.008   6.061 -0.4876  0.1216 -0.8236
  146SAPE   H6X16044   5.095   0.067   6.024 -1.4118  0.8191 -1.2621
  146SAPE   H6Y16045   4.927   0.048   6.054  0.2244  1.7961  1.4355
  146SAPE   C3716046   5.040  -0.133   5.970  0.6360  0.0331  0.2218
  146SAPE   H7X16047   4.989  -0.223   6.012  1.8432 -0.8765 -0.1885
  146SAPE   H7Y16048   5.148  -0.148   5.946  0.1602 -0.7414 -1.5606
  146SAPE   C3816049   4.966  -0.088   5.839  0.5470  0.9634 -0.0630
  146SAPE   H8X16050   5.004   0.004   5.790 -0.1682  0.7780 -0.9958
  146SAPE   H8Y16051   4.859  -0.075   5.866 -0.2201 -2.2056 -1.1049
  146SAPE   C3916052   4.964  -0.194   5.731 -0.3078  0.1265  0.2309
  146SAPE   H9X16053   4.917  -0.287   5.770  1.3373 -0.1908  1.5364
  146SAPE   H9Y16054   5.066  -0.223   5.698 -0.9063 -2.3919  0.3826
  146SAPE  C31016055   4.881  -0.151   5.600  0.2014  0.7444  0.1896
  146SAPE  H10X16056   4.835  -0.055   5.632  0.4087  0.3780  1.6601
  146SAPE  H10Y16057   4.794  -0.214   5.573  0.6326  0.5586 -0.8019
  146SAPE  C31116058   4.974  -0.115   5.479  0.5333  0.0977 -0.2783
  146SAPE  H11X16059   5.054  -0.192   5.483  0.7121  0.3319  1.5911
  146SAPE  H11Y16060   5.018  -0.016   5.502  0.4548 -0.5735  3.3781
  146SAPE  C31216061   4.898  -0.114   5.346 -0.0216  0.6580 -0.1420
  146SAPE  H12X16062   4.806  -0.053   5.357 -1.0712 -1.2541  2.7656
  146SAPE  H12Y16063   4.883  -0.223   5.329  0.6838  0.7565 -1.6057
  146SAPE  C31316064   4.977  -0.072   5.222 -0.1908 -0.1603  1.1337
  146SAPE  H13X16065   5.073  -0.126   5.205 -1.4534 -1.9338 -0.7980
  146SAPE  H13Y16066   5.000   0.037   5.229 -1.0999  0.5205 -3.5399
  146SAPE  C31416067   4.904  -0.098   5.086  0.6884 -0.3478  0.2646
  146SAPE  H14X16068   4.817  -0.030   5.077  1.5594  0.6877 -0.5054
  146SAPE  H14Y16069   4.866  -0.202   5.071 -0.2061  0.0748 -0.4485
  146SAPE  C31516070   4.993  -0.069   4.969 -0.3958 -0.3020 -0.1639
  146SAPE  H15X16071   4.957  -0.094   4.867  0.1911 -1.8669 -0.0217
  146SAPE  H15Y16072   5.095  -0.113   4.976 -1.2314 -2.1325  2.0069
  146SAPE  C31616073   5.018   0.084   4.970  0.2808 -0.1318  0.3425
  146SAPE  H16X16074   5.077   0.108   5.061 -1.3408 -2.2659  2.0745
  146SAPE  H16Y16075   4.927   0.146   4.981  0.0397  0.2677 -2.7984
  146SAPE  C31716076   5.085   0.129   4.841  0.6438 -0.8584  0.2656
  146SAPE  H17X16077   5.099   0.239   4.835 -1.1343 -0.5576  1.0888
  146SAPE  H17Y16078   5.018   0.088   4.762 -0.1768 -2.7416  1.8497
  146SAPE  C31816079   5.220   0.058   4.817 -0.2851  0.5330 -0.4311
  146SAPE  H18X16080   5.302   0.091   4.885 -0.4630 -0.8900  0.4899
  146SAPE  H18Y16081   5.252   0.103   4.720 -0.8726  1.0038 -0.4090
  146SAPE  H18Z16082   5.215  -0.052   4.810 -1.0449  0.4862  0.7015
  147SAPE     N16083   6.191   4.234   7.566  0.0020  0.3121  0.2659
  147SAPE   HN116084   6.162   4.294   7.645 -0.8438  0.0300  0.1867
  147SAPE   HN216085   6.104   4.213   7.511 -0.1739 -0.1492  0.7181
  147SAPE   HN316086   6.214   4.143   7.610 -1.6395 -1.1693 -1.7281
  147SAPE   C1216087   6.308   4.296   7.492 -0.2065 -0.8473  0.5295
  147SAPE  H12A16088   6.335   4.234   7.404  1.8568 -0.4186  0.7971
  147SAPE  H12B16089   6.389   4.302   7.568 -0.3001  0.3466  0.5434
  147SAPE   C1116090   6.263   4.443   7.442 -0.3512  0.0584  0.0446
  147SAPE  H11A16091   6.355   4.493   7.405 -0.0596 -2.0706 -2.4723
  147SAPE  H11B16092   6.222   4.499   7.528  1.5500  1.8064 -0.0842
  147SAPE     P16093   6.202   4.436   7.186 -0.1126  0.1297  0.2957
  147SAPE   O1316094   6.308   4.537   7.163 -0.4639  0.1802 -0.5472
  147SAPE   O1416095   6.227   4.298   7.142  0.1444  0.0438 -0.2795
  147SAPE   O1216096   6.163   4.439   7.339  0.2416 -0.7734 -0.0467
  147SAPE   O1116097   6.069   4.492   7.117 -0.1017 -0.0714  0.3102
  147SAPE    C116098   5.946   4.421   7.111 -0.0890 -0.3497  0.1799
  147SAPE    HA16099   5.962   4.314   7.137 -1.7316 -1.0468 -1.4401
  147SAPE    HB16100   5.881   4.465   7.190  0.6845 -1.1623  1.3048
  147SAPE    C216101   5.873   4.424   6.971 -0.4827  0.2422  0.6424
  147SAPE    HS16102   5.775   4.373   6.982 -0.3732 -0.4443 -1.1798
  147SAPE   O2116103   5.950   4.335   6.892 -0.3090  0.3974 -0.6498
  147SAPE   C2116104   5.889   4.261   6.803 -0.1185  0.3218  0.8189
  147SAPE   O2216105   5.770   4.259   6.774  0.0914 -0.1829 -0.6553
  147SAPE   C2216106   5.991   4.174   6.727 -0.4494 -0.2635 -0.6380
  147SAPE   H2R16107   6.081   4.194   6.788 -1.5470  1.0626  0.6215
  147SAPE   H2S16108   5.952   4.071   6.736 -0.6911 -0.3724 -2.4317
  147SAPE    C316109   5.864   4.571   6.901 -0.1817  0.1528  0.2247
  147SAPE    HX16110   5.970   4.606   6.902  0.5188 -1.8404  0.0799
  147SAPE    HY16111   5.808   4.642   6.966  0.3438  2.1833 -1.4467
  147SAPE   O3116112   5.815   4.559   6.764 -0.0090  0.1557 -0.4197
  147SAPE   C3116113   5.683   4.537   6.750 -0.0040 -0.3098 -0.3725
  147SAPE   O3216114   5.602   4.540   6.844 -0.1638  0.1994  0.2754
  147SAPE   C3216115   5.651   4.503   6.613  0.1865  0.4806  0.3848
  147SAPE   H2X16116   5.583   4.415   6.624  0.9990 -0.0769  1.0511
  147SAPE   H2Y16117   5.744   4.477   6.558  1.0537  0.6997  1.7134
  147SAPE   C2316118   6.015   4.194   6.579 -0.0852  0.2270  0.0473
  147SAPE   H3R16119   6.089   4.114   6.555 -1.2524 -0.4556 -1.4205
  147SAPE   H3S16120   6.057   4.295   6.560 -0.2811  0.4177  0.5936
  147SAPE   C2416121   5.897   4.177   6.483 -0.2311  0.4194 -0.6545
  147SAPE   H4R16122   5.813   4.249   6.495  0.5254  1.1876  0.1482
  147SAPE   H4S16123   5.870   4.071   6.496  0.4842  0.4866  1.8654
  147SAPE   C2516124   5.944   4.187   6.341 -0.0927  0.3536  1.0102
  147SAPE   H5R16125   6.051   4.179   6.320 -0.1039 -2.2408  1.5990
  147SAPE   C2616126   5.857   4.210   6.240  0.2075  0.4929  0.4474
  147SAPE   H6R16127   5.896   4.232   6.139 -2.6285 -1.9501 -1.3387
  147SAPE   C2716128   5.709   4.227   6.250 -0.4942  0.2273  0.1850
  147SAPE   H7R16129   5.662   4.201   6.347  1.6457  1.3241  1.6061
  147SAPE   H7S16130   5.674   4.151   6.177  0.8067  1.4816 -1.8604
  147SAPE   C2816131   5.669   4.367   6.211 -0.0027 -0.2379 -0.0813
  147SAPE   H8R16132   5.672   4.448   6.286  1.7623  0.5781 -0.9841
  147SAPE   C2916133   5.633   4.413   6.085 -0.2699 -0.0280 -0.0253
  147SAPE   H9R16134   5.585   4.512   6.078 -4.0341 -1.5917  1.2268
  147SAPE  C21016135   5.629   4.335   5.952 -0.4298 -0.5806 -0.9016
  147SAPE  H10R16136   5.556   4.355   5.871 -0.0330  0.8877 -0.9219
  147SAPE  H10S16137   5.615   4.229   5.983 -0.2464  0.0431  1.4801
  147SAPE  C21116138   5.764   4.332   5.888  0.7250  0.0108  0.0104
  147SAPE  H11R16139   5.840   4.390   5.942  1.2663  0.3654 -1.1152
  147SAPE  C21216140   5.799   4.250   5.787 -0.7472 -0.4759  0.3199
  147SAPE  H12R16141   5.902   4.258   5.747 -0.5121  1.6988  1.2071
  147SAPE  C21316142   5.701   4.173   5.708 -0.0264  0.1944  0.1140
  147SAPE  H13R16143   5.601   4.219   5.695  0.5852  1.5844  0.1187
  147SAPE  H13S16144   5.674   4.079   5.761 -0.8284 -2.0137 -3.8491
  147SAPE  C21416145   5.737   4.132   5.564  0.0248 -0.5759  0.3000
  147SAPE  H14R16146   5.754   4.024   5.560 -1.2732 -0.8253  1.1255
  147SAPE  C21516147   5.738   4.216   5.459 -0.2637  0.2454  0.1038
  147SAPE  H15R16148   5.771   4.181   5.360  0.3078  1.4373 -0.1519
  147SAPE  C21616149   5.709   4.364   5.458 -0.5017 -0.0285  1.0305
  147SAPE  H16R16150   5.771   4.417   5.534 -1.7044  0.6742  1.5411
  147SAPE  H16S16151   5.600   4.376   5.477 -0.8957 -2.2564  0.3669
  147SAPE  C21716152   5.740   4.430   5.320  0.5841  0.0048 -0.0056
  147SAPE  H17R16153   5.848   4.426   5.292  0.5256 -1.8143 -0.0857
  147SAPE  H17S16154   5.718   4.538   5.329  0.8557 -0.0495  1.7417
  147SAPE  C21816155   5.649   4.355   5.210 -0.5456 -0.0476  0.4500
  147SAPE  H18R16156   5.549   4.397   5.233  0.1735  0.2288  3.5271
  147SAPE  H18S16157   5.650   4.244   5.213  1.5256 -0.0584  2.3407
  147SAPE  C21916158   5.689   4.398   5.071  0.0508  0.8219 -0.0974
  147SAPE  H19R16159   5.597   4.380   5.012  1.6889 -1.0111 -2.2439
  147SAPE  H19S16160   5.783   4.345   5.045  1.1301  1.1514  2.7993
  147SAPE  C22016161   5.726   4.549   5.049  0.7017 -0.5607 -0.4406
  147SAPE  H20R16162   5.646   4.604   5.101 -1.2863 -0.5639 -3.2499
  147SAPE  H20S16163   5.731   4.563   4.939 -1.7553 -0.6940 -0.6243
  147SAPE  H20T16164   5.821   4.583   5.095  0.9480 -0.1585 -1.2251
  147SAPE   C3316165   5.589   4.615   6.533 -0.5010 -0.0559  0.1576
  147SAPE   H3X16166   5.623   4.608   6.427  3.3142 -0.0650  1.2450
  147SAPE   H3Y16167   5.630   4.714   6.563 -1.4169  0.6694 -0.8956
  147SAPE   C3416168   5.438   4.601   6.550  0.5784  0.2522 -0.0931
  147SAPE   H4X16169   5.402   4.596   6.655 -0.2051 -0.8892 -0.3965
  147SAPE   H4Y16170   5.412   4.504   6.501  0.0820  1.8237 -3.2113
  147SAPE   C3516171   5.360   4.718   6.493 -0.3696 -1.0456  0.3956
  147SAPE   H5X16172   5.376   4.814   6.548  0.4325 -0.9594  0.0353
  147SAPE   H5Y16173   5.253   4.702   6.514 -0.7314  1.2564  0.6347
  147SAPE   C3616174   5.374   4.744   6.343  0.0196 -0.0843 -0.1685
  147SAPE   H6X16175   5.480   4.764   6.313 -1.2235  3.2288 -3.0360
  147SAPE   H6Y16176   5.322   4.835   6.307  1.6698  0.5006 -1.2152
  147SAPE   C3716177   5.305   4.635   6.260 -0.5855 -0.4405  0.6131
  147SAPE   H7X16178   5.206   4.606   6.302 -1.6425 -1.1139 -2.1160
  147SAPE   H7Y16179   5.371   4.546   6.273  0.7806 -0.2204 -3.4327
  147SAPE   C3816180   5.300   4.668   6.113  0.1849 -0.0828  0.7863
  147SAPE   H8X16181   5.405   4.698   6.088  0.5636  0.0568  2.4310
  147SAPE   H8Y16182   5.239   4.758   6.089  1.5080  0.2187 -1.8637
  147SAPE   C3916183   5.271   4.540   6.026  0.1810  0.0865  0.6276
  147SAPE   H9X16184   5.168   4.523   6.063 -0.8917  0.0246 -2.1679
  147SAPE   H9Y16185   5.338   4.459   6.062 -0.0562  0.6677  2.4960
  147SAPE  C31016186   5.267   4.556   5.873 -0.1378  1.0662  0.3953
  147SAPE  H10X16187   5.348   4.613   5.823  0.4457 -1.2734 -1.5295
  147SAPE  H10Y16188   5.162   4.587   5.852 -0.5002 -1.2413 -1.6517
  147SAPE  C31116189   5.283   4.421   5.791 -0.2931 -0.1137  0.6290
  147SAPE  H11X16190   5.186   4.368   5.779 -0.0305 -0.4270 -0.1832
  147SAPE  H11Y16191   5.344   4.346   5.846 -0.2703 -2.7655 -2.6694
  147SAPE  C31216192   5.345   4.437   5.652 -0.5164 -0.4868  0.1130
  147SAPE  H12X16193   5.362   4.345   5.593  1.3984 -1.3557  1.9199
  147SAPE  H12Y16194   5.444   4.486   5.658 -1.3900  1.7546 -1.9531
  147SAPE  C31316195   5.266   4.538   5.557 -0.2247  0.9243  0.0158
  147SAPE  H13X16196   5.308   4.637   5.584  2.3691  0.5310 -2.0884
  147SAPE  H13Y16197   5.158   4.532   5.583 -0.3635 -1.7782 -0.8220
  147SAPE  C31416198   5.306   4.516   5.406  0.4861 -0.2108  0.7862
  147SAPE  H14X16199   5.267   4.417   5.374 -1.9054  0.3625  1.6847
  147SAPE  H14Y16200   5.416   4.527   5.400  0.5523 -0.3071  1.6478
  147SAPE  C31516201   5.258   4.629   5.315  0.4211  0.3533  0.4369
  147SAPE  H15X16202   5.177   4.683   5.368  2.0546  1.0212  2.4041
  147SAPE  H15Y16203   5.205   4.584   5.228 -0.8876 -0.0994  1.4304
  147SAPE  C31616204   5.365   4.725   5.276  0.2203 -0.2905  0.2541
  147SAPE  H16X16205   5.427   4.676   5.198 -0.2062  0.6065 -0.6696
  147SAPE  H16Y16206   5.424   4.736   5.370  0.3416  0.6950  0.0703
  147SAPE  C31716207   5.319   4.862   5.225 -0.2262 -0.4851 -0.0516
  147SAPE  H17X16208   5.380   4.943   5.271 -1.7495  1.2518 -0.9936
  147SAPE  H17Y16209   5.215   4.880   5.261 -0.3504  2.4756 -1.6308
  147SAPE  C31816210   5.328   4.874   5.072  0.0453 -0.6844  0.7101
  147SAPE  H18X16211   5.262   4.953   5.030 -0.1807 -1.4924 -0.4930
  147SAPE  H18Y16212   5.315   4.773   5.028  0.7222  0.3462 -2.0628
  147SAPE  H18Z16213   5.433   4.897   5.044 -0.3985  0.6360  0.0492
  148SAPE     N16214   4.047   5.449   7.566  0.6939  0.6317 -0.1516
  148SAPE   HN116215   3.991   5.499   7.639  2.8944  2.2977  0.5449
  148SAPE   HN216216   4.043   5.346   7.554  1.0496  0.4194  1.3416
  148SAPE   HN316217   4.144   5.477   7.595  0.2355  1.9595  0.1749
  148SAPE   C1216218   4.042   5.521   7.438 -0.0792 -0.4248 -0.6693
  148SAPE  H12A16219   3.942   5.498   7.396 -0.4883 -0.2712  0.1976
  148SAPE  H12B16220   4.127   5.480   7.379  0.1769 -1.6313  0.4860
  148SAPE   C1116221   4.057   5.671   7.461  0.1279  0.1609 -0.7799
  148SAPE  H11A16222   4.147   5.690   7.523 -1.0979  1.8533  0.5705
  148SAPE  H11B16223   3.964   5.704   7.512  0.6991 -0.1711  0.5224
  148SAPE     P16224   4.066   5.886   7.313 -0.2610 -0.2961  0.4390
  148SAPE   O1316225   4.059   5.959   7.441  0.1004  0.2771  0.2342
  148SAPE   O1416226   4.167   5.936   7.216 -0.3772  0.4778  0.3293
  148SAPE   O1216227   4.090   5.735   7.335  0.4904  0.2863 -1.1905
  148SAPE   O1116228   3.925   5.885   7.251  1.0763 -0.2143  0.0496
  148SAPE    C116229   3.856   5.780   7.179 -0.1570  0.2142 -0.6503
  148SAPE    HA16230   3.879   5.688   7.238 -0.7880  0.2548 -0.3325
  148SAPE    HB16231   3.746   5.795   7.173 -0.3236 -0.3310  0.6539
  148SAPE    C216232   3.892   5.780   7.028  1.0019  0.1722  0.3217
  148SAPE    HS16233   3.994   5.739   7.017  0.3660 -1.5340  0.4523
  148SAPE   O2116234   3.885   5.921   6.981 -0.4841  0.3120  0.1084
  148SAPE   C2116235   3.976   5.950   6.887 -0.7307 -0.7067 -0.0211
  148SAPE   O2216236   4.080   5.886   6.868  0.3116 -0.0584 -0.0256
  148SAPE   C2216237   3.948   6.080   6.812 -0.5334  0.3317 -0.3278
  148SAPE   H2R16238   3.859   6.070   6.746 -1.2297  0.6490  0.5474
  148SAPE   H2S16239   3.932   6.156   6.891 -0.0577  0.5896 -0.4717
  148SAPE    C316240   3.803   5.688   6.941 -0.5527  0.7847  0.1861
  148SAPE    HX16241   3.696   5.713   6.960 -0.9378 -0.1671 -0.6661
  148SAPE    HY16242   3.823   5.586   6.980 -0.1167  1.0141  0.5697
  148SAPE   O3116243   3.840   5.706   6.800  0.2439  0.1054  0.0535
  148SAPE   C3116244   3.945   5.645   6.748  0.1108 -0.4531 -0.1795
  148SAPE   O3216245   4.024   5.585   6.815  0.1896  0.3838 -0.2726
  148SAPE   C3216246   3.969   5.673   6.603 -0.5575 -0.1738 -0.1549
  148SAPE   H2X16247   4.072   5.642   6.576 -1.1402 -2.9081  0.4319
  148SAPE   H2Y16248   3.945   5.780   6.584 -1.2529 -0.3234 -0.1229
  148SAPE   C2316249   4.066   6.117   6.715  0.7847  0.2021 -0.2660
  148SAPE   H3R16250   4.118   6.023   6.689 -1.9451 -1.7681  0.9073
  148SAPE   H3S16251   4.133   6.189   6.767 -1.2897  1.6884  0.4738
  148SAPE   C2416252   4.031   6.200   6.589 -0.4020 -0.2172 -0.1244
  148SAPE   H4R16253   4.007   6.132   6.505  1.4618  0.6602 -1.4334
  148SAPE   H4S16254   4.131   6.232   6.553 -1.0308  1.2658 -0.6350
  148SAPE   C2516255   3.938   6.318   6.601 -0.2585  0.1403 -0.0769
  148SAPE   H5R16256   3.925   6.365   6.700 -1.3733  1.4037 -0.7830
  148SAPE   C2616257   3.883   6.380   6.501 -0.7582 -0.4921  0.2609
  148SAPE   H6R16258   3.805   6.454   6.525 -0.3423  0.4110 -1.0365
  148SAPE   C2716259   3.913   6.351   6.357 -0.3446 -0.4110  0.1542
  148SAPE   H7R16260   3.823   6.333   6.295  0.0838  0.8654 -0.8884
  148SAPE   H7S16261   3.978   6.261   6.349  0.2108 -0.1793  1.6339
  148SAPE   C2816262   3.990   6.466   6.294  0.0894 -0.1674  0.0377
  148SAPE   H8R16263   3.995   6.556   6.358 -1.8922 -0.1182  0.2005
  148SAPE   C2916264   4.045   6.464   6.169 -0.7676 -0.3289  0.1824
  148SAPE   H9R16265   4.096   6.548   6.119  1.8001 -2.7211 -1.5205
  148SAPE  C21016266   4.031   6.345   6.074  0.4451  0.1769 -0.0424
  148SAPE  H10R16267   3.974   6.370   5.982 -1.1097  0.7076  1.0332
  148SAPE  H10S16268   3.972   6.265   6.124 -1.4309  0.2246 -2.0428
  148SAPE  C21116269   4.166   6.290   6.043  0.6536 -0.2468  0.0684
  148SAPE  H11R16270   4.251   6.299   6.112 -0.8382  0.8275  1.8744
  148SAPE  C21216271   4.194   6.206   5.939  0.0977  0.2478 -0.2670
  148SAPE  H12R16272   4.290   6.154   5.941 -0.5988 -1.0292  0.6945
  148SAPE  C21316273   4.106   6.151   5.831 -0.1668  0.8198  0.1611
  148SAPE  H13R16274   4.021   6.105   5.886  0.9294  0.5042  1.6762
  148SAPE  H13S16275   4.162   6.066   5.786 -1.3404  0.4945 -0.7236
  148SAPE  C21416276   4.058   6.249   5.728 -0.1950 -0.3897 -0.8156
  148SAPE  H14R16277   4.028   6.347   5.768  2.7456  0.2516  0.0518
  148SAPE  C21516278   4.034   6.239   5.592 -0.3646  0.0822  0.5839
  148SAPE  H15R16279   4.023   6.330   5.532  0.4589 -1.1613 -1.5737
  148SAPE  C21616280   4.053   6.116   5.506 -0.0633 -0.1926 -0.2182
  148SAPE  H16R16281   4.107   6.033   5.558  0.4148  1.4707  2.0783
  148SAPE  H16S16282   4.114   6.139   5.416 -0.6370  0.2971 -0.4844
  148SAPE  C21716283   3.919   6.057   5.457 -0.2747 -0.4991  0.3993
  148SAPE  H17R16284   3.847   6.022   5.533  0.3949  0.1932  1.3661
  148SAPE  H17S16285   3.954   5.964   5.406  0.0798 -0.3578  0.3832
  148SAPE  C21816286   3.844   6.134   5.349 -0.0530 -0.0109 -0.1287
  148SAPE  H18R16287   3.822   6.239   5.376  2.1563  0.6885 -0.8071
  148SAPE  H18S16288   3.746   6.086   5.333  0.8393 -1.6422 -1.0180
  148SAPE  C21916289   3.917   6.140   5.213 -0.0866 -0.0340  0.2237
  148SAPE  H19R16290   3.984   6.055   5.186  0.3748 -0.1012  1.4939
  148SAPE  H19S16291   3.991   6.224   5.215 -0.7174  0.6306 -2.0858
  148SAPE  C22016292   3.815   6.157   5.096  0.3404 -0.6329 -0.4637
  148SAPE  H20R16293   3.870   6.210   5.015 -0.3759  1.1472  0.1645
  148SAPE  H20S16294   3.735   6.231   5.115  0.4600 -0.3883 -0.9073
  148SAPE  H20T16295   3.777   6.054   5.083  0.4306 -0.8615  0.8883
  148SAPE   C3316296   3.855   5.595   6.532  0.0189  0.1690  0.3127
  148SAPE   H3X16297   3.756   5.629   6.570 -0.1047 -1.2738  1.3798
  148SAPE   H3Y16298   3.863   5.487   6.556 -0.9492  0.1168  0.4282
  148SAPE   C3416299   3.869   5.604   6.386  0.0316 -0.4262  0.1948
  148SAPE   H4X16300   3.976   5.616   6.361 -0.4111 -0.6385 -1.9841
  148SAPE   H4Y16301   3.818   5.689   6.335 -0.3250 -1.9186 -2.0558
  148SAPE   C3516302   3.815   5.482   6.309  0.5503  0.4558 -0.5524
  148SAPE   H5X16303   3.849   5.391   6.363 -0.1362  0.7064  0.3314
  148SAPE   H5Y16304   3.855   5.473   6.205  0.5148 -1.7391 -0.4322
  148SAPE   C3616305   3.660   5.473   6.292 -0.2533 -0.6832  0.6976
  148SAPE   H6X16306   3.628   5.553   6.222  2.6277 -0.1787 -0.1802
  148SAPE   H6Y16307   3.624   5.502   6.393 -0.5259 -0.4280  0.5298
  148SAPE   C3716308   3.616   5.329   6.259  0.0861 -0.2712  0.1238
  148SAPE   H7X16309   3.506   5.322   6.260  0.0506  0.1625 -0.0920
  148SAPE   H7Y16310   3.646   5.256   6.337 -3.0765 -1.4525  0.3447
  148SAPE   C3816311   3.672   5.275   6.123 -0.9102  0.0832  0.7733
  148SAPE   H8X16312   3.665   5.164   6.120 -0.5800  0.0829 -0.3185
  148SAPE   H8Y16313   3.777   5.308   6.112 -0.4475 -1.2407  1.0357
  148SAPE   C3916314   3.596   5.329   6.003  0.5444  0.1311 -0.4029
  148SAPE   H9X16315   3.587   5.440   5.996  0.3755  0.1401 -0.0650
  148SAPE   H9Y16316   3.494   5.286   6.001 -0.7155  2.8838 -2.3284
  148SAPE  C31016317   3.655   5.288   5.867 -0.0515 -0.7585  1.1511
  148SAPE  H10X16318   3.648   5.177   5.861  0.5245 -0.7228 -2.6125
  148SAPE  H10Y16319   3.762   5.319   5.860 -0.2534 -0.2562 -0.2352
  148SAPE  C31116320   3.581   5.343   5.740 -0.6767 -0.0609  0.0687
  148SAPE  H11X16321   3.569   5.454   5.742  2.7677  0.5587 -3.1424
  148SAPE  H11Y16322   3.481   5.295   5.749 -0.0446 -1.4249  0.0780
  148SAPE  C31216323   3.639   5.320   5.604  0.0779  0.3327 -0.2035
  148SAPE  H12X16324   3.563   5.362   5.536 -1.3769 -0.9333  0.5872
  148SAPE  H12Y16325   3.640   5.210   5.590 -2.0799  0.1332  0.8775
  148SAPE  C31316326   3.775   5.378   5.581  0.7946  0.2791  0.5715
  148SAPE  H13X16327   3.846   5.334   5.655 -1.6252 -3.0211  1.1891
  148SAPE  H13Y16328   3.772   5.488   5.591 -0.0305  0.3281 -0.1433
  148SAPE  C31416329   3.827   5.337   5.443  0.2112 -0.5011 -0.3214
  148SAPE  H14X16330   3.806   5.232   5.414  0.3993 -0.2638 -1.3573
  148SAPE  H14Y16331   3.937   5.354   5.450  0.0895 -0.3855  4.1958
  148SAPE  C31516332   3.794   5.441   5.331  0.2516 -0.1234  0.4823
  148SAPE  H15X16333   3.804   5.542   5.378 -1.6160 -0.1084  0.9454
  148SAPE  H15Y16334   3.684   5.423   5.329  0.4790 -2.0756  2.4217
  148SAPE  C31616335   3.855   5.421   5.189  0.4371 -0.1542 -0.6078
  148SAPE  H16X16336   3.820   5.328   5.140  0.7102  0.8240 -2.8103
  148SAPE  H16Y16337   3.964   5.414   5.208  0.5313  2.1689  0.1286
  148SAPE  C31716338   3.833   5.546   5.098  0.7409  0.4562  0.6139
  148SAPE  H17X16339   3.890   5.637   5.125  1.0432  0.4296  0.0913
  148SAPE  H17Y16340   3.728   5.581   5.103  0.2417 -1.1204  1.8287
  148SAPE  C31816341   3.874   5.517   4.948 -0.4641  0.2495 -0.2799
  148SAPE  H18X16342   3.983   5.493   4.942 -0.7778 -0.9254 -2.1397
  148SAPE  H18Y16343   3.850   5.593   4.871  0.3560  1.6094  0.7816
  148SAPE  H18Z16344   3.821   5.424   4.917  0.5036 -0.4964  0.2251
  149SAPE     N16345   3.777   6.083   7.336 -0.2025  0.0804  0.2091
  149SAPE   HN116346   3.851   6.154   7.353 -2.0148  2.1283 -0.0966
  149SAPE   HN216347   3.724   6.055   7.421  0.9645 -0.4028  0.8039
  149SAPE   HN316348   3.836   6.009   7.293  0.5445  1.7751 -1.8538
  149SAPE   C1216349   3.687   6.146   7.240  0.3826 -0.0239 -0.3217
  149SAPE  H12A16350   3.747   6.189   7.158  0.4845 -0.2338 -0.3570
  149SAPE  H12B16351   3.635   6.232   7.289 -0.9883 -0.2832 -1.2691
  149SAPE   C1116352   3.581   6.050   7.183 -0.1405 -0.2737 -0.1123
  149SAPE  H11A16353   3.629   5.972   7.120  1.8798  0.6093  0.2800
  149SAPE  H11B16354   3.515   6.094   7.105  1.1143  0.3001 -0.8806
  149SAPE     P16355   3.366   6.026   7.329  0.1540 -0.1180  0.2570
  149SAPE   O1316356   3.319   5.932   7.433 -0.0490  0.1870  0.2986
  149SAPE   O1416357   3.380   6.165   7.371  0.6316  0.1601  0.8897
  149SAPE   O1216358   3.515   5.979   7.286  0.7695  0.1764 -0.1669
  149SAPE   O1116359   3.283   6.001   7.204  0.2209  0.4485 -0.2018
  149SAPE    C116360   3.241   5.868   7.177  0.7540 -0.5691  0.2980
  149SAPE    HA16361   3.328   5.799   7.182  1.5847  0.5329  1.8842
  149SAPE    HB16362   3.185   5.829   7.265  1.0218  0.6908  1.0491
  149SAPE    C216363   3.163   5.857   7.043  0.1829 -0.1549 -0.0208
  149SAPE    HS16364   3.161   5.747   7.031  2.8492 -0.4213  1.1421
  149SAPE   O2116365   3.235   5.924   6.941 -0.0569 -0.8513  0.4716
  149SAPE   C2116366   3.355   5.895   6.919 -0.1498 -0.5187 -0.3168
  149SAPE   O2216367   3.421   5.803   6.966 -0.0500 -0.0489  0.2357
  149SAPE   C2216368   3.413   6.001   6.812 -0.3693  0.7111 -0.2814
  149SAPE   H2R16369   3.350   6.092   6.809  0.1244  1.1279  1.1468
  149SAPE   H2S16370   3.515   6.029   6.847 -0.5467  0.8211  0.1428
  149SAPE    C316371   3.014   5.902   7.058 -0.6110  0.2597 -0.2697
  149SAPE    HX16372   3.013   6.002   7.105  1.7834  0.2036  0.0263
  149SAPE    HY16373   2.966   5.834   7.131  3.7462 -1.4728  1.3349
  149SAPE   O3116374   2.940   5.901   6.935  0.1694 -0.3751 -0.3729
  149SAPE   C3116375   2.944   6.011   6.855 -0.1976  0.9043  1.0657
  149SAPE   O3216376   3.014   6.112   6.867  0.3386  0.7645 -0.2479
  149SAPE   C3216377   2.870   5.979   6.726  0.4257  0.3631 -0.4112
  149SAPE   H2X16378   2.774   6.034   6.728  0.9690  1.3330 -0.4107
  149SAPE   H2Y16379   2.851   5.870   6.714 -1.0378  0.7109 -1.5941
  149SAPE   C2316380   3.415   5.937   6.670 -0.9991  0.2876  0.0814
  149SAPE   H3R16381   3.397   6.017   6.596 -3.2357 -0.8575 -0.7021
  149SAPE   H3S16382   3.346   5.850   6.658 -0.1660 -0.1354 -2.1755
  149SAPE   C2416383   3.560   5.887   6.640 -0.6075 -0.0491 -1.2338
  149SAPE   H4R16384   3.586   5.825   6.728 -0.6271  2.3778  0.5530
  149SAPE   H4S16385   3.625   5.977   6.633 -0.3848 -0.2605 -2.1032
  149SAPE   C2516386   3.548   5.794   6.521  1.5073 -0.9387 -0.1399
  149SAPE   H5R16387   3.527   5.689   6.548  0.4411 -0.7982 -0.3886
  149SAPE   C2616388   3.578   5.830   6.394  0.7414  0.1315  0.1411
  149SAPE   H6R16389   3.563   5.747   6.323  2.9517 -0.6612  0.5127
  149SAPE   C2716390   3.627   5.964   6.346 -0.6758 -0.0730  0.2363
  149SAPE   H7R16391   3.591   6.047   6.410  0.9989  1.4385 -0.7107
  149SAPE   H7S16392   3.586   5.973   6.244 -1.4478 -1.0490  0.4395
  149SAPE   C2816393   3.779   5.982   6.346 -0.1691  0.1956 -0.6776
  149SAPE   H8R16394   3.824   6.004   6.444  0.8344  2.2170 -1.5337
  149SAPE   C2916395   3.863   5.998   6.240 -0.4737  0.2497  0.2847
  149SAPE   H9R16396   3.966   6.024   6.271 -0.9196  1.9535  0.4768
  149SAPE  C21016397   3.818   5.971   6.096 -0.4523  0.2806 -0.2854
  149SAPE  H10R16398   3.870   6.041   6.028  0.6115  0.7957  1.0139
  149SAPE  H10S16399   3.714   6.000   6.073 -1.2569 -0.1197  2.5238
  149SAPE  C21116400   3.853   5.830   6.061 -0.6821 -0.5165  0.5837
  149SAPE  H11R16401   3.955   5.801   6.088 -0.6587 -0.0870  0.9587
  149SAPE  C21216402   3.775   5.735   5.999  0.6818 -0.0689  0.1979
  149SAPE  H12R16403   3.817   5.636   5.975 -0.1223 -0.8324  1.7699
  149SAPE  C21316404   3.632   5.745   5.944 -0.3009 -0.4640  0.2862
  149SAPE  H13R16405   3.552   5.764   6.019  0.4647  0.2244  0.9452
  149SAPE  H13S16406   3.607   5.647   5.897 -2.9882  1.0739 -1.8335
  149SAPE  C21416407   3.624   5.860   5.846  0.4323  0.5915  0.1147
  149SAPE  H14R16408   3.591   5.954   5.891 -0.6727 -0.1391  0.8810
  149SAPE  C21516409   3.646   5.858   5.716 -0.6948 -0.3543  0.3191
  149SAPE  H15R16410   3.640   5.953   5.661  0.4754  0.0757  0.9132
  149SAPE  C21616411   3.673   5.733   5.638 -0.1462  0.1647  0.6769
  149SAPE  H16R16412   3.694   5.643   5.700  2.8145 -0.9131 -1.6368
  149SAPE  H16S16413   3.775   5.740   5.593  0.2362 -0.6519  1.3835
  149SAPE  C21716414   3.580   5.703   5.513  0.4597 -0.2389 -0.1593
  149SAPE  H17R16415   3.472   5.691   5.536  0.4557  0.4700  0.1875
  149SAPE  H17S16416   3.603   5.596   5.493  0.0716 -0.5399  0.9258
  149SAPE  C21816417   3.609   5.786   5.389  0.0791  0.0360 -0.3574
  149SAPE  H18R16418   3.718   5.783   5.365 -0.0750 -1.2833 -1.0037
  149SAPE  H18S16419   3.577   5.892   5.396  0.6741  0.2258 -0.4168
  149SAPE  C21916420   3.535   5.739   5.265 -0.2011 -0.5343  0.1024
  149SAPE  H19R16421   3.586   5.647   5.231  1.2006  0.8343 -1.7254
  149SAPE  H19S16422   3.563   5.806   5.181  1.7516 -1.7341 -0.2620
  149SAPE  C22016423   3.388   5.715   5.277  0.2900 -0.1845 -0.0447
  149SAPE  H20R16424   3.332   5.693   5.184  0.0462 -4.8496  0.9703
  149SAPE  H20S16425   3.344   5.808   5.321 -1.8789 -1.1539 -0.0403
  149SAPE  H20T16426   3.367   5.640   5.356  1.0577  0.5547  0.8952
  149SAPE   C3316427   2.955   6.023   6.605  0.3507  0.0812  0.3287
  149SAPE   H3X16428   2.987   6.128   6.617 -2.9613  1.6766 -2.6047
  149SAPE   H3Y16429   2.884   6.025   6.519 -1.6397  0.7955  1.8959
  149SAPE   C3416430   3.067   5.923   6.577  0.0023  0.4997  0.7380
  149SAPE   H4X16431   3.009   5.831   6.554  0.4127 -0.4292  3.0676
  149SAPE   H4Y16432   3.132   5.914   6.667 -0.4185 -0.8576  0.9306
  149SAPE   C3516433   3.148   5.949   6.453 -0.0344 -0.4590  0.7734
  149SAPE   H5X16434   3.237   5.883   6.442  1.9212  2.3202 -1.8768
  149SAPE   H5Y16435   3.180   6.055   6.452 -1.6787  0.0768 -0.4256
  149SAPE   C3616436   3.063   5.915   6.327  0.8427 -0.4968 -0.1565
  149SAPE   H6X16437   2.969   5.973   6.316  1.4478  0.2463 -1.6692
  149SAPE   H6Y16438   3.022   5.813   6.345  2.2368 -1.4559 -1.9601
  149SAPE   C3716439   3.144   5.907   6.193 -0.2574  0.7273  0.3815
  149SAPE   H7X16440   3.220   5.837   6.232 -2.3643 -0.7179  2.1149
  149SAPE   H7Y16441   3.195   6.003   6.168  0.2631  0.0994 -1.0669
  149SAPE   C3816442   3.069   5.848   6.073 -0.1334  0.0833  0.6572
  149SAPE   H8X16443   2.979   5.908   6.050  0.3911  0.4436 -0.5341
  149SAPE   H8Y16444   3.031   5.745   6.091 -0.3840  0.0494 -0.0384
  149SAPE   C3916445   3.148   5.861   5.937  0.2952 -0.2129  0.3959
  149SAPE   H9X16446   3.243   5.803   5.939  1.4878  1.6763  1.0082
  149SAPE   H9Y16447   3.185   5.964   5.917  0.0435 -0.0429  0.7886
  149SAPE  C31016448   3.054   5.803   5.828 -0.1469  1.0811 -0.0724
  149SAPE  H10X16449   2.959   5.860   5.840 -0.1337  0.5467  4.7007
  149SAPE  H10Y16450   3.034   5.696   5.854  0.2132  1.1805  0.6154
  149SAPE  C31116451   3.085   5.816   5.679 -0.5777 -0.4019  1.1318
  149SAPE  H11X16452   2.995   5.790   5.618  0.3511  1.2400 -1.0901
  149SAPE  H11Y16453   3.156   5.741   5.638  0.0968  0.0475  1.4689
  149SAPE  C31216454   3.122   5.959   5.642  0.3084 -0.0667  0.2028
  149SAPE  H12X16455   3.208   6.000   5.700 -0.7085  2.4790  0.0471
  149SAPE  H12Y16456   3.037   6.030   5.655  1.4942  1.9854 -2.3335
  149SAPE  C31316457   3.151   5.951   5.487 -0.1209 -0.5766 -0.4095
  149SAPE  H13X16458   3.087   5.878   5.432  0.0727  0.6015 -2.3193
  149SAPE  H13Y16459   3.255   5.914   5.484 -0.1798 -1.1086  2.0486
  149SAPE  C31416460   3.145   6.078   5.401 -1.2358  0.4592  0.0458
  149SAPE  H14X16461   3.173   6.169   5.457 -1.5133  0.6804 -0.1711
  149SAPE  H14Y16462   3.044   6.097   5.358  0.2035 -0.5161 -4.2483
  149SAPE  C31516463   3.238   6.063   5.281 -0.3430 -0.0829 -0.1230
  149SAPE  H15X16464   3.231   5.955   5.253  0.9363  0.1726 -1.5217
  149SAPE  H15Y16465   3.345   6.083   5.303 -0.5438  1.3352 -0.3503
  149SAPE  C31616466   3.183   6.139   5.163 -0.1430 -0.9834  0.3666
  149SAPE  H16X16467   3.184   6.247   5.188 -3.2009 -1.2537  2.1096
  149SAPE  H16Y16468   3.074   6.121   5.152  0.1140 -1.4679 -2.0657
  149SAPE  C31716469   3.258   6.107   5.038 -0.4659 -0.0243  0.1634
  149SAPE  H17X16470   3.221   6.169   4.953 -0.2471  0.6297  0.5358
  149SAPE  H17Y16471   3.241   6.000   5.017  0.3830  0.0426 -1.0271
  149SAPE  C31816472   3.408   6.139   5.042 -0.1930  0.4014 -0.0946
  149SAPE  H18X16473   3.447   6.120   4.940 -1.3643 -1.1363 -0.2832
  149SAPE  H18Y16474   3.471   6.069   5.102 -0.5968 -2.5470 -2.8598
  149SAPE  H18Z16475   3.423   6.242   5.082 -4.3703  0.0666  3.1141
  150SAPE     N16476   5.813   1.679   7.054 -0.1280 -0.4135 -0.1932
  150SAPE   HN116477   5.856   1.683   6.959  0.5738  2.7595  0.1709
  150SAPE   HN216478   5.793   1.777   7.082 -0.2706 -0.3827 -0.3984
  150SAPE   HN316479   5.894   1.642   7.107 -0.8386  2.0167  2.7932
  150SAPE   C1216480   5.698   1.593   7.056 -0.0438 -0.3042 -0.3365
  150SAPE  H12A16481   5.611   1.644   7.008 -0.8567 -1.1514  0.1960
  150SAPE  H12B16482   5.663   1.569   7.159 -0.1623 -3.1530 -0.9498
  150SAPE   C1116483   5.724   1.464   6.978  0.4554  0.2354  0.3610
  150SAPE  H11A16484   5.767   1.498   6.881  0.4422 -0.7892 -0.0173
  150SAPE  H11B16485   5.621   1.428   6.956  0.2447  0.9034  0.2113
  150SAPE     P16486   5.789   1.240   7.088  0.0672 -0.1810 -0.2465
  150SAPE   O1316487   5.913   1.173   7.132 -0.2709  0.0527  0.3036
  150SAPE   O1416488   5.671   1.251   7.182 -0.3652  0.0595 -0.1194
  150SAPE   O1216489   5.826   1.381   7.038 -0.1908  0.1618 -0.1173
  150SAPE   O1116490   5.737   1.173   6.951 -0.1996 -0.1797 -0.3660
  150SAPE    C116491   5.809   1.153   6.834  0.5564 -0.2381  0.4749
  150SAPE    HA16492   5.910   1.200   6.839 -0.2317  1.6556 -0.3921
  150SAPE    HB16493   5.822   1.043   6.830 -2.8128 -0.9805  4.1703
  150SAPE    C216494   5.727   1.192   6.706 -0.2079 -0.1173  1.0316
  150SAPE    HS16495   5.759   1.123   6.625 -0.7303 -2.8452  3.0099
  150SAPE   O2116496   5.727   1.336   6.671 -0.3156  0.1834  0.9145
  150SAPE   C2116497   5.838   1.367   6.605  0.1399  0.6344  0.0409
  150SAPE   O2216498   5.927   1.290   6.574 -0.0654 -0.7476  0.4127
  150SAPE   C2216499   5.824   1.505   6.547 -0.5695  0.0637  0.1454
  150SAPE   H2R16500   5.751   1.501   6.464  0.6849  0.8690 -1.0323
  150SAPE   H2S16501   5.791   1.572   6.629  2.8256  0.3284  1.4544
  150SAPE    C316502   5.576   1.157   6.721  0.3319 -0.1400 -0.1436
  150SAPE    HX16503   5.534   1.222   6.801  0.1029  0.0115 -0.3888
  150SAPE    HY16504   5.555   1.051   6.745  1.7581 -0.6215 -0.8775
  150SAPE   O3116505   5.505   1.179   6.593 -0.4149 -0.0756 -0.0725
  150SAPE   C3116506   5.428   1.285   6.586 -0.0406 -0.2529 -0.0825
  150SAPE   O3216507   5.403   1.370   6.671 -0.0846  0.1259  0.2962
  150SAPE   C3216508   5.350   1.276   6.451 -0.7093  0.9024 -0.2386
  150SAPE   H2X16509   5.257   1.221   6.476 -1.4306  2.9902  2.0464
  150SAPE   H2Y16510   5.411   1.215   6.382 -1.5304 -0.3582  0.1050
  150SAPE   C2316511   5.960   1.569   6.509  0.4105 -0.0906 -0.5544
  150SAPE   H3R16512   6.019   1.502   6.443  1.1974  0.4095 -0.3822
  150SAPE   H3S16513   6.018   1.589   6.602 -0.6402  0.9884 -0.1048
  150SAPE   C2416514   5.956   1.705   6.430 -0.7975  0.3007  0.2076
  150SAPE   H4R16515   6.062   1.735   6.414 -0.0197 -2.0090  0.6198
  150SAPE   H4S16516   5.895   1.777   6.488 -2.7620 -0.4617 -0.8352
  150SAPE   C2516517   5.899   1.683   6.291 -0.0566 -0.3689  0.1859
  150SAPE   H5R16518   5.850   1.590   6.260 -0.9201  0.3775 -0.7257
  150SAPE   C2616519   5.914   1.778   6.192 -0.3252 -0.2157 -0.6783
  150SAPE   H6R16520   5.876   1.752   6.092 -1.4637  3.4630 -1.3635
  150SAPE   C2716521   5.979   1.912   6.204  0.7255 -0.0153  0.3068
  150SAPE   H7R16522   6.085   1.880   6.193 -0.0348 -3.0122  0.8253
  150SAPE   H7S16523   5.966   1.965   6.301 -3.9967 -1.8348  0.9350
  150SAPE   C2816524   5.951   2.002   6.093 -0.6652 -0.2128 -0.1132
  150SAPE   H8R16525   5.888   2.091   6.113 -0.6385  0.5768 -3.0337
  150SAPE   C2916526   5.998   1.992   5.962  0.2686  0.5511  1.1174
  150SAPE   H9R16527   5.973   2.073   5.893  1.3619 -1.7121 -2.1928
  150SAPE  C21016528   6.078   1.885   5.900  0.5481  0.1817  0.0356
  150SAPE  H10R16529   6.045   1.790   5.947 -0.5423 -0.3151 -1.6606
  150SAPE  H10S16530   6.184   1.892   5.933  0.0554 -0.0097  1.7592
  150SAPE  C21116531   6.073   1.888   5.746  0.0681 -0.0102  0.4631
  150SAPE  H11R16532   5.973   1.874   5.702  0.2867 -2.3266  0.5648
  150SAPE  C21216533   6.179   1.908   5.665 -0.2107 -0.3123  0.0854
  150SAPE  H12R16534   6.164   1.894   5.556 -2.8425 -0.4384  0.3906
  150SAPE  C21316535   6.329   1.939   5.704 -0.0070  0.4673 -0.1196
  150SAPE  H13R16536   6.333   1.944   5.815 -2.0861 -0.7531  0.0573
  150SAPE  H13S16537   6.372   2.029   5.654  0.3290  1.1235  1.2919
  150SAPE  C21416538   6.412   1.821   5.656  0.0883 -0.1391 -0.3191
  150SAPE  H14R16539   6.368   1.721   5.660  0.7156 -0.4034  0.2281
  150SAPE  C21516540   6.529   1.824   5.592  0.4109  0.3707  0.2697
  150SAPE  H15R16541   6.577   1.733   5.554  2.3101  2.1465 -1.8692
  150SAPE  C21616542   6.606   1.947   5.546 -0.3613  0.5257 -0.2815
  150SAPE  H16R16543   6.712   1.956   5.579 -0.6645  1.0236  0.5915
  150SAPE  H16S16544   6.565   2.040   5.592  0.0530  1.0946 -1.0342
  150SAPE  C21716545   6.608   1.961   5.392 -0.7697  0.1327  0.3723
  150SAPE  H17R16546   6.632   2.066   5.367  0.6461  0.0620  1.2607
  150SAPE  H17S16547   6.506   1.941   5.352 -2.0167  1.1213  2.8690
  150SAPE  C21816548   6.715   1.876   5.323  0.2169  0.4997  0.9259
  150SAPE  H18R16549   6.691   1.768   5.338 -2.5709  0.9786  0.5055
  150SAPE  H18S16550   6.818   1.903   5.353  0.9121  0.7140 -1.5165
  150SAPE  C21916551   6.702   1.887   5.162  0.3547  0.0896  0.3209
  150SAPE  H19R16552   6.598   1.869   5.126  1.1397 -0.1125 -1.9997
  150SAPE  H19S16553   6.766   1.799   5.139  2.0634  0.8313  1.9504
  150SAPE  C22016554   6.753   2.023   5.110 -0.1548  0.8339  0.8192
  150SAPE  H20R16555   6.681   2.100   5.144 -1.5614  0.8008 -1.8487
  150SAPE  H20S16556   6.769   2.021   5.000  1.2191 -0.9221  0.9999
  150SAPE  H20T16557   6.852   2.037   5.159  0.2272  0.2638  0.2193
  150SAPE   C3316558   5.320   1.403   6.372  0.5217  0.2759 -0.3001
  150SAPE   H3X16559   5.414   1.448   6.334  0.8510  1.3441  1.6180
  150SAPE   H3Y16560   5.285   1.482   6.441 -0.6325  1.9632 -2.6969
  150SAPE   C3416561   5.215   1.375   6.262 -0.1876 -0.5747  0.0914
  150SAPE   H4X16562   5.181   1.465   6.206 -0.7601 -0.3756  0.7438
  150SAPE   H4Y16563   5.125   1.334   6.312 -0.4535 -2.2500 -1.6300
  150SAPE   C3516564   5.259   1.262   6.158  0.0639 -0.5811  0.3658
  150SAPE   H5X16565   5.274   1.167   6.215 -0.4542  0.0714  1.6355
  150SAPE   H5Y16566   5.363   1.286   6.127 -0.1750 -0.2515 -0.1860
  150SAPE   C3616567   5.178   1.246   6.035  0.2585  0.1562  0.1188
  150SAPE   H6X16568   5.167   1.347   5.990  1.3843 -0.6982 -2.2664
  150SAPE   H6Y16569   5.076   1.202   6.034  0.2364  0.1458 -2.0211
  150SAPE   C3716570   5.254   1.158   5.929 -0.0289 -0.5263 -0.6859
  150SAPE   H7X16571   5.283   1.062   5.976  0.1871 -1.2097 -2.1913
  150SAPE   H7Y16572   5.347   1.214   5.905  0.6122 -1.5860 -0.6912
  150SAPE   C3816573   5.175   1.146   5.800  0.6190 -0.3971  0.2806
  150SAPE   H8X16574   5.152   1.246   5.758 -1.9698 -1.6758 -1.5733
  150SAPE   H8Y16575   5.082   1.086   5.810  1.0935 -1.3073 -0.5512
  150SAPE   C3916576   5.252   1.073   5.693  0.0306 -0.5505  0.7154
  150SAPE   H9X16577   5.181   1.029   5.620 -0.4800  3.3600 -1.4522
  150SAPE   H9Y16578   5.306   0.983   5.729 -2.0997 -2.0819  0.2545
  150SAPE  C31016579   5.347   1.167   5.624 -0.7573 -0.1839  0.8886
  150SAPE  H10X16580   5.425   1.202   5.695 -0.0774 -1.2839  0.7060
  150SAPE  H10Y16581   5.293   1.259   5.594 -0.7105 -0.7196 -1.0011
  150SAPE  C31116582   5.436   1.098   5.511 -0.0970  0.6687 -0.6072
  150SAPE  H11X16583   5.372   1.052   5.433 -0.4916  0.5666 -0.2279
  150SAPE  H11Y16584   5.485   1.007   5.550 -1.6004 -0.0145 -0.2625
  150SAPE  C31216585   5.533   1.200   5.442  0.7623  0.6699  0.0887
  150SAPE  H12X16586   5.586   1.260   5.518  2.2718  1.1195 -1.2496
  150SAPE  H12Y16587   5.481   1.273   5.375  1.5058  0.1834 -1.0603
  150SAPE  C31316588   5.645   1.128   5.350 -0.0009 -0.0003 -0.4170
  150SAPE  H13X16589   5.620   1.138   5.242 -0.5021 -0.2317 -0.3247
  150SAPE  H13Y16590   5.651   1.021   5.377  0.2872 -0.3403 -1.7545
  150SAPE  C31416591   5.790   1.179   5.385 -0.5854 -0.0815 -0.2253
  150SAPE  H14X16592   5.828   1.144   5.483  1.2132 -0.0300 -0.8799
  150SAPE  H14Y16593   5.794   1.290   5.388 -0.5624 -0.1145  1.4413
  150SAPE  C31516594   5.885   1.126   5.273  0.5962  0.4236  0.1029
  150SAPE  H15X16595   5.988   1.168   5.284  0.8490  0.5805 -2.3596
  150SAPE  H15Y16596   5.844   1.152   5.173  0.6737 -1.1923 -0.3775
  150SAPE  C31616597   5.896   0.973   5.255  0.0919 -0.2407  0.2191
  150SAPE  H16X16598   5.795   0.949   5.217 -0.5231 -0.2683  1.7750
  150SAPE  H16Y16599   5.908   0.928   5.357  2.0645 -0.6464 -0.1528
  150SAPE  C31716600   6.005   0.927   5.152 -0.4494  0.0860 -0.6724
  150SAPE  H17X16601   6.041   0.823   5.168 -0.6828  0.1148  0.0579
  150SAPE  H17Y16602   6.094   0.994   5.161 -0.1088 -0.5634  1.3588
  150SAPE  C31816603   5.942   0.929   5.011 -0.2805  0.0758  0.0883
  150SAPE  H18X16604   6.010   0.899   4.929 -2.0450 -2.3109 -0.6199
  150SAPE  H18Y16605   5.905   1.032   4.992  1.1457  0.4989 -0.5321
  150SAPE  H18Z16606   5.855   0.860   5.008 -0.8724  0.8140  0.0618
  151SAPE     N16607   6.263   6.795   7.135  0.3530 -0.8953 -1.0393
  151SAPE   HN116608   6.198   6.828   7.209  1.4669 -2.2796  0.6228
  151SAPE   HN216609   6.300   6.707   7.177  2.0166  0.0407 -0.4370
  151SAPE   HN316610   6.336   6.868   7.125  1.9627 -1.8599  2.1746
  151SAPE   C1216611   6.211   6.779   6.997 -0.4392  0.3618  0.3182
  151SAPE  H12A16612   6.278   6.714   6.936  0.1456  1.6436 -0.4480
  151SAPE  H12B16613   6.208   6.876   6.942 -1.3598 -0.6236 -1.4474
  151SAPE   C1116614   6.070   6.704   6.999 -0.2987 -0.4022  0.9034
  151SAPE  H11A16615   6.025   6.705   6.897 -1.1535  0.0118  1.2721
  151SAPE  H11B16616   5.998   6.754   7.067 -1.9527  0.7361 -1.4950
  151SAPE     P16617   6.096   6.438   6.945  0.3850 -0.2272  0.5003
  151SAPE   O1316618   6.204   6.455   6.846  0.1722  0.5012  0.3345
  151SAPE   O1416619   6.098   6.315   7.037  0.2199 -0.6054 -0.1744
  151SAPE   O1216620   6.084   6.567   7.041  0.2976  0.1943 -0.0235
  151SAPE   O1116621   5.954   6.450   6.870 -0.7097 -0.1351 -0.2270
  151SAPE    C116622   5.902   6.358   6.780 -0.6082  0.1498  0.5924
  151SAPE    HA16623   5.959   6.263   6.772 -0.7793  0.0365  0.7166
  151SAPE    HB16624   5.802   6.331   6.821 -1.4103  1.6003 -0.3287
  151SAPE    C216625   5.895   6.430   6.636  1.0403 -0.2059  0.0708
  151SAPE    HS16626   5.822   6.369   6.580 -2.2850 -0.0124  3.7381
  151SAPE   O2116627   6.018   6.434   6.567 -0.4118 -0.3361  0.5405
  151SAPE   C2116628   6.062   6.322   6.514  0.4001 -0.0692 -0.0417
  151SAPE   O2216629   6.016   6.210   6.535  0.1046 -0.1778  0.0495
  151SAPE   C2216630   6.182   6.358   6.418 -0.3543 -0.3271 -0.7996
  151SAPE   H2R16631   6.189   6.469   6.414  0.8149 -0.3405  0.4121
  151SAPE   H2S16632   6.276   6.324   6.466 -1.4010 -2.8533 -0.3555
  151SAPE    C316633   5.851   6.576   6.644  0.4682  0.0212 -0.3037
  151SAPE    HX16634   5.913   6.637   6.713  0.5290 -0.4720  0.0846
  151SAPE    HY16635   5.751   6.570   6.693  0.7792  0.9214  0.4779
  151SAPE   O3116636   5.838   6.635   6.509  0.2867 -0.1562 -0.2011
  151SAPE   C3116637   5.942   6.702   6.457  0.4609 -0.2999  0.2364
  151SAPE   O3216638   6.045   6.733   6.514 -0.6051  0.1325  0.0558
  151SAPE   C3216639   5.903   6.733   6.309  0.0170 -0.0912 -0.5298
  151SAPE   H2X16640   5.910   6.844   6.309 -1.6972  0.0488  0.5771
  151SAPE   H2Y16641   5.798   6.711   6.280  0.6880 -2.4550 -1.4335
  151SAPE   C2316642   6.143   6.312   6.275 -0.0227 -0.2670  0.2480
  151SAPE   H3R16643   6.055   6.374   6.248  1.5939  1.6873 -0.8802
  151SAPE   H3S16644   6.112   6.206   6.284  0.5998 -0.3419  1.9466
  151SAPE   C2416645   6.259   6.322   6.166 -0.1755  0.9149 -0.4421
  151SAPE   H4R16646   6.225   6.261   6.079  1.8536 -0.3885 -0.3958
  151SAPE   H4S16647   6.348   6.270   6.208 -0.5852  0.0264 -0.6447
  151SAPE   C2516648   6.294   6.464   6.132  0.1685 -0.5227 -0.8424
  151SAPE   H5R16649   6.293   6.529   6.221 -2.0294 -2.7814  0.9343
  151SAPE   C2616650   6.318   6.515   6.007 -0.3443 -0.6453 -0.3583
  151SAPE   H6R16651   6.341   6.621   5.990 -0.1215 -0.3571  1.4602
  151SAPE   C2716652   6.325   6.425   5.885  0.4560  0.8779 -0.1639
  151SAPE   H7R16653   6.348   6.317   5.901 -0.2931  0.7688  0.2425
  151SAPE   H7S16654   6.401   6.473   5.820 -0.7426  3.0663 -0.0482
  151SAPE   C2816655   6.182   6.420   5.826  0.0292  1.0046  0.0486
  151SAPE   H8R16656   6.097   6.433   5.895  0.8362  2.8049  0.7701
  151SAPE   C2916657   6.154   6.362   5.707  0.0278  0.3404  0.7943
  151SAPE   H9R16658   6.049   6.354   5.675 -0.0711 -0.3935  1.2556
  151SAPE  C21016659   6.253   6.324   5.605 -0.0548 -0.3364 -0.8460
  151SAPE  H10R16660   6.360   6.343   5.630 -0.7265  1.1971  1.1095
  151SAPE  H10S16661   6.238   6.403   5.528  0.8645  1.3497  0.6318
  151SAPE  C21116662   6.231   6.190   5.545 -0.1639 -0.4683  0.0100
  151SAPE  H11R16663   6.187   6.109   5.605  0.3010 -0.4385  0.3986
  151SAPE  C21216664   6.274   6.167   5.421  0.0773  0.0688  0.3272
  151SAPE  H12R16665   6.253   6.065   5.383 -0.4544  0.2138  0.2209
  151SAPE  C21316666   6.335   6.270   5.325 -0.4116  1.4435 -0.5536
  151SAPE  H13R16667   6.434   6.294   5.368 -1.4727  0.4573  2.6909
  151SAPE  H13S16668   6.269   6.359   5.314 -1.1064  0.8980 -0.9785
  151SAPE  C21416669   6.338   6.209   5.180  0.1211 -0.4815 -0.4397
  151SAPE  H14R16670   6.254   6.146   5.148 -1.2031  0.7451  0.5242
  151SAPE  C21516671   6.446   6.226   5.093  0.7611  0.4161 -0.3087
  151SAPE  H15R16672   6.437   6.183   4.992  1.0889  2.5315 -1.3073
  151SAPE  C21616673   6.576   6.292   5.125  0.2764 -0.2266 -0.3739
  151SAPE  H16R16674   6.659   6.240   5.074 -0.7156 -0.4292 -1.8542
  151SAPE  H16S16675   6.599   6.292   5.234 -1.4354  1.2669  0.0488
  151SAPE  C21716676   6.582   6.441   5.079  0.2825  0.2544 -0.3708
  151SAPE  H17R16677   6.502   6.501   5.127 -1.1823 -0.9016 -1.3080
  151SAPE  H17S16678   6.574   6.451   4.968  1.8699  0.8313 -0.4596
  151SAPE  C21816679   6.725   6.496   5.106  0.0540  0.5084 -0.5162
  151SAPE  H18R16680   6.792   6.428   5.049  0.1132  1.7799 -2.0271
  151SAPE  H18S16681   6.755   6.502   5.213  0.3867  0.1872 -0.5870
  151SAPE  C21916682   6.760   6.644   5.057 -0.0170  0.4108  0.1738
  151SAPE  H19R16683   6.764   6.641   4.946 -1.3508 -0.7906  0.1268
  151SAPE  H19S16684   6.865   6.665   5.087  0.0104  0.7951 -0.1892
  151SAPE  C22016685   6.657   6.747   5.091  0.0841 -0.0656 -0.5729
  151SAPE  H20R16686   6.554   6.714   5.064 -0.0884  1.1784 -1.5363
  151SAPE  H20S16687   6.674   6.839   5.031 -0.5150 -1.2196 -2.6364
  151SAPE  H20T16688   6.656   6.773   5.199 -1.4153  0.1732 -0.6193
  151SAPE   C3316689   6.007   6.665   6.219 -0.0973 -0.0237  0.1984
  151SAPE   H3X16690   5.974   6.561   6.196 -0.7860 -0.3412  2.3436
  151SAPE   H3Y16691   6.114   6.670   6.250  0.4238 -1.0593 -1.3085
  151SAPE   C3416692   6.013   6.744   6.089  0.5801  0.2239  0.2289
  151SAPE   H4X16693   6.083   6.683   6.029 -2.7221 -1.8785 -1.8506
  151SAPE   H4Y16694   6.038   6.850   6.110  0.6741 -0.2039  2.6020
  151SAPE   C3516695   5.871   6.748   6.011  0.0331 -0.0976 -0.6904
  151SAPE   H5X16696   5.806   6.826   6.056 -0.9042 -0.0404 -2.1123
  151SAPE   H5Y16697   5.827   6.646   6.023  1.7573 -0.6786  1.6282
  151SAPE   C3616698   5.887   6.797   5.866  0.2635 -0.3414  0.5235
  151SAPE   H6X16699   5.949   6.888   5.854 -1.1786  0.4908 -0.9726
  151SAPE   H6Y16700   5.789   6.825   5.823  0.5564  0.5081  0.3935
  151SAPE   C3716701   5.954   6.695   5.776 -0.0717  0.2073 -0.1770
  151SAPE   H7X16702   5.922   6.593   5.805  0.7638 -0.3075 -1.0340
  151SAPE   H7Y16703   6.063   6.685   5.791 -0.1049 -0.2614 -0.2414
  151SAPE   C3816704   5.930   6.734   5.629 -0.2963  0.3385  0.4204
  151SAPE   H8X16705   5.980   6.830   5.602  0.2060 -0.1381 -0.3463
  151SAPE   H8Y16706   5.820   6.750   5.622 -0.4526 -0.6349  0.5150
  151SAPE   C3916707   5.977   6.625   5.535 -0.1686  0.3937 -0.1460
  151SAPE   H9X16708   5.957   6.532   5.592  1.2835  0.3698  0.3831
  151SAPE   H9Y16709   6.086   6.633   5.513 -0.2446 -0.2328 -0.8114
  151SAPE  C31016710   5.896   6.620   5.410 -0.1442  0.4326 -0.2640
  151SAPE  H10X16711   5.898   6.714   5.350 -1.1132  0.9672  0.5073
  151SAPE  H10Y16712   5.796   6.604   5.455  1.0327 -0.6741  2.1498
  151SAPE  C31116713   5.930   6.497   5.325 -0.1619  0.4078 -0.2431
  151SAPE  H11X16714   6.040   6.495   5.319 -0.1131 -0.2488  0.7053
  151SAPE  H11Y16715   5.906   6.504   5.217 -0.2000 -1.6940 -0.4012
  151SAPE  C31216716   5.863   6.366   5.379  0.2343 -0.5447  0.3402
  151SAPE  H12X16717   5.778   6.403   5.441  0.1513  2.1517 -1.2424
  151SAPE  H12Y16718   5.919   6.314   5.459  2.7939  1.5660  0.0463
  151SAPE  C31316719   5.826   6.262   5.276 -0.5667 -0.3673  0.9884
  151SAPE  H13X16720   5.792   6.170   5.327 -0.2959 -2.2615 -2.0237
  151SAPE  H13Y16721   5.918   6.237   5.218 -1.5403 -1.7185 -0.0311
  151SAPE  C31416722   5.714   6.316   5.183 -0.3656 -0.5418  0.2511
  151SAPE  H14X16723   5.738   6.418   5.146 -0.6012  0.2751  2.2164
  151SAPE  H14Y16724   5.638   6.338   5.261  1.0719  0.2971  1.4755
  151SAPE  C31516725   5.692   6.214   5.070 -0.5271 -0.7045  0.0479
  151SAPE  H15X16726   5.654   6.122   5.120 -1.5960 -0.5173 -0.4010
  151SAPE  H15Y16727   5.791   6.193   5.023 -0.9706  0.5558 -1.5235
  151SAPE  C31616728   5.594   6.266   4.967  0.1901 -0.7665  0.3306
  151SAPE  H16X16729   5.574   6.197   4.882  0.0853  0.1643 -0.4282
  151SAPE  H16Y16730   5.636   6.360   4.925  1.7501 -0.6405  2.0614
  151SAPE  C31716731   5.462   6.296   5.025 -0.5068  0.2459 -0.2791
  151SAPE  H17X16732   5.413   6.384   4.977 -0.4503  0.7178  0.5139
  151SAPE  H17Y16733   5.475   6.326   5.131 -1.4217 -1.3697  0.3240
  151SAPE  C31816734   5.377   6.171   5.020 -0.3153  0.1514  0.0576
  151SAPE  H18X16735   5.293   6.179   5.093  0.5333  0.3530  1.0358
  151SAPE  H18Y16736   5.429   6.085   5.067  0.1724 -0.1640 -1.0270
  151SAPE  H18Z16737   5.339   6.154   4.917 -2.1778  1.5206  0.4592
  152SAPE     N16738   0.166   2.804   7.184 -0.2340 -0.1549 -0.2207
  152SAPE   HN116739   0.253   2.813   7.240 -0.4134  1.8650 -0.2234
  152SAPE   HN216740   0.089   2.836   7.247 -1.4598 -2.5704 -0.3500
  152SAPE   HN316741   0.150   2.702   7.165  0.6647 -0.6080  1.2869
  152SAPE   C1216742   0.162   2.878   7.056  0.8605 -0.1900  0.5528
  152SAPE  H12A16743   0.082   2.837   6.990  2.0192 -1.6851 -0.0015
  152SAPE  H12B16744   0.257   2.848   7.008  1.4027 -0.4151  1.7173
  152SAPE   C1116745   0.161   3.028   7.080  0.2672 -0.5575  0.0359
  152SAPE  H11A16746   0.072   3.048   7.144  1.6899 -0.4635  2.0979
  152SAPE  H11B16747   0.148   3.075   6.980  0.8018  0.6620  0.5184
  152SAPE     P16748   0.298   3.193   7.223  0.5760 -0.0484 -0.2586
  152SAPE   O1316749   0.188   3.287   7.180 -0.2282  0.1457  0.0908
  152SAPE   O1416750   0.304   3.163   7.370  0.1135 -0.7239 -0.1879
  152SAPE   O1216751   0.284   3.064   7.138  0.0389 -1.1758 -0.4083
  152SAPE   O1116752   0.431   3.268   7.178  0.5560 -0.1790 -0.1381
  152SAPE    C116753   0.469   3.268   7.038 -0.0648  0.0325  0.2492
  152SAPE    HA16754   0.383   3.263   6.969 -0.3301 -1.1146  0.6391
  152SAPE    HB16755   0.521   3.362   7.010 -1.4272  0.3977 -1.2045
  152SAPE    C216756   0.560   3.152   6.991 -0.3182  0.2533  0.1584
  152SAPE    HS16757   0.493   3.063   6.985  1.6953 -1.2398 -2.4077
  152SAPE   O2116758   0.672   3.126   7.085 -0.2895  0.3405 -0.0050
  152SAPE   C2116759   0.652   3.025   7.173 -0.0979 -0.8962  0.2199
  152SAPE   O2216760   0.566   2.941   7.161  0.7401 -0.0075 -0.3318
  152SAPE   C2216761   0.774   3.028   7.266 -0.0344  0.4792  0.1403
  152SAPE   H2R16762   0.866   3.059   7.213  1.5504  1.5310  3.2709
  152SAPE   H2S16763   0.740   3.097   7.347 -0.9785  0.4668 -0.2361
  152SAPE    C316764   0.607   3.176   6.841 -0.3385  0.5873  0.4699
  152SAPE    HX16765   0.672   3.266   6.833 -1.8394  1.6114 -0.9514
  152SAPE    HY16766   0.518   3.205   6.781 -0.3344 -0.6127 -0.1336
  152SAPE   O3116767   0.674   3.057   6.796  0.1989 -0.3095 -0.5404
  152SAPE   C3116768   0.595   2.963   6.745  0.4051  0.1363 -0.0998
  152SAPE   O3216769   0.474   2.967   6.731 -0.2074  0.3386  0.4028
  152SAPE   C3216770   0.680   2.841   6.698  0.4323  0.5483  0.1503
  152SAPE   H2X16771   0.663   2.774   6.785  0.6910 -0.6210 -0.6892
  152SAPE   H2Y16772   0.788   2.869   6.705  0.6386  0.6370 -2.4270
  152SAPE   C2316773   0.789   2.894   7.337 -0.5280  0.3187  0.3285
  152SAPE   H3R16774   0.694   2.843   7.364  0.3399 -1.8630 -0.5305
  152SAPE   H3S16775   0.842   2.927   7.429 -0.8273  3.1244 -0.3946
  152SAPE   C2416776   0.867   2.786   7.247  0.1744  0.4841 -0.6442
  152SAPE   H4R16777   0.812   2.771   7.151  0.2227 -0.6726 -0.5050
  152SAPE   H4S16778   0.887   2.687   7.292 -0.3507  0.5966 -0.1387
  152SAPE   C2516779   1.004   2.845   7.229  0.2030  0.3288  0.2120
  152SAPE   H5R16780   1.043   2.894   7.319 -0.5707 -1.5487  1.6208
  152SAPE   C2616781   1.073   2.851   7.112  0.1285  0.0235  0.2024
  152SAPE   H6R16782   1.177   2.887   7.116  0.6492 -1.4263  0.3347
  152SAPE   C2716783   1.033   2.797   6.979  0.4502  0.4201 -0.0315
  152SAPE   H7R16784   0.937   2.850   6.961 -1.6142 -2.8569  0.5828
  152SAPE   H7S16785   0.999   2.691   6.976  0.4049  0.4488 -0.8371
  152SAPE   C2816786   1.138   2.838   6.879 -0.4097 -0.3190  0.2351
  152SAPE   H8R16787   1.173   2.941   6.891 -0.9472 -0.0095 -0.7842
  152SAPE   C2916788   1.180   2.765   6.776 -0.8216  0.5422 -0.0506
  152SAPE   H9R16789   1.254   2.805   6.705 -0.7635 -1.1482 -0.9984
  152SAPE  C21016790   1.130   2.636   6.719  0.0775 -0.1712  0.0272
  152SAPE  H10R16791   1.138   2.561   6.801 -0.0268  0.2958  0.4636
  152SAPE  H10S16792   1.205   2.612   6.641  0.9243 -0.3196  0.8659
  152SAPE  C21116793   0.988   2.630   6.682 -0.2338 -0.7785 -0.0775
  152SAPE  H11R16794   0.911   2.651   6.758 -0.4827  0.1029 -0.5505
  152SAPE  C21216795   0.943   2.570   6.563 -0.3997 -0.4794  0.7007
  152SAPE  H12R16796   0.834   2.567   6.546 -0.1244  1.4724 -1.9670
  152SAPE  C21316797   1.027   2.512   6.451  1.0284 -0.0428  0.2366
  152SAPE  H13R16798   1.126   2.491   6.496  0.4697  0.0942  1.5628
  152SAPE  H13S16799   1.027   2.601   6.384 -2.9445  1.0951  1.4523
  152SAPE  C21416800   0.976   2.389   6.374  0.5305 -0.3813  0.3987
  152SAPE  H14R16801   0.989   2.293   6.425  0.2391 -0.2209  0.7819
  152SAPE  C21516802   0.902   2.387   6.261  0.4729 -0.6066 -0.4069
  152SAPE  H15R16803   0.889   2.285   6.223 -1.5098 -0.8503  0.7721
  152SAPE  C21616804   0.853   2.500   6.173  0.7560 -1.5514  0.3414
  152SAPE  H16R16805   0.907   2.597   6.189 -0.2161 -0.5866 -1.8083
  152SAPE  H16S16806   0.742   2.510   6.168  0.9165  0.2303 -0.8720
  152SAPE  C21716807   0.879   2.464   6.028  1.0850  1.1967 -0.5252
  152SAPE  H17R16808   0.812   2.378   6.004  0.3924  2.0511 -1.7383
  152SAPE  H17S16809   0.981   2.421   6.015 -0.4981 -3.0104 -0.6459
  152SAPE  C21816810   0.866   2.583   5.933 -0.0207  0.3083  0.2558
  152SAPE  H18R16811   0.950   2.654   5.949 -1.2771  2.4177 -1.8808
  152SAPE  H18S16812   0.785   2.653   5.964  1.9194  2.1580  1.4214
  152SAPE  C21916813   0.827   2.547   5.788 -0.2885 -0.4480  1.1327
  152SAPE  H19R16814   0.731   2.491   5.789  0.1688 -1.2513  2.2809
  152SAPE  H19S16815   0.900   2.472   5.751 -2.6949 -2.1529 -0.5527
  152SAPE  C22016816   0.802   2.672   5.702 -0.0178 -0.0856  0.2005
  152SAPE  H20R16817   0.701   2.712   5.725 -0.1108  0.1156 -0.5076
  152SAPE  H20S16818   0.811   2.652   5.593 -0.0731 -1.7939  0.4764
  152SAPE  H20T16819   0.866   2.759   5.728  2.1649 -1.7738  0.8046
  152SAPE   C3316820   0.647   2.782   6.563  0.4909  0.2865  0.0206
  152SAPE   H3X16821   0.536   2.770   6.562  0.4974 -0.3930  2.4651
  152SAPE   H3Y16822   0.689   2.680   6.555 -0.6579 -0.3311  1.4265
  152SAPE   C3416823   0.706   2.867   6.450  0.3143 -0.3500 -0.7389
  152SAPE   H4X16824   0.816   2.867   6.459  0.2494 -1.8231  0.4547
  152SAPE   H4Y16825   0.672   2.971   6.471 -2.6772 -1.0587 -1.6194
  152SAPE   C3516826   0.662   2.828   6.308  0.5255  0.3236 -0.3418
  152SAPE   H5X16827   0.703   2.728   6.282 -1.0121 -0.6202  0.6633
  152SAPE   H5Y16828   0.716   2.908   6.253 -1.6068  2.3676  0.3906
  152SAPE   C3616829   0.509   2.835   6.281  0.3527  0.0116 -0.1747
  152SAPE   H6X16830   0.469   2.926   6.331 -0.3799 -0.5552  0.2924
  152SAPE   H6Y16831   0.458   2.745   6.320 -0.1153 -0.4629 -1.8152
  152SAPE   C3716832   0.486   2.835   6.129 -0.2849 -0.0171  0.2787
  152SAPE   H7X16833   0.577   2.880   6.084 -1.0681  0.9685 -0.3719
  152SAPE   H7Y16834   0.403   2.901   6.096 -0.2835  0.5353  1.3355
  152SAPE   C3816835   0.474   2.696   6.077 -0.2162  0.2471  0.1884
  152SAPE   H8X16836   0.406   2.636   6.142 -1.6839 -0.1083 -1.5869
  152SAPE   H8Y16837   0.573   2.647   6.091 -0.6443 -0.1381  2.1489
  152SAPE   C3916838   0.428   2.696   5.930  0.0524  0.1461 -0.3853
  152SAPE   H9X16839   0.453   2.604   5.873  2.4955  1.5794 -1.7575
  152SAPE   H9Y16840   0.479   2.786   5.890  0.7028  1.3645  2.8860
  152SAPE  C31016841   0.274   2.721   5.921  0.1053 -0.8587 -0.1420
  152SAPE  H10X16842   0.264   2.815   5.980  2.0903 -0.4002 -0.4677
  152SAPE  H10Y16843   0.228   2.635   5.975 -0.8928  0.2700  0.8789
  152SAPE  C31116844   0.213   2.721   5.783  1.0208  0.2321 -0.2970
  152SAPE  H11X16845   0.212   2.615   5.750 -0.0396 -0.1938  0.9916
  152SAPE  H11Y16846   0.272   2.778   5.708 -0.6102  0.4099 -1.4884
  152SAPE  C31216847   0.062   2.772   5.790  0.1757 -0.5875  0.4675
  152SAPE  H12X16848   0.073   2.882   5.798 -2.3062 -0.1559 -0.9189
  152SAPE  H12Y16849  -0.007   2.733   5.869  0.6494 -1.0534  0.6536
  152SAPE  C31316850  -0.016   2.729   5.662  0.0671  0.1027  0.3346
  152SAPE  H13X16851  -0.117   2.774   5.662 -0.2333 -0.4220 -1.8159
  152SAPE  H13Y16852  -0.032   2.619   5.667  1.3829 -0.1089  0.2288
  152SAPE  C31416853   0.048   2.773   5.536 -0.0291  0.3727  1.0956
  152SAPE  H14X16854   0.138   2.712   5.515 -0.7432 -0.4248  0.2894
  152SAPE  H14Y16855   0.066   2.883   5.544 -1.0225  0.5443  1.1853
  152SAPE  C31516856  -0.036   2.760   5.407  0.9612 -0.2635  0.7919
  152SAPE  H15X16857  -0.133   2.806   5.433  2.7869  3.5541  1.4723
  152SAPE  H15Y16858  -0.040   2.650   5.389  1.3416 -0.2751  0.7576
  152SAPE  C31616859   0.024   2.819   5.275  0.4316 -0.0779 -0.2767
  152SAPE  H16X16860   0.117   2.760   5.264  0.4858  0.1708 -1.2116
  152SAPE  H16Y16861   0.039   2.929   5.288 -0.5988  0.4236 -2.8215
  152SAPE  C31716862  -0.059   2.794   5.141 -0.4243  0.4376 -0.8293
  152SAPE  H17X16863  -0.137   2.873   5.143  1.5394  2.4700 -0.8042
  152SAPE  H17Y16864  -0.101   2.692   5.157 -0.4293  0.6678  0.8088
  152SAPE  C31816865   0.027   2.814   5.013 -0.4911 -0.2606 -0.6433
  152SAPE  H18X16866   0.125   2.768   5.037 -1.0908 -1.6049 -0.6602
  152SAPE  H18Y16867   0.048   2.921   4.994 -0.7563  0.0477  0.6595
  152SAPE  H18Z16868  -0.003   2.772   4.915 -0.0154 -0.1298 -0.8472
  153SAPE     N16869   0.705   0.631   7.551 -0.1424 -0.3754 -0.8307
  153SAPE   HN116870   0.730   0.729   7.526 -2.6557  0.8615  1.0435
  153SAPE   HN216871   0.665   0.638   7.647 -0.2289 -1.1353 -0.8067
  153SAPE   HN316872   0.781   0.560   7.552  0.6703  0.4884 -0.4830
  153SAPE   C1216873   0.608   0.590   7.451 -1.0683 -0.6081  0.2390
  153SAPE  H12A16874   0.549   0.503   7.487 -3.2911  0.1011 -1.4496
  153SAPE  H12B16875   0.666   0.580   7.357 -0.0476  3.4140  0.2543
  153SAPE   C1116876   0.500   0.698   7.415 -0.2538  0.6658  0.4433
  153SAPE  H11A16877   0.432   0.661   7.335  0.0426 -0.4611  0.7029
  153SAPE  H11B16878   0.551   0.783   7.364  0.8822  1.5881  2.9883
  153SAPE     P16879   0.326   0.858   7.507 -0.1173 -0.0105 -0.1676
  153SAPE   O1316880   0.228   0.827   7.403  0.4503 -0.2935 -0.4544
  153SAPE   O1416881   0.260   0.892   7.634  0.2233 -0.1912  0.3572
  153SAPE   O1216882   0.422   0.736   7.530  0.2443  0.5140 -0.1403
  153SAPE   O1116883   0.420   0.976   7.463  0.0073 -0.0852  1.0804
  153SAPE    C116884   0.372   1.108   7.431 -0.0286 -0.6286  0.0766
  153SAPE    HA16885   0.262   1.126   7.433 -0.1423 -0.9491 -1.7395
  153SAPE    HB16886   0.405   1.189   7.500 -1.2065  0.2048 -0.2951
  153SAPE    C216887   0.416   1.140   7.283 -0.6584 -0.2484  0.0576
  153SAPE    HS16888   0.360   1.233   7.260 -0.7788 -0.5244 -0.7955
  153SAPE   O2116889   0.378   1.034   7.200 -0.0548 -0.0567 -0.5012
  153SAPE   C2116890   0.285   1.060   7.103  0.0839 -0.7098  0.0396
  153SAPE   O2216891   0.234   1.170   7.085  0.0260  0.6056 -0.2064
  153SAPE   C2216892   0.246   0.941   7.006  0.7925  0.1589  0.0327
  153SAPE   H2R16893   0.339   0.890   6.975  0.8188  0.2968 -0.1158
  153SAPE   H2S16894   0.190   0.866   7.066  3.1327 -0.3813  1.6580
  153SAPE    C316895   0.570   1.167   7.267 -1.2626  0.1845 -0.1845
  153SAPE    HX16896   0.627   1.071   7.262  1.5150  1.7228 -0.5303
  153SAPE    HY16897   0.599   1.217   7.362  0.2038 -1.2233  0.1459
  153SAPE   O3116898   0.594   1.245   7.147 -0.2040  0.5224 -0.5850
  153SAPE   C3116899   0.564   1.380   7.157 -0.1365 -0.1944 -0.2997
  153SAPE   O3216900   0.522   1.434   7.257 -0.5654  0.2961 -0.1176
  153SAPE   C3216901   0.573   1.444   7.019  0.1275  0.5483  0.0545
  153SAPE   H2X16902   0.671   1.426   6.969 -0.4941  1.2045 -1.4582
  153SAPE   H2Y16903   0.566   1.554   7.033  1.3727  0.5610  0.7648
  153SAPE   C2316904   0.168   0.990   6.890 -0.5487  0.5864 -0.1031
  153SAPE   H3R16905   0.084   1.054   6.926  0.2490  0.9731  1.1288
  153SAPE   H3S16906   0.141   0.901   6.830  0.2005 -0.4541  1.0390
  153SAPE   C2416907   0.255   1.074   6.792 -0.0893  0.1669  0.0890
  153SAPE   H4R16908   0.307   1.152   6.851 -1.6540  0.2600  1.4082
  153SAPE   H4S16909   0.183   1.126   6.725 -0.1619  1.2780  1.0127
  153SAPE   C2516910   0.352   0.986   6.724  0.0289  0.7229  0.7727
  153SAPE   H5R16911   0.404   0.921   6.796  1.9614 -2.0604 -2.7699
  153SAPE   C2616912   0.369   0.955   6.594 -0.0055 -0.1758  0.2211
  153SAPE   H6R16913   0.455   0.893   6.564 -0.3532 -0.2473 -0.6477
  153SAPE   C2716914   0.319   1.027   6.473 -0.1943  0.1312 -0.0780
  153SAPE   H7R16915   0.393   1.037   6.391 -0.4356 -1.4312 -0.5349
  153SAPE   H7S16916   0.299   1.132   6.504  0.1941  0.2605 -0.2678
  153SAPE   C2816917   0.185   0.975   6.429 -0.1768 -0.0711 -0.1927
  153SAPE   H8R16918   0.122   0.949   6.515 -0.0452 -0.3245 -0.1738
  153SAPE   C2916919   0.134   0.968   6.304  0.5158  0.3925  0.2327
  153SAPE   H9R16920   0.036   0.925   6.279  1.5538 -0.6620 -2.3392
  153SAPE  C21016921   0.195   1.015   6.177 -0.2036 -0.0972  1.0020
  153SAPE  H10R16922   0.125   1.003   6.092 -2.3246  3.8224  1.9670
  153SAPE  H10S16923   0.289   0.957   6.162  0.6831  1.2420  1.1568
  153SAPE  C21116924   0.253   1.156   6.165 -0.3243 -0.2489 -0.1909
  153SAPE  H11R16925   0.260   1.223   6.252  2.0466  1.4339 -1.5561
  153SAPE  C21216926   0.305   1.208   6.054 -0.7766  0.0117  0.2257
  153SAPE  H12R16927   0.333   1.314   6.043 -1.5391  0.3680  1.5030
  153SAPE  C21316928   0.316   1.145   5.922  0.4124 -0.3575  0.6561
  153SAPE  H13R16929   0.288   1.038   5.917 -0.7447 -0.2429  3.2130
  153SAPE  H13S16930   0.422   1.161   5.892  0.1173 -0.2485 -0.3405
  153SAPE  C21416931   0.232   1.225   5.822  0.1741  0.6221  0.0124
  153SAPE  H14R16932   0.124   1.206   5.810  0.5022 -0.0480 -2.5203
  153SAPE  C21516933   0.277   1.310   5.730  0.6513  0.1253  0.0469
  153SAPE  H15R16934   0.206   1.364   5.666  0.1597 -0.0443  0.4496
  153SAPE  C21616935   0.425   1.356   5.714  0.2195 -0.1936  0.6428
  153SAPE  H16R16936   0.487   1.268   5.689 -0.1838  0.0229 -1.2786
  153SAPE  H16S16937   0.457   1.406   5.808  1.7443 -1.2789  0.7324
  153SAPE  C21716938   0.442   1.454   5.597  1.1233 -0.0692  0.0415
  153SAPE  H17R16939   0.546   1.492   5.591  1.0686 -0.1269 -2.9630
  153SAPE  H17S16940   0.372   1.540   5.611  0.1597 -0.5513 -1.5226
  153SAPE  C21816941   0.407   1.395   5.455 -0.1281 -0.6180 -0.2332
  153SAPE  H18R16942   0.297   1.394   5.440 -0.1678 -0.2600  0.0128
  153SAPE  H18S16943   0.419   1.285   5.445 -1.0623 -0.5926 -2.0431
  153SAPE  C21916944   0.483   1.468   5.349 -0.4920  0.8898 -0.2171
  153SAPE  H19R16945   0.585   1.426   5.358 -0.6421  0.9114  2.5681
  153SAPE  H19S16946   0.488   1.576   5.373 -0.7109  0.8393  0.0747
  153SAPE  C22016947   0.423   1.435   5.214 -0.3420 -0.4003 -0.1160
  153SAPE  H20R16948   0.491   1.484   5.140 -0.9252 -1.2649 -1.2593
  153SAPE  H20S16949   0.329   1.494   5.203  0.5320  1.0318 -0.2009
  153SAPE  H20T16950   0.412   1.326   5.197 -0.1129 -0.3629 -0.5275
  153SAPE   C3316951   0.454   1.399   6.940  0.5170 -0.5247  0.2314
  153SAPE   H3X16952   0.356   1.407   6.992 -0.6381 -2.3324 -1.4715
  153SAPE   H3Y16953   0.467   1.291   6.916 -0.6811 -0.7062  0.3383
  153SAPE   C3416954   0.441   1.472   6.809 -0.1278 -0.8531 -0.7600
  153SAPE   H4X16955   0.533   1.535   6.809 -0.4392 -0.2367  2.1064
  153SAPE   H4Y16956   0.353   1.539   6.810 -0.0154 -0.6728  1.2062
  153SAPE   C3516957   0.431   1.386   6.688 -0.0763  0.5176 -0.0744
  153SAPE   H5X16958   0.347   1.313   6.691 -1.0586  1.5971 -0.2361
  153SAPE   H5Y16959   0.517   1.318   6.677  0.7339  1.6112 -0.6818
  153SAPE   C3616960   0.420   1.455   6.550  0.2142 -0.6276 -0.1004
  153SAPE   H6X16961   0.465   1.555   6.567  2.5162 -1.7487  0.7238
  153SAPE   H6Y16962   0.312   1.465   6.525  0.2399  0.1399  0.0722
  153SAPE   C3716963   0.483   1.378   6.434  0.3212 -0.1784  0.9184
  153SAPE   H7X16964   0.413   1.305   6.388  2.0017 -1.7342  0.7067
  153SAPE   H7Y16965   0.578   1.329   6.467 -0.3418 -0.8509  1.8767
  153SAPE   C3816966   0.528   1.477   6.320 -0.6359 -0.0791  0.4383
  153SAPE   H8X16967   0.585   1.559   6.369 -0.4814 -0.8580  1.6152
  153SAPE   H8Y16968   0.431   1.509   6.277 -0.9505 -2.7794 -1.1308
  153SAPE   C3916969   0.599   1.396   6.210  0.4514  0.3475 -0.7251
  153SAPE   H9X16970   0.536   1.308   6.183  0.4573 -0.1491  0.8199
  153SAPE   H9Y16971   0.684   1.341   6.255 -0.7301 -2.2183 -1.3943
  153SAPE  C31016972   0.635   1.465   6.081  0.2616 -1.3076 -0.3302
  153SAPE  H10X16973   0.707   1.543   6.115 -0.7689 -1.1522  1.6452
  153SAPE  H10Y16974   0.543   1.515   6.042  1.6819  1.9474  0.2212
  153SAPE  C31116975   0.719   1.385   5.978 -0.1051 -0.0981 -0.3277
  153SAPE  H11X16976   0.658   1.298   5.945 -1.8865  0.3048  1.6549
  153SAPE  H11Y16977   0.805   1.342   6.033  1.1999  0.8887 -1.5161
  153SAPE  C31216978   0.768   1.463   5.860 -1.0920  0.5809 -0.2154
  153SAPE  H12X16979   0.864   1.514   5.879 -0.0082 -0.5759 -2.2259
  153SAPE  H12Y16980   0.694   1.540   5.831 -1.5809  0.5098  0.8067
  153SAPE  C31316981   0.814   1.354   5.755 -0.0699 -0.3213  0.0919
  153SAPE  H13X16982   0.733   1.278   5.745 -0.4896  0.3574 -2.5436
  153SAPE  H13Y16983   0.903   1.300   5.791 -0.2977 -1.2183 -0.6625
  153SAPE  C31416984   0.857   1.424   5.629  0.1528  0.5152  0.2671
  153SAPE  H14X16985   0.946   1.483   5.659  0.4421  0.8108 -1.1432
  153SAPE  H14Y16986   0.772   1.489   5.603 -1.8974 -2.1278 -0.0843
  153SAPE  C31516987   0.894   1.325   5.515 -0.1381  0.3323 -0.9291
  153SAPE  H15X16988   0.800   1.275   5.483  1.5466 -1.5043 -3.3393
  153SAPE  H15Y16989   0.963   1.241   5.535 -0.8310 -0.0251  0.0452
  153SAPE  C31616990   0.935   1.394   5.383  0.7723 -0.1553  0.4422
  153SAPE  H16X16991   1.037   1.439   5.386  2.2122 -2.9051 -1.7155
  153SAPE  H16Y16992   0.859   1.471   5.358  2.0408  0.6494 -1.1753
  153SAPE  C31716993   0.936   1.291   5.266  0.2683 -0.7660  0.5548
  153SAPE  H17X16994   0.834   1.247   5.265 -1.1075  1.9966 -3.2706
  153SAPE  H17Y16995   1.010   1.211   5.288  0.1618 -0.9736  0.1500
  153SAPE  C31816996   0.958   1.345   5.124 -0.1737 -0.8405  0.5088
  153SAPE  H18X16997   0.871   1.399   5.081  0.0744 -2.3791 -2.1481
  153SAPE  H18Y16998   0.971   1.257   5.058  0.4584 -1.2086  1.1136
  153SAPE  H18Z16999   1.048   1.411   5.128 -1.3150  0.8487 -0.4202
  154SAPE     N17000   6.308   0.284   6.742  0.2741 -0.6529 -0.2939
  154SAPE   HN117001   6.353   0.249   6.655 -1.0228 -0.7178 -0.9580
  154SAPE   HN217002   6.367   0.280   6.828 -0.8438 -0.4545  0.4984
  154SAPE   HN317003   6.216   0.236   6.752  0.9867 -2.1066 -0.3362
  154SAPE   C1217004   6.279   0.430   6.714 -0.2349  0.8585 -0.3540
  154SAPE  H12A17005   6.214   0.460   6.799 -0.0044 -1.1987  0.6173
  154SAPE  H12B17006   6.234   0.434   6.613  1.0033  1.7298 -0.8994
  154SAPE   C1117007   6.413   0.497   6.729 -0.4723  0.0369 -0.2419
  154SAPE  H11A17008   6.391   0.605   6.720  1.7178  0.3422 -3.7191
  154SAPE  H11B17009   6.473   0.464   6.642 -0.5680 -1.7170  0.3175
  154SAPE     P17010   6.633   0.536   6.862  0.0817  0.3447 -0.3378
  154SAPE   O1317011   6.624   0.678   6.908 -0.1184  0.2280  0.2249
  154SAPE   O1417012   6.724   0.448   6.940 -0.3854 -0.0567  0.1871
  154SAPE   O1217013   6.487   0.477   6.856  0.1452  0.6841 -0.1880
  154SAPE   O1117014   6.681   0.538   6.713 -0.4465  0.1496 -0.0782
  154SAPE    C117015   6.678   0.666   6.642  0.3572  0.4591  0.1382
  154SAPE    HA17016   6.578   0.713   6.635 -0.4589 -0.9715  1.4679
  154SAPE    HB17017   6.753   0.734   6.687 -0.2393 -0.7081  3.1546
  154SAPE    C217018   6.724   0.655   6.492  1.0145 -0.2980 -0.0103
  154SAPE    HS17019   6.746   0.761   6.465 -3.3268  0.3048 -1.9791
  154SAPE   O2117020   6.618   0.609   6.407  0.0497 -0.0686  0.0667
  154SAPE   C2117021   6.610   0.663   6.287 -0.3553 -0.5557  0.1049
  154SAPE   O2217022   6.673   0.757   6.243 -0.6182 -0.5974 -0.6012
  154SAPE   C2217023   6.511   0.574   6.208 -0.2444 -0.4091 -0.0102
  154SAPE   H2R17024   6.527   0.473   6.251  1.1337  0.4334  1.5830
  154SAPE   H2S17025   6.418   0.627   6.236  0.8160  1.4682  0.1117
  154SAPE    C317026   6.851   0.570   6.473  0.1511 -0.1930  0.0847
  154SAPE    HX17027   6.832   0.466   6.507 -0.9250 -0.2379 -0.6216
  154SAPE    HY17028   6.928   0.607   6.544  0.2926 -0.1620 -0.0870
  154SAPE   O3117029   6.909   0.579   6.338 -0.5899  0.0918  0.0266
  154SAPE   C3117030   7.040   0.552   6.337  0.2999 -0.1355  0.4110
  154SAPE   O3217031   7.111   0.524   6.430 -0.8700  0.0497 -0.3336
  154SAPE   C3217032   7.085   0.558   6.188  0.1566 -0.9230 -0.6735
  154SAPE   H2X17033   7.047   0.649   6.137  2.0933  0.6655  0.5607
  154SAPE   H2Y17034   7.042   0.470   6.136  1.4899 -0.8048 -2.0358
  154SAPE   C2317035   6.532   0.579   6.056 -0.1210 -0.5082  0.5231
  154SAPE   H3R17036   6.549   0.680   6.013 -2.6370 -0.4034 -0.4065
  154SAPE   H3S17037   6.433   0.543   6.021  0.1268  0.3126 -1.1105
  154SAPE   C2417038   6.651   0.491   6.009  0.1282 -0.5164  0.2206
  154SAPE   H4R17039   6.641   0.388   6.050 -1.7002  0.3066  2.0392
  154SAPE   H4S17040   6.750   0.529   6.044  0.4747  1.1045 -2.2682
  154SAPE   C2517041   6.663   0.490   5.854  0.3431 -0.6609  0.2335
  154SAPE   H5R17042   6.580   0.448   5.797  0.6531 -1.4116  0.3255
  154SAPE   C2617043   6.760   0.563   5.786  0.0957 -0.0795 -0.0352
  154SAPE   H6R17044   6.778   0.553   5.678  0.9596 -0.0230  0.0985
  154SAPE   C2717045   6.869   0.654   5.847  0.1405  0.3429 -0.1213
  154SAPE   H7R17046   6.949   0.668   5.770 -0.9103  1.2656 -1.0685
  154SAPE   H7S17047   6.935   0.600   5.918 -0.2787 -1.1453 -0.8244
  154SAPE   C2817048   6.828   0.784   5.914  0.4845 -0.3341  0.3590
  154SAPE   H8R17049   6.813   0.777   6.023 -1.7062 -2.0505  0.0206
  154SAPE   C2917050   6.795   0.897   5.841 -0.1152  0.2288  0.8197
  154SAPE   H9R17051   6.792   0.993   5.894  0.4870  2.1485 -2.3806
  154SAPE  C21017052   6.774   0.913   5.692 -0.5293  0.3161 -0.3167
  154SAPE  H10R17053   6.693   0.986   5.674 -1.5093 -0.6254  0.1821
  154SAPE  H10S17054   6.742   0.813   5.655  0.6955 -0.6665  1.1330
  154SAPE  C21117055   6.899   0.949   5.614  0.2722  0.0774  0.1321
  154SAPE  H11R17056   6.988   0.891   5.645  0.8956 -0.3446 -2.2652
  154SAPE  C21217057   6.914   1.057   5.526 -0.1191  0.2432 -0.7385
  154SAPE  H12R17058   7.007   1.065   5.467  1.5348 -0.7632  1.5749
  154SAPE  C21317059   6.801   1.145   5.485 -0.3589 -0.2893 -0.0498
  154SAPE  H13R17060   6.841   1.243   5.450 -1.3771  0.1322 -0.0937
  154SAPE  H13S17061   6.748   1.185   5.575 -1.9533  0.2949 -1.1991
  154SAPE  C21417062   6.694   1.096   5.393  0.1345 -0.0240 -0.5939
  154SAPE  H14R17063   6.596   1.073   5.436  0.7283 -0.6040  0.4892
  154SAPE  C21517064   6.707   1.084   5.262  0.5607  0.0727 -0.5955
  154SAPE  H15R17065   6.619   1.045   5.208 -0.5925  0.9433  0.5891
  154SAPE  C21617066   6.827   1.127   5.181 -0.1572  0.2118  0.5673
  154SAPE  H16R17067   6.903   1.186   5.238  0.2933 -0.0035  0.1978
  154SAPE  H16S17068   6.795   1.189   5.095  3.0755 -0.4929 -1.3033
  154SAPE  C21717069   6.895   0.991   5.126 -0.0770 -0.4579 -0.0925
  154SAPE  H17R17070   6.843   0.947   5.038 -0.7416  2.7958 -1.4814
  154SAPE  H17S17071   6.913   0.913   5.203 -0.6085 -0.7895 -0.3000
  154SAPE  C21817072   7.035   1.031   5.074 -0.9319 -0.3325  0.0033
  154SAPE  H18R17073   7.074   0.939   5.024 -0.0733 -1.8081  3.1017
  154SAPE  H18S17074   7.100   1.067   5.157 -0.6204 -1.1738  0.1362
  154SAPE  C21917075   7.053   1.134   4.957  0.9169 -0.2775  0.6002
  154SAPE  H19R17076   7.148   1.191   4.951  0.3483  0.7589  1.1701
  154SAPE  H19S17077   6.979   1.214   4.976  0.0870 -0.4288 -1.7002
  154SAPE  C22017078   7.013   1.088   4.811  0.0107  0.4496 -0.6224
  154SAPE  H20R17079   7.030   1.166   4.733 -0.4417  0.7033 -0.4681
  154SAPE  H20S17080   6.909   1.051   4.816  1.0895 -2.7840  0.4543
  154SAPE  H20T17081   7.068   0.995   4.782 -1.1288 -0.5780  0.4115
  154SAPE   C3317082   7.236   0.547   6.179 -0.2307  0.5878  0.4128
  154SAPE   H3X17083   7.282   0.477   6.251  1.7551  0.0488 -1.2741
  154SAPE   H3Y17084   7.277   0.650   6.193 -0.4531  0.6996  0.2641
  154SAPE   C3417085   7.288   0.517   6.034 -0.3912 -0.3082  0.7231
  154SAPE   H4X17086   7.396   0.544   6.041 -0.0510 -1.5800  0.6109
  154SAPE   H4Y17087   7.251   0.579   5.949  0.2312 -0.3087  0.4478
  154SAPE   C3517088   7.276   0.370   5.990 -0.6079 -0.1319  0.4719
  154SAPE   H5X17089   7.168   0.344   5.988 -0.5997 -0.3067  1.5933
  154SAPE   H5Y17090   7.328   0.320   6.074 -1.7961  0.1642  1.4066
  154SAPE   C3617091   7.332   0.339   5.852  0.5986 -0.3272 -1.0852
  154SAPE   H6X17092   7.430   0.391   5.839 -0.1438  1.3187 -0.3438
  154SAPE   H6Y17093   7.264   0.382   5.776 -0.9546 -0.6667  0.0716
  154SAPE   C3717094   7.347   0.194   5.825  0.1266 -0.0347 -0.6435
  154SAPE   H7X17095   7.263   0.141   5.874  1.2482 -0.6717  0.6563
  154SAPE   H7Y17096   7.431   0.167   5.893  0.5143  2.7470  0.1259
  154SAPE   C3817097   7.343   0.160   5.681  0.3439  0.8888 -0.1123
  154SAPE   H8X17098   7.253   0.195   5.627 -0.8900 -2.3822 -0.4012
  154SAPE   H8Y17099   7.340   0.050   5.669 -0.0374  0.2202  4.4240
  154SAPE   C3917100   7.465   0.208   5.594 -0.0619 -0.4551  0.0686
  154SAPE   H9X17101   7.563   0.189   5.643  1.6687  2.3993 -1.9689
  154SAPE   H9Y17102   7.467   0.319   5.583  0.1210 -0.6545 -2.7527
  154SAPE  C31017103   7.473   0.135   5.463  0.5987  0.6264 -0.0458
  154SAPE  H10X17104   7.385   0.172   5.405 -1.3948 -4.1794 -0.5641
  154SAPE  H10Y17105   7.446   0.028   5.474  0.7622  0.5397 -0.4733
  154SAPE  C31117106   7.607   0.152   5.392 -0.2017 -0.6785  0.1416
  154SAPE  H11X17107   7.690   0.133   5.464 -0.1299  0.1232  0.2739
  154SAPE  H11Y17108   7.628   0.253   5.352  1.4548 -0.3325  1.7423
  154SAPE  C31217109   7.618   0.055   5.277  0.0724  0.3006 -0.0955
  154SAPE  H12X17110   7.700   0.090   5.211 -0.4932 -1.1193 -1.6221
  154SAPE  H12Y17111   7.528   0.048   5.213 -0.1363  0.3061  0.1969
  154SAPE  C31317112   7.665  -0.095   5.317  0.3820 -0.2539 -0.9949
  154SAPE  H13X17113   7.600  -0.149   5.390  0.6361  1.4415  0.5536
  154SAPE  H13Y17114   7.765  -0.089   5.365 -0.4318  1.8968  0.5613
  154SAPE  C31417115   7.671  -0.176   5.189 -0.2201  0.0704 -0.6428
  154SAPE  H14X17116   7.749  -0.143   5.117  0.5690 -0.2414  0.0365
  154SAPE  H14Y17117   7.573  -0.173   5.137 -0.9084 -0.5818  0.5647
  154SAPE  C31517118   7.702  -0.319   5.227  0.1629 -0.3008  0.2310
  154SAPE  H15X17119   7.615  -0.366   5.277 -0.3617 -0.6223 -0.9415
  154SAPE  H15Y17120   7.786  -0.312   5.299 -1.9642  0.5749  2.7764
  154SAPE  C31617121   7.741  -0.408   5.115  0.7955  0.2785  0.1125
  154SAPE  H16X17122   7.769  -0.510   5.149 -0.6836 -0.5018 -0.9303
  154SAPE  H16Y17123   7.832  -0.364   5.070  1.5851  0.4379  1.7664
  154SAPE  C31717124   7.634  -0.427   5.002  1.4444 -0.1490  0.0636
  154SAPE  H17X17125   7.605  -0.326   4.966 -0.0979 -0.4088  0.4930
  154SAPE  H17Y17126   7.540  -0.473   5.040  1.6072 -1.7757 -1.3848
  154SAPE  C31817127   7.688  -0.513   4.890  0.3207  0.0259 -1.0693
  154SAPE  H18X17128   7.726  -0.609   4.930  0.4251  0.9058  1.1157
  154SAPE  H18Y17129   7.779  -0.454   4.864 -0.0874  1.0849 -0.1675
  154SAPE  H18Z17130   7.626  -0.533   4.800  0.1735  1.3099 -1.2828
  155SAPE     N17131   0.117   0.138   7.086  0.4301  0.6626 -0.4541
  155SAPE   HN117132   0.071   0.214   7.033 -2.0570 -1.1192 -1.0271
  155SAPE   HN217133   0.184   0.180   7.154  0.7255 -0.9396  0.2908
  155SAPE   HN317134   0.172   0.079   7.020  3.3924  1.8035  0.7987
  155SAPE   C1217135   0.020   0.053   7.163  0.1537  0.0218  0.0821
  155SAPE  H12A17136  -0.030   0.122   7.234 -1.2186 -0.6375 -0.2273
  155SAPE  H12B17137   0.091  -0.021   7.205 -0.1889 -0.1144  0.4188
  155SAPE   C1117138  -0.085  -0.005   7.070  0.3683 -0.9262 -0.5662
  155SAPE  H11A17139  -0.157  -0.053   7.139 -1.7841  1.2010 -1.1559
  155SAPE  H11B17140  -0.042  -0.072   6.992  3.2373  2.2021 -1.9558
  155SAPE     P17141  -0.273   0.074   6.917  0.2688 -0.2507 -0.0407
  155SAPE   O1317142  -0.290  -0.067   6.888  0.3086 -0.0533 -0.1531
  155SAPE   O1417143  -0.384   0.139   6.988  0.0043  0.4274 -0.0548
  155SAPE   O1217144  -0.139   0.103   7.002 -0.3723  0.1848 -0.2036
  155SAPE   O1117145  -0.259   0.154   6.787  0.0194 -0.3606  0.1177
  155SAPE    C117146  -0.132   0.135   6.718  0.3646 -0.2943 -0.4412
  155SAPE    HA17147  -0.065   0.204   6.773 -1.0211  0.1778  0.7328
  155SAPE    HB17148  -0.088   0.035   6.735  1.5286  0.1091 -1.0097
  155SAPE    C217149  -0.131   0.176   6.575 -0.0430  0.9920 -0.3036
  155SAPE    HS17150  -0.155   0.284   6.564 -0.5646  0.9525  0.3608
  155SAPE   O2117151  -0.208   0.089   6.496 -0.8060  0.9608 -0.0333
  155SAPE   C2117152  -0.331   0.127   6.473  0.0614 -0.4322  0.2317
  155SAPE   O2217153  -0.379   0.232   6.505  0.7616  0.3776 -1.0872
  155SAPE   C2217154  -0.416   0.011   6.405 -0.4297  0.2915 -0.3733
  155SAPE   H2R17155  -0.348  -0.072   6.377  0.0284  0.5649 -0.0830
  155SAPE   H2S17156  -0.498  -0.024   6.471  1.5516 -3.2745  0.4127
  155SAPE    C317157   0.010   0.158   6.520 -0.6363 -0.2008 -0.1827
  155SAPE    HX17158   0.053   0.060   6.551  0.9579  0.9708  1.6051
  155SAPE    HY17159   0.070   0.231   6.580 -0.6085  0.4219 -0.9617
  155SAPE   O3117160   0.025   0.184   6.377  0.3355  0.1508 -0.4819
  155SAPE   C3117161   0.033   0.078   6.295 -0.3796  0.7432 -0.2634
  155SAPE   O3217162   0.024  -0.039   6.324  1.1652 -0.1714  0.1358
  155SAPE   C3217163   0.067   0.131   6.156  0.1874 -0.0005  0.0017
  155SAPE   H2X17164   0.144   0.209   6.171 -1.5766  1.4625  1.9895
  155SAPE   H2Y17165  -0.028   0.176   6.120 -0.8536  0.6630  3.2839
  155SAPE   C2317166  -0.498   0.057   6.281 -0.8704 -0.2906 -0.0656
  155SAPE   H3R17167  -0.586   0.119   6.306 -1.0120 -0.6135  0.2509
  155SAPE   H3S17168  -0.539  -0.041   6.248 -1.3539 -0.7890  1.8847
  155SAPE   C2417169  -0.404   0.124   6.183  0.0655 -0.2244 -0.1093
  155SAPE   H4R17170  -0.307   0.070   6.184 -0.6033 -1.5720 -1.8737
  155SAPE   H4S17171  -0.392   0.229   6.218 -2.3181  1.0013 -2.5823
  155SAPE   C2517172  -0.458   0.131   6.046  0.2118  0.9629  0.2679
  155SAPE   H5R17173  -0.564   0.150   6.021 -0.3885 -1.5137  0.6012
  155SAPE   C2617174  -0.399   0.078   5.932 -0.1342 -0.1271  0.1375
  155SAPE   H6R17175  -0.454   0.092   5.838 -1.7558  0.2247  1.1145
  155SAPE   C2717176  -0.255   0.030   5.913  0.3720 -0.2011 -0.0640
  155SAPE   H7R17177  -0.201  -0.001   6.005  1.6894  0.6280 -0.5214
  155SAPE   H7S17178  -0.192   0.108   5.864  1.5127 -0.5931  0.7420
  155SAPE   C2817179  -0.254  -0.083   5.811 -0.5001 -0.5609 -0.3338
  155SAPE   H8R17180  -0.262  -0.185   5.852 -0.2726 -1.4050 -2.2752
  155SAPE   C2917181  -0.238  -0.071   5.678  0.2009 -0.3762  0.7932
  155SAPE   H9R17182  -0.240  -0.164   5.618 -1.7887  0.9537 -1.3967
  155SAPE  C21017183  -0.217   0.052   5.597  0.0108  0.0737 -0.1004
  155SAPE  H10R17184  -0.174   0.013   5.503  0.6284 -0.0926  0.2471
  155SAPE  H10S17185  -0.132   0.111   5.638 -0.3513  0.1436  0.5732
  155SAPE  C21117186  -0.340   0.138   5.589 -0.7462 -0.3697 -0.4737
  155SAPE  H11R17187  -0.343   0.225   5.657 -0.0518 -0.6791 -0.0401
  155SAPE  C21217188  -0.453   0.120   5.518 -0.1464  0.3204 -0.3919
  155SAPE  H12R17189  -0.539   0.189   5.528  0.5117  1.1645 -0.4061
  155SAPE  C21317190  -0.476   0.016   5.418 -0.2053 -0.0490 -0.5213
  155SAPE  H13R17191  -0.571  -0.036   5.445  0.3821 -1.4251 -0.9915
  155SAPE  H13S17192  -0.390  -0.050   5.443  1.9792  2.4816 -0.9754
  155SAPE  C21417193  -0.464   0.066   5.277  0.1732  0.5768  0.5370
  155SAPE  H14R17194  -0.402   0.154   5.257  0.6447  0.0613 -0.3162
  155SAPE  C21517195  -0.544   0.029   5.171 -0.2325  0.0593  0.0768
  155SAPE  H15R17196  -0.538   0.072   5.070 -0.7531  0.3488  0.1632
  155SAPE  C21617197  -0.657  -0.066   5.191  0.1336 -0.0245  0.4716
  155SAPE  H16R17198  -0.735  -0.025   5.258 -0.8345 -1.7334  0.4617
  155SAPE  H16S17199  -0.630  -0.166   5.231 -0.6486 -0.4971 -0.1314
  155SAPE  C21717200  -0.743  -0.091   5.065 -0.5172  0.0330  0.7588
  155SAPE  H17R17201  -0.759   0.009   5.019 -1.9367 -0.0952  0.9417
  155SAPE  H17S17202  -0.839  -0.140   5.091 -0.0055 -1.3937  0.0692
  155SAPE  C21817203  -0.678  -0.184   4.964 -0.1309 -0.2142  0.8528
  155SAPE  H18R17204  -0.635  -0.269   5.021  0.3798 -1.4076 -1.2043
  155SAPE  H18S17205  -0.589  -0.137   4.917  0.0853 -0.2454  1.2320
  155SAPE  C21917206  -0.776  -0.224   4.851 -0.2327  0.1008  0.4426
  155SAPE  H19R17207  -0.724  -0.246   4.756 -1.8370  1.8485 -0.9215
  155SAPE  H19S17208  -0.849  -0.143   4.831  0.0425  0.3646  0.5209
  155SAPE  C22017209  -0.848  -0.352   4.891  0.2407  0.1305 -0.5953
  155SAPE  H20R17210  -0.937  -0.365   4.826  0.2812 -0.9602 -0.4486
  155SAPE  H20S17211  -0.883  -0.341   4.996  0.4633  0.8300 -0.5888
  155SAPE  H20T17212  -0.783  -0.441   4.883 -1.2577 -1.1655  0.8483
  155SAPE   C3317213   0.126   0.015   6.060 -0.0337  0.6544  0.0333
  155SAPE   H3X17214   0.061  -0.075   6.066  1.3318 -0.2696  2.0655
  155SAPE   H3Y17215   0.223  -0.022   6.098 -1.1981 -1.5169  1.1080
  155SAPE   C3417216   0.161   0.064   5.919  0.3495 -0.2765 -0.2229
  155SAPE   H4X17217   0.251   0.127   5.902 -0.0585  0.4166  0.1324
  155SAPE   H4Y17218   0.069   0.123   5.900 -1.6293 -2.6136  1.5754
  155SAPE   C3517219   0.166  -0.041   5.806 -0.4577  0.3678  0.0394
  155SAPE   H5X17220   0.146   0.004   5.706 -1.2978  0.2658  0.1545
  155SAPE   H5Y17221   0.084  -0.113   5.830 -0.7616  1.6066  3.2153
  155SAPE   C3617222   0.302  -0.124   5.810  0.3004 -0.5387 -0.4535
  155SAPE   H6X17223   0.296  -0.181   5.906  0.7810  0.5615  0.2571
  155SAPE   H6Y17224   0.393  -0.061   5.828 -0.9724  0.9417  1.2223
  155SAPE   C3717225   0.322  -0.222   5.702  0.4526 -0.2301 -0.0491
  155SAPE   H7X17226   0.256  -0.311   5.711 -0.0627  0.1837  0.3393
  155SAPE   H7Y17227   0.421  -0.270   5.719 -0.5921 -1.9449  1.5676
  155SAPE   C3817228   0.326  -0.157   5.567 -0.0499 -0.1036  0.6513
  155SAPE   H8X17229   0.432  -0.149   5.533 -1.2123  0.8439 -3.2596
  155SAPE   H8Y17230   0.289  -0.053   5.576 -0.3368  0.1091 -2.0010
  155SAPE   C3917231   0.238  -0.222   5.455 -0.4067  0.5483  0.7983
  155SAPE   H9X17232   0.194  -0.150   5.383  0.1683 -0.8495 -1.0282
  155SAPE   H9Y17233   0.152  -0.270   5.505 -0.1717  0.3707  1.0350
  155SAPE  C31017234   0.302  -0.330   5.375 -1.2188  0.9209 -0.3073
  155SAPE  H10X17235   0.240  -0.374   5.294  1.3755 -2.5246 -0.6297
  155SAPE  H10Y17236   0.337  -0.405   5.448 -1.1032  1.7014  0.4610
  155SAPE  C31117237   0.427  -0.293   5.290  0.5833 -0.7900  0.1222
  155SAPE  H11X17238   0.509  -0.243   5.347  0.7856  0.1652 -0.9744
  155SAPE  H11Y17239   0.395  -0.224   5.209 -1.0743 -1.7501 -0.0957
  155SAPE  C31217240   0.493  -0.417   5.218  0.6145 -0.0759 -0.4834
  155SAPE  H12X17241   0.547  -0.482   5.289 -1.1785 -1.2052 -0.1078
  155SAPE  H12Y17242   0.563  -0.378   5.140 -2.1031 -1.0017 -3.6287
  155SAPE  C31317243   0.391  -0.501   5.131  0.4438  0.1573  0.8589
  155SAPE  H13X17244   0.306  -0.546   5.187  1.5077 -3.8544 -0.4033
  155SAPE  H13Y17245   0.448  -0.590   5.096 -1.9896 -1.5493  0.9946
  155SAPE  C31417246   0.343  -0.426   5.008  0.0115  0.0833 -0.4142
  155SAPE  H14X17247   0.421  -0.390   4.939 -0.8527  0.7232 -1.0826
  155SAPE  H14Y17248   0.307  -0.330   5.050  2.2990  0.6440  0.3601
  155SAPE  C31517249   0.229  -0.500   4.922 -0.8449 -0.4588 -0.0039
  155SAPE  H15X17250   0.146  -0.514   4.994  0.1691  0.2841  1.3595
  155SAPE  H15Y17251   0.272  -0.595   4.884 -1.0673 -0.2571 -0.7738
  155SAPE  C31617252   0.178  -0.403   4.813  0.2054 -0.4735  0.4655
  155SAPE  H16X17253   0.259  -0.404   4.736  0.7653  0.0171  1.0323
  155SAPE  H16Y17254   0.178  -0.297   4.843  1.4703  0.1432 -1.4945
  155SAPE  C31717255   0.052  -0.463   4.750  0.5570  0.0715 -0.6872
  155SAPE  H17X17256  -0.026  -0.461   4.829  0.1893 -1.6108 -0.9543
  155SAPE  H17Y17257   0.071  -0.570   4.725 -0.8618 -0.7770  1.5806
  155SAPE  C31817258   0.007  -0.385   4.627 -0.1301 -0.0442 -0.0845
  155SAPE  H18X17259  -0.001  -0.449   4.537  2.4188 -2.9949  1.5723
  155SAPE  H18Y17260   0.083  -0.307   4.605  0.8116 -0.5744  1.1654
  155SAPE  H18Z17261  -0.094  -0.340   4.644 -0.0661  0.4368 -0.9332
  156SAPE     N17262   2.124   1.454   7.562  0.2801 -0.1503  0.2855
  156SAPE   HN117263   2.171   1.438   7.654  0.3768  1.5290  0.5521
  156SAPE   HN217264   2.187   1.436   7.481 -0.2320  0.4878 -0.2601
  156SAPE   HN317265   2.081   1.548   7.560 -0.8922 -0.5487  2.8156
  156SAPE   C1217266   2.001   1.369   7.540  0.0852  0.3545 -0.2348
  156SAPE  H12A17267   1.918   1.437   7.513  1.4308  2.3117  0.3574
  156SAPE  H12B17268   1.979   1.317   7.636 -1.9331 -0.5444 -1.1173
  156SAPE   C1117269   2.021   1.281   7.422 -0.4314  0.3094  0.2989
  156SAPE  H11A17270   2.049   1.338   7.331 -2.2363 -1.2524 -1.3386
  156SAPE  H11B17271   1.928   1.233   7.386 -0.5243  1.6140 -1.2947
  156SAPE     P17272   2.111   1.039   7.464  0.3464  0.3238 -0.1942
  156SAPE   O1317273   2.241   0.970   7.451  0.0996  0.9510 -0.1182
  156SAPE   O1417274   2.021   1.012   7.579  0.0006  0.2646 -0.3133
  156SAPE   O1217275   2.129   1.190   7.436 -0.2049  0.1652 -0.6344
  156SAPE   O1117276   2.020   1.005   7.339  0.1445  0.2378 -0.1052
  156SAPE    C117277   2.069   1.000   7.206  0.0052  0.0206 -0.4730
  156SAPE    HA17278   2.122   1.094   7.182 -1.1978  1.0187  0.6081
  156SAPE    HB17279   2.149   0.924   7.191  0.7493  1.1217 -2.3874
  156SAPE    C217280   1.965   0.964   7.104 -0.3884  0.1392 -0.4445
  156SAPE    HS17281   1.895   0.890   7.148 -0.1840  1.1881  1.7646
  156SAPE   O2117282   2.023   0.893   6.988  0.3037 -0.1254 -0.0452
  156SAPE   C2117283   1.936   0.876   6.890 -0.1439 -0.1522  0.2032
  156SAPE   O2217284   1.816   0.873   6.906 -0.6335 -0.1851 -0.3868
  156SAPE   C2217285   2.013   0.836   6.761  0.2703 -0.0694  0.1932
  156SAPE   H2R17286   2.087   0.919   6.753  2.5534 -1.7663  2.1235
  156SAPE   H2S17287   2.065   0.744   6.796 -0.4199 -0.0088  1.4042
  156SAPE    C317288   1.887   1.096   7.072 -0.3511  0.0598  0.6531
  156SAPE    HX17289   1.871   1.150   7.168 -0.2481  0.4971  0.4221
  156SAPE    HY17290   1.789   1.073   7.024 -0.4393  1.8929 -0.0992
  156SAPE   O3117291   1.972   1.169   6.980 -0.4854  0.0441 -0.0513
  156SAPE   C3117292   1.917   1.284   6.946 -0.4729 -0.6161 -0.4880
  156SAPE   O3217293   1.817   1.332   6.994  0.0453 -0.4053 -1.0393
  156SAPE   C3217294   1.990   1.337   6.817  0.5381  0.3673 -0.1633
  156SAPE   H2X17295   2.098   1.342   6.841  0.0324  1.8390  2.1559
  156SAPE   H2Y17296   1.959   1.442   6.799 -0.7716 -0.4866 -3.6540
  156SAPE   C2317297   1.926   0.834   6.629 -0.0517  0.9245  0.4511
  156SAPE   H3R17298   1.988   0.887   6.554  0.0923  3.0163  1.9461
  156SAPE   H3S17299   1.834   0.894   6.643 -2.1612 -1.8498 -0.6087
  156SAPE   C2417300   1.888   0.695   6.578  0.4267 -0.2117 -0.6933
  156SAPE   H4R17301   1.879   0.626   6.665  0.5723  0.2539 -0.2997
  156SAPE   H4S17302   1.971   0.654   6.517 -0.6003  0.6295 -2.7338
  156SAPE   C2517303   1.751   0.682   6.514  0.0769  0.1290 -0.0949
  156SAPE   H5R17304   1.675   0.758   6.539 -1.1248 -0.7816 -0.8523
  156SAPE   C2617305   1.722   0.631   6.390  0.4134 -0.0278  0.1281
  156SAPE   H6R17306   1.616   0.644   6.362 -0.8187  0.6303  4.3962
  156SAPE   C2717307   1.820   0.557   6.305  0.5490  0.1507  0.3158
  156SAPE   H7R17308   1.894   0.503   6.367  0.1066 -1.3189 -0.4002
  156SAPE   H7S17309   1.880   0.624   6.239 -0.9801 -1.0998 -2.5147
  156SAPE   C2817310   1.764   0.449   6.210  0.2172 -0.1310  1.1074
  156SAPE   H8R17311   1.660   0.417   6.226  0.6631 -2.4612 -0.1897
  156SAPE   C2917312   1.826   0.408   6.095 -0.5698 -0.3380 -0.0455
  156SAPE   H9R17313   1.780   0.327   6.036  0.8373  0.1023 -1.7956
  156SAPE  C21017314   1.968   0.442   6.057 -0.4853  0.3472  0.2917
  156SAPE  H10R17315   2.030   0.349   6.056 -0.9756 -0.0028 -1.8295
  156SAPE  H10S17316   2.012   0.514   6.129 -0.9012 -0.9050  1.8751
  156SAPE  C21117317   1.960   0.506   5.912  0.5006  1.0894  0.7477
  156SAPE  H11R17318   1.938   0.613   5.906 -2.3317  0.6403  1.5502
  156SAPE  C21217319   1.987   0.439   5.794  0.6041 -0.4516 -1.0645
  156SAPE  H12R17320   1.983   0.492   5.698  1.2611 -2.0384 -1.9997
  156SAPE  C21317321   2.030   0.293   5.785 -0.1708 -0.4755 -0.1652
  156SAPE  H13R17322   1.951   0.251   5.719 -0.6700 -0.9197  0.7055
  156SAPE  H13S17323   2.029   0.250   5.887  2.4379  1.5465  0.8156
  156SAPE  C21417324   2.166   0.275   5.712 -0.1377 -0.2515 -0.8650
  156SAPE  H14R17325   2.209   0.356   5.650  0.8394  0.2819  0.4638
  156SAPE  C21517326   2.237   0.158   5.713  0.0727  0.0350 -0.4663
  156SAPE  H15R17327   2.340   0.161   5.673  0.2548  1.9171  0.0653
  156SAPE  C21617328   2.195   0.032   5.785 -0.5889 -0.5303  0.2330
  156SAPE  H16R17329   2.110   0.058   5.853  0.2109 -1.0094  1.4588
  156SAPE  H16S17330   2.279  -0.003   5.849  0.2326  0.0166 -0.5291
  156SAPE  C21717331   2.156  -0.090   5.701  0.5294  0.4933 -0.3173
  156SAPE  H17R17332   2.072  -0.065   5.633 -0.6586 -0.5198  0.7321
  156SAPE  H17S17333   2.126  -0.173   5.769 -2.3190  1.0892 -0.7105
  156SAPE  C21817334   2.273  -0.136   5.619  0.6947  0.2981 -0.0363
  156SAPE  H18R17335   2.334  -0.056   5.573 -1.4754  0.1482 -3.5634
  156SAPE  H18S17336   2.229  -0.187   5.530 -2.0176  1.1640  0.7174
  156SAPE  C21917337   2.356  -0.235   5.701 -0.0134 -0.0338  0.5612
  156SAPE  H19R17338   2.310  -0.330   5.734  3.9686 -2.2791  0.2637
  156SAPE  H19S17339   2.394  -0.188   5.794 -0.1159 -1.0136  1.1080
  156SAPE  C22017340   2.481  -0.280   5.629 -0.0930 -0.3665  0.1658
  156SAPE  H20R17341   2.465  -0.343   5.539  0.3979  0.4981 -0.5446
  156SAPE  H20S17342   2.543  -0.326   5.709 -1.1320  0.1339  1.2853
  156SAPE  H20T17343   2.550  -0.197   5.602  0.3356 -0.6591  0.3318
  156SAPE   C3317344   1.947   1.255   6.686  0.1490 -0.2281 -0.0462
  156SAPE   H3X17345   1.837   1.266   6.675 -1.1420 -3.1059  5.8371
  156SAPE   H3Y17346   1.957   1.146   6.707 -1.4902 -0.4659 -0.3646
  156SAPE   C3417347   2.025   1.309   6.572 -0.7324 -0.6166  0.1335
  156SAPE   H4X17348   2.135   1.296   6.585 -0.9122 -0.6684  1.8071
  156SAPE   H4Y17349   2.006   1.418   6.562  2.6669  0.2529  1.7410
  156SAPE   C3517350   2.000   1.225   6.444 -0.3341 -0.6129  0.1375
  156SAPE   H5X17351   1.889   1.217   6.440 -0.4324  0.9011 -2.0690
  156SAPE   H5Y17352   2.044   1.123   6.449  0.8412 -0.2603 -1.9018
  156SAPE   C3617353   2.068   1.293   6.320  0.0343 -0.7647  0.1309
  156SAPE   H6X17354   2.177   1.273   6.317  0.0132 -0.8660 -2.7753
  156SAPE   H6Y17355   2.055   1.403   6.322 -0.2565 -0.7682 -0.9526
  156SAPE   C3717356   1.999   1.251   6.188  0.8263 -0.4062 -0.4100
  156SAPE   H7X17357   1.896   1.293   6.195 -0.2701 -2.8266 -0.9562
  156SAPE   H7Y17358   1.991   1.141   6.202 -0.3395 -0.3398 -0.4403
  156SAPE   C3817359   2.061   1.292   6.049  0.3679  0.3395  0.1782
  156SAPE   H8X17360   2.090   1.399   6.050  1.0660  0.1481  1.0938
  156SAPE   H8Y17361   1.984   1.291   5.968  2.0060  1.6248 -1.4927
  156SAPE   C3917362   2.182   1.209   6.010  0.1248  0.6482  0.1831
  156SAPE   H9X17363   2.170   1.111   6.061 -0.1002  1.1650  1.1338
  156SAPE   H9Y17364   2.272   1.256   6.055  0.4618 -1.0284  1.3711
  156SAPE  C31017365   2.190   1.174   5.863 -0.4542  0.0715  1.0910
  156SAPE  H10X17366   2.105   1.110   5.829 -0.3761  0.3855  0.2817
  156SAPE  H10Y17367   2.278   1.105   5.859 -0.9433 -0.5617  1.1145
  156SAPE  C31117368   2.195   1.303   5.767  0.1742 -0.0330 -0.2850
  156SAPE  H11X17369   2.286   1.361   5.795 -1.0202  1.6145  0.3583
  156SAPE  H11Y17370   2.118   1.375   5.801 -0.4150 -1.1787  0.8823
  156SAPE  C31217371   2.175   1.286   5.618  0.5416 -1.1524 -0.4976
  156SAPE  H12X17372   2.153   1.382   5.568  1.6467 -1.3050 -1.3223
  156SAPE  H12Y17373   2.078   1.233   5.624 -0.3631  0.5918  1.3051
  156SAPE  C31317374   2.285   1.226   5.546 -1.0009 -0.1408  0.0184
  156SAPE  H13X17375   2.331   1.141   5.600  1.5530  0.8701 -0.4125
  156SAPE  H13Y17376   2.365   1.304   5.545  0.4302 -1.5656  0.2445
  156SAPE  C31417377   2.256   1.178   5.404 -0.1107 -0.2253 -0.4087
  156SAPE  H14X17378   2.195   1.086   5.410 -0.1768 -0.3499 -2.2677
  156SAPE  H14Y17379   2.354   1.165   5.353 -0.1071 -0.7433 -0.2723
  156SAPE  C31517380   2.159   1.265   5.320 -0.2555  0.2747 -0.3060
  156SAPE  H15X17381   2.200   1.367   5.333 -0.5716  0.1592  2.0015
  156SAPE  H15Y17382   2.064   1.258   5.376 -0.1817 -1.0194 -0.3086
  156SAPE  C31617383   2.137   1.221   5.173  0.0794  0.7503 -0.4070
  156SAPE  H16X17384   2.088   1.122   5.188 -0.2868  0.9676 -0.1279
  156SAPE  H16Y17385   2.232   1.212   5.118  0.5585  0.2990  0.4623
  156SAPE  C31717386   2.058   1.322   5.083 -0.2180 -0.2819  0.2789
  156SAPE  H17X17387   2.070   1.423   5.128 -3.2406 -0.3195  1.4388
  156SAPE  H17Y17388   1.948   1.305   5.087 -0.4532  0.8207 -0.6525
  156SAPE  C31817389   2.104   1.322   4.932  0.9986  0.4382 -0.0906
  156SAPE  H18X17390   2.209   1.358   4.929  1.5717 -1.2117 -0.7212
  156SAPE  H18Y17391   2.044   1.394   4.872  0.3976 -0.9005 -1.1516
  156SAPE  H18Z17392   2.107   1.221   4.886  0.3891  0.0471  0.7058
  157SAPE     N17393   1.860   4.303   6.963  0.8753 -0.0603 -0.2436
  157SAPE   HN117394   1.831   4.261   7.054 -0.4582 -0.1384 -0.6793
  157SAPE   HN217395   1.780   4.297   6.897  1.0870 -0.8408 -0.4420
  157SAPE   HN317396   1.938   4.239   6.937  0.0400 -1.5668  0.7867
  157SAPE   C1217397   1.913   4.443   6.983  0.5378 -0.9550 -0.5096
  157SAPE  H12A17398   1.965   4.486   6.894 -1.3653  0.9556 -0.8112
  157SAPE  H12B17399   1.970   4.437   7.078 -3.0062 -2.7917  1.7309
  157SAPE   C1117400   1.796   4.536   7.018  0.5564 -0.7473  0.1547
  157SAPE  H11A17401   1.844   4.634   7.041  3.7786 -2.1436 -0.0958
  157SAPE  H11B17402   1.754   4.503   7.116  0.2846  0.5257  0.4962
  157SAPE     P17403   1.544   4.563   6.938 -0.2357  0.3003 -0.1074
  157SAPE   O1317404   1.465   4.443   6.897  0.5101  0.1923 -0.3433
  157SAPE   O1417405   1.524   4.611   7.077  1.0811 -0.1764  0.0631
  157SAPE   O1217406   1.697   4.529   6.918  0.1788 -0.4443 -0.0295
  157SAPE   O1117407   1.520   4.665   6.830 -0.0343  0.0790 -0.4203
  157SAPE    C117408   1.602   4.779   6.809 -0.5855 -0.2702 -0.6540
  157SAPE    HA17409   1.569   4.866   6.869 -0.6371 -0.7968  0.1056
  157SAPE    HB17410   1.704   4.757   6.847 -0.9301 -0.8266 -0.0177
  157SAPE    C217411   1.586   4.825   6.665  0.1418 -0.1186  0.9247
  157SAPE    HS17412   1.680   4.878   6.639 -0.1990  0.6757  1.2697
  157SAPE   O2117413   1.464   4.899   6.639  0.2260 -0.1249  0.3595
  157SAPE   C2117414   1.498   5.025   6.642  0.0050 -0.4869  0.2723
  157SAPE   O2217415   1.604   5.067   6.678  0.0880  0.3490  0.6762
  157SAPE   C2217416   1.384   5.122   6.591 -0.5294  0.3106  0.2184
  157SAPE   H2R17417   1.316   5.146   6.676  1.3169 -0.5500  2.0186
  157SAPE   H2S17418   1.438   5.218   6.576  0.8057 -0.4846 -0.2186
  157SAPE    C317419   1.588   4.708   6.564  0.1758 -0.3845  0.1272
  157SAPE    HX17420   1.493   4.654   6.584 -0.2903  0.0810 -0.7895
  157SAPE    HY17421   1.674   4.643   6.589 -0.1619 -0.1104  2.1812
  157SAPE   O3117422   1.586   4.744   6.428 -0.0407 -0.1994 -0.2477
  157SAPE   C3117423   1.691   4.803   6.372  0.0350 -0.9893  0.3042
  157SAPE   O3217424   1.794   4.842   6.426  0.4343  0.3473  0.9668
  157SAPE   C3217425   1.678   4.775   6.222 -0.5725 -0.1193  0.6320
  157SAPE   H2X17426   1.664   4.670   6.188  0.6437  0.2368 -1.1268
  157SAPE   H2Y17427   1.776   4.803   6.178 -0.8818  0.0196  0.0195
  157SAPE   C2317428   1.307   5.077   6.467  0.3853  0.2778 -0.1028
  157SAPE   H3R17429   1.213   5.136   6.456  0.5014  0.2726 -1.1900
  157SAPE   H3S17430   1.273   4.976   6.500  1.9433  0.2189  1.5010
  157SAPE   C2417431   1.387   5.067   6.339 -0.2241  0.5570  0.3536
  157SAPE   H4R17432   1.323   5.019   6.262  1.7350 -0.9345 -0.4158
  157SAPE   H4S17433   1.470   5.000   6.370  1.5463  2.3428 -0.3384
  157SAPE   C2517434   1.445   5.193   6.291  0.4827 -0.2540 -0.5182
  157SAPE   H5R17435   1.527   5.235   6.352  0.4072  2.2849 -2.0129
  157SAPE   C2617436   1.409   5.260   6.181 -0.0204  0.5312 -0.5378
  157SAPE   H6R17437   1.462   5.356   6.170  2.0640 -0.6104 -1.1153
  157SAPE   C2717438   1.307   5.227   6.078 -0.1640  0.5508  0.6709
  157SAPE   H7R17439   1.250   5.317   6.046  0.3996  1.1792  1.4112
  157SAPE   H7S17440   1.224   5.170   6.124 -1.8064  0.4125 -2.1879
  157SAPE   C2817441   1.355   5.157   5.953 -0.2529 -0.3008 -0.1969
  157SAPE   H8R17442   1.446   5.097   5.965 -1.4861 -1.7361  3.1567
  157SAPE   C2917443   1.315   5.180   5.827  0.7489 -0.1752 -0.0606
  157SAPE   H9R17444   1.370   5.130   5.747  0.8690  1.0124 -0.7359
  157SAPE  C21017445   1.196   5.265   5.792  0.5741 -0.7597 -0.5187
  157SAPE  H10R17446   1.215   5.369   5.828 -1.9977  0.2438 -1.8455
  157SAPE  H10S17447   1.101   5.230   5.838  1.5814 -2.4503  0.3716
  157SAPE  C21117448   1.174   5.261   5.645  0.3348 -0.6782 -0.2590
  157SAPE  H11R17449   1.192   5.162   5.600 -1.9541 -1.4560  0.4046
  157SAPE  C21217450   1.140   5.360   5.555 -0.6192  0.1685 -0.5742
  157SAPE  H12R17451   1.120   5.342   5.448  0.3981 -0.2860 -0.6987
  157SAPE  C21317452   1.122   5.504   5.594 -0.5468 -0.2538 -0.4461
  157SAPE  H13R17453   1.161   5.518   5.697 -0.5760  0.5562 -0.5405
  157SAPE  H13S17454   1.013   5.524   5.605 -0.7250 -1.1728 -0.4991
  157SAPE  C21417455   1.172   5.599   5.487 -0.1608 -0.7183 -0.0848
  157SAPE  H14R17456   1.281   5.590   5.472 -0.1226  0.0804 -0.3681
  157SAPE  C21517457   1.097   5.675   5.403  0.3717  0.3932 -0.8175
  157SAPE  H15R17458   1.146   5.747   5.335  0.4529  1.5108  0.3898
  157SAPE  C21617459   0.952   5.691   5.404  0.3258 -0.3402  0.1251
  157SAPE  H16R17460   0.924   5.793   5.371 -2.4048 -0.5274  1.5746
  157SAPE  H16S17461   0.912   5.689   5.508 -0.8275  0.0717 -0.2931
  157SAPE  C21717462   0.869   5.579   5.328  0.2016  0.1187 -0.2899
  157SAPE  H17R17463   0.765   5.620   5.325  0.2967  0.5876  1.4924
  157SAPE  H17S17464   0.869   5.484   5.386  1.8932  1.1635  1.5365
  157SAPE  C21817465   0.928   5.542   5.188  0.1540 -0.5643  0.8768
  157SAPE  H18R17466   0.989   5.451   5.204 -0.1880 -1.0872 -0.6088
  157SAPE  H18S17467   0.992   5.626   5.155  0.1769 -0.1523  1.9147
  157SAPE  C21917468   0.826   5.500   5.073 -0.0696 -0.0631  0.3219
  157SAPE  H19R17469   0.745   5.435   5.111 -1.7088 -0.6631 -3.7088
  157SAPE  H19S17470   0.874   5.440   4.993 -0.0913  0.2383  0.0776
  157SAPE  C22017471   0.774   5.625   5.007  0.4716  0.7803 -0.4032
  157SAPE  H20R17472   0.707   5.602   4.922  0.2156  0.8404 -0.2189
  157SAPE  H20S17473   0.853   5.689   4.962 -0.4779  1.1613 -1.5838
  157SAPE  H20T17474   0.716   5.680   5.084 -0.8865 -0.7413 -0.2840
  157SAPE   C3317475   1.570   4.859   6.153  0.3570  0.1369  0.0778
  157SAPE   H3X17476   1.595   4.967   6.143 -0.6201  0.5836  2.0736
  157SAPE   H3Y17477   1.477   4.857   6.214 -0.5030 -0.8335 -1.1998
  157SAPE   C3417478   1.514   4.807   6.015  0.4807 -0.3847  0.6367
  157SAPE   H4X17479   1.424   4.869   5.993  0.8764 -0.1015 -0.2537
  157SAPE   H4Y17480   1.497   4.698   6.014 -1.6796 -0.1027  0.7553
  157SAPE   C3517481   1.612   4.840   5.902  0.3559  0.5028  0.4150
  157SAPE   H5X17482   1.699   4.775   5.927  1.1559  1.8044  1.1205
  157SAPE   H5Y17483   1.642   4.947   5.903 -0.9153  0.8732  1.2805
  157SAPE   C3617484   1.548   4.796   5.767  0.1066  0.3161  0.2823
  157SAPE   H6X17485   1.450   4.846   5.768 -0.3450 -0.5418  0.0384
  157SAPE   H6Y17486   1.519   4.689   5.760  0.6849  0.2468 -3.8618
  157SAPE   C3717487   1.636   4.827   5.643  0.2570  0.0784  0.1599
  157SAPE   H7X17488   1.717   4.753   5.662 -0.4238  0.1859  4.4636
  157SAPE   H7Y17489   1.684   4.927   5.652  0.7653 -0.0812 -0.6357
  157SAPE   C3817490   1.565   4.813   5.505 -0.2659 -0.0253  0.5752
  157SAPE   H8X17491   1.465   4.861   5.511 -1.4456 -2.0549 -1.6727
  157SAPE   H8Y17492   1.549   4.704   5.495 -1.2452  0.0224  1.4396
  157SAPE   C3917493   1.655   4.856   5.391  0.2357  0.1422 -0.0107
  157SAPE   H9X17494   1.649   4.965   5.373 -1.0832  0.0293 -0.3187
  157SAPE   H9Y17495   1.619   4.806   5.299  0.5176 -1.1491  0.5589
  157SAPE  C31017496   1.804   4.818   5.411 -0.3974 -0.0922  0.4444
  157SAPE  H10X17497   1.813   4.709   5.430 -0.5411 -1.1434 -4.3629
  157SAPE  H10Y17498   1.857   4.878   5.488  1.4323  0.6156 -1.2782
  157SAPE  C31117499   1.884   4.823   5.270 -0.3823  0.4074 -0.7025
  157SAPE  H11X17500   1.872   4.921   5.219 -3.3747  0.8001  0.5775
  157SAPE  H11Y17501   1.829   4.752   5.204 -1.1952  0.1216  0.2542
  157SAPE  C31217502   2.028   4.764   5.269  0.1618  0.4552 -0.2013
  157SAPE  H12X17503   2.077   4.768   5.169  3.8520 -1.3926  1.3296
  157SAPE  H12Y17504   2.023   4.655   5.291 -1.3943  0.4589 -0.4435
  157SAPE  C31317505   2.125   4.825   5.372 -0.2521 -1.2266  0.2435
  157SAPE  H13X17506   2.068   4.881   5.449 -1.2917 -1.0783 -0.6058
  157SAPE  H13Y17507   2.182   4.905   5.320 -2.4238  1.0261  1.1611
  157SAPE  C31417508   2.219   4.727   5.451 -0.1587  0.1578  0.0356
  157SAPE  H14X17509   2.313   4.774   5.487  0.6286 -1.3174 -0.0329
  157SAPE  H14Y17510   2.253   4.643   5.387  0.2782  0.1905  0.2189
  157SAPE  C31517511   2.159   4.657   5.575 -0.4878 -0.4727 -0.3503
  157SAPE  H15X17512   2.220   4.571   5.611 -0.2445  0.1020  0.6198
  157SAPE  H15Y17513   2.054   4.627   5.555 -0.4361 -0.2248 -1.0295
  157SAPE  C31617514   2.153   4.757   5.696  0.4939 -0.5756 -0.6157
  157SAPE  H16X17515   2.098   4.847   5.661  1.4341 -0.0967 -0.8941
  157SAPE  H16Y17516   2.253   4.784   5.737 -0.7277  0.3765  1.9648
  157SAPE  C31717517   2.085   4.694   5.819 -0.0885 -0.2129 -0.1553
  157SAPE  H17X17518   2.138   4.606   5.860  0.1377  1.0626  2.5013
  157SAPE  H17Y17519   1.988   4.651   5.788  0.3135 -1.4120  0.2147
  157SAPE  C31817520   2.070   4.803   5.933 -0.0536  0.1961  0.8247
  157SAPE  H18X17521   2.008   4.750   6.009 -1.6856 -1.4554 -1.4997
  157SAPE  H18Y17522   2.007   4.888   5.900 -0.0269  1.2181  3.1726
  157SAPE  H18Z17523   2.170   4.821   5.977  0.0604 -0.2975  0.7805
  158SAPE     N17524   2.516   5.101   7.495 -0.0502  0.2213  0.0230
  158SAPE   HN117525   2.527   5.124   7.596 -0.4555 -0.8957  0.3386
  158SAPE   HN217526   2.608   5.095   7.447  0.7183  3.1953  0.9124
  158SAPE   HN317527   2.453   5.176   7.460 -2.1564 -0.4603  2.0281
  158SAPE   C1217528   2.437   4.973   7.501 -0.4050 -0.1612  0.6807
  158SAPE  H12A17529   2.351   4.982   7.570 -0.6569  0.3849  0.2948
  158SAPE  H12B17530   2.506   4.898   7.546  2.9667  2.7712  0.8179
  158SAPE   C1117531   2.393   4.940   7.360 -0.5146 -0.1771 -0.2819
  158SAPE  H11A17532   2.334   5.022   7.313  1.1770  0.6228 -1.1282
  158SAPE  H11B17533   2.324   4.854   7.369 -0.0471 -0.3661  1.9362
  158SAPE     P17534   2.555   4.773   7.229  0.3486  0.0231  0.0098
  158SAPE   O1317535   2.684   4.793   7.160  0.2947  0.1477  0.3279
  158SAPE   O1417536   2.560   4.672   7.346 -0.1342  0.3400  0.8398
  158SAPE   O1217537   2.504   4.911   7.273  0.0320 -1.0430  0.4722
  158SAPE   O1117538   2.451   4.740   7.121 -0.0104 -0.1906  0.0237
  158SAPE    C117539   2.379   4.828   7.036  0.3070 -0.0960  0.2788
  158SAPE    HA17540   2.275   4.789   7.041  1.0923 -2.4642 -0.5562
  158SAPE    HB17541   2.369   4.930   7.077 -1.2112 -0.7135  1.5250
  158SAPE    C217542   2.439   4.831   6.892 -0.2315  0.3695  0.1544
  158SAPE    HS17543   2.546   4.860   6.893  0.4726 -1.8418  3.3443
  158SAPE   O2117544   2.354   4.920   6.816  0.4707 -0.9352  0.0459
  158SAPE   C2117545   2.383   5.051   6.814  0.0073 -0.6524 -0.3025
  158SAPE   O2217546   2.472   5.101   6.883  0.2036  0.5900 -0.3857
  158SAPE   C2217547   2.294   5.117   6.718  0.5229  0.2817 -0.7399
  158SAPE   H2R17548   2.227   5.053   6.657 -0.3327 -0.4319  0.9022
  158SAPE   H2S17549   2.224   5.177   6.781  1.1640  1.3408 -0.9994
  158SAPE    C317550   2.436   4.675   6.846 -0.7574  0.4984 -0.1559
  158SAPE    HX17551   2.334   4.649   6.810 -0.9866  1.5218 -0.2804
  158SAPE    HY17552   2.450   4.612   6.936 -1.3885 -0.2045 -0.5332
  158SAPE   O3117553   2.527   4.649   6.732  0.3749  0.4842  0.4068
  158SAPE   C3117554   2.642   4.594   6.748 -0.7811  0.2034  0.1428
  158SAPE   O3217555   2.695   4.562   6.853 -0.2972 -0.5794  0.0226
  158SAPE   C3217556   2.706   4.577   6.611  0.1743  0.2367  0.9876
  158SAPE   H2X17557   2.706   4.675   6.558  0.8686 -0.8168 -1.0994
  158SAPE   H2Y17558   2.636   4.510   6.557 -0.0575  1.8882 -0.8724
  158SAPE   C2317559   2.360   5.216   6.628 -0.7122  0.2959  0.8444
  158SAPE   H3R17560   2.442   5.270   6.680  0.0012  1.2156 -1.1409
  158SAPE   H3S17561   2.287   5.294   6.598  1.1952  1.1074 -2.2157
  158SAPE   C2417562   2.427   5.146   6.504 -0.1069  0.4912 -0.8248
  158SAPE   H4R17563   2.362   5.071   6.454 -0.8827 -0.1110  0.9958
  158SAPE   H4S17564   2.522   5.093   6.530  0.0569  2.4374  3.4309
  158SAPE   C2517565   2.456   5.251   6.407 -0.2925 -0.4743  0.3503
  158SAPE   H5R17566   2.518   5.331   6.452 -1.3099 -0.7919  2.4597
  158SAPE   C2617567   2.409   5.264   6.278 -0.6959 -0.2091  0.2264
  158SAPE   H6R17568   2.452   5.345   6.217 -2.1783  0.0008 -0.5896
  158SAPE   C2717569   2.315   5.175   6.203  0.6828 -0.0513 -0.3133
  158SAPE   H7R17570   2.265   5.239   6.127  2.3456  0.0624 -1.3426
  158SAPE   H7S17571   2.242   5.140   6.280 -1.8597  1.5861 -1.8284
  158SAPE   C2817572   2.394   5.066   6.133 -0.2019 -0.5929 -0.3769
  158SAPE   H8R17573   2.432   4.984   6.195  0.0705  0.9157  1.5275
  158SAPE   C2917574   2.422   5.057   6.006  0.2952 -0.3587  0.0441
  158SAPE   H9R17575   2.469   4.962   5.976  0.9375  0.2465 -0.9306
  158SAPE  C21017576   2.393   5.145   5.881 -0.2102  0.0643  0.1473
  158SAPE  H10R17577   2.478   5.213   5.859 -0.4604  0.5984  0.7881
  158SAPE  H10S17578   2.309   5.217   5.894  0.0328  0.7764 -1.8795
  158SAPE  C21117579   2.353   5.066   5.758  0.4607  0.0743 -0.5972
  158SAPE  H11R17580   2.397   4.965   5.749  1.0394  0.2758 -0.1283
  158SAPE  C21217581   2.278   5.108   5.661  0.2295 -0.6595  0.0032
  158SAPE  H12R17582   2.263   5.034   5.582 -0.6531  0.0604 -0.5208
  158SAPE  C21317583   2.213   5.246   5.638 -0.7183  0.7781 -0.3841
  158SAPE  H13R17584   2.293   5.321   5.618  0.5205 -1.1345 -3.2867
  158SAPE  H13S17585   2.158   5.279   5.728 -2.9134 -0.1912 -1.2923
  158SAPE  C21417586   2.111   5.238   5.537 -0.1888  0.3754 -0.1721
  158SAPE  H14R17587   2.018   5.181   5.551  1.1816 -1.7193  1.0746
  158SAPE  C21517588   2.121   5.305   5.422  0.3224 -0.0795 -0.1355
  158SAPE  H15R17589   2.040   5.304   5.348 -1.4907 -1.3314  1.7271
  158SAPE  C21617590   2.232   5.386   5.372  0.8287  0.5117 -0.1477
  158SAPE  H16R17591   2.326   5.365   5.428 -0.5334 -2.2841  1.3512
  158SAPE  H16S17592   2.209   5.493   5.387 -1.0048  0.5472 -2.6473
  158SAPE  C21717593   2.269   5.380   5.215 -0.3379  0.3007 -0.1158
  158SAPE  H17R17594   2.354   5.451   5.200 -0.7639  0.5065 -1.7285
  158SAPE  H17S17595   2.182   5.412   5.154 -2.7320 -0.3525  2.7470
  158SAPE  C21817596   2.314   5.245   5.172  0.5377 -0.9173 -0.3976
  158SAPE  H18R17597   2.237   5.167   5.187 -0.7139  0.4472  0.5405
  158SAPE  H18S17598   2.397   5.205   5.234  0.6796 -0.8095 -0.5160
  158SAPE  C21917599   2.349   5.231   5.028 -1.2310  0.3141  0.2839
  158SAPE  H19R17600   2.433   5.299   5.004 -1.3379  0.1875 -0.4765
  158SAPE  H19S17601   2.265   5.259   4.961 -1.1604  1.2159  0.5624
  158SAPE  C22017602   2.384   5.082   5.000 -0.4484 -0.1779  0.2996
  158SAPE  H20R17603   2.301   5.016   5.033  0.8631 -0.8948  2.3927
  158SAPE  H20S17604   2.465   5.061   5.073  0.1440 -1.4251 -0.6870
  158SAPE  H20T17605   2.404   5.055   4.894 -2.3424  2.4148 -0.8296
  158SAPE   C3317606   2.851   4.522   6.621  0.6589 -0.2741 -0.4613
  158SAPE   H3X17607   2.839   4.431   6.685 -0.6307 -0.3683 -0.7988
  158SAPE   H3Y17608   2.915   4.595   6.676 -0.5742  0.9184 -0.5498
  158SAPE   C3417609   2.916   4.497   6.483 -0.5390 -0.9054 -0.6384
  158SAPE   H4X17610   3.005   4.432   6.490 -1.2941 -1.8676  0.5489
  158SAPE   H4Y17611   2.948   4.596   6.444  1.1588 -0.8177  0.8522
  158SAPE   C3517612   2.815   4.442   6.383 -0.2692  0.4716  0.7558
  158SAPE   H5X17613   2.738   4.521   6.371 -0.4795  0.5858  2.5226
  158SAPE   H5Y17614   2.771   4.355   6.435 -0.3094 -0.3365 -0.5843
  158SAPE   C3617615   2.857   4.379   6.247  0.1577  0.1632 -0.8920
  158SAPE   H6X17616   2.765   4.340   6.199  0.0472 -1.1916  0.3461
  158SAPE   H6Y17617   2.916   4.289   6.274 -1.8633 -0.4221  2.0179
  158SAPE   C3717618   2.931   4.473   6.154  0.1149  0.1811  0.3303
  158SAPE   H7X17619   3.035   4.503   6.181 -0.4638  2.1773  0.4877
  158SAPE   H7Y17620   2.871   4.565   6.141 -2.2659 -1.5563 -2.0840
  158SAPE   C3817621   2.935   4.411   6.007 -0.1905 -0.1708 -0.5304
  158SAPE   H8X17622   2.829   4.387   5.982  0.0581 -0.2698 -1.4999
  158SAPE   H8Y17623   2.996   4.318   6.006  1.7238  1.0231  0.1861
  158SAPE   C3917624   2.996   4.500   5.893  0.9849  0.8536  0.0655
  158SAPE   H9X17625   3.095   4.533   5.930  1.6857 -1.1711  0.1377
  158SAPE   H9Y17626   2.941   4.596   5.885 -0.2595  0.0395 -2.4000
  158SAPE  C31017627   3.025   4.423   5.763 -1.0551  0.2001 -0.0831
  158SAPE  H10X17628   2.925   4.382   5.739 -0.1775 -1.9704 -0.2690
  158SAPE  H10Y17629   3.093   4.338   5.783  0.6190  1.2223 -1.1234
  158SAPE  C31117630   3.089   4.504   5.643 -0.3417  0.3126  0.5597
  158SAPE  H11X17631   3.196   4.524   5.666 -0.6353 -0.2236  2.6449
  158SAPE  H11Y17632   3.044   4.605   5.643 -0.8516  0.1674 -2.5129
  158SAPE  C31217633   3.074   4.451   5.502 -0.5418  0.6624  0.8062
  158SAPE  H12X17634   2.965   4.438   5.485 -0.6863  0.9553  1.4698
  158SAPE  H12Y17635   3.108   4.346   5.489  0.0911  1.1602 -2.5563
  158SAPE  C31317636   3.126   4.547   5.401  0.2017  0.8226  0.4173
  158SAPE  H13X17637   3.236   4.558   5.414  0.4664  1.4163 -1.9829
  158SAPE  H13Y17638   3.072   4.643   5.414 -0.1495  0.5329  1.1728
  158SAPE  C31417639   3.096   4.489   5.259 -0.2022 -0.7143 -0.8697
  158SAPE  H14X17640   2.987   4.509   5.250 -0.1945  0.7494  1.3789
  158SAPE  H14Y17641   3.114   4.379   5.254  1.2969 -0.6093  0.9843
  158SAPE  C31517642   3.183   4.559   5.150 -0.4701  0.1414  0.0135
  158SAPE  H15X17643   3.291   4.536   5.160 -0.7509 -1.1519  0.1834
  158SAPE  H15Y17644   3.174   4.669   5.166 -2.6597  0.0477 -0.1877
  158SAPE  C31617645   3.142   4.519   5.004 -0.0977 -0.1173 -0.4538
  158SAPE  H16X17646   3.103   4.415   5.010 -1.8994  0.5866  1.2279
  158SAPE  H16Y17647   3.231   4.506   4.940 -0.0054 -2.1084  0.0097
  158SAPE  C31717648   3.035   4.621   4.956 -0.2003 -1.3162  0.6442
  158SAPE  H17X17649   3.097   4.712   4.942 -0.1746 -1.6496 -1.9990
  158SAPE  H17Y17650   2.948   4.631   5.025 -1.1089 -1.6330 -0.4323
  158SAPE  C31817651   2.990   4.586   4.811  0.3434 -1.1147 -0.0933
  158SAPE  H18X17652   3.065   4.622   4.737 -1.0374  4.0224  0.6107
  158SAPE  H18Y17653   2.903   4.652   4.790 -0.0390 -0.7363  2.4113
  158SAPE  H18Z17654   2.973   4.477   4.796  0.1844 -0.7939 -2.7141
  159SAPE     N17655   1.721   1.372   2.565 -0.3344 -0.3335  0.0938
  159SAPE   HN117656   1.736   1.303   2.489 -1.1498 -1.9165  1.2834
  159SAPE   HN217657   1.633   1.349   2.617 -1.2725  1.0377 -0.8370
  159SAPE   HN317658   1.724   1.470   2.533  2.6809 -1.0162 -2.1142
  159SAPE   C1217659   1.823   1.359   2.673 -0.5728  0.0960  0.0447
  159SAPE  H12A17660   1.836   1.252   2.700 -0.4565  0.2825  0.7340
  159SAPE  H12B17661   1.785   1.414   2.761  1.0857 -0.3550  1.0957
  159SAPE   C1117662   1.952   1.427   2.639  0.5351  0.4774  0.0155
  159SAPE  H11A17663   1.995   1.382   2.547  2.1185 -1.8691  1.8149
  159SAPE  H11B17664   2.016   1.399   2.725 -1.3692 -0.9669  1.0331
  159SAPE     P17665   2.057   1.654   2.605 -0.0886  0.0904 -0.1062
  159SAPE   O1317666   2.167   1.556   2.580  0.2050 -0.6390  0.5224
  159SAPE   O1417667   2.028   1.742   2.491 -0.1599 -0.1522 -0.1160
  159SAPE   O1217668   1.926   1.566   2.630  0.4593  0.2175  0.4234
  159SAPE   O1117669   2.090   1.732   2.741  0.0259 -0.1983  0.2636
  159SAPE    C117670   2.083   1.660   2.863 -0.6579  0.1382 -0.0389
  159SAPE    HA17671   1.976   1.633   2.879 -0.1407 -2.1723 -0.1511
  159SAPE    HB17672   2.137   1.563   2.858  0.7663  0.8925  0.2031
  159SAPE    C217673   2.137   1.754   2.974  0.6671 -0.0104 -0.6531
  159SAPE    HS17674   2.153   1.686   3.060 -1.6255  0.7436  0.4332
  159SAPE   O2117675   2.056   1.868   3.006 -0.1586 -0.3690  0.1521
  159SAPE   C2117676   1.951   1.840   3.075 -0.8495 -0.4553 -0.6920
  159SAPE   O2217677   1.919   1.736   3.120  0.1925  0.3300 -0.3562
  159SAPE   C2217678   1.884   1.972   3.111  0.0639 -0.0399 -0.2177
  159SAPE   H2R17679   1.867   2.028   3.017  2.1177  1.8005  0.4145
  159SAPE   H2S17680   1.790   1.939   3.160 -0.3609 -1.5149 -1.9032
  159SAPE    C317681   2.283   1.796   2.952  0.2164  0.1629  0.2077
  159SAPE    HX17682   2.296   1.850   2.855  1.5469 -1.5740 -0.6518
  159SAPE    HY17683   2.348   1.706   2.945  0.2845  0.0723  1.7738
  159SAPE   O3117684   2.327   1.862   3.071 -0.2114 -0.1173 -0.6539
  159SAPE   C3117685   2.340   1.995   3.059  0.0699 -0.4711 -0.6468
  159SAPE   O3217686   2.320   2.054   2.956  0.3643 -0.0021  0.0726
  159SAPE   C3217687   2.387   2.069   3.191  0.2725 -0.3818 -0.3396
  159SAPE   H2X17688   2.496   2.047   3.184  0.3112  0.2533 -2.4365
  159SAPE   H2Y17689   2.334   2.012   3.271  2.3135  0.1011  1.4498
  159SAPE   C2317690   1.969   2.056   3.213  0.6500  0.0667  0.1891
  159SAPE   H3R17691   1.924   2.158   3.223 -2.8600 -1.1936 -1.1209
  159SAPE   H3S17692   2.070   2.073   3.170  0.4603 -1.2940 -0.8568
  159SAPE   C2417693   1.980   1.986   3.341 -0.2356 -0.5203 -0.7590
  159SAPE   H4R17694   2.072   2.013   3.398  0.3557 -3.5307 -0.1391
  159SAPE   H4S17695   1.995   1.877   3.326 -1.8071 -0.7449 -0.8729
  159SAPE   C2517696   1.861   2.000   3.429 -1.2805 -0.3393 -0.6590
  159SAPE   H5R17697   1.762   1.993   3.382  0.1719 -2.8155 -3.7357
  159SAPE   C2617698   1.874   2.016   3.569 -0.1518  0.4843  0.1819
  159SAPE   H6R17699   1.781   2.036   3.624 -1.5133 -1.1814 -1.3524
  159SAPE   C2717700   2.005   2.031   3.645 -0.1212  0.0177  0.0482
  159SAPE   H7R17701   2.101   2.041   3.590 -0.5338  2.0947 -0.3839
  159SAPE   H7S17702   2.015   1.949   3.719  0.6635  1.0012  1.0546
  159SAPE   C2817703   2.001   2.156   3.731  1.2955  0.2227  0.3439
  159SAPE   H8R17704   1.980   2.247   3.673 -0.1451 -0.0273  0.4523
  159SAPE   C2917705   2.026   2.169   3.860 -0.1562  0.8207 -0.0335
  159SAPE   H9R17706   2.016   2.274   3.888 -2.2189  0.4972  0.6180
  159SAPE  C21017707   2.077   2.073   3.969  0.1638 -0.9483  0.3174
  159SAPE  H10R17708   2.093   1.978   3.913 -0.0837  0.5321 -2.4230
  159SAPE  H10S17709   1.997   2.050   4.043  0.7851 -0.0096  1.2971
  159SAPE  C21117710   2.209   2.101   4.031  0.4354 -0.1089 -0.3236
  159SAPE  H11R17711   2.300   2.075   3.975  0.1537 -2.1319  0.0590
  159SAPE  C21217712   2.233   2.178   4.137  1.2622  0.4430 -0.1891
  159SAPE  H12R17713   2.334   2.189   4.179  1.4029 -0.1660 -0.3571
  159SAPE  C21317714   2.129   2.231   4.236 -0.3090  0.6473  0.0376
  159SAPE  H13R17715   2.034   2.260   4.186 -0.9132  0.4561  1.0393
  159SAPE  H13S17716   2.160   2.326   4.284 -1.5196  1.0604  0.0337
  159SAPE  C21417717   2.100   2.134   4.348 -0.1212  0.8069  1.0469
  159SAPE  H14R17718   2.061   2.041   4.303  1.1361  0.2603  1.0392
  159SAPE  C21517719   2.117   2.139   4.483 -0.6844  0.1859 -0.4437
  159SAPE  H15R17720   2.068   2.063   4.545 -1.0077  0.2245 -0.6474
  159SAPE  C21617721   2.184   2.257   4.557 -0.3963 -0.2274  0.2533
  159SAPE  H16R17722   2.254   2.305   4.485 -2.0212 -0.7509 -1.7813
  159SAPE  H16S17723   2.246   2.228   4.644  0.5551 -1.5463 -0.7983
  159SAPE  C21717724   2.067   2.351   4.588 -0.1837  0.2296  0.6831
  159SAPE  H17R17725   1.984   2.302   4.643 -1.8260 -0.5059 -2.2652
  159SAPE  H17S17726   2.014   2.371   4.492  3.1252  0.4542 -1.2460
  159SAPE  C21817727   2.104   2.488   4.647 -0.4505  0.4281 -0.5626
  159SAPE  H18R17728   2.099   2.566   4.567 -0.4577 -0.0863 -1.0656
  159SAPE  H18S17729   2.210   2.485   4.682 -0.2659 -0.0819 -1.1619
  159SAPE  C21917730   2.023   2.547   4.764 -0.3616 -0.4176  0.5762
  159SAPE  H19R17731   1.924   2.566   4.719  0.4524  0.5784 -0.8815
  159SAPE  H19S17732   2.073   2.645   4.784  0.9515 -0.7277 -0.9709
  159SAPE  C22017733   2.014   2.463   4.891 -0.2153 -0.1229 -0.0495
  159SAPE  H20R17734   1.975   2.362   4.864 -1.5163  0.5016 -0.5789
  159SAPE  H20S17735   1.943   2.516   4.958  0.5142 -0.3579  0.9362
  159SAPE  H20T17736   2.109   2.451   4.948  0.2758 -2.5107 -1.2104
  159SAPE   C3317737   2.343   2.220   3.197  0.4298 -0.1079 -0.1858
  159SAPE   H3X17738   2.233   2.221   3.191  0.3611  1.0940  0.8135
  159SAPE   H3Y17739   2.390   2.272   3.111 -0.6585  1.9371  0.3924
  159SAPE   C3417740   2.393   2.291   3.321 -0.2545  0.0305 -0.1217
  159SAPE   H4X17741   2.370   2.399   3.313  0.7178  0.2886  0.4351
  159SAPE   H4Y17742   2.503   2.276   3.320 -0.0791  1.2217 -0.1019
  159SAPE   C3517743   2.342   2.232   3.453  0.4880 -0.4489  0.1179
  159SAPE   H5X17744   2.364   2.125   3.471  1.2704 -0.1012  1.3554
  159SAPE   H5Y17745   2.232   2.240   3.464  0.3370 -2.0780  0.0203
  159SAPE   C3617746   2.399   2.309   3.578  1.1742 -0.0515  0.1747
  159SAPE   H6X17747   2.362   2.413   3.585  1.4620  0.0274  0.5104
  159SAPE   H6Y17748   2.508   2.317   3.558  0.7404  0.0192 -2.5622
  159SAPE   C3717749   2.394   2.226   3.713 -0.7749 -1.2694 -0.0708
  159SAPE   H7X17750   2.467   2.150   3.677  3.4771  2.0517  0.6946
  159SAPE   H7Y17751   2.292   2.184   3.726 -0.6010 -2.5470 -2.2581
  159SAPE   C3817752   2.454   2.290   3.842 -0.5233 -0.2619  0.5069
  159SAPE   H8X17753   2.445   2.215   3.924  3.7554 -2.8565 -1.0903
  159SAPE   H8Y17754   2.389   2.375   3.873  2.8026  2.0237  1.6850
  159SAPE   C3917755   2.601   2.349   3.834  0.0223  0.2721 -0.7708
  159SAPE   H9X17756   2.613   2.419   3.748  0.1619  1.8588  0.4913
  159SAPE   H9Y17757   2.657   2.254   3.824 -1.0292 -0.6848  1.6698
  159SAPE  C31017758   2.647   2.421   3.960 -0.2845  0.3963  0.5602
  159SAPE  H10X17759   2.599   2.521   3.963 -0.2154  0.5730 -2.1264
  159SAPE  H10Y17760   2.752   2.452   3.939  0.0805  0.3099  2.1117
  159SAPE  C31117761   2.648   2.340   4.089 -0.2409  0.7148  0.2905
  159SAPE  H11X17762   2.713   2.250   4.085 -0.0315  0.8112  1.2809
  159SAPE  H11Y17763   2.544   2.301   4.090  0.8197 -2.6148 -1.8858
  159SAPE  C31217764   2.682   2.424   4.217  0.4765  0.2458  0.5331
  159SAPE  H12X17765   2.616   2.512   4.231  1.6012  1.5352 -1.5688
  159SAPE  H12Y17766   2.781   2.472   4.204  0.5545  0.2496  1.1240
  159SAPE  C31317767   2.687   2.338   4.343  0.1692  0.4951  0.1666
  159SAPE  H13X17768   2.711   2.406   4.428 -1.6378  2.5550 -0.8586
  159SAPE  H13Y17769   2.769   2.264   4.330 -1.4858 -0.9960 -2.9195
  159SAPE  C31417770   2.555   2.280   4.394  0.3180  0.4415 -0.7221
  159SAPE  H14X17771   2.514   2.211   4.316 -0.2631 -1.3997  1.1221
  159SAPE  H14Y17772   2.481   2.361   4.411  0.7772  0.7048  0.0687
  159SAPE  C31517773   2.564   2.182   4.508  0.9082 -0.2744  0.2339
  159SAPE  H15X17774   2.639   2.108   4.474  0.6372 -0.4823  0.0835
  159SAPE  H15Y17775   2.465   2.132   4.513  1.5946 -1.7917 -0.5973
  159SAPE  C31617776   2.606   2.244   4.643  0.1525  0.0335  0.0379
  159SAPE  H16X17777   2.545   2.337   4.654  0.6841  0.2964  0.8851
  159SAPE  H16Y17778   2.710   2.284   4.634  0.4342  0.0854  2.7492
  159SAPE  C31717779   2.595   2.155   4.766 -0.6728 -0.0690  0.5886
  159SAPE  H17X17780   2.486   2.147   4.785 -0.7791  2.1818  1.2996
  159SAPE  H17Y17781   2.631   2.215   4.853  1.1245  0.6053 -0.5723
  159SAPE  C31817782   2.654   2.012   4.761  0.0654 -0.1409 -0.1046
  159SAPE  H18X17783   2.620   1.957   4.851 -2.7354  1.8704  0.1730
  159SAPE  H18Y17784   2.765   2.020   4.762  0.0457  0.1834 -0.4462
  159SAPE  H18Z17785   2.620   1.965   4.666 -2.1738  1.9674 -0.4139
  160SAPE     N17786   1.489   3.347   2.941  0.2469 -0.0527  0.3614
  160SAPE   HN117787   1.583   3.363   2.985 -0.4875  1.8678  1.3642
  160SAPE   HN217788   1.512   3.283   2.862 -1.0327 -1.6378  1.2184
  160SAPE   HN317789   1.445   3.435   2.908  2.7462  0.7918 -1.0176
  160SAPE   C1217790   1.401   3.282   3.037 -0.0636 -0.2882 -0.3944
  160SAPE  H12A17791   1.405   3.342   3.130 -1.4620  0.4041 -0.7485
  160SAPE  H12B17792   1.450   3.186   3.064 -0.3472 -0.4208 -0.3494
  160SAPE   C1117793   1.262   3.267   2.979  0.6706  0.4631  0.2139
  160SAPE  H11A17794   1.188   3.235   3.055  0.1560 -1.5815 -1.0601
  160SAPE  H11B17795   1.250   3.196   2.894 -0.8728  1.6554 -0.6134
  160SAPE     P17796   1.067   3.428   2.902 -0.6134  0.0146  0.1840
  160SAPE   O1317797   1.053   3.555   2.827 -0.2841  0.1041 -0.4355
  160SAPE   O1417798   0.995   3.311   2.837 -0.2841 -0.3336 -0.0037
  160SAPE   O1217799   1.221   3.392   2.927 -0.0524 -0.4009 -0.3961
  160SAPE   O1117800   0.997   3.450   3.045  0.0970  0.2892  0.0359
  160SAPE    C117801   1.071   3.512   3.152 -0.0358  0.4643 -0.2070
  160SAPE    HA17802   1.167   3.462   3.176  0.7283  2.5442  1.3483
  160SAPE    HB17803   1.079   3.622   3.142 -0.0553  0.5142  0.2696
  160SAPE    C217804   0.985   3.497   3.281 -0.0262 -0.2912  0.1127
  160SAPE    HS17805   0.887   3.548   3.268 -0.9830 -2.0211  0.2698
  160SAPE   O2117806   1.062   3.540   3.397 -0.5670  0.2248  0.4108
  160SAPE   C2117807   1.058   3.673   3.423  0.5822 -0.1217  0.7900
  160SAPE   O2217808   0.991   3.752   3.357  0.9065 -0.5113  0.3441
  160SAPE   C2217809   1.150   3.708   3.539  0.4625 -0.7644 -0.3551
  160SAPE   H2R17810   1.210   3.617   3.558 -0.0849 -1.5066 -1.9827
  160SAPE   H2S17811   1.221   3.786   3.503 -1.1443  0.8115 -0.2549
  160SAPE    C317812   0.946   3.355   3.314 -0.0454  0.1549 -0.1881
  160SAPE    HX17813   1.036   3.297   3.344  0.8614  0.4876 -2.1217
  160SAPE    HY17814   0.912   3.299   3.224 -2.5113  0.0953  0.7093
  160SAPE   O3117815   0.835   3.339   3.409  0.0374  0.7154  0.0452
  160SAPE   C3117816   0.714   3.344   3.359  0.1863  0.7265  0.3123
  160SAPE   O3217817   0.681   3.366   3.243 -0.0962  0.1706 -0.0083
  160SAPE   C3217818   0.626   3.303   3.480 -0.0429 -0.1172 -0.2534
  160SAPE   H2X17819   0.654   3.200   3.509 -0.8351 -0.3183 -0.2018
  160SAPE   H2Y17820   0.525   3.314   3.435  0.0456  0.0206 -0.4203
  160SAPE   C2317821   1.073   3.748   3.663 -0.1327 -0.3248  0.2633
  160SAPE   H3R17822   1.132   3.740   3.757  0.2447 -2.0553 -0.0911
  160SAPE   H3S17823   0.985   3.682   3.678  0.5037 -1.2582 -0.0747
  160SAPE   C2417824   1.021   3.897   3.667 -0.2946 -0.4360 -0.1316
  160SAPE   H4R17825   0.966   3.902   3.571  0.7683  1.2903 -0.7127
  160SAPE   H4S17826   1.114   3.957   3.655  0.1565 -1.2962 -1.0940
  160SAPE   C2517827   0.931   3.965   3.769 -0.6461 -0.3197 -0.2058
  160SAPE   H5R17828   0.926   4.074   3.755 -0.7822 -0.5424 -2.1260
  160SAPE   C2617829   0.858   3.907   3.871  0.9275  0.2168 -0.0184
  160SAPE   H6R17830   0.808   3.963   3.952  1.9111 -1.9162  2.2035
  160SAPE   C2717831   0.866   3.760   3.909 -0.1196 -0.2101  0.2269
  160SAPE   H7R17832   0.862   3.690   3.823 -0.4768  0.7179 -0.5384
  160SAPE   H7S17833   0.775   3.746   3.971  1.0517 -0.9769  1.8633
  160SAPE   C2817834   0.972   3.717   4.000  0.1177 -0.1679 -0.4937
  160SAPE   H8R17835   1.050   3.648   3.967 -0.2671 -0.6066 -0.4919
  160SAPE   C2917836   0.976   3.746   4.133 -0.0569  0.7545 -0.5858
  160SAPE   H9R17837   1.059   3.702   4.191  0.0037  1.2136 -0.3160
  160SAPE  C21017838   0.879   3.824   4.223  0.4009  0.7974  0.8050
  160SAPE  H10R17839   0.873   3.761   4.315  2.8646  1.7229  1.6900
  160SAPE  H10S17840   0.777   3.822   4.180  0.4977 -2.1611  0.4648
  160SAPE  C21117841   0.931   3.960   4.247  0.2700  0.5549  0.0988
  160SAPE  H11R17842   0.937   4.013   4.150  2.6696 -0.4615 -0.3817
  160SAPE  C21217843   0.972   4.024   4.356  0.9525 -0.5932  0.4717
  160SAPE  H12R17844   1.012   4.127   4.352 -0.7100  0.1668  2.1538
  160SAPE  C21317845   0.985   3.949   4.485  0.0335  0.0789 -0.5694
  160SAPE  H13R17846   1.091   3.939   4.518 -0.4443  0.1565  1.0903
  160SAPE  H13S17847   0.941   3.847   4.490 -1.3981  0.7307  0.8969
  160SAPE  C21417848   0.922   4.032   4.597 -0.4943 -0.0648 -0.2166
  160SAPE  H14R17849   0.992   4.112   4.628 -0.9618  0.9093 -1.5909
  160SAPE  C21517850   0.800   4.026   4.652  0.4550  0.1627 -0.5515
  160SAPE  H15R17851   0.771   4.095   4.733 -0.3737  1.0296 -1.5483
  160SAPE  C21617852   0.688   3.937   4.608 -0.8529  0.4267  0.6601
  160SAPE  H16R17853   0.692   3.929   4.497 -1.5212 -1.8726  0.7320
  160SAPE  H16S17854   0.590   3.983   4.633 -0.9020  1.6430 -1.5316
  160SAPE  C21717855   0.686   3.796   4.667  0.6294  0.4452  0.3307
  160SAPE  H17R17856   0.781   3.745   4.639 -0.6233 -1.3139 -0.9443
  160SAPE  H17S17857   0.599   3.733   4.638 -0.2310  1.3054  0.9558
  160SAPE  C21817858   0.680   3.791   4.819  0.8876  0.0791 -0.0725
  160SAPE  H18R17859   0.586   3.834   4.859  0.0046 -1.8387  0.0595
  160SAPE  H18S17860   0.758   3.861   4.855  0.8983  0.3189 -0.5611
  160SAPE  C21917861   0.704   3.652   4.878  0.3414 -0.5433  0.0509
  160SAPE  H19R17862   0.751   3.669   4.977  0.3375 -3.1320  0.5656
  160SAPE  H19S17863   0.767   3.597   4.805  1.6095  0.9487 -0.0134
  160SAPE  C22017864   0.574   3.565   4.894 -0.0863 -0.3527 -0.5652
  160SAPE  H20R17865   0.601   3.460   4.921  1.3487 -0.2668 -1.6012
  160SAPE  H20S17866   0.512   3.557   4.803  1.8208 -2.9497 -1.7782
  160SAPE  H20T17867   0.510   3.616   4.970  1.0195  1.3943 -0.7659
  160SAPE   C3317868   0.647   3.397   3.600 -0.2503 -0.6160  0.0839
  160SAPE   H3X17869   0.655   3.504   3.570 -3.6294  0.1134  1.2713
  160SAPE   H3Y17870   0.743   3.364   3.645  0.0631  0.8168  0.5404
  160SAPE   C3417871   0.544   3.388   3.708 -0.3720 -0.8843 -0.2166
  160SAPE   H4X17872   0.516   3.282   3.725  0.1267 -1.0534 -0.4207
  160SAPE   H4Y17873   0.458   3.444   3.666  1.0774  2.2992  0.7314
  160SAPE   C3517874   0.595   3.449   3.841 -0.0722 -0.0481  0.2327
  160SAPE   H5X17875   0.609   3.559   3.829 -2.1069  0.1129 -1.2983
  160SAPE   H5Y17876   0.698   3.423   3.874  0.5214  1.4143 -0.3647
  160SAPE   C3617877   0.496   3.447   3.963  0.8428 -1.0406 -0.4349
  160SAPE   H6X17878   0.471   3.342   3.990 -0.9150 -0.6226 -0.3124
  160SAPE   H6Y17879   0.399   3.478   3.918  1.0735  0.5691  0.1338
  160SAPE   C3717880   0.519   3.537   4.086 -1.2228  0.0733  0.1919
  160SAPE   H7X17881   0.421   3.559   4.133 -1.0386  0.0419  0.5970
  160SAPE   H7Y17882   0.556   3.640   4.069  0.4930 -0.3522  1.1390
  160SAPE   C3817883   0.597   3.442   4.184 -0.2355  0.1435  0.7588
  160SAPE   H8X17884   0.697   3.442   4.136  0.0053 -0.1882  1.2570
  160SAPE   H8Y17885   0.565   3.337   4.174 -0.1289  0.2569 -0.9621
  160SAPE   C3917886   0.595   3.487   4.326  0.3237  0.2018 -0.5180
  160SAPE   H9X17887   0.592   3.598   4.325 -1.0080  0.1966  0.1910
  160SAPE   H9Y17888   0.688   3.456   4.378 -0.9887 -0.9027  1.3261
  160SAPE  C31017889   0.478   3.435   4.406 -0.4848  0.3143 -0.0248
  160SAPE  H10X17890   0.504   3.456   4.512 -1.2759 -0.6065  0.3671
  160SAPE  H10Y17891   0.476   3.325   4.389  0.4160 -0.2212  2.7044
  160SAPE  C31117892   0.342   3.506   4.383 -0.2872  0.3268  0.2192
  160SAPE  H11X17893   0.308   3.485   4.279  1.6099 -0.6637 -0.2392
  160SAPE  H11Y17894   0.349   3.617   4.383  0.8179  0.3190 -1.8600
  160SAPE  C31217895   0.261   3.459   4.496 -0.2076  0.3846 -0.0666
  160SAPE  H12X17896   0.309   3.479   4.594  1.7542 -4.2659  0.1559
  160SAPE  H12Y17897   0.253   3.349   4.499 -1.3524  0.4817  1.6239
  160SAPE  C31317898   0.120   3.519   4.496  0.1198 -0.1408  0.5110
  160SAPE  H13X17899   0.071   3.514   4.397 -1.2022  1.9462  0.9756
  160SAPE  H13Y17900   0.139   3.627   4.518  1.3673 -0.5969  1.8615
  160SAPE  C31417901   0.014   3.476   4.605 -0.1536 -1.0687  0.0157
  160SAPE  H14X17902   0.063   3.479   4.705 -0.1840 -0.5768  0.0173
  160SAPE  H14Y17903  -0.000   3.369   4.579 -1.2394 -1.1882  1.0012
  160SAPE  C31517904  -0.122   3.556   4.599 -0.8605 -0.1457 -0.6074
  160SAPE  H15X17905  -0.099   3.664   4.612 -1.8322 -0.0241  0.2554
  160SAPE  H15Y17906  -0.174   3.536   4.695  2.5779 -1.6456  1.1169
  160SAPE  C31617907  -0.205   3.516   4.482 -0.1027 -0.2861  0.1194
  160SAPE  H16X17908  -0.236   3.410   4.477  0.4262 -0.4078 -0.8724
  160SAPE  H16Y17909  -0.145   3.540   4.392 -1.0436 -0.9234 -0.7053
  160SAPE  C31717910  -0.335   3.599   4.477 -0.7998 -0.9980  0.2420
  160SAPE  H17X17911  -0.394   3.565   4.565 -1.3087  0.5112  0.4997
  160SAPE  H17Y17912  -0.396   3.571   4.389  1.7883  2.1198 -2.8280
  160SAPE  C31817913  -0.317   3.754   4.478 -0.2657 -0.2189  0.4166
  160SAPE  H18X17914  -0.298   3.788   4.582 -0.8577  0.1626  0.4076
  160SAPE  H18Y17915  -0.409   3.805   4.442  0.1634 -0.3588 -0.9567
  160SAPE  H18Z17916  -0.223   3.794   4.435  0.3202 -1.7693  0.2073
  161SAPE     N17917   1.085   4.411   2.939  0.6826 -0.1029  0.3734
  161SAPE   HN117918   1.142   4.498   2.947  2.3108 -0.8126 -2.3118
  161SAPE   HN217919   1.133   4.336   2.991  0.4991 -2.0575 -2.0725
  161SAPE   HN317920   1.076   4.386   2.838 -1.2279 -0.0675  0.4977
  161SAPE   C1217921   0.948   4.450   2.994  0.4769  0.3792 -0.7488
  161SAPE  H12A17922   0.955   4.455   3.105 -0.2628  0.4703 -0.7063
  161SAPE  H12B17923   0.884   4.363   2.969  0.6001  0.5511 -1.6841
  161SAPE   C1117924   0.899   4.583   2.937  0.7344  0.8377 -0.1480
  161SAPE  H11A17925   0.978   4.659   2.951  2.0325 -0.6297  0.8304
  161SAPE  H11B17926   0.804   4.606   2.991  1.1889  0.1505  0.9704
  161SAPE     P17927   0.893   4.656   2.683 -0.2332  0.2699  0.1786
  161SAPE   O1317928   1.039   4.644   2.658 -0.1399  0.3425  0.7816
  161SAPE   O1417929   0.791   4.624   2.573  0.3994 -0.9502  0.3905
  161SAPE   O1217930   0.858   4.561   2.802  0.8818  0.1052  0.6285
  161SAPE   O1117931   0.863   4.797   2.746  0.4949  0.6983 -0.0246
  161SAPE    C117932   0.729   4.824   2.803  0.2141 -0.1656 -0.8267
  161SAPE    HA17933   0.664   4.858   2.719 -1.5664  0.1430  0.6243
  161SAPE    HB17934   0.685   4.733   2.849 -0.8766 -0.3373 -2.1251
  161SAPE    C217935   0.729   4.925   2.922  0.0583 -0.4736 -1.1299
  161SAPE    HS17936   0.781   5.014   2.882 -0.2767  0.5862  0.7030
  161SAPE   O2117937   0.813   4.863   3.024 -0.2404  0.7191 -0.4682
  161SAPE   C2117938   0.918   4.930   3.058  0.3040  0.4194 -0.3266
  161SAPE   O2217939   0.955   5.043   3.023  0.2098  0.3177  0.1501
  161SAPE   C2217940   0.984   4.858   3.185  0.3244 -0.1541 -0.7055
  161SAPE   H2R17941   1.049   4.780   3.140  0.0568 -0.1107 -1.1673
  161SAPE   H2S17942   1.033   4.946   3.231 -3.4956  2.0461 -0.4803
  161SAPE    C317943   0.597   4.971   2.992  0.5873 -0.2320  0.0040
  161SAPE    HX17944   0.545   4.880   3.029  0.3364 -0.3805 -0.7106
  161SAPE    HY17945   0.527   5.011   2.915 -0.3410  1.0557  1.4553
  161SAPE   O3117946   0.636   5.069   3.091 -0.0303  0.3561  0.5064
  161SAPE   C3117947   0.578   5.059   3.217  0.0679  0.4796 -0.1220
  161SAPE   O3217948   0.511   4.966   3.258 -0.1296  0.5589  0.5865
  161SAPE   C3217949   0.613   5.186   3.306 -0.4106  0.6129 -0.3366
  161SAPE   H2X17950   0.528   5.257   3.314 -0.1295  1.2491 -2.4552
  161SAPE   H2Y17951   0.699   5.236   3.256  1.7687 -3.3565 -1.0521
  161SAPE   C2317952   0.879   4.789   3.283 -0.2612  0.8538  1.1288
  161SAPE   H3R17953   0.838   4.702   3.229  3.0911 -2.0621  2.8714
  161SAPE   H3S17954   0.796   4.861   3.304 -0.6086  0.5992  0.6518
  161SAPE   C2417955   0.950   4.733   3.417  0.2164  0.3988  1.0712
  161SAPE   H4R17956   1.045   4.694   3.377 -1.3398 -1.1276 -1.4329
  161SAPE   H4S17957   0.888   4.646   3.447 -1.4657  1.2849  0.3069
  161SAPE   C2517958   0.971   4.833   3.526 -0.3892 -0.1122 -0.0823
  161SAPE   H5R17959   1.046   4.903   3.490  2.9301 -3.7297 -0.8564
  161SAPE   C2617960   0.910   4.849   3.651  0.1370  0.0284  0.6768
  161SAPE   H6R17961   0.949   4.934   3.709 -0.4884  0.8525 -0.0914
  161SAPE   C2717962   0.809   4.755   3.712 -0.1059  0.5595 -0.1090
  161SAPE   H7R17963   0.806   4.782   3.820 -1.8511 -1.5016  0.4171
  161SAPE   H7S17964   0.855   4.654   3.703 -0.8907  0.3075 -1.4041
  161SAPE   C2817965   0.670   4.770   3.658 -0.1370  0.3175 -0.4249
  161SAPE   H8R17966   0.663   4.779   3.549 -1.3977 -0.7476 -0.4591
  161SAPE   C2917967   0.556   4.776   3.729 -0.0673 -0.0048 -0.8633
  161SAPE   H9R17968   0.462   4.785   3.673 -0.3801  1.8929 -0.0806
  161SAPE  C21017969   0.533   4.768   3.880 -0.1015  0.1846 -0.0910
  161SAPE  H10R17970   0.560   4.664   3.911 -0.7158  0.5244  1.7217
  161SAPE  H10S17971   0.422   4.764   3.885 -0.1184 -1.6353 -0.9614
  161SAPE  C21117972   0.587   4.872   3.972  0.0074  0.2663  1.3241
  161SAPE  H11R17973   0.640   4.950   3.915 -0.9447  0.6308  0.9075
  161SAPE  C21217974   0.572   4.885   4.106 -0.0817 -0.2224 -0.1092
  161SAPE  H12R17975   0.617   4.971   4.159  1.0128 -1.0724  0.3798
  161SAPE  C21317976   0.487   4.802   4.198  0.3166  0.4724 -0.4389
  161SAPE  H13R17977   0.438   4.718   4.145 -0.6133 -0.3074  1.6025
  161SAPE  H13S17978   0.403   4.866   4.232 -0.1397  0.8981 -2.2128
  161SAPE  C21417979   0.574   4.740   4.311  0.4516 -0.1230  0.2567
  161SAPE  H14R17980   0.645   4.658   4.295  1.1188 -0.2604  3.3818
  161SAPE  C21517981   0.566   4.782   4.438 -0.1983 -0.2773 -1.2785
  161SAPE  H15R17982   0.628   4.724   4.509  1.4940  1.1150 -1.5505
  161SAPE  C21617983   0.478   4.890   4.498  0.2887 -0.4814  0.2317
  161SAPE  H16R17984   0.455   4.961   4.416  1.7768 -1.3744 -1.0042
  161SAPE  H16S17985   0.525   4.966   4.564 -3.2422  2.0875  0.0819
  161SAPE  C21717986   0.341   4.846   4.560 -0.4475  0.0651 -0.1092
  161SAPE  H17R17987   0.349   4.783   4.651 -3.0723 -1.9562 -1.1459
  161SAPE  H17S17988   0.294   4.782   4.482 -0.3392 -0.0135 -0.1090
  161SAPE  C21817989   0.248   4.964   4.596  0.4732 -0.4509  0.0459
  161SAPE  H18R17990   0.267   5.040   4.517  0.0518  0.6867  1.0128
  161SAPE  H18S17991   0.283   5.017   4.687  1.3571  2.7135 -1.9643
  161SAPE  C21917992   0.103   4.928   4.597 -0.0973  1.0233 -0.0942
  161SAPE  H19R17993   0.097   4.848   4.674 -0.8835 -0.9628 -2.1105
  161SAPE  H19S17994   0.073   4.886   4.498 -0.1269  0.9184 -0.0413
  161SAPE  C22017995   0.011   5.046   4.635  0.1035  0.1702 -0.6559
  161SAPE  H20R17996   0.046   5.098   4.727  1.9187  2.6171 -2.5810
  161SAPE  H20S17997  -0.094   5.018   4.660  0.8896 -2.0931  0.4097
  161SAPE  H20T17998   0.010   5.129   4.562  1.3001  0.2101 -0.6483
  161SAPE   C3317999   0.663   5.138   3.445  0.2617 -0.7744 -0.2419
  161SAPE   H3X18000   0.758   5.082   3.429  0.0201 -0.9323 -1.2049
  161SAPE   H3Y18001   0.590   5.068   3.490 -2.0993  1.7601  0.1204
  161SAPE   C3418002   0.684   5.248   3.551 -0.4592  0.3297  0.2838
  161SAPE   H4X18003   0.593   5.267   3.612  0.2545  0.0681  1.4693
  161SAPE   H4Y18004   0.701   5.349   3.508 -0.4218  0.2650  0.1456
  161SAPE   C3518005   0.804   5.208   3.640 -0.0650 -0.2900  0.2275
  161SAPE   H5X18006   0.875   5.165   3.567 -1.6902 -0.5549 -1.2772
  161SAPE   H5Y18007   0.771   5.116   3.693 -1.8790  1.2149  1.8839
  161SAPE   C3618008   0.861   5.312   3.738 -0.3715 -1.1066  0.0072
  161SAPE   H6X18009   0.778   5.369   3.784  0.4447  1.8653 -1.9451
  161SAPE   H6Y18010   0.931   5.384   3.692 -0.8699 -1.3472 -1.1708
  161SAPE   C3718011   0.940   5.243   3.853 -0.6766 -0.2871  0.1413
  161SAPE   H7X18012   1.027   5.307   3.879 -1.0338 -0.7496  2.7472
  161SAPE   H7Y18013   0.989   5.148   3.820  0.0297  0.0255  0.2699
  161SAPE   C3818014   0.864   5.230   3.987  0.3702  0.8283  0.0318
  161SAPE   H8X18015   0.931   5.164   4.047  0.6642  0.4339 -0.7251
  161SAPE   H8Y18016   0.777   5.161   3.986  0.4681  0.6115  1.8926
  161SAPE   C3918017   0.828   5.354   4.060 -0.3186  0.1893 -0.0679
  161SAPE   H9X18018   0.816   5.436   3.986  0.6440 -0.1353 -0.5985
  161SAPE   H9Y18019   0.920   5.382   4.116 -0.1308 -1.4886  0.5108
  161SAPE  C31018020   0.697   5.356   4.141  0.1937  0.2729 -0.0338
  161SAPE  H10X18021   0.722   5.282   4.219  0.8197 -1.2522 -1.6177
  161SAPE  H10Y18022   0.610   5.336   4.075  1.3502 -0.9909 -1.2341
  161SAPE  C31118023   0.671   5.493   4.205 -0.3701  0.7403 -0.2470
  161SAPE  H11X18024   0.634   5.565   4.129 -1.3203  1.5283  0.9326
  161SAPE  H11Y18025   0.758   5.537   4.259 -1.3317  1.4390  0.7686
  161SAPE  C31218026   0.552   5.477   4.301 -0.1020 -0.0646 -0.0126
  161SAPE  H12X18027   0.476   5.410   4.256  1.9812 -1.2958 -1.9624
  161SAPE  H12Y18028   0.511   5.579   4.320  1.2433  0.3886  0.5898
  161SAPE  C31318029   0.592   5.401   4.427 -0.5940  0.5505  0.4567
  161SAPE  H13X18030   0.686   5.439   4.472 -0.6432  2.5841 -1.0130
  161SAPE  H13Y18031   0.626   5.300   4.395 -0.3648  1.0388 -0.8862
  161SAPE  C31418032   0.473   5.399   4.529  0.0442  0.6381  0.3737
  161SAPE  H14X18033   0.389   5.374   4.460 -1.1007  1.5452  1.3873
  161SAPE  H14Y18034   0.460   5.501   4.570 -0.5001  0.5569  0.4144
  161SAPE  C31518035   0.486   5.305   4.655 -0.3767 -0.0280 -0.1514
  161SAPE  H15X18036   0.566   5.331   4.727  1.2268 -2.6802 -0.8353
  161SAPE  H15Y18037   0.509   5.200   4.627  2.2554 -0.0158  1.5935
  161SAPE  C31618038   0.353   5.305   4.739  0.1155  0.1860 -0.8033
  161SAPE  H16X18039   0.364   5.231   4.822 -1.5822  0.6901 -0.0858
  161SAPE  H16Y18040   0.285   5.251   4.670  1.5171 -1.2659 -1.1119
  161SAPE  C31718041   0.332   5.444   4.800  0.1880 -0.2546  0.0775
  161SAPE  H17X18042   0.296   5.506   4.715  1.1641 -0.6396 -0.6367
  161SAPE  H17Y18043   0.430   5.487   4.830 -0.0779  2.8645 -2.8778
  161SAPE  C31818044   0.222   5.450   4.902  0.4474 -0.0748 -0.0425
  161SAPE  H18X18045   0.241   5.372   4.978  1.5755  1.2824  1.1200
  161SAPE  H18Y18046   0.125   5.445   4.848 -0.3241  1.5039  1.0905
  161SAPE  H18Z18047   0.229   5.552   4.945  1.5987  0.6855 -1.9136
  162SAPE     N18048   5.589   6.329   2.647  0.3433 -0.2212 -0.9876
  162SAPE   HN118049   5.662   6.283   2.704  0.7150 -0.0471 -1.3211
  162SAPE   HN218050   5.535   6.253   2.600 -0.2898 -0.3859 -0.0299
  162SAPE   HN318051   5.635   6.381   2.569  0.7346 -0.7141 -1.0918
  162SAPE   C1218052   5.505   6.413   2.736  0.4137 -0.2580 -0.2808
  162SAPE  H12A18053   5.445   6.344   2.799 -1.1961  0.0022 -1.4516
  162SAPE  H12B18054   5.436   6.466   2.667 -2.7021 -0.2761  2.5807
  162SAPE   C1118055   5.597   6.515   2.803 -0.1847  0.3434  0.8044
  162SAPE  H11A18056   5.671   6.458   2.862  0.8607  0.7522 -0.0855
  162SAPE  H11B18057   5.536   6.584   2.865 -0.0736  0.6357  0.5917
  162SAPE     P18058   5.607   6.726   2.645 -0.3326 -0.1295  0.1374
  162SAPE   O1318059   5.642   6.738   2.505  0.1890  0.3517  0.8734
  162SAPE   O1418060   5.463   6.739   2.682 -0.0727  0.1777 -0.1874
  162SAPE   O1218061   5.664   6.597   2.705  0.1728  0.9795 -0.6214
  162SAPE   O1118062   5.675   6.843   2.723 -0.0122  0.1468 -0.9145
  162SAPE    C118063   5.819   6.859   2.698  0.2306  0.3200 -0.0697
  162SAPE    HA18064   5.876   6.769   2.668  0.9275  0.8020 -0.2256
  162SAPE    HB18065   5.835   6.922   2.608  0.8569  2.8059  1.6783
  162SAPE    C218066   5.908   6.915   2.816 -0.0719 -1.1074 -0.2871
  162SAPE    HS18067   6.015   6.888   2.814  0.0846 -0.5173 -0.2347
  162SAPE   O2118068   5.856   6.866   2.937  0.2031 -0.1244 -0.5905
  162SAPE   C2118069   5.872   6.735   2.958  0.5836 -0.2043 -0.1464
  162SAPE   O2218070   5.949   6.662   2.894 -0.2774 -0.8273 -0.2930
  162SAPE   C2218071   5.808   6.682   3.088 -0.4421  0.8231 -0.4436
  162SAPE   H2R18072   5.779   6.762   3.160  0.2559  1.0200 -0.3706
  162SAPE   H2S18073   5.714   6.629   3.062 -0.7750  0.4587  1.3583
  162SAPE    C318074   5.903   7.074   2.824 -0.3227  0.2823  0.3053
  162SAPE    HX18075   5.934   7.122   2.729 -0.8729  1.2672  0.6052
  162SAPE    HY18076   5.967   7.113   2.905 -1.2182  1.0130  0.6882
  162SAPE   O3118077   5.761   7.111   2.842  0.0448  0.8932  0.1758
  162SAPE   C3118078   5.730   7.137   2.975  0.1863  0.5354  0.3933
  162SAPE   O3218079   5.812   7.157   3.059 -0.1215 -0.5256  0.2057
  162SAPE   C3218080   5.585   7.131   3.004  0.4804  0.2229 -0.6191
  162SAPE   H2X18081   5.552   7.044   2.944  2.1390 -0.3041 -0.8009
  162SAPE   H2Y18082   5.553   7.227   2.960  0.2459  0.3228 -0.2397
  162SAPE   C2318083   5.911   6.599   3.172  0.2085 -0.1662 -0.1561
  162SAPE   H3R18084   6.003   6.651   3.205  0.0371 -1.8304  3.4221
  162SAPE   H3S18085   5.946   6.523   3.099 -2.1544 -0.3030 -1.2429
  162SAPE   C2418086   5.848   6.525   3.282  0.7223 -0.0019  0.5120
  162SAPE   H4R18087   5.926   6.457   3.325  0.1654 -1.0418 -0.0685
  162SAPE   H4S18088   5.764   6.459   3.249  2.0926 -3.1833  2.8453
  162SAPE   C2518089   5.796   6.629   3.382 -0.5477  0.1322  0.2323
  162SAPE   H5R18090   5.692   6.659   3.363 -0.6713 -0.7758 -0.5918
  162SAPE   C2618091   5.862   6.677   3.491  0.0682 -0.0478 -0.2750
  162SAPE   H6R18092   5.816   6.750   3.560  1.1084 -2.2656  3.0270
  162SAPE   C2718093   6.009   6.650   3.530  0.4518 -0.2615 -0.3419
  162SAPE   H7R18094   6.049   6.735   3.591  1.0659 -0.5647 -0.3159
  162SAPE   H7S18095   6.064   6.644   3.434 -1.5614 -1.9952 -1.4638
  162SAPE   C2818096   6.025   6.524   3.616  0.1537 -0.6577 -0.0253
  162SAPE   H8R18097   6.047   6.435   3.555  3.5836  0.2998 -0.4454
  162SAPE   C2918098   6.022   6.517   3.749 -0.4192  0.2886 -0.6335
  162SAPE   H9R18099   6.039   6.416   3.789 -0.2823  0.0704 -1.2230
  162SAPE  C21018100   5.994   6.624   3.848  0.8598  0.0702  0.0428
  162SAPE  H10R18101   5.917   6.593   3.921  0.6676 -2.3725 -1.1224
  162SAPE  H10S18102   5.950   6.709   3.792 -1.5114 -1.2265 -0.1719
  162SAPE  C21118103   6.127   6.682   3.901  0.3178  0.5326  0.3465
  162SAPE  H11R18104   6.174   6.746   3.825  0.4116  0.4544  0.3382
  162SAPE  C21218105   6.187   6.664   4.022 -0.4082  0.1583  0.0956
  162SAPE  H12R18106   6.279   6.722   4.043 -0.2681 -0.0014 -0.0755
  162SAPE  C21318107   6.136   6.575   4.134 -0.4519 -0.0299 -0.1659
  162SAPE  H13R18108   6.219   6.507   4.162  0.0668  0.6524 -0.0195
  162SAPE  H13S18109   6.048   6.519   4.095  1.4045 -2.4852 -1.1072
  162SAPE  C21418110   6.095   6.666   4.251  0.6924 -0.4651 -0.1464
  162SAPE  H14R18111   5.988   6.671   4.273  1.5740  1.3253  5.3178
  162SAPE  C21518112   6.177   6.724   4.335 -0.0444  0.4810  0.0112
  162SAPE  H15R18113   6.132   6.790   4.412 -2.5853  1.1174 -1.8849
  162SAPE  C21618114   6.324   6.731   4.335  0.2855 -0.0306  0.1205
  162SAPE  H16R18115   6.372   6.824   4.299 -0.2471 -0.1573 -0.9509
  162SAPE  H16S18116   6.374   6.644   4.286  1.0211 -0.1747  1.0762
  162SAPE  C21718117   6.378   6.704   4.477 -0.6778  0.3031 -0.3726
  162SAPE  H17R18118   6.327   6.780   4.540  0.4592  1.0542 -0.3291
  162SAPE  H17S18119   6.485   6.733   4.476 -0.7331  0.4983 -0.7225
  162SAPE  C21818120   6.350   6.561   4.530 -0.0841 -0.8908  0.2988
  162SAPE  H18R18121   6.394   6.484   4.463  2.2831  0.1534  0.5462
  162SAPE  H18S18122   6.240   6.549   4.522  0.0720 -1.4416 -1.5658
  162SAPE  C21918123   6.415   6.527   4.671  0.2839 -0.5359 -0.1967
  162SAPE  H19R18124   6.365   6.599   4.740 -0.1464  1.2127 -2.2093
  162SAPE  H19S18125   6.521   6.561   4.673 -0.0071  0.4403 -0.8062
  162SAPE  C22018126   6.401   6.382   4.710 -0.5077  0.0316  0.0842
  162SAPE  H20R18127   6.451   6.364   4.808 -0.1261  2.5308  0.4095
  162SAPE  H20S18128   6.458   6.326   4.633 -0.9904 -0.5850  0.1664
  162SAPE  H20T18129   6.297   6.343   4.703 -0.1285 -1.3369  1.4332
  162SAPE   C3318130   5.556   7.112   3.155  0.3723  0.5110 -0.4451
  162SAPE   H3X18131   5.446   7.126   3.168  0.3091 -1.6801  2.2387
  162SAPE   H3Y18132   5.597   7.196   3.216 -0.7199 -0.2895  1.4906
  162SAPE   C3418133   5.600   6.984   3.226 -0.1389 -0.2876  0.5807
  162SAPE   H4X18134   5.707   6.976   3.199 -0.1653 -1.1150  0.7176
  162SAPE   H4Y18135   5.544   6.895   3.190 -0.3749 -0.3777  1.1622
  162SAPE   C3518136   5.590   6.987   3.376  0.2397 -0.1807  0.2630
  162SAPE   H5X18137   5.654   7.056   3.435 -2.3119  1.6781  1.0463
  162SAPE   H5Y18138   5.600   6.882   3.410 -2.5341  0.1261  2.3011
  162SAPE   C3618139   5.459   7.024   3.438 -0.1189  0.1065 -0.3051
  162SAPE   H6X18140   5.393   6.945   3.396  1.4414 -1.8843  0.8285
  162SAPE   H6Y18141   5.434   7.126   3.403  0.0237 -0.3421 -1.7952
  162SAPE   C3718142   5.446   7.021   3.590 -0.3026  0.8178  0.3031
  162SAPE   H7X18143   5.480   6.924   3.632 -2.2123  0.1662  0.4296
  162SAPE   H7Y18144   5.343   7.036   3.629  0.3681 -1.0274  3.0901
  162SAPE   C3818145   5.516   7.139   3.654 -0.2424 -0.5727 -0.5928
  162SAPE   H8X18146   5.481   7.223   3.591  0.5295  0.9824  0.9798
  162SAPE   H8Y18147   5.626   7.133   3.636 -0.1057 -1.4194  0.4165
  162SAPE   C3918148   5.487   7.175   3.802  0.1360 -0.9400 -0.2816
  162SAPE   H9X18149   5.377   7.187   3.804  0.3062  0.7708 -0.2521
  162SAPE   H9Y18150   5.529   7.273   3.832  2.0563 -1.3765 -1.3561
  162SAPE  C31018151   5.544   7.079   3.904  0.0372 -0.0394 -0.2461
  162SAPE  H10X18152   5.653   7.075   3.885  0.1429 -0.4557  0.4103
  162SAPE  H10Y18153   5.504   6.976   3.888  0.7082 -0.7786  2.3453
  162SAPE  C31118154   5.540   7.117   4.055 -0.4886  0.2679 -0.4109
  162SAPE  H11X18155   5.637   7.133   4.106 -0.7258 -2.2542  1.0301
  162SAPE  H11Y18156   5.514   7.022   4.108  1.0717 -0.4107 -0.7919
  162SAPE  C31218157   5.432   7.218   4.098 -0.8045  0.1054 -0.3503
  162SAPE  H12X18158   5.335   7.173   4.069 -0.5848 -1.4443  1.1805
  162SAPE  H12Y18159   5.444   7.321   4.056  0.7090 -0.3075 -0.9787
  162SAPE  C31318160   5.430   7.244   4.247 -0.2258  0.4522 -0.4488
  162SAPE  H13X18161   5.350   7.315   4.276 -0.7221 -0.7694  1.3786
  162SAPE  H13Y18162   5.526   7.289   4.279 -0.3302  0.6283 -0.3858
  162SAPE  C31418163   5.420   7.123   4.345  0.4574  0.4316  0.0044
  162SAPE  H14X18164   5.504   7.052   4.326  0.8790  1.0058 -0.2978
  162SAPE  H14Y18165   5.320   7.075   4.337 -0.1336  1.9235 -3.7087
  162SAPE  C31518166   5.438   7.169   4.488  0.1542  0.0133  0.0623
  162SAPE  H15X18167   5.525   7.233   4.513  0.2162 -1.0213  2.8244
  162SAPE  H15Y18168   5.454   7.070   4.537 -0.7116 -0.4443 -0.5509
  162SAPE  C31618169   5.314   7.222   4.560 -0.0240 -0.2221  0.1148
  162SAPE  H16X18170   5.223   7.160   4.542  0.1859 -0.5844  0.2881
  162SAPE  H16Y18171   5.297   7.323   4.518  2.6122 -0.3461 -1.4763
  162SAPE  C31718172   5.324   7.233   4.715  0.0916 -0.4499  0.1476
  162SAPE  H17X18173   5.381   7.138   4.722  1.1215  0.1706  0.4677
  162SAPE  H17Y18174   5.225   7.219   4.762  0.8118 -1.5915  1.3851
  162SAPE  C31818175   5.401   7.357   4.752  0.4319  0.0310 -0.3437
  162SAPE  H18X18176   5.481   7.376   4.679 -1.3541 -0.5825 -2.5725
  162SAPE  H18Y18177   5.434   7.356   4.858  1.1331 -2.1690 -0.5351
  162SAPE  H18Z18178   5.332   7.444   4.754  0.4528  0.0420  0.0629
  163SAPE     N18179   1.130   0.172   2.716 -0.1563 -0.5404 -0.2126
  163SAPE   HN118180   1.095   0.223   2.632  0.5738 -1.9790 -1.4457
  163SAPE   HN218181   1.169   0.249   2.774 -0.7337  2.2701 -3.2208
  163SAPE   HN318182   1.211   0.117   2.681  0.6237  0.0110  0.6577
  163SAPE   C1218183   1.027   0.081   2.771 -0.5579  1.0756 -0.5663
  163SAPE  H12A18184   1.004   0.008   2.691  0.2098 -0.4272  0.5367
  163SAPE  H12B18185   0.934   0.141   2.783 -2.1564 -1.6022  1.5714
  163SAPE   C1118186   1.080   0.004   2.901 -0.0141  0.2596  0.3185
  163SAPE  H11A18187   0.992  -0.039   2.954 -2.3333 -0.0786 -3.4539
  163SAPE  H11B18188   1.122   0.080   2.969  1.0662 -0.7770  0.8527
  163SAPE     P18189   1.133  -0.241   2.836 -0.4106  0.0625 -0.1954
  163SAPE   O1318190   1.023  -0.253   2.733 -0.0393 -0.9161 -0.0907
  163SAPE   O1418191   1.254  -0.321   2.810  0.0060  0.4392 -0.3632
  163SAPE   O1218192   1.183  -0.088   2.865  0.3597  0.2423 -0.2190
  163SAPE   O1118193   1.076  -0.291   2.971 -0.0060  0.7625 -0.0296
  163SAPE    C118194   0.935  -0.312   2.982 -0.1991 -0.1007 -0.7323
  163SAPE    HA18195   0.887  -0.217   2.949  0.6991 -0.0592 -1.9947
  163SAPE    HB18196   0.902  -0.395   2.916  0.1654 -0.6311 -0.2542
  163SAPE    C218197   0.886  -0.347   3.127  0.5414  0.1142 -0.4090
  163SAPE    HS18198   0.777  -0.326   3.125  0.3569 -0.8482 -1.3161
  163SAPE   O2118199   0.959  -0.267   3.221 -0.0689 -0.1455 -0.3170
  163SAPE   C2118200   0.921  -0.135   3.231 -1.1051 -0.4535 -0.2910
  163SAPE   O2218201   0.833  -0.083   3.165  0.2286 -0.7585  0.5139
  163SAPE   C2218202   1.017  -0.056   3.313 -0.0093 -0.2933 -0.1236
  163SAPE   H2R18203   0.997  -0.080   3.420 -0.1127  3.0631  0.7238
  163SAPE   H2S18204   1.125  -0.067   3.289  0.5595  0.9259  1.6920
  163SAPE    C318205   0.906  -0.498   3.157 -0.3562  0.0944 -0.0391
  163SAPE    HX18206   1.006  -0.536   3.128 -0.3121  1.0924 -1.2563
  163SAPE    HY18207   0.860  -0.566   3.082  0.7732  0.5407 -1.1566
  163SAPE   O3118208   0.874  -0.524   3.298 -0.1539  0.7185 -0.0463
  163SAPE   C3118209   0.931  -0.640   3.347  0.3170  0.0285  0.2717
  163SAPE   O3218210   0.992  -0.716   3.276  0.6567  0.0728  0.1552
  163SAPE   C3218211   0.903  -0.668   3.489 -0.3630  0.1635 -1.0612
  163SAPE   H2X18212   0.864  -0.772   3.493 -0.5950  0.2583 -0.8043
  163SAPE   H2Y18213   0.820  -0.607   3.530  1.4059  0.8725  1.7046
  163SAPE   C2318214   0.982   0.094   3.298 -0.5965 -0.1293  0.2250
  163SAPE   H3R18215   0.875   0.105   3.326 -0.2315  1.8157  1.0322
  163SAPE   H3S18216   1.004   0.126   3.194 -0.6600 -1.3829 -0.1865
  163SAPE   C2418217   1.064   0.187   3.387 -0.2457 -0.2535 -0.1189
  163SAPE   H4R18218   1.060   0.293   3.353  0.4696  0.5214  2.0658
  163SAPE   H4S18219   1.172   0.163   3.382  0.5155  2.6933  0.1879
  163SAPE   C2518220   1.025   0.187   3.530  1.1428  0.0357  0.0448
  163SAPE   H5R18221   0.927   0.234   3.545  1.6060  0.5197  1.7208
  163SAPE   C2618222   1.090   0.149   3.635 -0.2065 -0.1239 -0.5528
  163SAPE   H6R18223   1.033   0.162   3.729  0.8929 -1.3780  0.3261
  163SAPE   C2718224   1.232   0.094   3.645  0.0621  0.3456  0.7100
  163SAPE   H7R18225   1.303   0.179   3.641  1.8950 -1.1095  1.0915
  163SAPE   H7S18226   1.247   0.032   3.555 -0.2306  0.6299  0.4610
  163SAPE   C2818227   1.250   0.018   3.776  0.2002  0.1580 -0.7085
  163SAPE   H8R18228   1.193  -0.075   3.787  0.3743  0.0009 -1.1133
  163SAPE   C2918229   1.327   0.058   3.878 -0.1879 -0.4423  0.2335
  163SAPE   H9R18230   1.329  -0.013   3.963  1.8947 -0.8221 -0.0770
  163SAPE  C21018231   1.416   0.181   3.879  0.3428 -0.1378 -0.2871
  163SAPE  H10R18232   1.351   0.258   3.927  0.4629 -0.3879  0.2828
  163SAPE  H10S18233   1.436   0.228   3.780  2.1211 -3.1127 -1.4491
  163SAPE  C21118234   1.542   0.161   3.958  0.6194  0.6474  0.5951
  163SAPE  H11R18235   1.630   0.137   3.897  0.4625  1.8807 -0.1639
  163SAPE  C21218236   1.546   0.159   4.096  0.8506 -0.1281  0.3213
  163SAPE  H12R18237   1.641   0.132   4.145  1.2134  2.5392  1.2560
  163SAPE  C21318238   1.430   0.192   4.192 -1.2156  0.1380  0.3434
  163SAPE  H13R18239   1.391   0.100   4.240 -1.6287  1.0516  1.8386
  163SAPE  H13S18240   1.345   0.222   4.127 -0.9260  3.8772  1.4542
  163SAPE  C21418241   1.461   0.297   4.294 -0.0030 -0.2641 -0.4477
  163SAPE  H14R18242   1.526   0.381   4.264 -0.4785  0.0994 -0.4802
  163SAPE  C21518243   1.406   0.320   4.413 -0.1219 -0.3274 -0.8090
  163SAPE  H15R18244   1.453   0.394   4.479 -0.5018 -0.4907 -0.3497
  163SAPE  C21618245   1.297   0.234   4.478 -1.6510  0.4765  0.5896
  163SAPE  H16R18246   1.248   0.165   4.406  0.6008  1.1973 -1.8124
  163SAPE  H16S18247   1.220   0.304   4.516 -2.5211 -1.5007  2.6283
  163SAPE  C21718248   1.335   0.134   4.591 -0.1201 -0.6397  0.1268
  163SAPE  H17R18249   1.393   0.052   4.545  1.5044 -0.3477  1.5714
  163SAPE  H17S18250   1.238   0.091   4.625  0.5740 -0.8262  1.9898
  163SAPE  C21818251   1.411   0.199   4.705 -0.0515  0.6393 -0.0285
  163SAPE  H18R18252   1.359   0.296   4.717 -2.7681 -0.6591 -0.4359
  163SAPE  H18S18253   1.511   0.237   4.675 -0.6274  0.7627 -1.9375
  163SAPE  C21918254   1.404   0.118   4.839  0.6526 -0.1448  0.5759
  163SAPE  H19R18255   1.427   0.014   4.810 -1.2654  0.2007 -2.7410
  163SAPE  H19S18256   1.306   0.134   4.889  1.3354  2.4381  1.2598
  163SAPE  C22018257   1.500   0.166   4.950 -0.4878  0.4442  1.4208
  163SAPE  H20R18258   1.490   0.100   5.039 -0.4638 -2.4928 -0.6213
  163SAPE  H20S18259   1.482   0.275   4.964  0.5667  0.8153  0.0703
  163SAPE  H20T18260   1.607   0.155   4.920 -0.8191 -0.6152  0.5992
  163SAPE   C3318261   1.029  -0.652   3.584  0.5193  0.3169  0.3151
  163SAPE   H3X18262   1.046  -0.542   3.583 -1.9001  0.9449  4.5197
  163SAPE   H3Y18263   1.125  -0.689   3.540 -0.4128  0.8181 -2.3456
  163SAPE   C3418264   1.006  -0.708   3.719 -0.1053 -0.0358  0.5874
  163SAPE   H4X18265   1.026  -0.816   3.705  4.6113  0.8413 -1.3722
  163SAPE   H4Y18266   0.902  -0.693   3.755  0.1834  1.1487  0.9682
  163SAPE   C3518267   1.110  -0.647   3.813  0.1517 -0.0268  0.2705
  163SAPE   H5X18268   1.077  -0.543   3.838 -1.4694 -0.9881  2.4844
  163SAPE   H5Y18269   1.210  -0.652   3.766  0.2489  1.3123  0.3053
  163SAPE   C3618270   1.119  -0.718   3.942 -0.5972 -0.1550  0.1194
  163SAPE   H6X18271   1.147  -0.824   3.926  0.3529  0.1371 -0.2186
  163SAPE   H6Y18272   1.015  -0.713   3.982 -0.6595 -0.6012  0.0206
  163SAPE   C3718273   1.218  -0.650   4.040  0.1358 -0.2779  0.0150
  163SAPE   H7X18274   1.200  -0.541   4.043  1.0649  0.0206 -2.7154
  163SAPE   H7Y18275   1.325  -0.648   4.010 -0.0208  2.8830 -0.6862
  163SAPE   C3818276   1.206  -0.698   4.187 -0.1653  0.4225 -0.1571
  163SAPE   H8X18277   1.227  -0.806   4.205  3.0866  0.8078 -0.9233
  163SAPE   H8Y18278   1.100  -0.688   4.219 -0.0999 -0.0888  0.2433
  163SAPE   C3918279   1.301  -0.621   4.274 -0.6858 -0.5389  0.1220
  163SAPE   H9X18280   1.254  -0.610   4.374  0.3850  0.5142  0.5386
  163SAPE   H9Y18281   1.306  -0.522   4.225  0.3060 -0.8343 -0.4110
  163SAPE  C31018282   1.441  -0.683   4.276 -0.1059  0.5558  0.2523
  163SAPE  H10X18283   1.475  -0.678   4.171 -2.7359 -0.2408 -0.7325
  163SAPE  H10Y18284   1.432  -0.789   4.308 -0.1058  0.3128 -0.5361
  163SAPE  C31118285   1.528  -0.615   4.378  0.4013 -0.5002  0.1371
  163SAPE  H11X18286   1.461  -0.571   4.456 -1.2024 -3.2500  0.4549
  163SAPE  H11Y18287   1.581  -0.530   4.333  3.0577 -1.2948  1.5644
  163SAPE  C31218288   1.636  -0.707   4.453 -0.4168  0.0741 -0.1700
  163SAPE  H12X18289   1.674  -0.778   4.375  1.6914  1.2029 -0.2509
  163SAPE  H12Y18290   1.593  -0.767   4.536 -1.0540 -0.2876 -0.7521
  163SAPE  C31318291   1.758  -0.635   4.507  0.3902  0.9404  0.0306
  163SAPE  H13X18292   1.737  -0.569   4.594  0.3182  1.0409 -0.0625
  163SAPE  H13Y18293   1.803  -0.568   4.431 -0.4982  0.5041 -0.9116
  163SAPE  C31418294   1.863  -0.732   4.572  0.6500 -0.0772  0.3950
  163SAPE  H14X18295   1.900  -0.792   4.487 -3.1813 -0.1812 -1.4213
  163SAPE  H14Y18296   1.804  -0.806   4.630 -1.4695 -0.4221 -2.0026
  163SAPE  C31518297   1.972  -0.674   4.654  0.3060  0.3662 -0.7993
  163SAPE  H15X18298   1.928  -0.610   4.733  1.5271  1.2322 -0.7949
  163SAPE  H15Y18299   2.041  -0.603   4.604 -2.6070  1.6882 -3.2942
  163SAPE  C31618300   2.044  -0.783   4.727  0.9884 -0.9275  0.0095
  163SAPE  H16X18301   2.120  -0.828   4.660 -0.6950  0.8506 -3.3057
  163SAPE  H16Y18302   1.961  -0.848   4.761  0.6833 -0.3159  0.4688
  163SAPE  C31718303   2.122  -0.736   4.854  0.2445  0.7027 -0.7266
  163SAPE  H17X18304   2.051  -0.687   4.924  0.9566 -3.9649  3.8569
  163SAPE  H17Y18305   2.202  -0.662   4.828 -0.3094  0.9679 -1.7594
  163SAPE  C31818306   2.186  -0.855   4.929 -0.5757  1.0150 -0.1995
  163SAPE  H18X18307   2.245  -0.809   5.011  1.9160  1.4749 -2.1537
  163SAPE  H18Y18308   2.247  -0.913   4.857 -1.5881 -2.0860  1.2545
  163SAPE  H18Z18309   2.110  -0.921   4.977  0.0807 -0.7501 -1.5042
  164SAPE     N18310   1.732   4.817   2.879 -0.0290 -0.4124  0.5727
  164SAPE   HN118311   1.725   4.907   2.932 -0.2494 -1.0990  1.7557
  164SAPE   HN218312   1.821   4.812   2.825  0.7129 -1.4315  1.8165
  164SAPE   HN318313   1.653   4.798   2.814 -0.7525  0.5958  1.1298
  164SAPE   C1218314   1.732   4.708   2.981  0.6508  0.0333  0.0946
  164SAPE  H12A18315   1.803   4.734   3.062 -0.1804 -0.6411  1.0645
  164SAPE  H12B18316   1.773   4.627   2.917  0.6552  0.4821 -0.4810
  164SAPE   C1118317   1.596   4.691   3.059  0.5524 -0.2165 -0.4386
  164SAPE  H11A18318   1.593   4.774   3.133  0.1062 -0.5677 -0.0526
  164SAPE  H11B18319   1.597   4.597   3.118  0.6772  0.8227  1.2981
  164SAPE     P18320   1.341   4.701   3.050 -0.2693 -0.2383 -0.2455
  164SAPE   O1318321   1.282   4.837   3.044 -0.4716 -0.2459 -0.3956
  164SAPE   O1418322   1.267   4.585   2.997  0.1407 -0.9231  0.8378
  164SAPE   O1218323   1.485   4.691   2.971 -0.4290  0.2893 -0.3945
  164SAPE   O1118324   1.385   4.662   3.195 -0.1263  0.3971  0.8556
  164SAPE    C118325   1.341   4.733   3.309  0.5943  0.2357  0.1554
  164SAPE    HA18326   1.242   4.781   3.294  1.1327  0.8681 -1.5455
  164SAPE    HB18327   1.334   4.657   3.390 -0.4499 -0.5165 -0.6125
  164SAPE    C218328   1.445   4.835   3.361 -0.2878 -0.2215  0.2612
  164SAPE    HS18329   1.482   4.891   3.272  0.8783 -0.0388  0.8320
  164SAPE   O2118330   1.544   4.773   3.438 -0.3082  0.6847  0.2456
  164SAPE   C2118331   1.654   4.847   3.448 -0.0329 -0.0434 -0.0827
  164SAPE   O2218332   1.670   4.957   3.397  0.0490  0.0933 -0.4505
  164SAPE   C2218333   1.760   4.770   3.523  0.5126  0.1433 -0.4120
  164SAPE   H2R18334   1.842   4.841   3.546  0.7402  0.2137 -1.3875
  164SAPE   H2S18335   1.721   4.734   3.621  0.5410 -0.3996 -0.5962
  164SAPE    C318336   1.367   4.935   3.447 -0.1553 -0.0794 -0.0482
  164SAPE    HX18337   1.295   4.992   3.384 -0.9033 -0.5861  0.3366
  164SAPE    HY18338   1.438   5.009   3.491  1.6654 -2.4189  1.1350
  164SAPE   O3118339   1.292   4.868   3.544  0.2649  0.2212  0.1846
  164SAPE   C3118340   1.359   4.827   3.659  0.1849  0.2634 -0.0650
  164SAPE   O3218341   1.469   4.863   3.695  0.3996  0.2895 -0.4514
  164SAPE   C3218342   1.274   4.741   3.743  1.2206  0.3343 -0.9695
  164SAPE   H2X18343   1.308   4.635   3.735 -2.3356 -1.0849  0.4034
  164SAPE   H2Y18344   1.167   4.734   3.714  0.9336 -0.5585  0.2102
  164SAPE   C2318345   1.817   4.654   3.434 -0.4230 -0.5877 -0.0666
  164SAPE   H3R18346   1.861   4.700   3.343  0.3334 -0.2006  0.4785
  164SAPE   H3S18347   1.731   4.589   3.408  0.4669 -0.7759 -2.9582
  164SAPE   C2418348   1.928   4.580   3.511 -0.8396 -0.0131  0.1204
  164SAPE   H4R18349   1.891   4.550   3.611 -0.5661 -0.9271 -0.0526
  164SAPE   H4S18350   2.019   4.643   3.523 -0.5571 -0.4326  0.1906
  164SAPE   C2518351   1.980   4.468   3.425  0.3519 -0.4402  0.3637
  164SAPE   H5R18352   2.016   4.500   3.326 -0.1059  1.2732  0.7212
  164SAPE   C2618353   1.985   4.339   3.458  0.6141 -0.4888 -0.0155
  164SAPE   H6R18354   2.038   4.270   3.390  0.8656  0.5750 -0.9383
  164SAPE   C2718355   1.943   4.285   3.592 -0.0760  0.1539  0.5433
  164SAPE   H7R18356   1.835   4.260   3.585  0.3233 -1.0612 -2.8259
  164SAPE   H7S18357   1.959   4.363   3.670 -0.9151  0.5193  0.3669
  164SAPE   C2818358   2.011   4.149   3.620 -0.6667 -0.3766  0.4034
  164SAPE   H8R18359   2.062   4.097   3.538  0.6980 -1.3686  1.8320
  164SAPE   C2918360   2.017   4.087   3.744 -0.3354 -0.6904  0.0334
  164SAPE   H9R18361   2.078   3.996   3.740 -0.2131 -0.5517 -2.1850
  164SAPE  C21018362   1.960   4.142   3.869  0.2390 -0.1031  0.0413
  164SAPE  H10R18363   1.919   4.245   3.855  2.5492  0.8544 -0.0480
  164SAPE  H10S18364   2.044   4.144   3.942 -0.0342  1.2248  0.3556
  164SAPE  C21118365   1.847   4.049   3.915 -0.1858 -0.0254 -0.2326
  164SAPE  H11R18366   1.805   3.986   3.835  2.1821 -0.9931 -0.7738
  164SAPE  C21218367   1.800   4.030   4.039  0.4900 -0.7411  0.1149
  164SAPE  H12R18368   1.712   3.966   4.056  1.9213 -2.2638  2.4231
  164SAPE  C21318369   1.854   4.111   4.155  0.5127  0.5504 -0.1132
  164SAPE  H13R18370   1.776   4.188   4.175 -1.6374 -1.6062  0.2213
  164SAPE  H13S18371   1.945   4.167   4.127  1.4213 -0.1414  1.3742
  164SAPE  C21418372   1.880   4.025   4.270  0.1411 -0.0816 -0.2959
  164SAPE  H14R18373   1.988   4.001   4.275  0.1771 -0.0266 -0.8004
  164SAPE  C21518374   1.808   3.990   4.379 -0.2675  0.1974 -0.1282
  164SAPE  H15R18375   1.839   3.905   4.443 -1.4856 -1.5122 -1.6959
  164SAPE  C21618376   1.661   4.026   4.401  0.3773  0.8092 -0.3120
  164SAPE  H16R18377   1.595   3.939   4.384  0.0112  0.5570  2.0540
  164SAPE  H16S18378   1.628   4.102   4.327 -0.0001  0.0218 -0.9695
  164SAPE  C21718379   1.632   4.086   4.544 -0.3785  0.7539 -0.0429
  164SAPE  H17R18380   1.658   4.194   4.545  1.8790  0.2570 -0.3538
  164SAPE  H17S18381   1.693   4.024   4.613 -1.1905 -0.1112 -0.0793
  164SAPE  C21818382   1.489   4.057   4.597 -0.5004  0.8419  0.7823
  164SAPE  H18R18383   1.469   3.949   4.583 -1.2275  1.1354 -0.6348
  164SAPE  H18S18384   1.417   4.115   4.535  1.6794  2.2887 -0.5173
  164SAPE  C21918385   1.468   4.079   4.748 -0.3552 -0.6965 -0.0770
  164SAPE  H19R18386   1.498   4.185   4.767  1.2060 -1.3375  1.2553
  164SAPE  H19S18387   1.545   4.020   4.801  0.2887 -0.2132 -0.4682
  164SAPE  C22018388   1.327   4.066   4.803 -0.0791 -0.2622  0.1941
  164SAPE  H20R18389   1.296   4.142   4.879  2.5123  2.8725 -1.6376
  164SAPE  H20S18390   1.309   3.966   4.848  0.1259  0.0707  1.0426
  164SAPE  H20T18391   1.252   4.085   4.723 -1.6564 -1.2457  1.3806
  164SAPE   C3318392   1.289   4.783   3.892  0.0749  0.3475  0.4151
  164SAPE   H3X18393   1.269   4.891   3.907  1.0467  0.6189 -0.1596
  164SAPE   H3Y18394   1.398   4.768   3.910 -0.5310 -2.2561  2.5383
  164SAPE   C3418395   1.225   4.683   3.996 -0.1099 -0.0830  0.2152
  164SAPE   H4X18396   1.276   4.710   4.090 -0.6576  0.6455  0.3058
  164SAPE   H4Y18397   1.232   4.576   3.966 -1.0993  0.0830 -0.6755
  164SAPE   C3518398   1.079   4.712   4.010  0.8464 -0.1375  0.3337
  164SAPE   H5X18399   1.013   4.625   3.990  0.8674 -0.5689  1.9817
  164SAPE   H5Y18400   1.052   4.792   3.937 -0.9753  0.0092  1.1277
  164SAPE   C3618401   1.044   4.759   4.159  0.4812 -0.8418  0.3462
  164SAPE   H6X18402   1.121   4.822   4.208 -0.1789 -0.0042  0.3224
  164SAPE   H6Y18403   1.049   4.657   4.201 -0.6910 -1.4358 -0.8653
  164SAPE   C3718404   0.903   4.823   4.190 -0.0077 -0.2451  0.3369
  164SAPE   H7X18405   0.824   4.749   4.167 -1.0371  0.9868 -0.1802
  164SAPE   H7Y18406   0.902   4.903   4.113  0.3154 -0.2248  0.3528
  164SAPE   C3818407   0.882   4.880   4.338  0.7504 -0.0288  0.4297
  164SAPE   H8X18408   0.867   4.800   4.414 -0.8308  0.3749  0.5908
  164SAPE   H8Y18409   0.790   4.942   4.340 -0.1781 -1.3690  1.0041
  164SAPE   C3918410   0.991   4.973   4.400  0.5780 -0.8524  0.7431
  164SAPE   H9X18411   1.052   5.026   4.324  2.1822 -2.4616  0.8198
  164SAPE   H9Y18412   1.062   4.905   4.453  0.7283  0.3206  2.1189
  164SAPE  C31018413   0.927   5.082   4.485 -0.1200 -0.2325  0.0590
  164SAPE  H10X18414   0.877   5.027   4.568  3.7228 -1.2398  1.9407
  164SAPE  H10Y18415   0.850   5.141   4.432  0.6578  0.7450 -0.0161
  164SAPE  C31118416   1.028   5.184   4.555 -0.4134 -0.3204  0.3308
  164SAPE  H11X18417   1.106   5.209   4.480 -3.0157 -1.5286 -3.0926
  164SAPE  H11Y18418   1.058   5.115   4.636  1.1536 -0.5387 -0.3970
  164SAPE  C31218419   0.961   5.309   4.619  0.7895  0.0584  0.8800
  164SAPE  H12X18420   0.855   5.286   4.643  0.3694  0.7227 -0.3069
  164SAPE  H12Y18421   0.939   5.394   4.551 -0.7847 -1.1787 -0.2389
  164SAPE  C31318422   1.033   5.366   4.747  0.5824 -0.0053 -0.0508
  164SAPE  H13X18423   1.029   5.287   4.825 -1.4360 -0.7067 -0.8167
  164SAPE  H13Y18424   0.991   5.463   4.782  3.2737  1.9487 -1.8360
  164SAPE  C31418425   1.174   5.393   4.705  0.6106 -0.3852  0.1259
  164SAPE  H14X18426   1.168   5.448   4.609  0.0043 -0.2300  0.2519
  164SAPE  H14Y18427   1.236   5.303   4.685  0.9196  0.2703 -2.0593
  164SAPE  C31518428   1.258   5.459   4.814 -0.4284  0.2818  0.3242
  164SAPE  H15X18429   1.230   5.567   4.807  0.6285  0.5941  0.7868
  164SAPE  H15Y18430   1.364   5.458   4.782 -0.5017  0.8394  0.0539
  164SAPE  C31618431   1.235   5.412   4.962  0.6051 -0.0416  0.0520
  164SAPE  H16X18432   1.264   5.305   4.974  1.7732  0.4239  1.6256
  164SAPE  H16Y18433   1.125   5.407   4.979  0.3758 -1.8488 -1.5066
  164SAPE  C31718434   1.293   5.498   5.074 -0.5713  0.6063 -0.1805
  164SAPE  H17X18435   1.399   5.466   5.082 -0.4054  1.4495  1.2264
  164SAPE  H17Y18436   1.238   5.477   5.168 -1.8928  0.3427 -0.9914
  164SAPE  C31818437   1.295   5.650   5.059 -0.3173 -0.6921 -1.2463
  164SAPE  H18X18438   1.364   5.691   4.983 -0.7160 -0.6823 -1.6074
  164SAPE  H18Y18439   1.337   5.691   5.154  0.2503  1.2449 -2.2703
  164SAPE  H18Z18440   1.195   5.697   5.044 -0.0905 -0.5106 -2.2541
  165SAPE     N18441   2.436   6.674   2.749  0.0244 -0.8047  0.2936
  165SAPE   HN118442   2.502   6.628   2.815  0.9368 -2.0628 -1.4363
  165SAPE   HN218443   2.472   6.767   2.719 -0.7963 -0.1932  1.1307
  165SAPE   HN318444   2.344   6.680   2.797 -0.2010  0.3455 -0.2363
  165SAPE   C1218445   2.451   6.590   2.624  0.4732 -0.6936  0.0851
  165SAPE  H12A18446   2.551   6.612   2.582  0.0351 -1.4885 -1.4273
  165SAPE  H12B18447   2.360   6.612   2.563 -1.8247 -1.9387  2.8294
  165SAPE   C1118448   2.456   6.442   2.656 -0.8104 -0.0597  0.2723
  165SAPE  H11A18449   2.467   6.370   2.573  2.6895 -2.8375  2.7886
  165SAPE  H11B18450   2.360   6.414   2.704 -0.0503  0.9727  2.5334
  165SAPE     P18451   2.660   6.296   2.756  0.1366  0.4097  0.1839
  165SAPE   O1318452   2.677   6.252   2.613  0.4298  0.3219 -0.0914
  165SAPE   O1418453   2.776   6.317   2.839  0.0295 -0.1312 -0.7526
  165SAPE   O1218454   2.552   6.408   2.763  0.1263 -0.6837 -0.1100
  165SAPE   O1118455   2.582   6.183   2.836 -0.2905 -0.0176  0.0840
  165SAPE    C118456   2.486   6.208   2.939  0.5207 -0.4751  0.1616
  165SAPE    HA18457   2.393   6.262   2.911  0.2859 -0.4872  0.9068
  165SAPE    HB18458   2.457   6.106   2.973 -2.0520 -0.4938 -1.7768
  165SAPE    C218459   2.532   6.302   3.051  1.0318 -0.7034  0.2121
  165SAPE    HS18460   2.540   6.402   3.002  1.1923  0.4033  2.3801
  165SAPE   O2118461   2.649   6.255   3.108 -0.8684  1.0314 -0.6535
  165SAPE   C2118462   2.736   6.349   3.147 -0.7767  0.2404 -0.4216
  165SAPE   O2218463   2.725   6.471   3.136  0.2158  0.5885 -0.5008
  165SAPE   C2218464   2.848   6.273   3.230  0.3912 -0.0666 -0.0291
  165SAPE   H2R18465   2.919   6.229   3.157 -1.2497  0.9465 -2.3998
  165SAPE   H2S18466   2.889   6.355   3.293  0.2747  0.0471 -0.1002
  165SAPE    C318467   2.426   6.318   3.164 -0.3750 -0.9104 -0.7651
  165SAPE    HX18468   2.406   6.224   3.219 -1.1794 -0.6041 -0.5156
  165SAPE    HY18469   2.324   6.346   3.128 -0.5947 -0.2989  0.2969
  165SAPE   O3118470   2.460   6.416   3.265  0.3530  0.1771 -0.3810
  165SAPE   C3118471   2.447   6.541   3.244  0.0078  0.6497 -0.0811
  165SAPE   O3218472   2.412   6.598   3.141  0.1606 -0.1570  0.2667
  165SAPE   C3218473   2.484   6.618   3.375  0.2092  0.3920  0.2015
  165SAPE   H2X18474   2.593   6.635   3.383  0.6201 -2.4207  1.6420
  165SAPE   H2Y18475   2.460   6.549   3.459 -2.4549  2.5130  1.3476
  165SAPE   C2318476   2.801   6.157   3.331 -0.3398  0.7428 -0.1263
  165SAPE   H3R18477   2.872   6.071   3.325 -1.0994  0.0633  0.4923
  165SAPE   H3S18478   2.701   6.115   3.307  0.4833 -1.1936 -0.4038
  165SAPE   C2418479   2.818   6.198   3.479  0.0373  0.1530 -0.4867
  165SAPE   H4R18480   2.923   6.227   3.498 -0.2501 -0.1724  1.8849
  165SAPE   H4S18481   2.808   6.109   3.545 -1.6845 -0.1953 -1.1437
  165SAPE   C2518482   2.724   6.307   3.531  0.1122 -0.2840 -0.6463
  165SAPE   H5R18483   2.688   6.373   3.450 -0.0745  1.3813  0.7338
  165SAPE   C2618484   2.656   6.323   3.646 -0.1375  0.0093  0.1383
  165SAPE   H6R18485   2.588   6.409   3.651  0.1525  0.1884  1.1135
  165SAPE   C2718486   2.662   6.236   3.771  0.0120  0.8498  0.5753
  165SAPE   H7R18487   2.706   6.137   3.747 -0.9270  0.6742 -0.4898
  165SAPE   H7S18488   2.556   6.211   3.790 -0.4964  2.7963  0.5539
  165SAPE   C2818489   2.728   6.305   3.887  0.5563 -0.1146 -0.4478
  165SAPE   H8R18490   2.737   6.415   3.886  4.5144 -0.2973  0.0739
  165SAPE   C2918491   2.770   6.248   4.000  0.2946  0.4778 -0.7892
  165SAPE   H9R18492   2.819   6.307   4.079  2.1354 -0.9274 -0.8331
  165SAPE  C21018493   2.767   6.101   4.029  0.1541  0.5009  0.1493
  165SAPE  H10R18494   2.870   6.065   4.009  0.7823  1.5181  1.4617
  165SAPE  H10S18495   2.698   6.049   3.959 -0.7386  1.4476  0.2962
  165SAPE  C21118496   2.722   6.062   4.160  0.2973  0.5333 -0.5067
  165SAPE  H11R18497   2.616   6.036   4.170  0.1712  0.7478 -1.2284
  165SAPE  C21218498   2.794   6.067   4.277  0.7502  1.1519  0.6994
  165SAPE  H12R18499   2.753   6.034   4.373 -0.3299 -0.7662 -0.3711
  165SAPE  C21318500   2.936   6.111   4.294  0.4112 -0.1728 -0.3039
  165SAPE  H13R18501   2.966   6.150   4.194  0.7109 -0.9050 -0.5093
  165SAPE  H13S18502   3.011   6.029   4.303 -0.7716 -1.3434 -0.7673
  165SAPE  C21418503   2.949   6.225   4.395 -0.5133 -0.7404  0.0567
  165SAPE  H14R18504   2.966   6.324   4.350  0.1061 -0.1799  1.4360
  165SAPE  C21518505   2.963   6.220   4.525  0.3276  0.1244 -0.8270
  165SAPE  H15R18506   2.984   6.314   4.579  3.4956  0.1569 -1.9123
  165SAPE  C21618507   2.953   6.093   4.610  0.1782 -0.4566 -0.0532
  165SAPE  H16R18508   3.036   6.024   4.585 -0.9354 -2.0510  0.5129
  165SAPE  H16S18509   2.864   6.038   4.575  2.8458 -2.5289 -4.4441
  165SAPE  C21718510   2.965   6.111   4.765  0.6241 -0.1155  0.5463
  165SAPE  H17R18511   3.056   6.165   4.798  1.8210 -1.4078 -0.5174
  165SAPE  H17S18512   2.980   6.013   4.817  0.8461 -0.1409  0.4373
  165SAPE  C21818513   2.843   6.175   4.829 -0.1864 -0.3289  0.0407
  165SAPE  H18R18514   2.754   6.110   4.818 -1.2180  0.7743  1.4462
  165SAPE  H18S18515   2.836   6.272   4.775  3.3671 -1.2073 -2.3870
  165SAPE  C21918516   2.840   6.192   4.978  0.5972  0.1748 -0.5759
  165SAPE  H19R18517   2.934   6.240   5.012 -0.3970  1.9871 -0.2721
  165SAPE  H19S18518   2.846   6.088   5.017  0.4890  0.0195 -0.9695
  165SAPE  C22018519   2.735   6.279   5.045  0.9351  0.7967  0.5858
  165SAPE  H20R18520   2.634   6.240   5.022 -0.9635  3.4151  3.6207
  165SAPE  H20S18521   2.731   6.384   5.009 -0.2778  0.7870  0.6498
  165SAPE  H20T18522   2.759   6.267   5.153 -0.0856 -2.0820  0.5836
  165SAPE   C3318523   2.414   6.752   3.383  0.7025 -1.1013  0.1406
  165SAPE   H3X18524   2.423   6.767   3.493  1.0921 -2.9679  0.3920
  165SAPE   H3Y18525   2.309   6.733   3.353  1.0564 -2.4995 -0.2856
  165SAPE   C3418526   2.489   6.865   3.313 -0.4197  0.1407  1.2054
  165SAPE   H4X18527   2.482   6.853   3.203 -0.5284 -1.4503  1.3601
  165SAPE   H4Y18528   2.595   6.842   3.338 -1.2156 -2.6736  2.3655
  165SAPE   C3518529   2.442   6.999   3.361 -0.3895  0.7627  0.0654
  165SAPE   H5X18530   2.331   6.995   3.373 -0.3594  1.6809  0.6891
  165SAPE   H5Y18531   2.484   7.073   3.291  0.5906  0.0168 -0.1577
  165SAPE   C3618532   2.496   7.030   3.501 -0.2023 -0.0298  0.3481
  165SAPE   H6X18533   2.606   7.013   3.506 -0.1179  0.2038 -0.5355
  165SAPE   H6Y18534   2.438   6.970   3.575 -1.8092 -1.3853 -1.8795
  165SAPE   C3718535   2.489   7.178   3.534  1.1039  0.1285  0.4099
  165SAPE   H7X18536   2.385   7.210   3.557  1.1730  0.5326  0.1742
  165SAPE   H7Y18537   2.526   7.236   3.447  1.2086 -1.3326 -0.5550
  165SAPE   C3818538   2.558   7.211   3.665 -0.7967 -0.4898 -0.4673
  165SAPE   H8X18539   2.563   7.320   3.683 -0.0850 -0.5575 -0.2129
  165SAPE   H8Y18540   2.661   7.170   3.651 -0.4119  0.3199 -0.0554
  165SAPE   C3918541   2.492   7.137   3.786 -0.6492 -0.3714  0.4222
  165SAPE   H9X18542   2.497   7.030   3.756  1.1986  0.2014 -1.5496
  165SAPE   H9Y18543   2.387   7.172   3.773  0.4436  2.5130 -1.4792
  165SAPE  C31018544   2.555   7.154   3.921 -0.8101 -0.1737 -0.4753
  165SAPE  H10X18545   2.564   7.262   3.946  1.0637 -0.6059  0.9368
  165SAPE  H10Y18546   2.663   7.137   3.903 -0.4196  2.5311 -1.0648
  165SAPE  C31118547   2.497   7.075   4.044 -0.5146  0.3305  0.2552
  165SAPE  H11X18548   2.491   6.967   4.022 -0.9970  0.6320 -1.2450
  165SAPE  H11Y18549   2.391   7.110   4.053  0.0559  1.9304  1.2655
  165SAPE  C31218550   2.575   7.087   4.175  0.3333 -0.4439  0.7269
  165SAPE  H12X18551   2.616   7.190   4.181  1.8565 -1.0774  1.7722
  165SAPE  H12Y18552   2.657   7.013   4.188  0.6191  0.0148  1.5307
  165SAPE  C31318553   2.488   7.067   4.297 -0.5846  0.0344  0.0980
  165SAPE  H13X18554   2.425   6.977   4.279 -1.9032  0.8328  0.5429
  165SAPE  H13Y18555   2.418   7.153   4.305  1.8049  1.9215  2.1289
  165SAPE  C31418556   2.566   7.068   4.431 -0.3747  0.4806  0.2383
  165SAPE  H14X18557   2.640   7.150   4.439 -0.1930  0.6642 -2.5815
  165SAPE  H14Y18558   2.622   6.972   4.434 -1.1155  0.0581  2.4934
  165SAPE  C31518559   2.478   7.077   4.559 -0.6532  0.2714  0.7130
  165SAPE  H15X18560   2.422   7.173   4.556  0.9031  1.1919 -0.9182
  165SAPE  H15Y18561   2.547   7.078   4.646 -0.8831  0.0308  0.8982
  165SAPE  C31618562   2.386   6.959   4.584  0.3890  0.5092  0.1015
  165SAPE  H16X18563   2.429   6.859   4.605 -1.8500 -1.1102 -2.3093
  165SAPE  H16Y18564   2.330   6.940   4.490  0.2231 -1.2680  0.5303
  165SAPE  C31718565   2.281   6.991   4.690 -0.9080 -0.3520  0.2481
  165SAPE  H17X18566   2.195   6.921   4.682  0.0904 -1.5840 -0.0421
  165SAPE  H17Y18567   2.239   7.093   4.676  1.5330  1.0152  2.1417
  165SAPE  C31818568   2.342   6.990   4.828  0.8255  0.6468 -0.0239
  165SAPE  H18X18569   2.256   6.953   4.888  1.2182 -1.2784 -0.5920
  165SAPE  H18Y18570   2.365   7.089   4.872 -0.7777  1.8707 -1.7696
  165SAPE  H18Z18571   2.422   6.914   4.838  0.3770  0.1495 -0.1754
  166SAPE     N18572   2.510   0.488   2.636  0.3002  0.2805  0.0452
  166SAPE   HN118573   2.448   0.464   2.556  0.4215 -1.3927  0.3988
  166SAPE   HN218574   2.503   0.409   2.704  3.8221  0.5195  0.9127
  166SAPE   HN318575   2.463   0.564   2.688 -2.6226 -0.2224 -1.6509
  166SAPE   C1218576   2.657   0.511   2.613  1.2983  0.2322  0.4402
  166SAPE  H12A18577   2.685   0.588   2.689  1.2264 -0.3096  1.0276
  166SAPE  H12B18578   2.674   0.527   2.505 -2.3342  1.8272 -0.0187
  166SAPE   C1118579   2.728   0.380   2.638  0.1069 -0.1578  0.8228
  166SAPE  H11A18580   2.711   0.366   2.747 -2.7693 -0.9926  0.3578
  166SAPE  H11B18581   2.838   0.385   2.621 -0.1611  0.1328 -1.0301
  166SAPE     P18582   2.688   0.124   2.622 -0.0293  0.1374 -0.1999
  166SAPE   O1318583   2.551   0.074   2.659 -0.3358 -0.4572 -0.2891
  166SAPE   O1418584   2.760   0.042   2.522 -0.6328 -0.0883 -0.2278
  166SAPE   O1218585   2.664   0.269   2.573 -0.0321 -0.3831  0.5450
  166SAPE   O1118586   2.779   0.125   2.745 -0.7307 -0.4148  0.9509
  166SAPE    C118587   2.926   0.144   2.735 -0.3205 -0.3116 -0.2687
  166SAPE    HA18588   2.955   0.145   2.628  0.9649 -0.0214  0.0656
  166SAPE    HB18589   2.957   0.242   2.775  0.3302 -1.0054  0.9717
  166SAPE    C218590   3.005   0.034   2.817  0.4464 -0.2221 -0.3882
  166SAPE    HS18591   2.967  -0.069   2.803  0.2336 -0.7278  3.0373
  166SAPE   O2118592   2.992   0.067   2.960  0.0553  0.6544  0.9886
  166SAPE   C2118593   2.966  -0.033   3.039 -0.3176 -0.6888  0.0501
  166SAPE   O2218594   2.947  -0.152   3.013  0.1876 -0.6117  0.1728
  166SAPE   C2218595   2.975   0.013   3.186  0.2507  0.1287  0.4901
  166SAPE   H2R18596   3.074   0.057   3.213  0.2453  1.9853 -2.1666
  166SAPE   H2S18597   2.910   0.103   3.195  0.7527  0.4788  0.7211
  166SAPE    C318598   3.155   0.044   2.776  1.1279  0.3282 -0.3965
  166SAPE    HX18599   3.183   0.141   2.821 -1.2931 -0.0049  2.1284
  166SAPE    HY18600   3.157   0.043   2.665  0.1377  0.8581 -0.4288
  166SAPE   O3118601   3.231  -0.064   2.835 -0.4525  0.2374 -0.2271
  166SAPE   C3118602   3.360  -0.041   2.831 -0.6917 -0.0663 -0.0625
  166SAPE   O3218603   3.407   0.056   2.784 -0.0124 -0.0341  0.0264
  166SAPE   C3218604   3.438  -0.143   2.916 -0.1973  0.2172  0.3033
  166SAPE   H2X18605   3.503  -0.079   2.980 -0.7479  0.7967  0.2944
  166SAPE   H2Y18606   3.515  -0.190   2.851  0.5407  1.3861  0.3106
  166SAPE   C2318607   2.921  -0.098   3.286 -0.9459  0.1210  0.9702
  166SAPE   H3R18608   2.999  -0.175   3.269 -0.6940 -0.1182  3.0153
  166SAPE   H3S18609   2.834  -0.153   3.245 -1.2753  0.8416  0.6665
  166SAPE   C2418610   2.922  -0.044   3.435 -0.1699 -1.1422 -0.4945
  166SAPE   H4R18611   2.853   0.043   3.438 -0.3933 -1.3355  1.3941
  166SAPE   H4S18612   3.024  -0.001   3.449 -0.4649  0.3014 -2.3280
  166SAPE   C2518613   2.893  -0.154   3.535  0.3680  0.8194  0.2050
  166SAPE   H5R18614   2.951  -0.246   3.518 -1.8079 -0.5865 -0.0417
  166SAPE   C2618615   2.815  -0.152   3.641 -0.1107  0.3922 -0.0000
  166SAPE   H6R18616   2.801  -0.247   3.694 -1.6664  0.1826 -0.7258
  166SAPE   C2718617   2.726  -0.039   3.685  0.5251  0.2957 -0.3371
  166SAPE   H7R18618   2.668   0.002   3.599  1.6051 -0.8545 -1.6521
  166SAPE   H7S18619   2.789   0.046   3.719  2.3608 -0.7128 -1.1100
  166SAPE   C2818620   2.629  -0.088   3.789 -0.3561  0.1378 -0.6669
  166SAPE   H8R18621   2.532  -0.123   3.752 -0.9704  0.8428  0.2304
  166SAPE   C2918622   2.656  -0.087   3.918 -0.4777 -0.3258 -0.6098
  166SAPE   H9R18623   2.589  -0.146   3.982 -0.3760 -0.5588 -0.7197
  166SAPE  C21018624   2.769  -0.033   3.992 -0.5041 -0.0465  0.0283
  166SAPE  H10R18625   2.746   0.034   4.077 -0.0658 -0.6663  0.6436
  166SAPE  H10S18626   2.827   0.036   3.927  0.2398 -0.7261 -0.0529
  166SAPE  C21118627   2.874  -0.139   4.036 -0.2244 -1.3288 -0.1949
  166SAPE  H11R18628   2.958  -0.139   3.966 -0.1034  3.0868 -0.3359
  166SAPE  C21218629   2.877  -0.203   4.151 -0.0235 -0.0860 -0.2630
  166SAPE  H12R18630   2.955  -0.277   4.174  0.9566  0.8387 -0.5119
  166SAPE  C21318631   2.784  -0.187   4.266  0.3507 -0.4313  0.4674
  166SAPE  H13R18632   2.695  -0.125   4.244 -0.4636 -1.0035  2.0126
  166SAPE  H13S18633   2.841  -0.125   4.338 -2.0434  2.7818 -0.2186
  166SAPE  C21418634   2.745  -0.323   4.332 -0.3293 -0.0278 -0.0427
  166SAPE  H14R18635   2.764  -0.414   4.274  0.1447 -0.0161  0.0961
  166SAPE  C21518636   2.686  -0.320   4.456 -0.0222  0.4843  0.6063
  166SAPE  H15R18637   2.667  -0.416   4.506  0.7109 -0.0510 -0.1190
  166SAPE  C21618638   2.654  -0.195   4.537  0.3578 -0.0895  0.7042
  166SAPE  H16R18639   2.563  -0.150   4.493  0.7630  1.7300  1.6083
  166SAPE  H16S18640   2.737  -0.121   4.535 -0.1297  0.4569  0.2195
  166SAPE  C21718641   2.629  -0.221   4.689 -1.1181 -0.4282 -0.1227
  166SAPE  H17R18642   2.614  -0.119   4.730  1.0548 -0.8177  1.8964
  166SAPE  H17S18643   2.728  -0.252   4.730 -0.2442  1.1465 -0.9791
  166SAPE  C21818644   2.506  -0.300   4.721 -0.1871  0.1803 -0.1067
  166SAPE  H18R18645   2.526  -0.402   4.682  0.5710  0.7344 -1.2422
  166SAPE  H18S18646   2.431  -0.250   4.656 -0.2047  1.7866  1.0891
  166SAPE  C21918647   2.465  -0.287   4.868  0.3585  0.3207 -0.1723
  166SAPE  H19R18648   2.449  -0.179   4.893 -1.2069 -0.2500  1.5331
  166SAPE  H19S18649   2.546  -0.322   4.935 -1.1375  2.9892  3.3968
  166SAPE  C22018650   2.335  -0.354   4.897  0.8555  0.2822  0.0070
  166SAPE  H20R18651   2.292  -0.333   4.997  1.0255 -1.5486  0.5006
  166SAPE  H20S18652   2.344  -0.464   4.884  0.2439  0.4012 -1.7229
  166SAPE  H20T18653   2.258  -0.312   4.829  2.0917 -1.2934 -2.5151
  166SAPE   C3318654   3.357  -0.228   3.011 -0.2392  0.0118 -0.7956
  166SAPE   H3X18655   3.399  -0.331   3.015 -0.3658 -0.0135 -0.0358
  166SAPE   H3Y18656   3.255  -0.253   2.976  0.2298 -3.5525  0.0166
  166SAPE   C3418657   3.354  -0.195   3.161  0.8245  0.7273  0.5226
  166SAPE   H4X18658   3.299  -0.098   3.166  0.3565  0.7190 -2.8108
  166SAPE   H4Y18659   3.453  -0.180   3.211  0.2055  0.1579  1.9850
  166SAPE   C3518660   3.271  -0.301   3.234 -0.4976 -0.1697 -0.2367
  166SAPE   H5X18661   3.314  -0.403   3.231 -1.4038 -0.5831  0.2688
  166SAPE   H5Y18662   3.173  -0.307   3.182  0.2123 -2.4278 -1.4420
  166SAPE   C3618663   3.257  -0.267   3.386  0.5573  0.1674 -0.4478
  166SAPE   H6X18664   3.209  -0.168   3.402  0.6573 -0.2554  3.8662
  166SAPE   H6Y18665   3.363  -0.258   3.418  0.9591  0.9830 -1.9339
  166SAPE   C3718666   3.194  -0.378   3.473 -0.1620 -0.3123  0.3542
  166SAPE   H7X18667   3.263  -0.464   3.458  2.1027  1.5755 -0.6782
  166SAPE   H7Y18668   3.091  -0.396   3.436 -0.0506  0.8882 -0.5849
  166SAPE   C3818669   3.206  -0.361   3.622 -0.3403 -0.0031  0.1049
  166SAPE   H8X18670   3.153  -0.270   3.658  0.2777 -0.2807  1.8514
  166SAPE   H8Y18671   3.308  -0.339   3.660 -0.2165 -1.0346  0.3885
  166SAPE   C3918672   3.153  -0.477   3.698 -0.1515  0.5988  0.1910
  166SAPE   H9X18673   3.224  -0.563   3.696  1.0102  1.5064  1.1240
  166SAPE   H9Y18674   3.068  -0.513   3.637  0.9735 -0.6974 -0.6701
  166SAPE  C31018675   3.109  -0.445   3.847 -0.7633 -0.0493 -0.5351
  166SAPE  H10X18676   3.041  -0.517   3.897 -3.3743  2.4682 -0.2238
  166SAPE  H10Y18677   3.068  -0.342   3.843  1.0988  0.7653  0.0106
  166SAPE  C31118678   3.235  -0.432   3.940  0.2960  0.2175 -0.5966
  166SAPE  H11X18679   3.307  -0.357   3.903  0.9599  0.5718  1.2807
  166SAPE  H11Y18680   3.281  -0.532   3.953 -1.5085 -0.8549 -1.9561
  166SAPE  C31218681   3.180  -0.377   4.078 -0.0752  0.3217 -0.4429
  166SAPE  H12X18682   3.081  -0.421   4.103 -0.2284 -0.2454 -1.9227
  166SAPE  H12Y18683   3.157  -0.269   4.069 -0.5091  0.3902  1.1575
  166SAPE  C31318684   3.281  -0.382   4.197 -0.8906  0.0274 -0.4082
  166SAPE  H13X18685   3.379  -0.338   4.168  0.6685 -0.8740  2.9576
  166SAPE  H13Y18686   3.300  -0.486   4.230  0.3681  0.3871  0.0831
  166SAPE  C31418687   3.231  -0.315   4.320  0.0907 -0.1559 -0.4133
  166SAPE  H14X18688   3.140  -0.364   4.361 -1.3786  2.1609 -0.7232
  166SAPE  H14Y18689   3.215  -0.207   4.302 -0.2409 -0.0461  0.4543
  166SAPE  C31518690   3.346  -0.301   4.436 -0.2434 -0.2811 -0.4383
  166SAPE  H15X18691   3.381  -0.196   4.448  0.0399 -0.3888 -0.3142
  166SAPE  H15Y18692   3.436  -0.354   4.399  0.3534  0.3961  0.0308
  166SAPE  C31618693   3.316  -0.366   4.570 -0.1805 -0.5125 -0.3322
  166SAPE  H16X18694   3.261  -0.462   4.553  0.1803 -0.3596 -2.8529
  166SAPE  H16Y18695   3.245  -0.304   4.628  0.8214  0.4133 -0.0822
  166SAPE  C31718696   3.443  -0.386   4.654  0.0041  0.1350 -0.8653
  166SAPE  H17X18697   3.500  -0.291   4.665  0.2104 -0.2759  2.2707
  166SAPE  H17Y18698   3.506  -0.465   4.608 -0.5317 -0.9020  0.1579
  166SAPE  C31818699   3.401  -0.436   4.793 -0.5270 -0.1130 -1.0377
  166SAPE  H18X18700   3.494  -0.457   4.850 -1.0096  1.9150  0.5875
  166SAPE  H18Y18701   3.350  -0.532   4.771 -1.9780  0.6328 -1.0149
  166SAPE  H18Z18702   3.335  -0.365   4.847  2.0636  2.5078 -1.0491
  167SAPE     N18703   3.930   2.398   2.909 -0.4897  0.0717 -0.4703
  167SAPE   HN118704   3.859   2.368   2.979  1.0408 -0.5064  0.8791
  167SAPE   HN218705   3.875   2.427   2.825  0.7667  0.2552 -1.2582
  167SAPE   HN318706   3.991   2.321   2.876  1.6081  2.5284 -2.8201
  167SAPE   C1218707   4.020   2.505   2.971 -0.1067  0.1820 -0.0866
  167SAPE  H12A18708   4.081   2.460   3.052  1.3699 -0.0341 -1.2747
  167SAPE  H12B18709   3.945   2.576   3.011 -0.2231 -0.9306  1.7821
  167SAPE   C1118710   4.102   2.580   2.863  0.4117 -0.1471  0.3010
  167SAPE  H11A18711   4.139   2.671   2.915  1.6713 -0.6933  0.3936
  167SAPE  H11B18712   4.027   2.614   2.789 -0.2626 -0.1093  0.9913
  167SAPE     P18713   4.311   2.547   2.713 -0.0579 -0.2173  0.5657
  167SAPE   O1318714   4.378   2.434   2.649  0.6371  0.6691  0.3689
  167SAPE   O1418715   4.254   2.648   2.619  0.8634  0.2434 -0.2515
  167SAPE   O1218716   4.208   2.494   2.806  0.2841  0.0605 -0.1781
  167SAPE   O1118717   4.416   2.611   2.804 -0.0918  0.0257  0.0726
  167SAPE    C118718   4.498   2.536   2.898 -0.1857 -0.5766 -0.2617
  167SAPE    HA18719   4.514   2.435   2.856 -2.1463 -0.7327 -0.7519
  167SAPE    HB18720   4.600   2.579   2.897  0.2951 -1.6696 -2.5935
  167SAPE    C218721   4.439   2.538   3.038 -0.4062 -0.7073 -0.1540
  167SAPE    HS18722   4.334   2.502   3.030 -0.3594 -0.6842 -0.8862
  167SAPE   O2118723   4.453   2.670   3.089  0.9338 -0.1990 -0.1831
  167SAPE   C2118724   4.347   2.729   3.139 -0.0678  0.1062  0.5230
  167SAPE   O2218725   4.232   2.682   3.142 -0.6061  0.5060  0.7872
  167SAPE   C2218726   4.384   2.849   3.216 -0.6957 -0.6336  0.0760
  167SAPE   H2R18727   4.486   2.882   3.186  0.4496 -4.0913 -0.3819
  167SAPE   H2S18728   4.302   2.923   3.204 -0.2903 -0.6135 -3.2871
  167SAPE    C318729   4.510   2.443   3.138  0.6762 -0.7121  0.7007
  167SAPE    HX18730   4.615   2.476   3.154  0.5378  0.8845 -1.3967
  167SAPE    HY18731   4.500   2.343   3.090 -1.0275 -0.6911  0.9610
  167SAPE   O3118732   4.444   2.449   3.266 -0.8510  0.3049  0.1143
  167SAPE   C3118733   4.327   2.384   3.272 -0.9458 -0.4572  0.2642
  167SAPE   O3218734   4.279   2.306   3.190  0.6992 -0.4381 -0.3127
  167SAPE   C3218735   4.260   2.437   3.403  0.0974  1.0253  0.2063
  167SAPE   H2X18736   4.166   2.379   3.413 -0.0480  1.3179  0.5417
  167SAPE   H2Y18737   4.238   2.542   3.373 -2.5549 -0.4478 -3.8022
  167SAPE   C2318738   4.381   2.813   3.367 -0.1652  0.1452  0.2613
  167SAPE   H3R18739   4.402   2.706   3.387  1.2399  0.4132  0.2772
  167SAPE   H3S18740   4.275   2.818   3.400 -0.1079 -0.2967  0.5147
  167SAPE   C2418741   4.482   2.897   3.445  0.1177 -1.3650  0.0726
  167SAPE   H4R18742   4.582   2.908   3.398  0.7643  0.9024  1.7901
  167SAPE   H4S18743   4.498   2.837   3.538  2.5558 -1.8408 -0.5772
  167SAPE   C2518744   4.429   3.039   3.465  0.8279  0.3307  0.3797
  167SAPE   H5R18745   4.375   3.074   3.376  2.4737 -0.5446 -1.0230
  167SAPE   C2618746   4.422   3.101   3.587 -0.7176  0.2877 -0.3426
  167SAPE   H6R18747   4.369   3.197   3.596  2.7481  2.3102  0.5846
  167SAPE   C2718748   4.492   3.040   3.713  0.9106  0.3329 -0.4219
  167SAPE   H7R18749   4.514   3.113   3.794  1.3487 -1.9684  1.6434
  167SAPE   H7S18750   4.589   2.996   3.684  1.4160  1.0743  0.1168
  167SAPE   C2818751   4.416   2.936   3.782 -0.6360  0.9876 -0.0287
  167SAPE   H8R18752   4.319   2.913   3.736 -0.6775  0.3840  0.3451
  167SAPE   C2918753   4.439   2.868   3.898 -0.0200  0.6940 -0.0635
  167SAPE   H9R18754   4.371   2.798   3.949  0.9810 -0.2231  0.0751
  167SAPE  C21018755   4.573   2.881   3.979 -0.5192  0.7433  0.7883
  167SAPE  H10R18756   4.654   2.919   3.914 -1.1408  0.7975  0.0280
  167SAPE  H10S18757   4.600   2.784   4.027 -1.2764  0.7126  1.1782
  167SAPE  C21118758   4.546   2.973   4.100 -0.8543 -0.5778 -0.8310
  167SAPE  H11R18759   4.445   3.017   4.100 -1.1442 -1.2129  0.2207
  167SAPE  C21218760   4.622   2.998   4.203 -0.1333 -0.1955  0.0660
  167SAPE  H12R18761   4.588   3.086   4.260  1.2315 -0.8714  2.0087
  167SAPE  C21318762   4.763   2.942   4.230 -0.1775 -0.6054  0.0177
  167SAPE  H13R18763   4.832   2.998   4.297  1.4527 -0.4135 -1.7617
  167SAPE  H13S18764   4.809   2.954   4.130 -3.0025  1.3214 -1.1704
  167SAPE  C21418765   4.775   2.800   4.279  0.0636  0.0212 -0.9738
  167SAPE  H14R18766   4.806   2.735   4.196 -1.4559  0.9249 -2.3104
  167SAPE  C21518767   4.737   2.751   4.396 -0.1973  0.1252  0.1846
  167SAPE  H15R18768   4.758   2.643   4.411 -1.1794  0.0337  0.9430
  167SAPE  C21618769   4.695   2.825   4.520  0.7424  0.6157  0.0834
  167SAPE  H16R18770   4.676   2.931   4.492  1.7212  0.9808  0.7314
  167SAPE  H16S18771   4.781   2.810   4.589  0.5512 -0.2492  0.1463
  167SAPE  C21718772   4.570   2.762   4.595 -0.4798  0.4487  0.4840
  167SAPE  H17R18773   4.479   2.781   4.533 -0.8404  0.2286  0.9392
  167SAPE  H17S18774   4.548   2.831   4.679 -0.6798 -0.4516  1.1852
  167SAPE  C21818775   4.583   2.618   4.648 -0.0573 -0.1134 -0.1763
  167SAPE  H18R18776   4.679   2.613   4.703 -0.9525  2.4776  1.8694
  167SAPE  H18S18777   4.571   2.537   4.574  2.1376 -1.6934  1.0729
  167SAPE  C21918778   4.486   2.595   4.763  0.3476 -0.6845  0.1968
  167SAPE  H19R18779   4.535   2.638   4.853  1.3953  0.5194 -0.9000
  167SAPE  H19S18780   4.501   2.490   4.795  1.0395 -0.4172  0.7853
  167SAPE  C22018781   4.343   2.630   4.747 -0.6263 -0.6579  0.1040
  167SAPE  H20R18782   4.295   2.592   4.654 -0.0161  0.3858 -0.6686
  167SAPE  H20S18783   4.339   2.741   4.738  0.3475 -0.4569  1.8141
  167SAPE  H20T18784   4.282   2.590   4.831  0.7632 -1.0048  0.9917
  167SAPE   C3318785   4.348   2.425   3.529  0.5585 -0.0348  0.1727
  167SAPE   H3X18786   4.436   2.490   3.512 -1.1632  1.8501 -2.1394
  167SAPE   H3Y18787   4.386   2.321   3.542 -0.1762 -0.7049 -2.3758
  167SAPE   C3418788   4.273   2.473   3.654  0.0889  0.4691 -0.3163
  167SAPE   H4X18789   4.189   2.409   3.687  0.0208  0.3306 -0.7563
  167SAPE   H4Y18790   4.227   2.574   3.642 -0.1612  0.5837  1.3610
  167SAPE   C3518791   4.355   2.458   3.783 -0.1799  0.3858 -0.1766
  167SAPE   H5X18792   4.444   2.523   3.769 -1.0383  1.2692 -1.8105
  167SAPE   H5Y18793   4.393   2.354   3.787  2.3225  1.2470  0.2295
  167SAPE   C3618794   4.291   2.496   3.912 -0.1979 -0.0220 -0.7558
  167SAPE   H6X18795   4.194   2.442   3.915  0.3248 -0.9558  0.7275
  167SAPE   H6Y18796   4.274   2.605   3.925  1.4091  0.0848  0.9611
  167SAPE   C3718797   4.383   2.458   4.026 -0.1996 -0.8989  0.2492
  167SAPE   H7X18798   4.481   2.510   4.019 -0.6764  0.0443  0.4339
  167SAPE   H7Y18799   4.399   2.348   4.026 -2.1728 -1.2794  2.4937
  167SAPE   C3818800   4.321   2.491   4.165  0.2333  0.0895 -0.1019
  167SAPE   H8X18801   4.250   2.576   4.157 -1.8924 -0.8784  4.5501
  167SAPE   H8Y18802   4.403   2.526   4.231 -0.0718  0.6025  0.0044
  167SAPE   C3918803   4.260   2.364   4.234 -0.5902 -0.4397  0.0218
  167SAPE   H9X18804   4.336   2.283   4.233 -0.0798  0.0300 -1.2608
  167SAPE   H9Y18805   4.178   2.329   4.168 -1.0683  0.1927  0.2750
  167SAPE  C31018806   4.223   2.361   4.382  0.1905 -0.5754  0.4003
  167SAPE  H10X18807   4.115   2.388   4.381 -1.5059 -6.0633 -1.2527
  167SAPE  H10Y18808   4.284   2.438   4.434  1.1121 -1.8633  1.2806
  167SAPE  C31118809   4.238   2.227   4.454  0.2031  0.4203 -0.3896
  167SAPE  H11X18810   4.340   2.182   4.463 -0.3439 -1.0411 -1.1732
  167SAPE  H11Y18811   4.177   2.161   4.389 -0.4221  1.1826 -0.5988
  167SAPE  C31218812   4.177   2.218   4.600 -0.2986  0.0952  0.2201
  167SAPE  H12X18813   4.078   2.267   4.595  0.1131  0.7888 -2.8589
  167SAPE  H12Y18814   4.237   2.279   4.671  0.2390  1.6473 -1.5008
  167SAPE  C31318815   4.154   2.079   4.646 -0.3827  0.2598  0.0983
  167SAPE  H13X18816   4.246   2.017   4.635 -1.2715 -0.9985 -0.4105
  167SAPE  H13Y18817   4.076   2.031   4.583 -0.0362 -2.7933  1.7935
  167SAPE  C31418818   4.117   2.072   4.797  0.1599  0.7388 -0.2747
  167SAPE  H14X18819   4.020   2.125   4.810  0.5501  1.5574 -0.6459
  167SAPE  H14Y18820   4.182   2.140   4.856 -0.8126  2.2738 -0.9372
  167SAPE  C31518821   4.114   1.925   4.844 -0.0190  0.4968  0.2914
  167SAPE  H15X18822   4.213   1.879   4.822 -0.8433 -0.6966 -1.1293
  167SAPE  H15Y18823   4.031   1.884   4.782 -0.9836  0.9358  1.2696
  167SAPE  C31618824   4.077   1.901   4.989  0.3263 -0.7691 -0.2292
  167SAPE  H16X18825   4.157   1.957   5.042 -1.9527  2.5100  0.0890
  167SAPE  H16Y18826   4.078   1.793   5.012 -0.0219 -0.9657 -1.0946
  167SAPE  C31718827   3.938   1.958   5.026 -0.2118 -0.4949 -0.4079
  167SAPE  H17X18828   3.860   1.907   4.965  0.4083 -2.0693  0.0410
  167SAPE  H17Y18829   3.927   2.066   5.006 -0.7027 -0.0261  2.0683
  167SAPE  C31818830   3.897   1.931   5.168  0.1709  0.1737  0.0029
  167SAPE  H18X18831   3.789   1.953   5.177 -0.0080  0.2023 -1.9893
  167SAPE  H18Y18832   3.949   1.987   5.249 -0.9493 -2.6279  2.9241
  167SAPE  H18Z18833   3.911   1.825   5.200 -1.1432  0.1727  0.6307
  168SAPE     N18834   0.588   3.837   2.737 -0.6021 -0.1055 -0.3970
  168SAPE   HN118835   0.649   3.921   2.736 -0.3757 -0.2010  1.5713
  168SAPE   HN218836   0.592   3.791   2.643  1.0152  1.7298 -1.3123
  168SAPE   HN318837   0.491   3.863   2.763 -0.3352 -0.7048  1.2767
  168SAPE   C1218838   0.643   3.745   2.846  0.0113 -0.1266  0.1053
  168SAPE  H12A18839   0.686   3.655   2.798  2.7601  0.8719  0.5442
  168SAPE  H12B18840   0.557   3.714   2.909  0.8148 -2.0712  0.3139
  168SAPE   C1118841   0.744   3.818   2.932  0.0691 -0.5627  0.4029
  168SAPE  H11A18842   0.828   3.843   2.864 -0.0961  3.4690  1.4019
  168SAPE  H11B18843   0.776   3.749   3.013 -1.4255 -1.4407  0.2751
  168SAPE     P18844   0.783   4.062   2.998  0.2887  0.0815 -0.2179
  168SAPE   O1318845   0.875   4.065   2.886 -0.4906 -0.0803 -0.3191
  168SAPE   O1418846   0.700   4.180   3.006  0.2640 -0.0120 -0.3260
  168SAPE   O1218847   0.687   3.935   2.994 -0.2194  0.3114  0.2866
  168SAPE   O1118848   0.865   4.039   3.129 -0.9269 -0.1398 -0.2457
  168SAPE    C118849   0.814   4.016   3.257  0.1615  0.0799 -0.6471
  168SAPE    HA18850   0.711   3.974   3.251 -0.0715  0.7520 -1.5071
  168SAPE    HB18851   0.873   3.937   3.308 -1.8970 -0.8850  0.3737
  168SAPE    C218852   0.807   4.141   3.344  0.0874 -0.0933  0.4200
  168SAPE    HS18853   0.761   4.219   3.280  0.2739  0.7695  1.3153
  168SAPE   O2118854   0.938   4.174   3.404  0.5588  0.0921  0.4428
  168SAPE   C2118855   0.969   4.297   3.421 -0.2908  0.1785  0.7575
  168SAPE   O2218856   0.902   4.395   3.389  0.1756 -0.2259 -0.0744
  168SAPE   C2218857   1.097   4.309   3.501  0.8511 -0.6978  0.3168
  168SAPE   H2R18858   1.107   4.216   3.560  2.0470 -1.0668 -0.4365
  168SAPE   H2S18859   1.174   4.300   3.422  2.3945 -0.7466  1.7851
  168SAPE    C318860   0.707   4.112   3.459 -0.2162  0.0138  0.3826
  168SAPE    HX18861   0.766   4.051   3.531  1.1890 -2.6067 -2.7395
  168SAPE    HY18862   0.622   4.047   3.428 -1.4826  0.2473  3.0294
  168SAPE   O3118863   0.659   4.237   3.513 -0.1002 -0.3950  0.2225
  168SAPE   C3118864   0.541   4.287   3.454  0.1971  0.7719 -0.7697
  168SAPE   O3218865   0.487   4.231   3.357  0.2113 -0.8724 -0.2084
  168SAPE   C3218866   0.487   4.409   3.530  0.1793  0.4605 -0.0044
  168SAPE   H2X18867   0.387   4.434   3.488  0.0363 -0.6910 -0.3696
  168SAPE   H2Y18868   0.556   4.496   3.519 -1.1495  1.6588  0.8011
  168SAPE   C2318869   1.108   4.439   3.574 -0.1996  0.0318 -0.3934
  168SAPE   H3R18870   1.088   4.530   3.514  0.4459 -0.5336 -1.4873
  168SAPE   H3S18871   1.216   4.449   3.600 -0.5776  1.5363  0.7005
  168SAPE   C2418872   1.028   4.450   3.707 -0.0284  0.8049  0.1844
  168SAPE   H4R18873   0.918   4.449   3.690 -0.1898 -2.2856  0.7704
  168SAPE   H4S18874   1.053   4.548   3.753  0.4992 -0.1219  1.9664
  168SAPE   C2518875   1.079   4.343   3.807 -0.2250  0.9486 -0.6446
  168SAPE   H5R18876   1.186   4.319   3.801 -0.1765  1.1449 -0.5774
  168SAPE   C2618877   1.007   4.275   3.903  0.6536 -0.2992 -0.1035
  168SAPE   H6R18878   1.045   4.197   3.971 -2.7015 -2.0271 -0.0084
  168SAPE   C2718879   0.856   4.282   3.930 -0.4424 -0.1374  0.0080
  168SAPE   H7R18880   0.830   4.202   4.003 -2.0477  1.6393  1.4741
  168SAPE   H7S18881   0.816   4.240   3.836 -0.2475  0.9203 -0.5606
  168SAPE   C2818882   0.806   4.424   3.957 -0.7140 -0.5976 -0.3705
  168SAPE   H8R18883   0.844   4.506   3.894  0.0813  0.9711  2.0065
  168SAPE   C2918884   0.725   4.456   4.059 -0.0969 -0.0752 -0.2248
  168SAPE   H9R18885   0.712   4.564   4.073 -0.3410  0.0029 -0.9580
  168SAPE  C21018886   0.667   4.349   4.149 -0.0437  0.4376  0.8968
  168SAPE  H10R18887   0.756   4.295   4.189 -0.3764 -0.9537 -0.1726
  168SAPE  H10S18888   0.616   4.264   4.100 -2.0147 -0.7928  4.6929
  168SAPE  C21118889   0.570   4.397   4.255  0.4105  0.2534 -0.1184
  168SAPE  H11R18890   0.477   4.437   4.210 -0.0808  1.0573  1.5419
  168SAPE  C21218891   0.582   4.385   4.388 -0.9818 -0.0268 -0.0171
  168SAPE  H12R18892   0.492   4.405   4.448 -0.2572  1.2235  0.6898
  168SAPE  C21318893   0.696   4.331   4.473  0.7044 -0.2016 -0.4097
  168SAPE  H13R18894   0.777   4.287   4.410 -0.3292  0.0192 -1.9500
  168SAPE  H13S18895   0.672   4.247   4.542  4.4105 -0.2700  1.0181
  168SAPE  C21418896   0.762   4.447   4.545 -0.2670  0.6218 -0.0537
  168SAPE  H14R18897   0.863   4.471   4.507 -0.6023  0.9360 -0.7669
  168SAPE  C21518898   0.730   4.497   4.665  0.4042 -0.6778 -0.5462
  168SAPE  H15R18899   0.796   4.577   4.702  1.1461 -0.9241 -1.3015
  168SAPE  C21618900   0.611   4.467   4.747 -0.0944  0.7208 -0.4822
  168SAPE  H16R18901   0.634   4.380   4.811 -1.8570  1.5349  1.3634
  168SAPE  H16S18902   0.537   4.428   4.674  0.6482  0.2751 -1.0043
  168SAPE  C21718903   0.558   4.589   4.819  1.0164  0.0592  0.3460
  168SAPE  H17R18904   0.541   4.669   4.743 -1.2029 -0.2728  0.4196
  168SAPE  H17S18905   0.627   4.628   4.896 -0.2407 -1.0727  2.1039
  168SAPE  C21818906   0.435   4.545   4.898  0.8517 -0.5330  0.3015
  168SAPE  H18R18907   0.448   4.463   4.972 -1.5029  0.6865  2.1979
  168SAPE  H18S18908   0.356   4.515   4.826  2.2040 -1.3539 -0.8818
  168SAPE  C21918909   0.368   4.672   4.961 -0.4480  0.3668 -0.2762
  168SAPE  H19R18910   0.265   4.662   5.002 -0.3416  1.6268  0.3250
  168SAPE  H19S18911   0.375   4.747   4.880  0.0413 -0.3628 -0.9195
  168SAPE  C22018912   0.434   4.729   5.087 -0.5113 -0.5510  0.2346
  168SAPE  H20R18913   0.459   4.646   5.156 -0.7172 -1.4511 -0.7413
  168SAPE  H20S18914   0.369   4.804   5.136  0.2802 -0.1203  0.6359
  168SAPE  H20T18915   0.528   4.782   5.060 -0.8895  0.1822  0.3610
  168SAPE   C3318916   0.477   4.387   3.681 -0.3151  0.0074 -0.2201
  168SAPE   H3X18917   0.490   4.487   3.727  0.4704 -0.1661 -0.0554
  168SAPE   H3Y18918   0.561   4.321   3.711 -1.1631 -0.2139  1.7898
  168SAPE   C3418919   0.349   4.335   3.744  0.5816  0.0848 -0.4240
  168SAPE   H4X18920   0.343   4.225   3.752 -0.5242  0.1606  0.0115
  168SAPE   H4Y18921   0.273   4.357   3.665  2.0373 -2.3773 -2.6709
  168SAPE   C3518922   0.308   4.396   3.880 -0.6389 -0.1076  0.2829
  168SAPE   H5X18923   0.323   4.506   3.876  0.1739 -0.1160  2.0665
  168SAPE   H5Y18924   0.377   4.361   3.961  0.1644 -0.5039 -0.5561
  168SAPE   C3618925   0.161   4.378   3.927 -0.5009 -0.0019 -0.9098
  168SAPE   H6X18926   0.152   4.270   3.952  0.5612  0.2464  0.6621
  168SAPE   H6Y18927   0.094   4.398   3.840  0.4673  0.1372 -1.6442
  168SAPE   C3718928   0.121   4.462   4.054  0.3458 -0.2453  0.1018
  168SAPE   H7X18929   0.010   4.454   4.060  0.3014 -1.5783 -1.5486
  168SAPE   H7Y18930   0.158   4.566   4.041  0.3746 -0.2888 -0.1806
  168SAPE   C3818931   0.167   4.399   4.178 -0.2537  0.1039  0.0512
  168SAPE   H8X18932   0.274   4.376   4.160 -0.3592 -1.1343  0.8909
  168SAPE   H8Y18933   0.105   4.308   4.181 -2.0436  1.2633 -0.3117
  168SAPE   C3918934   0.124   4.474   4.304  0.2229 -0.8228 -0.3092
  168SAPE   H9X18935   0.014   4.482   4.313  0.4564  1.4916  1.4932
  168SAPE   H9Y18936   0.170   4.575   4.309 -1.2019 -0.1920  0.9291
  168SAPE  C31018937   0.165   4.387   4.426 -0.4998 -0.8605 -0.6928
  168SAPE  H10X18938   0.252   4.333   4.383  0.0943 -0.6263  0.1911
  168SAPE  H10Y18939   0.098   4.303   4.456 -0.7431  0.6610  3.7966
  168SAPE  C31118940   0.195   4.473   4.556 -0.2872  0.1655 -0.5060
  168SAPE  H11X18941   0.271   4.549   4.529 -0.7043  0.3930 -1.0790
  168SAPE  H11Y18942   0.238   4.402   4.629 -0.8732 -0.3363 -0.6443
  168SAPE  C31218943   0.074   4.548   4.607  0.6868 -0.1564  0.3162
  168SAPE  H12X18944   0.026   4.621   4.538 -0.3070 -0.8430  0.2512
  168SAPE  H12Y18945   0.112   4.613   4.688 -0.2273  0.5848  0.1669
  168SAPE  C31318946  -0.032   4.455   4.675  0.4494  0.5496 -0.2639
  168SAPE  H13X18947   0.004   4.407   4.769 -1.8331 -2.6668 -0.8693
  168SAPE  H13Y18948  -0.065   4.381   4.599  0.4630  1.4113 -1.1346
  168SAPE  C31418949  -0.151   4.539   4.732 -0.1900 -0.5999 -0.1763
  168SAPE  H14X18950  -0.239   4.474   4.721 -0.6532 -0.1383  0.7234
  168SAPE  H14Y18951  -0.160   4.627   4.665  0.1956  1.2108  2.0234
  168SAPE  C31518952  -0.125   4.573   4.881  0.3380  0.0994 -0.6041
  168SAPE  H15X18953  -0.062   4.664   4.889 -2.6678  2.2881  0.1771
  168SAPE  H15Y18954  -0.074   4.491   4.936 -0.5980  0.3221  0.6343
  168SAPE  C31618955  -0.263   4.602   4.946 -0.5105  0.2115 -0.3069
  168SAPE  H16X18956  -0.326   4.511   4.957  1.0014 -0.6250  2.1005
  168SAPE  H16Y18957  -0.315   4.669   4.874 -0.0391  0.0058 -0.8416
  168SAPE  C31718958  -0.233   4.681   5.072  0.3914  0.2530 -0.3952
  168SAPE  H17X18959  -0.231   4.789   5.046  1.0180  0.1241 -0.8975
  168SAPE  H17Y18960  -0.133   4.651   5.110  0.3231  0.3418 -0.1370
  168SAPE  C31818961  -0.349   4.663   5.175  0.1766 -0.9161 -0.0239
  168SAPE  H18X18962  -0.344   4.741   5.254  0.7701 -0.6782 -0.2898
  168SAPE  H18Y18963  -0.338   4.575   5.243  3.0644 -0.0386  0.7908
  168SAPE  H18Z18964  -0.449   4.656   5.128  0.6762 -4.3945 -0.8734
  169SAPE     N18965   4.731   3.307   2.595  0.4658 -0.8060 -0.2903
  169SAPE   HN118966   4.654   3.242   2.621 -1.0270  0.7613 -0.6040
  169SAPE   HN218967   4.823   3.261   2.577  1.1457 -0.4749  2.0855
  169SAPE   HN318968   4.736   3.385   2.663 -0.0570 -1.1116  0.1067
  169SAPE   C1218969   4.707   3.371   2.457  0.1436  0.5308 -0.5684
  169SAPE  H12A18970   4.727   3.291   2.383  0.3227 -0.4155  0.4831
  169SAPE  H12B18971   4.780   3.453   2.441  1.0223 -0.2372 -0.5801
  169SAPE   C1118972   4.564   3.421   2.447 -0.6291 -0.2067  1.1541
  169SAPE  H11A18973   4.548   3.470   2.348  0.2928 -0.7782  0.7055
  169SAPE  H11B18974   4.548   3.502   2.521 -2.5748  0.0919  0.4897
  169SAPE     P18975   4.370   3.316   2.585  0.4205  0.2203  0.4119
  169SAPE   O1318976   4.305   3.448   2.574 -0.1665 -0.7429  0.3996
  169SAPE   O1418977   4.281   3.194   2.591  0.1893 -0.5670 -0.1914
  169SAPE   O1218978   4.474   3.312   2.470 -0.1904  0.1205 -0.2099
  169SAPE   O1118979   4.461   3.318   2.711  0.4338 -0.1589 -0.4829
  169SAPE    C118980   4.450   3.244   2.832  0.3895  0.0355 -0.3995
  169SAPE    HA18981   4.426   3.139   2.803  1.5036  0.3609 -2.7444
  169SAPE    HB18982   4.545   3.257   2.888  0.5040  2.6158 -1.0797
  169SAPE    C218983   4.334   3.295   2.925 -0.3143  0.1247 -0.7692
  169SAPE    HS18984   4.238   3.256   2.886 -0.8907 -1.7347  2.2164
  169SAPE   O2118985   4.336   3.441   2.935  0.6384  0.4665 -0.5682
  169SAPE   C2118986   4.213   3.491   2.965 -0.2220  0.9515 -0.6785
  169SAPE   O2218987   4.113   3.429   2.991 -0.2717 -0.1098 -0.0075
  169SAPE   C2218988   4.232   3.642   2.984 -0.2145  0.1461  0.3074
  169SAPE   H2R18989   4.328   3.670   3.034 -0.9006  2.2954  0.5138
  169SAPE   H2S18990   4.237   3.683   2.881 -0.9223  2.2272  1.0486
  169SAPE    C318991   4.364   3.239   3.069  0.4588  0.6902  0.0077
  169SAPE    HX18992   4.453   3.294   3.108  0.6458  0.5127 -0.1704
  169SAPE    HY18993   4.378   3.130   3.056  2.8998  0.9133  0.2255
  169SAPE   O3118994   4.261   3.268   3.169  0.2985 -0.6718 -0.3760
  169SAPE   C3118995   4.158   3.187   3.172 -0.2057 -0.4020 -0.7322
  169SAPE   O3218996   4.148   3.081   3.114 -0.6222 -0.1351 -0.7376
  169SAPE   C3218997   4.050   3.241   3.263  0.0083 -0.5213  0.0132
  169SAPE   H2X18998   3.989   3.151   3.284 -3.0049  1.3524 -0.0161
  169SAPE   H2Y18999   4.002   3.313   3.193  0.5016  0.1001  0.3021
  169SAPE   C2319000   4.110   3.713   3.061 -0.3416 -0.1196  0.0388
  169SAPE   H3R19001   4.102   3.657   3.156 -1.3613 -0.3543 -0.1760
  169SAPE   H3S19002   4.019   3.680   3.008  0.9250 -1.9569 -1.0873
  169SAPE   C2419003   4.112   3.864   3.077 -0.5556  0.4667 -0.0056
  169SAPE   H4R19004   4.012   3.901   3.106 -1.1754 -0.5401 -0.8248
  169SAPE   H4S19005   4.118   3.896   2.971 -2.9106  1.3911  0.0909
  169SAPE   C2519006   4.230   3.914   3.159  0.3230  0.4324  0.1400
  169SAPE   H5R19007   4.327   3.910   3.107  0.2586  0.4740  0.0141
  169SAPE   C2619008   4.237   3.975   3.281 -0.5709  0.0310 -0.1078
  169SAPE   H6R19009   4.336   3.989   3.327 -0.1160 -0.8887 -0.7713
  169SAPE   C2719010   4.123   3.989   3.369  0.6266 -0.2407  0.4648
  169SAPE   H7R19011   4.035   3.952   3.313 -0.0549  1.4505  0.3492
  169SAPE   H7S19012   4.106   4.098   3.386 -0.7517 -0.4668  0.6120
  169SAPE   C2819013   4.135   3.916   3.501  0.8575  0.4892  1.0280
  169SAPE   H8R19014   4.127   3.807   3.488 -0.3760  0.8144 -1.7048
  169SAPE   C2919015   4.137   3.970   3.619 -0.6105 -0.1511  0.2609
  169SAPE   H9R19016   4.147   3.898   3.702  0.3237  1.9011  2.0105
  169SAPE  C21019017   4.114   4.118   3.655  0.1629  0.3238  0.8922
  169SAPE  H10R19018   4.147   4.194   3.581  3.1706 -1.5856  0.0479
  169SAPE  H10S19019   4.179   4.139   3.743  0.3500  0.7137  0.6639
  169SAPE  C21119020   3.971   4.150   3.692 -0.8072 -0.1061  0.2030
  169SAPE  H11R19021   3.888   4.133   3.621 -1.1178 -0.7840  0.7306
  169SAPE  C21219022   3.932   4.207   3.809 -1.1560  0.5223  0.4946
  169SAPE  H12R19023   3.824   4.222   3.819 -1.4430 -0.5300 -0.7913
  169SAPE  C21319024   4.020   4.251   3.924 -0.0283  0.3262  0.0211
  169SAPE  H13R19025   4.117   4.198   3.910  1.3221  2.4708  0.8426
  169SAPE  H13S19026   3.969   4.216   4.016 -1.4838 -1.3991 -1.3764
  169SAPE  C21419027   4.039   4.401   3.939  0.4535 -0.5333 -0.6002
  169SAPE  H14R19028   4.106   4.443   3.863  0.3672  0.7788  0.0259
  169SAPE  C21519029   3.986   4.485   4.033 -0.3034 -0.3085  0.0679
  169SAPE  H15R19030   3.996   4.594   4.028  0.8664 -0.2574  2.2200
  169SAPE  C21619031   3.887   4.454   4.138  0.0310  0.3329 -0.1669
  169SAPE  H16R19032   3.938   4.395   4.217 -2.4666 -1.8764 -0.0707
  169SAPE  H16S19033   3.821   4.370   4.107 -0.0695 -0.5316  2.1522
  169SAPE  C21719034   3.794   4.560   4.218 -0.0669 -0.3301 -0.4146
  169SAPE  H17R19035   3.729   4.499   4.284  0.2305 -1.6462 -1.2935
  169SAPE  H17S19036   3.722   4.609   4.149  0.1465 -2.6343 -2.3956
  169SAPE  C21819037   3.886   4.663   4.299 -0.5225 -0.0186 -0.1936
  169SAPE  H18R19038   3.816   4.742   4.333  1.1107  0.6648  1.7981
  169SAPE  H18S19039   3.952   4.708   4.221  1.1723 -1.7369  0.1581
  169SAPE  C21919040   3.957   4.607   4.421  0.3717 -0.2165  0.2787
  169SAPE  H19R19041   3.998   4.695   4.475  0.9225  0.3757 -1.0706
  169SAPE  H19S19042   4.044   4.541   4.401  0.1396 -0.5246  0.2792
  169SAPE  C22019043   3.859   4.545   4.529  0.3874 -0.3702 -0.1507
  169SAPE  H20R19044   3.771   4.606   4.556  1.1771  1.5495 -1.6611
  169SAPE  H20S19045   3.921   4.539   4.621  1.6079 -0.7173 -0.9678
  169SAPE  H20T19046   3.826   4.442   4.502  0.9926 -0.1583 -1.8689
  169SAPE   C3319047   4.096   3.296   3.401  0.4068  0.1592  0.3948
  169SAPE   H3X19048   4.166   3.382   3.388 -0.3522  0.5186 -1.6261
  169SAPE   H3Y19049   4.160   3.221   3.453 -0.5793  0.2008  1.6908
  169SAPE   C3419050   3.981   3.342   3.484  0.0534 -0.9312  0.3085
  169SAPE   H4X19051   3.940   3.256   3.541  0.2584 -2.4178 -1.7173
  169SAPE   H4Y19052   3.903   3.384   3.417 -0.1016 -0.9558  0.4727
  169SAPE   C3519053   4.016   3.459   3.583  1.1705 -0.3922 -0.3994
  169SAPE   H5X19054   4.072   3.548   3.547  1.7842 -0.2062  0.9107
  169SAPE   H5Y19055   4.080   3.409   3.659  0.0615 -0.9622  0.1829
  169SAPE   C3619056   3.888   3.506   3.647  0.3034  0.0769 -0.2247
  169SAPE   H6X19057   3.823   3.416   3.650 -2.3755  1.8077 -1.9899
  169SAPE   H6Y19058   3.840   3.587   3.587  0.4064  1.2672  1.2205
  169SAPE   C3719059   3.894   3.558   3.790 -0.4809  0.2223 -0.2531
  169SAPE   H7X19060   3.949   3.479   3.846  1.1310 -1.8706 -4.3312
  169SAPE   H7Y19061   3.789   3.571   3.824  0.5343  0.0642  3.3636
  169SAPE   C3819062   3.957   3.701   3.793 -0.4434 -0.1021 -0.3173
  169SAPE   H8X19063   3.906   3.767   3.719  0.4262  0.0359 -0.8124
  169SAPE   H8Y19064   4.060   3.688   3.753 -1.1450  1.1083 -2.7464
  169SAPE   C3919065   3.960   3.767   3.932  0.0916 -0.2781  0.0320
  169SAPE   H9X19066   3.854   3.785   3.959  0.2943  1.3543 -0.1683
  169SAPE   H9Y19067   4.007   3.867   3.941  0.4412 -0.3975 -0.4104
  169SAPE  C31019068   4.034   3.681   4.038 -0.4983  0.2797 -0.6290
  169SAPE  H10X19069   4.139   3.705   4.013 -1.1190  4.0376 -0.2663
  169SAPE  H10Y19070   4.011   3.573   4.040  0.1039  0.1175  2.2899
  169SAPE  C31119071   4.009   3.733   4.175 -0.0481 -0.1881 -0.1373
  169SAPE  H11X19072   4.028   3.843   4.174 -0.4308 -0.1183 -0.9171
  169SAPE  H11Y19073   4.084   3.680   4.236 -0.1523  2.5213  2.6317
  169SAPE  C31219074   3.871   3.701   4.235  0.2375  0.4128  0.1360
  169SAPE  H12X19075   3.856   3.593   4.212  1.3812  0.0798  0.8077
  169SAPE  H12Y19076   3.789   3.757   4.188 -1.6759 -3.4901 -1.6127
  169SAPE  C31319077   3.866   3.720   4.383  0.6542 -0.6684 -0.7444
  169SAPE  H13X19078   3.864   3.831   4.394  2.1682 -0.7567  0.9300
  169SAPE  H13Y19079   3.953   3.671   4.433 -0.1606  0.6088  2.1367
  169SAPE  C31419080   3.742   3.656   4.449  0.2419  0.1002  0.5411
  169SAPE  H14X19081   3.738   3.553   4.407  0.0135  0.8713 -1.4034
  169SAPE  H14Y19082   3.651   3.712   4.419  0.2940  0.0229  0.2353
  169SAPE  C31519083   3.747   3.646   4.602 -0.0991  0.0228 -0.5166
  169SAPE  H15X19084   3.851   3.628   4.636  0.0204  0.0601 -0.8641
  169SAPE  H15Y19085   3.686   3.555   4.626 -1.8757  1.1707 -0.4573
  169SAPE  C31619086   3.682   3.772   4.664  0.0762  0.3291 -0.0306
  169SAPE  H16X19087   3.573   3.768   4.644 -0.0095  1.1710  0.2108
  169SAPE  H16Y19088   3.732   3.865   4.629  3.2988 -0.7211  1.4114
  169SAPE  C31719089   3.704   3.782   4.818 -0.5765 -0.2625 -0.2752
  169SAPE  H17X19090   3.663   3.879   4.854  0.7957  0.2756 -0.0969
  169SAPE  H17Y19091   3.814   3.791   4.833 -0.2656 -1.6454 -1.4596
  169SAPE  C31819092   3.641   3.674   4.905  0.0200 -0.3758  0.0068
  169SAPE  H18X19093   3.650   3.697   5.013  1.0053  0.0829 -0.1622
  169SAPE  H18Y19094   3.691   3.576   4.889  0.5564  0.0883 -1.3065
  169SAPE  H18Z19095   3.531   3.664   4.888  0.2883 -0.6882 -1.7675
  170SAPE     N19096   3.434   5.274   2.654  0.2574 -0.3230  0.4650
  170SAPE   HN119097   3.348   5.322   2.621 -0.3975 -0.6024  1.6920
  170SAPE   HN219098   3.429   5.236   2.751  2.5181 -3.4533 -0.4925
  170SAPE   HN319099   3.506   5.349   2.656 -0.7446  0.7755 -1.7931
  170SAPE   C1219100   3.481   5.158   2.563  0.0669 -0.0125  0.1440
  170SAPE  H12A19101   3.442   5.177   2.460  2.1292 -2.3289 -1.1605
  170SAPE  H12B19102   3.433   5.065   2.599 -0.3170  0.9388  2.2635
  170SAPE   C1119103   3.632   5.129   2.577  0.0533 -1.0005 -0.5731
  170SAPE  H11A19104   3.692   5.215   2.542  0.8138 -0.5620  1.6345
  170SAPE  H11B19105   3.651   5.037   2.518  1.1393 -1.6570  0.7213
  170SAPE     P19106   3.784   5.027   2.768  0.6739 -0.1225  0.1768
  170SAPE   O1319107   3.877   5.014   2.657 -0.0095  0.4290 -0.4142
  170SAPE   O1419108   3.837   5.077   2.894 -0.2140 -0.2469 -0.2950
  170SAPE   O1219109   3.666   5.120   2.716 -0.0498 -0.5060 -0.2630
  170SAPE   O1119110   3.705   4.888   2.789  0.1950  0.0344  0.2588
  170SAPE    C119111   3.649   4.856   2.915 -0.0197 -0.2012 -0.3060
  170SAPE    HA19112   3.622   4.749   2.926 -4.5978  0.8042  0.3914
  170SAPE    HB19113   3.715   4.873   3.003 -0.3790  0.3018 -0.1268
  170SAPE    C219114   3.525   4.953   2.945  0.5737 -0.3990 -0.7738
  170SAPE    HS19115   3.469   4.962   2.849 -0.7469 -0.4794 -0.0359
  170SAPE   O2119116   3.567   5.075   3.009  0.1940 -0.0629 -0.0205
  170SAPE   C2119117   3.503   5.177   2.973 -0.2398 -0.3870  0.3469
  170SAPE   O2219118   3.403   5.181   2.900 -0.1862 -0.8919  0.2016
  170SAPE   C2219119   3.579   5.300   3.037 -0.0634 -0.2520  0.1617
  170SAPE   H2R19120   3.594   5.281   3.146  0.5887  1.6335  0.4346
  170SAPE   H2S19121   3.681   5.313   2.995  0.6095  0.6018  1.9415
  170SAPE    C319122   3.422   4.877   3.042 -0.3425  0.3307  0.1408
  170SAPE    HX19123   3.373   4.787   2.998  0.1616 -1.0511  2.2611
  170SAPE    HY19124   3.323   4.928   3.048 -1.3063 -1.2434 -1.2097
  170SAPE   O3119125   3.481   4.828   3.173 -0.1838 -0.2047  0.2119
  170SAPE   C3119126   3.447   4.903   3.271 -0.2201 -0.5431  0.3106
  170SAPE   O3219127   3.368   4.992   3.268 -0.1817  0.0958 -0.2733
  170SAPE   C3219128   3.528   4.862   3.391  1.2102  0.8020 -0.1207
  170SAPE   H2X19129   3.634   4.886   3.370  1.4484  0.4406  0.6117
  170SAPE   H2Y19130   3.510   4.753   3.401 -0.5225  0.8904 -1.7146
  170SAPE   C2319131   3.518   5.445   3.021  0.4690  0.6769  0.4806
  170SAPE   H3R19132   3.483   5.471   2.919 -1.6575 -1.6141  0.5301
  170SAPE   H3S19133   3.595   5.523   3.041  0.2663  2.0177 -3.1710
  170SAPE   C2419134   3.409   5.471   3.117 -0.7012 -0.0314 -0.5122
  170SAPE   H4R19135   3.384   5.580   3.113  0.3013  0.2163 -0.2870
  170SAPE   H4S19136   3.458   5.452   3.215 -1.2853 -0.1115 -0.2344
  170SAPE   C2519137   3.293   5.375   3.099  0.1056  0.5707 -0.1581
  170SAPE   H5R19138   3.264   5.368   2.993  0.9875  1.7767 -0.5029
  170SAPE   C2619139   3.237   5.297   3.188  0.1597  0.7766  0.0447
  170SAPE   H6R19140   3.167   5.222   3.148 -1.3027  0.8756  2.2584
  170SAPE   C2719141   3.265   5.303   3.341 -0.4184 -0.5576  0.5391
  170SAPE   H7R19142   3.353   5.237   3.357  0.1401 -0.3038 -1.2692
  170SAPE   H7S19143   3.182   5.244   3.387 -0.5317  0.2878  1.4592
  170SAPE   C2819144   3.275   5.439   3.401  0.5986 -0.0278 -0.4561
  170SAPE   H8R19145   3.250   5.523   3.335  2.0704 -0.2073 -1.2786
  170SAPE   C2919146   3.327   5.468   3.524  0.2838 -0.2273  0.4764
  170SAPE   H9R19147   3.350   5.573   3.549  0.0109 -0.7486  3.3565
  170SAPE  C21019148   3.369   5.367   3.625  0.4696 -0.0976  0.3181
  170SAPE  H10R19149   3.416   5.278   3.577  1.7346  0.7123 -0.0178
  170SAPE  H10S19150   3.281   5.321   3.673  2.5184 -1.6572  2.7806
  170SAPE  C21119151   3.470   5.414   3.729 -0.1548  0.7046 -0.7753
  170SAPE  H11R19152   3.569   5.449   3.695  0.6297 -1.4674 -0.9203
  170SAPE  C21219153   3.427   5.437   3.851 -0.1077 -0.5815  0.3111
  170SAPE  H12R19154   3.497   5.497   3.912 -0.6233 -1.5814  1.9362
  170SAPE  C21319155   3.290   5.423   3.904 -0.9156 -0.2396  0.4445
  170SAPE  H13R19156   3.253   5.323   3.872  0.1025 -1.0554  1.7106
  170SAPE  H13S19157   3.227   5.492   3.845  0.0124  1.1049  0.9768
  170SAPE  C21419158   3.260   5.459   4.048  0.4521 -0.3483 -0.4235
  170SAPE  H14R19159   3.159   5.499   4.062  0.3497 -0.7879  0.1162
  170SAPE  C21519160   3.330   5.436   4.161 -0.2060 -0.4680  0.0163
  170SAPE  H15R19161   3.293   5.480   4.255  0.7541 -1.5950  0.9443
  170SAPE  C21619162   3.467   5.386   4.180 -0.3284  0.0253 -0.2676
  170SAPE  H16R19163   3.510   5.372   4.078  0.9113 -1.4413  0.4156
  170SAPE  H16S19164   3.456   5.279   4.209  1.0386  0.0547  0.3922
  170SAPE  C21719165   3.548   5.465   4.286  0.1590 -0.3309  0.6274
  170SAPE  H17R19166   3.638   5.408   4.316  0.2967 -0.2578  0.3593
  170SAPE  H17S19167   3.480   5.458   4.373 -0.7310 -2.8247 -0.1866
  170SAPE  C21819168   3.584   5.616   4.250  0.9680  0.9582  0.0313
  170SAPE  H18R19169   3.489   5.667   4.225  1.0570  1.3536  0.4824
  170SAPE  H18S19170   3.653   5.616   4.163 -0.0239 -1.4964 -0.8419
  170SAPE  C21919171   3.644   5.696   4.371 -0.6091  0.3609 -0.3553
  170SAPE  H19R19172   3.571   5.701   4.454  0.0504  1.1539  0.1949
  170SAPE  H19S19173   3.653   5.802   4.339 -0.9187  0.3554 -0.4626
  170SAPE  C22019174   3.779   5.649   4.412 -0.3120  0.2616  0.3786
  170SAPE  H20R19175   3.841   5.642   4.321  1.0104 -1.6440  1.3577
  170SAPE  H20S19176   3.764   5.543   4.440 -2.0261 -0.0051 -1.3736
  170SAPE  H20T19177   3.827   5.710   4.493 -0.3059 -0.6073  1.0409
  170SAPE   C3319178   3.485   4.945   3.515 -0.2933  0.3504 -0.4190
  170SAPE   H3X19179   3.489   5.053   3.488 -1.9165  0.3872 -0.6171
  170SAPE   H3Y19180   3.549   4.917   3.601 -0.8573 -1.0920 -0.4418
  170SAPE   C3419181   3.338   4.912   3.559  0.8018 -0.3030  0.1954
  170SAPE   H4X19182   3.314   4.803   3.558 -0.5354 -0.0350 -1.2743
  170SAPE   H4Y19183   3.279   4.957   3.476 -0.0926 -0.7750  0.5621
  170SAPE   C3519184   3.287   4.989   3.683 -0.0558 -0.0855  0.4758
  170SAPE   H5X19185   3.179   4.964   3.685 -0.1352  0.1622 -0.1562
  170SAPE   H5Y19186   3.291   5.099   3.664  0.6957 -0.0118  1.0390
  170SAPE   C3619187   3.359   4.966   3.813 -0.0113 -0.2559 -0.4531
  170SAPE   H6X19188   3.465   4.999   3.803 -0.6548  1.6617 -1.5882
  170SAPE   H6Y19189   3.364   4.858   3.836  0.2593 -0.7394 -2.5393
  170SAPE   C3719190   3.287   5.041   3.936  0.2835  0.1306  0.5568
  170SAPE   H7X19191   3.177   5.049   3.929  0.3586  0.9903  0.2126
  170SAPE   H7Y19192   3.324   5.146   3.940 -0.6269  0.4639  0.4652
  170SAPE   C3819193   3.308   4.970   4.070  0.3209 -0.2212  0.1765
  170SAPE   H8X19194   3.417   4.952   4.081  0.4950 -0.2005 -1.3357
  170SAPE   H8Y19195   3.253   4.873   4.063 -0.3079  0.0193  1.4645
  170SAPE   C3919196   3.262   5.036   4.199  0.1538 -0.0248  0.5802
  170SAPE   H9X19197   3.154   5.059   4.186 -0.2485 -2.3596 -0.8405
  170SAPE   H9Y19198   3.314   5.133   4.206  0.8490 -0.1512 -1.9470
  170SAPE  C31019199   3.291   4.942   4.325 -0.1611  0.1364 -0.1927
  170SAPE  H10X19200   3.401   4.932   4.332 -0.1127  1.6084  2.6085
  170SAPE  H10Y19201   3.246   4.844   4.297  0.9159 -0.0751 -1.2595
  170SAPE  C31119202   3.224   4.987   4.453  0.3267  0.3887 -0.1583
  170SAPE  H11X19203   3.219   4.912   4.535  1.1565 -1.3991 -1.6935
  170SAPE  H11Y19204   3.119   5.009   4.423  0.0608  0.4801  0.8057
  170SAPE  C31219205   3.293   5.107   4.518  0.0363  0.0541 -0.6380
  170SAPE  H12X19206   3.299   5.193   4.449 -0.0778  0.1176 -0.5691
  170SAPE  H12Y19207   3.401   5.090   4.538 -0.2099  1.0733  2.0055
  170SAPE  C31319208   3.225   5.161   4.648  0.1867  0.2056 -0.3216
  170SAPE  H13X19209   3.121   5.190   4.622  0.1680 -0.6118 -1.2485
  170SAPE  H13Y19210   3.288   5.247   4.678  0.3656 -0.3807  1.0664
  170SAPE  C31419211   3.225   5.067   4.772  0.0471 -0.0218  0.0403
  170SAPE  H14X19212   3.312   4.998   4.764  0.3070  0.3803 -0.6724
  170SAPE  H14Y19213   3.136   5.003   4.756  1.0777 -1.3022 -0.8294
  170SAPE  C31519214   3.235   5.127   4.911  0.5839 -0.2410  0.2240
  170SAPE  H15X19215   3.228   5.046   4.987  1.2516  0.3107  0.8890
  170SAPE  H15Y19216   3.147   5.193   4.927  0.0334 -0.8795 -0.1441
  170SAPE  C31619217   3.366   5.203   4.937  0.3550  0.3664 -0.0203
  170SAPE  H16X19218   3.354   5.297   4.879 -0.2565  1.4474  1.7776
  170SAPE  H16Y19219   3.453   5.146   4.899  0.5998  0.5167  0.3100
  170SAPE  C31719220   3.381   5.239   5.082  0.4764 -0.0011 -0.3526
  170SAPE  H17X19221   3.366   5.151   5.148  1.7280  1.3968  1.9291
  170SAPE  H17Y19222   3.300   5.302   5.125 -2.2764 -1.4017 -3.1040
  170SAPE  C31819223   3.517   5.299   5.113  0.3273 -0.3784 -0.0811
  170SAPE  H18X19224   3.543   5.301   5.220  2.3449 -0.2359 -0.5425
  170SAPE  H18Y19225   3.498   5.406   5.090  0.6244  0.1523  1.9824
  170SAPE  H18Z19226   3.605   5.270   5.052  0.7741 -0.3580  0.5565
  171SAPE     N19227   2.374   2.507   2.956  0.1648  0.0943 -0.5394
  171SAPE   HN119228   2.370   2.404   2.945  0.2621 -0.1928  1.6604
  171SAPE   HN219229   2.475   2.526   2.973  0.3833 -1.3088 -0.1434
  171SAPE   HN319230   2.339   2.532   3.050 -0.7178  0.2331 -0.8934
  171SAPE   C1219231   2.309   2.582   2.843 -0.6732 -0.0698  0.0547
  171SAPE  H12A19232   2.201   2.585   2.868 -0.2273 -0.3469  2.2383
  171SAPE  H12B19233   2.318   2.529   2.746 -0.8745 -0.1397  0.0742
  171SAPE   C1119234   2.358   2.723   2.819 -0.1203 -0.3331 -0.6979
  171SAPE  H11A19235   2.316   2.746   2.719  0.5339 -2.1147 -1.4226
  171SAPE  H11B19236   2.469   2.721   2.805  0.1742 -2.2934  1.3861
  171SAPE     P19237   2.358   2.966   2.924  0.0672 -0.1552  0.0136
  171SAPE   O1319238   2.450   2.989   2.814 -0.4272  0.2658  0.3306
  171SAPE   O1419239   2.229   3.036   2.920 -0.0402 -0.2108  0.6971
  171SAPE   O1219240   2.321   2.810   2.927  0.5040  0.2599 -0.4373
  171SAPE   O1119241   2.429   3.000   3.059  0.3136 -0.2080  0.4713
  171SAPE    C119242   2.474   2.913   3.153 -0.4550  1.3654  0.1383
  171SAPE    HA19243   2.492   2.810   3.113  1.5310  1.6992  0.0657
  171SAPE    HB19244   2.575   2.939   3.191  0.5025 -0.6127 -0.8749
  171SAPE    C219245   2.379   2.904   3.272  0.5244  0.2649 -0.0230
  171SAPE    HS19246   2.416   2.825   3.341 -1.2724  1.2582  2.1771
  171SAPE   O2119247   2.250   2.869   3.220  0.4643  0.0986  0.1194
  171SAPE   C2119248   2.241   2.733   3.195  0.3710 -0.5041  0.2772
  171SAPE   O2219249   2.332   2.650   3.199  0.6488 -0.2210  0.1425
  171SAPE   C2219250   2.098   2.698   3.162  0.3568 -0.0717 -0.1437
  171SAPE   H2R19251   2.032   2.780   3.197 -0.4670 -1.3418  1.3657
  171SAPE   H2S19252   2.088   2.706   3.051  0.1018  1.1381 -0.0459
  171SAPE    C319253   2.364   3.032   3.352 -0.1495  0.6336  0.2315
  171SAPE    HX19254   2.274   3.016   3.416  0.6952 -2.0884  0.9116
  171SAPE    HY19255   2.345   3.115   3.282  0.5683 -0.3039 -1.1280
  171SAPE   O3119256   2.480   3.050   3.434 -0.0889 -0.2262 -0.5600
  171SAPE   C3119257   2.569   3.135   3.394  0.8724  0.7036 -0.1571
  171SAPE   O3219258   2.567   3.214   3.301  0.0054 -0.0422 -0.0077
  171SAPE   C3219259   2.675   3.131   3.506 -0.8848  0.3183  0.0511
  171SAPE   H2X19260   2.676   3.030   3.552 -1.1836  1.8491  3.7673
  171SAPE   H2Y19261   2.631   3.199   3.582 -3.0750 -1.8948  0.8956
  171SAPE   C2319262   2.073   2.554   3.208  0.8096 -0.8615  0.0922
  171SAPE   H3R19263   2.146   2.483   3.163  0.0989 -2.1361  0.8818
  171SAPE   H3S19264   1.976   2.517   3.168  0.5386  1.4380 -1.5386
  171SAPE   C2419265   2.058   2.533   3.358  0.3353 -0.3504 -0.5182
  171SAPE   H4R19266   2.157   2.548   3.406 -0.8968  0.0073  2.0723
  171SAPE   H4S19267   2.020   2.433   3.387  1.2248  0.0529  2.3431
  171SAPE   C2519268   1.963   2.635   3.410  0.1963 -0.5879  0.2703
  171SAPE   H5R19269   1.880   2.656   3.341 -0.5977 -1.0356  1.0756
  171SAPE   C2619270   1.982   2.707   3.522  0.4176 -0.6106  0.0091
  171SAPE   H6R19271   1.899   2.776   3.540  1.2530  0.8334 -1.4625
  171SAPE   C2719272   2.090   2.698   3.622  0.0445 -0.2155 -0.2151
  171SAPE   H7R19273   2.145   2.601   3.615  0.1409 -0.2024  0.3557
  171SAPE   H7S19274   2.052   2.697   3.726  1.8806 -0.2068  0.5039
  171SAPE   C2819275   2.195   2.808   3.625 -0.3499 -0.6797  0.4517
  171SAPE   H8R19276   2.188   2.873   3.536  2.1061 -0.9113 -0.0022
  171SAPE   C2919277   2.287   2.837   3.727  0.2055 -0.0931  0.0766
  171SAPE   H9R19278   2.352   2.925   3.721 -0.8222  0.6582 -0.2501
  171SAPE  C21019279   2.287   2.760   3.856 -0.3468  0.5446 -0.1816
  171SAPE  H10R19280   2.388   2.714   3.869 -0.8886 -0.2003  1.6788
  171SAPE  H10S19281   2.239   2.661   3.843 -2.1356  1.1153  1.5991
  171SAPE  C21119282   2.244   2.832   3.982  0.5674  0.0739 -0.2825
  171SAPE  H11R19283   2.186   2.923   3.960  0.9421 -0.0005 -1.6923
  171SAPE  C21219284   2.292   2.809   4.105  0.3583 -0.0377  0.0472
  171SAPE  H12R19285   2.248   2.863   4.190 -2.2038  0.5778 -1.5532
  171SAPE  C21319286   2.388   2.698   4.142 -0.4498 -0.5568  0.0572
  171SAPE  H13R19287   2.490   2.740   4.155 -1.0281  1.0801 -0.4106
  171SAPE  H13S19288   2.402   2.634   4.053  0.0571 -0.0495 -0.2346
  171SAPE  C21419289   2.337   2.604   4.251  0.1954  0.0612  0.2563
  171SAPE  H14R19290   2.295   2.510   4.212  1.2715  0.4996 -2.1243
  171SAPE  C21519291   2.341   2.630   4.383 -0.1742  0.0000 -0.0463
  171SAPE  H15R19292   2.302   2.558   4.456 -0.6157  1.3964  1.1570
  171SAPE  C21619293   2.396   2.751   4.457  0.0094  0.7125  0.1469
  171SAPE  H16R19294   2.427   2.827   4.382 -1.1610 -0.0865 -1.2070
  171SAPE  H16S19295   2.475   2.716   4.526 -0.8705 -2.1189 -0.1766
  171SAPE  C21719296   2.296   2.827   4.549  0.5524 -0.0048  0.0307
  171SAPE  H17R19297   2.267   2.755   4.628 -0.2328 -0.6233 -0.7896
  171SAPE  H17S19298   2.204   2.855   4.493 -0.3429 -0.9843  0.9600
  171SAPE  C21819299   2.361   2.958   4.600  0.1223  0.4911  0.3725
  171SAPE  H18R19300   2.386   3.030   4.519  2.6025  0.7862  1.2969
  171SAPE  H18S19301   2.461   2.941   4.645  0.4683  1.0707 -0.1669
  171SAPE  C21919302   2.283   3.042   4.708  0.2327 -0.2283 -0.1187
  171SAPE  H19R19303   2.348   3.095   4.781 -1.1236  0.7312  0.4365
  171SAPE  H19S19304   2.228   2.962   4.763 -1.9678  0.7643 -0.7638
  171SAPE  C22019305   2.186   3.144   4.640  0.0658 -0.2884 -0.3610
  171SAPE  H20R19306   2.134   3.110   4.548  0.2627 -1.9354  0.1090
  171SAPE  H20S19307   2.245   3.226   4.593 -2.9798  1.3874 -1.5443
  171SAPE  H20T19308   2.123   3.199   4.712  0.7082 -1.4052  1.1012
  171SAPE   C3319309   2.821   3.172   3.456 -1.1364 -0.1806  0.3178
  171SAPE   H3X19310   2.794   3.228   3.364  1.2298 -2.8794 -2.2222
  171SAPE   H3Y19311   2.879   3.083   3.423  1.0969  1.7126 -1.1852
  171SAPE   C3419312   2.899   3.252   3.561  0.3561 -0.1610 -0.2786
  171SAPE   H4X19313   2.863   3.355   3.543  0.0213 -0.3343 -0.5993
  171SAPE   H4Y19314   3.007   3.258   3.535  1.1810 -2.1776  2.2079
  171SAPE   C3519315   2.888   3.211   3.710  0.8194 -0.2248  0.2184
  171SAPE   H5X19316   2.914   3.104   3.715 -3.2462 -1.3676  0.2504
  171SAPE   H5Y19317   2.782   3.210   3.743  0.9161  1.1384  0.6713
  171SAPE   C3619318   2.971   3.296   3.808  0.0226 -0.8326  0.4189
  171SAPE   H6X19319   2.964   3.406   3.792 -0.6662 -0.5250  2.4893
  171SAPE   H6Y19320   3.078   3.271   3.791 -0.1236 -1.8842  0.9527
  171SAPE   C3719321   2.944   3.285   3.961  0.3508  0.1732  0.3081
  171SAPE   H7X19322   2.851   3.233   3.994 -1.3061  3.1238  0.6455
  171SAPE   H7Y19323   2.901   3.384   3.987  0.0032 -0.1718  1.0801
  171SAPE   C3819324   3.065   3.262   4.058 -0.0353 -0.1997  0.0622
  171SAPE   H8X19325   3.144   3.336   4.034  0.5027 -1.1272 -1.1662
  171SAPE   H8Y19326   3.093   3.155   4.043  0.6914 -0.1225  0.7822
  171SAPE   C3919327   3.027   3.295   4.199 -0.4393 -0.4167 -0.2773
  171SAPE   H9X19328   2.938   3.232   4.221  0.5448 -1.9407 -0.5073
  171SAPE   H9Y19329   2.995   3.401   4.206  1.4836  0.4742 -3.1211
  171SAPE  C31019330   3.150   3.261   4.292 -0.7206  0.0892  0.4603
  171SAPE  H10X19331   3.234   3.330   4.267 -0.8387  0.3433  0.7680
  171SAPE  H10Y19332   3.197   3.163   4.268 -2.2879 -0.6260  0.1992
  171SAPE  C31119333   3.110   3.260   4.439  0.0273  0.7974  1.0889
  171SAPE  H11X19334   3.015   3.205   4.450 -1.4511  3.1643  0.7495
  171SAPE  H11Y19335   3.086   3.365   4.468 -1.7004  0.8179 -0.2636
  171SAPE  C31219336   3.215   3.209   4.543 -0.5951 -0.8076  0.6532
  171SAPE  H12X19337   3.272   3.292   4.590  1.4175 -2.0916  0.6033
  171SAPE  H12Y19338   3.289   3.140   4.497 -0.4852 -2.3339  2.9138
  171SAPE  C31319339   3.132   3.139   4.648  0.4443 -0.2998 -0.2148
  171SAPE  H13X19340   3.071   3.059   4.602  1.1887  0.5218 -2.8863
  171SAPE  H13Y19341   3.062   3.221   4.674  0.4308 -0.2681 -0.3469
  171SAPE  C31419342   3.219   3.086   4.761 -0.1335  0.0608  0.0907
  171SAPE  H14X19343   3.253   2.986   4.729 -0.2680 -0.3478  1.1695
  171SAPE  H14Y19344   3.162   3.072   4.856  0.7914 -0.2244  0.6147
  171SAPE  C31519345   3.342   3.170   4.809  0.3047  1.0768  0.6957
  171SAPE  H15X19346   3.309   3.271   4.841 -1.4841  0.8531 -0.2928
  171SAPE  H15Y19347   3.410   3.171   4.722  0.3526 -0.3646  0.6878
  171SAPE  C31619348   3.410   3.119   4.936 -0.4630  0.2853 -0.2539
  171SAPE  H16X19349   3.422   3.010   4.924  0.8239  0.2458  1.0661
  171SAPE  H16Y19350   3.343   3.144   5.021 -0.8086 -0.2596 -0.3678
  171SAPE  C31719351   3.548   3.185   4.983  1.3393 -0.7255  0.3528
  171SAPE  H17X19352   3.578   3.149   5.084 -1.5293 -0.7008  1.3161
  171SAPE  H17Y19353   3.529   3.294   4.998  2.4613 -0.5548  0.5984
  171SAPE  C31819354   3.660   3.162   4.885  0.1308  0.1498  0.0157
  171SAPE  H18X19355   3.684   3.054   4.877  1.0539  0.3671 -0.1903
  171SAPE  H18Y19356   3.754   3.215   4.909  0.3432  0.3641 -1.2384
  171SAPE  H18Z19357   3.627   3.191   4.783 -1.3147 -1.3164  0.0220
  172SAPE     N19358   4.132   5.537   2.784  0.2813 -0.3010  0.0597
  172SAPE   HN119359   4.183   5.626   2.767 -1.1615  0.4754 -0.3498
  172SAPE   HN219360   4.193   5.458   2.814  1.1340  0.1911 -0.3387
  172SAPE   HN319361   4.090   5.510   2.693 -2.0283  0.3544  0.8508
  172SAPE   C1219362   4.017   5.547   2.884  0.5654 -0.4023  0.5260
  172SAPE  H12A19363   3.979   5.651   2.878  2.1243  0.1465 -0.1084
  172SAPE  H12B19364   4.056   5.525   2.986  0.2200 -1.0072  0.5339
  172SAPE   C1119365   3.906   5.448   2.847  0.6997  0.2263  0.2549
  172SAPE  H11A19366   3.826   5.440   2.924  0.3190  1.1194 -0.0347
  172SAPE  H11B19367   3.949   5.346   2.856  1.0713  0.4276  0.8142
  172SAPE     P19368   3.736   5.559   2.664 -0.3216  0.3406 -0.3066
  172SAPE   O1319369   3.786   5.634   2.549 -0.4772 -0.0199  0.6001
  172SAPE   O1419370   3.611   5.482   2.646 -0.3950 -0.1029  0.1243
  172SAPE   O1219371   3.850   5.461   2.717  0.0454 -0.6371  0.3375
  172SAPE   O1119372   3.715   5.659   2.779  0.2751  0.2672  0.4468
  172SAPE    C119373   3.623   5.770   2.775  0.0430 -0.0346 -0.3532
  172SAPE    HA19374   3.631   5.832   2.683 -1.9083  0.3904 -0.2794
  172SAPE    HB19375   3.520   5.727   2.774 -1.0059  2.2846 -0.2340
  172SAPE    C219376   3.654   5.865   2.896  0.0249  0.3446 -0.5308
  172SAPE    HS19377   3.756   5.902   2.877  0.9707 -1.5002  0.6319
  172SAPE   O2119378   3.635   5.785   3.020  0.3009 -0.5429  0.9358
  172SAPE   C2119379   3.701   5.831   3.118 -0.6739 -0.1743  0.6185
  172SAPE   O2219380   3.793   5.915   3.105  0.6177  0.9860  0.1052
  172SAPE   C2219381   3.653   5.777   3.250 -1.0825 -0.0624 -0.1411
  172SAPE   H2R19382   3.595   5.857   3.300 -1.5284  0.2867 -1.1867
  172SAPE   H2S19383   3.580   5.694   3.233 -1.5049  0.5184 -1.2828
  172SAPE    C319384   3.562   5.988   2.900 -0.3488  0.3540  0.1433
  172SAPE    HX19385   3.458   5.949   2.894  0.1519 -1.1930  0.8298
  172SAPE    HY19386   3.586   6.050   2.811  0.2435  1.6886  1.2063
  172SAPE   O3119387   3.584   6.062   3.025  0.0267  0.4556  0.4829
  172SAPE   C3119388   3.617   6.191   3.019 -0.0995 -0.4198  0.3343
  172SAPE   O3219389   3.612   6.260   2.920  0.2892  0.0226 -0.2499
  172SAPE   C3219390   3.650   6.240   3.156  0.0846 -0.7596  0.4579
  172SAPE   H2X19391   3.643   6.351   3.162 -0.5319 -0.7134 -0.7937
  172SAPE   H2Y19392   3.759   6.218   3.162  0.1617 -0.1730  1.3166
  172SAPE   C2319393   3.769   5.727   3.346  0.0840 -0.8463  0.6662
  172SAPE   H3R19394   3.840   5.660   3.293  0.1610 -0.0387 -0.2755
  172SAPE   H3S19395   3.726   5.666   3.428 -1.1213 -1.0889 -0.1266
  172SAPE   C2419396   3.852   5.842   3.402 -0.4936 -0.3095 -0.1722
  172SAPE   H4R19397   3.771   5.903   3.446  0.2666  0.2679  0.4418
  172SAPE   H4S19398   3.896   5.901   3.318  0.3242  2.1529  1.8730
  172SAPE   C2519399   3.954   5.803   3.503  0.2634  0.4237  0.0804
  172SAPE   H5R19400   4.059   5.797   3.470  0.0469 -2.4579 -0.3696
  172SAPE   C2619401   3.922   5.767   3.627 -0.3625  0.0323  0.0975
  172SAPE   H6R19402   3.996   5.729   3.700  0.4707 -0.9328 -1.1930
  172SAPE   C2719403   3.787   5.754   3.692 -0.2856 -0.2964 -0.8207
  172SAPE   H7R19404   3.772   5.644   3.698  0.8519 -0.5321 -1.7755
  172SAPE   H7S19405   3.704   5.797   3.632 -0.0313 -0.6923 -1.4668
  172SAPE   C2819406   3.788   5.820   3.827  0.5413 -0.8273 -0.8520
  172SAPE   H8R19407   3.740   5.919   3.836 -1.7572 -1.9267 -0.4745
  172SAPE   C2919408   3.846   5.769   3.938  0.5090  0.1808  0.3516
  172SAPE   H9R19409   3.835   5.828   4.030 -1.3268 -2.0565  1.6598
  172SAPE  C21019410   3.925   5.644   3.953 -0.1725 -0.5039  0.1146
  172SAPE  H10R19411   3.900   5.584   3.863  1.0582  0.1858 -0.7138
  172SAPE  H10S19412   3.897   5.586   4.044  0.7480  0.5836  1.1272
  172SAPE  C21119413   4.068   5.677   3.968  0.5150  1.0000  0.4867
  172SAPE  H11R19414   4.102   5.720   3.873 -2.9171 -0.4151 -1.5543
  172SAPE  C21219415   4.153   5.661   4.065 -0.2789 -0.2984 -0.4979
  172SAPE  H12R19416   4.261   5.684   4.061  0.1556 -1.3776  2.6033
  172SAPE  C21319417   4.106   5.598   4.193 -0.1323  0.1498 -0.8269
  172SAPE  H13R19418   4.109   5.488   4.200  1.0308  0.2560  1.5935
  172SAPE  H13S19419   3.997   5.617   4.206 -0.2539 -0.1361 -1.3957
  172SAPE  C21419420   4.187   5.652   4.315 -0.7860 -0.6791 -0.1650
  172SAPE  H14R19421   4.205   5.761   4.315  0.4225 -0.8601  0.1513
  172SAPE  C21519422   4.234   5.584   4.423  0.6934  0.3737 -0.0876
  172SAPE  H15R19423   4.280   5.632   4.511  0.2564 -1.4042  1.1657
  172SAPE  C21619424   4.205   5.437   4.449 -0.4016  0.1781 -0.3534
  172SAPE  H16R19425   4.279   5.369   4.402 -0.6492 -0.7240  0.5342
  172SAPE  H16S19426   4.102   5.419   4.413 -1.1357 -0.1629  1.7772
  172SAPE  C21719427   4.190   5.401   4.599 -0.5593  0.4336  0.3426
  172SAPE  H17R19428   4.120   5.315   4.608 -0.4204  0.3129  0.2753
  172SAPE  H17S19429   4.151   5.490   4.651 -0.0033  1.9493 -1.6904
  172SAPE  C21819430   4.322   5.353   4.656 -0.1484  0.5524 -0.1284
  172SAPE  H18R19431   4.388   5.441   4.675  0.8008 -0.0776 -0.4529
  172SAPE  H18S19432   4.360   5.280   4.581 -1.7858  0.5418 -1.0044
  172SAPE  C21919433   4.300   5.288   4.798  0.5046  0.7366  0.9106
  172SAPE  H19R19434   4.226   5.206   4.791  0.6019  0.5340  2.0343
  172SAPE  H19S19435   4.273   5.362   4.876  0.2411 -1.7338  3.3397
  172SAPE  C22019436   4.431   5.245   4.865  0.4100 -0.1425  0.7687
  172SAPE  H20R19437   4.488   5.339   4.880  0.4443 -0.1585  0.7365
  172SAPE  H20S19438   4.498   5.181   4.802 -0.2377  2.3098 -2.7138
  172SAPE  H20T19439   4.417   5.202   4.966  0.3209  1.2620  1.3669
  172SAPE   C3319440   3.571   6.167   3.270 -0.1965 -0.5261 -0.2693
  172SAPE   H3X19441   3.573   6.059   3.246 -0.2499 -0.9222  1.3876
  172SAPE   H3Y19442   3.463   6.192   3.257 -0.0938 -0.7934 -1.7393
  172SAPE   C3419443   3.618   6.191   3.408  0.6545 -0.6522 -0.0077
  172SAPE   H4X19444   3.627   6.299   3.431 -0.4515 -0.6375  0.4301
  172SAPE   H4Y19445   3.724   6.160   3.420  0.5469 -0.7789  0.6361
  172SAPE   C3519446   3.530   6.125   3.518  0.8783 -0.2559 -0.8840
  172SAPE   H5X19447   3.499   6.020   3.497  0.0547  0.1368 -1.7155
  172SAPE   H5Y19448   3.431   6.176   3.515  1.5791  1.0627 -2.1795
  172SAPE   C3619449   3.586   6.155   3.658  0.1245  0.0462 -0.4125
  172SAPE   H6X19450   3.595   6.264   3.675  0.0746 -0.1364  0.8614
  172SAPE   H6Y19451   3.689   6.114   3.668  0.5574  1.0087 -0.7594
  172SAPE   C3719452   3.517   6.081   3.770  0.2527  0.3369 -0.7733
  172SAPE   H7X19453   3.538   5.972   3.768  0.5873  0.3879 -0.0644
  172SAPE   H7Y19454   3.406   6.095   3.775  0.3124  0.4907  0.2994
  172SAPE   C3819455   3.586   6.134   3.900 -0.2337 -0.7372  0.8483
  172SAPE   H8X19456   3.553   6.239   3.905  1.9442 -0.0515  4.1648
  172SAPE   H8Y19457   3.696   6.140   3.892 -0.1926 -0.9874  1.1885
  172SAPE   C3919458   3.541   6.062   4.030  0.3414  0.7909 -0.2938
  172SAPE   H9X19459   3.588   5.964   4.050 -1.3086  0.3998  2.0253
  172SAPE   H9Y19460   3.432   6.044   4.026  0.2897  1.1344 -0.5158
  172SAPE  C31019461   3.556   6.146   4.155 -0.4473 -0.5237  0.3235
  172SAPE  H10X19462   3.501   6.241   4.136 -0.0151 -0.4201 -0.4265
  172SAPE  H10Y19463   3.664   6.165   4.170 -0.0144 -1.1617 -1.6733
  172SAPE  C31119464   3.517   6.075   4.285  0.2820  0.2776  0.0187
  172SAPE  H11X19465   3.564   6.132   4.369  0.8526 -0.9760  0.5894
  172SAPE  H11Y19466   3.563   5.974   4.285  0.3934  0.3274  0.1745
  172SAPE  C31219467   3.368   6.063   4.312  0.3222  0.3518  0.7814
  172SAPE  H12X19468   3.334   6.002   4.225  1.8998 -1.3605  1.3022
  172SAPE  H12Y19469   3.296   6.147   4.304  1.2507  1.1933  1.1829
  172SAPE  C31319470   3.326   5.973   4.431  0.1719 -0.3384  0.1848
  172SAPE  H13X19471   3.352   5.870   4.399  0.6876 -0.7171  1.7146
  172SAPE  H13Y19472   3.216   5.988   4.438  0.0169 -1.2257 -0.2544
  172SAPE  C31419473   3.396   6.018   4.567  0.1597 -0.6283  0.6169
  172SAPE  H14X19474   3.363   6.125   4.567  0.5664 -0.4951  0.1202
  172SAPE  H14Y19475   3.504   5.993   4.560  0.9470  1.9486  2.1346
  172SAPE  C31519476   3.332   5.951   4.683 -0.4192 -0.1188  0.0648
  172SAPE  H15X19477   3.222   5.958   4.666 -0.2883  2.5043 -0.1274
  172SAPE  H15Y19478   3.361   6.008   4.774  0.2536  1.9312 -1.3549
  172SAPE  C31619479   3.363   5.804   4.704 -0.2778 -0.2002  0.7652
  172SAPE  H16X19480   3.378   5.754   4.606 -2.0617  3.2099 -1.4585
  172SAPE  H16Y19481   3.279   5.757   4.758 -1.2671  0.0141 -0.5595
  172SAPE  C31719482   3.498   5.776   4.785  0.2684  0.5033 -0.9141
  172SAPE  H17X19483   3.494   5.828   4.883  1.2387  0.3172 -0.7672
  172SAPE  H17Y19484   3.594   5.801   4.733  1.9715 -1.1659  1.2328
  172SAPE  C31819485   3.518   5.620   4.793  0.0756  0.2931 -1.0072
  172SAPE  H18X19486   3.432   5.577   4.847  1.8619 -1.4636  0.5569
  172SAPE  H18Y19487   3.619   5.589   4.826  0.4737  1.7148 -0.7898
  172SAPE  H18Z19488   3.501   5.571   4.695 -0.7395 -0.2548 -0.5953
  173SLPC     N19489   6.725   0.983   7.522 -0.9673 -0.1879 -0.8551
  173SLPC   C1319490   6.590   1.045   7.519  0.6540 -0.2403 -0.3277
  173SLPC  H13A19491   6.562   1.081   7.617  1.4344  0.4212 -0.3359
  173SLPC  H13B19492   6.598   1.135   7.459  2.4716  0.2566  0.5676
  173SLPC  H13C19493   6.524   0.985   7.459  0.7447 -0.0853 -0.5835
  173SLPC   C1419494   6.729   0.856   7.604  0.6856 -0.2758 -0.1084
  173SLPC  H14A19495   6.693   0.876   7.705  0.0987 -3.2896  0.3543
  173SLPC  H14B19496   6.656   0.786   7.567  1.3503 -0.9519 -0.1586
  173SLPC  H14C19497   6.821   0.800   7.610  0.2178 -1.0657 -0.1910
  173SLPC   C1519498   6.824   1.075   7.590 -0.1659 -0.8897  0.1821
  173SLPC  H15A19499   6.843   1.169   7.539 -1.1809 -0.5337  0.4308
  173SLPC  H15B19500   6.789   1.109   7.686  0.0014  0.9858 -0.3635
  173SLPC  H15C19501   6.920   1.026   7.599 -0.2587 -1.1373 -0.1742
  173SLPC   C1219502   6.781   0.952   7.384  0.4904 -0.9274  0.0024
  173SLPC  H12A19503   6.716   0.885   7.330  0.4560 -1.9053  1.1980
  173SLPC  H12B19504   6.870   0.892   7.389 -0.3472 -2.0964  2.1757
  173SLPC   C1119505   6.810   1.074   7.289  0.0703  1.1411 -0.0849
  173SLPC  H11A19506   6.847   1.030   7.193 -0.3637  2.7544 -1.0218
  173SLPC  H11B19507   6.894   1.135   7.327  1.2182  0.1062 -0.8773
  173SLPC     P19508   6.581   1.108   7.173 -0.0110  0.2195  0.1048
  173SLPC   O1319509   6.593   0.966   7.132 -0.2457 -0.7605  0.7341
  173SLPC   O1419510   6.446   1.143   7.231 -0.3160  0.3323  0.2418
  173SLPC   O1219511   6.700   1.158   7.266 -0.2658  0.5649 -0.0774
  173SLPC   O1119512   6.590   1.199   7.049  0.2825 -0.5520 -0.2211
  173SLPC    C119513   6.707   1.263   7.001  0.0322 -0.8261  0.0939
  173SLPC    HA19514   6.730   1.349   7.067  0.5735 -1.1529  0.3377
  173SLPC    HB19515   6.798   1.200   7.012  1.8475  1.2591 -1.8561
  173SLPC    C219516   6.696   1.294   6.849 -0.3758 -0.7035  0.4028
  173SLPC    HS19517   6.610   1.364   6.838  0.1063 -0.0691  0.5824
  173SLPC   O2119518   6.686   1.185   6.765 -0.7079  0.2158 -0.0596
  173SLPC   C2119519   6.616   1.184   6.649 -0.2792 -0.2654  0.6635
  173SLPC   O2219520   6.551   1.273   6.604 -0.6179 -0.2497  0.2799
  173SLPC   C2219521   6.674   1.067   6.566 -0.3573 -0.1247  0.5971
  173SLPC   H2R19522   6.758   1.106   6.505 -1.6212  0.4961 -0.8190
  173SLPC   H2S19523   6.704   0.986   6.637 -1.5132  0.6859  2.0770
  173SLPC    C319524   6.828   1.375   6.803 -0.6477  0.0877  0.1377
  173SLPC    HX19525   6.911   1.323   6.857 -0.5474 -0.3706 -0.4568
  173SLPC    HY19526   6.824   1.479   6.843 -1.8565 -0.3391  1.1981
  173SLPC   O3119527   6.852   1.363   6.659  0.3966  0.0487  0.2746
  173SLPC   C3119528   6.843   1.467   6.583  0.0954 -0.1760 -0.6753
  173SLPC   O3219529   6.851   1.582   6.627  0.0100  0.1273 -0.0485
  173SLPC   C3219530   6.815   1.420   6.439 -0.8861 -0.0014 -0.5489
  173SLPC   H2X19531   6.720   1.363   6.441  0.3939 -2.2883 -1.1562
  173SLPC   H2Y19532   6.889   1.345   6.402  1.2126  1.5877  0.2333
  173SLPC   C2319533   6.570   1.006   6.468 -0.0958 -0.5990 -0.0665
  173SLPC   H3R19534   6.475   1.003   6.525  0.6375  1.0585  1.3551
  173SLPC   H3S19535   6.595   0.902   6.439  0.5427 -0.4053 -0.2433
  173SLPC   C2419536   6.543   1.102   6.350  0.1045 -0.0893  0.1274
  173SLPC   H4R19537   6.621   1.095   6.272 -0.4425  0.0308 -0.4371
  173SLPC   H4S19538   6.535   1.207   6.387  0.4999 -0.5908  1.7082
  173SLPC   C2519539   6.414   1.058   6.277  0.1362  0.2799 -0.7027
  173SLPC   H5R19540   6.333   1.044   6.351 -1.2142  0.3112 -2.1386
  173SLPC   H5S19541   6.424   0.959   6.226 -2.2194  0.1225 -0.9435
  173SLPC   C2619542   6.369   1.168   6.178  0.5727 -0.2350 -0.2119
  173SLPC   H6R19543   6.441   1.174   6.093  0.6004  1.0053 -0.1106
  173SLPC   H6S19544   6.354   1.270   6.217  0.3116 -0.3702  0.0463
  173SLPC   C2719545   6.242   1.125   6.108  0.0132  0.4472 -0.0227
  173SLPC   H7R19546   6.258   1.020   6.075  1.1104 -0.1619  2.2822
  173SLPC   H7S19547   6.232   1.201   6.027  3.9333  3.0499  1.6646
  173SLPC   C2819548   6.119   1.120   6.199  0.2009  0.0218  0.1775
  173SLPC   H8R19549   6.120   1.218   6.251  0.0524  0.8921 -1.3869
  173SLPC   H8S19550   6.144   1.040   6.272 -1.8293 -0.8452 -0.0020
  173SLPC   C2919551   5.997   1.094   6.112  0.3150 -0.3323 -0.7225
  173SLPC   H9R19552   6.017   1.011   6.041 -3.7987 -0.3573 -2.0916
  173SLPC  C21019553   5.885   1.169   6.106  0.5268  0.5417  0.5301
  173SLPC  H10R19554   5.804   1.140   6.037  0.3969  1.0997  0.4400
  173SLPC  C21119555   5.846   1.268   6.211 -0.2501 -0.2624 -0.4467
  173SLPC  H11R19556   5.910   1.358   6.199 -0.6180  0.2430  1.0912
  173SLPC  H11S19557   5.880   1.231   6.310  0.0455 -1.5268 -1.0079
  173SLPC  C21219558   5.700   1.311   6.227 -0.1566  0.2528  0.8425
  173SLPC  H12R19559   5.660   1.291   6.327 -1.2443 -0.4048  0.2949
  173SLPC  C21319560   5.620   1.386   6.140  0.0611 -0.3168  0.8035
  173SLPC  H13R19561   5.518   1.415   6.169 -0.6117 -2.9255  1.2263
  173SLPC  C21419562   5.661   1.427   6.002 -0.1945  0.5117 -0.6538
  173SLPC  H14R19563   5.609   1.361   5.928 -0.1487 -1.3644  0.9119
  173SLPC  H14S19564   5.771   1.421   5.992  0.1801  3.7107  0.5736
  173SLPC  C21519565   5.607   1.565   5.953 -0.4849  0.0070  0.4584
  173SLPC  H15R19566   5.655   1.597   5.858 -0.1292 -0.3302  0.5248
  173SLPC  H15S19567   5.640   1.634   6.034 -0.3986 -1.0720  1.3586
  173SLPC  C21619568   5.452   1.575   5.945  0.0124 -0.8991  0.3962
  173SLPC  H16R19569   5.429   1.683   5.927  1.8762 -0.5352  0.0568
  173SLPC  H16S19570   5.417   1.547   6.046  1.8379 -2.7368  0.5765
  173SLPC  C21719571   5.387   1.507   5.824  0.3462 -0.0907  0.4317
  173SLPC  H17R19572   5.278   1.525   5.829  0.2668 -0.7725  1.8957
  173SLPC  H17S19573   5.408   1.398   5.829 -1.7825 -0.5143  1.0997
  173SLPC  C21819574   5.425   1.548   5.683  0.5537 -1.0180 -0.4441
  173SLPC  H18R19575   5.531   1.519   5.671  0.6248 -1.0722  0.3169
  173SLPC  H18S19576   5.406   1.658   5.677 -2.3701 -1.2087  2.3831
  173SLPC  H18T19577   5.363   1.489   5.612  0.0224 -1.3603  0.3010
  173SLPC   C3319578   6.816   1.535   6.334  0.3009  0.1766 -0.4113
  173SLPC   H3X19579   6.900   1.607   6.347 -1.6361  2.8509 -1.9440
  173SLPC   H3Y19580   6.722   1.594   6.335  1.1050  1.5300  1.4281
  173SLPC   C3419581   6.848   1.472   6.198 -0.8240  0.1710 -0.3475
  173SLPC   H4X19582   6.944   1.418   6.211 -1.3103 -0.6851 -0.2044
  173SLPC   H4Y19583   6.866   1.547   6.119 -1.2219 -1.4776 -2.0677
  173SLPC   C3519584   6.727   1.390   6.149 -0.6124 -1.2844 -0.6247
  173SLPC   H5X19585   6.635   1.432   6.194  1.3345  4.9511 -1.5354
  173SLPC   H5Y19586   6.755   1.287   6.181 -1.1567 -1.0669  0.6035
  173SLPC   C3619587   6.711   1.405   5.994  0.9914 -0.0140  0.1770
  173SLPC   H6X19588   6.805   1.384   5.938 -1.1702 -1.5575 -3.1756
  173SLPC   H6Y19589   6.656   1.499   5.972 -0.5590 -0.3206  2.4579
  173SLPC   C3719590   6.616   1.302   5.928 -0.4936 -0.5786 -0.3781
  173SLPC   H7X19591   6.517   1.321   5.975 -1.2133 -1.8446 -1.3245
  173SLPC   H7Y19592   6.658   1.201   5.949 -2.5399 -1.3861  0.0754
  173SLPC   C3819593   6.616   1.321   5.785  0.1249 -0.5126 -0.0912
  173SLPC   H8X19594   6.565   1.228   5.753  0.2601 -0.5143 -0.3036
  173SLPC   H8Y19595   6.714   1.310   5.735 -0.3908  0.3076 -1.3266
  173SLPC   C3919596   6.530   1.438   5.742 -0.7271 -0.0168 -0.4618
  173SLPC   H9X19597   6.581   1.535   5.760  2.2743 -1.3284 -1.3396
  173SLPC   H9Y19598   6.436   1.437   5.802  0.2223 -0.1614  1.0701
  173SLPC  C31019599   6.476   1.429   5.596  0.5872  0.2754  0.1047
  173SLPC  H10X19600   6.552   1.441   5.515  0.7412  0.7936  0.3200
  173SLPC  H10Y19601   6.416   1.522   5.587  0.3944  0.1032 -0.4089
  173SLPC  C31119602   6.400   1.310   5.561 -0.1600  0.5635 -0.6390
  173SLPC  H11X19603   6.337   1.285   5.649 -0.7258 -1.5058 -1.5532
  173SLPC  H11Y19604   6.469   1.225   5.541 -0.3668 -0.5274  2.5703
  173SLPC  C31219605   6.306   1.319   5.440 -0.2840  0.0414  0.2398
  173SLPC  H12X19606   6.240   1.405   5.466 -0.9803 -0.4462  0.1188
  173SLPC  H12Y19607   6.242   1.229   5.428  0.6533 -0.7446  0.9771
  173SLPC  C31319608   6.367   1.360   5.307  1.1243 -0.6305 -0.5172
  173SLPC  H13X19609   6.463   1.304   5.312  0.7371 -1.3194 -0.7381
  173SLPC  H13Y19610   6.405   1.465   5.311  1.6215 -0.8103 -0.4140
  173SLPC  C31419611   6.279   1.341   5.185 -0.0600  0.3456  0.2914
  173SLPC  H14X19612   6.179   1.380   5.212 -1.0799 -0.4847 -2.0382
  173SLPC  H14Y19613   6.271   1.233   5.160 -1.4273  0.1751  1.3259
  173SLPC  C31519614   6.341   1.420   5.067 -0.4712  0.2163 -0.2154
  173SLPC  H15X19615   6.441   1.373   5.081 -1.1408 -0.8480  1.2561
  173SLPC  H15Y19616   6.344   1.529   5.085  0.0237  0.4776 -1.7771
  173SLPC  C31619617   6.279   1.405   4.929 -0.5826  0.5800  0.3527
  173SLPC  H16X19618   6.279   1.299   4.895 -0.9993  0.8397 -0.4781
  173SLPC  H16Y19619   6.327   1.471   4.853 -2.2359  0.1993 -1.0679
  173SLPC  C31719620   6.125   1.440   4.922 -0.8967  0.2636 -1.0778
  173SLPC  H17X19621   6.115   1.548   4.943 -1.4838  0.2842 -1.4339
  173SLPC  H17Y19622   6.087   1.375   5.004  1.9320  0.5803  0.5796
  173SLPC  C31819623   6.066   1.414   4.786 -1.2090  0.0024  0.5734
  173SLPC  H18X19624   6.106   1.492   4.717  0.4826 -0.8251  0.5690
  173SLPC  H18Y19625   5.956   1.431   4.789 -1.0927  0.7001  2.5436
  173SLPC  H18Z19626   6.090   1.317   4.737  0.4128  0.9863 -0.7166
  174SLPC     N19627   3.335   2.415   7.556 -0.3549 -0.1498 -0.1028
  174SLPC   C1319628   3.364   2.301   7.648  0.1565 -0.3656 -0.0804
  174SLPC  H13A19629   3.471   2.293   7.665  0.1116  1.7581  1.6872
  174SLPC  H13B19630   3.327   2.319   7.748 -1.5917 -1.3823 -0.5160
  174SLPC  H13C19631   3.319   2.210   7.610 -0.4053  0.6845 -2.0737
  174SLPC   C1419632   3.400   2.532   7.610 -0.1820  0.2216 -0.1186
  174SLPC  H14A19633   3.507   2.525   7.598  0.2426  1.6954  2.1638
  174SLPC  H14B19634   3.374   2.627   7.565  1.8253  1.1897  0.6350
  174SLPC  H14C19635   3.391   2.539   7.717  1.0504  0.7913 -0.0331
  174SLPC   C1519636   3.186   2.439   7.553  0.0791  0.3611 -0.1254
  174SLPC  H15A19637   3.160   2.482   7.458 -2.1156 -1.6804 -0.5162
  174SLPC  H15B19638   3.136   2.344   7.556  0.8518 -0.0506  0.2466
  174SLPC  H15C19639   3.154   2.500   7.637 -1.6020  0.0834 -0.5446
  174SLPC   C1219640   3.387   2.384   7.410  0.4611 -0.4344 -0.0730
  174SLPC  H12A19641   3.336   2.446   7.337  1.4402 -0.7259 -1.0255
  174SLPC  H12B19642   3.328   2.296   7.390  0.3445 -0.5048  0.5495
  174SLPC   C1119643   3.540   2.361   7.385  0.9519 -0.2677 -0.1996
  174SLPC  H11A19644   3.578   2.268   7.434 -2.2722 -2.1830 -1.0824
  174SLPC  H11B19645   3.602   2.448   7.415 -0.2516  0.7389 -0.5598
  174SLPC     P19646   3.549   2.480   7.150 -0.0008  0.0516 -0.3969
  174SLPC   O1319647   3.439   2.572   7.192  0.1115 -0.5515 -0.1923
  174SLPC   O1419648   3.684   2.544   7.166  0.0461  0.5091  0.0713
  174SLPC   O1219649   3.550   2.350   7.244  0.2136 -0.4657  0.0577
  174SLPC   O1119650   3.532   2.415   7.005 -0.3972  0.0895  0.0909
  174SLPC    C119651   3.402   2.355   6.971 -0.6874  0.0432 -0.5998
  174SLPC    HA19652   3.317   2.369   7.042 -2.8756  0.1038 -3.0865
  174SLPC    HB19653   3.374   2.413   6.881 -1.2814 -1.8474 -1.6805
  174SLPC    C219654   3.419   2.212   6.916  0.4911  0.0584  0.1369
  174SLPC    HS19655   3.451   2.149   7.002  0.1760 -0.4743 -0.1333
  174SLPC   O2119656   3.525   2.206   6.817  0.1552 -0.3040  0.0531
  174SLPC   C2119657   3.570   2.083   6.780 -0.6571 -0.1482  0.5394
  174SLPC   O2219658   3.533   1.980   6.831 -0.4962 -0.1337  0.4483
  174SLPC   C2219659   3.660   2.095   6.649  0.7410 -0.0623 -0.4515
  174SLPC   H2R19660   3.618   2.166   6.575 -0.5368  0.3552  0.6223
  174SLPC   H2S19661   3.757   2.135   6.684  1.4023 -2.3622  0.5622
  174SLPC    C319662   3.287   2.161   6.861 -0.3551 -0.5652 -0.2215
  174SLPC    HX19663   3.223   2.150   6.950 -0.3830 -2.6628 -0.4616
  174SLPC    HY19664   3.299   2.065   6.807  1.5165  0.3772 -1.6032
  174SLPC   O3119665   3.229   2.257   6.763  0.3388  0.1492  0.0255
  174SLPC   C3119666   3.097   2.279   6.768  0.2708 -0.2151  0.5019
  174SLPC   O3219667   3.024   2.232   6.851 -0.2919 -0.2114  0.1644
  174SLPC   C3219668   3.059   2.361   6.656  0.5083 -0.6842 -0.0526
  174SLPC   H2X19669   3.127   2.450   6.662 -1.2493  0.6611  0.8555
  174SLPC   H2Y19670   2.958   2.400   6.678  0.9890  0.0061  1.0362
  174SLPC   C2319671   3.710   1.963   6.581  0.4924  0.0457  0.3875
  174SLPC   H3R19672   3.710   1.887   6.662 -2.1966 -2.1095 -1.4409
  174SLPC   H3S19673   3.816   1.981   6.553  0.0783  1.0489 -0.6131
  174SLPC   C2419674   3.618   1.910   6.463 -0.2867  0.1319 -0.1865
  174SLPC   H4R19675   3.513   1.939   6.484 -0.0134  1.0044  0.0068
  174SLPC   H4S19676   3.621   1.799   6.455  0.2476  0.0345  1.1752
  174SLPC   C2519677   3.664   1.976   6.335 -0.2609 -0.9286 -0.0363
  174SLPC   H5R19678   3.766   1.939   6.312 -0.8198 -0.8727 -2.9296
  174SLPC   H5S19679   3.669   2.086   6.338  2.1432 -0.9541 -1.3321
  174SLPC   C2619680   3.576   1.936   6.211 -0.2266 -0.1403 -0.5311
  174SLPC   H6R19681   3.469   1.940   6.240 -0.1029 -0.4613 -0.0083
  174SLPC   H6S19682   3.591   1.828   6.190  0.1557 -0.3393  0.6689
  174SLPC   C2719683   3.612   2.016   6.088  0.4572  0.3264  0.5413
  174SLPC   H7R19684   3.719   2.039   6.106  0.3983 -0.9880  2.9446
  174SLPC   H7S19685   3.560   2.115   6.084 -0.5048 -0.2087 -1.3541
  174SLPC   C2819686   3.589   1.933   5.959 -0.2980 -0.6191  0.4249
  174SLPC   H8R19687   3.647   1.838   5.968 -0.2544 -1.1374 -3.5649
  174SLPC   H8S19688   3.648   1.991   5.884 -2.4916  1.1000 -0.0669
  174SLPC   C2919689   3.450   1.917   5.908  0.5353  0.1972  0.1054
  174SLPC   H9R19690   3.384   1.914   5.996  2.9390  1.0846  2.0571
  174SLPC  C21019691   3.412   1.927   5.777 -0.1941 -0.0052 -0.1318
  174SLPC  H10R19692   3.309   1.901   5.749 -0.1851 -0.2938  0.0988
  174SLPC  C21119693   3.502   1.952   5.657 -0.3584  0.6446  0.4376
  174SLPC  H11R19694   3.447   1.909   5.571 -0.1699  2.8757 -0.8945
  174SLPC  H11S19695   3.598   1.895   5.662 -0.0474  0.8934 -1.5421
  174SLPC  C21219696   3.535   2.098   5.635  0.1355 -0.2766  0.6245
  174SLPC  H12R19697   3.536   2.155   5.729 -0.8271 -1.2362  1.2320
  174SLPC  C21319698   3.562   2.172   5.528  0.2372 -0.2078  0.8918
  174SLPC  H13R19699   3.569   2.281   5.541 -0.1271 -0.1632  0.7228
  174SLPC  C21419700   3.562   2.132   5.383  0.3497  0.0263  0.3679
  174SLPC  H14R19701   3.554   2.022   5.368  1.6560 -0.1993  1.1298
  174SLPC  H14S19702   3.666   2.142   5.347 -0.0766 -1.1301 -1.2862
  174SLPC  C21519703   3.467   2.213   5.301  0.0057  0.3035  0.6057
  174SLPC  H15R19704   3.486   2.323   5.310  1.3585  0.0491  1.0028
  174SLPC  H15S19705   3.366   2.181   5.336  0.4031 -1.3630  0.2870
  174SLPC  C21619706   3.497   2.179   5.154 -0.5204 -0.1301  0.4523
  174SLPC  H16R19707   3.469   2.077   5.119 -1.8041  0.7657 -1.2701
  174SLPC  H16S19708   3.607   2.195   5.143 -0.6243  0.1237 -0.2453
  174SLPC  C21719709   3.436   2.278   5.049 -0.4602  0.4118  0.8389
  174SLPC  H17R19710   3.468   2.243   4.949 -1.9305 -1.1672  0.8661
  174SLPC  H17S19711   3.475   2.380   5.067  1.9745 -0.2977 -0.0210
  174SLPC  C21819712   3.280   2.280   5.050  0.4756  0.1182 -0.2105
  174SLPC  H18R19713   3.236   2.258   5.150  0.8660 -1.2377 -0.3188
  174SLPC  H18S19714   3.230   2.206   4.984 -0.1974  1.1514 -0.8864
  174SLPC  H18T19715   3.251   2.383   5.020 -4.3902 -0.8582  0.3451
  174SLPC   C3319716   3.060   2.284   6.519  0.9274 -0.3746  0.5374
  174SLPC   H3X19717   2.981   2.206   6.514  0.0236  0.5479 -0.9019
  174SLPC   H3Y19718   3.157   2.238   6.494  1.4693  1.1065 -0.2120
  174SLPC   C3419719   3.029   2.373   6.399  0.4510 -0.1043  0.0069
  174SLPC   H4X19720   3.084   2.470   6.397 -0.0437  0.1672 -0.7398
  174SLPC   H4Y19721   2.921   2.401   6.402 -0.1261 -2.1773  0.2812
  174SLPC   C3519722   3.036   2.299   6.267  0.0162 -0.0842 -0.2998
  174SLPC   H5X19723   2.982   2.204   6.288  1.2509 -0.2358  2.6196
  174SLPC   H5Y19724   3.141   2.270   6.244 -0.2784 -1.9749  0.5632
  174SLPC   C3619725   2.984   2.379   6.148  0.1073 -0.2595 -0.1109
  174SLPC   H6X19726   3.059   2.460   6.137 -0.1542 -0.3285 -3.0036
  174SLPC   H6Y19727   2.886   2.418   6.183 -1.4953 -3.6443 -0.3912
  174SLPC   C3719728   2.960   2.297   6.026 -0.0216  0.0388  0.8033
  174SLPC   H7X19729   2.890   2.217   6.057 -1.0719  1.2635  1.6777
  174SLPC   H7Y19730   3.048   2.235   5.996 -0.8452 -1.4274  1.3068
  174SLPC   C3819731   2.906   2.369   5.899  0.4240  0.6522  0.9678
  174SLPC   H8X19732   2.940   2.475   5.897  2.5698  0.0015 -1.3362
  174SLPC   H8Y19733   2.796   2.378   5.916  0.1188  1.1306 -1.0022
  174SLPC   C3919734   2.925   2.291   5.767 -0.3095  0.3369 -0.3242
  174SLPC   H9X19735   2.842   2.304   5.694 -0.7592 -0.2570  0.0691
  174SLPC   H9Y19736   2.930   2.184   5.794  3.5150 -0.7872 -4.3172
  174SLPC  C31019737   3.067   2.332   5.718 -0.2119  0.6256  0.3559
  174SLPC  H10X19738   3.149   2.330   5.793  0.5564 -2.4907 -0.4258
  174SLPC  H10Y19739   3.060   2.439   5.688  2.4361  0.4364 -1.2427
  174SLPC  C31119740   3.111   2.254   5.599 -0.1041  0.8917  0.1636
  174SLPC  H11X19741   3.093   2.145   5.616 -0.0474  0.9802  0.8317
  174SLPC  H11Y19742   3.221   2.261   5.584  0.2227  0.9428  2.2832
  174SLPC  C31219743   3.047   2.287   5.465 -0.9335  0.3515  0.4723
  174SLPC  H12X19744   2.938   2.302   5.481 -0.7309 -1.0335  3.8200
  174SLPC  H12Y19745   3.061   2.191   5.410  1.3421  0.0522  1.4407
  174SLPC  C31319746   3.125   2.397   5.388  0.5116  0.5248  0.7659
  174SLPC  H13X19747   3.076   2.409   5.289  1.7121  0.9327  0.2035
  174SLPC  H13Y19748   3.224   2.351   5.372 -0.2093 -0.3108 -1.6985
  174SLPC  C31419749   3.131   2.539   5.450 -0.4431  0.2734 -0.3481
  174SLPC  H14X19750   3.191   2.541   5.544  0.2850  0.5113 -0.8153
  174SLPC  H14Y19751   3.027   2.576   5.463 -0.6805 -0.1594 -0.9994
  174SLPC  C31519752   3.207   2.632   5.354 -0.0717  0.6311 -0.3762
  174SLPC  H15X19753   3.297   2.575   5.323 -0.5229 -0.1687 -0.2532
  174SLPC  H15Y19754   3.254   2.714   5.413  0.9537  0.1397 -0.4844
  174SLPC  C31619755   3.130   2.696   5.246 -0.1669  0.4189 -0.1955
  174SLPC  H16X19756   3.054   2.769   5.281  0.1633  1.3949 -1.4326
  174SLPC  H16Y19757   3.077   2.610   5.199  1.1369 -0.7074  0.3477
  174SLPC  C31719758   3.223   2.754   5.138 -0.0862 -0.3075 -0.0904
  174SLPC  H17X19759   3.286   2.673   5.096 -0.9664 -0.9767 -0.1562
  174SLPC  H17Y19760   3.292   2.828   5.183 -1.4905  1.2463 -0.4248
  174SLPC  C31819761   3.153   2.814   5.016  0.6298  0.2303 -0.0027
  174SLPC  H18X19762   3.078   2.739   4.982 -1.3131  1.8711  0.4829
  174SLPC  H18Y19763   3.213   2.834   4.925  1.0243 -1.4754 -0.1573
  174SLPC  H18Z19764   3.106   2.908   5.051  1.5665 -0.0428  2.1048
  175SLPC     N19765   4.721   1.819   7.401 -0.1927 -0.2737  0.3177
  175SLPC   C1319766   4.801   1.815   7.527 -0.9496  0.0494  0.0342
  175SLPC  H13A19767   4.741   1.776   7.607 -1.8992 -0.9409 -1.1132
  175SLPC  H13B19768   4.889   1.754   7.509 -3.1066 -3.4414  0.2654
  175SLPC  H13C19769   4.841   1.912   7.554  0.0305 -0.8598  2.0981
  175SLPC   C1419770   4.807   1.869   7.289 -0.3527 -0.7949 -0.3385
  175SLPC  H14A19771   4.761   1.907   7.199  2.4477  1.9295 -0.8338
  175SLPC  H14B19772   4.867   1.953   7.324 -0.3590 -1.5085  1.5226
  175SLPC  H14C19773   4.867   1.787   7.253 -2.4321 -2.6367  0.2021
  175SLPC   C1519774   4.613   1.926   7.427 -0.1594  0.1983  0.3359
  175SLPC  H15A19775   4.534   1.912   7.355 -1.3830 -1.2260  1.8681
  175SLPC  H15B19776   4.563   1.908   7.521  1.6143 -0.0224  1.2867
  175SLPC  H15C19777   4.659   2.023   7.428 -0.1379  0.1917  1.4310
  175SLPC   C1219778   4.651   1.692   7.363  0.8077  0.2615 -0.1837
  175SLPC  H12A19779   4.599   1.700   7.269 -0.5549  0.7115  0.5797
  175SLPC  H12B19780   4.575   1.664   7.434 -0.2197  3.3816  0.0962
  175SLPC   C1119781   4.747   1.572   7.340  0.1020 -0.1270  0.1929
  175SLPC  H11A19782   4.704   1.474   7.373  2.1089 -0.2450  2.7804
  175SLPC  H11B19783   4.836   1.588   7.405  0.8577  0.5409 -0.9844
  175SLPC     P19784   4.908   1.485   7.164 -0.0159  0.1644 -0.0490
  175SLPC   O1319785   5.022   1.496   7.264 -0.3877  0.7667 -0.7024
  175SLPC   O1419786   4.848   1.353   7.149  0.2633  0.5708 -0.6440
  175SLPC   O1219787   4.785   1.573   7.204 -0.6633  0.3720 -0.1286
  175SLPC   O1119788   4.949   1.534   7.023  0.2070  0.4327  0.1274
  175SLPC    C119789   4.846   1.564   6.930  0.3168  0.8634  0.2398
  175SLPC    HA19790   4.750   1.589   6.980  1.1326  2.9048  0.8871
  175SLPC    HB19791   4.878   1.660   6.884  0.3038  0.9315  0.3730
  175SLPC    C219792   4.849   1.460   6.815 -0.8882 -0.0233  0.6399
  175SLPC    HS19793   4.782   1.498   6.735  1.3292 -0.4438 -1.5723
  175SLPC   O2119794   4.801   1.323   6.857  0.3307 -0.7350 -0.4305
  175SLPC   C2119795   4.660   1.333   6.874 -0.6504  0.0309 -0.1721
  175SLPC   O2219796   4.592   1.431   6.853 -0.1317 -0.4373 -0.5521
  175SLPC   C2219797   4.609   1.190   6.896  0.4033 -0.3083 -0.0415
  175SLPC   H2R19798   4.695   1.130   6.859  1.2682  1.7159 -1.5522
  175SLPC   H2S19799   4.605   1.169   7.004  1.0520 -1.6789 -0.2674
  175SLPC    C319800   4.991   1.446   6.745 -0.1134  0.0173 -0.3553
  175SLPC    HX19801   4.986   1.371   6.663 -0.6526  0.5119 -0.7843
  175SLPC    HY19802   5.047   1.406   6.832 -0.5714  0.9503  0.3859
  175SLPC   O3119803   5.071   1.565   6.714  0.6063 -0.1139  0.6702
  175SLPC   C3119804   5.045   1.617   6.600  0.4158  0.5203  0.0077
  175SLPC   O3219805   4.966   1.569   6.517  0.1880  0.3239  0.3836
  175SLPC   C3219806   5.130   1.743   6.585 -0.4101  0.4841 -0.4251
  175SLPC   H2X19807   5.234   1.716   6.614 -0.4810  0.1549 -0.4831
  175SLPC   H2Y19808   5.100   1.817   6.663  2.0188  2.0933 -0.9199
  175SLPC   C2319809   4.483   1.147   6.815 -0.0779  0.0558  0.2988
  175SLPC   H3R19810   4.399   1.219   6.817  1.2879  1.8052 -1.3537
  175SLPC   H3S19811   4.432   1.067   6.873 -0.6919 -0.4556 -0.9048
  175SLPC   C2419812   4.510   1.112   6.667 -0.5916  0.4371  0.2029
  175SLPC   H4R19813   4.564   1.015   6.664  0.2842  0.9114  0.3786
  175SLPC   H4S19814   4.579   1.191   6.632 -1.0644  0.5286 -0.5478
  175SLPC   C2519815   4.376   1.095   6.581  0.3395 -0.2366 -0.3773
  175SLPC   H5R19816   4.311   1.184   6.591  0.9587  0.0736  1.1202
  175SLPC   H5S19817   4.318   1.016   6.633  1.4430  0.0653  1.4113
  175SLPC   C2619818   4.388   1.067   6.432  0.2826 -0.9669 -0.1282
  175SLPC   H6R19819   4.298   1.116   6.389 -0.0117  1.2260  2.6605
  175SLPC   H6S19820   4.384   0.961   6.398  0.4839 -0.8210 -0.6136
  175SLPC   C2719821   4.505   1.144   6.369  0.1349 -0.2827  0.1684
  175SLPC   H7R19822   4.604   1.120   6.414  0.6433 -0.8385 -1.2000
  175SLPC   H7S19823   4.497   1.255   6.376  1.9059 -0.2135  3.2753
  175SLPC   C2819824   4.523   1.105   6.219  0.1993  0.1200  0.2897
  175SLPC   H8R19825   4.428   1.120   6.164  0.2036 -0.2991  0.1613
  175SLPC   H8S19826   4.521   0.994   6.210  0.0277  0.2179 -1.2927
  175SLPC   C2919827   4.641   1.165   6.161  0.2233 -0.3489  0.6314
  175SLPC   H9R19828   4.704   1.220   6.232 -1.0710 -0.2956  1.7843
  175SLPC  C21019829   4.677   1.143   6.035  0.4905  0.2075  0.2358
  175SLPC  H10R19830   4.770   1.180   5.990 -0.6790 -0.4047 -2.9900
  175SLPC  C21119831   4.598   1.074   5.924 -0.3517 -0.6030 -0.2985
  175SLPC  H11R19832   4.575   1.154   5.851  1.4396  0.6830  0.4691
  175SLPC  H11S19833   4.501   1.037   5.962 -0.2300  0.6853  1.3600
  175SLPC  C21219834   4.676   0.968   5.857  0.2449  0.1263  0.2508
  175SLPC  H12R19835   4.666   0.875   5.914 -0.1145  0.5255  0.8544
  175SLPC  C21319836   4.756   0.971   5.752 -0.4267  0.4644 -0.6845
  175SLPC  H13R19837   4.791   0.874   5.714  0.5546  0.5209  0.0404
  175SLPC  C21419838   4.775   1.081   5.655 -0.3226 -0.3425 -0.1777
  175SLPC  H14R19839   4.882   1.089   5.626 -0.5561  1.3077 -0.6571
  175SLPC  H14S19840   4.750   1.177   5.705 -0.5228 -0.4856  0.0029
  175SLPC  C21519841   4.674   1.075   5.542  0.3786  0.6638  0.6018
  175SLPC  H15R19842   4.569   1.107   5.559 -0.0780 -0.2672 -0.3605
  175SLPC  H15S19843   4.662   0.970   5.510 -1.2065  1.1801 -0.6507
  175SLPC  C21619844   4.735   1.148   5.422 -0.0437 -0.2614  0.0199
  175SLPC  H16R19845   4.845   1.131   5.421 -0.0154 -0.2674  1.6390
  175SLPC  H16S19846   4.742   1.255   5.452  1.3051 -0.4283  0.3755
  175SLPC  C21719847   4.678   1.106   5.285  0.4780 -0.3746  0.9303
  175SLPC  H17R19848   4.692   0.999   5.259 -0.0843 -0.0845 -0.6502
  175SLPC  H17S19849   4.738   1.155   5.206 -1.3739 -0.3881 -0.5596
  175SLPC  C21819850   4.529   1.144   5.270  0.1861  0.1394  0.4773
  175SLPC  H18R19851   4.526   1.254   5.286 -0.6525  0.2620 -0.4769
  175SLPC  H18S19852   4.474   1.110   5.360  1.8341 -0.0621  1.4651
  175SLPC  H18T19853   4.478   1.128   5.173  3.8689  0.2956 -1.6728
  175SLPC   C3319854   5.129   1.815   6.445  0.0200  0.2714 -0.0880
  175SLPC   H3X19855   5.199   1.901   6.436  0.2565  0.0161 -0.7214
  175SLPC   H3Y19856   5.024   1.841   6.420  0.7496  1.1647 -2.5206
  175SLPC   C3419857   5.172   1.722   6.332  1.0413 -0.1055 -0.6430
  175SLPC   H4X19858   5.130   1.624   6.363 -1.3825  1.2593  0.7767
  175SLPC   H4Y19859   5.281   1.720   6.312  1.2853  1.2362  0.4006
  175SLPC   C3519860   5.083   1.753   6.214  0.3492 -0.9010 -0.0899
  175SLPC   H5X19861   5.101   1.858   6.181 -0.4982 -0.2112  1.5214
  175SLPC   H5Y19862   4.974   1.740   6.236  0.6849  0.1102  2.4807
  175SLPC   C3619863   5.109   1.663   6.091 -0.0669 -0.4148 -0.2571
  175SLPC   H6X19864   5.056   1.566   6.104 -0.6055 -0.0756  0.1615
  175SLPC   H6Y19865   5.214   1.628   6.091 -0.1355 -0.7982  1.8680
  175SLPC   C3719866   5.073   1.726   5.955  0.4049  0.7216 -0.8471
  175SLPC   H7X19867   4.967   1.756   5.947  0.4129  0.8058 -0.6497
  175SLPC   H7Y19868   5.093   1.636   5.893 -0.1423  0.3801 -0.5352
  175SLPC   C3819869   5.147   1.852   5.913 -0.4138 -1.3298  0.2249
  175SLPC   H8X19870   5.255   1.852   5.940 -0.4882  1.0744  0.7107
  175SLPC   H8Y19871   5.097   1.937   5.964 -0.1304  0.3007 -2.0657
  175SLPC   C3919872   5.141   1.869   5.759 -0.5323 -0.6969 -0.2433
  175SLPC   H9X19873   5.216   1.794   5.725 -1.9208 -1.6654 -1.2989
  175SLPC   H9Y19874   5.193   1.965   5.737 -0.6892 -0.4016  0.6384
  175SLPC  C31019875   4.996   1.865   5.693 -0.1811  0.3044  0.4330
  175SLPC  H10X19876   4.942   1.953   5.734 -0.0265  1.3504 -1.4517
  175SLPC  H10Y19877   4.949   1.766   5.710  3.4321 -1.4959  0.8561
  175SLPC  C31119878   4.999   1.880   5.536 -0.1267  0.1856  0.7042
  175SLPC  H11X19879   5.057   1.971   5.510  1.3559 -1.0835 -0.6893
  175SLPC  H11Y19880   4.898   1.887   5.490  0.5444 -2.0250 -1.3341
  175SLPC  C31219881   5.080   1.769   5.462 -0.2550  0.5650  0.2875
  175SLPC  H12X19882   5.187   1.788   5.487 -0.8741  1.8678  2.0887
  175SLPC  H12Y19883   5.087   1.782   5.352  5.0803 -1.4757  0.0713
  175SLPC  C31319884   5.047   1.619   5.497  0.3130  0.0976  0.2310
  175SLPC  H13X19885   4.936   1.615   5.492  0.3601 -1.4411 -0.1278
  175SLPC  H13Y19886   5.084   1.584   5.596  0.2917 -2.4370 -0.5871
  175SLPC  C31419887   5.107   1.521   5.395  0.7797  0.2640 -0.7130
  175SLPC  H14X19888   5.210   1.497   5.428  0.1815  0.4196  1.4597
  175SLPC  H14Y19889   5.105   1.561   5.291 -1.4603 -0.9904 -1.2289
  175SLPC  C31519890   5.025   1.392   5.392  0.1096  0.2815 -0.6143
  175SLPC  H15X19891   4.917   1.417   5.399 -0.0979 -0.4892 -0.9570
  175SLPC  H15Y19892   5.044   1.329   5.482 -1.9161  0.3059 -0.1278
  175SLPC  C31619893   5.053   1.307   5.269 -0.3142  1.0860 -0.3507
  175SLPC  H16X19894   5.044   1.382   5.187 -2.2104 -0.0999 -1.2965
  175SLPC  H16Y19895   4.984   1.221   5.255  0.5125  0.0045  1.7466
  175SLPC  C31719896   5.195   1.234   5.271  0.3126 -0.0873 -0.1348
  175SLPC  H17X19897   5.180   1.133   5.315  0.3821 -0.5845 -1.2221
  175SLPC  H17Y19898   5.263   1.294   5.335  0.5073  1.2796 -1.5435
  175SLPC  C31819899   5.259   1.222   5.135 -0.5264 -0.0234  0.4706
  175SLPC  H18X19900   5.361   1.177   5.125 -0.0434  0.9509  0.9057
  175SLPC  H18Y19901   5.278   1.322   5.090  1.2045 -0.6957 -0.4227
  175SLPC  H18Z19902   5.195   1.166   5.064  1.8093 -0.0356 -1.7745
  176SLPC     N19903   4.514   0.911   7.494 -0.2272  0.1807 -0.6871
  176SLPC   C1319904   4.370   0.881   7.468  0.4124 -0.3352  0.0127
  176SLPC  H13A19905   4.350   0.810   7.388 -0.8120 -1.1215  0.9784
  176SLPC  H13B19906   4.323   0.855   7.561 -1.4511 -1.3016 -1.1216
  176SLPC  H13C19907   4.317   0.974   7.451 -2.4995 -1.8078  0.3706
  176SLPC   C1419908   4.588   0.786   7.502 -0.0219 -0.1359  0.2722
  176SLPC  H14A19909   4.593   0.742   7.403  0.1011  1.1841 -0.3327
  176SLPC  H14B19910   4.689   0.787   7.541 -0.5813  0.0598  1.7779
  176SLPC  H14C19911   4.542   0.716   7.569 -2.8692  0.1195 -1.2688
  176SLPC   C1519912   4.530   0.969   7.630  0.1168  0.1150 -0.4005
  176SLPC  H15A19913   4.476   1.062   7.629 -0.7094 -0.3395  0.4913
  176SLPC  H15B19914   4.486   0.907   7.706  3.0170 -1.6959 -0.0290
  176SLPC  H15C19915   4.634   0.985   7.656  0.0118  0.2894 -0.0845
  176SLPC   C1219916   4.573   1.008   7.389 -0.2569  0.1293  0.7849
  176SLPC  H12A19917   4.677   1.030   7.411 -0.1115 -0.3444  0.5755
  176SLPC  H12B19918   4.520   1.101   7.402 -0.2310 -0.0087  2.0612
  176SLPC   C1119919   4.556   0.968   7.250  0.1420 -0.6603 -0.0929
  176SLPC  H11A19920   4.583   1.056   7.188  2.2595 -0.3560  1.1515
  176SLPC  H11B19921   4.450   0.937   7.233  0.3647 -0.9304 -1.0738
  176SLPC     P19922   4.773   0.847   7.167 -0.3312  0.1530 -0.1022
  176SLPC   O1319923   4.852   0.954   7.231 -0.2280 -0.7077  0.3760
  176SLPC   O1419924   4.824   0.708   7.181  1.0055 -0.7095 -0.2132
  176SLPC   O1219925   4.626   0.851   7.219  0.4492  0.1933  0.5719
  176SLPC   O1119926   4.767   0.888   7.011 -0.3598 -0.4973  0.2633
  176SLPC    C119927   4.696   0.802   6.918 -0.1054  0.0224  0.7507
  176SLPC    HA19928   4.671   0.699   6.951  1.1469 -1.1062 -1.5810
  176SLPC    HB19929   4.598   0.843   6.887  0.7213  2.1691  0.7974
  176SLPC    C219930   4.777   0.778   6.791  0.1412  0.4510  0.1268
  176SLPC    HS19931   4.882   0.751   6.814  0.4626  0.8863 -0.7691
  176SLPC   O2119932   4.769   0.894   6.710  0.1874 -0.1009  0.0174
  176SLPC   C2119933   4.882   0.967   6.694  0.2627 -0.0117 -0.1412
  176SLPC   O2219934   4.989   0.948   6.752 -0.5038 -0.4978 -0.3927
  176SLPC   C2219935   4.860   1.079   6.591 -0.0527 -0.1502 -0.7652
  176SLPC   H2R19936   4.753   1.077   6.560  0.0143  3.6614 -1.7265
  176SLPC   H2S19937   4.881   1.175   6.644  0.6551  0.0886 -1.4674
  176SLPC    C319938   4.725   0.654   6.715  0.2980  0.0939 -0.4545
  176SLPC    HX19939   4.614   0.658   6.722  0.3001 -0.9762  0.5862
  176SLPC    HY19940   4.757   0.569   6.780  0.8414 -1.2267 -2.3534
  176SLPC   O3119941   4.761   0.648   6.578  0.0576 -0.3288 -0.2753
  176SLPC   C3119942   4.723   0.534   6.526  0.0439  0.2527 -0.2938
  176SLPC   O3219943   4.713   0.428   6.580 -0.1234  0.5532 -0.2464
  176SLPC   C3219944   4.743   0.550   6.371  0.0228  0.3712 -0.8738
  176SLPC   H2X19945   4.850   0.555   6.343 -0.0567  1.3366 -1.0241
  176SLPC   H2Y19946   4.700   0.647   6.337  0.9686  1.5736  1.1890
  176SLPC   C2319947   4.952   1.064   6.473  0.1213 -0.4246  0.2932
  176SLPC   H3R19948   5.057   1.041   6.500  0.9760  3.4944  0.9289
  176SLPC   H3S19949   4.941   1.157   6.412  1.1838 -0.3150  0.2372
  176SLPC   C2419950   4.901   0.963   6.371  0.1597 -0.4264 -0.6113
  176SLPC   H4R19951   4.795   0.978   6.341 -0.7345 -1.9260  1.6082
  176SLPC   H4S19952   4.914   0.863   6.416  1.3958 -0.3003 -0.6574
  176SLPC   C2519953   4.995   0.952   6.246  0.1600 -0.1500  0.1304
  176SLPC   H5R19954   5.098   0.947   6.286 -0.2308 -1.4264  1.0708
  176SLPC   H5S19955   4.986   1.048   6.191  0.3217  0.4958  1.2040
  176SLPC   C2619956   4.956   0.837   6.160  0.0050 -0.4112  0.0243
  176SLPC   H6R19957   4.846   0.829   6.142  0.0145 -2.7977  0.7253
  176SLPC   H6S19958   4.988   0.742   6.206  0.0907  0.2165  1.2856
  176SLPC   C2719959   5.031   0.845   6.024 -0.0478 -0.6876 -0.5253
  176SLPC   H7R19960   5.139   0.868   6.037 -0.2868  0.8635 -0.9648
  176SLPC   H7S19961   4.992   0.938   5.977 -2.6515 -1.2583  0.3105
  176SLPC   C2819962   4.996   0.725   5.940  0.2337 -0.4155  0.5288
  176SLPC   H8R19963   5.004   0.753   5.833 -2.0210  0.9814  0.6583
  176SLPC   H8S19964   4.886   0.710   5.952  0.1221  0.1980  0.3093
  176SLPC   C2919965   5.077   0.604   5.989 -0.1482  0.1297 -0.0146
  176SLPC   H9R19966   5.056   0.579   6.094 -0.4858  0.2130 -0.0623
  176SLPC  C21019967   5.170   0.536   5.921 -0.3722 -0.2903 -0.8054
  176SLPC  H10R19968   5.219   0.447   5.964 -2.0889 -0.9283 -0.1011
  176SLPC  C21119969   5.221   0.572   5.786  0.2118  0.3339 -0.3602
  176SLPC  H11R19970   5.259   0.675   5.804 -1.9381  0.5463  4.6549
  176SLPC  H11S19971   5.140   0.583   5.711  0.3803 -0.2417 -0.6333
  176SLPC  C21219972   5.331   0.486   5.729  0.6209 -0.1890 -0.2831
  176SLPC  H12R19973   5.409   0.463   5.803 -0.6212  1.6883  1.7260
  176SLPC  C21319974   5.338   0.438   5.612 -0.9100  0.5274 -0.1530
  176SLPC  H13R19975   5.421   0.367   5.599 -1.4668 -1.1694  4.0438
  176SLPC  C21419976   5.229   0.442   5.508 -0.4834 -0.4485 -1.2068
  176SLPC  H14R19977   5.158   0.528   5.506  1.1530  0.9594 -1.7853
  176SLPC  H14S19978   5.161   0.358   5.532 -1.5359  0.7349  0.1493
  176SLPC  C21519979   5.290   0.429   5.371 -0.5251 -0.0737  0.2158
  176SLPC  H15R19980   5.376   0.359   5.364  0.1656  0.8500 -1.1074
  176SLPC  H15S19981   5.327   0.528   5.335 -0.1754 -0.6036 -0.9034
  176SLPC  C21619982   5.191   0.386   5.264  0.7258  0.1465  0.5435
  176SLPC  H16R19983   5.100   0.449   5.270 -0.1403 -0.9208 -0.6525
  176SLPC  H16S19984   5.151   0.285   5.286 -0.1740  0.3638 -0.0170
  176SLPC  C21719985   5.247   0.388   5.118 -0.7312 -0.4923 -0.1903
  176SLPC  H17R19986   5.290   0.489   5.100  0.6188 -1.0682 -0.3293
  176SLPC  H17S19987   5.166   0.367   5.045 -0.1405 -0.1312 -0.9600
  176SLPC  C21819988   5.373   0.301   5.091  0.0396  0.3336 -0.2671
  176SLPC  H18R19989   5.353   0.203   5.139 -0.8796  1.2963  1.3667
  176SLPC  H18S19990   5.454   0.351   5.149 -1.7886  1.5537  1.3529
  176SLPC  H18T19991   5.389   0.296   4.981 -1.1443 -1.0651 -0.3992
  176SLPC   C3319992   4.678   0.437   6.285 -0.8630 -0.1881  0.0243
  176SLPC   H3X19993   4.568   0.443   6.297 -0.8244  2.0301 -0.3557
  176SLPC   H3Y19994   4.725   0.341   6.316  1.7414  0.1749 -2.3193
  176SLPC   C3419995   4.721   0.447   6.140 -0.0107  0.3429  0.1998
  176SLPC   H4X19996   4.830   0.444   6.121 -0.4303  0.2870 -2.5740
  176SLPC   H4Y19997   4.687   0.547   6.106 -0.3496  0.4466  0.8183
  176SLPC   C3519998   4.651   0.341   6.055  0.0283 -0.1687 -0.8255
  176SLPC   H5X19999   4.544   0.342   6.088 -0.9305  0.0362 -3.6715
  176SLPC   H5Y20000   4.693   0.241   6.080 -2.2353 -0.8246  0.7464
  176SLPC   C3620001   4.646   0.372   5.908 -0.0752 -0.3515  0.1601
  176SLPC   H6X20002   4.612   0.473   5.877  2.2431  0.9460  1.5598
  176SLPC   H6Y20003   4.572   0.298   5.870 -1.2550  0.3473  1.0217
  176SLPC   C3720004   4.792   0.353   5.852  0.6675  0.0016 -0.3856
  176SLPC   H7X20005   4.810   0.248   5.884  1.2321 -0.1000 -1.0141
  176SLPC   H7Y20006   4.859   0.426   5.903 -1.3344 -0.0637  2.5585
  176SLPC   C3820007   4.788   0.360   5.703  0.1838  0.4495 -0.0845
  176SLPC   H8X20008   4.698   0.310   5.662  1.1881 -1.5518  0.0587
  176SLPC   H8Y20009   4.872   0.304   5.657 -0.2031 -0.6157  0.4797
  176SLPC   C3920010   4.807   0.507   5.659  0.1777 -0.0948  0.2128
  176SLPC   H9X20011   4.889   0.557   5.716 -1.0198  1.1440  0.8992
  176SLPC   H9Y20012   4.719   0.568   5.687  1.5225  1.0496  2.2252
  176SLPC  C31020013   4.837   0.528   5.508  0.6248 -1.1603 -0.2483
  176SLPC  H10X20014   4.752   0.488   5.449  0.3393  1.0086 -1.4110
  176SLPC  H10Y20015   4.922   0.468   5.470  2.0050 -0.6397  1.8302
  176SLPC  C31120016   4.855   0.681   5.480  0.0642  0.2456 -0.1243
  176SLPC  H11X20017   4.910   0.740   5.557 -0.7195  0.4958  0.2514
  176SLPC  H11Y20018   4.760   0.737   5.467 -0.0143 -0.5693 -4.2644
  176SLPC  C31220019   4.932   0.701   5.345  0.1463  1.0648 -0.2200
  176SLPC  H12X20020   4.872   0.649   5.267 -0.3232  1.3300 -0.0414
  176SLPC  H12Y20021   5.033   0.657   5.359  0.5531  1.7009 -1.0796
  176SLPC  C31320022   4.945   0.855   5.338  0.0927 -0.4386 -0.3792
  176SLPC  H13X20023   5.016   0.889   5.417 -0.3429  1.0226 -0.5810
  176SLPC  H13Y20024   4.850   0.904   5.368  1.5537  1.4282  1.5648
  176SLPC  C31420025   5.011   0.902   5.209  0.3143  0.0632 -0.0939
  176SLPC  H14X20026   5.006   1.013   5.200 -1.9811  0.0672  0.5316
  176SLPC  H14Y20027   4.944   0.863   5.130  1.0048  0.1608 -0.7408
  176SLPC  C31520028   5.150   0.852   5.178 -0.3246 -0.5933 -0.0354
  176SLPC  H15X20029   5.145   0.748   5.216 -0.9695 -0.1798  1.0592
  176SLPC  H15Y20030   5.215   0.908   5.250  1.1166 -2.1200 -0.0953
  176SLPC  C31620031   5.208   0.863   5.032 -0.2938  0.2742 -0.4515
  176SLPC  H16X20032   5.214   0.971   5.005 -0.6969  0.2510 -0.6424
  176SLPC  H16Y20033   5.135   0.815   4.964 -2.0268  1.1363  0.7504
  176SLPC  C31720034   5.348   0.799   5.023  0.1181 -0.1980  0.0190
  176SLPC  H17X20035   5.368   0.781   4.916 -1.3212  0.8872 -0.4524
  176SLPC  H17Y20036   5.353   0.700   5.073 -1.2561 -0.3660 -0.1519
  176SLPC  C31820037   5.464   0.888   5.091  0.3536 -0.0011  0.2890
  176SLPC  H18X20038   5.452   0.901   5.201  0.2087  0.8220  0.1845
  176SLPC  H18Y20039   5.446   0.985   5.039  2.4569 -0.3556 -1.2151
  176SLPC  H18Z20040   5.562   0.847   5.061 -0.3628 -1.5596 -0.0138
  177SLPC     N20041   6.229   1.310   6.939 -0.2824  0.2285 -0.5713
  177SLPC   C1320042   6.179   1.165   6.951 -0.3870  0.1988  0.5132
  177SLPC  H13A20043   6.262   1.098   6.967  0.2937  1.0408  0.6221
  177SLPC  H13B20044   6.118   1.151   7.039 -0.3097  2.6588  1.0222
  177SLPC  H13C20045   6.118   1.138   6.865 -2.1400 -0.6549  1.9699
  177SLPC   C1420046   6.110   1.402   6.919 -1.1411  0.2398  0.3193
  177SLPC  H14A20047   6.042   1.387   7.002 -0.4725  1.6214  1.1434
  177SLPC  H14B20048   6.149   1.503   6.921  2.7783 -1.1229  0.2339
  177SLPC  H14C20049   6.060   1.377   6.827  2.0625  0.1875 -1.5462
  177SLPC   C1520050   6.321   1.316   6.825  0.2004 -0.1115 -0.1385
  177SLPC  H15A20051   6.400   1.243   6.823  0.3071 -0.1073  1.8478
  177SLPC  H15B20052   6.268   1.298   6.732 -1.6887 -2.1405  1.2220
  177SLPC  H15C20053   6.369   1.413   6.830 -0.6285  0.5376 -3.0403
  177SLPC   C1220054   6.302   1.352   7.065 -0.8745 -0.6140 -0.5645
  177SLPC  H12A20055   6.367   1.271   7.096 -0.4392 -0.1219 -0.1610
  177SLPC  H12B20056   6.226   1.368   7.139 -1.1939  1.5274 -1.2816
  177SLPC   C1120057   6.392   1.479   7.062  0.0237  0.0534  0.4762
  177SLPC  H11A20058   6.478   1.469   6.992  1.3302 -1.9530  2.2543
  177SLPC  H11B20059   6.432   1.487   7.166 -1.3791  0.2470  1.0171
  177SLPC     P20060   6.308   1.691   6.920 -0.2468  0.1390 -0.3455
  177SLPC   O1320061   6.168   1.707   6.882  0.3167 -0.6250  0.0749
  177SLPC   O1420062   6.385   1.813   6.949 -0.1464 -0.5344  0.2810
  177SLPC   O1220063   6.322   1.604   7.044 -0.2145 -0.1886  0.2616
  177SLPC   O1120064   6.371   1.598   6.807 -0.3385  0.8572  0.2521
  177SLPC    C120065   6.498   1.631   6.744 -0.4987 -0.2888  0.2263
  177SLPC    HA20066   6.555   1.706   6.802  0.0774  0.9978 -1.8864
  177SLPC    HB20067   6.558   1.537   6.741  2.1406  1.3231 -0.4964
  177SLPC    C220068   6.487   1.681   6.600 -0.0998 -0.1100  0.5980
  177SLPC    HS20069   6.586   1.678   6.549 -0.1318 -1.4360  0.5617
  177SLPC   O2120070   6.437   1.813   6.591  0.0823  0.0919  0.3478
  177SLPC   C2120071   6.507   1.921   6.641  0.6756 -0.1113 -0.5919
  177SLPC   O2220072   6.608   1.912   6.703 -0.1777  0.6273 -0.7032
  177SLPC   C2220073   6.433   2.045   6.596  0.0278  0.4638 -0.4452
  177SLPC   H2R20074   6.370   2.026   6.507 -2.2635 -0.4502  1.2911
  177SLPC   H2S20075   6.361   2.090   6.668  0.3388  1.5210 -0.7751
  177SLPC    C320076   6.394   1.578   6.523 -0.1042 -0.4431 -0.4192
  177SLPC    HX20077   6.289   1.589   6.555 -0.0912 -0.8627 -0.2284
  177SLPC    HY20078   6.437   1.478   6.546  2.2339  0.8716  1.4457
  177SLPC   O3120079   6.398   1.604   6.381  0.1936  0.2248 -0.1707
  177SLPC   C3120080   6.319   1.526   6.315  0.0010 -0.2641  0.0227
  177SLPC   O3220081   6.262   1.426   6.351  0.0611 -0.3640 -0.4996
  177SLPC   C3220082   6.317   1.566   6.161 -0.4779 -0.0369 -0.4506
  177SLPC   H2X20083   6.401   1.518   6.105 -0.1357  0.1362 -0.0945
  177SLPC   H2Y20084   6.317   1.677   6.152 -1.1740 -0.1585 -2.4170
  177SLPC   C2320085   6.528   2.156   6.541 -0.0770  0.6923  0.2758
  177SLPC   H3R20086   6.593   2.120   6.458 -1.1693  1.2525 -0.8674
  177SLPC   H3S20087   6.602   2.181   6.620 -0.2300 -1.6459  1.2507
  177SLPC   C2420088   6.457   2.282   6.492  0.0051  0.0198 -0.1625
  177SLPC   H4R20089   6.392   2.319   6.575 -0.9001 -0.5751 -0.5900
  177SLPC   H4S20090   6.406   2.264   6.395  0.8138  1.4484 -0.8793
  177SLPC   C2520091   6.547   2.402   6.461  0.4657  0.2942 -0.0661
  177SLPC   H5R20092   6.626   2.422   6.536  0.2565 -2.8950  1.1694
  177SLPC   H5S20093   6.480   2.490   6.453  0.9023  0.6103 -0.2965
  177SLPC   C2620094   6.609   2.414   6.324  0.5537  0.2557 -0.4859
  177SLPC   H6R20095   6.637   2.521   6.312 -1.6226  0.8731 -0.3704
  177SLPC   H6S20096   6.532   2.392   6.248 -0.3976 -0.6055  0.6956
  177SLPC   C2720097   6.733   2.330   6.298  0.0915 -0.1694  0.8994
  177SLPC   H7R20098   6.719   2.234   6.351  0.9934 -0.0006  1.4559
  177SLPC   H7S20099   6.819   2.384   6.342 -0.3132 -0.2495  1.8167
  177SLPC   C2820100   6.753   2.301   6.148 -0.2343  0.1606 -0.3352
  177SLPC   H8R20101   6.689   2.213   6.129  0.4798 -0.4189 -0.1131
  177SLPC   H8S20102   6.856   2.264   6.128 -0.1919  0.7626 -1.2801
  177SLPC   C2920103   6.730   2.411   6.050 -0.5145 -0.4560 -0.2451
  177SLPC   H9R20104   6.693   2.508   6.088  0.1798 -1.4789  3.4212
  177SLPC  C21020105   6.741   2.403   5.920 -0.5395  0.3581  0.0977
  177SLPC  H10R20106   6.720   2.494   5.863 -1.1910  0.8392  1.0875
  177SLPC  C21120107   6.780   2.283   5.833  0.4785  0.1377  0.1388
  177SLPC  H11R20108   6.748   2.188   5.880  0.8903 -0.5009 -0.8256
  177SLPC  H11S20109   6.892   2.283   5.833  0.4775  0.3850  0.4157
  177SLPC  C21220110   6.722   2.291   5.693  0.2593  0.4051  1.0581
  177SLPC  H12R20111   6.626   2.343   5.698  1.2465  2.2312  2.0672
  177SLPC  C21320112   6.780   2.270   5.574  0.2824  0.0988  0.1065
  177SLPC  H13R20113   6.720   2.275   5.482  1.4127  0.9345 -0.6141
  177SLPC  C21420114   6.916   2.212   5.549 -0.1310  0.1956  0.2557
  177SLPC  H14R20115   6.913   2.110   5.506  3.3644  0.9031 -2.1457
  177SLPC  H14S20116   6.966   2.188   5.645 -1.0085  0.8986  0.9136
  177SLPC  C21520117   7.012   2.294   5.460  0.0825  0.3378  0.1848
  177SLPC  H15R20118   6.970   2.316   5.360 -3.8741 -1.7532  1.1800
  177SLPC  H15S20119   7.096   2.225   5.437 -1.1098 -1.0553 -0.1741
  177SLPC  C21620120   7.065   2.422   5.523 -0.3596 -0.1051 -0.2098
  177SLPC  H16R20121   7.086   2.408   5.631 -0.0522 -1.0593 -0.3816
  177SLPC  H16S20122   6.979   2.493   5.518 -0.4337 -0.2284 -0.6931
  177SLPC  C21720123   7.192   2.454   5.449  0.4689 -0.0465 -0.0412
  177SLPC  H17R20124   7.172   2.436   5.341  1.3766 -1.3693 -0.0091
  177SLPC  H17S20125   7.275   2.387   5.483  0.4983 -0.7778 -1.4606
  177SLPC  C21820126   7.246   2.597   5.464 -0.0357  0.2736 -0.0724
  177SLPC  H18R20127   7.168   2.669   5.431  0.1138  0.6418  0.3627
  177SLPC  H18S20128   7.338   2.612   5.403 -0.4168  2.6120 -0.1744
  177SLPC  H18T20129   7.264   2.627   5.569  1.1877  1.2025 -0.5236
  177SLPC   C3320130   6.190   1.511   6.102  0.4163  0.3108 -0.8088
  177SLPC   H3X20131   6.096   1.563   6.132  0.0431  0.0087 -1.4349
  177SLPC   H3Y20132   6.173   1.403   6.121 -0.3237  0.5976  0.2459
  177SLPC   C3420133   6.198   1.498   5.951  0.0257 -0.3708  0.5748
  177SLPC   H4X20134   6.275   1.419   5.934  0.9816  0.5720  0.4131
  177SLPC   H4Y20135   6.239   1.591   5.906 -0.1976  0.4193  1.9631
  177SLPC   C3520136   6.063   1.445   5.896 -0.1557 -0.1977 -0.1818
  177SLPC   H5X20137   5.976   1.509   5.918 -0.3254 -1.0242  1.7263
  177SLPC   H5Y20138   6.050   1.349   5.950 -0.5452 -0.3172 -0.4813
  177SLPC   C3620139   6.082   1.426   5.748 -0.0925  0.3996  0.2635
  177SLPC   H6X20140   6.174   1.364   5.751  0.3290  1.0539  1.9953
  177SLPC   H6Y20141   6.110   1.523   5.701 -0.7438  2.0369  3.0405
  177SLPC   C3720142   5.969   1.375   5.668  0.6023  0.4339  0.1794
  177SLPC   H7X20143   5.934   1.280   5.714 -1.3242 -0.4605 -2.8364
  177SLPC   H7Y20144   6.001   1.344   5.567 -1.9007  1.0299 -0.8768
  177SLPC   C3820145   5.844   1.469   5.652 -0.1690  0.1601  0.2941
  177SLPC   H8X20146   5.811   1.508   5.751 -1.3938 -0.6955  0.2472
  177SLPC   H8Y20147   5.756   1.417   5.610 -0.1540  0.7373 -0.4777
  177SLPC   C3920148   5.867   1.590   5.565  0.3740 -0.3728  0.6053
  177SLPC   H9X20149   5.950   1.568   5.495 -0.7519  0.7946 -1.1620
  177SLPC   H9Y20150   5.901   1.668   5.636 -1.1981  0.7126  0.1978
  177SLPC  C31020151   5.754   1.641   5.484  0.6525  1.2743  0.5815
  177SLPC  H10X20152   5.654   1.636   5.534  0.1099  1.9411 -0.3910
  177SLPC  H10Y20153   5.741   1.570   5.400  2.5881 -1.3340  2.3287
  177SLPC  C31120154   5.780   1.783   5.444  0.4566 -0.1447  0.4857
  177SLPC  H11X20155   5.888   1.802   5.429  0.6908 -0.7132  1.3847
  177SLPC  H11Y20156   5.758   1.855   5.526 -1.6828  1.3780 -1.3049
  177SLPC  C31220157   5.708   1.835   5.313 -0.3713 -0.1197  0.3490
  177SLPC  H12X20158   5.657   1.932   5.331 -3.6898 -2.1331  3.0877
  177SLPC  H12Y20159   5.624   1.763   5.300  0.3728 -0.7115 -1.5539
  177SLPC  C31320160   5.798   1.821   5.193 -0.3526 -0.7992  0.5048
  177SLPC  H13X20161   5.816   1.714   5.169 -0.3572 -0.7629  0.3336
  177SLPC  H13Y20162   5.897   1.870   5.206 -0.8358  0.6097 -0.7337
  177SLPC  C31420163   5.732   1.896   5.075 -0.1138 -0.2826  0.3472
  177SLPC  H14X20164   5.715   2.004   5.093 -2.1298 -0.3945 -0.5964
  177SLPC  H14Y20165   5.633   1.849   5.058 -0.6604  0.2925  1.7857
  177SLPC  C31520166   5.814   1.882   4.949 -1.0671  0.0925  1.2156
  177SLPC  H15X20167   5.914   1.929   4.961 -1.7123  1.8937 -0.0737
  177SLPC  H15Y20168   5.762   1.945   4.874 -0.5751  0.6428  1.3286
  177SLPC  C31620169   5.820   1.743   4.891 -0.7934 -0.4676 -1.0201
  177SLPC  H16X20170   5.861   1.674   4.968  0.0498 -0.2178 -1.2351
  177SLPC  H16Y20171   5.895   1.759   4.811  0.6751  1.5775  0.6433
  177SLPC  C31720172   5.694   1.684   4.832 -0.2097  0.3210  1.1328
  177SLPC  H17X20173   5.656   1.760   4.760  0.9689 -1.5956 -1.6519
  177SLPC  H17Y20174   5.617   1.669   4.911  0.7771 -1.3253  1.8221
  177SLPC  C31820175   5.737   1.553   4.756 -0.0868  0.5231 -0.0382
  177SLPC  H18X20176   5.824   1.562   4.687  0.4123 -2.3878  0.0885
  177SLPC  H18Y20177   5.659   1.500   4.698  1.0347 -2.5261  1.0078
  177SLPC  H18Z20178   5.772   1.475   4.827  0.8877  1.6784  0.8039
  178SLPC     N20179   3.938   0.362   7.411 -0.0181  0.4017 -0.7211
  178SLPC   C1320180   3.886   0.260   7.506 -0.4931  0.2008  0.4837
  178SLPC  H13A20181   3.778   0.255   7.512 -0.6069  2.1016  0.6483
  178SLPC  H13B20182   3.919   0.161   7.478  2.2943  2.1009 -4.2366
  178SLPC  H13C20183   3.901   0.283   7.610 -1.9800 -0.3146  0.8332
  178SLPC   C1420184   4.076   0.396   7.454  0.4579 -0.4139 -0.1305
  178SLPC  H14A20185   4.101   0.494   7.416 -0.2750  0.2108  0.9376
  178SLPC  H14B20186   4.088   0.416   7.559 -2.1517  0.8410  0.0283
  178SLPC  H14C20187   4.152   0.329   7.417  0.8719  0.5445 -1.0600
  178SLPC   C1520188   3.859   0.492   7.429  0.0735 -0.3352  0.1003
  178SLPC  H15A20189   3.870   0.523   7.532 -2.0552 -0.3267  0.3874
  178SLPC  H15B20190   3.883   0.566   7.355  3.0121 -0.0512  1.2037
  178SLPC  H15C20191   3.752   0.476   7.418 -0.4535  3.6323 -2.4515
  178SLPC   C1220192   3.923   0.311   7.267  0.4396  0.4485 -0.5040
  178SLPC  H12A20193   3.818   0.301   7.245  0.1918  0.2568  0.6782
  178SLPC  H12B20194   3.978   0.218   7.257 -1.3448 -0.6193 -0.8251
  178SLPC   C1120195   3.968   0.399   7.144 -0.0684  0.2883  0.3308
  178SLPC  H11A20196   3.985   0.333   7.057  0.0004  0.0609  0.5144
  178SLPC  H11B20197   4.057   0.448   7.188 -1.2788  0.9507  2.2129
  178SLPC     P20198   3.747   0.451   7.029 -0.0358 -0.2472 -0.2563
  178SLPC   O1320199   3.678   0.344   7.102  0.3230 -0.1552 -0.2273
  178SLPC   O1420200   3.662   0.571   6.992 -0.2035 -0.1786  0.0375
  178SLPC   O1220201   3.868   0.502   7.117 -0.7087  0.0427  0.2530
  178SLPC   O1120202   3.820   0.403   6.891  0.3031 -0.2350 -0.4790
  178SLPC    C120203   3.909   0.496   6.828  0.5801 -0.2424  0.3678
  178SLPC    HA20204   3.879   0.603   6.830  0.5980 -0.1363 -1.8431
  178SLPC    HB20205   4.008   0.489   6.879  0.5169 -0.6390  0.4366
  178SLPC    C220206   3.940   0.455   6.678  0.6075 -0.0451  0.1457
  178SLPC    HS20207   4.050   0.465   6.670  0.3957  1.8758 -1.3547
  178SLPC   O2120208   3.872   0.551   6.588  0.5094  0.2457 -0.4710
  178SLPC   C2120209   3.747   0.529   6.554 -0.1351 -0.3440  0.4844
  178SLPC   O2220210   3.672   0.445   6.596 -0.4674 -0.1935  0.1752
  178SLPC   C2220211   3.703   0.623   6.442  0.2645  0.0501 -0.0919
  178SLPC   H2R20212   3.604   0.581   6.417 -0.5677  1.1824  1.1390
  178SLPC   H2S20213   3.696   0.728   6.478 -1.2105  0.3676 -1.2055
  178SLPC    C320214   3.916   0.304   6.651 -0.0175  0.3016 -0.0471
  178SLPC    HX20215   3.812   0.269   6.667  0.7112 -1.1656  1.8237
  178SLPC    HY20216   3.973   0.253   6.731 -0.4663  0.2694  0.2510
  178SLPC   O3120217   3.967   0.287   6.519 -0.3823 -0.4276  0.2042
  178SLPC   C3120218   4.091   0.232   6.506  0.1715  0.6884  0.0083
  178SLPC   O3220219   4.161   0.199   6.596  0.3943 -0.3688 -0.4661
  178SLPC   C3220220   4.120   0.220   6.355  0.2002  0.3915 -0.5958
  178SLPC   H2X20221   4.126   0.327   6.326  0.3264  1.1005  1.8289
  178SLPC   H2Y20222   4.031   0.177   6.304 -0.9450 -0.4795  1.9562
  178SLPC   C2320223   3.803   0.620   6.326  0.5412 -0.1833 -0.2718
  178SLPC   H3R20224   3.912   0.636   6.343  0.4882  1.2792 -1.0565
  178SLPC   H3S20225   3.775   0.703   6.257 -0.3266 -0.4331 -0.2342
  178SLPC   C2420226   3.792   0.493   6.240  0.1812  0.2781 -0.0028
  178SLPC   H4R20227   3.690   0.486   6.196  0.5314 -0.4514 -0.7256
  178SLPC   H4S20228   3.813   0.402   6.299 -1.6336 -0.9682 -1.1951
  178SLPC   C2520229   3.896   0.499   6.125  0.1584 -0.6877 -0.4016
  178SLPC   H5R20230   3.898   0.403   6.069 -0.8495 -0.6836 -0.4532
  178SLPC   H5S20231   3.997   0.513   6.170 -1.3526 -0.1039  3.1400
  178SLPC   C2620232   3.861   0.602   6.023  0.3770  0.0998  1.3745
  178SLPC   H6R20233   3.846   0.705   6.063  1.8342  1.2752 -0.9137
  178SLPC   H6S20234   3.765   0.583   5.970  1.3978 -1.3156 -0.0807
  178SLPC   C2720235   3.975   0.614   5.922  0.0432  0.1699 -0.4264
  178SLPC   H7R20236   4.056   0.684   5.952  1.1435 -0.7566 -1.1414
  178SLPC   H7S20237   3.928   0.670   5.839  0.1378 -0.9419 -1.2389
  178SLPC   C2820238   4.042   0.492   5.863  0.3947 -0.0636  0.3131
  178SLPC   H8R20239   4.097   0.444   5.947 -0.5462 -3.0331 -0.6352
  178SLPC   H8S20240   4.117   0.534   5.793  0.5100 -0.5845  0.1252
  178SLPC   C2920241   3.949   0.395   5.783  0.1622  0.4843 -0.0062
  178SLPC   H9R20242   3.868   0.353   5.843 -0.7348  1.6702 -0.3477
  178SLPC  C21020243   3.955   0.351   5.659 -0.4978  0.2686  1.3681
  178SLPC  H10R20244   3.887   0.274   5.620  0.1012 -0.3288  1.4779
  178SLPC  C21120245   4.047   0.385   5.546 -0.3363  0.1118 -0.4134
  178SLPC  H11R20246   4.140   0.325   5.546  1.1254  2.2456  0.6603
  178SLPC  H11S20247   4.087   0.488   5.554  0.3156 -0.1659 -0.0582
  178SLPC  C21220248   3.987   0.364   5.403  0.3771  0.7036  0.8236
  178SLPC  H12R20249   3.879   0.381   5.404  0.1271 -0.7750  1.4242
  178SLPC  C21320250   4.049   0.331   5.288  0.4184 -0.1550  0.0476
  178SLPC  H13R20251   3.996   0.340   5.192 -1.2198  0.7609  0.9853
  178SLPC  C21420252   4.203   0.333   5.274 -0.1617 -0.5917 -1.1758
  178SLPC  H14R20253   4.231   0.226   5.261 -1.1161 -0.6387 -3.2022
  178SLPC  H14S20254   4.256   0.365   5.367 -0.6315 -2.9761  0.0046
  178SLPC  C21520255   4.244   0.417   5.160  0.3220 -0.5211  0.4319
  178SLPC  H15R20256   4.347   0.453   5.179  1.2864 -1.6392 -2.1021
  178SLPC  H15S20257   4.186   0.512   5.154  0.9382 -0.2025 -1.1983
  178SLPC  C21620258   4.233   0.344   5.025 -0.1100  0.2528 -0.2090
  178SLPC  H16R20259   4.126   0.336   4.994  0.0132 -2.4141 -0.1789
  178SLPC  H16S20260   4.272   0.241   5.035 -0.5565  0.2128  1.2527
  178SLPC  C21720261   4.318   0.413   4.914 -0.1747  0.4913 -0.4714
  178SLPC  H17R20262   4.426   0.415   4.943  0.1363 -0.2214 -1.5213
  178SLPC  H17S20263   4.286   0.519   4.914 -2.3180 -0.1135  0.4142
  178SLPC  C21820264   4.303   0.361   4.771 -0.1142 -0.5844  0.1853
  178SLPC  H18R20265   4.197   0.334   4.751 -0.1915  0.3039 -0.6479
  178SLPC  H18S20266   4.372   0.275   4.758 -0.2456 -0.8829  1.3573
  178SLPC  H18T20267   4.341   0.445   4.710 -0.2122 -0.2632  0.5607
  178SLPC   C3320268   4.254   0.149   6.322  0.1727 -1.0250  0.1538
  178SLPC   H3X20269   4.244   0.046   6.363 -0.8262 -1.1732 -0.4273
  178SLPC   H3Y20270   4.337   0.209   6.364 -0.8046  1.1021 -0.8333
  178SLPC   C3420271   4.268   0.141   6.171  0.7779 -0.4399  0.3571
  178SLPC   H4X20272   4.373   0.124   6.138  0.0664 -0.9450 -1.7363
  178SLPC   H4Y20273   4.252   0.246   6.142  0.9888 -0.6599 -0.5658
  178SLPC   C3520274   4.193   0.036   6.097 -0.0540 -0.0141 -0.1947
  178SLPC   H5X20275   4.090   0.010   6.128  0.0448 -3.4802 -2.3192
  178SLPC   H5Y20276   4.246  -0.061   6.102  0.0514  0.1095  2.2791
  178SLPC   C3620277   4.192   0.077   5.950 -0.8499 -0.1509  0.0719
  178SLPC   H6X20278   4.156   0.181   5.935 -0.7222 -0.1833 -0.4479
  178SLPC   H6Y20279   4.122   0.007   5.898 -0.5150 -0.5017  0.0880
  178SLPC   C3720280   4.316   0.060   5.859  0.8850 -0.0418  0.3070
  178SLPC   H7X20281   4.325  -0.049   5.844 -1.8440 -0.4634  1.0960
  178SLPC   H7Y20282   4.398   0.077   5.932 -0.0205  2.2669  0.8968
  178SLPC   C3820283   4.313   0.152   5.734 -0.2167 -0.5010  0.4397
  178SLPC   H8X20284   4.326   0.260   5.758 -3.8223  0.5216 -1.5588
  178SLPC   H8Y20285   4.221   0.135   5.674  0.5137  0.9778 -1.1992
  178SLPC   C3920286   4.440   0.124   5.647  0.1537 -0.2989 -0.3691
  178SLPC   H9X20287   4.428   0.014   5.635 -1.4560 -0.1464 -0.4371
  178SLPC   H9Y20288   4.529   0.128   5.713 -0.4813  0.5078  0.4671
  178SLPC  C31020289   4.456   0.197   5.515  0.3315  0.2025  0.2298
  178SLPC  H10X20290   4.457   0.304   5.545 -1.1078  0.5147 -0.7590
  178SLPC  H10Y20291   4.369   0.171   5.452 -0.2302 -0.3192  1.1939
  178SLPC  C31120292   4.577   0.150   5.422  0.2960 -0.1159 -0.6213
  178SLPC  H11X20293   4.559   0.043   5.395 -0.7564 -0.2204  0.3628
  178SLPC  H11Y20294   4.678   0.166   5.463  0.2118 -1.4230  0.1755
  178SLPC  C31220295   4.568   0.231   5.292  0.2872  0.7242 -0.5644
  178SLPC  H12X20296   4.596   0.335   5.320 -0.4493  0.0546  3.1828
  178SLPC  H12Y20297   4.464   0.230   5.254 -0.0523  0.9236  0.3413
  178SLPC  C31320298   4.659   0.173   5.181 -0.1789 -0.2618 -1.2076
  178SLPC  H13X20299   4.609   0.076   5.167 -1.6939 -0.0046  1.7041
  178SLPC  H13Y20300   4.758   0.164   5.231 -0.2276  2.5039 -0.4341
  178SLPC  C31420301   4.653   0.252   5.054 -0.1289  0.0324 -0.4833
  178SLPC  H14X20302   4.548   0.245   5.018 -0.1577  1.4076 -0.7374
  178SLPC  H14Y20303   4.711   0.188   4.984  0.9726  0.4855 -0.0181
  178SLPC  C31520304   4.712   0.394   5.064 -0.1983  0.2791  0.5430
  178SLPC  H15X20305   4.801   0.384   5.130 -0.3164 -2.1365  0.4230
  178SLPC  H15Y20306   4.639   0.464   5.109  0.4854  1.7536 -0.5641
  178SLPC  C31620307   4.743   0.441   4.924 -0.7041 -0.3926 -0.4134
  178SLPC  H16X20308   4.649   0.442   4.864 -0.1598  1.3492 -1.3276
  178SLPC  H16Y20309   4.817   0.379   4.869  0.2827 -0.1746  0.6532
  178SLPC  C31720310   4.793   0.589   4.922  0.1849 -0.5134 -0.0364
  178SLPC  H17X20311   4.728   0.653   4.987 -0.5965 -2.7127  1.4743
  178SLPC  H17Y20312   4.788   0.630   4.819 -0.5865 -1.8416 -0.5553
  178SLPC  C31820313   4.935   0.589   4.971 -0.2857 -0.0296 -0.3861
  178SLPC  H18X20314   4.992   0.514   4.912  0.3812  1.1099 -1.2223
  178SLPC  H18Y20315   4.953   0.562   5.077  2.2470  0.2515 -0.6771
  178SLPC  H18Z20316   4.976   0.692   4.964 -2.7556  1.1439  1.1285
  179SLPC     N20317   6.325   1.914   2.774  0.3854  0.2755  0.5285
  179SLPC   C1320318   6.388   1.904   2.644 -0.1622  0.4450  0.4859
  179SLPC  H13A20319   6.368   1.814   2.587 -2.9844  0.0152  2.0159
  179SLPC  H13B20320   6.389   1.991   2.581  0.4638  0.0567 -0.0588
  179SLPC  H13C20321   6.496   1.900   2.658 -0.1264 -0.8296  0.0203
  179SLPC   C1420322   6.176   1.903   2.760  0.3016 -0.0127  0.1686
  179SLPC  H14A20323   6.150   1.992   2.704  2.5392 -0.6254 -2.0232
  179SLPC  H14B20324   6.152   1.817   2.700 -0.4000 -0.5468  1.2021
  179SLPC  H14C20325   6.129   1.895   2.856  0.8468  1.7902  0.6302
  179SLPC   C1520326   6.351   2.053   2.829  0.0915 -0.3371 -1.1985
  179SLPC  H15A20327   6.452   2.082   2.853  0.0686 -1.2920  0.1529
  179SLPC  H15B20328   6.321   2.122   2.752 -0.9661 -1.1038 -1.4937
  179SLPC  H15C20329   6.290   2.059   2.918  2.6668 -3.3861  1.0241
  179SLPC   C1220330   6.366   1.798   2.866 -0.3913  0.2054  0.3487
  179SLPC  H12A20331   6.332   1.705   2.823 -1.3291 -1.4305  4.1759
  179SLPC  H12B20332   6.309   1.814   2.956 -0.7504 -1.1703  0.3912
  179SLPC   C1120333   6.517   1.778   2.906  0.8049 -0.3675 -0.7109
  179SLPC  H11A20334   6.553   1.706   2.983 -1.0084  1.0345  1.5980
  179SLPC  H11B20335   6.548   1.867   2.965  2.0170 -2.2256  1.6547
  179SLPC     P20336   6.587   1.626   2.709 -0.6047 -0.0117  0.1477
  179SLPC   O1320337   6.443   1.580   2.694 -0.2415 -0.3473  0.3725
  179SLPC   O1420338   6.669   1.635   2.589  0.2917  0.2413 -0.3322
  179SLPC   O1220339   6.592   1.766   2.790 -0.1372  0.0817 -0.0579
  179SLPC   O1120340   6.656   1.527   2.811  0.0489  0.0366 -0.0015
  179SLPC    C120341   6.779   1.559   2.879  0.5168  0.1097 -0.4846
  179SLPC    HA20342   6.870   1.539   2.819 -0.8636 -0.1463 -2.6055
  179SLPC    HB20343   6.776   1.663   2.916 -0.3238 -0.1637  0.2578
  179SLPC    C220344   6.781   1.464   3.000  0.4089  0.5100  0.1889
  179SLPC    HS20345   6.788   1.360   2.962  0.3328  0.6273 -0.1432
  179SLPC   O2120346   6.669   1.500   3.085  0.4339  0.0121  0.2141
  179SLPC   C2120347   6.566   1.421   3.086 -0.5891  0.9748  0.0696
  179SLPC   O2220348   6.552   1.314   3.023 -0.8204 -0.2950 -0.9468
  179SLPC   C2220349   6.464   1.467   3.187  0.1524  0.3112 -0.0466
  179SLPC   H2R20350   6.513   1.474   3.286 -0.9858 -4.1478  1.0217
  179SLPC   H2S20351   6.423   1.563   3.149  0.7504  0.1698 -1.1194
  179SLPC    C320352   6.908   1.492   3.091 -0.5397  0.5478 -0.3098
  179SLPC    HX20353   6.927   1.601   3.088 -0.9264  0.6120 -0.5755
  179SLPC    HY20354   6.991   1.437   3.041 -0.9326  0.5544 -0.9895
  179SLPC   O3120355   6.896   1.452   3.229  0.0202 -0.6020 -0.4744
  179SLPC   C3120356   6.997   1.485   3.312  0.8901  0.5343  0.7478
  179SLPC   O3220357   7.103   1.537   3.279  0.0571 -0.3664  0.9087
  179SLPC   C3220358   6.959   1.444   3.459  0.1602  0.0910 -0.4497
  179SLPC   H2X20359   6.931   1.336   3.454 -1.4662  0.5154 -1.9599
  179SLPC   H2Y20360   6.869   1.505   3.483 -0.0441 -0.3255 -0.1501
  179SLPC   C2320361   6.341   1.375   3.179  0.0117 -0.1450  0.1661
  179SLPC   H3R20362   6.368   1.267   3.174 -0.5679 -0.2293 -2.0977
  179SLPC   H3S20363   6.290   1.395   3.083  0.8540  1.1280 -0.0392
  179SLPC   C2420364   6.230   1.387   3.281 -1.0088 -0.1082  0.5742
  179SLPC   H4R20365   6.258   1.369   3.388 -5.5842 -4.1873  1.4607
  179SLPC   H4S20366   6.152   1.315   3.250 -0.5723 -0.6941  0.8063
  179SLPC   C2520367   6.153   1.519   3.269  0.1134 -0.1478  0.2664
  179SLPC   H5R20368   6.103   1.517   3.170 -1.1984  0.0051  0.8985
  179SLPC   H5S20369   6.227   1.601   3.274 -1.3920  1.4727 -2.1517
  179SLPC   C2620370   6.051   1.516   3.385 -0.2082 -0.1276  0.5543
  179SLPC   H6R20371   6.097   1.479   3.479 -0.0706 -0.0143  0.5325
  179SLPC   H6S20372   5.958   1.458   3.370 -0.0816 -0.2141  0.0995
  179SLPC   C2720373   5.999   1.658   3.419 -0.4078  0.6682  0.1117
  179SLPC   H7R20374   5.954   1.696   3.324 -1.2046 -1.7030 -0.5414
  179SLPC   H7S20375   6.091   1.716   3.439  1.3647 -1.2948 -1.8569
  179SLPC   C2820376   5.905   1.659   3.541 -0.4077 -0.6834  0.0697
  179SLPC   H8R20377   5.956   1.601   3.620 -1.6742  0.4355  1.7906
  179SLPC   H8S20378   5.814   1.600   3.517 -1.5407  0.8505  0.3733
  179SLPC   C2920379   5.869   1.803   3.584  0.2387  0.2484  0.4405
  179SLPC   H9R20380   5.952   1.872   3.599 -0.7112  1.6229 -0.4098
  179SLPC  C21020381   5.742   1.829   3.611  0.5558  0.2350 -0.3283
  179SLPC  H10R20382   5.716   1.931   3.643  1.0162  0.7911 -1.6402
  179SLPC  C21120383   5.615   1.747   3.592 -1.0692  0.6997 -0.1249
  179SLPC  H11R20384   5.622   1.655   3.654 -1.5930  1.1516  0.6216
  179SLPC  H11S20385   5.623   1.705   3.489  1.6386 -0.7683  0.6034
  179SLPC  C21220386   5.485   1.823   3.608 -0.7073  0.2996  0.3808
  179SLPC  H12R20387   5.431   1.854   3.517 -1.5467  0.1573  0.8181
  179SLPC  C21320388   5.426   1.844   3.725  0.3443 -0.6721  0.0838
  179SLPC  H13R20389   5.338   1.910   3.737  0.2835 -0.8525  0.6834
  179SLPC  C21420390   5.486   1.804   3.857  0.0168  0.5506  0.4574
  179SLPC  H14R20391   5.525   1.897   3.903  0.4463 -0.0459  1.3389
  179SLPC  H14S20392   5.571   1.734   3.841 -1.1211 -0.6589 -0.5105
  179SLPC  C21520393   5.377   1.743   3.942  0.2469 -0.2233 -0.9968
  179SLPC  H15R20394   5.371   1.632   3.928  1.8462 -0.2681 -1.4417
  179SLPC  H15S20395   5.279   1.785   3.910  1.0626  1.5207 -1.2854
  179SLPC  C21620396   5.393   1.757   4.097  0.0888  0.2993 -0.1540
  179SLPC  H16R20397   5.297   1.729   4.146  0.3235  1.0709  0.7816
  179SLPC  H16S20398   5.413   1.865   4.116  0.9769  0.1608 -0.2914
  179SLPC  C21720399   5.517   1.695   4.155  0.3478 -0.3310  0.0090
  179SLPC  H17R20400   5.605   1.749   4.114  1.5829 -2.8450 -0.8661
  179SLPC  H17S20401   5.524   1.588   4.126  0.2521 -0.8386  1.7675
  179SLPC  C21820402   5.518   1.696   4.311 -0.4933  0.0029  0.8183
  179SLPC  H18R20403   5.460   1.612   4.356  0.8014 -0.2285  2.1520
  179SLPC  H18S20404   5.479   1.792   4.351  1.1646  0.8280  0.5599
  179SLPC  H18T20405   5.623   1.686   4.346 -0.3784  1.8290  1.0793
  179SLPC   C3320406   7.066   1.474   3.565 -0.9162  0.3937  0.1401
  179SLPC   H3X20407   7.091   1.582   3.561  1.0669  0.1584  2.9630
  179SLPC   H3Y20408   7.163   1.420   3.561 -0.5694  0.9222  1.1515
  179SLPC   C3420409   7.024   1.465   3.709  0.4376 -0.2800 -0.4868
  179SLPC   H4X20410   7.105   1.487   3.782  0.4979 -1.8529 -0.0278
  179SLPC   H4Y20411   6.979   1.366   3.732  0.1749  0.3143  1.8939
  179SLPC   C3520412   6.913   1.566   3.764 -0.1375  0.7595 -0.6398
  179SLPC   H5X20413   6.974   1.658   3.765  2.3375 -0.7855 -0.4120
  179SLPC   H5Y20414   6.835   1.573   3.685 -1.1843  1.3302  0.4168
  179SLPC   C3620415   6.850   1.536   3.900  0.2682  0.7800 -0.1787
  179SLPC   H6X20416   6.814   1.431   3.891 -0.4016  0.9057  0.8044
  179SLPC   H6Y20417   6.766   1.600   3.934  0.1416  0.0320  0.9636
  179SLPC   C3720418   6.952   1.546   4.011 -0.0403  0.8248  0.6642
  179SLPC   H7X20419   6.952   1.655   4.029 -2.7946  0.8770  0.7943
  179SLPC   H7Y20420   7.053   1.516   3.974 -0.1266  0.3585  0.7996
  179SLPC   C3820421   6.909   1.487   4.142  0.3823  0.8501 -0.2630
  179SLPC   H8X20422   6.879   1.383   4.117  0.0727  0.1103  2.8121
  179SLPC   H8Y20423   6.822   1.543   4.184 -1.0117 -2.3063  1.4059
  179SLPC   C3920424   7.032   1.483   4.234  0.0510  0.5912 -0.2731
  179SLPC   H9X20425   7.077   1.585   4.239  0.3229  0.4658 -0.1595
  179SLPC   H9Y20426   7.108   1.415   4.191  0.4540  0.4627  0.6120
  179SLPC  C31020427   7.010   1.415   4.378  0.2866 -1.0641  1.5397
  179SLPC  H10X20428   7.104   1.412   4.437  1.1544 -1.4346  0.1867
  179SLPC  H10Y20429   6.966   1.315   4.360  0.2835 -0.6056 -1.4978
  179SLPC  C31120430   6.919   1.492   4.466  0.6077  0.6112 -0.0867
  179SLPC  H11X20431   6.811   1.497   4.440  0.8036  2.4450 -0.7323
  179SLPC  H11Y20432   6.947   1.600   4.461  1.2963  0.4171 -0.5139
  179SLPC  C31220433   6.935   1.448   4.616 -0.3508  0.6522 -0.9750
  179SLPC  H12X20434   7.036   1.486   4.642 -1.5689  4.2867 -1.0778
  179SLPC  H12Y20435   6.918   1.339   4.633 -2.3201  0.7630 -1.8751
  179SLPC  C31320436   6.826   1.508   4.710 -0.2443  0.0817  0.7442
  179SLPC  H13X20437   6.721   1.493   4.677 -0.6473 -0.5012  2.1861
  179SLPC  H13Y20438   6.844   1.617   4.721 -0.3505  0.2545 -0.6734
  179SLPC  C31420439   6.838   1.457   4.856 -0.2584 -0.6911  1.1639
  179SLPC  H14X20440   6.943   1.475   4.886  0.1379  0.1280 -0.5942
  179SLPC  H14Y20441   6.817   1.349   4.877  1.4661 -1.1319  0.7663
  179SLPC  C31520442   6.737   1.540   4.947  0.2374  0.6838 -0.0395
  179SLPC  H15X20443   6.636   1.519   4.906  0.5185 -2.8364  0.7156
  179SLPC  H15Y20444   6.765   1.645   4.927  1.2019  0.0647 -2.2724
  179SLPC  C31620445   6.743   1.495   5.097  1.1280  0.8826 -0.4842
  179SLPC  H16X20446   6.710   1.389   5.097  1.3197  0.8228 -0.7289
  179SLPC  H16Y20447   6.667   1.554   5.153  0.7943 -1.2058  1.3909
  179SLPC  C31720448   6.881   1.519   5.149  0.1295  0.1093  0.8227
  179SLPC  H17X20449   6.912   1.623   5.124  0.6264 -0.5387 -1.5201
  179SLPC  H17Y20450   6.949   1.445   5.101  0.7007  3.2409 -3.9570
  179SLPC  C31820451   6.887   1.505   5.296  0.2164 -0.4586 -0.6335
  179SLPC  H18X20452   6.984   1.541   5.336 -0.4283  0.6034  0.0301
  179SLPC  H18Y20453   6.849   1.406   5.333  1.9539 -0.0220  2.7431
  179SLPC  H18Z20454   6.820   1.580   5.343  0.0942 -0.3457 -0.9901
  180SLPC     N20455   3.640   1.813   2.529 -0.8018 -1.0119 -0.6874
  180SLPC   C1320456   3.518   1.889   2.578 -0.8792  0.5707  0.2158
  180SLPC  H13A20457   3.469   1.830   2.654 -0.4125 -1.7939 -1.2076
  180SLPC  H13B20458   3.545   1.986   2.616 -0.1508  1.3775 -2.1932
  180SLPC  H13C20459   3.447   1.909   2.500 -1.7229 -1.3346  0.4309
  180SLPC   C1420460   3.724   1.913   2.448  0.2162  0.5654 -0.6646
  180SLPC  H14A20461   3.821   1.869   2.431 -0.0442 -0.4147  0.2743
  180SLPC  H14B20462   3.683   1.940   2.352  0.5444  2.1241 -0.3982
  180SLPC  H14C20463   3.735   2.004   2.506  2.0725 -0.5132  0.8139
  180SLPC   C1520464   3.601   1.712   2.428  0.1742  0.2717  0.1452
  180SLPC  H15A20465   3.535   1.742   2.348 -2.0515 -0.2169  1.7047
  180SLPC  H15B20466   3.691   1.672   2.384  0.2244 -1.0747  1.3791
  180SLPC  H15C20467   3.546   1.630   2.472 -0.1800  1.2730  1.6236
  180SLPC   C1220468   3.720   1.750   2.635  0.5121  0.2681  0.7146
  180SLPC  H12A20469   3.791   1.680   2.595 -1.2431 -0.5917 -1.1167
  180SLPC  H12B20470   3.662   1.683   2.697 -0.4704  2.2318  2.0306
  180SLPC   C1120471   3.785   1.849   2.743 -0.0233  0.3131  0.2100
  180SLPC  H11A20472   3.818   1.789   2.830 -0.5426  1.6171  1.3385
  180SLPC  H11B20473   3.712   1.919   2.788  1.6100  1.7824  0.6952
  180SLPC     P20474   4.028   1.865   2.678 -0.2578  0.2768  0.4682
  180SLPC   O1320475   4.030   1.751   2.582 -0.0576 -0.0423 -0.1272
  180SLPC   O1420476   4.121   1.973   2.646 -0.1160  0.1711  0.3752
  180SLPC   O1220477   3.887   1.928   2.687  0.1902 -0.0622  0.3943
  180SLPC   O1120478   4.050   1.824   2.824  0.4530  0.7234  0.2428
  180SLPC    C120479   4.129   1.706   2.854 -0.4910 -0.3586 -0.4992
  180SLPC    HA20480   4.195   1.661   2.777  1.8613  1.5411  0.2669
  180SLPC    HB20481   4.187   1.730   2.946  0.6278  0.1899 -1.3295
  180SLPC    C220482   4.025   1.588   2.886  0.2874  0.2161 -1.0254
  180SLPC    HS20483   3.960   1.595   2.796 -0.4503  2.0893 -0.3920
  180SLPC   O2120484   3.955   1.614   3.008  0.0855 -0.1997  0.1537
  180SLPC   C2120485   3.833   1.584   3.004  0.4515  0.0434 -0.2699
  180SLPC   O2220486   3.765   1.541   2.914 -0.3607 -0.1444 -0.4018
  180SLPC   C2220487   3.777   1.633   3.138  0.1135  0.0395  0.3135
  180SLPC   H2R20488   3.803   1.741   3.145  0.2001  0.1490 -1.3018
  180SLPC   H2S20489   3.669   1.609   3.135  0.0803  0.1157  0.8199
  180SLPC    C320490   4.090   1.451   2.887 -0.2990 -0.4087  0.6040
  180SLPC    HX20491   4.150   1.427   2.796 -2.8572  0.8212 -1.5319
  180SLPC    HY20492   4.008   1.376   2.886 -0.5488 -0.1430  1.1404
  180SLPC   O3120493   4.174   1.431   3.006  0.2190 -0.4968  1.0669
  180SLPC   C3120494   4.184   1.309   3.055 -0.5818 -0.0966 -0.6612
  180SLPC   O3220495   4.120   1.216   3.013  0.6319  0.1743  0.5217
  180SLPC   C3220496   4.277   1.302   3.175  0.2226 -0.3377  0.1873
  180SLPC   H2X20497   4.285   1.402   3.221  1.8859  0.2159 -1.1990
  180SLPC   H2Y20498   4.381   1.278   3.146 -0.4253 -0.2401 -2.5122
  180SLPC   C2320499   3.837   1.541   3.250 -0.3845 -0.2540  0.0454
  180SLPC   H3R20500   3.846   1.433   3.224  3.2875 -0.0608 -0.0447
  180SLPC   H3S20501   3.768   1.557   3.335 -0.9949  2.4923 -0.8832
  180SLPC   C2420502   3.971   1.606   3.304  0.4907  0.0675  0.1201
  180SLPC   H4R20503   3.961   1.716   3.298  1.1124  0.0672 -1.1097
  180SLPC   H4S20504   4.059   1.586   3.239  0.0137 -0.5541 -0.3505
  180SLPC   C2520505   4.012   1.558   3.444  0.0343  0.2135  0.0069
  180SLPC   H5R20506   4.017   1.448   3.433  0.9163  0.3381 -1.0185
  180SLPC   H5S20507   3.932   1.584   3.517  0.3907  0.9693  0.1353
  180SLPC   C2620508   4.141   1.611   3.492  0.0627 -0.3096 -0.1871
  180SLPC   H6R20509   4.122   1.721   3.487  0.7044 -0.1064  1.3816
  180SLPC   H6S20510   4.227   1.586   3.426  1.9683  2.5183  1.0212
  180SLPC   C2720511   4.198   1.568   3.622  0.3934 -0.5183  0.2911
  180SLPC   H7R20512   4.281   1.640   3.641 -0.2293  0.3681 -0.2925
  180SLPC   H7S20513   4.222   1.459   3.620 -1.7526 -1.0342  0.0212
  180SLPC   C2820514   4.103   1.590   3.736  0.1506  0.1615 -0.1804
  180SLPC   H8R20515   4.025   1.512   3.726 -0.3801  0.8626 -1.8078
  180SLPC   H8S20516   4.062   1.692   3.720  2.3487  1.1623  0.1188
  180SLPC   C2920517   4.175   1.575   3.867 -0.0851  0.1886 -0.5391
  180SLPC   H9R20518   4.246   1.657   3.886  0.3688 -0.0601 -1.1000
  180SLPC  C21020519   4.183   1.460   3.940 -0.3746  0.0424  0.1807
  180SLPC  H10R20520   4.243   1.463   4.032 -0.2057  1.3280  0.0536
  180SLPC  C21120521   4.101   1.337   3.911  0.6336 -0.3496  0.1639
  180SLPC  H11R20522   4.164   1.251   3.880  1.4620  0.3787 -0.2175
  180SLPC  H11S20523   4.036   1.350   3.822  1.8416 -1.7713 -0.9879
  180SLPC  C21220524   4.019   1.278   4.026  0.3814  0.3656 -0.4052
  180SLPC  H12R20525   3.909   1.286   4.018  0.5249  3.2481 -0.6017
  180SLPC  C21320526   4.065   1.224   4.144 -0.0424  0.2104 -0.3235
  180SLPC  H13R20527   3.998   1.177   4.218  1.7132  0.2831  1.3805
  180SLPC  C21420528   4.213   1.221   4.185 -0.3610  0.1324  0.4492
  180SLPC  H14R20529   4.281   1.269   4.111 -1.7068  0.4493 -0.6247
  180SLPC  H14S20530   4.257   1.120   4.171  2.3593  1.5650 -2.7647
  180SLPC  C21520531   4.234   1.282   4.329  0.0598 -0.3012 -0.0934
  180SLPC  H15R20532   4.184   1.381   4.335  1.1864  0.3164 -0.4268
  180SLPC  H15S20533   4.344   1.295   4.344 -0.2035 -0.0284  1.8124
  180SLPC  C21620534   4.185   1.183   4.429  0.4117  0.9045  0.1022
  180SLPC  H16R20535   4.252   1.095   4.416  1.6627  1.8511 -0.0315
  180SLPC  H16S20536   4.081   1.145   4.416  0.7138  0.3010 -0.6130
  180SLPC  C21720537   4.204   1.238   4.580 -0.4257  0.1727 -0.7316
  180SLPC  H17R20538   4.177   1.154   4.649  0.9885 -0.2509 -0.6536
  180SLPC  H17S20539   4.126   1.314   4.599 -1.1654 -0.9707  1.1043
  180SLPC  C21820540   4.337   1.301   4.615 -0.2575 -0.0732  0.6642
  180SLPC  H18R20541   4.351   1.287   4.724  1.9673 -0.0066  0.4269
  180SLPC  H18S20542   4.347   1.408   4.590 -0.5374 -0.3074 -0.5379
  180SLPC  H18T20543   4.425   1.248   4.572  0.1066  1.1408 -0.1388
  180SLPC   C3320544   4.239   1.191   3.282  0.3591 -0.0817  0.7344
  180SLPC   H3X20545   4.247   1.094   3.229 -3.1069  0.1485 -0.4690
  180SLPC   H3Y20546   4.138   1.215   3.321  1.6194  1.4193  3.3785
  180SLPC   C3420547   4.333   1.200   3.402 -0.0325 -0.0834  0.5645
  180SLPC   H4X20548   4.345   1.309   3.418  0.7223  0.2800 -2.0336
  180SLPC   H4Y20549   4.426   1.151   3.366 -0.9115 -0.0592 -1.9894
  180SLPC   C3520550   4.282   1.118   3.518  0.1604 -0.6803  0.5852
  180SLPC   H5X20551   4.271   1.012   3.488 -0.7272 -0.8975  1.5967
  180SLPC   H5Y20552   4.180   1.154   3.545  1.0666  4.0553 -1.2548
  180SLPC   C3620553   4.368   1.128   3.634 -0.0886  0.2433 -0.1622
  180SLPC   H6X20554   4.376   1.233   3.669 -0.6892  0.0611  0.5480
  180SLPC   H6Y20555   4.468   1.094   3.600  0.2055  0.3427  0.5732
  180SLPC   C3720556   4.331   1.040   3.754 -0.1581 -0.3646 -0.6828
  180SLPC   H7X20557   4.321   0.933   3.725  1.1478 -0.8111  0.4211
  180SLPC   H7Y20558   4.239   1.066   3.811  0.2961  0.6780 -0.4163
  180SLPC   C3820559   4.442   1.045   3.867  0.1909 -0.3857 -0.4102
  180SLPC   H8X20560   4.443   1.148   3.910 -0.9537 -0.6453  0.2949
  180SLPC   H8Y20561   4.538   1.038   3.812  1.3860 -0.1206  1.5406
  180SLPC   C3920562   4.426   0.935   3.975 -0.7737  0.3403 -0.8783
  180SLPC   H9X20563   4.426   0.832   3.934 -0.0324  0.0846 -0.2457
  180SLPC   H9Y20564   4.330   0.950   4.028 -0.9066  2.5294 -1.6296
  180SLPC  C31020565   4.559   0.934   4.058  0.5162 -0.1355  0.4713
  180SLPC  H10X20566   4.581   1.034   4.102  1.8920 -0.1470 -0.1132
  180SLPC  H10Y20567   4.648   0.907   3.997 -0.8165 -3.0695 -0.3236
  180SLPC  C31120568   4.538   0.828   4.171  0.1257 -0.7875 -0.0197
  180SLPC  H11X20569   4.560   0.731   4.122  2.6873 -0.1493 -0.3268
  180SLPC  H11Y20570   4.432   0.840   4.200  0.6437  0.3249  1.5775
  180SLPC  C31220571   4.631   0.848   4.295 -0.5737 -0.2434  0.5884
  180SLPC  H12X20572   4.635   0.959   4.306 -0.9090  0.4250 -4.1603
  180SLPC  H12Y20573   4.735   0.824   4.263 -0.9293 -0.4839 -0.4277
  180SLPC  C31320574   4.585   0.783   4.422  0.6522  0.2581 -0.1131
  180SLPC  H13X20575   4.612   0.676   4.436 -1.7293 -0.1218  2.5688
  180SLPC  H13Y20576   4.474   0.786   4.416  0.6981 -0.6827 -2.2412
  180SLPC  C31420577   4.610   0.871   4.549 -0.2491  0.3511 -0.0747
  180SLPC  H14X20578   4.565   0.972   4.538 -0.7585  0.2192  0.7257
  180SLPC  H14Y20579   4.720   0.875   4.562  0.1819 -0.9004 -2.7372
  180SLPC  C31520580   4.545   0.801   4.668  0.0194  0.3718  0.0781
  180SLPC  H15X20581   4.591   0.704   4.698 -2.2139 -0.1613  2.0134
  180SLPC  H15Y20582   4.445   0.778   4.627 -0.1813  1.2951  0.0391
  180SLPC  C31620583   4.537   0.885   4.794 -0.5247  0.4876  0.0936
  180SLPC  H16X20584   4.639   0.892   4.838  0.2003 -1.8303 -1.0371
  180SLPC  H16Y20585   4.484   0.824   4.871  2.5119 -0.1187  1.8876
  180SLPC  C31720586   4.485   1.023   4.786  0.1116 -0.0377 -0.2251
  180SLPC  H17X20587   4.380   1.010   4.753 -0.1932  2.7063 -0.5050
  180SLPC  H17Y20588   4.542   1.087   4.716 -0.2645  1.2184  0.5689
  180SLPC  C31820589   4.492   1.090   4.926  0.3420  0.8975 -0.3713
  180SLPC  H18X20590   4.592   1.084   4.975 -0.0700 -0.4380  0.3588
  180SLPC  H18Y20591   4.438   1.023   4.995 -0.3503 -0.8761 -2.5216
  180SLPC  H18Z20592   4.459   1.196   4.933 -0.3816  0.6152  0.6653
  181SLPC     N20593   1.913   0.365   2.581  0.3780  0.6073  0.2798
  181SLPC   C1320594   2.017   0.280   2.640  0.0297  0.5938  0.7805
  181SLPC  H13A20595   2.059   0.314   2.734  0.0206 -0.3543  1.1425
  181SLPC  H13B20596   1.974   0.181   2.649 -0.4514  0.5667 -1.3460
  181SLPC  H13C20597   2.103   0.261   2.578 -0.2168  0.1657  0.5631
  181SLPC   C1420598   1.798   0.356   2.673 -0.3138  0.3560  0.8814
  181SLPC  H14A20599   1.830   0.406   2.763  1.1608  0.3917  0.3591
  181SLPC  H14B20600   1.710   0.402   2.629  0.9642 -0.1341 -2.4818
  181SLPC  H14C20601   1.782   0.252   2.696  2.1076 -0.3843 -0.5384
  181SLPC   C1520602   1.875   0.318   2.443  0.0708 -0.0909 -0.9722
  181SLPC  H15A20603   1.853   0.213   2.452 -1.5132 -0.0038 -3.0509
  181SLPC  H15B20604   1.781   0.357   2.406 -0.2774 -1.1213 -1.2019
  181SLPC  H15C20605   1.957   0.340   2.376  1.1036 -2.5225 -0.5841
  181SLPC   C1220606   1.951   0.514   2.571 -0.2894 -0.2997 -1.0102
  181SLPC  H12A20607   1.859   0.569   2.556  0.1966  0.4748 -1.1933
  181SLPC  H12B20608   2.010   0.545   2.486 -1.3895  1.4826 -1.1731
  181SLPC   C1120609   2.008   0.580   2.705  0.6136  0.0897  0.9333
  181SLPC  H11A20610   2.020   0.688   2.682 -0.3567 -0.4429 -2.9074
  181SLPC  H11B20611   2.110   0.538   2.699  0.4662 -0.5743  2.6006
  181SLPC     P20612   2.014   0.525   2.960  0.2960  0.0264  0.0477
  181SLPC   O1320613   1.926   0.504   3.074  0.6152 -0.0919 -0.4964
  181SLPC   O1420614   2.108   0.416   2.922 -1.0134  0.4116 -0.5063
  181SLPC   O1220615   1.933   0.562   2.824  0.3163 -0.1845 -0.8154
  181SLPC   O1120616   2.102   0.653   2.985  0.3803 -0.1255  0.2845
  181SLPC    C120617   2.065   0.790   2.996  0.3188  0.5026  0.5324
  181SLPC    HA20618   2.128   0.860   2.938  0.8810  1.3601  2.1117
  181SLPC    HB20619   1.958   0.811   2.977  0.2404 -2.0595 -2.7527
  181SLPC    C220620   2.097   0.844   3.145  0.1416  0.1079 -0.3907
  181SLPC    HS20621   2.112   0.954   3.135  1.9631 -0.1068 -0.3290
  181SLPC   O2120622   2.203   0.775   3.216  0.4166  0.2771 -0.2793
  181SLPC   C2120623   2.313   0.762   3.149 -0.2101  0.1920  0.2747
  181SLPC   O2220624   2.345   0.838   3.057 -0.5443  0.3328  0.2548
  181SLPC   C2220625   2.400   0.650   3.207 -0.1644 -0.2982 -0.0569
  181SLPC   H2R20626   2.348   0.602   3.293  0.7408  0.6314  1.0362
  181SLPC   H2S20627   2.410   0.581   3.121 -1.4768  1.2332 -1.5033
  181SLPC    C320628   1.958   0.823   3.218 -0.5090  0.3713  0.3667
  181SLPC    HX20629   1.947   0.714   3.197  2.0972  0.0297  0.4720
  181SLPC    HY20630   1.877   0.878   3.165  1.0421  0.9551 -1.5384
  181SLPC   O3120631   1.956   0.856   3.360 -0.5298 -0.0452 -0.3723
  181SLPC   C3120632   1.924   0.775   3.450 -0.6110 -0.2691 -0.2195
  181SLPC   O3220633   1.886   0.660   3.441  0.0976 -0.1148 -0.0045
  181SLPC   C3220634   1.953   0.852   3.588  0.1753 -0.2246  0.4360
  181SLPC   H2X20635   1.972   0.959   3.567  0.8512 -0.4210  0.0141
  181SLPC   H2Y20636   2.043   0.806   3.635  0.4168 -0.5509 -0.3306
  181SLPC   C2320637   2.541   0.695   3.251 -0.4878  0.0062  0.0083
  181SLPC   H3R20638   2.592   0.736   3.160 -1.7344  2.0248  0.1617
  181SLPC   H3S20639   2.596   0.603   3.280 -0.6280 -0.6912 -1.8156
  181SLPC   C2420640   2.535   0.809   3.358 -0.1718 -0.6424 -0.0409
  181SLPC   H4R20641   2.483   0.902   3.327  0.5877  0.2538  1.2738
  181SLPC   H4S20642   2.641   0.837   3.375 -0.4518  1.3032 -1.2210
  181SLPC   C2520643   2.466   0.773   3.486  0.2022 -0.8481 -0.3889
  181SLPC   H5R20644   2.492   0.671   3.520 -1.0665 -0.8805  0.5148
  181SLPC   H5S20645   2.356   0.766   3.475  0.2487 -1.4082 -0.5043
  181SLPC   C2620646   2.504   0.872   3.601  0.4050  0.5667  0.1151
  181SLPC   H6R20647   2.458   0.970   3.576 -0.6251 -0.5266 -2.6953
  181SLPC   H6S20648   2.611   0.876   3.628 -0.0247  1.0860  1.8786
  181SLPC   C2720649   2.425   0.821   3.729 -0.0600  0.3910 -0.5946
  181SLPC   H7R20650   2.458   0.722   3.767 -0.5314 -0.0999 -1.4117
  181SLPC   H7S20651   2.319   0.801   3.699 -0.0914 -3.2468  1.3586
  181SLPC   C2820652   2.427   0.929   3.841  0.1615  0.3190 -0.3852
  181SLPC   H8R20653   2.414   1.030   3.795  0.0866 -0.2686 -1.6915
  181SLPC   H8S20654   2.528   0.923   3.886 -0.3807 -0.0049  0.8239
  181SLPC   C2920655   2.323   0.904   3.948 -0.2948  0.5046 -0.2735
  181SLPC   H9R20656   2.219   0.936   3.928 -0.5778 -0.3986 -0.3305
  181SLPC  C21020657   2.344   0.822   4.054 -0.2692  0.2536  0.1696
  181SLPC  H10R20658   2.259   0.816   4.124  0.4774  1.7797  1.2624
  181SLPC  C21120659   2.472   0.741   4.082  0.4912 -0.6474 -0.5424
  181SLPC  H11R20660   2.565   0.799   4.103  0.4665 -1.0262  0.6939
  181SLPC  H11S20661   2.490   0.680   3.991 -2.2237  0.7825 -2.1616
  181SLPC  C21220662   2.457   0.648   4.202 -1.0632  0.6492 -0.3235
  181SLPC  H12R20663   2.448   0.540   4.186 -0.3374  0.3446  1.1774
  181SLPC  C21320664   2.451   0.684   4.330  0.3611  0.8427 -0.7088
  181SLPC  H13R20665   2.444   0.606   4.407 -0.1860  0.8966 -0.6987
  181SLPC  C21420666   2.478   0.828   4.381  0.3870 -0.5944  0.1536
  181SLPC  H14R20667   2.391   0.877   4.431 -0.4014 -0.3304 -1.4247
  181SLPC  H14S20668   2.498   0.891   4.292  2.3049  1.1211  1.7031
  181SLPC  C21520669   2.606   0.843   4.466 -0.4923 -1.1202 -0.1900
  181SLPC  H15R20670   2.644   0.947   4.453 -0.1904 -1.2173 -0.1067
  181SLPC  H15S20671   2.681   0.774   4.420 -1.5518 -4.1601  2.2616
  181SLPC  C21620672   2.603   0.825   4.613 -0.4464  0.6735 -0.3259
  181SLPC  H16R20673   2.547   0.912   4.653  1.0344  2.1347 -1.2787
  181SLPC  H16S20674   2.707   0.835   4.651 -0.0098  1.3893 -1.6289
  181SLPC  C21720675   2.543   0.690   4.657  0.4634  0.3090  0.0863
  181SLPC  H17R20676   2.445   0.674   4.607  0.3395 -0.9603  0.6888
  181SLPC  H17S20677   2.506   0.718   4.758 -3.0147  0.6471 -1.1519
  181SLPC  C21820678   2.628   0.564   4.672 -0.4702 -0.2697 -0.0171
  181SLPC  H18R20679   2.592   0.486   4.742  2.0509 -0.6730  0.9479
  181SLPC  H18S20680   2.727   0.588   4.717 -1.4956  2.7264  0.9352
  181SLPC  H18T20681   2.648   0.522   4.572  1.1094  3.0950 -1.2769
  181SLPC   C3320682   1.827   0.836   3.683 -0.0510  0.2972 -0.3935
  181SLPC   H3X20683   1.813   0.733   3.722  0.2712  0.5509  0.4241
  181SLPC   H3Y20684   1.735   0.867   3.630 -0.8550  0.0920  0.8381
  181SLPC   C3420685   1.825   0.927   3.806 -0.4343 -0.2110  0.5367
  181SLPC   H4X20686   1.736   0.906   3.870  0.3268 -1.8985  1.1033
  181SLPC   H4Y20687   1.809   1.030   3.769 -2.0689 -0.3381  0.8163
  181SLPC   C3520688   1.949   0.933   3.896 -0.6196 -0.1414 -0.2948
  181SLPC   H5X20689   2.027   0.990   3.840 -0.3627  1.5048  1.6264
  181SLPC   H5Y20690   1.990   0.833   3.923  0.0239 -0.1160 -1.1281
  181SLPC   C3620691   1.927   1.012   4.028  0.2726 -0.0423  0.1569
  181SLPC   H6X20692   1.853   0.951   4.085  2.2119 -1.4012  1.3501
  181SLPC   H6Y20693   1.871   1.103   3.999  0.2595 -0.7275 -2.2253
  181SLPC   C3720694   2.056   1.015   4.104 -0.1855 -0.1387 -0.4628
  181SLPC   H7X20695   2.127   1.084   4.054  0.3039 -0.7537 -0.6337
  181SLPC   H7Y20696   2.099   0.913   4.117 -0.9362 -0.2452  1.3997
  181SLPC   C3820697   2.032   1.075   4.249 -0.2040  0.5956  0.0214
  181SLPC   H8X20698   1.974   1.169   4.248 -1.8994 -0.3924  1.1731
  181SLPC   H8Y20699   2.130   1.111   4.287  1.4724 -2.1185 -1.3975
  181SLPC   C3920700   1.978   0.968   4.347 -0.4828  0.6738 -0.7137
  181SLPC   H9X20701   1.930   0.880   4.298  1.8841 -1.6666  0.8943
  181SLPC   H9Y20702   1.892   1.008   4.405 -0.0335 -1.1378  1.3381
  181SLPC  C31020703   2.078   0.912   4.443 -0.4940 -0.0473 -0.6341
  181SLPC  H10X20704   2.118   0.997   4.503 -0.5152  0.8237 -1.8215
  181SLPC  H10Y20705   2.170   0.879   4.389 -0.1044  0.3656 -0.2362
  181SLPC  C31120706   2.025   0.818   4.544 -0.2144  0.3480  0.5840
  181SLPC  H11X20707   2.105   0.767   4.602 -0.4018 -0.4782  0.1366
  181SLPC  H11Y20708   1.975   0.730   4.498  1.5562 -0.5071  0.1892
  181SLPC  C31220709   1.928   0.878   4.643  0.3176  0.0666  0.7158
  181SLPC  H12X20710   1.825   0.837   4.631  0.8262 -0.7247 -1.3418
  181SLPC  H12Y20711   1.933   0.989   4.635  0.8454  0.0955  1.3326
  181SLPC  C31320712   1.963   0.849   4.784  0.4998 -0.0441  0.2759
  181SLPC  H13X20713   2.063   0.897   4.793  1.5714 -1.9579 -0.8525
  181SLPC  H13Y20714   1.986   0.741   4.789  0.8224  0.0281  0.3704
  181SLPC  C31420715   1.863   0.898   4.890  0.2495 -0.1700 -0.1530
  181SLPC  H14X20716   1.763   0.854   4.871  0.1338  0.6957 -1.6640
  181SLPC  H14Y20717   1.848   1.004   4.862  1.3037 -0.9517 -4.3110
  181SLPC  C31520718   1.902   0.879   5.038  0.0249  0.1416  0.2897
  181SLPC  H15X20719   1.999   0.922   5.070  0.5866 -0.7296 -0.2356
  181SLPC  H15Y20720   1.908   0.772   5.067  0.1343  0.5134  1.7249
  181SLPC  C31620721   1.801   0.958   5.131 -0.3073 -0.1348 -0.3443
  181SLPC  H16X20722   1.702   0.919   5.098 -0.0376 -0.6029 -0.6249
  181SLPC  H16Y20723   1.814   1.066   5.108  0.5250 -0.5953 -2.2692
  181SLPC  C31720724   1.818   0.929   5.278 -0.5389  0.1552 -0.0754
  181SLPC  H17X20725   1.903   0.994   5.308 -0.3414 -0.3182  0.4122
  181SLPC  H17Y20726   1.833   0.819   5.291 -1.6455 -0.2006 -1.5439
  181SLPC  C31820727   1.702   0.962   5.372 -0.1695  0.6918 -0.4479
  181SLPC  H18X20728   1.735   0.920   5.470  1.2108 -0.4705 -1.3602
  181SLPC  H18Y20729   1.606   0.912   5.346  0.1644 -1.7437  2.4585
  181SLPC  H18Z20730   1.683   1.071   5.378 -0.7315  0.5530  0.4765
  182SLPC     N20731   0.654   3.019   2.565 -0.5903  0.0698 -0.0460
  182SLPC   C1320732   0.604   3.146   2.601  0.2152  0.8072  0.8741
  182SLPC  H13A20733   0.610   3.216   2.519 -2.2009  0.5446  0.3888
  182SLPC  H13B20734   0.500   3.140   2.631  0.7395  0.0796  2.6280
  182SLPC  H13C20735   0.641   3.189   2.692 -1.2684  1.1110  1.3708
  182SLPC   C1420736   0.793   3.030   2.497  0.2667  0.3061 -0.0242
  182SLPC  H14A20737   0.838   2.931   2.497 -0.7642 -0.1764 -0.1026
  182SLPC  H14B20738   0.789   3.058   2.392 -1.7281 -1.8953 -0.6288
  182SLPC  H14C20739   0.871   3.074   2.558  0.1248 -1.2710  1.3613
  182SLPC   C1520740   0.564   2.945   2.473 -0.7499  0.6465  0.3189
  182SLPC  H15A20741   0.485   2.902   2.532 -0.0436 -1.3222 -0.0639
  182SLPC  H15B20742   0.525   3.005   2.391 -0.2031 -0.0318 -0.4623
  182SLPC  H15C20743   0.617   2.858   2.435 -0.8801  1.1407 -1.0435
  182SLPC   C1220744   0.664   2.936   2.696 -0.6017  0.3229  0.2922
  182SLPC  H12A20745   0.728   2.998   2.757  0.2284  0.2268 -0.4640
  182SLPC  H12B20746   0.713   2.841   2.682  1.0861  0.6837  2.9863
  182SLPC   C1120747   0.534   2.910   2.778 -0.3900  0.4993  0.6158
  182SLPC  H11A20748   0.479   3.001   2.810 -1.6060  0.8595 -2.2026
  182SLPC  H11B20749   0.560   2.873   2.880  0.7163  2.9076  1.2683
  182SLPC     P20750   0.460   2.675   2.701 -0.1262  0.3557  0.0025
  182SLPC   O1320751   0.337   2.611   2.643 -0.7446  0.3523  0.1749
  182SLPC   O1420752   0.590   2.628   2.656 -0.2451 -0.1077 -0.0335
  182SLPC   O1220753   0.447   2.826   2.708  0.7862  0.6417  0.5314
  182SLPC   O1120754   0.455   2.637   2.856 -0.0467 -0.5466  0.3682
  182SLPC    C120755   0.328   2.675   2.915 -0.1539  0.6398  0.0640
  182SLPC    HA20756   0.319   2.785   2.899 -1.1435  0.3926 -1.2624
  182SLPC    HB20757   0.243   2.625   2.863 -0.2898  1.7566 -0.8352
  182SLPC    C220758   0.329   2.658   3.068 -0.0791 -0.0739  0.0307
  182SLPC    HS20759   0.356   2.553   3.093  0.7805  0.8023  3.3910
  182SLPC   O2120760   0.201   2.700   3.117  0.2174 -0.0255  0.1379
  182SLPC   C2120761   0.136   2.616   3.189  0.2495  0.2843 -0.0890
  182SLPC   O2220762   0.173   2.505   3.225  0.2367  0.3882 -0.2937
  182SLPC   C2220763  -0.006   2.653   3.214 -0.0119 -0.8388  0.3316
  182SLPC   H2R20764  -0.025   2.756   3.175  2.9290 -0.4660 -0.3935
  182SLPC   H2S20765  -0.072   2.585   3.157 -0.7136 -0.2352  0.4139
  182SLPC    C320766   0.435   2.750   3.140  0.1678  0.5706 -0.0121
  182SLPC    HX20767   0.391   2.847   3.110 -0.4367  0.1052 -0.6599
  182SLPC    HY20768   0.534   2.741   3.090 -0.8735 -0.9289 -1.8992
  182SLPC   O3120769   0.449   2.734   3.287 -0.4953  0.1650 -0.2825
  182SLPC   C3120770   0.497   2.625   3.338  0.1162 -0.4042 -0.3283
  182SLPC   O3220771   0.550   2.531   3.278 -0.2789 -0.5204  0.3207
  182SLPC   C3220772   0.484   2.626   3.493 -1.0505  0.7571  0.3289
  182SLPC   H2X20773   0.381   2.616   3.533 -0.2943 -1.4012  1.8709
  182SLPC   H2Y20774   0.517   2.727   3.525 -1.3415  1.3650 -1.1659
  182SLPC   C2320775  -0.037   2.645   3.367  0.2964 -0.0854 -0.1523
  182SLPC   H3R20776   0.012   2.552   3.400 -0.0757 -1.0154 -2.0835
  182SLPC   H3S20777  -0.148   2.637   3.374  0.3230 -1.4517 -0.9979
  182SLPC   C2420778   0.034   2.758   3.442  0.3928 -0.1996 -0.7843
  182SLPC   H4R20779  -0.026   2.848   3.418  1.6711  0.9686  0.2457
  182SLPC   H4S20780   0.134   2.768   3.394 -0.0147 -2.7132 -2.3563
  182SLPC   C2520781   0.050   2.730   3.592  0.5603 -0.1064 -0.0026
  182SLPC   H5R20782   0.136   2.786   3.634  0.1803 -0.6596  1.6219
  182SLPC   H5S20783   0.084   2.624   3.601  2.3543  0.4791  0.4190
  182SLPC   C2620784  -0.079   2.767   3.669  0.3774 -0.1777 -0.1110
  182SLPC   H6R20785  -0.169   2.707   3.643 -0.1028  0.8655 -0.9327
  182SLPC   H6S20786  -0.115   2.864   3.629 -0.9264 -1.3204 -1.8848
  182SLPC   C2720787  -0.047   2.781   3.816 -0.5622 -0.0922 -0.5144
  182SLPC   H7R20788   0.039   2.851   3.821 -0.5950 -0.1487  3.1166
  182SLPC   H7S20789  -0.010   2.685   3.858 -2.8267 -0.2603  1.2526
  182SLPC   C2820790  -0.162   2.830   3.911  0.0963  0.1992  0.6166
  182SLPC   H8R20791  -0.252   2.776   3.875 -0.1955  2.3400 -2.2240
  182SLPC   H8S20792  -0.173   2.937   3.881 -0.5500  0.4455  1.6847
  182SLPC   C2920793  -0.137   2.807   4.059 -0.0122  0.0849 -0.0490
  182SLPC   H9R20794  -0.101   2.895   4.113  4.2825 -0.6521 -1.3489
  182SLPC  C21020795  -0.176   2.699   4.124 -0.3168  0.4103  0.0859
  182SLPC  H10R20796  -0.148   2.691   4.230 -1.2608  1.1486  0.4118
  182SLPC  C21120797  -0.236   2.566   4.077 -0.8059 -0.5263 -0.6933
  182SLPC  H11R20798  -0.211   2.543   3.971 -3.0005 -1.3490 -1.1012
  182SLPC  H11S20799  -0.347   2.578   4.082 -0.5562  1.5607  2.1162
  182SLPC  C21220800  -0.191   2.442   4.155 -0.2666 -0.1026 -0.1394
  182SLPC  H12R20801  -0.226   2.447   4.259 -0.8346  2.1326 -0.3848
  182SLPC  C21320802  -0.114   2.340   4.113 -0.0283  0.1474  0.2276
  182SLPC  H13R20803  -0.086   2.262   4.187 -0.9287  0.6567  1.1276
  182SLPC  C21420804  -0.048   2.333   3.983 -0.2693  0.1139  0.8378
  182SLPC  H14R20805  -0.109   2.375   3.900 -0.5614 -2.2508 -0.2309
  182SLPC  H14S20806  -0.033   2.224   3.964 -0.4825  0.0089  1.2492
  182SLPC  C21520807   0.074   2.421   3.966 -1.0553  0.2845  0.4486
  182SLPC  H15R20808   0.154   2.385   4.034 -0.5347 -0.1134 -0.3466
  182SLPC  H15S20809   0.040   2.524   3.990 -2.4284 -0.2116  0.7340
  182SLPC  C21620810   0.125   2.434   3.818  0.0654  0.0046 -0.3370
  182SLPC  H16R20811   0.196   2.518   3.808 -1.9033  1.8977  0.7087
  182SLPC  H16S20812   0.036   2.478   3.767 -0.0407 -1.2960 -1.3448
  182SLPC  C21720813   0.187   2.308   3.757  0.2505 -0.3022  0.5611
  182SLPC  H17R20814   0.121   2.223   3.786 -1.8927  1.1201  0.0535
  182SLPC  H17S20815   0.288   2.289   3.800  0.8502  0.1295 -0.5927
  182SLPC  C21820816   0.212   2.317   3.604 -0.3265 -0.0205 -0.5700
  182SLPC  H18R20817   0.119   2.355   3.557 -0.8361  2.1481  1.9630
  182SLPC  H18S20818   0.221   2.217   3.558 -2.6514 -0.9830  0.9147
  182SLPC  H18T20819   0.297   2.385   3.582  2.8021 -4.1402 -2.5942
  182SLPC   C3320820   0.578   2.509   3.547  0.3599 -0.0850  0.2311
  182SLPC   H3X20821   0.686   2.516   3.522  0.5247 -0.3193  0.8426
  182SLPC   H3Y20822   0.541   2.408   3.521  1.8231 -1.0418  1.6747
  182SLPC   C3420823   0.565   2.515   3.703 -0.4062 -0.4313 -0.0098
  182SLPC   H4X20824   0.472   2.457   3.719 -0.5472 -1.0478 -2.5359
  182SLPC   H4Y20825   0.551   2.619   3.740  4.1659 -0.4457  2.4083
  182SLPC   C3520826   0.687   2.465   3.772 -0.5849  0.1212 -0.0614
  182SLPC   H5X20827   0.687   2.511   3.874  0.6473  0.0939 -0.0347
  182SLPC   H5Y20828   0.786   2.497   3.733 -0.8260 -0.8153 -1.5242
  182SLPC   C3620829   0.702   2.310   3.780  0.0464  0.4001  0.1153
  182SLPC   H6X20830   0.808   2.291   3.808  0.9798  2.2275 -1.9078
  182SLPC   H6Y20831   0.699   2.278   3.674  1.9997  0.9924 -0.1711
  182SLPC   C3720832   0.597   2.227   3.865 -0.0114  0.3987  0.5424
  182SLPC   H7X20833   0.636   2.126   3.890  1.2344  1.4708  3.4421
  182SLPC   H7Y20834   0.496   2.218   3.819 -0.3975 -0.2972  1.4962
  182SLPC   C3820835   0.577   2.288   4.007 -0.1086  0.3415 -0.1771
  182SLPC   H8X20836   0.495   2.236   4.060  0.1553 -0.1087 -0.2085
  182SLPC   H8Y20837   0.553   2.396   3.991 -0.0642  0.5748  1.1924
  182SLPC   C3920838   0.705   2.282   4.095  0.3416 -0.6829  0.5390
  182SLPC   H9X20839   0.779   2.341   4.036  0.1704 -0.1347  0.8654
  182SLPC   H9Y20840   0.743   2.181   4.122  1.2980 -0.6988 -0.7463
  182SLPC  C31020841   0.697   2.349   4.230  0.2783 -0.2810 -0.3114
  182SLPC  H10X20842   0.659   2.453   4.217  0.4193 -0.5355 -3.7921
  182SLPC  H10Y20843   0.796   2.358   4.279 -1.2356  0.2366  2.9680
  182SLPC  C31120844   0.614   2.272   4.337 -0.1124  0.0500  0.5129
  182SLPC  H11X20845   0.579   2.178   4.290 -1.8212  0.9797 -0.1671
  182SLPC  H11Y20846   0.530   2.335   4.374  0.6618  1.1261  0.4894
  182SLPC  C31220847   0.691   2.249   4.466  0.3878  0.1552 -0.0815
  182SLPC  H12X20848   0.779   2.184   4.445  0.2957 -0.2705  0.7955
  182SLPC  H12Y20849   0.630   2.192   4.539 -0.3875  2.5656  1.2618
  182SLPC  C31320850   0.727   2.387   4.531  0.3340  0.3837  0.7201
  182SLPC  H13X20851   0.636   2.450   4.524 -0.0873 -0.3767 -1.5325
  182SLPC  H13Y20852   0.791   2.449   4.466 -2.5143  2.8785  0.0649
  182SLPC  C31420853   0.799   2.384   4.674  0.4835 -0.5046  0.0531
  182SLPC  H14X20854   0.725   2.326   4.732 -2.0879  1.6906 -0.8032
  182SLPC  H14Y20855   0.805   2.480   4.730 -2.2356 -1.6356  2.4661
  182SLPC  C31520856   0.932   2.312   4.680  0.1673  0.3167  0.3367
  182SLPC  H15X20857   1.007   2.366   4.618 -1.3922 -0.1001 -2.0399
  182SLPC  H15Y20858   0.912   2.216   4.626 -2.3931  0.7971  0.3238
  182SLPC  C31620859   0.982   2.284   4.825 -0.5049 -0.6260  0.2252
  182SLPC  H16X20860   0.907   2.223   4.879 -2.1315  1.2889  0.2362
  182SLPC  H16Y20861   0.973   2.381   4.876  0.4583 -1.3690  1.8833
  182SLPC  C31720862   1.124   2.239   4.841 -0.2666 -0.5502 -0.0598
  182SLPC  H17X20863   1.179   2.326   4.798 -1.0725  0.2217  0.4229
  182SLPC  H17Y20864   1.156   2.149   4.786  1.2828 -0.0982  0.0378
  182SLPC  C31820865   1.186   2.238   4.984  0.7875  0.4372  0.1100
  182SLPC  H18X20866   1.296   2.239   4.975  0.8079  1.0898  0.4189
  182SLPC  H18Y20867   1.154   2.140   5.028  1.6211  0.0067 -0.2322
  182SLPC  H18Z20868   1.143   2.330   5.029 -1.1120  1.1541 -2.8962
  183SLPC     N20869   2.449   3.620   2.421  0.2431  0.3052 -0.5277
  183SLPC   C1320870   2.570   3.697   2.389 -0.4843 -0.7127  0.4202
  183SLPC  H13A20871   2.658   3.641   2.414  0.4246 -1.3650 -3.5836
  183SLPC  H13B20872   2.587   3.704   2.282 -0.9683  0.4114  0.4046
  183SLPC  H13C20873   2.570   3.793   2.438 -0.4348 -0.6633  0.3251
  183SLPC   C1420874   2.464   3.477   2.363 -0.3300 -1.0931  0.1550
  183SLPC  H14A20875   2.469   3.480   2.255 -0.8044  0.4203  0.1443
  183SLPC  H14B20876   2.553   3.434   2.407 -1.5677 -2.0388  1.8786
  183SLPC  H14C20877   2.375   3.416   2.372 -1.2950  0.3619  0.9227
  183SLPC   C1520878   2.334   3.681   2.354  0.2062  0.1257  0.3388
  183SLPC  H15A20879   2.343   3.788   2.344 -0.8276  0.1801 -0.0650
  183SLPC  H15B20880   2.333   3.653   2.249 -1.0137  1.1965  0.0405
  183SLPC  H15C20881   2.236   3.655   2.390  0.4069  0.7404  1.3777
  183SLPC   C1220882   2.423   3.615   2.572  0.2775  0.4106 -0.6800
  183SLPC  H12A20883   2.513   3.571   2.613  0.5417  1.3790 -0.1756
  183SLPC  H12B20884   2.347   3.543   2.599 -1.5871  2.2929 -0.6750
  183SLPC   C1120885   2.395   3.748   2.639 -0.0769 -0.1913  0.1484
  183SLPC  H11A20886   2.348   3.726   2.738  0.1558 -1.5539 -0.0153
  183SLPC  H11B20887   2.335   3.816   2.576  1.6717  1.1411 -0.1470
  183SLPC     P20888   2.619   3.759   2.780  0.1679  0.1062 -0.0978
  183SLPC   O1320889   2.597   3.618   2.811  0.0526 -0.1100  0.0653
  183SLPC   O1420890   2.759   3.791   2.748 -0.1835 -0.3231 -0.8454
  183SLPC   O1220891   2.518   3.817   2.675 -0.2909 -0.1076  0.0222
  183SLPC   O1120892   2.572   3.845   2.904  0.2252 -0.1800  0.0397
  183SLPC    C120893   2.595   3.985   2.903  0.2671 -0.1799  0.4794
  183SLPC    HA20894   2.688   4.012   2.848 -0.3022  1.3850  0.2277
  183SLPC    HB20895   2.515   4.045   2.854  0.6739 -1.0262 -1.3031
  183SLPC    C220896   2.635   4.024   3.045 -0.1878 -0.6638 -0.7572
  183SLPC    HS20897   2.734   3.978   3.065  0.7029  1.5346  0.2451
  183SLPC   O2120898   2.529   3.994   3.136  0.0203  0.4842  0.0788
  183SLPC   C2120899   2.575   3.959   3.250 -0.6563  0.4016  0.3337
  183SLPC   O2220900   2.691   3.951   3.279 -0.5758 -0.0957  0.1428
  183SLPC   C2220901   2.470   3.924   3.356  0.3005  0.1392  0.6391
  183SLPC   H2R20902   2.380   3.987   3.344  0.7243  0.4130 -1.6253
  183SLPC   H2S20903   2.441   3.820   3.328  1.1084  0.0349  0.1271
  183SLPC    C320904   2.646   4.181   3.047  0.2218 -0.5102  0.5683
  183SLPC    HX20905   2.557   4.226   2.999  0.4076 -0.2372  0.4762
  183SLPC    HY20906   2.722   4.224   2.977 -0.8970  0.0894 -0.3088
  183SLPC   O3120907   2.665   4.233   3.180  0.2067 -0.0514  0.2589
  183SLPC   C3120908   2.800   4.257   3.209  0.2517  0.9043 -0.8086
  183SLPC   O3220909   2.892   4.223   3.141 -0.3680 -0.1877 -0.3318
  183SLPC   C3220910   2.812   4.343   3.338  0.5691  0.4906  0.4553
  183SLPC   H2X20911   2.736   4.424   3.333  2.2633  2.1399 -0.2595
  183SLPC   H2Y20912   2.908   4.400   3.329 -0.2940  1.7707 -1.2845
  183SLPC   C2320913   2.525   3.925   3.496 -0.0625  0.2369  0.6887
  183SLPC   H3R20914   2.549   4.028   3.530  0.2299  0.3183  0.2461
  183SLPC   H3S20915   2.611   3.855   3.491 -0.6201 -0.3721 -1.7150
  183SLPC   C2420916   2.436   3.868   3.601 -0.0139 -0.2919 -0.3187
  183SLPC   H4R20917   2.416   3.760   3.581 -2.9451  0.0728  0.1934
  183SLPC   H4S20918   2.336   3.913   3.583  0.1566 -0.1541 -0.9508
  183SLPC   C2520919   2.479   3.900   3.749  0.2568 -0.0685  0.2186
  183SLPC   H5R20920   2.542   3.990   3.764 -0.0632 -0.1754  2.5150
  183SLPC   H5S20921   2.543   3.812   3.774 -1.7606 -1.6682 -0.0100
  183SLPC   C2620922   2.352   3.908   3.848 -0.2606  0.3303 -0.2975
  183SLPC   H6R20923   2.303   3.808   3.836 -2.3675  1.5379 -2.9265
  183SLPC   H6S20924   2.280   3.983   3.807 -0.1492 -0.0855 -1.2975
  183SLPC   C2720925   2.394   3.926   3.991 -0.2532 -0.1352 -0.0547
  183SLPC   H7R20926   2.469   4.008   4.002  0.0572 -0.3858 -0.2808
  183SLPC   H7S20927   2.440   3.833   4.030 -0.1071 -0.9950 -2.1686
  183SLPC   C2820928   2.279   3.963   4.094  0.6668 -0.1716  0.5222
  183SLPC   H8R20929   2.243   4.068   4.084  0.7922 -0.0916  0.9227
  183SLPC   H8S20930   2.337   3.954   4.188  1.4521  3.3936  0.5356
  183SLPC   C2920931   2.157   3.869   4.084 -0.5027  0.3448  0.1899
  183SLPC   H9R20932   2.098   3.881   3.992 -0.8956  0.8754  0.4989
  183SLPC  C21020933   2.132   3.757   4.147  0.4615 -0.0623 -0.9558
  183SLPC  H10R20934   2.038   3.702   4.130 -0.0292  1.1101 -2.2212
  183SLPC  C21120935   2.213   3.700   4.263  0.6253  0.0986  0.0711
  183SLPC  H11R20936   2.184   3.737   4.364  0.9271  0.4200  0.0419
  183SLPC  H11S20937   2.319   3.732   4.261 -0.2423  3.3333 -1.5997
  183SLPC  C21220938   2.201   3.548   4.273 -0.1146  0.0407 -0.2948
  183SLPC  H12R20939   2.118   3.501   4.217  0.6308 -0.7797 -0.7375
  183SLPC  C21320940   2.271   3.457   4.339 -0.2040 -0.5099 -0.0356
  183SLPC  H13R20941   2.240   3.352   4.326 -3.6813  0.2568  1.0036
  183SLPC  C21420942   2.388   3.485   4.424 -0.4521  0.5127 -0.7526
  183SLPC  H14R20943   2.401   3.414   4.508 -2.5619  0.3626 -0.4976
  183SLPC  H14S20944   2.370   3.588   4.461  0.8001  0.8143 -0.9418
  183SLPC  C21520945   2.526   3.492   4.354  0.1804  0.5152 -0.1773
  183SLPC  H15R20946   2.522   3.582   4.289  1.0733 -0.1111 -1.1186
  183SLPC  H15S20947   2.553   3.408   4.287 -0.2378 -0.1210  0.4395
  183SLPC  C21620948   2.629   3.512   4.460 -0.3420  0.5541  0.2103
  183SLPC  H16R20949   2.605   3.594   4.531 -0.4778  0.5185  0.2059
  183SLPC  H16S20950   2.715   3.555   4.404 -0.9162 -0.7274 -1.7473
  183SLPC  C21720951   2.675   3.386   4.542  0.4229 -0.1131  0.4456
  183SLPC  H17R20952   2.691   3.319   4.455 -0.6898  1.4173 -1.0337
  183SLPC  H17S20953   2.596   3.343   4.607  0.0264 -2.9439 -1.7128
  183SLPC  C21820954   2.801   3.405   4.626  0.0226  0.2706 -0.9199
  183SLPC  H18R20955   2.836   3.303   4.654 -0.4639  0.0474 -1.1214
  183SLPC  H18S20956   2.778   3.467   4.716 -0.7958 -1.4942  0.1326
  183SLPC  H18T20957   2.877   3.461   4.568  1.0134  0.2018  0.2820
  183SLPC   C3320958   2.804   4.264   3.472  0.5888  0.9687  0.1690
  183SLPC   H3X20959   2.879   4.184   3.491  0.2233  1.2510  3.4261
  183SLPC   H3Y20960   2.710   4.209   3.451  1.3224  0.4665 -1.9864
  183SLPC   C3420961   2.792   4.332   3.608 -0.5132  0.3212  0.5769
  183SLPC   H4X20962   2.713   4.408   3.593 -0.3163  0.2470 -1.0586
  183SLPC   H4Y20963   2.882   4.388   3.643  0.5695 -2.3591  2.4575
  183SLPC   C3520964   2.750   4.240   3.726 -0.6355  0.6753  0.2700
  183SLPC   H5X20965   2.826   4.163   3.750 -0.5615  0.7611  0.3105
  183SLPC   H5Y20966   2.659   4.182   3.700 -0.7346  0.7265  0.4979
  183SLPC   C3620967   2.732   4.326   3.851 -0.2937  0.1879  0.9101
  183SLPC   H6X20968   2.655   4.399   3.821 -0.8726 -0.5893  0.4691
  183SLPC   H6Y20969   2.832   4.366   3.881  0.3638 -0.6927 -0.0308
  183SLPC   C3720970   2.676   4.244   3.965 -0.0135  0.3238 -0.2429
  183SLPC   H7X20971   2.747   4.160   3.984 -0.1613 -0.3706 -2.4583
  183SLPC   H7Y20972   2.579   4.197   3.936  1.4736 -1.6184 -2.4218
  183SLPC   C3820973   2.654   4.335   4.094  0.5562  0.0423  0.4438
  183SLPC   H8X20974   2.591   4.424   4.071 -0.8110 -0.5163  1.8781
  183SLPC   H8Y20975   2.753   4.367   4.132 -0.1120 -1.4739  3.8029
  183SLPC   C3920976   2.586   4.270   4.215  0.3614 -0.2337  0.6598
  183SLPC   H9X20977   2.653   4.186   4.244 -0.5870 -1.3772 -0.4052
  183SLPC   H9Y20978   2.495   4.213   4.187  0.9608 -1.0870  0.4053
  183SLPC  C31020979   2.552   4.371   4.325 -0.1180  0.0972 -0.1465
  183SLPC  H10X20980   2.470   4.436   4.288  0.0032 -0.9916 -2.5296
  183SLPC  H10Y20981   2.637   4.438   4.351 -0.2165 -0.3719  1.4974
  183SLPC  C31120982   2.503   4.298   4.459 -0.0481 -0.6054  0.6715
  183SLPC  H11X20983   2.457   4.376   4.523  0.6739  0.8257 -0.4859
  183SLPC  H11Y20984   2.594   4.266   4.513  1.6172  0.2467 -1.4885
  183SLPC  C31220985   2.411   4.184   4.439 -0.2025  0.5450 -0.3642
  183SLPC  H12X20986   2.460   4.102   4.381 -0.7470 -1.0878  1.3729
  183SLPC  H12Y20987   2.312   4.205   4.393 -0.6178  0.4406  0.4451
  183SLPC  C31320988   2.389   4.118   4.570  0.4477  0.5340  0.1015
  183SLPC  H13X20989   2.338   4.191   4.637  0.2004  0.8817 -0.4549
  183SLPC  H13Y20990   2.483   4.088   4.621  0.1022  1.1183  1.1149
  183SLPC  C31420991   2.313   3.980   4.559  0.7230  0.5408 -0.8043
  183SLPC  H14X20992   2.379   3.914   4.500  1.1475 -1.2887  1.5693
  183SLPC  H14Y20993   2.215   3.999   4.510 -1.2333 -2.7101  1.4553
  183SLPC  C31520994   2.286   3.899   4.691 -0.2670  0.7264 -0.0798
  183SLPC  H15X20995   2.375   3.850   4.735 -1.6129 -0.2898  1.6651
  183SLPC  H15Y20996   2.223   3.813   4.660  1.0784 -0.2466 -0.1787
  183SLPC  C31620997   2.235   3.985   4.804  0.2702  0.4127 -0.1642
  183SLPC  H16X20998   2.305   4.068   4.827 -1.7097  1.9682  0.6261
  183SLPC  H16Y20999   2.237   3.915   4.890  0.9583  0.6504  0.0168
  183SLPC  C31721000   2.091   4.026   4.800  0.8391 -0.1403 -0.6434
  183SLPC  H17X21001   2.071   4.076   4.703 -1.3827  0.0594 -0.1293
  183SLPC  H17Y21002   2.056   4.096   4.879 -0.2281 -2.4846  1.0831
  183SLPC  C31821003   1.987   3.907   4.813 -0.2081 -0.7565  0.1431
  183SLPC  H18X21004   2.002   3.843   4.723  1.1604  1.4151 -1.2768
  183SLPC  H18Y21005   1.887   3.955   4.813 -0.8383 -1.8708  2.8966
  183SLPC  H18Z21006   1.998   3.846   4.905  2.7133  1.6052  1.5356
  184SLPC     N21007   2.774   5.104   2.450 -0.3736 -0.0280  0.3604
  184SLPC   C1321008   2.681   5.093   2.570  0.3412 -0.3824 -0.4066
  184SLPC  H13A21009   2.583   5.130   2.545  0.9125  1.1394 -0.5106
  184SLPC  H13B21010   2.679   4.996   2.618 -0.6155  0.6933  1.8566
  184SLPC  H13C21011   2.716   5.165   2.642 -1.4102  0.0125  0.0871
  184SLPC   C1421012   2.695   5.030   2.336 -0.5778  1.0332  0.1003
  184SLPC  H14A21013   2.605   5.083   2.309 -0.9864  1.2620  1.7798
  184SLPC  H14B21014   2.749   5.017   2.244 -1.1785  1.0969 -0.2696
  184SLPC  H14C21015   2.672   4.926   2.354  0.1510  0.7765 -0.4358
  184SLPC   C1521016   2.898   5.031   2.480  0.9176  0.6533 -0.1919
  184SLPC  H15A21017   2.968   5.047   2.399  0.7203  3.7008  0.0932
  184SLPC  H15B21018   2.937   5.083   2.567 -0.9570  0.8224  0.5976
  184SLPC  H15C21019   2.874   4.928   2.497  0.6356  0.5761 -1.0296
  184SLPC   C1221020   2.793   5.245   2.403  0.9028  0.3237 -0.0397
  184SLPC  H12A21021   2.692   5.282   2.394 -0.2673 -2.2656  1.3647
  184SLPC  H12B21022   2.847   5.260   2.311  2.6108  1.2038  1.0703
  184SLPC   C1121023   2.854   5.333   2.506  0.0407  0.5352 -0.5421
  184SLPC  H11A21024   2.904   5.415   2.450 -0.6037  0.0194 -1.9170
  184SLPC  H11B21025   2.936   5.282   2.561 -1.7646  0.5900  2.4338
  184SLPC     P21026   2.656   5.493   2.578  0.0299  0.1939 -0.1711
  184SLPC   O1321027   2.710   5.577   2.469  0.3230  0.2096  0.2679
  184SLPC   O1421028   2.524   5.434   2.561 -0.4584  0.4330  0.6739
  184SLPC   O1221029   2.758   5.369   2.609 -0.1963 -0.0037  0.0115
  184SLPC   O1121030   2.651   5.573   2.715 -0.1320 -0.2177 -0.4475
  184SLPC    C121031   2.763   5.574   2.806  0.5657  0.0192 -0.1007
  184SLPC    HA21032   2.863   5.554   2.761  1.6798 -2.6900  3.1707
  184SLPC    HB21033   2.760   5.665   2.869 -0.4770 -0.3523  0.4134
  184SLPC    C221034   2.744   5.452   2.899 -0.2681  1.0417  0.0461
  184SLPC    HS21035   2.742   5.366   2.829  0.2698  1.2531 -0.2330
  184SLPC   O2121036   2.624   5.479   2.985 -0.2434 -0.2394  1.0326
  184SLPC   C2121037   2.546   5.382   2.995 -0.2421 -0.1908  0.1038
  184SLPC   O2221038   2.553   5.276   2.940  0.6455  0.2981 -0.2691
  184SLPC   C2221039   2.448   5.418   3.100  0.6550  0.0044 -0.4180
  184SLPC   H2R21040   2.510   5.445   3.188  1.8053 -1.2098 -0.8064
  184SLPC   H2S21041   2.393   5.508   3.067  1.4074  0.7830  0.4046
  184SLPC    C321042   2.862   5.443   2.993 -0.1344  0.1983  0.2376
  184SLPC    HX21043   2.909   5.543   3.010 -1.8022  1.6048 -2.5889
  184SLPC    HY21044   2.945   5.398   2.935  2.3052  3.5318  0.8207
  184SLPC   O3121045   2.838   5.383   3.115 -0.2668 -0.3289 -0.2567
  184SLPC   C3121046   2.869   5.254   3.128  0.3098 -0.2473  0.3118
  184SLPC   O3221047   2.917   5.178   3.048 -0.7863  0.4256  0.3713
  184SLPC   C3221048   2.821   5.206   3.267 -0.4960 -0.6662 -0.2354
  184SLPC   H2X21049   2.856   5.102   3.280 -1.4565 -0.7613  2.2004
  184SLPC   H2Y21050   2.710   5.203   3.268 -0.5088 -4.3303  0.8948
  184SLPC   C2321051   2.362   5.296   3.131 -0.8313  0.0944  0.5981
  184SLPC   H3R21052   2.424   5.218   3.180  2.0893  2.1211  0.4147
  184SLPC   H3S21053   2.320   5.264   3.033 -1.3422 -0.6077  1.0410
  184SLPC   C2421054   2.248   5.333   3.227 -0.1069 -0.5564 -0.3683
  184SLPC   H4R21055   2.206   5.432   3.198 -0.0846 -0.9270 -1.7304
  184SLPC   H4S21056   2.300   5.347   3.324 -0.6011 -1.4783  0.0412
  184SLPC   C2521057   2.133   5.232   3.231  0.9265  0.2349  0.0850
  184SLPC   H5R21058   2.165   5.126   3.239 -0.8815 -0.4172 -0.7571
  184SLPC   H5S21059   2.075   5.244   3.137  1.0514  1.1935  0.1196
  184SLPC   C2621060   2.047   5.247   3.354 -0.1251  0.7839 -0.2403
  184SLPC   H6R21061   1.958   5.181   3.363 -0.3041  0.7800 -1.7237
  184SLPC   H6S21062   2.015   5.353   3.350  1.2600  1.2104 -0.4369
  184SLPC   C2721063   2.126   5.225   3.479 -0.2514  0.5702 -0.4908
  184SLPC   H7R21064   2.219   5.285   3.487 -1.7543  3.4223 -2.7289
  184SLPC   H7S21065   2.153   5.117   3.472 -0.1457  0.6312 -1.0913
  184SLPC   C2821066   2.041   5.267   3.609 -0.8954 -0.0398 -0.8988
  184SLPC   H8R21067   2.009   5.373   3.596  0.2112  0.6975  1.6866
  184SLPC   H8S21068   2.108   5.278   3.697 -1.6785  2.2891 -0.5056
  184SLPC   C2921069   1.920   5.182   3.635 -0.1312  0.5569  0.9614
  184SLPC   H9R21070   1.856   5.180   3.545  0.0395  0.2803  0.8442
  184SLPC  C21021071   1.880   5.114   3.742 -0.1825  0.4015 -0.6303
  184SLPC  H10R21072   1.783   5.064   3.733 -0.3551  0.4145  0.8897
  184SLPC  C21121073   1.943   5.121   3.879 -0.4204  0.1404  0.0028
  184SLPC  H11R21074   1.857   5.129   3.949 -1.5376 -0.4099 -1.2599
  184SLPC  H11S21075   1.992   5.220   3.891  0.0421 -0.1136  0.2625
  184SLPC  C21221076   2.043   5.012   3.902  0.0771  0.4529  0.8474
  184SLPC  H12R21077   2.130   5.012   3.835 -0.8665 -0.5784 -0.4335
  184SLPC  C21321078   2.023   4.910   3.981 -0.9688 -0.0269  0.2491
  184SLPC  H13R21079   2.106   4.839   3.990  0.4854  1.5341 -0.2021
  184SLPC  C21421080   1.911   4.898   4.082 -0.7815  0.0807 -0.4284
  184SLPC  H14R21081   1.895   4.792   4.111 -0.4646  0.2797  0.5167
  184SLPC  H14S21082   1.817   4.937   4.038 -0.1474  0.8938 -1.1074
  184SLPC  C21521083   1.946   4.978   4.207  0.0542 -0.2042  0.2413
  184SLPC  H15R21084   1.931   5.086   4.185  1.7843 -0.1745 -1.0546
  184SLPC  H15S21085   2.054   4.966   4.230  0.4244 -0.3521 -1.4387
  184SLPC  C21621086   1.863   4.926   4.334 -0.5214  0.0580  0.6017
  184SLPC  H16R21087   1.877   4.816   4.340  1.6081  0.1418 -1.3151
  184SLPC  H16S21088   1.759   4.952   4.306 -0.2091  0.5919 -0.1175
  184SLPC  C21721089   1.916   4.982   4.464 -0.5778  0.6811 -0.2243
  184SLPC  H17R21090   1.877   5.085   4.476  3.1083  2.0665  1.4174
  184SLPC  H17S21091   2.026   5.000   4.465 -0.6000  1.2604  2.7752
  184SLPC  C21821092   1.873   4.912   4.598  0.1593  0.4623 -0.1682
  184SLPC  H18R21093   1.775   4.945   4.640 -0.1178 -0.5679  0.0271
  184SLPC  H18S21094   1.949   4.938   4.674  0.0657  1.9787 -0.5587
  184SLPC  H18T21095   1.858   4.803   4.583 -0.9137  0.6484 -0.5201
  184SLPC   C3321096   2.868   5.295   3.387 -0.1390  0.6720 -0.3139
  184SLPC   H3X21097   2.840   5.403   3.381  0.1382  0.6915 -1.3072
  184SLPC   H3Y21098   2.978   5.292   3.375 -0.2553  0.1677 -1.2868
  184SLPC   C3421099   2.817   5.244   3.521 -0.8259  0.1456 -0.4629
  184SLPC   H4X21100   2.862   5.143   3.530  0.1015  0.5788 -0.1512
  184SLPC   H4Y21101   2.707   5.257   3.512 -0.8252 -0.1841 -1.0617
  184SLPC   C3521102   2.887   5.319   3.639  0.1376  0.1323 -0.0406
  184SLPC   H5X21103   2.855   5.426   3.632  0.3528  0.1642 -0.6326
  184SLPC   H5Y21104   2.997   5.311   3.647 -0.0181 -0.4281  1.9524
  184SLPC   C3621105   2.839   5.268   3.767  0.2273 -0.0466 -0.0381
  184SLPC   H6X21106   2.838   5.156   3.768 -3.4191 -0.1303  1.4792
  184SLPC   H6Y21107   2.738   5.313   3.774  1.5048  3.0227  0.0767
  184SLPC   C3721108   2.919   5.314   3.890  0.2930  0.8464  0.0522
  184SLPC   H7X21109   2.898   5.419   3.918 -1.9550  0.4614 -0.0464
  184SLPC   H7Y21110   3.029   5.302   3.873 -0.2026 -3.2372 -1.4644
  184SLPC   C3821111   2.894   5.220   4.016  0.4909  0.7096  0.3465
  184SLPC   H8X21112   2.968   5.240   4.098  2.7161 -2.3022 -0.7497
  184SLPC   H8Y21113   2.916   5.114   3.991 -0.4173  0.5354  0.2760
  184SLPC   C3921114   2.759   5.238   4.077  0.3095  0.2216  0.7854
  184SLPC   H9X21115   2.683   5.201   4.004  0.6174  3.2477 -1.2295
  184SLPC   H9Y21116   2.731   5.344   4.094  0.6693  0.5298 -0.4517
  184SLPC  C31021117   2.733   5.160   4.205 -0.6413  0.3902 -0.0694
  184SLPC  H10X21118   2.759   5.055   4.180 -2.5716  0.4665 -2.8384
  184SLPC  H10Y21119   2.624   5.157   4.225 -0.4394  0.6540  1.1803
  184SLPC  C31121120   2.783   5.219   4.328  0.2474 -0.0405  0.2465
  184SLPC  H11X21121   2.781   5.330   4.331  0.7981  0.0687 -1.8881
  184SLPC  H11Y21122   2.889   5.200   4.351 -0.1129 -1.2963  0.9660
  184SLPC  C31221123   2.703   5.166   4.450  0.3565 -0.3104  0.0553
  184SLPC  H12X21124   2.716   5.057   4.462 -0.5951 -0.4233  0.1722
  184SLPC  H12Y21125   2.592   5.175   4.440  0.2035 -2.0956 -0.1407
  184SLPC  C31321126   2.767   5.240   4.571  0.0509  0.1855 -0.4140
  184SLPC  H13X21127   2.724   5.342   4.584 -2.5531 -0.8548 -0.1239
  184SLPC  H13Y21128   2.875   5.254   4.548  0.5772 -0.7485  1.3145
  184SLPC  C31421129   2.743   5.174   4.706 -0.4284  0.6311  0.5298
  184SLPC  H14X21130   2.638   5.171   4.742  0.1615  0.5218  2.3736
  184SLPC  H14Y21131   2.806   5.240   4.771  0.1886  0.3410  0.2362
  184SLPC  C31521132   2.803   5.027   4.714  0.0169 -1.1994  0.9425
  184SLPC  H15X21133   2.880   5.022   4.635  2.1402 -1.6255  2.9307
  184SLPC  H15Y21134   2.728   4.952   4.682  0.4917 -0.8041 -1.2387
  184SLPC  C31621135   2.867   4.991   4.848  0.2508  0.6032  0.2179
  184SLPC  H16X21136   2.947   5.065   4.869 -1.0418  1.6260  1.7657
  184SLPC  H16Y21137   2.929   4.899   4.837 -1.1403 -0.4595  0.9230
  184SLPC  C31721138   2.768   4.982   4.965  0.6079 -0.0718  0.8017
  184SLPC  H17X21139   2.722   4.886   4.934 -0.2694  0.8067 -0.7404
  184SLPC  H17Y21140   2.693   5.064   4.960  0.1437 -0.5810 -1.2172
  184SLPC  C31821141   2.818   4.968   5.111  0.4057 -0.0967 -0.5852
  184SLPC  H18X21142   2.735   4.981   5.183  0.7107  1.2618 -0.4524
  184SLPC  H18Y21143   2.893   5.047   5.131  1.0913 -0.8140 -0.2865
  184SLPC  H18Z21144   2.862   4.866   5.118 -0.4449 -1.2428 -6.4460
  185POPC     N21145   1.200   5.886   7.052  0.6540 -0.4519  0.1805
  185POPC   C1221146   1.201   5.730   7.050  0.1358  0.4508 -0.0097
  185POPC  H12A21147   1.101   5.692   7.063 -0.2403  1.2005 -0.5960
  185POPC  H12B21148   1.269   5.701   7.129  0.7948  1.3140 -0.2400
  185POPC   C1321149   1.341   5.925   7.037 -0.5732  0.4752 -0.3512
  185POPC  H13A21150   1.376   5.898   6.938  0.4145  0.5216 -0.0193
  185POPC  H13B21151   1.349   6.031   7.055 -0.3887  0.1339  1.8335
  185POPC  H13C21152   1.402   5.872   7.108 -0.4973  1.0536  0.0221
  185POPC   C1421153   1.108   5.946   6.949 -0.6256  0.5069  0.3541
  185POPC  H14A21154   1.111   6.054   6.950  1.4890  0.4794  1.3994
  185POPC  H14B21155   1.129   5.903   6.852 -1.6828  2.3403 -0.7405
  185POPC  H14C21156   1.003   5.923   6.964 -0.8840  1.7855  0.5585
  185POPC   C1521157   1.156   5.938   7.187 -0.0378  0.0179  0.1484
  185POPC  H15A21158   1.054   5.907   7.206 -0.4386  0.8784 -0.5642
  185POPC  H15B21159   1.153   6.045   7.199 -2.8235 -0.0991  1.4961
  185POPC  H15C21160   1.208   5.900   7.274 -1.3422 -1.3231  0.3938
  185POPC   C1121161   1.253   5.658   6.918 -0.1946  0.0088  0.3694
  185POPC  H11A21162   1.215   5.713   6.830 -0.7088 -1.1896 -0.1821
  185POPC  H11B21163   1.208   5.557   6.911  2.0859 -1.1099  0.7412
  185POPC     P21164   1.488   5.560   7.003 -0.4493 -0.2626 -0.0715
  185POPC   O1321165   1.412   5.502   7.116  0.0271  0.9174 -0.5285
  185POPC   O1421166   1.603   5.652   7.033  0.1855 -0.0310  0.3070
  185POPC   O1221167   1.395   5.651   6.907 -0.5713 -0.8135 -0.4484
  185POPC   O1121168   1.536   5.441   6.910  0.7807  0.0924 -0.3484
  185POPC    C121169   1.543   5.447   6.772 -0.0097 -1.1786 -0.1811
  185POPC    HA21170   1.453   5.496   6.729  0.4599 -1.2724 -1.2901
  185POPC    HB21171   1.551   5.344   6.734 -2.2240 -0.7135 -2.1349
  185POPC    C221172   1.677   5.524   6.742 -0.2999  0.3468  0.7428
  185POPC    HS21173   1.683   5.621   6.795  1.8168  1.4554 -1.3596
  185POPC   O2121174   1.701   5.546   6.599 -0.3855 -0.1962  0.2819
  185POPC   C2121175   1.616   5.616   6.534  0.3869  0.3649 -0.3872
  185POPC   O2221176   1.517   5.669   6.571 -0.3899  0.3544  0.0751
  185POPC   C2221177   1.668   5.627   6.391  0.7816  0.4819  0.0086
  185POPC   H2R21178   1.677   5.524   6.352 -0.1575  0.8059 -1.1091
  185POPC   H2S21179   1.763   5.685   6.400 -0.1668  2.0078  0.6555
  185POPC    C321180   1.796   5.436   6.794 -1.6032 -0.2366 -0.0243
  185POPC    HX21181   1.784   5.334   6.753 -3.4340 -0.3546  0.7240
  185POPC    HY21182   1.803   5.445   6.904  1.0943  1.1690 -0.2124
  185POPC   O3121183   1.923   5.490   6.746 -0.6783 -0.3098 -0.5121
  185POPC   C3121184   2.034   5.466   6.815 -0.1318 -0.0321  0.2919
  185POPC   O3221185   2.045   5.413   6.921 -0.5283 -0.3859  0.5337
  185POPC   C3221186   2.152   5.522   6.740  0.4587  0.5282 -0.0555
  185POPC   H2X21187   2.230   5.446   6.764  0.4587  0.4874 -0.1863
  185POPC   H2Y21188   2.189   5.614   6.790  1.0208 -0.2689  1.0436
  185POPC   C2321189   1.564   5.705   6.306  0.3769  0.1063 -0.0961
  185POPC   H3R21190   1.539   5.802   6.354 -2.8413 -0.1087 -1.0718
  185POPC   H3S21191   1.476   5.637   6.298  0.7394 -0.2006 -1.9025
  185POPC   C2421192   1.627   5.737   6.176 -0.7205  0.0601  0.1644
  185POPC   H4R21193   1.677   5.643   6.145  1.5556  1.3236 -0.2716
  185POPC   H4S21194   1.706   5.815   6.189 -1.3554  1.1398 -2.0209
  185POPC   C2521195   1.524   5.792   6.078 -0.4179  0.6210 -0.2097
  185POPC   H5R21196   1.571   5.883   6.037  1.3300  0.0682  0.4458
  185POPC   H5S21197   1.421   5.800   6.119 -0.9735 -0.9850 -1.1929
  185POPC   C2621198   1.514   5.694   5.952  0.4450 -0.4191  0.0444
  185POPC   H6R21199   1.453   5.603   5.971 -3.5925  1.6427 -1.8402
  185POPC   H6S21200   1.623   5.686   5.932  0.1828  1.3672 -2.6133
  185POPC   C2721201   1.457   5.763   5.828 -0.5371  0.0668  0.5168
  185POPC   H7R21202   1.363   5.817   5.856 -1.2189  0.0499 -1.5390
  185POPC   H7S21203   1.421   5.688   5.755  1.6071 -1.1571  0.6447
  185POPC   C2821204   1.551   5.867   5.748  0.0162  0.3903  0.5620
  185POPC   H8R21205   1.638   5.804   5.719 -1.4856 -1.2186 -0.6778
  185POPC   H8S21206   1.585   5.946   5.818 -1.1958  0.5336  1.0135
  185POPC   C2921207   1.492   5.946   5.632 -0.4907 -0.1878 -0.0531
  185POPC   H9121208   1.388   5.982   5.635 -0.4209  0.0381 -0.2820
  185POPC  C21021209   1.557   5.974   5.516  0.3825  0.0039 -0.2952
  185POPC  H10121210   1.530   6.063   5.457 -0.3119 -0.2582 -0.3912
  185POPC  C21121211   1.691   5.920   5.471 -0.7463 -0.0210 -0.3335
  185POPC  H11R21212   1.670   5.824   5.419 -1.7212 -0.4508  0.8048
  185POPC  H11S21213   1.764   5.891   5.550  1.3570  0.6970 -1.8933
  185POPC  C21221214   1.765   6.021   5.386 -0.8827 -0.4719  0.5592
  185POPC  H12R21215   1.871   5.989   5.380 -1.1548 -1.0758 -3.3073
  185POPC  H12S21216   1.763   6.122   5.432  1.1426  0.4665 -1.2403
  185POPC  C21321217   1.722   6.018   5.241  0.5713  0.1821 -0.2809
  185POPC  H13R21218   1.612   6.034   5.241  0.2496 -1.7735  0.6844
  185POPC  H13S21219   1.742   5.929   5.179  0.1190  0.3885 -0.7359
  185POPC  C21421220   1.792   6.130   5.167 -0.6907 -0.3478 -0.3422
  185POPC  H14R21221   1.901   6.113   5.162 -0.5827 -0.2016  1.1168
  185POPC  H14S21222   1.775   6.228   5.217 -0.3474 -0.6554  0.3968
  185POPC  C21521223   1.740   6.145   5.020 -0.0597 -0.1071 -0.0951
  185POPC  H15R21224   1.642   6.099   4.994  1.0498 -2.0849 -0.9948
  185POPC  H15S21225   1.805   6.088   4.951 -0.5342 -0.5494 -0.1868
  185POPC  C21621226   1.755   6.292   4.964  0.5422  0.0426  0.4495
  185POPC  H16R21227   1.753   6.291   4.852  2.7007 -0.7551  0.3653
  185POPC  H16S21228   1.858   6.322   4.990 -0.0252  2.0599  0.4819
  185POPC  C21721229   1.654   6.397   5.014 -0.4351  0.8224  0.9656
  185POPC  H17R21230   1.659   6.394   5.125 -2.0624  1.8857  1.1028
  185POPC  H17S21231   1.551   6.363   4.993  0.3692 -0.6897 -0.7980
  185POPC  C21821232   1.677   6.542   4.966 -0.5466 -0.8624 -0.4308
  185POPC  H18R21233   1.672   6.557   4.856  2.3682  1.6344 -0.3552
  185POPC  H18S21234   1.783   6.560   4.993 -0.3525 -1.1659 -0.9782
  185POPC  H18T21235   1.608   6.616   5.011  0.2862  0.0127 -0.5712
  185POPC   C3321236   2.138   5.539   6.584 -0.1929 -0.4107 -1.0002
  185POPC   H3X21237   2.041   5.587   6.556 -0.1872  0.9530  1.0612
  185POPC   H3Y21238   2.135   5.441   6.533 -1.7019  0.1349 -2.0474
  185POPC   C3421239   2.253   5.625   6.521 -0.1487  0.0373  0.0161
  185POPC   H4X21240   2.346   5.608   6.579  0.7342  0.2737 -1.2635
  185POPC   H4Y21241   2.233   5.734   6.537  0.4779  0.2694 -0.7066
  185POPC   C3521242   2.269   5.599   6.371  0.2441 -0.3304  0.0940
  185POPC   H5X21243   2.277   5.490   6.357 -0.9394 -0.2580 -1.5038
  185POPC   H5Y21244   2.359   5.651   6.331  1.5060  0.0473  3.1300
  185POPC   C3621245   2.138   5.638   6.297 -0.2138  0.3104  0.5784
  185POPC   H6X21246   2.113   5.746   6.302 -3.4781 -0.0467 -3.2472
  185POPC   H6Y21247   2.056   5.577   6.340 -1.8874  2.0576 -0.0234
  185POPC   C3721248   2.154   5.609   6.146 -0.9649  0.7438  0.2387
  185POPC   H7X21249   2.189   5.504   6.136 -0.4958  0.7800  1.3175
  185POPC   H7Y21250   2.246   5.666   6.120  1.3618 -2.9395 -0.4004
  185POPC   C3821251   2.030   5.626   6.062  0.7842  1.2580  0.0931
  185POPC   H8X21252   2.002   5.733   6.076 -0.5140  0.8595  0.7715
  185POPC   H8Y21253   1.944   5.579   6.116 -0.3076  0.2337 -2.3865
  185POPC   C3921254   2.039   5.603   5.909  0.3323  0.5373  0.3361
  185POPC   H9X21255   1.935   5.607   5.870 -0.3259 -0.6236  1.8502
  185POPC   H9Y21256   2.081   5.504   5.883 -1.0497 -0.2863  1.1078
  185POPC  C31021257   2.124   5.705   5.839 -0.1392  0.4378 -0.1987
  185POPC  H10X21258   2.218   5.727   5.894  0.7647  0.5495 -1.7237
  185POPC  H10Y21259   2.062   5.796   5.822 -0.8742 -0.0051  0.0393
  185POPC  C31121260   2.156   5.678   5.694 -0.0191  0.4947 -0.1218
  185POPC  H11X21261   2.064   5.653   5.637 -1.9895  3.2271  1.6209
  185POPC  H11Y21262   2.227   5.593   5.706  0.6213  1.2284  1.6547
  185POPC  C31221263   2.214   5.805   5.633  0.0049  0.8532  0.8763
  185POPC  H12X21264   2.311   5.841   5.673  0.0485  3.8627 -1.5210
  185POPC  H12Y21265   2.139   5.886   5.649 -0.9477  0.2483 -0.3081
  185POPC  C31321266   2.210   5.794   5.478 -0.0395 -0.2210 -0.1533
  185POPC  H13X21267   2.115   5.785   5.422  0.1427  2.9321 -1.1347
  185POPC  H13Y21268   2.260   5.697   5.455 -0.5470 -0.5377  0.0539
  185POPC  C31421269   2.281   5.916   5.413 -0.0459  0.0765 -0.1561
  185POPC  H14X21270   2.306   5.879   5.311 -0.4992  0.0614 -0.2629
  185POPC  H14Y21271   2.375   5.930   5.471  0.6281  2.0446 -1.6415
  185POPC  C31521272   2.207   6.053   5.416  0.1830 -0.1015 -0.1296
  185POPC  H15X21273   2.208   6.084   5.523 -0.3039  1.2109 -0.4872
  185POPC  H15Y21274   2.106   6.029   5.378  0.7110 -2.1489 -0.3168
  185POPC  C31621275   2.284   6.159   5.340 -0.2675 -0.7904 -0.5047
  185POPC  H16X21276   2.384   6.120   5.370  0.4892 -0.3998 -2.3705
  185POPC  H16Y21277   2.256   6.260   5.378  0.0738 -0.7673 -0.3079
  185POPC  H16Z21278   2.268   6.141   5.232 -1.0658 -2.0885 -0.1947
  186POPC     N21279   3.729   5.424   8.083 -0.1099  0.3399  0.6388
  186POPC   C1221280   3.600   5.458   7.998 -0.1873  0.3789  0.3848
  186POPC  H12A21281   3.521   5.489   8.065  0.6440  1.7814  0.7518
  186POPC  H12B21282   3.577   5.367   7.945  2.6083 -0.6502  0.7770
  186POPC   C1321283   3.837   5.394   7.979  0.3230  0.0336 -0.1111
  186POPC  H13A21284   3.930   5.363   8.023  0.6217 -1.8001 -1.8874
  186POPC  H13B21285   3.819   5.310   7.912 -1.9074 -0.8077  1.4375
  186POPC  H13C21286   3.855   5.483   7.921 -0.2510  0.9795  1.1151
  186POPC   C1421287   3.770   5.532   8.172 -0.0968 -0.5301 -0.1546
  186POPC  H14A21288   3.788   5.622   8.116 -0.0226 -2.8491 -4.2388
  186POPC  H14B21289   3.693   5.563   8.242 -0.0445  0.6643 -0.6145
  186POPC  H14C21290   3.857   5.502   8.229  0.5203 -0.6880 -1.1509
  186POPC   C1521291   3.699   5.302   8.168  0.1954 -0.2944  0.0546
  186POPC  H15A21292   3.783   5.282   8.233  0.7908  0.0735 -0.5917
  186POPC  H15B21293   3.694   5.209   8.113  1.7302  0.0556 -0.7480
  186POPC  H15C21294   3.608   5.305   8.225  1.2806 -1.8290  1.9997
  186POPC   C1121295   3.607   5.578   7.906  0.3319 -0.5955  0.0457
  186POPC  H11A21296   3.680   5.654   7.940 -1.3826  1.8717 -1.4456
  186POPC  H11B21297   3.508   5.629   7.907  1.2731  1.3040  0.3498
  186POPC     P21298   3.727   5.611   7.694  0.3244 -0.0875  0.4280
  186POPC   O1321299   3.866   5.588   7.743  0.2273  0.6226  0.0651
  186POPC   O1421300   3.679   5.746   7.684  0.3867 -0.7823  0.4531
  186POPC   O1221301   3.626   5.528   7.776  0.2246 -0.3201 -0.1281
  186POPC   O1121302   3.704   5.534   7.556  0.5282 -0.1107 -0.0523
  186POPC    C121303   3.650   5.603   7.446  0.4441  0.4382 -0.1502
  186POPC    HA21304   3.715   5.688   7.418  3.2355 -0.9037  1.8219
  186POPC    HB21305   3.553   5.649   7.476 -0.6980 -1.7823 -0.2229
  186POPC    C221306   3.614   5.499   7.327  0.6979 -0.2689  0.2176
  186POPC    HS21307   3.545   5.427   7.376  2.2093 -1.5447  0.5813
  186POPC   O2121308   3.731   5.435   7.269 -0.3199 -0.2228  0.0012
  186POPC   C2121309   3.710   5.316   7.217  0.6330  0.7356 -0.4385
  186POPC   O2221310   3.603   5.262   7.207 -0.0903  0.0564  0.3622
  186POPC   C2221311   3.840   5.252   7.172 -0.4937 -1.0103  0.3482
  186POPC   H2R21312   3.899   5.230   7.264  0.8336 -0.3539 -0.3101
  186POPC   H2S21313   3.897   5.324   7.109  2.1684 -0.3154  3.2561
  186POPC    C321314   3.523   5.568   7.223 -0.4545 -0.3958  0.4334
  186POPC    HX21315   3.553   5.675   7.224 -0.2981 -0.4390  0.3025
  186POPC    HY21316   3.422   5.553   7.267  0.0599 -0.6895  1.5650
  186POPC   O3121317   3.545   5.523   7.088  0.5155  0.3796  1.0279
  186POPC   C3121318   3.442   5.488   7.012 -0.4519 -0.3519 -0.5675
  186POPC   O3221319   3.326   5.481   7.053 -0.1374  0.0181 -0.7332
  186POPC   C3221320   3.496   5.459   6.874 -0.2386  0.1296 -0.1994
  186POPC   H2X21321   3.594   5.406   6.884  0.5593  1.5128 -0.4755
  186POPC   H2Y21322   3.517   5.558   6.829 -0.6600  1.6922  2.8399
  186POPC   C2321323   3.811   5.126   7.088  0.2125 -0.2137  0.4278
  186POPC   H3R21324   3.738   5.149   7.007  1.2283 -1.0940 -0.7754
  186POPC   H3S21325   3.772   5.047   7.154  0.4537 -1.7571 -1.2037
  186POPC   C2421326   3.945   5.075   7.037 -0.1185  0.6128 -0.6973
  186POPC   H4R21327   3.947   4.968   7.007  0.8929  0.7405 -1.1133
  186POPC   H4S21328   4.030   5.075   7.108  1.4953 -2.3474 -2.4185
  186POPC   C2521329   3.997   5.143   6.916 -0.0420 -0.0085  0.6254
  186POPC   H5R21330   4.105   5.116   6.916  0.1039  0.5047  1.9160
  186POPC   H5S21331   3.998   5.253   6.931  1.2682 -0.0738  1.1826
  186POPC   C2621332   3.939   5.108   6.777  0.2699  0.4976  0.0596
  186POPC   H6R21333   3.836   5.148   6.763 -0.1666 -0.7815 -0.4983
  186POPC   H6S21334   3.925   4.998   6.769 -5.7547  0.6748  2.3990
  186POPC   C2721335   4.013   5.164   6.658  0.0018 -0.4808  0.1160
  186POPC   H7R21336   4.108   5.108   6.644  0.5319  0.8238 -1.9391
  186POPC   H7S21337   4.022   5.274   6.670 -0.0095 -0.4252 -0.3857
  186POPC   C2821338   3.937   5.143   6.531 -0.4765 -0.2447  0.1637
  186POPC   H8R21339   3.990   5.204   6.455  0.9207  0.2984  1.5244
  186POPC   H8S21340   3.833   5.177   6.549 -0.9575 -2.8965  3.4000
  186POPC   C2921341   3.925   5.002   6.476  0.0517 -0.3309  0.6273
  186POPC   H9121342   3.889   4.930   6.551 -1.0756 -1.0687 -0.5776
  186POPC  C21021343   3.932   4.955   6.350  0.5601 -0.6879 -0.6699
  186POPC  H10121344   3.925   4.846   6.333 -1.0475 -0.8555  0.7866
  186POPC  C21121345   3.964   5.031   6.221  0.0857 -0.5722  0.1182
  186POPC  H11R21346   4.070   5.065   6.233 -0.0736 -0.2172  0.5388
  186POPC  H11S21347   3.905   5.125   6.222  0.5948 -0.1751 -2.1879
  186POPC  C21221348   3.938   4.955   6.093  0.3609  0.0152  0.4562
  186POPC  H12R21349   3.988   4.856   6.094  1.2329  0.4021 -1.2555
  186POPC  H12S21350   3.971   5.012   6.004  1.2796  0.7761  1.2627
  186POPC  C21321351   3.790   4.914   6.067  0.1408 -0.0190  0.0871
  186POPC  H13R21352   3.729   5.000   6.031 -3.2382 -1.8791  0.9599
  186POPC  H13S21353   3.737   4.865   6.151 -0.9871 -2.9470 -2.1694
  186POPC  C21421354   3.764   4.814   5.951  0.2705  0.1152  0.1764
  186POPC  H14R21355   3.656   4.789   5.960  0.5327 -0.8885  0.7013
  186POPC  H14S21356   3.826   4.723   5.967  1.6689  1.0469  0.2665
  186POPC  C21521357   3.809   4.878   5.812 -0.1570  0.0030 -0.4560
  186POPC  H15R21358   3.904   4.935   5.821  0.8294 -1.6293 -0.0421
  186POPC  H15S21359   3.715   4.928   5.783 -0.1802 -0.7718 -1.8198
  186POPC  C21621360   3.842   4.774   5.712  0.0239  0.4417  0.3918
  186POPC  H16R21361   3.779   4.683   5.715  0.0855  0.0929 -3.6195
  186POPC  H16S21362   3.953   4.764   5.709  0.1666  1.8080 -3.0117
  186POPC  C21721363   3.811   4.829   5.567  0.5738  0.6948 -0.0392
  186POPC  H17R21364   3.729   4.904   5.571  3.4443  4.0706 -0.3127
  186POPC  H17S21365   3.768   4.739   5.518 -0.3983  0.9482  0.3218
  186POPC  C21821366   3.927   4.873   5.471  0.3230  0.3358  0.4416
  186POPC  H18R21367   3.958   4.973   5.507  0.1326  0.9370 -0.9742
  186POPC  H18S21368   3.902   4.882   5.363  0.4393 -0.0826  0.3797
  186POPC  H18T21369   4.022   4.817   5.481 -0.0728 -0.4674 -0.1622
  186POPC   C3321370   3.402   5.375   6.782  0.6135  0.1076  0.4252
  186POPC   H3X21371   3.382   5.277   6.830  0.4411  0.3388  0.8344
  186POPC   H3Y21372   3.450   5.342   6.687 -0.9783 -2.6448  0.4788
  186POPC   C3421373   3.278   5.462   6.744 -0.2452  0.4595  0.0970
  186POPC   H4X21374   3.312   5.566   6.730 -1.6436  0.7301 -1.6430
  186POPC   H4Y21375   3.214   5.469   6.835  0.3830  1.9714  0.4491
  186POPC   C3521376   3.179   5.416   6.636 -0.1968 -0.0652 -0.3539
  186POPC   H5X21377   3.074   5.428   6.671 -0.1702 -2.3868  0.6991
  186POPC   H5Y21378   3.180   5.305   6.626  1.1750 -0.4301  2.6943
  186POPC   C3621379   3.215   5.487   6.502 -0.4680  0.0750 -0.0510
  186POPC   H6X21380   3.322   5.459   6.489  0.0180  0.3107  2.7798
  186POPC   H6Y21381   3.204   5.596   6.515  0.9407  0.2355 -0.0762
  186POPC   C3721382   3.136   5.434   6.382  0.2294  0.1152  0.2511
  186POPC   H7X21383   3.026   5.439   6.395 -0.1684 -2.9857 -1.0700
  186POPC   H7Y21384   3.156   5.328   6.358 -1.5465 -0.0844 -0.4679
  186POPC   C3821385   3.173   5.522   6.264 -0.5305  0.7916 -0.6664
  186POPC   H8X21386   3.280   5.551   6.258  0.0705 -1.3468 -1.8421
  186POPC   H8Y21387   3.132   5.621   6.290  1.5353  1.4802  0.1659
  186POPC   C3921388   3.144   5.451   6.130  0.5074 -0.9551  0.0687
  186POPC   H9X21389   3.035   5.447   6.108  0.6405 -2.8212 -0.5000
  186POPC   H9Y21390   3.161   5.342   6.142 -1.2483 -1.1728  1.0148
  186POPC  C31021391   3.233   5.503   6.009  0.4216  0.0482 -0.6929
  186POPC  H10X21392   3.335   5.517   6.050 -0.1572 -2.0669  1.7142
  186POPC  H10Y21393   3.200   5.604   5.977  0.5466  0.6275  0.8877
  186POPC  C31121394   3.222   5.407   5.885 -0.0699 -0.3874 -0.0648
  186POPC  H11X21395   3.269   5.309   5.907  0.7309 -0.6650 -2.6228
  186POPC  H11Y21396   3.288   5.453   5.808 -0.5192 -1.2465 -0.9834
  186POPC  C31221397   3.084   5.387   5.826 -0.1552  0.0705 -0.4692
  186POPC  H12X21398   3.013   5.472   5.836  0.0998  0.3920 -1.3158
  186POPC  H12Y21399   3.036   5.303   5.881  1.9396 -0.5874  0.4800
  186POPC  C31321400   3.088   5.340   5.678 -0.2822 -0.3329  0.2382
  186POPC  H13X21401   2.987   5.296   5.666 -0.2942  0.2293 -2.2155
  186POPC  H13Y21402   3.173   5.268   5.674 -0.2222 -0.2070 -1.3772
  186POPC  C31421403   3.110   5.459   5.580  0.5504 -0.5270  0.8708
  186POPC  H14X21404   3.196   5.522   5.610  0.8304 -0.6824  0.4064
  186POPC  H14Y21405   3.026   5.531   5.577  0.9053 -0.1388 -0.5173
  186POPC  C31521406   3.139   5.410   5.431 -0.3762  0.4733  0.3385
  186POPC  H15X21407   3.249   5.409   5.413  0.0911 -4.0808  2.0997
  186POPC  H15Y21408   3.093   5.489   5.368 -1.9556 -0.9156 -0.3160
  186POPC  C31621409   3.085   5.270   5.394 -0.1467 -1.0665 -0.1342
  186POPC  H16X21410   3.117   5.189   5.463 -0.1615 -0.9730 -0.0184
  186POPC  H16Y21411   3.091   5.244   5.286 -0.4497  0.9764 -0.6772
  186POPC  H16Z21412   2.975   5.277   5.410  0.3171  0.3339  3.3578
  187POPC     N21413   2.474   5.924   2.564 -0.2008  0.3374 -0.5316
  187POPC   C1221414   2.390   5.993   2.679 -0.1804 -0.4958 -0.6939
  187POPC  H12A21415   2.467   6.051   2.728  0.8505 -3.3910  1.3527
  187POPC  H12B21416   2.349   5.929   2.755 -0.9911  0.0371 -0.6678
  187POPC   C1321417   2.385   5.811   2.514 -0.1929  0.1433 -0.4224
  187POPC  H13A21418   2.281   5.838   2.501 -0.7236 -2.6056 -3.1335
  187POPC  H13B21419   2.420   5.767   2.422  1.5736  2.9697 -1.1868
  187POPC  H13C21420   2.381   5.734   2.591 -0.7896  0.2698 -0.3214
  187POPC   C1421421   2.517   6.019   2.452 -0.2468  0.6451  0.3926
  187POPC  H14A21422   2.608   5.984   2.406 -0.5211 -1.2441  1.2078
  187POPC  H14B21423   2.440   6.037   2.379 -0.4382 -1.4246  0.0391
  187POPC  H14C21424   2.534   6.114   2.501 -1.2879  1.6200 -1.0380
  187POPC   C1521425   2.593   5.864   2.626 -0.5182  0.2955  0.4696
  187POPC  H15A21426   2.563   5.774   2.678  0.0990  0.0232  0.3703
  187POPC  H15B21427   2.641   5.926   2.699 -0.3042 -0.1942  0.7533
  187POPC  H15C21428   2.668   5.834   2.555  2.6296  3.2706  2.2522
  187POPC   C1121429   2.273   6.092   2.638 -0.7604 -0.1542  0.5705
  187POPC  H11A21430   2.312   6.146   2.550  0.9065  0.5351  1.6780
  187POPC  H11B21431   2.258   6.163   2.722 -0.6360  2.0366 -1.1718
  187POPC     P21432   2.049   5.959   2.687  0.2073 -0.5490  0.0951
  187POPC   O1321433   2.038   5.815   2.650 -0.1880  0.4842  0.7349
  187POPC   O1421434   1.927   6.033   2.680 -0.0016 -0.1703  0.0829
  187POPC   O1221435   2.154   6.031   2.599  0.2111  0.0057 -0.0112
  187POPC   O1121436   2.097   5.979   2.836  0.1959 -0.1920 -0.0548
  187POPC    C121437   2.104   5.862   2.917  0.5906  0.5955 -1.3309
  187POPC    HA21438   2.192   5.858   2.984 -0.3868  0.8874  0.0274
  187POPC    HB21439   2.088   5.764   2.867  1.1599 -0.9520  1.3304
  187POPC    C221440   1.980   5.866   3.018 -0.5421  0.0525 -0.5720
  187POPC    HS21441   1.895   5.866   2.947  1.0779  0.4724 -2.6211
  187POPC   O2121442   1.993   5.979   3.111 -0.7687  0.7119  0.6325
  187POPC   C2121443   1.877   6.019   3.149  0.7325  0.2094  0.5858
  187POPC   O2221444   1.774   5.961   3.130  0.2808  0.2764 -0.4261
  187POPC   C2221445   1.887   6.160   3.205 -0.0327 -0.5153 -0.3974
  187POPC   H2R21446   1.805   6.224   3.167  2.2693  4.4119  2.0374
  187POPC   H2S21447   1.987   6.204   3.185 -0.5963  2.2646  2.2298
  187POPC    C321448   1.964   5.729   3.092 -0.3932 -0.1292  0.0718
  187POPC    HX21449   2.064   5.681   3.094 -0.5510 -0.6110 -1.6781
  187POPC    HY21450   1.898   5.667   3.028  2.6478 -3.5555 -0.0680
  187POPC   O3121451   1.909   5.742   3.228 -0.0948 -0.1020  0.0125
  187POPC   C3121452   1.808   5.674   3.256  1.0337  0.6765 -0.3870
  187POPC   O3221453   1.748   5.591   3.186 -0.5459 -0.6657 -0.1964
  187POPC   C3221454   1.768   5.704   3.399 -0.3965 -0.2960 -0.7190
  187POPC   H2X21455   1.666   5.665   3.417  0.6889 -2.4926  1.2174
  187POPC   H2Y21456   1.757   5.814   3.414 -0.2934 -0.1631 -1.5714
  187POPC   C2321457   1.881   6.147   3.360 -0.1207  0.2227  0.7169
  187POPC   H3R21458   1.776   6.119   3.382 -0.8170  2.0009 -0.1907
  187POPC   H3S21459   1.894   6.251   3.398 -1.3642  0.1895  1.2651
  187POPC   C2421460   1.975   6.054   3.440 -0.3421  0.3326 -0.5592
  187POPC   H4R21461   2.082   6.082   3.436 -0.0334 -0.4520  1.2263
  187POPC   H4S21462   1.981   5.958   3.386 -0.2197  0.2417 -0.3874
  187POPC   C2521463   1.930   6.046   3.583 -0.2043 -0.1966 -0.3612
  187POPC   H5R21464   1.830   5.998   3.583  0.5029 -1.7187  0.0696
  187POPC   H5S21465   1.906   6.143   3.632  1.2189 -1.1638  2.4615
  187POPC   C2621466   2.027   5.967   3.670 -0.9401 -0.0567  0.0331
  187POPC   H6R21467   2.118   6.031   3.678 -0.5432 -0.1071 -2.9498
  187POPC   H6S21468   2.050   5.865   3.635  0.9337  0.9841 -2.0230
  187POPC   C2721469   1.965   5.960   3.810 -0.6315  0.0542 -0.2707
  187POPC   H7R21470   1.875   5.896   3.797 -0.0498 -0.8524  0.0966
  187POPC   H7S21471   1.942   6.062   3.848 -0.3591  0.2132 -0.5314
  187POPC   C2821472   2.052   5.881   3.913 -0.0619 -0.6115 -0.1261
  187POPC   H8R21473   2.153   5.926   3.902 -0.7263  0.9335 -0.1635
  187POPC   H8S21474   2.057   5.774   3.882 -0.0120 -0.8645  0.7256
  187POPC   C2921475   1.989   5.896   4.048 -0.0616 -0.1847  0.4257
  187POPC   H9121476   1.883   5.868   4.055 -1.0127  2.3632 -2.1679
  187POPC  C21021477   2.037   5.957   4.155 -0.3601  0.0484  0.7008
  187POPC  H10121478   1.970   5.967   4.242  0.9562 -2.3834  2.0978
  187POPC  C21121479   2.170   6.029   4.178 -0.5813  0.6462  0.2639
  187POPC  H11R21480   2.154   6.139   4.174 -0.6633  0.7171  1.8256
  187POPC  H11S21481   2.244   6.012   4.098 -1.3106  2.1617 -0.7923
  187POPC  C21221482   2.228   5.997   4.314  0.3488  0.3918 -0.1355
  187POPC  H12R21483   2.152   6.029   4.388  1.4430  1.5691  0.5144
  187POPC  H12S21484   2.315   6.063   4.334  0.1322  0.5227  0.3697
  187POPC  C21321485   2.262   5.852   4.332 -0.2041 -0.4902 -0.5724
  187POPC  H13R21486   2.333   5.817   4.254  0.4479  0.9419 -0.6520
  187POPC  H13S21487   2.164   5.800   4.334 -0.9710  0.8782 -1.1680
  187POPC  C21421488   2.331   5.826   4.462  0.2010 -0.2262 -0.5127
  187POPC  H14R21489   2.340   5.716   4.476 -3.9651 -0.5346  1.0476
  187POPC  H14S21490   2.261   5.863   4.540 -0.7925 -0.7179 -1.1540
  187POPC  C21521491   2.471   5.894   4.469 -0.7125 -0.0650  0.5119
  187POPC  H15R21492   2.452   5.998   4.505  0.2297 -0.1218  1.2258
  187POPC  H15S21493   2.518   5.905   4.369 -0.2012  1.7844  0.9013
  187POPC  C21621494   2.585   5.836   4.555 -0.2947  0.0723  0.7221
  187POPC  H16R21495   2.672   5.905   4.554  0.2974 -0.5462  3.0130
  187POPC  H16S21496   2.606   5.733   4.519 -0.9440  0.9901 -2.6533
  187POPC  C21721497   2.535   5.826   4.705 -0.3673  0.1863  0.4082
  187POPC  H17R21498   2.468   5.738   4.708  2.7369 -2.4163 -0.9227
  187POPC  H17S21499   2.476   5.911   4.744 -3.4512 -0.9695 -1.4150
  187POPC  C21821500   2.644   5.809   4.808 -0.2768  0.2409 -0.2047
  187POPC  H18R21501   2.716   5.892   4.817  2.4924 -2.1078  0.9877
  187POPC  H18S21502   2.696   5.712   4.791 -0.9496 -0.4705  1.5612
  187POPC  H18T21503   2.586   5.798   4.902  1.7462 -3.9044  0.8043
  187POPC   C3321504   1.855   5.631   3.507  0.3994 -0.3050 -0.0070
  187POPC   H3X21505   1.940   5.698   3.534 -0.4486  0.1736  1.6379
  187POPC   H3Y21506   1.891   5.530   3.478  1.5580 -0.3743  1.5360
  187POPC   C3421507   1.778   5.623   3.636  0.0123 -0.2204  0.0982
  187POPC   H4X21508   1.705   5.539   3.638  1.2127 -1.2967  1.2951
  187POPC   H4Y21509   1.719   5.715   3.653  0.6443 -0.0785  1.7722
  187POPC   C3521510   1.870   5.585   3.751  0.0242 -0.4662 -0.1463
  187POPC   H5X21511   1.961   5.649   3.745 -1.2481  1.5442  0.9479
  187POPC   H5Y21512   1.896   5.479   3.729 -1.2460 -0.8816  0.2932
  187POPC   C3621513   1.803   5.585   3.891 -0.5697  0.4073  1.0008
  187POPC   H6X21514   1.712   5.522   3.876  1.1598 -2.1206  0.4605
  187POPC   H6Y21515   1.771   5.688   3.915 -0.5153 -0.0528  3.2939
  187POPC   C3721516   1.892   5.522   3.987 -0.2259 -0.4904 -0.1066
  187POPC   H7X21517   1.984   5.584   3.992  1.0179 -2.1671 -1.1596
  187POPC   H7Y21518   1.929   5.423   3.954  2.0686  0.4177 -0.4903
  187POPC   C3821519   1.819   5.500   4.125 -0.2104 -0.5492 -0.1293
  187POPC   H8X21520   1.846   5.406   4.177 -1.2140 -0.9457 -0.3044
  187POPC   H8Y21521   1.713   5.488   4.093 -0.0586  0.0717 -0.8864
  187POPC   C3921522   1.838   5.616   4.218  0.1525 -0.0477 -0.0093
  187POPC   H9X21523   1.777   5.701   4.181 -0.4256 -1.0985 -1.5604
  187POPC   H9Y21524   1.943   5.649   4.231  0.7742 -1.5729 -0.9717
  187POPC  C31021525   1.789   5.573   4.364  0.4924 -0.7334 -0.1556
  187POPC  H10X21526   1.854   5.487   4.390 -0.4871 -1.8198 -1.1382
  187POPC  H10Y21527   1.684   5.539   4.354 -0.5466  1.6054  1.9110
  187POPC  C31121528   1.794   5.693   4.467  0.5392 -0.5936  0.5484
  187POPC  H11X21529   1.711   5.757   4.432 -0.1110 -1.3615  0.6675
  187POPC  H11Y21530   1.891   5.745   4.454 -0.5205  1.3040 -0.0623
  187POPC  C31221531   1.755   5.652   4.607 -0.0045 -0.6029 -0.1582
  187POPC  H12X21532   1.821   5.564   4.624  0.0616 -1.0486 -2.3869
  187POPC  H12Y21533   1.654   5.606   4.601 -1.1247  1.7850 -0.6758
  187POPC  C31321534   1.740   5.763   4.712 -0.0494  0.0886 -0.1916
  187POPC  H13X21535   1.675   5.847   4.680  0.3343  0.6877  0.5996
  187POPC  H13Y21536   1.838   5.812   4.734 -1.1716  2.4355 -0.1901
  187POPC  C31421537   1.679   5.710   4.850  0.3069 -1.2621 -0.6182
  187POPC  H14X21538   1.579   5.670   4.822 -0.6079  0.1785  0.4230
  187POPC  H14Y21539   1.676   5.796   4.921  0.1486 -2.1747  0.5125
  187POPC  C31521540   1.773   5.623   4.928  0.0768  0.4680 -0.1174
  187POPC  H15X21541   1.860   5.691   4.939 -0.0726  0.7112 -0.4191
  187POPC  H15Y21542   1.814   5.544   4.861  0.3712  1.5065 -1.1858
  187POPC  C31621543   1.730   5.557   5.056  0.1687  0.5256  0.5869
  187POPC  H16X21544   1.719   5.634   5.135 -2.4765 -0.2003  1.0264
  187POPC  H16Y21545   1.813   5.487   5.081 -1.2190 -1.4455 -0.0642
  187POPC  H16Z21546   1.637   5.495   5.054  0.7083 -0.3045 -1.6020
  188POPC     N21547   1.412   5.511   2.405  0.3646  0.0233  0.1472
  188POPC   C1221548   1.347   5.567   2.527  0.1649  0.5333  0.1855
  188POPC  H12A21549   1.241   5.546   2.526  0.8765 -4.0528 -0.1699
  188POPC  H12B21550   1.355   5.675   2.526  0.8357  0.5713  2.7497
  188POPC   C1321551   1.561   5.498   2.409  0.2488 -0.0880 -0.3365
  188POPC  H13A21552   1.594   5.449   2.319  0.1144 -1.1866  0.1882
  188POPC  H13B21553   1.603   5.597   2.413 -0.8212  0.3382  1.3953
  188POPC  H13C21554   1.594   5.437   2.492 -0.2221  1.2327  0.8625
  188POPC   C1421555   1.358   5.372   2.382  0.4612  0.5333 -0.1759
  188POPC  H14A21556   1.403   5.299   2.448  0.4299  0.2771 -0.4369
  188POPC  H14B21557   1.250   5.367   2.377  0.5086 -0.7233 -0.3308
  188POPC  H14C21558   1.389   5.340   2.283  0.5470 -0.8394  0.2777
  188POPC   C1521559   1.380   5.592   2.278 -0.5445 -0.1508 -0.6824
  188POPC  H15A21560   1.419   5.547   2.188 -0.7445 -2.3068  0.2593
  188POPC  H15B21561   1.416   5.693   2.295  2.2110 -1.3354  1.1964
  188POPC  H15C21562   1.274   5.591   2.258 -0.6080  2.3965 -0.8165
  188POPC   C1121563   1.395   5.516   2.663 -0.3930  0.0213 -0.0678
  188POPC  H11A21564   1.363   5.594   2.736  2.4387  1.5740 -0.3220
  188POPC  H11B21565   1.506   5.517   2.673 -0.4323 -1.9058  1.2617
  188POPC     P21566   1.370   5.315   2.826 -0.3364  0.0781  0.0322
  188POPC   O1321567   1.515   5.282   2.817  0.7164 -0.5396 -0.0839
  188POPC   O1421568   1.270   5.207   2.863 -0.5192 -0.6604  0.0735
  188POPC   O1221569   1.337   5.384   2.686 -0.0297 -0.2462  0.8162
  188POPC   O1121570   1.347   5.440   2.927 -0.3562  0.0058 -0.2527
  188POPC    C121571   1.220   5.487   2.970  0.0306 -0.3332  0.0391
  188POPC    HA21572   1.136   5.421   2.940 -0.7519  0.9450 -0.7161
  188POPC    HB21573   1.198   5.588   2.929  0.7072  0.5801  1.8313
  188POPC    C221574   1.222   5.508   3.124 -0.1906 -0.2058 -0.2070
  188POPC    HS21575   1.118   5.524   3.162  0.5359  0.2501  1.6979
  188POPC   O2121576   1.306   5.619   3.168  0.2449 -0.1144 -0.4347
  188POPC   C2121577   1.259   5.731   3.133 -0.9763 -0.0709  0.4243
  188POPC   O2221578   1.153   5.754   3.082 -0.2133  0.4528  0.3145
  188POPC   C2221579   1.372   5.827   3.158  0.5491  0.3255  0.1450
  188POPC   H2R21580   1.344   5.934   3.166  3.9932  1.2867  1.3741
  188POPC   H2S21581   1.432   5.828   3.064 -2.7406  1.7063 -2.1199
  188POPC    C321582   1.264   5.379   3.199 -0.7757  0.8104  0.3732
  188POPC    HX21583   1.375   5.380   3.199 -0.7286  0.6402 -1.9632
  188POPC    HY21584   1.232   5.292   3.138 -0.1897  1.0102 -0.2313
  188POPC   O3121585   1.206   5.369   3.334  1.0133  1.2776  0.2333
  188POPC   C3121586   1.293   5.343   3.431 -0.3133 -0.2318 -0.1027
  188POPC   O3221587   1.414   5.335   3.413 -0.3066 -1.0155 -0.2034
  188POPC   C3221588   1.220   5.318   3.563  0.9833  0.1779  0.3991
  188POPC   H2X21589   1.183   5.215   3.546  1.1714  0.2563 -0.5408
  188POPC   H2Y21590   1.132   5.387   3.560  0.5328 -0.1780  3.1831
  188POPC   C2321591   1.459   5.804   3.284  0.3085 -0.0113  0.0720
  188POPC   H3R21592   1.541   5.879   3.290  0.1157  0.1392  0.9791
  188POPC   H3S21593   1.506   5.704   3.272  1.1555  0.4230 -0.2803
  188POPC   C2421594   1.371   5.807   3.415 -0.3387  0.3004  0.6949
  188POPC   H4R21595   1.296   5.727   3.403  0.5805 -0.4602 -0.2690
  188POPC   H4S21596   1.318   5.905   3.412 -1.2044 -0.1707  0.2309
  188POPC   C2521597   1.451   5.802   3.539 -0.3716  0.1750 -0.3954
  188POPC   H5R21598   1.533   5.878   3.530  0.4296 -0.8235 -2.0670
  188POPC   H5S21599   1.485   5.697   3.547 -0.1178  0.3801  1.8155
  188POPC   C2621600   1.380   5.837   3.671  0.7687  0.0324  0.4827
  188POPC   H6R21601   1.287   5.776   3.678  0.6214  0.2695  0.5989
  188POPC   H6S21602   1.346   5.942   3.682  0.4867  0.4630 -3.2144
  188POPC   C2721603   1.471   5.817   3.794 -0.7964 -0.2286 -0.3073
  188POPC   H7R21604   1.564   5.876   3.779 -0.0677 -1.1151  0.5677
  188POPC   H7S21605   1.492   5.708   3.804  0.9328  0.1601  0.7071
  188POPC   C2821606   1.405   5.848   3.926  0.3895 -0.2356 -0.1141
  188POPC   H8R21607   1.299   5.815   3.931  0.3970 -0.4228 -1.0238
  188POPC   H8S21608   1.398   5.957   3.944 -3.4324 -0.6500  1.8893
  188POPC   C2921609   1.488   5.799   4.037  0.6385  0.4219  0.2341
  188POPC   H9121610   1.597   5.797   4.020  1.2213  1.1972  3.2195
  188POPC  C21021611   1.441   5.730   4.140  0.2908 -0.0175  0.4395
  188POPC  H10121612   1.507   5.691   4.218  0.4417 -0.8809 -0.1065
  188POPC  C21121613   1.299   5.703   4.164  0.1870  0.4736 -1.2660
  188POPC  H11R21614   1.268   5.631   4.085  0.7458  1.3886 -2.3464
  188POPC  H11S21615   1.249   5.800   4.143  0.6784  0.8849 -0.5786
  188POPC  C21221616   1.289   5.670   4.320  0.2218 -0.0987  0.0971
  188POPC  H12R21617   1.357   5.585   4.339 -0.2091  0.1006  2.8478
  188POPC  H12S21618   1.194   5.619   4.347  1.3707 -2.4919 -0.1843
  188POPC  C21321619   1.324   5.782   4.418 -0.4565 -0.3701 -0.0869
  188POPC  H13R21620   1.240   5.855   4.414  0.0237  0.2562  0.7965
  188POPC  H13S21621   1.419   5.837   4.398 -1.1657  0.5064 -1.2003
  188POPC  C21421622   1.316   5.728   4.569  0.0405  0.7699 -1.0289
  188POPC  H14R21623   1.383   5.643   4.590 -0.1861  0.0761 -2.9203
  188POPC  H14S21624   1.209   5.697   4.572 -0.1261  1.0828 -2.6835
  188POPC  C21521625   1.353   5.840   4.673  0.1460 -0.1590 -0.5511
  188POPC  H15R21626   1.462   5.864   4.675  0.4035 -1.2759  0.8180
  188POPC  H15S21627   1.328   5.799   4.774  0.1202  3.5237  1.0939
  188POPC  C21621628   1.265   5.957   4.653  0.4969  0.0603 -0.9557
  188POPC  H16R21629   1.166   5.934   4.608 -0.1042 -1.1747  0.8668
  188POPC  H16S21630   1.319   6.026   4.585 -2.0387  2.2483 -0.8872
  188POPC  C21721631   1.224   6.032   4.782  0.4133 -0.2978 -0.3576
  188POPC  H17R21632   1.149   5.974   4.841 -0.4947  0.5466 -0.6583
  188POPC  H17S21633   1.168   6.117   4.739  0.4549 -0.1484 -0.1162
  188POPC  C21821634   1.336   6.083   4.875 -0.7617  1.0388 -0.3737
  188POPC  H18R21635   1.304   6.135   4.968  0.9613  1.3998  0.0495
  188POPC  H18S21636   1.407   6.141   4.814 -0.1382 -0.2639 -0.9220
  188POPC  H18T21637   1.385   5.986   4.899 -2.9101 -0.2823 -1.0828
  188POPC   C3321638   1.291   5.347   3.695 -1.2974 -0.1813  0.2347
  188POPC   H3X21639   1.204   5.341   3.764 -1.5272  1.4396  0.1280
  188POPC   H3Y21640   1.333   5.450   3.699  0.3504 -0.7679 -0.9116
  188POPC   C3421641   1.406   5.246   3.734  0.1458 -0.8234  0.2426
  188POPC   H4X21642   1.487   5.253   3.659 -0.1980  0.1231 -0.0565
  188POPC   H4Y21643   1.365   5.143   3.737  0.1244 -0.8122  0.3447
  188POPC   C3521644   1.470   5.275   3.875 -0.3180 -0.0655 -0.1374
  188POPC   H5X21645   1.507   5.379   3.878  0.5801 -0.3944  0.7966
  188POPC   H5Y21646   1.557   5.207   3.886 -0.1370  0.3988  1.5299
  188POPC   C3621647   1.382   5.258   3.996 -0.4740 -0.2128  0.3178
  188POPC   H6X21648   1.353   5.152   3.986 -0.1582 -0.2511 -0.2309
  188POPC   H6Y21649   1.293   5.322   3.975 -0.5616 -0.7427 -1.0158
  188POPC   C3721650   1.443   5.286   4.135  0.4123  0.1306  0.2554
  188POPC   H7X21651   1.476   5.391   4.144  1.0327 -0.0733  0.3844
  188POPC   H7Y21652   1.526   5.217   4.160 -1.0585 -1.7438  0.2042
  188POPC   C3821653   1.344   5.255   4.249  0.2957  0.0473 -0.4346
  188POPC   H8X21654   1.304   5.151   4.243 -0.1179  0.2395 -1.1708
  188POPC   H8Y21655   1.266   5.333   4.239  0.5481  0.3626  0.0249
  188POPC   C3921656   1.420   5.274   4.381  0.0910  0.3877  0.0290
  188POPC   H9X21657   1.343   5.293   4.459 -0.1039 -1.0961  0.2215
  188POPC   H9Y21658   1.478   5.369   4.380 -0.5642  0.8003 -1.1920
  188POPC  C31021659   1.503   5.156   4.425  0.7106  0.6221  0.3387
  188POPC  H10X21660   1.596   5.143   4.366  0.1466  0.2772 -0.5018
  188POPC  H10Y21661   1.440   5.071   4.392  0.7395  0.8474 -0.3049
  188POPC  C31121662   1.532   5.162   4.573  0.0039  0.3456  0.0238
  188POPC  H11X21663   1.560   5.058   4.601  0.0853  0.1353 -0.8199
  188POPC  H11Y21664   1.441   5.175   4.635 -0.4077  0.1579 -0.5369
  188POPC  C31221665   1.622   5.273   4.619 -0.0327 -0.3716 -0.4509
  188POPC  H12X21666   1.577   5.373   4.602  3.6160  1.2778 -1.5639
  188POPC  H12Y21667   1.712   5.263   4.554 -0.0328  0.9541 -0.6909
  188POPC  C31321668   1.675   5.274   4.764  0.6823  0.3919  0.6682
  188POPC  H13X21669   1.597   5.245   4.837 -0.8692  0.8693 -0.7286
  188POPC  H13Y21670   1.703   5.375   4.801  2.8007 -0.2772  1.0467
  188POPC  C31421671   1.793   5.185   4.805 -0.2526  0.2178  0.1051
  188POPC  H14X21672   1.873   5.193   4.729  0.6395 -2.7882  0.5869
  188POPC  H14Y21673   1.762   5.079   4.794  0.7784 -0.2674  1.5633
  188POPC  C31521674   1.852   5.199   4.945  0.2328  0.3423 -0.3678
  188POPC  H15X21675   1.777   5.174   5.024 -0.7434  1.0224 -1.0566
  188POPC  H15Y21676   1.879   5.306   4.949  2.4574 -0.1999  0.8245
  188POPC  C31621677   1.980   5.115   4.971  0.2656 -0.1471 -0.4919
  188POPC  H16X21678   2.051   5.162   4.899  1.5762 -0.2035  0.7180
  188POPC  H16Y21679   1.948   5.011   4.946 -1.3018  0.6155 -1.8196
  188POPC  H16Z21680   2.020   5.104   5.074  3.5205  0.7107 -1.5300
  189SAPI   C1221681   2.543   1.306   7.556 -0.2264 -0.0803  0.3099
  189SAPI    H221682   2.491   1.405   7.555 -1.6529 -0.7814  1.8712
  189SAPI    O221683   2.684   1.334   7.549  0.5514  0.1770 -0.1636
  189SAPI   HO221684   2.701   1.404   7.485  1.7531 -1.0836 -1.2945
  189SAPI   C1321685   2.493   1.225   7.678 -0.7236 -0.6243 -0.4435
  189SAPI    H321686   2.383   1.210   7.671 -0.6679 -1.1434 -0.2125
  189SAPI    O321687   2.525   1.306   7.793  0.2374 -0.4081 -0.1485
  189SAPI   HO321688   2.620   1.306   7.799  0.2196 -1.0677  0.2717
  189SAPI   C1421689   2.562   1.091   7.690 -0.0040  0.8261  0.4342
  189SAPI    H421690   2.665   1.117   7.722  0.0987  2.6256 -1.1437
  189SAPI    O421691   2.523   1.009   7.798  0.1206  0.1054 -0.1788
  189SAPI   HO421692   2.427   1.005   7.796  0.0779 -3.7086  1.5632
  189SAPI   C1521693   2.574   1.020   7.549 -0.0739  0.4788 -0.3839
  189SAPI    H521694   2.486   0.953   7.557 -1.4808  2.3655  0.8637
  189SAPI    O521695   2.696   0.942   7.547  0.1361  0.1460 -0.1594
  189SAPI   HO521696   2.766   1.001   7.574 -0.1347 -0.1282  1.2035
  189SAPI   C1621697   2.559   1.101   7.419  0.4979  0.8010 -0.3832
  189SAPI    H621698   2.658   1.115   7.370  1.4638 -1.0975  0.8984
  189SAPI    O621699   2.479   1.030   7.326  0.2949 -0.2568 -0.2733
  189SAPI   HO621700   2.393   1.011   7.364  0.2296 -1.9267 -1.1662
  189SAPI   C1121701   2.499   1.237   7.429 -0.4243  0.0548 -0.4138
  189SAPI    H121702   2.391   1.219   7.444 -0.1692 -3.1043 -1.4692
  189SAPI     P21703   2.416   1.438   7.273 -0.2619  0.2630  0.0729
  189SAPI   O1321704   2.491   1.536   7.195  0.1692  0.0584  0.3414
  189SAPI   O1421705   2.350   1.491   7.393  0.0200  0.3158  0.6851
  189SAPI   O1221706   2.529   1.327   7.320  0.2061 -0.3655  0.2023
  189SAPI   O1121707   2.304   1.387   7.181  0.0451 -0.0940  0.1638
  189SAPI    C121708   2.317   1.264   7.105 -0.2323  0.5738  0.1290
  189SAPI    HA21709   2.349   1.178   7.169 -0.0064  2.0515  2.1251
  189SAPI    HB21710   2.216   1.236   7.068 -0.0448 -1.1573  0.8360
  189SAPI    C221711   2.419   1.248   6.988 -0.3814 -0.5862  0.0538
  189SAPI    HS21712   2.515   1.294   7.022 -1.4895  1.8669  0.0742
  189SAPI   O2121713   2.363   1.333   6.883  0.6352 -0.2482 -0.0018
  189SAPI   C2121714   2.449   1.392   6.809  0.3623 -0.3161 -0.6199
  189SAPI   O2221715   2.569   1.378   6.815  0.0050  0.2004 -0.6122
  189SAPI   C2221716   2.376   1.480   6.711  0.2157 -0.4979 -0.1796
  189SAPI   H2R21717   2.273   1.443   6.690  0.4644 -2.5630  1.9214
  189SAPI   H2S21718   2.368   1.579   6.761  0.0307 -1.6462  2.1928
  189SAPI    C321719   2.439   1.099   6.941  0.1804 -0.2505  0.4140
  189SAPI    HX21720   2.334   1.068   6.922  0.6660 -1.6697 -0.1205
  189SAPI    HY21721   2.477   1.040   7.027  1.9760  0.2597  0.0258
  189SAPI   O3121722   2.512   1.070   6.816 -0.5564 -0.4383  0.0154
  189SAPI   C3121723   2.644   1.086   6.816 -0.1284 -0.7979  0.1394
  189SAPI   O3221724   2.715   1.096   6.916 -0.1913 -0.0619 -0.3657
  189SAPI   C3221725   2.697   1.104   6.677 -0.3854 -0.1840  0.5250
  189SAPI   H2X21726   2.638   1.180   6.620 -0.4101 -0.8135 -0.3149
  189SAPI   H2Y21727   2.687   1.002   6.634  0.4238 -0.0147 -0.0889
  189SAPI   C2321728   2.449   1.513   6.578 -0.2744  0.1781 -0.4442
  189SAPI   H3R21729   2.550   1.557   6.595  0.5318 -1.6201 -0.3489
  189SAPI   H3S21730   2.377   1.584   6.533  1.2641  1.8616 -0.3714
  189SAPI   C2421731   2.459   1.398   6.472 -0.3029  0.2583  0.8520
  189SAPI   H4R21732   2.360   1.357   6.442 -0.9758  1.3883  1.4624
  189SAPI   H4S21733   2.526   1.316   6.507  0.0653  0.1418 -0.0956
  189SAPI   C2521734   2.514   1.457   6.345  0.2825  0.5789 -0.5461
  189SAPI   H5R21735   2.523   1.567   6.338 -0.0216  0.6465  0.0805
  189SAPI   C2621736   2.553   1.379   6.245  0.2087 -0.1473 -0.3049
  189SAPI   H6R21737   2.605   1.426   6.160 -0.4488  0.7537 -0.2282
  189SAPI   C2721738   2.522   1.233   6.232 -0.4106  0.5969 -0.2320
  189SAPI   H7R21739   2.486   1.219   6.128 -3.5046  2.9242  0.3770
  189SAPI   H7S21740   2.442   1.192   6.298  0.2631  0.9193  0.8086
  189SAPI   C2821741   2.641   1.156   6.258 -0.6608 -0.0059  0.5870
  189SAPI   H8R21742   2.654   1.120   6.361  1.7709  1.1669  0.7541
  189SAPI   C2921743   2.731   1.132   6.160 -0.1438  0.2288 -0.5341
  189SAPI   H9R21744   2.802   1.051   6.180 -1.9992 -1.7223 -1.3799
  189SAPI  C21021745   2.725   1.158   6.008  0.0804  0.1965  0.3633
  189SAPI  H10R21746   2.828   1.131   5.975 -0.7965 -2.6136 -0.3616
  189SAPI  H10S21747   2.707   1.267   5.991  0.3393  0.0697 -0.8552
  189SAPI  C21121748   2.626   1.069   5.929  0.2267 -0.1082 -0.2958
  189SAPI  H11R21749   2.572   0.997   5.993 -2.0849 -0.4632 -2.4911
  189SAPI  C21221750   2.600   1.060   5.793 -0.0816 -0.1756  0.1011
  189SAPI  H12R21751   2.518   0.995   5.760 -0.2093  0.2223 -0.3684
  189SAPI  C21321752   2.675   1.124   5.684 -0.8670  0.3446 -0.4193
  189SAPI  H13R21753   2.717   1.223   5.712  1.6519 -1.1197  1.4852
  189SAPI  H13S21754   2.595   1.149   5.612 -1.3243 -0.9823 -0.3860
  189SAPI  C21421755   2.778   1.041   5.618  0.6793 -0.3155 -0.2494
  189SAPI  H14R21756   2.877   1.055   5.664  0.4878  0.1143  0.0414
  189SAPI  C21521757   2.773   0.967   5.510 -0.2184  0.4843 -0.1442
  189SAPI  H15R21758   2.865   0.916   5.478 -1.3211 -1.2150 -0.7722
  189SAPI  C21621759   2.650   0.940   5.428 -0.0655  0.3806 -0.4489
  189SAPI  H16R21760   2.562   0.989   5.475  0.3845 -1.8793  3.1487
  189SAPI  H16S21761   2.631   0.831   5.429 -2.2742  0.6846 -2.0019
  189SAPI  C21721762   2.681   0.984   5.276 -0.6999 -0.5278  0.0275
  189SAPI  H17R21763   2.710   1.091   5.284  0.9722 -0.9114 -0.5006
  189SAPI  H17S21764   2.583   0.972   5.226 -1.5078 -1.1270  1.6885
  189SAPI  C21821765   2.793   0.912   5.204 -0.1401  1.2846  0.1958
  189SAPI  H18R21766   2.884   0.907   5.268  2.4023  1.3450 -3.1505
  189SAPI  H18S21767   2.827   0.973   5.118  1.6310  0.4075  0.2373
  189SAPI  C21921768   2.754   0.774   5.156 -0.7805  0.2194  0.0179
  189SAPI  H19R21769   2.645   0.775   5.133 -0.5012 -2.4233 -1.8223
  189SAPI  H19S21770   2.779   0.712   5.245 -0.1328 -0.7508 -0.8237
  189SAPI  C22021771   2.838   0.739   5.035 -0.0403  0.0357 -0.0890
  189SAPI  H20R21772   2.791   0.781   4.943 -1.8732 -0.3511  0.6405
  189SAPI  H20S21773   2.840   0.630   5.013 -2.0753 -0.6011  2.4142
  189SAPI  H20T21774   2.944   0.771   5.044 -0.2731  0.6437  0.5976
  189SAPI   C3321775   2.836   1.161   6.664 -0.0693  0.5487 -0.1299
  189SAPI   H3X21776   2.907   1.083   6.699  1.5801  0.5439 -3.0925
  189SAPI   H3Y21777   2.835   1.249   6.731  0.1329 -0.3147  1.0396
  189SAPI   C3421778   2.873   1.190   6.518  0.3156  0.8129 -0.6073
  189SAPI   H4X21779   2.820   1.286   6.500  0.1515  0.7353 -0.5463
  189SAPI   H4Y21780   2.832   1.108   6.454 -2.3770  2.0480 -0.5739
  189SAPI   C3521781   3.021   1.178   6.481 -0.0430 -0.4230 -0.0077
  189SAPI   H5X21782   3.078   1.094   6.528  0.8511  0.2639  0.1525
  189SAPI   H5Y21783   3.075   1.270   6.510 -1.3177  0.8531 -1.5045
  189SAPI   C3621784   3.044   1.151   6.332 -0.8333  0.5724  0.2966
  189SAPI   H6X21785   2.976   1.218   6.274 -1.6570  2.1764  2.9330
  189SAPI   H6Y21786   3.025   1.043   6.315  0.8552  0.1540  0.8441
  189SAPI   C3721787   3.193   1.179   6.297  0.3575 -0.1872  0.5417
  189SAPI   H7X21788   3.258   1.132   6.373 -0.5268 -0.1308  1.3494
  189SAPI   H7Y21789   3.221   1.287   6.296  1.9321 -0.5621 -0.9886
  189SAPI   C3821790   3.226   1.121   6.152  0.4062 -0.0676  0.1113
  189SAPI   H8X21791   3.206   1.012   6.159  3.7542 -0.7222  2.2596
  189SAPI   H8Y21792   3.332   1.141   6.125 -0.0785  1.8899 -0.4775
  189SAPI   C3921793   3.144   1.178   6.043 -0.5205 -0.4829  0.4611
  189SAPI   H9X21794   3.148   1.288   6.031 -3.1169 -0.6033 -3.9842
  189SAPI   H9Y21795   3.038   1.148   6.059 -0.4005 -1.8120 -0.9657
  189SAPI  C31021796   3.196   1.120   5.909  0.6412 -0.1621  0.4980
  189SAPI  H10X21797   3.199   1.009   5.917 -0.6043 -0.1418  1.6593
  189SAPI  H10Y21798   3.301   1.153   5.897 -0.1266  2.0786 -0.4621
  189SAPI  C31121799   3.108   1.172   5.790 -0.3356  0.5733 -0.3175
  189SAPI  H11X21800   3.105   1.283   5.791  0.9980  0.6325  0.9951
  189SAPI  H11Y21801   3.004   1.133   5.798  0.1059 -0.5356  0.3706
  189SAPI  C31221802   3.172   1.136   5.659  0.5754 -0.1907  0.0791
  189SAPI  H12X21803   3.159   1.026   5.656 -0.0589 -0.2194  2.2992
  189SAPI  H12Y21804   3.282   1.153   5.671  0.2632  0.9401  1.5671
  189SAPI  C31321805   3.112   1.198   5.529  0.0385 -0.5062 -0.7827
  189SAPI  H13X21806   3.128   1.308   5.536  2.1507 -0.8933  2.3014
  189SAPI  H13Y21807   3.002   1.182   5.534  0.2325 -1.4629  2.0292
  189SAPI  C31421808   3.173   1.148   5.397 -0.4417  0.1122 -0.1980
  189SAPI  H14X21809   3.185   1.041   5.425 -2.0849  0.5405  2.3760
  189SAPI  H14Y21810   3.265   1.200   5.363 -1.3999  0.6272 -2.1075
  189SAPI  C31521811   3.076   1.153   5.281  0.5030 -0.2493 -0.4017
  189SAPI  H15X21812   2.977   1.107   5.299 -0.1438  1.7051  1.5164
  189SAPI  H15Y21813   3.127   1.098   5.200 -2.6328 -2.0321 -1.3183
  189SAPI  C31621814   3.053   1.292   5.227  0.7729 -0.3899  0.3848
  189SAPI  H16X21815   3.153   1.340   5.229 -0.3450  2.0744  1.2058
  189SAPI  H16Y21816   2.983   1.350   5.291 -0.3137  1.7829 -2.4878
  189SAPI  C31721817   3.026   1.299   5.073 -0.2494  0.0062 -0.1471
  189SAPI  H17X21818   3.020   1.406   5.044  2.5908  0.3215  0.1823
  189SAPI  H17Y21819   2.925   1.254   5.056 -0.2335  0.5421 -1.8544
  189SAPI  C31821820   3.134   1.231   4.982 -0.3002 -0.7600  0.0981
  189SAPI  H18X21821   3.239   1.259   5.001 -0.5888  0.1729  0.3571
  189SAPI  H18Y21822   3.111   1.242   4.873 -0.2993 -0.3185  0.1419
  189SAPI  H18Z21823   3.143   1.123   5.007  0.8505 -0.5570  0.5851
  190SAPI   C1221824   2.191   3.414   7.010  0.2609 -0.1956  0.3916
  190SAPI    H221825   2.248   3.469   7.087  0.0104 -0.7894  1.0097
  190SAPI    O221826   2.281   3.378   6.903  0.1451 -0.5629 -0.1929
  190SAPI   HO221827   2.273   3.448   6.838 -1.2810  1.8854  2.3766
  190SAPI   C1321828   2.128   3.295   7.069  0.2961  0.2349  0.1133
  190SAPI    H321829   2.039   3.323   7.130 -0.3921 -0.1578 -0.6939
  190SAPI    O321830   2.223   3.230   7.157 -0.3868 -0.5779 -0.8262
  190SAPI   HO321831   2.307   3.227   7.110  1.9560 -0.8121  3.0128
  190SAPI   C1421832   2.072   3.203   6.964  0.9925  0.0281  0.1706
  190SAPI    H421833   2.155   3.167   6.900  0.1837  0.4948 -1.1775
  190SAPI    O421834   2.018   3.082   7.022  0.5249  0.2156  0.6368
  190SAPI   HO421835   2.083   3.014   7.001 -1.9119 -1.6214 -1.5435
  190SAPI   C1521836   1.969   3.282   6.870  0.5015  0.6105  0.3738
  190SAPI    H521837   1.870   3.279   6.919  0.5034  1.7797  0.4697
  190SAPI    O521838   1.968   3.213   6.743 -0.1925  0.0017  0.3975
  190SAPI   HO521839   1.878   3.226   6.714  0.1951  0.7098 -0.5282
  190SAPI   C1621840   2.003   3.431   6.843 -0.6046 -0.0680 -1.0049
  190SAPI    H621841   2.075   3.435   6.759  2.5146 -0.9013  1.3972
  190SAPI    O621842   1.885   3.501   6.815 -0.0179  0.2806 -0.2994
  190SAPI   HO621843   1.929   3.584   6.793  1.0623  0.3860  2.0123
  190SAPI   C1121844   2.086   3.505   6.950  0.4592  0.6839 -0.1308
  190SAPI    H121845   2.018   3.537   7.032  1.5163 -0.1979  1.1415
  190SAPI     P21846   2.213   3.744   6.963 -0.1501  0.1436  0.2604
  190SAPI   O1321847   2.181   3.736   7.102 -0.3817 -0.0176 -0.1875
  190SAPI   O1421848   2.184   3.867   6.891 -0.3306  0.0201 -0.2642
  190SAPI   O1221849   2.145   3.619   6.887 -0.0721  0.1875  0.0599
  190SAPI   O1121850   2.361   3.702   6.945 -0.1851  0.0923  0.1656
  190SAPI    C121851   2.441   3.757   6.835  0.4004  0.0267 -0.3789
  190SAPI    HA21852   2.402   3.854   6.798  0.3854  0.1446 -0.0563
  190SAPI    HB21853   2.542   3.773   6.877  0.1735 -0.5096  0.3889
  190SAPI    C221854   2.460   3.655   6.719  0.3618 -0.2234 -0.1124
  190SAPI    HS21855   2.435   3.549   6.742  2.7551 -0.5976  1.0590
  190SAPI   O2121856   2.598   3.671   6.684 -0.1260 -0.3472  0.4501
  190SAPI   C2121857   2.660   3.563   6.653  0.0659  0.5681  0.7756
  190SAPI   O2221858   2.616   3.451   6.662 -0.1770  0.3309 -0.3279
  190SAPI   C2221859   2.786   3.607   6.586 -0.5986 -0.0937 -0.3580
  190SAPI   H2R21860   2.761   3.681   6.507  0.2909  0.1823 -0.3930
  190SAPI   H2S21861   2.837   3.662   6.668  0.3849 -1.2902 -0.1567
  190SAPI    C321862   2.375   3.695   6.598  0.0212 -0.4865  0.1642
  190SAPI    HX21863   2.417   3.795   6.575 -1.3171  0.6533  2.3495
  190SAPI    HY21864   2.268   3.717   6.617 -0.0833 -1.9579  1.5009
  190SAPI   O3121865   2.392   3.607   6.484 -0.0851  0.2624  0.2469
  190SAPI   C3121866   2.332   3.489   6.487  0.0541 -0.7101 -0.4820
  190SAPI   O3221867   2.268   3.444   6.584  0.6514 -0.2649 -0.0275
  190SAPI   C3221868   2.349   3.405   6.363  0.3697  0.3490 -0.2217
  190SAPI   H2X21869   2.246   3.403   6.321 -0.2407  2.9180  0.9906
  190SAPI   H2Y21870   2.379   3.300   6.385  1.4816  0.8285  0.6067
  190SAPI   C2321871   2.874   3.494   6.526  0.9892 -0.3816 -0.2631
  190SAPI   H3R21872   2.806   3.440   6.457 -0.2226  1.5057 -0.6102
  190SAPI   H3S21873   2.894   3.422   6.609 -2.2792 -0.1880  0.8377
  190SAPI   C2421874   2.999   3.538   6.444  0.2805  0.0070 -0.6970
  190SAPI   H4R21875   2.972   3.584   6.347  2.2467  1.5446 -0.5900
  190SAPI   H4S21876   3.065   3.451   6.425  1.9796  1.3283 -1.2000
  190SAPI   C2521877   3.074   3.650   6.509  0.0410  0.2297  0.1420
  190SAPI   H5R21878   3.021   3.743   6.534  2.3860  2.0992 -1.3731
  190SAPI   C2621879   3.206   3.654   6.539 -0.7139 -0.2992 -0.5742
  190SAPI   H6R21880   3.236   3.748   6.589  0.9523 -1.3396  0.4741
  190SAPI   C2721881   3.314   3.556   6.512 -0.2433  0.4336  0.5450
  190SAPI   H7R21882   3.276   3.463   6.465 -0.7971  1.8206 -1.9618
  190SAPI   H7S21883   3.360   3.525   6.608 -0.9493 -2.4344  0.0521
  190SAPI   C2821884   3.417   3.626   6.423 -1.0200 -0.1747  0.3073
  190SAPI   H8R21885   3.441   3.728   6.457 -1.7119  0.2189 -0.3528
  190SAPI   C2921886   3.490   3.582   6.320  0.6399  0.2891 -0.3478
  190SAPI   H9R21887   3.556   3.655   6.271  0.1624  1.4746  0.7396
  190SAPI  C21021888   3.483   3.439   6.261  0.1083  0.2532  0.0014
  190SAPI  H10R21889   3.432   3.379   6.339  1.1342 -1.3248 -0.4815
  190SAPI  H10S21890   3.585   3.395   6.250 -0.9786 -2.1517 -1.3562
  190SAPI  C21121891   3.421   3.436   6.123  0.4883  0.2314 -0.1799
  190SAPI  H11R21892   3.314   3.410   6.128  0.6934 -0.4365  1.5743
  190SAPI  C21221893   3.474   3.460   5.997  0.0376  0.1951 -0.5961
  190SAPI  H12R21894   3.400   3.476   5.917 -0.0286 -0.0382 -0.5842
  190SAPI  C21321895   3.616   3.490   5.957  0.8000 -0.0628 -0.2811
  190SAPI  H13R21896   3.666   3.539   6.044  1.0109  0.2706 -0.5846
  190SAPI  H13S21897   3.604   3.571   5.882  0.1690  0.0156 -0.0977
  190SAPI  C21421898   3.720   3.387   5.907  0.2884 -0.5172  0.6729
  190SAPI  H14R21899   3.778   3.360   5.997 -0.4137  3.1148  2.4212
  190SAPI  C21521900   3.736   3.346   5.776 -0.6570 -0.6380  0.2382
  190SAPI  H15R21901   3.811   3.266   5.767  0.4572  0.4498 -0.3488
  190SAPI  C21621902   3.675   3.393   5.644 -0.3064 -0.7131  0.4696
  190SAPI  H16R21903   3.624   3.490   5.665  0.7010  0.2347 -1.2537
  190SAPI  H16S21904   3.594   3.321   5.619 -0.5800 -0.2239 -0.0784
  190SAPI  C21721905   3.777   3.423   5.527  0.0525 -0.0638  0.2391
  190SAPI  H17R21906   3.858   3.348   5.511 -0.3755 -0.4752 -0.0242
  190SAPI  H17S21907   3.830   3.516   5.556  1.7347 -1.0522  0.4792
  190SAPI  C21821908   3.710   3.432   5.397 -0.7258 -0.0589 -0.0033
  190SAPI  H18R21909   3.628   3.506   5.409 -0.3138  0.3785  0.1361
  190SAPI  H18S21910   3.677   3.329   5.374 -0.3977 -0.1600 -0.0294
  190SAPI  C21921911   3.812   3.465   5.289 -0.1304  0.3054 -0.3184
  190SAPI  H19R21912   3.904   3.408   5.312  0.2698  1.4640  1.1115
  190SAPI  H19S21913   3.846   3.570   5.279  0.9435 -0.0475 -0.5252
  190SAPI  C22021914   3.771   3.407   5.151 -0.7083  0.0605  0.3779
  190SAPI  H20R21915   3.855   3.411   5.078  0.7422  1.1599  2.0199
  190SAPI  H20S21916   3.696   3.462   5.090 -1.3814 -0.8464  0.3714
  190SAPI  H20T21917   3.743   3.302   5.171  0.3298 -0.2082  0.4588
  190SAPI   C3321918   2.453   3.464   6.268 -0.7182 -0.0227  0.2370
  190SAPI   H3X21919   2.465   3.389   6.187  0.7918  1.6270 -1.1541
  190SAPI   H3Y21920   2.552   3.487   6.313  0.6341 -1.2723 -1.9550
  190SAPI   C3421921   2.396   3.584   6.175  0.0324  0.5054 -0.3330
  190SAPI   H4X21922   2.376   3.669   6.245  0.2969  0.0077  0.3613
  190SAPI   H4Y21923   2.299   3.554   6.130  1.2180 -1.2024 -1.9067
  190SAPI   C3521924   2.493   3.617   6.062  0.0739 -0.1631  0.2111
  190SAPI   H5X21925   2.591   3.625   6.114 -2.5136 -1.1277  5.9567
  190SAPI   H5Y21926   2.468   3.720   6.030 -0.8359 -0.5410 -0.3556
  190SAPI   C3621927   2.488   3.533   5.939  0.2053 -0.4906  0.6219
  190SAPI   H6X21928   2.386   3.511   5.902 -0.3924  0.0893  1.8665
  190SAPI   H6Y21929   2.543   3.438   5.955  2.2442  0.2281 -1.4447
  190SAPI   C3721930   2.567   3.597   5.831  0.0642 -0.6872  0.4479
  190SAPI   H7X21931   2.649   3.651   5.883 -0.7817 -0.0843  1.1931
  190SAPI   H7Y21932   2.514   3.677   5.775  3.5772  0.2611 -1.8321
  190SAPI   C3821933   2.609   3.501   5.717 -0.0810 -0.2064 -0.1096
  190SAPI   H8X21934   2.513   3.459   5.681 -0.2331 -2.5306  2.6324
  190SAPI   H8Y21935   2.677   3.425   5.761 -0.3051 -0.7425 -0.6584
  190SAPI   C3921936   2.693   3.580   5.613  0.8173 -0.0208  0.0176
  190SAPI   H9X21937   2.773   3.634   5.666  1.9698 -0.6028 -1.0715
  190SAPI   H9Y21938   2.625   3.650   5.559  2.7925  1.2677 -0.9228
  190SAPI  C31021939   2.752   3.489   5.501  0.1118 -0.4479  0.4900
  190SAPI  H10X21940   2.669   3.424   5.466 -1.3670  1.7962 -0.3927
  190SAPI  H10Y21941   2.836   3.431   5.544 -0.3639 -1.1574  0.4821
  190SAPI  C31121942   2.784   3.565   5.372 -0.0616 -0.2610  0.6633
  190SAPI  H11X21943   2.696   3.627   5.343 -0.2685 -0.5291  0.7183
  190SAPI  H11Y21944   2.811   3.488   5.298 -0.9853  1.8630 -2.0485
  190SAPI  C31221945   2.897   3.665   5.383 -0.3081  0.0804  0.4340
  190SAPI  H12X21946   2.992   3.620   5.420 -0.1339  0.6054  0.6369
  190SAPI  H12Y21947   2.881   3.745   5.458  1.5235 -1.0777  2.1648
  190SAPI  C31321948   2.928   3.736   5.247 -0.1888  0.4333  0.4630
  190SAPI  H13X21949   2.846   3.804   5.214  0.6954  1.2269 -0.1347
  190SAPI  H13Y21950   2.955   3.662   5.168 -0.6102 -0.4334  1.1169
  190SAPI  C31421951   3.057   3.816   5.278  0.1244 -0.1878  0.4451
  190SAPI  H14X21952   3.137   3.747   5.313 -0.4303 -0.6852  0.7532
  190SAPI  H14Y21953   3.048   3.898   5.352  3.4543  0.3320  0.4399
  190SAPI  C31521954   3.125   3.889   5.156 -0.6352  0.5757  0.2983
  190SAPI  H15X21955   3.054   3.952   5.098 -2.6529 -1.3999  0.4929
  190SAPI  H15Y21956   3.162   3.806   5.093 -0.4576  0.3427  0.7115
  190SAPI  C31621957   3.247   3.970   5.202  0.5582 -0.3807 -0.1494
  190SAPI  H16X21958   3.314   3.896   5.250  0.5460 -1.1027 -1.2313
  190SAPI  H16Y21959   3.235   4.054   5.274 -0.5715  0.2229 -1.0057
  190SAPI  C31721960   3.318   4.041   5.081 -0.0708  0.3758 -0.1277
  190SAPI  H17X21961   3.348   3.967   5.004 -0.0506  0.1038  0.1383
  190SAPI  H17Y21962   3.402   4.096   5.129 -0.3886  0.8680 -0.1283
  190SAPI  C31821963   3.234   4.140   5.003  0.0288 -0.0021  0.0768
  190SAPI  H18X21964   3.153   4.098   4.940  0.0207 -1.1441  0.8209
  190SAPI  H18Y21965   3.308   4.201   4.947  0.0935  2.4695  2.6296
  190SAPI  H18Z21966   3.192   4.207   5.081 -0.6988 -0.3727  0.0077
  191SAPI   C1221967   2.145   3.649   3.079  0.3452 -0.5018 -0.0388
  191SAPI    H221968   2.069   3.730   3.082  0.6285 -0.2485  0.8357
  191SAPI    O221969   2.132   3.593   2.948 -0.2086 -0.0942 -0.4814
  191SAPI   HO221970   2.118   3.500   2.965 -1.0577  0.1770  0.4111
  191SAPI   C1321971   2.282   3.714   3.109  0.6755  0.0292 -0.7819
  191SAPI    H321972   2.273   3.744   3.215  0.7154 -0.5524 -0.6067
  191SAPI    O321973   2.315   3.829   3.031 -0.0822  0.3507  0.2869
  191SAPI   HO321974   2.409   3.837   3.050 -0.2414 -0.6234  1.6260
  191SAPI   C1421975   2.383   3.606   3.087 -0.3281 -0.0661 -0.0535
  191SAPI    H421976   2.378   3.572   2.981  1.0124 -0.9026  0.1322
  191SAPI    O421977   2.518   3.654   3.119 -0.2497  0.0201  0.0228
  191SAPI   HO421978   2.566   3.677   3.040 -1.6978  1.1772 -0.5780
  191SAPI   C1521979   2.364   3.476   3.171 -0.2781 -0.1835  0.1293
  191SAPI    H521980   2.418   3.505   3.264 -1.5490  0.4254  0.6966
  191SAPI    O521981   2.432   3.359   3.113  0.3020  0.1130 -0.2013
  191SAPI   HO521982   2.463   3.306   3.187 -0.6519  0.2692  0.3292
  191SAPI   C1621983   2.220   3.436   3.209 -0.2553  1.3551 -0.3544
  191SAPI    H621984   2.186   3.352   3.145 -1.3193  0.6215  1.1076
  191SAPI    O621985   2.203   3.387   3.344  0.4030  0.2854  0.3296
  191SAPI   HO621986   2.110   3.370   3.358  0.3816  0.1166  0.0022
  191SAPI   C1121987   2.114   3.541   3.178  0.6468  0.5376 -0.1412
  191SAPI    H121988   2.129   3.600   3.271 -0.2510 -0.4749  0.6798
  191SAPI     P21989   1.906   3.391   3.091  0.1940 -0.0153  0.0997
  191SAPI   O1321990   1.995   3.368   2.979 -0.1121  0.6806 -0.1650
  191SAPI   O1421991   1.767   3.430   3.060 -0.0209  0.4842 -0.2016
  191SAPI   O1221992   1.978   3.508   3.183  0.0658  0.0708 -0.6639
  191SAPI   O1121993   1.912   3.271   3.190  0.7175  0.2497 -0.0610
  191SAPI    C121994   1.812   3.241   3.289  0.1846 -0.1297  0.0031
  191SAPI    HA21995   1.731   3.317   3.287  0.4597  0.1558 -0.5393
  191SAPI    HB21996   1.777   3.136   3.277 -0.0656  0.0591 -1.0097
  191SAPI    C221997   1.866   3.239   3.434  0.4251 -0.3285 -0.1897
  191SAPI    HS21998   1.775   3.227   3.497 -0.9137  3.9366 -0.9944
  191SAPI   O2121999   1.938   3.362   3.474 -0.2836 -0.0496 -0.0518
  191SAPI   C2122000   1.851   3.466   3.492 -0.3603  0.9342  0.5752
  191SAPI   O2222001   1.731   3.462   3.486 -0.1481 -0.2476 -0.2574
  191SAPI   C2222002   1.945   3.577   3.549 -0.0245  0.1497 -0.4958
  191SAPI   H2R22003   2.004   3.617   3.464 -0.2221  1.0673 -0.2050
  191SAPI   H2S22004   1.866   3.648   3.578 -1.6666 -1.7050 -0.2046
  191SAPI    C322005   1.957   3.115   3.451  0.5619 -0.6177 -0.0809
  191SAPI    HX22006   2.036   3.136   3.376  0.3946 -1.7806 -0.6196
  191SAPI    HY22007   1.897   3.030   3.411 -0.5016  0.0649  0.0112
  191SAPI   O3122008   2.019   3.089   3.585  0.4632 -0.4510 -0.1017
  191SAPI   C3122009   1.941   3.062   3.687  0.0018  0.2132 -0.0541
  191SAPI   O3222010   1.822   3.029   3.681  0.0561  0.5726 -0.6758
  191SAPI   C3222011   2.018   3.063   3.817  0.2298  0.4171 -0.3536
  191SAPI   H2X22012   2.120   3.098   3.792  0.5227 -0.3854 -0.2946
  191SAPI   H2Y22013   2.013   2.956   3.849  0.0781  0.5619  0.1220
  191SAPI   C2322014   2.040   3.535   3.666  0.6149  0.1628 -0.3662
  191SAPI   H3R22015   2.117   3.613   3.679  0.1885  0.4999  0.1898
  191SAPI   H3S22016   2.085   3.439   3.633 -1.4303 -0.8159 -0.4753
  191SAPI   C2422017   1.955   3.527   3.805  0.3955 -1.0255 -0.4350
  191SAPI   H4R22018   2.028   3.502   3.884  1.2024  1.7223 -0.2312
  191SAPI   H4S22019   1.892   3.437   3.786 -0.1065 -0.1678 -3.4730
  191SAPI   C2522020   1.882   3.654   3.855  0.1911  1.5303 -0.0086
  191SAPI   H5R22021   1.946   3.743   3.863  1.9079  0.3512 -0.2522
  191SAPI   C2622022   1.753   3.658   3.895 -0.4392  0.2636 -1.1886
  191SAPI   H6R22023   1.708   3.753   3.928  1.4310  0.7230  0.2247
  191SAPI   C2722024   1.652   3.548   3.896 -0.6526  0.5936  0.6785
  191SAPI   H7R22025   1.603   3.548   3.996 -2.9494  0.6409 -0.3830
  191SAPI   H7S22026   1.702   3.448   3.893 -2.5146 -0.3755 -1.9492
  191SAPI   C2822027   1.560   3.541   3.780  0.1244 -0.7606 -0.1900
  191SAPI   H8R22028   1.605   3.558   3.681 -0.7480  2.5115 -0.1175
  191SAPI   C2922029   1.425   3.535   3.792  0.0094 -0.0317 -0.3377
  191SAPI   H9R22030   1.364   3.532   3.700 -0.8440 -0.3814  0.2278
  191SAPI  C21022031   1.338   3.524   3.920 -0.0581 -0.3264  0.6780
  191SAPI  H10R22032   1.235   3.527   3.878  1.2439 -3.0389 -3.3463
  191SAPI  H10S22033   1.367   3.609   3.985  0.1951 -0.6870  1.0404
  191SAPI  C21122034   1.369   3.397   4.003 -0.3438  0.4019 -0.1013
  191SAPI  H11R22035   1.416   3.311   3.954 -1.9429 -1.1790  1.0050
  191SAPI  C21222036   1.318   3.369   4.125  0.3879 -0.1931 -0.3843
  191SAPI  H12R22037   1.348   3.274   4.173 -3.3861 -0.5475  1.6277
  191SAPI  C21322038   1.240   3.469   4.207 -0.2018 -0.5052  0.3783
  191SAPI  H13R22039   1.205   3.556   4.147  0.8867 -0.2867  0.0327
  191SAPI  H13S22040   1.296   3.491   4.301 -2.5716  0.4553  1.6568
  191SAPI  C21422041   1.110   3.399   4.241 -0.2629 -0.4406 -0.1258
  191SAPI  H14R22042   1.059   3.351   4.156 -1.0063 -1.3134  0.7962
  191SAPI  C21522043   1.062   3.377   4.364  0.0876 -0.7945 -0.2726
  191SAPI  H15R22044   0.974   3.312   4.380 -0.5993  0.1352 -0.1689
  191SAPI  C21622045   1.115   3.428   4.497  0.2142 -0.3927 -0.4608
  191SAPI  H16R22046   1.216   3.475   4.493  0.5721 -1.1882 -2.1227
  191SAPI  H16S22047   1.127   3.349   4.573 -1.8888  1.5867  2.0969
  191SAPI  C21722048   1.026   3.537   4.557  0.3139 -0.1132  0.2029
  191SAPI  H17R22049   0.925   3.490   4.564  1.2282 -2.4167 -1.0256
  191SAPI  H17S22050   1.022   3.635   4.505 -1.6181  0.8255  1.9916
  191SAPI  C21822051   1.074   3.568   4.702  0.1401  0.2044 -0.4448
  191SAPI  H18R22052   1.045   3.478   4.760 -3.8973 -0.4312 -3.0711
  191SAPI  H18S22053   1.012   3.655   4.733 -0.3177 -0.7898  1.5725
  191SAPI  C21922054   1.226   3.607   4.714  0.0914  0.8967 -0.1222
  191SAPI  H19R22055   1.280   3.513   4.691 -0.6755  0.5603 -0.5827
  191SAPI  H19S22056   1.254   3.636   4.818 -0.4218 -1.2278  0.6804
  191SAPI  C22022057   1.277   3.716   4.617  0.3389 -0.8447  0.6509
  191SAPI  H20R22058   1.268   3.686   4.510  0.7429 -0.0206  0.3779
  191SAPI  H20S22059   1.384   3.736   4.637  0.0048  0.4201  1.2574
  191SAPI  H20T22060   1.221   3.809   4.638 -1.3495 -1.4984 -0.6688
  191SAPI   C3322061   1.955   3.156   3.925 -0.0118 -0.1588 -0.2341
  191SAPI   H3X22062   1.848   3.125   3.933  0.7188 -2.4904  1.6855
  191SAPI   H3Y22063   1.970   3.260   3.890  0.6684 -0.0846  0.2670
  191SAPI   C3422064   2.016   3.135   4.063  0.4761 -0.5002  0.5199
  191SAPI   H4X22065   2.124   3.127   4.040  0.4071  1.2991 -0.6353
  191SAPI   H4Y22066   1.969   3.043   4.106 -0.8714 -0.6507 -1.1578
  191SAPI   C3522067   1.976   3.251   4.160 -0.6577  0.6151  0.3942
  191SAPI   H5X22068   1.975   3.340   4.094  2.0343  1.2815  1.1160
  191SAPI   H5Y22069   2.055   3.265   4.236  0.2322  0.6120 -0.5044
  191SAPI   C3622070   1.848   3.233   4.233  0.0510 -0.5215 -0.0614
  191SAPI   H6X22071   1.825   3.136   4.283 -2.3807  0.5823  1.1150
  191SAPI   H6Y22072   1.768   3.238   4.157 -1.2936 -4.0060  0.9430
  191SAPI   C3722073   1.811   3.337   4.342  0.7844  0.2174  0.0065
  191SAPI   H7X22074   1.881   3.333   4.429  0.1570  1.0002  0.5553
  191SAPI   H7Y22075   1.713   3.299   4.378  1.6101 -2.9141 -0.7139
  191SAPI   C3822076   1.801   3.479   4.286 -0.2362  0.5667  0.8865
  191SAPI   H8X22077   1.750   3.465   4.189  2.0873 -3.9170  0.0246
  191SAPI   H8Y22078   1.902   3.511   4.251 -0.3252 -1.8353 -1.9197
  191SAPI   C3922079   1.744   3.582   4.390 -0.3425 -0.7925  1.0239
  191SAPI   H9X22080   1.633   3.571   4.392 -0.2874 -1.3784  2.4383
  191SAPI   H9Y22081   1.764   3.681   4.343 -3.0860 -0.5882  0.1099
  191SAPI  C31022082   1.796   3.577   4.534 -0.2341 -0.0189 -0.8466
  191SAPI  H10X22083   1.901   3.611   4.546 -0.6233  0.4799  1.7869
  191SAPI  H10Y22084   1.788   3.479   4.585 -0.8061  0.5798  0.2563
  191SAPI  C31122085   1.701   3.672   4.621 -0.3102 -0.6950  0.4635
  191SAPI  H11X22086   1.598   3.632   4.615 -0.9610  1.0570 -0.7183
  191SAPI  H11Y22087   1.697   3.774   4.577 -0.4443  0.5663  3.2089
  191SAPI  C31222088   1.731   3.660   4.766 -0.6054  0.0178  0.7929
  191SAPI  H12X22089   1.835   3.698   4.776 -0.4841  0.4013 -1.3881
  191SAPI  H12Y22090   1.735   3.555   4.802  0.5613  0.6301  2.5992
  191SAPI  C31322091   1.644   3.761   4.843  0.3990 -0.0068  0.3786
  191SAPI  H13X22092   1.537   3.745   4.820  0.3267 -0.9014  1.2639
  191SAPI  H13Y22093   1.672   3.861   4.801  0.4330  0.1342  0.7318
  191SAPI  C31422094   1.656   3.745   4.998 -0.3753  0.6615  0.1221
  191SAPI  H14X22095   1.761   3.750   5.034 -0.2489 -0.2694 -0.0998
  191SAPI  H14Y22096   1.622   3.642   5.023 -0.1497  0.6971  0.5795
  191SAPI  C31522097   1.565   3.846   5.069 -0.7419  0.6102  0.3453
  191SAPI  H15X22098   1.548   3.934   5.004  1.7668 -1.0042 -2.8108
  191SAPI  H15Y22099   1.624   3.871   5.160  2.2024 -4.0477  0.0404
  191SAPI  C31622100   1.426   3.793   5.109  0.2857 -0.6634  0.0164
  191SAPI  H16X22101   1.439   3.704   5.175  0.1783 -0.1685  0.7149
  191SAPI  H16Y22102   1.367   3.769   5.017 -0.5534  0.4269  0.2566
  191SAPI  C31722103   1.340   3.900   5.189 -0.2055  0.6692 -0.3892
  191SAPI  H17X22104   1.328   3.998   5.137  1.2553  1.0529 -0.0549
  191SAPI  H17Y22105   1.394   3.918   5.284  0.7580 -2.2321 -0.2993
  191SAPI  C31822106   1.206   3.852   5.242  1.0130  0.5421 -0.9358
  191SAPI  H18X22107   1.181   3.913   5.331  0.8689 -0.0247 -0.5793
  191SAPI  H18Y22108   1.206   3.745   5.272 -0.3124  0.8972  0.4711
  191SAPI  H18Z22109   1.123   3.863   5.169  0.0809 -1.3493 -0.2419
  192SAPI   C1222110   4.752   1.543   2.430  0.0262  0.5467 -0.3497
  192SAPI    H222111   4.662   1.602   2.403 -0.1263  0.6815  0.4463
  192SAPI    O222112   4.735   1.408   2.399 -0.2622 -0.2771 -0.0096
  192SAPI   HO222113   4.677   1.400   2.322  1.6273 -1.8103 -1.3776
  192SAPI   C1322114   4.870   1.601   2.360  0.7205  0.1353 -0.0000
  192SAPI    H322115   4.879   1.710   2.378  0.6454 -0.0576  1.3471
  192SAPI    O322116   4.850   1.591   2.219 -0.3259 -0.0770  0.1207
  192SAPI   HO322117   4.787   1.658   2.193  2.2400  2.9037  1.0025
  192SAPI   C1422118   4.991   1.534   2.406 -0.3642 -0.3073  0.6875
  192SAPI    H422119   4.985   1.440   2.347 -1.5991  0.2304 -0.0828
  192SAPI    O422120   5.102   1.602   2.359  0.1367  0.7354 -0.3244
  192SAPI   HO422121   5.111   1.683   2.409 -2.2423 -1.1258  3.6282
  192SAPI   C1522122   5.010   1.483   2.549 -0.2987  0.0524  1.0179
  192SAPI    H522123   5.076   1.561   2.592  1.4259 -1.3894  1.1046
  192SAPI    O522124   5.091   1.365   2.550 -1.1286 -0.3272 -0.0327
  192SAPI   HO522125   5.173   1.401   2.584 -1.0642  0.3518 -0.8504
  192SAPI   C1622126   4.882   1.478   2.637 -1.0500 -0.8697  0.0604
  192SAPI    H622127   4.854   1.371   2.644  1.1028 -1.6959 -2.4401
  192SAPI    O622128   4.920   1.510   2.775 -0.0307 -0.6610  0.0927
  192SAPI   HO622129   4.895   1.603   2.780 -2.9317 -1.1716 -2.3373
  192SAPI   C1122130   4.764   1.556   2.580 -1.0358  1.1121 -0.0777
  192SAPI    H122131   4.786   1.665   2.590  0.7566  0.8762 -1.0285
  192SAPI     P22132   4.509   1.631   2.640 -0.1514  0.1396 -0.3305
  192SAPI   O1322133   4.383   1.562   2.602 -0.4578 -0.0816  0.3245
  192SAPI   O1422134   4.548   1.752   2.559 -0.4885  0.1376 -0.4775
  192SAPI   O1222135   4.640   1.520   2.644  0.0349 -0.1754 -0.0947
  192SAPI   O1122136   4.501   1.669   2.795  0.0320  0.1305 -0.0179
  192SAPI    C122137   4.459   1.564   2.878  0.1792 -0.6924 -0.2754
  192SAPI    HA22138   4.350   1.547   2.870 -0.0519  1.1378 -1.7400
  192SAPI    HB22139   4.519   1.473   2.857  2.3033  0.5311  0.1128
  192SAPI    C222140   4.497   1.588   3.030 -0.2757 -0.1702 -0.2191
  192SAPI    HS22141   4.475   1.500   3.094  0.6685  0.1400  0.5526
  192SAPI   O2122142   4.419   1.695   3.073  0.2647 -0.3386 -0.2478
  192SAPI   C2122143   4.405   1.705   3.203  0.0847 -0.1697 -1.4208
  192SAPI   O2222144   4.420   1.610   3.284 -0.6568 -0.9759  0.5038
  192SAPI   C2222145   4.344   1.841   3.227  0.4527  0.1916 -0.7752
  192SAPI   H2R22146   4.402   1.917   3.170 -0.0744  0.1988 -1.3118
  192SAPI   H2S22147   4.242   1.840   3.184 -1.5265 -0.4114  3.4014
  192SAPI    C322148   4.652   1.613   3.034 -0.4002  0.2518 -0.3066
  192SAPI    HX22149   4.658   1.720   3.004  1.0000  0.4517  0.6135
  192SAPI    HY22150   4.712   1.549   2.965  3.2106  1.8062  1.1477
  192SAPI   O3122151   4.702   1.598   3.167  0.0692 -0.3359 -0.3964
  192SAPI   C3122152   4.734   1.478   3.216 -0.5046 -0.1494  0.0577
  192SAPI   O3222153   4.726   1.374   3.156 -0.5142 -0.0642 -0.6578
  192SAPI   C3222154   4.781   1.484   3.358 -0.2770 -0.1232  0.5979
  192SAPI   H2X22155   4.884   1.526   3.353 -0.3904 -0.0121 -1.3365
  192SAPI   H2Y22156   4.788   1.378   3.390  1.8431  0.2920  1.7661
  192SAPI   C2322157   4.346   1.880   3.381  0.2395 -0.1511 -0.1190
  192SAPI   H3R22158   4.442   1.875   3.436 -0.5598 -0.8774  1.2751
  192SAPI   H3S22159   4.280   1.814   3.441  0.3584 -0.0431  0.1294
  192SAPI   C2422160   4.282   2.021   3.388 -0.1492 -0.0163  0.2769
  192SAPI   H4R22161   4.319   2.077   3.300  0.2020 -1.5678 -0.5931
  192SAPI   H4S22162   4.336   2.077   3.468  1.0711  1.0341 -1.2266
  192SAPI   C2522163   4.129   2.021   3.412 -0.1935 -0.2661  0.2492
  192SAPI   H5R22164   4.065   2.037   3.324  0.0629  1.3346  0.3333
  192SAPI   C2622165   4.066   2.003   3.525 -0.6820 -0.1825  0.5323
  192SAPI   H6R22166   3.958   2.021   3.519 -0.5276  1.4505  1.9330
  192SAPI   C2722167   4.124   1.971   3.663 -0.5630 -0.0766 -0.8326
  192SAPI   H7R22168   4.199   1.890   3.663 -0.8459 -0.5482  3.2262
  192SAPI   H7S22169   4.042   1.935   3.728 -0.6272  0.4904 -0.5927
  192SAPI   C2822170   4.184   2.096   3.729  0.3494 -0.7504  0.2630
  192SAPI   H8R22171   4.167   2.186   3.669 -0.2636  0.2719  1.8831
  192SAPI   C2922172   4.221   2.113   3.862 -0.2242 -0.9219  0.2462
  192SAPI   H9R22173   4.276   2.203   3.895  1.4472 -2.1690  1.0536
  192SAPI  C21022174   4.209   2.010   3.969 -0.7107  0.5193  0.1726
  192SAPI  H10R22175   4.117   1.949   3.957 -0.7017  0.3966  0.6768
  192SAPI  H10S22176   4.204   2.066   4.065 -0.5134 -0.0578  0.5239
  192SAPI  C21122177   4.321   1.910   3.962 -0.2280  0.7005  0.2381
  192SAPI  H11R22178   4.365   1.896   3.862  0.7919 -1.6404  0.9437
  192SAPI  C21222179   4.370   1.842   4.070  0.5818 -0.2597  0.3815
  192SAPI  H12R22180   4.454   1.774   4.051 -0.9453 -1.6002 -2.0441
  192SAPI  C21322181   4.323   1.855   4.216  0.6319  0.8051  0.0799
  192SAPI  H13R22182   4.233   1.912   4.248 -2.0794 -3.1188  0.2672
  192SAPI  H13S22183   4.414   1.892   4.266 -0.6910  0.6569  2.7491
  192SAPI  C21422184   4.292   1.718   4.282  0.8304  0.4284 -0.1701
  192SAPI  H14R22185   4.199   1.668   4.253 -0.4891  1.5366  1.9176
  192SAPI  C21522186   4.357   1.662   4.389  0.1049  0.0207  0.0857
  192SAPI  H15R22187   4.322   1.569   4.437 -0.7605  0.2989 -0.0019
  192SAPI  C21622188   4.483   1.708   4.449 -0.0823  0.1341 -0.3690
  192SAPI  H16R22189   4.553   1.743   4.371 -1.3195 -0.0949 -1.6071
  192SAPI  H16S22190   4.534   1.634   4.515 -0.6136  1.1225  1.2164
  192SAPI  C21722191   4.452   1.814   4.561 -1.0675  0.7686  0.2450
  192SAPI  H17R22192   4.423   1.754   4.650 -1.5047  0.4081 -0.1317
  192SAPI  H17S22193   4.377   1.881   4.514 -0.1942  1.7125  0.1586
  192SAPI  C21822194   4.578   1.904   4.601  0.5134  0.1716  0.4793
  192SAPI  H18R22195   4.528   1.987   4.654 -2.0954 -1.4961  0.8381
  192SAPI  H18S22196   4.628   1.956   4.517  1.8358 -0.4661  0.8537
  192SAPI  C21922197   4.674   1.832   4.686  0.0284 -0.4176 -0.6922
  192SAPI  H19R22198   4.725   1.750   4.631  3.2183 -0.4945  2.0602
  192SAPI  H19S22199   4.617   1.779   4.766 -0.0272  0.7711  0.0834
  192SAPI  C22022200   4.794   1.916   4.749  0.0519 -0.2299  0.3823
  192SAPI  H20R22201   4.757   1.987   4.826 -2.1797 -1.1667  0.2555
  192SAPI  H20S22202   4.850   1.965   4.666  0.4869  3.7672  2.7629
  192SAPI  H20T22203   4.864   1.854   4.808 -0.3836 -1.1701 -0.0641
  192SAPI   C3322204   4.702   1.569   3.460  0.5711 -0.0474 -0.1132
  192SAPI   H3X22205   4.599   1.592   3.426 -0.4527 -1.5657  1.7372
  192SAPI   H3Y22206   4.749   1.667   3.483 -2.5675  1.6279 -0.2946
  192SAPI   C3422207   4.691   1.494   3.594 -0.4254  0.4582  0.1838
  192SAPI   H4X22208   4.793   1.462   3.624 -0.8711 -2.6217 -1.2731
  192SAPI   H4Y22209   4.624   1.407   3.581 -0.4630  0.4593  0.3687
  192SAPI   C3522210   4.628   1.574   3.708 -0.3074  0.4380 -0.4583
  192SAPI   H5X22211   4.526   1.598   3.671 -0.2884 -0.9333 -1.5073
  192SAPI   H5Y22212   4.686   1.661   3.745  0.0552  0.2020 -0.4663
  192SAPI   C3622213   4.608   1.478   3.833 -0.2589  0.5502 -0.3681
  192SAPI   H6X22214   4.712   1.447   3.856 -0.2366  1.3508  0.6883
  192SAPI   H6Y22215   4.553   1.387   3.802  0.1151  0.9405 -2.3625
  192SAPI   C3722216   4.551   1.548   3.955 -0.0804 -0.7304  0.0865
  192SAPI   H7X22217   4.447   1.577   3.926  0.2895 -2.0514 -2.9494
  192SAPI   H7Y22218   4.613   1.629   3.999 -0.5499 -1.3600  1.9757
  192SAPI   C3822219   4.533   1.447   4.064  0.1724  0.0084  0.6174
  192SAPI   H8X22220   4.499   1.352   4.017 -1.5274  0.1197  1.5492
  192SAPI   H8Y22221   4.443   1.481   4.119 -1.7230 -2.5327 -0.6801
  192SAPI   C3922222   4.670   1.438   4.144 -0.1958 -1.1169 -0.9908
  192SAPI   H9X22223   4.675   1.540   4.189 -0.8569 -1.5788  0.1698
  192SAPI   H9Y22224   4.760   1.418   4.082 -0.6272 -0.6886 -1.7610
  192SAPI  C31022225   4.662   1.331   4.259  0.7036  0.2595 -0.7257
  192SAPI  H10X22226   4.651   1.230   4.215 -2.6373  0.9914 -1.8805
  192SAPI  H10Y22227   4.567   1.355   4.312  2.1156  2.5291  0.9758
  192SAPI  C31122228   4.780   1.343   4.361  0.2410 -0.0290 -0.4711
  192SAPI  H11X22229   4.785   1.445   4.405  0.0938 -0.4342  0.5188
  192SAPI  H11Y22230   4.875   1.320   4.308  0.5431 -0.1544  0.1218
  192SAPI  C31222231   4.757   1.244   4.480 -0.2889 -0.2313 -0.4058
  192SAPI  H12X22232   4.733   1.139   4.452 -0.5491 -0.5396  0.9104
  192SAPI  H12Y22233   4.666   1.280   4.533  1.0213  0.6903  1.3156
  192SAPI  C31322234   4.884   1.239   4.573 -0.3208 -0.3485 -0.7081
  192SAPI  H13X22235   4.894   1.344   4.610 -1.6421  0.4944 -2.6114
  192SAPI  H13Y22236   4.978   1.223   4.515  0.1808  2.7160 -0.9278
  192SAPI  C31422237   4.884   1.142   4.686 -1.1987  0.3107 -0.2690
  192SAPI  H14X22238   4.891   1.037   4.653  1.8341 -0.0956  1.3708
  192SAPI  H14Y22239   4.790   1.162   4.743 -0.2669 -1.2113  1.9341
  192SAPI  C31522240   4.992   1.166   4.800 -0.8819  0.9075  0.2252
  192SAPI  H15X22241   4.961   1.106   4.888 -0.4938  1.7855  0.9789
  192SAPI  H15Y22242   4.965   1.269   4.834 -1.7478  0.5851  0.5641
  192SAPI  C31622243   5.145   1.137   4.772  0.5202  0.5069  1.0610
  192SAPI  H16X22244   5.200   1.126   4.868  0.5969  0.1443  0.9770
  192SAPI  H16Y22245   5.192   1.212   4.705  2.2121  0.3339  2.0136
  192SAPI  C31722246   5.147   1.000   4.691  0.2681  0.7474  0.6304
  192SAPI  H17X22247   5.110   1.023   4.589  1.1218 -0.7573 -0.0502
  192SAPI  H17Y22248   5.090   0.915   4.735  1.4777 -0.8106 -0.7280
  192SAPI  C31822249   5.292   0.949   4.682 -0.4665 -0.0703 -0.0182
  192SAPI  H18X22250   5.289   0.839   4.694 -1.1558 -0.1465 -0.7517
  192SAPI  H18Y22251   5.351   1.005   4.758  2.8051  1.5859 -3.4221
  192SAPI  H18Z22252   5.338   0.979   4.585  2.5443  0.4542  1.4671
  193SOD    SOD22253   2.147   0.489   0.687 -0.0568 -0.1231  0.0703
  194SOD    SOD22254   6.617   4.635   7.513 -0.3607  0.8654 -0.1927
  195SOD    SOD22255   4.728   3.533   8.285 -0.4875 -0.0125  0.4194
  196SOD    SOD22256   4.620   5.854   7.127 -0.0509 -0.4180 -0.2772
  197SOD    SOD22257   2.509   6.532   7.602  0.2544  0.2720  0.0041
  198SOD    SOD22258   1.141   4.856   2.130  0.4907  0.3026  0.2452
  199SOD    SOD22259   3.537   1.509   1.412  0.3094  0.8527  0.3782
  200SOD    SOD22260   6.499   4.514   1.517 -0.1432 -0.0923 -0.5655
  201SOD    SOD22261   6.150   0.622   0.496  0.2412  0.4147  0.4734
  202SOD    SOD22262   4.228   2.051   2.476 -0.1180  0.0235  0.3138
  203SOD    SOD22263   4.267   0.322   0.146  0.1715  0.2624 -0.0804
  204SOD    SOD22264   5.882   4.070   1.678 -0.4026 -0.1121 -0.0976
  205SOD    SOD22265   3.519   4.264   1.521 -0.5519  0.4156 -0.1270
  206SOD    SOD22266   0.472   0.649   1.239  0.9064 -0.1451  0.0727
  207SOD    SOD22267   2.462   5.356   7.119 -0.0461 -0.2712  0.0432
  208SOD    SOD22268   2.110   3.974   7.893  0.4287  0.0686 -0.0745
  209SOD    SOD22269   4.547   4.044   0.497 -0.0200  0.2792  0.3436
  210SOD    SOD22270   3.586   6.535   7.836 -0.1467  0.0345 -0.1769
  211SOD    SOD22271   0.862   0.789   8.288  0.3134  0.1568  0.6184
  212SOD    SOD22272   6.311   5.246   2.214  0.6648  0.1708 -0.3595
  213SOD    SOD22273   0.436   1.546   2.816 -0.1186 -0.1530  0.0028
  214SOD    SOD22274   5.594   5.259   2.019  0.4409 -0.0054  0.4419
  215SOD    SOD22275   2.916   2.789   8.114  0.0888  0.6218  0.0109
  216SOD    SOD22276   3.123   6.766   8.403  0.1531  0.3040  0.3555
  217SOD    SOD22277   4.428   5.294   0.390 -0.0079  0.1539 -0.0985
  218SOD    SOD22278   1.522   1.031   7.367  0.2464 -0.0449  0.7370
  219SOD    SOD22279   5.985   3.010   7.713  0.1272 -0.0867  0.2603
  220SOD    SOD22280   6.686   6.270   1.400 -0.3969 -0.2434  0.1667
  221SOD    SOD22281   3.311   2.777   0.839 -0.2635 -0.1954  0.0117
  222SOD    SOD22282   3.878   0.316   0.816 -0.0669  0.1013  0.0405
  223SOD    SOD22283   6.368   3.461   2.903 -0.0783 -0.1874  0.0132
  224SOD    SOD22284   1.075   5.800   1.277 -0.3784 -0.2611  0.0737
  225SOD    SOD22285   4.434   6.232   1.574  0.1479  0.1230 -0.2388
  226SOD    SOD22286   1.319   3.243   1.813  0.5844 -0.0180 -0.4292
  227SOD    SOD22287   3.915   3.324   2.875 -0.5609 -0.1190 -0.1300
  228SOD    SOD22288   1.401   4.817   1.298  0.1632 -0.4162 -0.2874
  229SOD    SOD22289   2.080   1.717   0.180 -0.0919 -0.1091  0.3523
  230SOD    SOD22290   2.116   4.264   8.735  0.4114 -0.0777  0.2567
  231SOD    SOD22291   6.080   4.023   2.121  0.6266  0.4705 -0.2471
  232SOD    SOD22292   1.793   6.063   7.253 -0.5622 -0.3975 -0.3569
  233SOD    SOD22293   6.396   1.678   1.186 -0.3870  0.3204 -0.2304
  234CLA    CLA22294   4.115   3.955   0.803  0.3215  0.1379 -0.2393
  235CLA    CLA22295   6.560   4.373   8.150 -0.1823 -0.0050  0.0336
  236CLA    CLA22296   0.015   5.752   1.640  0.2985  0.1343 -0.0245
  237CLA    CLA22297   1.528   5.692   7.544 -0.0078 -0.1989 -0.4958
  238CLA    CLA22298   2.612   1.088   1.590 -0.0075 -0.3508  0.1791
  239CLA    CLA22299   0.311   0.009   1.065  0.1928  0.5898 -0.1134
  240CLA    CLA22300   2.930   6.633   1.897 -0.0441 -0.0946  0.4135
  241CLA    CLA22301   3.546   4.809   1.376  0.3932 -0.2105 -0.2195
  242CLA    CLA22302   2.951   1.930   8.421 -0.2313 -0.4261 -0.3282
  243CLA    CLA22303   1.996   5.550   2.096  0.1273 -0.1304  0.2014
  244CLA    CLA22304   2.384   3.667   8.106 -0.2878 -0.5300 -0.3950
  245CLA    CLA22305   5.608   5.886   1.409  0.5392 -0.5825  0.1895
  246CLA    CLA22306   5.971   5.601   1.479  0.2384  0.0777 -0.0569
  247CLA    CLA22307   4.020   0.890   8.689 -0.4846  0.1543  0.3362
  248CLA    CLA22308   1.912   0.073   0.856  0.3084  0.3429  0.2226
  249CLA    CLA22309   2.899   3.357   1.495  0.0824 -0.1161 -0.4041
  250CLA    CLA22310   5.656   4.492   1.522  0.3337  0.1215  0.3884
  251TIP3   OH222311   0.703   2.456   1.250  0.5692  0.2929 -0.4428
  251TIP3    H122312   0.745   2.518   1.308  0.9410 -0.7275  0.4049
  251TIP3    H222313   0.620   2.434   1.293 -0.7726  2.0554 -1.9489
  252TIP3   OH222314   0.257   3.319   0.202  0.1935  0.0449 -0.5878
  252TIP3    H122315   0.169   3.331   0.239  0.4861  0.1544  0.0711
  252TIP3    H222316   0.252   3.234   0.158 -0.2134  0.0072 -0.4782
  253TIP3   OH222317   0.782   2.426   2.224  0.7090 -0.0259 -0.2989
  253TIP3    H122318   0.819   2.507   2.259  1.5202 -0.3767 -0.2979
  253TIP3    H222319   0.701   2.413   2.272  0.3299  1.0336 -0.6386
  254TIP3   OH222320   1.746   3.117   0.000 -0.4151 -0.1144 -0.1941
  254TIP3    H122321   1.812   3.161  -0.054  0.1891 -0.0382  0.5846
  254TIP3    H222322   1.794   3.046   0.042 -1.2128 -1.0594 -0.8535
  255TIP3   OH222323   6.677   0.676   0.439 -0.3607  0.1937  0.1659
  255TIP3    H122324   6.761   0.668   0.484 -0.3493  0.4637  0.1929
  255TIP3    H222325   6.658   0.587   0.408  0.2845  0.2647 -0.4652
  256TIP3   OH222326   0.053   0.253   0.156  0.5082  0.3327  0.3004
  256TIP3    H122327   0.125   0.272   0.216  1.7716 -0.5860 -0.8957
  256TIP3    H222328   0.094   0.234   0.072 -1.1567  0.2702 -0.5573
  257TIP3   OH222329   5.405   4.945   2.894 -0.0158  0.1221  0.8306
  257TIP3    H122330   5.472   5.007   2.865  1.0924 -1.7753 -0.8767
  257TIP3    H222331   5.333   5.001   2.924  1.7923  2.2300  1.5575
  258TIP3   OH222332   5.528   2.104   0.021 -0.0299  0.4579  0.6559
  258TIP3    H122333   5.618   2.072   0.033 -0.4540 -0.4537  1.4583
  258TIP3    H222334   5.472   2.031   0.048 -1.0160  1.3016  0.9499
  259TIP3   OH222335   1.662   1.658   2.917 -0.2054  0.2110  0.6552
  259TIP3    H122336   1.740   1.629   2.963  0.0051  0.0619  0.2141
  259TIP3    H222337   1.615   1.577   2.897 -0.5327  0.3081  1.0204
  260TIP3   OH222338   4.002   3.032   8.122 -0.0133 -0.0800 -0.2777
  260TIP3    H122339   3.947   2.954   8.125  0.5065 -0.4292  1.8554
  260TIP3    H222340   3.940   3.104   8.109 -0.5139 -0.7792 -2.0723
  261TIP3   OH222341   4.216   5.875   8.329  0.7911  0.4203 -0.0822
  261TIP3    H122342   4.282   5.880   8.398  0.0585  0.7351  0.6195
  261TIP3    H222343   4.263   5.896   8.249  1.4950  0.8360  0.4268
  262TIP3   OH222344   2.292   4.168   2.679  0.1241 -0.4731  0.1343
  262TIP3    H122345   2.341   4.249   2.696  0.8310 -1.3163  2.5823
  262TIP3    H222346   2.333   4.131   2.602  2.5209 -0.4609  1.2997
  263TIP3   OH222347   3.284   0.937   8.779 -0.2728  0.6868  0.1468
  263TIP3    H122348   3.287   0.852   8.823  0.0374 -0.2952 -1.7059
  263TIP3    H222349   3.192   0.963   8.784 -0.3648  0.2802  0.7552
  264TIP3   OH222350   6.009   5.905   7.452  0.0419  0.1896  0.4519
  264TIP3    H122351   6.051   5.897   7.366  1.4932 -0.0905  1.1493
  264TIP3    H222352   6.011   5.999   7.471  3.2882  0.0025  1.7801
  265TIP3   OH222353   2.936   0.438   2.347  0.4159  0.5786  0.1537
  265TIP3    H122354   3.002   0.431   2.278  0.9001 -3.8176  0.7549
  265TIP3    H222355   2.987   0.436   2.428 -0.3300  1.0387  0.6415
  266TIP3   OH222356   4.325   3.996   2.408 -0.1720  0.2009  0.3071
  266TIP3    H122357   4.250   3.938   2.419 -0.2208  0.2026 -0.0075
  266TIP3    H222358   4.304   4.072   2.462 -1.4051  1.1667 -1.3966
  267TIP3   OH222359   6.160   2.428   7.878  0.2908 -0.5531  0.7142
  267TIP3    H122360   6.175   2.476   7.797  0.4943 -0.5548  0.7500
  267TIP3    H222361   6.110   2.351   7.851 -1.1688  0.3132  0.8375
  268TIP3   OH222362   6.658   5.817   8.531  0.5413  0.4072  0.4507
  268TIP3    H122363   6.655   5.730   8.570  0.5414  0.9125  1.6309
  268TIP3    H222364   6.735   5.816   8.474  0.0206 -0.6369 -0.2590
  269TIP3   OH222365   4.260   2.775   6.902 -0.4559  0.0572 -0.1508
  269TIP3    H122366   4.252   2.867   6.929 -2.1720  0.5183 -1.9029
  269TIP3    H222367   4.181   2.760   6.848  1.2811 -1.5136 -2.4555
  270TIP3   OH222368   3.486   3.901   1.629 -0.0666  0.1385 -0.6675
  270TIP3    H122369   3.406   3.949   1.612 -1.3206 -1.5490  0.1715
  270TIP3    H222370   3.458   3.810   1.643  2.2467 -1.1132 -3.1101
  271TIP3   OH222371   4.476   0.435   1.994 -0.0756 -0.1901 -0.2807
  271TIP3    H122372   4.510   0.354   1.956  0.8571  0.1438 -0.1660
  271TIP3    H222373   4.503   0.432   2.086 -0.9778 -0.2520  0.0003
  272TIP3   OH222374   0.314   2.521   7.370 -0.3414 -0.5290  0.0287
  272TIP3    H122375   0.392   2.465   7.370 -0.8903 -1.3607 -2.0572
  272TIP3    H222376   0.348   2.610   7.366  0.5597 -0.5198  3.6956
  273TIP3   OH222377   2.784   4.685   7.598 -0.1405  0.6057  0.0020
  273TIP3    H122378   2.758   4.744   7.669 -0.2917 -0.5804  0.9787
  273TIP3    H222379   2.701   4.658   7.558 -0.1488  0.1524  0.3214
  274TIP3   OH222380   1.937   2.427   0.951 -0.2098 -0.0755 -0.1312
  274TIP3    H122381   1.956   2.335   0.930  0.9400  0.4372 -1.4562
  274TIP3    H222382   2.023   2.468   0.958 -0.7304  1.0240 -0.0606
  275TIP3   OH222383   1.146   5.207   2.541 -0.3068  0.5801 -0.5770
  275TIP3    H122384   1.067   5.261   2.538 -0.5431  0.2468 -0.4039
  275TIP3    H222385   1.211   5.262   2.582 -0.5499  0.7354 -0.3963
  276TIP3   OH222386   4.007   0.698   0.910 -0.4259 -0.0683 -0.8007
  276TIP3    H122387   3.950   0.771   0.885  0.7715  1.1134 -0.2045
  276TIP3    H222388   4.092   0.720   0.871  0.2521 -0.5331  0.3706
  277TIP3   OH222389   0.017   1.856   1.908 -0.4483  0.2223 -0.5907
  277TIP3    H122390  -0.036   1.777   1.896  0.0138  0.0670 -1.7676
  277TIP3    H222391  -0.045   1.928   1.896 -1.1150  0.0897  1.6032
  278TIP3   OH222392   1.602   6.024   2.229  0.6727 -0.3488 -0.2087
  278TIP3    H122393   1.642   5.995   2.147 -2.4406 -1.5992 -1.4719
  278TIP3    H222394   1.631   5.960   2.294  1.3852 -0.6998 -0.8678
  279TIP3   OH222395   0.559   5.905   1.144 -0.4481  0.6694 -0.0633
  279TIP3    H122396   0.519   5.937   1.225 -0.2071  1.2223 -0.1578
  279TIP3    H222397   0.505   5.830   1.118  1.0357 -1.3120  2.0908
  280TIP3   OH222398   5.127   4.040   2.495 -0.1111 -0.2829 -0.4163
  280TIP3    H122399   5.129   4.082   2.409  0.9311 -1.0101 -0.7554
  280TIP3    H222400   5.139   4.112   2.557 -0.8774  0.2445 -0.8561
  281TIP3   OH222401   5.850   0.076   8.531  0.1311  0.3050 -0.5102
  281TIP3    H122402   5.911   0.087   8.458  0.1336  3.3986 -0.1550
  281TIP3    H222403   5.883   0.134   8.600  0.1098 -2.4601  2.0499
  282TIP3   OH222404   2.437   5.274   8.737  0.2408  0.1194 -0.3964
  282TIP3    H122405   2.473   5.187   8.757 -0.7194 -0.2451 -0.1882
  282TIP3    H222406   2.361   5.256   8.682 -0.7525  0.7336  0.7270
  283TIP3   OH222407   4.344   6.453   8.708 -0.0845  0.4915  0.2588
  283TIP3    H122408   4.359   6.497   8.791  0.0647 -0.6166  0.8369
  283TIP3    H222409   4.404   6.378   8.709 -1.0270 -0.2999 -0.2374
  284TIP3   OH222410   4.767   5.082   3.312 -0.4168 -0.6431  0.2540
  284TIP3    H122411   4.747   4.997   3.272 -0.1930 -0.7606  0.3916
  284TIP3    H222412   4.703   5.142   3.274  0.3087 -0.5782 -0.8952
  285TIP3   OH222413   2.206   3.472   0.786  0.6859  0.7776  0.1579
  285TIP3    H122414   2.113   3.494   0.792  0.4618  0.4184 -1.4364
  285TIP3    H222415   2.211   3.406   0.716  2.3557  2.4033 -1.3987
  286TIP3   OH222416   6.380   3.631   2.722 -0.7225 -0.0433 -0.2868
  286TIP3    H122417   6.335   3.714   2.705  0.7993  1.0001  0.5450
  286TIP3    H222418   6.418   3.608   2.637 -0.0259  0.8284 -0.2220
  287TIP3   OH222419   2.458   1.341   1.605 -0.4730  0.0866 -0.1507
  287TIP3    H122420   2.514   1.410   1.570 -0.9752  0.4394 -0.2649
  287TIP3    H222421   2.514   1.263   1.606  0.5322  0.7865  1.2840
  288TIP3   OH222422   3.837   1.177   0.927  0.6686  0.4430  0.3392
  288TIP3    H122423   3.760   1.233   0.936 -0.6216 -1.3064  0.6888
  288TIP3    H222424   3.897   1.227   0.871 -0.6174  1.9334  0.2256
  289TIP3   OH222425   0.204   3.208   1.343 -0.3005  0.1880 -0.0302
  289TIP3    H122426   0.253   3.187   1.423 -0.8219 -1.2113 -0.0470
  289TIP3    H222427   0.259   3.272   1.298  0.6680 -0.0256  0.7979
  290TIP3   OH222428   5.466   3.012   1.714 -0.2508 -0.0979 -0.0855
  290TIP3    H122429   5.521   3.068   1.658  0.3427  1.2282  1.7076
  290TIP3    H222430   5.390   2.991   1.660 -0.1411  1.8757 -1.1082
  291TIP3   OH222431   4.302   1.824   1.221 -0.0772  0.0302  0.4144
  291TIP3    H122432   4.363   1.755   1.196 -2.4270 -2.3054  0.6195
  291TIP3    H222433   4.319   1.841   1.313  1.2225  0.5649  0.1002
  292TIP3   OH222434   2.031   0.110   2.975 -0.0003  0.1108 -0.2493
  292TIP3    H122435   1.979   0.147   3.045 -0.8142 -0.6949 -0.4035
  292TIP3    H222436   2.030   0.176   2.906 -0.2422  0.3805  0.0116
  293TIP3   OH222437   4.853   5.474   7.863 -0.3832 -0.4377 -0.0925
  293TIP3    H122438   4.867   5.485   7.769 -1.4809 -2.3932 -0.5442
  293TIP3    H222439   4.932   5.429   7.893  0.2029  0.6612  0.0450
  294TIP3   OH222440   6.738   2.103   0.027  0.3780  0.1847 -0.3336
  294TIP3    H122441   6.773   2.073  -0.057 -2.1048 -1.5685 -0.8436
  294TIP3    H222442   6.715   2.195   0.011 -0.6405 -0.2894 -1.8179
  295TIP3   OH222443   1.033   6.008   0.419  0.3685  0.4076  0.2443
  295TIP3    H122444   0.972   6.038   0.486  1.9844  0.9866  1.4936
  295TIP3    H222445   0.978   5.956   0.360 -1.5953  1.9468  0.5779
  296TIP3   OH222446   4.320   3.676   2.331 -0.4088 -0.2007 -0.3452
  296TIP3    H122447   4.391   3.709   2.386 -0.2413  0.7398 -1.1066
  296TIP3    H222448   4.241   3.696   2.380 -0.3366  1.7323 -0.9548
  297TIP3   OH222449   1.331   4.908   1.489 -0.2974  0.2074  0.0401
  297TIP3    H122450   1.305   4.998   1.509 -1.0583 -0.2865  1.3835
  297TIP3    H222451   1.278   4.854   1.547 -0.2933 -1.1608 -1.1699
  298TIP3   OH222452   3.648   1.300   1.445 -0.1661 -0.3822 -0.7779
  298TIP3    H122453   3.649   1.252   1.527  1.2167  1.1170  0.1383
  298TIP3    H222454   3.695   1.244   1.383 -0.3360 -1.0655 -0.2923
  299TIP3   OH222455   1.161   2.450   8.524  0.2615 -0.1526 -0.3686
  299TIP3    H122456   1.126   2.514   8.462  1.5091  1.8552  0.8840
  299TIP3    H222457   1.223   2.399   8.472 -1.8995 -1.5637 -1.7878
  300TIP3   OH222458   3.709   3.188   8.383  0.1394  0.0458  0.0047
  300TIP3    H122459   3.740   3.129   8.452  1.2346 -0.5724 -0.9640
  300TIP3    H222460   3.638   3.237   8.423 -0.9477 -2.0650  0.8297
  301TIP3   OH222461   4.428   5.374   0.791 -0.3087  0.3764 -0.4382
  301TIP3    H122462   4.477   5.436   0.843 -1.2337  0.6673  0.0996
  301TIP3    H222463   4.429   5.410   0.702 -1.0322  1.2883 -0.0875
  302TIP3   OH222464   0.777   6.534   2.627  0.0699  0.3489 -0.3686
  302TIP3    H122465   0.717   6.530   2.701  0.7683  1.5748  0.3010
  302TIP3    H222466   0.864   6.532   2.666  0.5178 -2.0119 -1.3656
  303TIP3   OH222467   6.765   6.473   7.379  0.1317  0.2949 -0.1806
  303TIP3    H122468   6.860   6.469   7.370  0.0524 -0.7388 -0.7168
  303TIP3    H222469   6.732   6.466   7.290 -0.4726 -1.3467  0.1335
  304TIP3   OH222470   5.253   5.719   7.235 -0.0295  0.3325  0.0629
  304TIP3    H122471   5.290   5.633   7.255  0.7238  1.2096  2.8919
  304TIP3    H222472   5.328   5.771   7.206 -0.3031  0.3525 -0.6396
  305TIP3   OH222473   2.222   3.923   1.352  0.0880  0.2221 -0.2075
  305TIP3    H122474   2.244   4.005   1.307  1.9880  0.5368  1.1855
  305TIP3    H222475   2.240   3.855   1.287  2.3388  0.6940 -0.1646
  306TIP3   OH222476   1.309   1.917   8.430 -0.3670  0.0606 -0.2990
  306TIP3    H122477   1.357   1.849   8.478 -1.6495 -0.4002  0.3714
  306TIP3    H222478   1.339   1.999   8.471  0.2416 -0.1772 -0.2520
  307TIP3   OH222479   4.879   3.617   2.168 -0.5547 -0.8340 -0.1656
  307TIP3    H122480   4.838   3.684   2.222 -2.0655 -3.1932  1.8627
  307TIP3    H222481   4.944   3.576   2.225 -0.7641 -2.0775 -0.7695
  308TIP3   OH222482   6.613   1.626   8.538  0.2555 -0.2116  0.1663
  308TIP3    H122483   6.525   1.659   8.521  0.0110 -1.5034 -1.2660
  308TIP3    H222484   6.627   1.642   8.631 -0.8289  1.5301  0.0744
  309TIP3   OH222485   5.536   5.925   8.698 -0.2144  0.2271  0.3573
  309TIP3    H122486   5.463   5.958   8.647  0.8022  0.3130 -1.1092
  309TIP3    H222487   5.569   6.001   8.746  1.3134  1.1892 -2.0166
  310TIP3   OH222488   4.651   0.756   1.920 -0.3828 -0.1949  0.4312
  310TIP3    H122489   4.594   0.765   1.996 -0.6664  0.2461  0.1702
  310TIP3    H222490   4.673   0.663   1.918 -1.0791 -0.3679  0.5497
  311TIP3   OH222491   5.653   2.992   0.971 -0.0239 -0.1505  0.3632
  311TIP3    H122492   5.743   2.961   0.964 -0.0083 -0.2690  1.0392
  311TIP3    H222493   5.661   3.085   0.992 -0.0629 -0.0812  0.0748
  312TIP3   OH222494   5.004   6.802   1.196 -0.2670 -0.2415 -0.2462
  312TIP3    H122495   4.975   6.775   1.283 -0.8177  3.1560  0.7728
  312TIP3    H222496   5.098   6.786   1.196 -0.1400  0.2995  1.2579
  313TIP3   OH222497   3.642   3.534   7.800  0.4589  0.1127 -0.2051
  313TIP3    H122498   3.621   3.442   7.785  1.7813 -0.5684  1.6873
  313TIP3    H222499   3.618   3.578   7.719  0.6123 -2.0307 -1.4879
  314TIP3   OH222500   4.481   2.911   1.342 -0.3208 -0.2904 -0.0576
  314TIP3    H122501   4.546   2.898   1.411  0.1286 -1.9377 -0.7385
  314TIP3    H222502   4.518   2.977   1.284  0.7699 -1.1907 -0.4214
  315TIP3   OH222503   6.315   3.462   8.537 -0.1516  0.0227 -0.4254
  315TIP3    H122504   6.397   3.494   8.499 -0.5755 -0.5673 -1.9070
  315TIP3    H222505   6.275   3.410   8.467 -0.1691 -2.5936  1.3672
  316TIP3   OH222506   6.535   2.729   7.471 -0.0802 -0.1075 -0.2147
  316TIP3    H122507   6.456   2.734   7.417  0.6443 -0.3048 -1.3097
  316TIP3    H222508   6.538   2.637   7.500  0.8138 -0.6342 -1.8540
  317TIP3   OH222509   4.822   4.076   8.054  0.3165 -0.2750 -0.5264
  317TIP3    H122510   4.864   4.162   8.051 -0.4584  0.3385  2.5485
  317TIP3    H222511   4.733   4.095   8.083  0.0331 -2.1051 -0.1302
  318TIP3   OH222512   1.463   3.501   0.935 -0.2082 -0.2475 -0.2463
  318TIP3    H122513   1.486   3.444   1.008  0.8142 -1.6300 -1.5638
  318TIP3    H222514   1.393   3.557   0.968  1.3831  0.3775  2.3007
  319TIP3   OH222515   0.543   0.334   8.111  0.1236 -0.2262  0.0843
  319TIP3    H122516   0.498   0.418   8.096  0.6136 -0.2462 -1.8512
  319TIP3    H222517   0.622   0.340   8.056 -0.4186 -2.4062 -1.0120
  320TIP3   OH222518   1.949   4.913   0.656 -0.2413  0.0733  0.1445
  320TIP3    H122519   1.923   5.000   0.684 -1.6478 -0.8529  1.9845
  320TIP3    H222520   2.045   4.916   0.652 -0.2713  1.6703  0.2428
  321TIP3   OH222521   6.567   3.795   0.250 -0.5256  0.1182 -0.6763
  321TIP3    H122522   6.627   3.870   0.253  0.1732 -0.4761  1.0524
  321TIP3    H222523   6.491   3.824   0.301  0.7267 -1.1000  2.0675
  322TIP3   OH222524   3.464   2.726   1.898 -0.6501 -0.6757 -0.2815
  322TIP3    H122525   3.498   2.675   1.971  0.5646  1.0009  0.3996
  322TIP3    H222526   3.536   2.729   1.835 -1.2316 -1.0121 -0.9800
  323TIP3   OH222527   0.667   2.247   0.006  0.1436 -0.2364  0.4925
  323TIP3    H122528   0.732   2.223   0.072  1.1275 -1.6880 -0.9241
  323TIP3    H222529   0.686   2.189  -0.068 -1.6194  0.5740 -0.6532
  324TIP3   OH222530   0.065   1.812   1.234 -0.2729 -0.3851  0.2241
  324TIP3    H122531   0.037   1.721   1.226 -0.0417 -0.5596  1.2576
  324TIP3    H222532   0.127   1.824   1.162  1.5988 -1.8012  1.5054
  325TIP3   OH222533   0.966   1.212   8.369  0.3839 -0.2932 -0.5602
  325TIP3    H122534   0.935   1.272   8.437 -1.2069 -1.4179 -0.2519
  325TIP3    H222535   0.894   1.206   8.307  0.9028 -1.1363 -1.1043
  326TIP3   OH222536   5.205   2.510   0.750  0.2220 -0.7016 -0.4778
  326TIP3    H122537   5.170   2.568   0.817  0.9771  0.1098 -0.7741
  326TIP3    H222538   5.277   2.464   0.793  0.0497 -0.9354 -0.4374
  327TIP3   OH222539   0.356   6.237   7.607 -0.0606  0.7594 -0.0308
  327TIP3    H122540   0.405   6.234   7.689 -1.2593  2.8373  0.8597
  327TIP3    H222541   0.407   6.296   7.551  0.1141  0.3304 -0.3308
  328TIP3   OH222542   4.712   4.967   1.752 -0.6189 -0.2169 -0.1320
  328TIP3    H122543   4.671   5.049   1.724  0.5056 -0.0227 -1.2819
  328TIP3    H222544   4.721   4.916   1.672  1.3062 -0.2808  0.0813
  329TIP3   OH222545   1.982   4.630   0.445  0.6689  0.4902  0.2983
  329TIP3    H122546   2.010   4.579   0.521  4.9874  0.8209 -0.8440
  329TIP3    H222547   1.969   4.718   0.479  0.1815  0.1516  1.0208
  330TIP3   OH222548   4.130   0.179   2.845 -0.5853 -0.0285 -0.5750
  330TIP3    H122549   4.170   0.158   2.930 -2.9930 -0.7619  0.4488
  330TIP3    H222550   4.062   0.243   2.865 -0.9845  0.0407 -2.0274
  331TIP3   OH222551   1.452   5.568   8.348  0.2073  0.5387  0.1144
  331TIP3    H122552   1.502   5.636   8.392  0.7732  0.6789 -0.7251
  331TIP3    H222553   1.502   5.549   8.268  0.0151 -0.7887  0.2881
  332TIP3   OH222554   4.383   0.637   1.816 -0.2054 -0.4819 -0.4783
  332TIP3    H122555   4.302   0.670   1.856  0.4014 -0.5185  0.8249
  332TIP3    H222556   4.404   0.559   1.868  1.5361  0.4378  0.2905
  333TIP3   OH222557   4.451   1.213   8.268  0.2738  0.1566  0.3484
  333TIP3    H122558   4.529   1.177   8.312 -1.3869 -2.4803  1.3554
  333TIP3    H222559   4.473   1.211   8.175  1.2307 -1.0863  0.5697
  334TIP3   OH222560   3.598   5.692   8.387  0.2245 -0.2472 -0.0350
  334TIP3    H122561   3.672   5.693   8.448 -0.7537  3.1026  1.3290
  334TIP3    H222562   3.600   5.778   8.346 -2.9043 -0.0435  0.0468
  335TIP3   OH222563   5.604   1.483   8.513 -0.4417  0.1903 -0.2477
  335TIP3    H122564   5.613   1.578   8.519 -0.9090  0.1614  1.0941
  335TIP3    H222565   5.653   1.449   8.587 -0.5819 -0.6063 -0.5141
  336TIP3   OH222566   6.283   4.464   1.473 -0.0482  0.2858  0.3020
  336TIP3    H122567   6.209   4.459   1.534 -1.1585 -1.9758 -1.0936
  336TIP3    H222568   6.242   4.472   1.387  1.3373 -0.7001 -0.4787
  337TIP3   OH222569   4.706   4.720   1.617 -0.4277  0.0293  0.3314
  337TIP3    H122570   4.737   4.665   1.546  0.4160  1.1926 -0.2334
  337TIP3    H222571   4.763   4.700   1.691 -1.0306 -0.8664  0.5674
  338TIP3   OH222572   4.525   3.965   8.377  0.6208 -0.5502 -0.3832
  338TIP3    H122573   4.441   3.926   8.353  0.0738  0.7719 -0.7304
  338TIP3    H222574   4.584   3.942   8.306  0.6083 -1.6235 -0.0619
  339TIP3   OH222575   6.506   0.262   1.886  0.0021  0.0797 -0.0968
  339TIP3    H122576   6.585   0.302   1.850 -0.5570  0.6717 -0.6847
  339TIP3    H222577   6.434   0.313   1.850 -0.9541 -2.9775 -3.0356
  340TIP3   OH222578   4.206   2.719   1.798  0.0449  0.4472  0.6488
  340TIP3    H122579   4.173   2.718   1.888 -0.9085  1.2284  0.3180
  340TIP3    H222580   4.260   2.640   1.792  1.6425  1.3060  2.4601
  341TIP3   OH222581   1.140   5.189   1.197  0.4241  0.2467  0.2661
  341TIP3    H122582   1.102   5.261   1.146  1.0812  0.1314 -0.4008
  341TIP3    H222583   1.119   5.211   1.287 -1.7738 -0.1445 -0.1113
  342TIP3   OH222584   3.287   1.648   7.399 -0.4462  0.2754 -0.3556
  342TIP3    H122585   3.294   1.572   7.456  1.4164 -0.0803 -0.9914
  342TIP3    H222586   3.334   1.622   7.320 -0.5326  1.7772 -0.9162
  343TIP3   OH222587   6.028   4.586   2.171 -0.6148  0.4657  0.1966
  343TIP3    H122588   5.980   4.558   2.249  0.6664  2.3821  1.7729
  343TIP3    H222589   6.089   4.514   2.153 -0.1180  0.4596  1.7212
  344TIP3   OH222590   2.274   1.754   8.309 -0.4448 -0.1650  0.2618
  344TIP3    H122591   2.234   1.670   8.330 -0.6075 -0.3816 -0.8515
  344TIP3    H222592   2.255   1.767   8.216  0.3735  0.6649  0.1987
  345TIP3   OH222593   0.042   3.058   7.656 -0.4319 -0.3471 -0.1702
  345TIP3    H122594  -0.033   2.999   7.648  0.1658 -1.1111 -0.2461
  345TIP3    H222595   0.080   3.038   7.742 -0.7578  0.5865  0.2133
  346TIP3   OH222596   6.694   0.392   7.901 -0.1965 -0.0344  0.4004
  346TIP3    H122597   6.708   0.328   7.971  0.7471  0.3411  0.5770
  346TIP3    H222598   6.624   0.355   7.847  1.3682 -1.9668 -0.4129
  347TIP3   OH222599   6.591   3.230   8.389  0.3873  0.4794  0.2240
  347TIP3    H122600   6.684   3.247   8.374 -0.0109  2.5890 -0.0915
  347TIP3    H222601   6.568   3.284   8.464 -1.4337  3.2509 -2.1247
  348TIP3   OH222602   5.781   4.424   0.904  0.6933 -0.3316 -0.0179
  348TIP3    H122603   5.783   4.332   0.930  0.8841 -0.8610 -1.8134
  348TIP3    H222604   5.751   4.470   0.982  1.0902 -1.8518  1.0756
  349TIP3   OH222605   3.294   5.584   1.825 -0.2097 -0.4415 -0.1098
  349TIP3    H122606   3.375   5.534   1.824 -1.2721 -2.2620 -1.2242
  349TIP3    H222607   3.259   5.576   1.736 -1.9767 -0.3824  0.5264
  350TIP3   OH222608   2.454   4.148   8.452  0.0473  0.2188 -0.2762
  350TIP3    H122609   2.530   4.200   8.426  0.1779  0.6755  0.9330
  350TIP3    H222610   2.483   4.101   8.530 -0.9701  0.5909  0.3454
  351TIP3   OH222611   0.750   2.778   0.821  0.1278 -0.0387  0.3420
  351TIP3    H122612   0.739   2.871   0.840  1.0140 -0.0534  0.9747
  351TIP3    H222613   0.830   2.753   0.867 -0.6009 -1.3309  0.9619
  352TIP3   OH222614   6.729   6.166   2.260 -0.3941  0.1079 -0.3341
  352TIP3    H122615   6.655   6.120   2.300 -0.3954 -1.5398 -2.1139
  352TIP3    H222616   6.799   6.162   2.326 -1.1321 -0.3748  0.4387
  353TIP3   OH222617   0.540   1.128   0.230  0.3318 -0.0118 -0.0373
  353TIP3    H122618   0.533   1.050   0.285  3.5757  0.2941  1.0504
  353TIP3    H222619   0.525   1.201   0.289 -1.8101  0.2831 -0.8675
  354TIP3   OH222620   2.139   3.931   6.643 -0.1802 -0.1170  0.3801
  354TIP3    H122621   2.056   3.883   6.635  0.4036 -1.0757 -0.0645
  354TIP3    H222622   2.165   3.920   6.734 -0.4637  0.0457  0.4804
  355TIP3   OH222623   6.049   4.814   2.932 -0.4092 -0.0506  0.0171
  355TIP3    H122624   6.143   4.794   2.928 -0.4439 -0.3300  0.4968
  355TIP3    H222625   6.044   4.909   2.935 -0.1262 -0.0424  0.2617
  356TIP3   OH222626   5.413   2.878   0.840 -0.8848  0.7546 -0.7410
  356TIP3    H122627   5.347   2.819   0.875 -1.0723 -0.2418 -2.6772
  356TIP3    H222628   5.471   2.895   0.914 -1.0065 -1.6133 -0.0291
  357TIP3   OH222629   5.982   1.766   0.550  0.1639 -0.0691 -0.4139
  357TIP3    H122630   6.013   1.731   0.633 -2.0037 -0.9693  0.1025
  357TIP3    H222631   5.887   1.754   0.553 -0.0909  0.8515 -2.5866
  358TIP3   OH222632   0.839   6.523   8.377  0.9443 -0.3886 -0.0217
  358TIP3    H122633   0.899   6.471   8.324  1.8717  1.5780 -0.9918
  358TIP3    H222634   0.893   6.590   8.417 -0.5277  1.4186 -0.8769
  359TIP3   OH222635   0.041   2.999   7.937 -0.0587  0.0816  0.7382
  359TIP3    H122636   0.064   2.907   7.928 -1.5336 -0.3727  1.3278
  359TIP3    H222637  -0.033   3.000   7.998  0.1904  1.6939  1.0632
  360TIP3   OH222638   2.768   2.847   2.490  0.6787 -0.6231 -0.3303
  360TIP3    H122639   2.857   2.866   2.521  0.3005  0.5051  0.1234
  360TIP3    H222640   2.714   2.916   2.528 -0.2059 -0.6030 -1.5439
  361TIP3   OH222641   2.608   3.021   0.839  0.5352  0.0736 -0.6403
  361TIP3    H122642   2.670   3.033   0.910 -0.7089  0.9005  0.3540
  361TIP3    H222643   2.571   3.108   0.825 -1.0715 -0.5617 -0.5432
  362TIP3   OH222644   6.204   0.533   7.522  0.2826  0.6072 -0.0866
  362TIP3    H122645   6.127   0.487   7.554 -0.1164  0.5722 -1.0778
  362TIP3    H222646   6.236   0.581   7.598 -0.0242 -0.3026  0.6365
  363TIP3   OH222647   0.148   4.520   2.218 -0.2711  0.5050 -0.7763
  363TIP3    H122648   0.237   4.529   2.183  0.6437 -1.0089  0.9813
  363TIP3    H222649   0.134   4.426   2.224 -1.2966  0.7143  0.6338
  364TIP3   OH222650   1.737   3.686   2.417  0.4827 -0.2580 -0.0272
  364TIP3    H122651   1.705   3.703   2.328  0.4845  0.0483  0.0300
  364TIP3    H222652   1.718   3.593   2.431 -2.2173  0.3123  0.7311
  365TIP3   OH222653   0.863   5.607   8.192  0.6345 -0.1670 -0.1203
  365TIP3    H122654   0.912   5.564   8.122 -1.2519 -1.8074 -0.5200
  365TIP3    H222655   0.900   5.571   8.273  0.4861 -0.9651 -0.3986
  366TIP3   OH222656   0.014   4.617   1.968  0.4472 -0.0729  0.3479
  366TIP3    H122657   0.060   4.687   1.922 -0.9585  0.8351  0.2651
  366TIP3    H222658   0.038   4.629   2.060  0.5386  0.2604  0.2829
  367TIP3   OH222659   6.469   4.810   7.975 -0.1470 -0.1894  0.0846
  367TIP3    H122660   6.471   4.870   8.050  0.4958  0.7578 -0.6630
  367TIP3    H222661   6.538   4.747   7.994  1.7280  1.4697 -0.7931
  368TIP3   OH222662   2.976   1.544   2.138  0.4653  0.0210 -0.9654
  368TIP3    H122663   3.036   1.569   2.209  0.0687  3.3663 -1.6259
  368TIP3    H222664   2.902   1.504   2.183  0.6436  1.1858  0.4624
  369TIP3   OH222665   6.284   5.456   7.918 -0.1597  0.2697 -0.1695
  369TIP3    H122666   6.206   5.488   7.963 -0.5241  0.7130 -1.1038
  369TIP3    H222667   6.250   5.414   7.838  0.6402  1.9199 -1.4293
  370TIP3   OH222668   0.937   5.415   2.549 -0.1349  0.0711 -0.0463
  370TIP3    H122669   0.863   5.358   2.530 -1.1553  1.4408 -0.2494
  370TIP3    H222670   0.920   5.449   2.637  0.9444 -0.6112  0.4654
  371TIP3   OH222671   3.383   4.777   1.619  0.2496 -0.3540 -0.4496
  371TIP3    H122672   3.443   4.787   1.544 -0.2642 -0.4815 -0.8862
  371TIP3    H222673   3.437   4.738   1.688  0.9650  0.5976 -0.4454
  372TIP3   OH222674   6.654   1.213   1.943  0.1205  0.1983 -0.0998
  372TIP3    H122675   6.576   1.229   1.997 -0.2392  0.1263 -0.5904
  372TIP3    H222676   6.640   1.265   1.864  1.9429  2.5728  1.0037
  373TIP3   OH222677   0.623   1.879   0.874  0.4799  0.1466 -0.0524
  373TIP3    H122678   0.689   1.833   0.822  0.4112 -0.5045  0.4288
  373TIP3    H222679   0.584   1.942   0.813  3.6683  2.8091  0.3812
  374TIP3   OH222680   4.340   1.964   8.268 -0.5445 -0.5139 -0.0963
  374TIP3    H122681   4.294   2.022   8.208  1.0928 -1.3313 -2.2710
  374TIP3    H222682   4.413   2.017   8.302 -1.0601 -0.2676  0.6413
  375TIP3   OH222683   0.178   1.772   2.153 -0.6558 -0.4619  0.2521
  375TIP3    H122684   0.106   1.835   2.147 -0.3511 -0.1799 -0.6593
  375TIP3    H222685   0.236   1.796   2.080 -0.0251 -1.1602  0.5195
  376TIP3   OH222686   4.904   0.558   1.917 -0.3605  0.4828  0.7042
  376TIP3    H122687   4.947   0.482   1.958 -0.4842  0.1665  0.2540
  376TIP3    H222688   4.932   0.632   1.970  0.9291  0.3192  0.2942
  377TIP3   OH222689   4.789   1.847   0.151  0.3545 -0.2356 -0.0541
  377TIP3    H122690   4.704   1.882   0.126 -0.9320 -0.9641  2.8951
  377TIP3    H222691   4.769   1.768   0.201  2.7639 -0.3268  0.9016
  378TIP3   OH222692   5.922   0.802   1.186  0.0187 -0.5194  0.0382
  378TIP3    H122693   5.834   0.830   1.158  0.0177 -0.4323  0.1263
  378TIP3    H222694   5.919   0.807   1.281  0.4550  0.5268  0.0148
  379TIP3   OH222695   4.373   0.520   2.792 -0.0009 -0.2256  0.0748
  379TIP3    H122696   4.433   0.447   2.808  1.4603  0.9632  0.2557
  379TIP3    H222697   4.286   0.485   2.813  0.8858 -1.2665  2.3433
  380TIP3   OH222698   6.105   5.098   0.097 -0.5497 -0.7274 -0.4202
  380TIP3    H122699   6.024   5.073   0.141 -0.7977 -1.0805 -1.0707
  380TIP3    H222700   6.099   5.058   0.011  0.1929 -0.5203 -0.5742
  381TIP3   OH222701   0.599   2.352   1.036  0.1313  0.0215  0.5390
  381TIP3    H122702   0.620   2.405   1.113  1.8965 -0.0032  0.1135
  381TIP3    H222703   0.647   2.393   0.964 -0.0405 -1.0101 -0.1950
  382TIP3   OH222704   0.456   1.713   1.000 -0.0441  0.1573  0.1511
  382TIP3    H122705   0.521   1.677   1.060 -0.5618 -0.7080  0.2054
  382TIP3    H222706   0.503   1.781   0.952  1.2731 -1.3090 -0.7198
  383TIP3   OH222707   1.974   2.779   2.081  0.5401 -0.1670 -0.6969
  383TIP3    H122708   2.027   2.703   2.059 -0.3764 -0.9066 -0.3952
  383TIP3    H222709   1.888   2.760   2.044 -0.0856  0.0832  0.5721
  384TIP3   OH222710   4.346   0.986   1.271 -0.4012  0.1698 -0.2670
  384TIP3    H122711   4.388   0.912   1.227  0.5021  0.4993  0.0168
  384TIP3    H222712   4.327   0.953   1.359 -0.0685  0.2480 -0.1646
  385TIP3   OH222713   6.383   4.915   2.564  0.8702 -0.5557  0.2345
  385TIP3    H122714   6.305   4.862   2.547 -0.7911  1.5914  0.6722
  385TIP3    H222715   6.385   4.923   2.660  2.1544 -1.2869  0.2853
  386TIP3   OH222716   6.287   3.092   1.205 -0.4061  0.0918 -0.0731
  386TIP3    H122717   6.306   3.026   1.271  0.3599 -1.0981 -1.4373
  386TIP3    H222718   6.243   3.162   1.253 -1.2253 -1.3875  1.4236
  387TIP3   OH222719   5.870   1.723   0.072 -0.3538  0.3216  0.3947
  387TIP3    H122720   5.790   1.729   0.125  0.1070 -1.1303  1.3381
  387TIP3    H222721   5.840   1.734  -0.018 -2.0914 -2.5949  0.4512
  388TIP3   OH222722   5.713   0.122   0.921  0.0311 -0.3249 -0.0628
  388TIP3    H122723   5.626   0.107   0.884  0.1448 -0.5281 -0.2439
  388TIP3    H222724   5.703   0.202   0.973 -0.4095 -0.6792  0.3972
  389TIP3   OH222725   1.972   6.378   1.161 -0.3086  0.2577 -0.1149
  389TIP3    H122726   2.067   6.367   1.153 -0.6981 -2.3579 -2.7054
  389TIP3    H222727   1.955   6.464   1.122  0.8589 -0.0267 -1.3214
  390TIP3   OH222728   2.425   0.236   0.107 -0.2632  0.1154 -0.2856
  390TIP3    H122729   2.337   0.227   0.145 -0.2618 -1.3685 -0.5735
  390TIP3    H222730   2.476   0.166   0.148  0.5652  0.4396 -0.7384
  391TIP3   OH222731   3.970   1.776   1.803  0.4637  0.6507  0.0339
  391TIP3    H122732   4.055   1.732   1.803  0.9521  1.5506  1.0550
  391TIP3    H222733   3.906   1.705   1.807  1.0874 -0.1192 -2.2631
  392TIP3   OH222734   2.031   2.396   1.494  0.4093  0.3083  0.3115
  392TIP3    H122735   1.997   2.482   1.471  1.8369  0.4458 -1.5460
  392TIP3    H222736   2.080   2.410   1.575 -0.5967  0.9039  0.8376
  393TIP3   OH222737   1.783   6.425   7.657 -0.4476  0.0822 -0.0009
  393TIP3    H122738   1.789   6.511   7.698 -0.0762  0.7704 -1.4235
  393TIP3    H222739   1.850   6.427   7.588 -1.1239 -0.9800 -0.7118
  394TIP3   OH222740   4.562   4.317   2.307  0.5413  0.4534  0.2793
  394TIP3    H122741   4.584   4.229   2.277 -2.3053 -0.4279  0.4216
  394TIP3    H222742   4.600   4.323   2.395  3.2147  0.5238 -0.8182
  395TIP3   OH222743   6.546   5.142   3.008 -0.4497  0.1068  0.3627
  395TIP3    H122744   6.592   5.144   3.093 -0.9788  0.3409  0.6471
  395TIP3    H222745   6.538   5.049   2.988 -3.0038 -0.1573  2.0668
  396TIP3   OH222746   5.270   0.698   0.279  0.0704 -0.6464 -0.0048
  396TIP3    H122747   5.361   0.707   0.306 -0.4897  0.4761  1.7360
  396TIP3    H222748   5.232   0.637   0.343 -0.8952  0.6911  0.7480
  397TIP3   OH222749   1.106   5.358   8.690  0.8376  0.0105 -0.3305
  397TIP3    H122750   1.088   5.265   8.681  0.2340  0.1260 -0.4055
  397TIP3    H222751   1.117   5.372   8.784 -0.5000  0.0984 -0.1691
  398TIP3   OH222752   6.469   2.790   7.832  0.7388  0.0779  0.2523
  398TIP3    H122753   6.473   2.707   7.878  1.3526  0.1818  0.3978
  398TIP3    H222754   6.480   2.857   7.900 -3.3551  0.5078  0.7419
  399TIP3   OH222755   3.078   0.436   0.713  0.0150 -0.1491 -0.5591
  399TIP3    H122756   3.116   0.442   0.800  0.5837 -1.0812 -0.7303
  399TIP3    H222757   3.090   0.523   0.675  1.5727 -0.2844 -0.4306
  400TIP3   OH222758   2.981   3.602   7.605  0.3761  0.0773 -0.2817
  400TIP3    H122759   3.070   3.625   7.578 -1.0344  2.7881 -3.3007
  400TIP3    H222760   2.958   3.669   7.669 -0.1271  0.5633 -0.9648
  401TIP3   OH222761   3.232   4.086   8.040  0.1534  0.0618 -0.2432
  401TIP3    H122762   3.165   4.154   8.028  0.9366  0.8501 -0.2521
  401TIP3    H222763   3.280   4.085   7.958  0.0276 -0.6489 -0.3128
  402TIP3   OH222764   1.001   3.656   8.606  0.1824  0.6190 -0.1699
  402TIP3    H122765   0.929   3.719   8.607  0.4368  0.9114 -0.1371
  402TIP3    H222766   1.068   3.695   8.663  0.4590  0.4575 -0.3828
  403TIP3   OH222767   5.804   3.035   8.097 -0.4382 -0.2744  0.2611
  403TIP3    H122768   5.761   2.998   8.174 -0.7647 -0.3310  0.0529
  403TIP3    H222769   5.732   3.060   8.039 -0.1905 -1.2655 -0.5074
  404TIP3   OH222770   2.983   1.927   7.256 -0.4021 -0.0351  0.1424
  404TIP3    H122771   2.974   1.997   7.192  0.7940 -0.0986 -0.1203
  404TIP3    H222772   2.895   1.918   7.295 -1.0711  0.2210 -1.2490
  405TIP3   OH222773   2.708   0.624   2.233 -0.1010 -0.4112  0.0112
  405TIP3    H122774   2.756   0.550   2.270 -1.5873 -2.1682 -1.3776
  405TIP3    H222775   2.625   0.587   2.205 -0.9494  1.8367 -0.6650
  406TIP3   OH222776   0.750   1.530   0.982  0.5388  0.1276  0.3051
  406TIP3    H122777   0.756   1.611   0.931 -1.5668  0.5065  0.6026
  406TIP3    H222778   0.706   1.555   1.063  0.1057 -1.2588  0.5287
  407TIP3   OH222779   5.450   6.687   7.537 -0.2133  0.1870  0.3054
  407TIP3    H122780   5.483   6.666   7.449 -1.7715  2.7109 -0.9954
  407TIP3    H222781   5.522   6.733   7.579 -0.1371  0.7368 -0.4153
  408TIP3   OH222782   5.156   4.616   1.951  0.0807  0.2352 -0.6115
  408TIP3    H122783   5.094   4.652   2.015 -0.0551 -0.8586 -0.1191
  408TIP3    H222784   5.242   4.640   1.985 -0.0267  1.2904 -1.0188
  409TIP3   OH222785   3.058   1.053   1.516 -0.2736  0.4882  0.2026
  409TIP3    H122786   3.135   1.024   1.565 -0.6113 -0.1315  0.3813
  409TIP3    H222787   3.093   1.109   1.447  0.2769  0.7265  0.6681
  410TIP3   OH222788   0.632   5.384   2.723 -0.3463 -0.5615  0.4678
  410TIP3    H122789   0.655   5.331   2.646 -1.1313  0.1900 -0.3098
  410TIP3    H222790   0.551   5.345   2.755 -0.6847 -0.1084  0.1628
  411TIP3   OH222791   1.817   6.600   1.733 -0.2950 -0.0128 -0.7053
  411TIP3    H122792   1.795   6.528   1.791 -1.4388  1.4024  0.7170
  411TIP3    H222793   1.768   6.584   1.653 -0.8968 -0.5730 -0.2256
  412TIP3   OH222794   1.542   1.253   8.138 -0.0528 -0.1734  0.3922
  412TIP3    H122795   1.513   1.200   8.064 -0.1769  0.3765  0.0441
  412TIP3    H222796   1.531   1.196   8.214  0.6186 -0.9506 -0.0720
  413TIP3   OH222797   2.744   6.403   2.419  0.4192 -0.3549 -0.0253
  413TIP3    H122798   2.710   6.364   2.499 -0.4634  1.0744  0.3155
  413TIP3    H222799   2.684   6.374   2.350 -1.1547  1.5632  0.4617
  414TIP3   OH222800   1.288   3.991   8.594 -0.0998  0.2579 -0.5598
  414TIP3    H122801   1.269   4.015   8.504  1.4035  0.8394 -0.7563
  414TIP3    H222802   1.349   4.058   8.624 -0.8716  0.2996  1.0272
  415TIP3   OH222803   4.650   0.275   8.140  0.2180 -0.0114  0.2062
  415TIP3    H122804   4.698   0.239   8.065 -0.9515 -0.3364 -0.4060
  415TIP3    H222805   4.676   0.368   8.142  0.5982 -0.0976 -0.3270
  416TIP3   OH222806   0.217   4.904   8.149  0.1544  0.4550  0.1932
  416TIP3    H122807   0.167   4.973   8.193  0.6201 -0.0401  1.5591
  416TIP3    H222808   0.152   4.839   8.124 -0.5689  2.1416 -2.7816
  417TIP3   OH222809   2.495   1.639   8.724  0.2179  0.1791  0.5870
  417TIP3    H122810   2.471   1.592   8.643 -1.3297 -0.8172  1.5595
  417TIP3    H222811   2.573   1.688   8.701  1.2882 -2.0263 -0.8380
  418TIP3   OH222812   2.876   0.709   8.469 -0.4337 -0.7297 -0.3188
  418TIP3    H122813   2.861   0.796   8.432  2.0538 -0.0492  0.0476
  418TIP3    H222814   2.790   0.679   8.497 -1.2024  2.2399  0.8885
  419TIP3   OH222815   3.019   6.395   8.768 -0.4455 -0.0484 -0.8228
  419TIP3    H122816   2.951   6.329   8.783 -0.5786  0.6104  2.2465
  419TIP3    H222817   3.098   6.344   8.751 -1.4333 -0.8406 -3.5515
  420TIP3   OH222818   2.476   0.802   7.995 -0.0157 -0.1799  0.1060
  420TIP3    H122819   2.437   0.736   7.937  0.9564 -0.1312 -0.6190
  420TIP3    H222820   2.495   0.876   7.937  0.1867  0.1964  0.6522
  421TIP3   OH222821   5.906   4.228   7.642  0.0038  0.1985 -0.0949
  421TIP3    H122822   5.940   4.309   7.604 -1.7350  1.2406  0.4570
  421TIP3    H222823   5.852   4.190   7.572 -2.5786  1.7299  0.9275
  422TIP3   OH222824   3.074   5.976   7.535  0.4042 -1.1373  0.1381
  422TIP3    H122825   3.166   5.967   7.511  0.6076  1.5877 -0.4115
  422TIP3    H222826   3.035   6.027   7.464 -1.0352 -0.4408  1.3635
  423TIP3   OH222827   6.277   2.225   1.508  0.5938  0.1788  0.1570
  423TIP3    H122828   6.193   2.181   1.517 -0.3968  2.0738  0.5718
  423TIP3    H222829   6.341   2.154   1.502 -1.3060 -1.5136 -4.3317
  424TIP3   OH222830   5.898   3.773   7.775 -0.1815 -0.0833 -0.3562
  424TIP3    H122831   5.960   3.728   7.719 -0.3756 -2.7984  1.4394
  424TIP3    H222832   5.823   3.791   7.718  0.8100  0.0450 -1.6676
  425TIP3   OH222833   6.388   2.038   7.654  0.0612  0.1388 -0.3423
  425TIP3    H122834   6.322   1.970   7.663 -2.3203  2.5307  3.3770
  425TIP3    H222835   6.342   2.112   7.616  0.3394  1.9050  2.4265
  426TIP3   OH222836   0.184   2.519   1.243 -0.3343 -0.2164 -0.3089
  426TIP3    H122837   0.108   2.460   1.249  0.3220 -1.0139  0.3684
  426TIP3    H222838   0.249   2.481   1.302  0.8414  0.0865 -1.3509
  427TIP3   OH222839   1.869   6.293   2.776 -0.5832  0.5010 -0.1314
  427TIP3    H122840   1.790   6.279   2.829 -0.6307 -0.4146 -0.4378
  427TIP3    H222841   1.898   6.206   2.751  0.1350  0.8643 -0.6156
  428TIP3   OH222842   5.259   5.151   1.661 -0.1217 -0.2887  0.4541
  428TIP3    H122843   5.303   5.073   1.696  0.9335  0.0434 -0.1001
  428TIP3    H222844   5.330   5.208   1.632 -0.9270  0.0900 -0.8684
  429TIP3   OH222845   3.812   2.639   6.923  0.2367 -0.7592 -0.2740
  429TIP3    H122846   3.771   2.619   7.007 -0.2974  0.6016 -0.1899
  429TIP3    H222847   3.864   2.717   6.940 -0.7470  0.1802 -1.4548
  430TIP3   OH222848   5.519   6.351   7.671 -0.2387  0.3844 -0.7718
  430TIP3    H122849   5.562   6.348   7.585 -1.6806 -0.6028 -1.4893
  430TIP3    H222850   5.571   6.414   7.721  2.7229 -1.5159 -1.1964
  431TIP3   OH222851   1.966   6.712   0.206 -0.1814 -0.5941  0.1526
  431TIP3    H122852   2.057   6.704   0.175 -0.7939 -0.5622 -1.7847
  431TIP3    H222853   1.953   6.806   0.219 -0.3710 -0.4342 -1.0688
  432TIP3   OH222854   3.444   2.175   8.344 -0.6707  0.2037 -0.0391
  432TIP3    H122855   3.431   2.081   8.331 -0.6329  0.1146  0.5272
  432TIP3    H222856   3.395   2.216   8.273 -0.1540 -0.2571 -0.6725
  433TIP3   OH222857   0.094   6.299   7.901  0.2051  0.1561 -0.1415
  433TIP3    H122858   0.060   6.210   7.894 -1.8580  0.8924 -0.2463
  433TIP3    H222859   0.023   6.349   7.942  1.0618  1.8843 -0.6481
  434TIP3   OH222860   5.350   4.122   1.721  0.5373 -0.5813  0.6772
  434TIP3    H122861   5.367   4.077   1.637 -1.5696 -1.3708  0.6226
  434TIP3    H222862   5.279   4.182   1.702 -0.0613 -0.8710  1.9254
  435TIP3   OH222863   2.949   1.695   1.432 -0.2394  0.2276  0.9132
  435TIP3    H122864   2.886   1.756   1.393 -2.0842 -0.3706  2.7741
  435TIP3    H222865   2.915   1.608   1.409  2.0916 -0.2114 -1.2901
  436TIP3   OH222866   3.172   3.831   8.070  0.2229 -0.3351 -0.0547
  436TIP3    H122867   3.238   3.803   8.134  1.8678  0.5919 -1.2487
  436TIP3    H222868   3.196   3.921   8.049 -1.2990 -0.0632 -0.7292
  437TIP3   OH222869   0.229   6.029   2.268 -0.2164 -0.2975  0.5487
  437TIP3    H122870   0.196   6.034   2.358 -0.0272  0.3467  0.5921
  437TIP3    H222871   0.312   5.982   2.275  0.0621  0.2117  0.7985
  438TIP3   OH222872   0.117   6.505   7.702  0.1558  0.1469  0.0587
  438TIP3    H122873   0.044   6.463   7.656  1.6463 -1.9035 -0.5551
  438TIP3    H222874   0.143   6.443   7.770  1.3062  0.8243  0.2734
  439TIP3   OH222875   3.541   4.509   8.799 -0.3893 -0.2388 -0.3446
  439TIP3    H122876   3.576   4.473   8.718 -1.0512  1.3091 -1.3707
  439TIP3    H222877   3.551   4.439   8.863 -0.5538 -1.7850 -1.9408
  440TIP3   OH222878   1.518   2.362   0.184  0.1278  0.1289 -0.8268
  440TIP3    H122879   1.448   2.428   0.193  0.1335  0.0422 -0.1023
  440TIP3    H222880   1.493   2.292   0.245 -0.2197 -0.8545 -2.0570
  441TIP3   OH222881   3.301   1.286   0.866  0.2100  0.0054 -0.0388
  441TIP3    H122882   3.224   1.245   0.907  0.8606 -0.8870  0.3385
  441TIP3    H222883   3.324   1.358   0.925  1.3101 -1.4359  1.4099
  442TIP3   OH222884   6.448   5.291   1.302  0.0771  0.2358 -0.0444
  442TIP3    H122885   6.433   5.293   1.207 -1.7657  0.1501  0.2009
  442TIP3    H222886   6.541   5.310   1.313  0.7027 -1.3668 -1.9603
  443TIP3   OH222887   3.062   3.093   0.448  0.0777 -0.5124  0.6153
  443TIP3    H122888   3.085   3.170   0.501  0.2244 -0.4900  0.5188
  443TIP3    H222889   3.013   3.128   0.374  0.1979 -0.5056  0.5390
  444TIP3   OH222890   0.996   5.255   0.313  0.1725  0.4259  0.5693
  444TIP3    H122891   0.977   5.299   0.396 -2.0952 -0.1427  0.4276
  444TIP3    H222892   1.043   5.176   0.337  2.3522  1.7888  1.0073
  445TIP3   OH222893   3.527   1.971   0.610  0.0642  0.1360  0.0212
  445TIP3    H122894   3.596   1.910   0.583 -0.4487 -0.4374 -0.0269
  445TIP3    H222895   3.561   2.012   0.689  1.2797  1.2919 -1.0498
  446TIP3   OH222896   4.836   5.057   6.990 -0.5848 -0.7008 -0.4654
  446TIP3    H122897   4.740   5.065   6.991 -0.7199 -2.1524  0.0654
  446TIP3    H222898   4.860   5.037   7.080  0.3905  1.0262 -0.2951
  447TIP3   OH222899   3.048   5.962   0.090  0.0623 -0.1980  1.3078
  447TIP3    H122900   3.008   6.048   0.078  0.8853  0.0937  0.5300
  447TIP3    H222901   3.137   5.981   0.122  0.8860 -0.6593 -0.5789
  448TIP3   OH222902   4.649   4.549   0.307 -0.2198  0.5578  0.0726
  448TIP3    H122903   4.558   4.561   0.333 -1.0710 -0.3876 -2.1716
  448TIP3    H222904   4.645   4.481   0.240  2.0244  1.1929 -0.7802
  449TIP3   OH222905   6.722   6.372   2.084  0.2270  0.4305 -0.3863
  449TIP3    H122906   6.708   6.307   2.153  1.1523 -0.6637 -1.1990
  449TIP3    H222907   6.814   6.398   2.095  0.5097 -0.0788 -1.4588
  450TIP3   OH222908   5.273   5.562   0.790  0.3954  0.8173  0.3310
  450TIP3    H122909   5.240   5.607   0.712  0.9311  1.8762  0.6991
  450TIP3    H222910   5.338   5.501   0.756  0.1137  0.7661 -0.1216
  451TIP3   OH222911   6.764   5.462   8.426 -0.7050  0.3570  0.1315
  451TIP3    H122912   6.754   5.538   8.368 -0.9286  0.3196  0.1187
  451TIP3    H222913   6.858   5.444   8.426 -0.8645 -0.7149 -1.6113
  452TIP3   OH222914   1.520   4.644   8.548 -0.2421  0.2023  0.7615
  452TIP3    H122915   1.570   4.718   8.512  0.5341 -0.9429 -0.6305
  452TIP3    H222916   1.429   4.667   8.534 -0.0330  1.1008  0.7928
  453TIP3   OH222917   0.174   1.906   1.665 -0.5014  0.5547 -0.1754
  453TIP3    H122918   0.115   1.877   1.596  0.5104  0.2876 -0.9553
  453TIP3    H222919   0.137   1.871   1.745 -0.6648 -0.7844 -0.8156
  454TIP3   OH222920   0.297   6.509   8.390  0.0336 -0.5252  0.6126
  454TIP3    H122921   0.286   6.598   8.357 -1.3784 -0.5099  1.0599
  454TIP3    H222922   0.390   6.503   8.411  0.0601  1.0331  1.0999
  455TIP3   OH222923   6.519   6.312   6.589 -0.3181 -0.2165  0.2888
  455TIP3    H122924   6.585   6.296   6.522 -1.6725  1.0878 -1.4412
  455TIP3    H222925   6.542   6.398   6.625 -1.0377  0.2488 -0.3297
  456TIP3   OH222926   1.909   5.955   0.168 -0.0968 -0.3079  0.3025
  456TIP3    H122927   1.857   5.979   0.091  0.2508  0.6231  0.3448
  456TIP3    H222928   1.872   5.872   0.197 -1.3016  0.1282  0.0811
  457TIP3   OH222929   6.419   3.573   0.994 -0.2191 -0.2053  0.0323
  457TIP3    H122930   6.471   3.599   1.070 -0.6768 -0.0433  0.2973
  457TIP3    H222931   6.455   3.623   0.921 -1.3052  1.4642  0.5950
  458TIP3   OH222932   0.619   3.650   2.531  0.4393 -0.4014  0.0294
  458TIP3    H122933   0.712   3.634   2.547 -0.0920 -2.5942  1.3156
  458TIP3    H222934   0.576   3.567   2.551 -2.0876  1.1905  1.9093
  459TIP3   OH222935   2.706   2.036   0.792  0.7402 -0.8944  0.2937
  459TIP3    H122936   2.657   1.958   0.819  0.2651 -1.0296 -0.9205
  459TIP3    H222937   2.663   2.108   0.837  2.4859 -1.4822  3.1637
  460TIP3   OH222938   1.179   5.937   2.812 -0.0810  0.3646 -0.0364
  460TIP3    H122939   1.180   5.965   2.904 -0.9709  1.6691 -0.4006
  460TIP3    H222940   1.128   5.856   2.813  0.4853 -0.0014  0.6972
  461TIP3   OH222941   3.403   2.125   0.424  0.1704 -0.0082  0.3568
  461TIP3    H122942   3.472   2.103   0.487  0.3891 -0.8641 -0.1774
  461TIP3    H222943   3.391   2.046   0.373  0.8911  1.0369 -1.5239
  462TIP3   OH222944   1.378   4.367   2.886  0.4765 -0.1607 -0.1535
  462TIP3    H122945   1.354   4.439   2.945  1.7803 -0.5832  0.9617
  462TIP3    H222946   1.344   4.289   2.930 -0.3892 -0.2950 -1.0472
  463TIP3   OH222947   4.233   2.553   7.831 -0.5844 -0.3860 -0.8773
  463TIP3    H122948   4.165   2.533   7.766  0.9267  2.1071 -3.4447
  463TIP3    H222949   4.192   2.618   7.887 -0.3378  1.3558 -2.6107
  464TIP3   OH222950   5.975   0.159   7.202  0.0544 -0.0867  0.2787
  464TIP3    H122951   5.929   0.227   7.250  0.3377  1.4365 -1.4805
  464TIP3    H222952   5.907   0.113   7.153  0.0766  0.2698 -0.0910
  465TIP3   OH222953   2.575   2.847   0.594 -0.3064 -0.3687  0.9493
  465TIP3    H122954   2.614   2.899   0.665  1.4964  0.1288 -0.3495
  465TIP3    H222955   2.507   2.904   0.559 -0.2116 -0.0161  1.3180
  466TIP3   OH222956   4.373   3.797   7.243  0.2963 -0.0154 -0.1613
  466TIP3    H122957   4.278   3.809   7.239  0.3379  0.4352  0.1811
  466TIP3    H222958   4.399   3.838   7.325  0.2303 -3.8824  2.0182
  467TIP3   OH222959   2.805   4.713   2.537  0.8528 -0.4408 -0.6810
  467TIP3    H122960   2.727   4.738   2.488 -0.0316  2.1959  1.7444
  467TIP3    H222961   2.778   4.636   2.587 -0.7270  1.1123  1.0155
  468TIP3   OH222962   0.121   6.744   1.394 -0.7106 -0.1781 -0.2541
  468TIP3    H122963   0.118   6.825   1.445  0.9317  0.5229 -1.2122
  468TIP3    H222964   0.102   6.771   1.304  3.1266 -0.2035 -1.2199
  469TIP3   OH222965   5.971   3.226   0.897 -0.2844 -0.1778 -0.3536
  469TIP3    H122966   5.902   3.270   0.848 -1.2384 -0.6247  0.5637
  469TIP3    H222967   6.052   3.251   0.852 -1.0341  0.3414 -1.4501
  470TIP3   OH222968   5.367   1.232   2.439 -0.3342  0.3334 -0.0543
  470TIP3    H122969   5.299   1.207   2.376 -1.7643 -1.4930  2.0839
  470TIP3    H222970   5.330   1.306   2.487  0.3390  1.0595 -0.6124
  471TIP3   OH222971   6.663   4.589   0.596  0.0178 -0.1137 -0.3811
  471TIP3    H122972   6.626   4.551   0.516  0.7449 -1.4135 -0.1369
  471TIP3    H222973   6.757   4.579   0.586  0.1911  0.9851  0.0465
  472TIP3   OH222974   1.908   4.132   0.548 -0.5036 -0.3089  0.5757
  472TIP3    H122975   1.899   4.153   0.455 -1.1959  1.0777  0.9239
  472TIP3    H222976   1.973   4.061   0.550  1.8026  1.5940 -0.7594
  473TIP3   OH222977   4.327   6.459   0.421 -0.1134  0.1161  0.2422
  473TIP3    H122978   4.235   6.430   0.421 -0.1516  0.1286 -1.4439
  473TIP3    H222979   4.376   6.382   0.395 -0.0641  0.9784 -2.6587
  474TIP3   OH222980   2.064   6.655   8.621 -0.1107 -0.0102  0.2207
  474TIP3    H122981   2.141   6.707   8.640  0.0767 -0.2161  0.0425
  474TIP3    H222982   2.001   6.717   8.585  0.2683  0.0173 -0.4051
  475TIP3   OH222983   2.415   6.435   2.022  0.2113  0.7334  0.4698
  475TIP3    H122984   2.420   6.440   1.927  0.1348  1.4522  0.4991
  475TIP3    H222985   2.322   6.443   2.042  0.2666  0.9939  0.6268
  476TIP3   OH222986   4.338   0.596   1.341  0.4402  0.8079 -0.3885
  476TIP3    H122987   4.296   0.595   1.427  1.4086  0.9213  0.1024
  476TIP3    H222988   4.337   0.504   1.313  1.2119  0.5803  0.3032
  477TIP3   OH222989   0.104   0.825   1.416 -0.0616 -0.7150 -0.6952
  477TIP3    H122990   0.053   0.748   1.395 -0.7102 -0.0855 -1.4790
  477TIP3    H222991   0.075   0.892   1.354  0.2800  0.2475  0.1376
  478TIP3   OH222992   6.422   1.074   0.156  0.1701 -0.4438  0.1032
  478TIP3    H122993   6.437   1.166   0.134  1.0603 -0.3314  1.1008
  478TIP3    H222994   6.500   1.048   0.205 -0.0225 -1.7664 -0.2550
  479TIP3   OH222995   1.476   1.623   0.415 -0.4611  0.9618 -0.1368
  479TIP3    H122996   1.498   1.614   0.507 -0.2286 -2.0666 -0.4033
  479TIP3    H222997   1.550   1.585   0.368 -2.1234 -0.9272 -1.3831
  480TIP3   OH222998   2.089   1.973   2.134  0.6555  0.5477 -0.0970
  480TIP3    H122999   2.126   1.897   2.178 -0.9282 -1.6349 -2.2548
  480TIP3    H223000   2.165   2.021   2.100  1.7579  0.9139  2.6105
  481TIP3   OH223001   5.441   1.654   0.590 -0.3740  0.0605  0.4187
  481TIP3    H123002   5.461   1.566   0.621  0.5014 -0.2537 -0.9427
  481TIP3    H223003   5.465   1.712   0.663  2.7684 -0.5398  0.0276
  482TIP3   OH223004   2.586   2.017   0.271  0.5164 -0.2945 -0.1010
  482TIP3    H123005   2.546   2.066   0.198  0.6716 -0.0607 -0.0323
  482TIP3    H223006   2.656   1.966   0.230 -1.0002 -2.1426 -0.5305
  483TIP3   OH223007   3.920   2.075   8.581  0.0786 -0.0170  0.2672
  483TIP3    H123008   4.000   2.049   8.627  0.3801 -1.1454 -0.8410
  483TIP3    H223009   3.941   2.064   8.489 -1.4299 -0.5654 -0.0401
  484TIP3   OH223010   6.051   3.712   1.169  0.1580 -0.5797  0.1383
  484TIP3    H123011   5.958   3.725   1.189 -0.1047  0.1758 -1.3947
  484TIP3    H223012   6.084   3.801   1.154  0.3193 -0.9965 -2.5050
  485TIP3   OH223013   1.016   0.193   8.465  0.1252  0.4931 -0.0906
  485TIP3    H123014   0.953   0.134   8.424  0.7849 -0.5527  0.3578
  485TIP3    H223015   1.100   0.167   8.429  0.7208 -0.4386  1.8430
  486TIP3   OH223016   2.294   2.194   2.090  0.5966 -0.6867 -0.0126
  486TIP3    H123017   2.349   2.129   2.046  0.6246 -0.7000  0.0416
  486TIP3    H223018   2.328   2.278   2.059 -0.8192 -0.6985 -1.7791
  487TIP3   OH223019   1.643   4.692   7.284 -0.0852 -0.5301 -0.8013
  487TIP3    H123020   1.677   4.776   7.256  0.2100 -0.4918 -0.3281
  487TIP3    H223021   1.603   4.655   7.205 -1.5522  0.6949 -0.6714
  488TIP3   OH223022   2.103   6.186   8.671 -0.1297  0.2347 -0.3462
  488TIP3    H123023   2.118   6.103   8.717  0.3863  0.8963  0.7135
  488TIP3    H223024   2.016   6.177   8.634 -1.6066  0.5178  2.7334
  489TIP3   OH223025   6.364   4.973   7.589 -0.2306 -0.5145  0.5123
  489TIP3    H123026   6.295   4.987   7.525  2.0763  2.0280 -1.6126
  489TIP3    H223027   6.334   5.020   7.667 -0.5923  1.1919 -0.6157
  490TIP3   OH223028   4.312   3.392   7.664 -0.2476 -0.3408  0.2982
  490TIP3    H123029   4.272   3.308   7.642 -0.4060  0.0885 -1.1563
  490TIP3    H223030   4.374   3.408   7.592 -0.5767  1.0110  0.2961
  491TIP3   OH223031   2.625   0.272   2.020  0.4102  0.2069  0.3553
  491TIP3    H123032   2.666   0.185   2.028  0.1785  0.0702  0.0676
  491TIP3    H223033   2.631   0.309   2.108 -0.4182 -0.5221  0.7374
  492TIP3   OH223034   2.997   0.994   0.200  0.0648 -0.2802 -0.6054
  492TIP3    H123035   3.057   0.959   0.266  0.8552 -1.6399 -1.9946
  492TIP3    H223036   3.045   1.065   0.158 -0.2764  0.2964 -0.0480
  493TIP3   OH223037   1.677   4.432   2.558  0.4490  0.1093  0.1207
  493TIP3    H123038   1.682   4.458   2.466 -0.8957  1.0086  0.2686
  493TIP3    H223039   1.693   4.338   2.558  2.8586  0.4673 -0.7467
  494TIP3   OH223040   6.369   5.890   6.896 -0.3615 -0.2591 -0.4677
  494TIP3    H123041   6.286   5.862   6.858 -2.0779  1.0167  2.0189
  494TIP3    H223042   6.371   5.985   6.884  1.2612 -0.3707 -1.3538
  495TIP3   OH223043   5.189   4.770   7.430 -0.9582 -0.0785  0.0618
  495TIP3    H123044   5.254   4.709   7.464  0.1893  1.0135 -0.1199
  495TIP3    H223045   5.175   4.741   7.340 -1.5412 -0.9584  0.4164
  496TIP3   OH223046   4.522   1.175   1.569  0.4259  0.2349  0.1691
  496TIP3    H123047   4.451   1.116   1.595 -0.0532  0.2668 -0.9793
  496TIP3    H223048   4.497   1.260   1.606  0.9977 -0.1957  1.6234
  497TIP3   OH223049   5.028   3.413   0.449  0.4041  0.7924  0.1146
  497TIP3    H123050   5.121   3.437   0.443  0.3642  0.6701 -1.4499
  497TIP3    H223051   5.008   3.374   0.364 -1.5384  2.4746 -0.2893
  498TIP3   OH223052   1.264   6.167   7.504 -0.0169  0.0503 -0.0811
  498TIP3    H123053   1.229   6.251   7.532 -0.8603  0.0287 -0.9941
  498TIP3    H223054   1.339   6.188   7.450  1.0797  0.1203  1.4099
  499TIP3   OH223055   4.697   1.952   2.713  0.0102 -0.6872 -0.1890
  499TIP3    H123056   4.763   1.912   2.768 -1.1766 -1.1442  0.9555
  499TIP3    H223057   4.687   1.892   2.639  1.4098 -0.2112 -0.7859
  500TIP3   OH223058   6.066   2.552   8.202  0.3715 -0.2373  0.0323
  500TIP3    H123059   6.080   2.539   8.296  0.8096 -0.4049 -0.0527
  500TIP3    H223060   6.154   2.557   8.165  0.2120  1.5149 -0.1598
  501TIP3   OH223061   5.033   6.738   6.981  0.1465 -0.3521  0.2835
  501TIP3    H123062   4.938   6.745   6.991 -0.3169 -0.6251 -2.8984
  501TIP3    H223063   5.061   6.825   6.955  0.9262 -0.1002  1.8625
  502TIP3   OH223064   3.538   0.018   1.110 -0.1649 -0.5740 -0.5591
  502TIP3    H123065   3.496  -0.059   1.071 -0.6659 -0.4965 -0.1914
  502TIP3    H223066   3.465   0.069   1.145  0.2518 -0.5058  0.2300
  503TIP3   OH223067   1.520   2.927   1.579 -0.1644 -0.4610 -0.3404
  503TIP3    H123068   1.502   2.905   1.671 -2.1154  0.8995 -0.3351
  503TIP3    H223069   1.449   2.887   1.530 -0.5327  0.8925 -0.9572
  504TIP3   OH223070   1.512   0.983   7.134 -0.2050 -0.4023 -0.2713
  504TIP3    H123071   1.471   1.016   7.054 -1.8093 -1.2291  0.1860
  504TIP3    H223072   1.526   0.890   7.118 -1.6399 -0.8459  0.8078
  505TIP3   OH223073   5.817   1.277   8.488 -0.0452 -0.3204 -0.2641
  505TIP3    H123074   5.734   1.260   8.445 -0.2475 -0.1558  0.0523
  505TIP3    H223075   5.883   1.250   8.425 -0.3416 -1.9006  0.0721
  506TIP3   OH223076   3.921   5.934   7.671 -0.1962 -0.8456  0.6424
  506TIP3    H123077   3.961   5.925   7.584 -1.0724 -3.0525  0.3999
  506TIP3    H223078   3.987   5.902   7.732 -0.2654 -1.0930  0.5897
  507TIP3   OH223079   2.343   5.040   0.244  0.2880  0.2064 -0.3333
  507TIP3    H123080   2.386   5.054   0.159  0.8695  0.4940  0.0007
  507TIP3    H223081   2.253   5.015   0.222  0.7075 -0.7283 -1.0573
  508TIP3   OH223082   6.737   6.060   0.109  0.2306 -0.1231 -0.2867
  508TIP3    H123083   6.817   6.067   0.057  0.8832 -1.6614  0.4383
  508TIP3    H223084   6.689   5.987   0.070 -0.3535  0.1471 -0.0971
  509TIP3   OH223085   3.522   1.698   8.004  0.0258 -0.2114  0.2093
  509TIP3    H123086   3.537   1.680   7.911  0.9798 -2.7131  0.7550
  509TIP3    H223087   3.473   1.622   8.036  3.1124 -1.5041  2.4936
  510TIP3   OH223088   5.415   1.132   7.784  0.0847  0.5811 -0.1372
  510TIP3    H123089   5.434   1.154   7.693 -0.5068  3.7378  0.3716
  510TIP3    H223090   5.501   1.128   7.826  0.4355 -1.8792 -0.9166
  511TIP3   OH223091   0.643   3.776   0.020  0.0740 -0.2459  0.0314
  511TIP3    H123092   0.731   3.770  -0.017  0.2511  0.6605  0.2882
  511TIP3    H223093   0.590   3.813  -0.050  0.0416 -0.1474  0.1084
  512TIP3   OH223094   0.528   2.237   8.459 -0.3538  0.3620  0.0001
  512TIP3    H123095   0.583   2.168   8.496 -0.1166  0.3091 -0.4407
  512TIP3    H223096   0.546   2.234   8.365 -0.2526  1.0955 -0.0108
  513TIP3   OH223097   3.230   4.704   1.205 -0.7337  0.4844 -0.0686
  513TIP3    H123098   3.141   4.673   1.221 -1.2081  1.2986 -1.0237
  513TIP3    H223099   3.252   4.757   1.283 -1.3493  0.8361 -0.1289
  514TIP3   OH223100   1.224   5.712   8.387  0.3509  0.2233  0.0576
  514TIP3    H123101   1.207   5.678   8.475  0.1054  0.0101 -0.0714
  514TIP3    H223102   1.283   5.647   8.348 -0.6591 -0.4093 -0.4284
  515TIP3   OH223103   5.937   6.708   7.957 -0.4547 -0.0359  0.1199
  515TIP3    H123104   5.898   6.776   7.902 -0.7233 -0.1828  0.1262
  515TIP3    H223105   5.919   6.627   7.910  0.7880 -0.0163 -0.4239
  516TIP3   OH223106   6.422   2.571   0.686 -0.1699 -0.0617  0.0213
  516TIP3    H123107   6.394   2.618   0.607 -2.8934 -1.5679 -0.0245
  516TIP3    H223108   6.448   2.484   0.655  1.0096  0.0754  0.5540
  517TIP3   OH223109   0.809   2.080   0.193 -0.0351  0.1673  0.0939
  517TIP3    H123110   0.771   2.069   0.280 -0.3926 -0.9125 -0.1743
  517TIP3    H223111   0.895   2.038   0.200 -0.1047 -0.0108 -0.0854
  518TIP3   OH223112   1.113   2.244   1.005 -0.2592 -0.2615 -0.6874
  518TIP3    H123113   1.046   2.245   1.074 -0.5756 -0.5142 -0.9896
  518TIP3    H223114   1.193   2.217   1.051 -0.5727 -0.9073 -0.5091
  519TIP3   OH223115   6.519   2.325   0.618  0.2057 -0.4643 -0.3054
  519TIP3    H123116   6.541   2.270   0.693  1.0741 -0.1932 -0.3464
  519TIP3    H223117   6.604   2.347   0.579 -0.2306 -0.6430 -1.3984
  520TIP3   OH223118   3.681   3.986   2.137 -0.2043 -0.4924 -0.1677
  520TIP3    H123119   3.720   4.073   2.128 -0.4888 -0.5353 -2.7290
  520TIP3    H223120   3.598   4.002   2.183  0.6960  0.2540  1.2404
  521TIP3   OH223121   3.104   0.306   6.931  0.1008  0.2057  0.1049
  521TIP3    H123122   3.080   0.214   6.940 -0.9244  0.5433  0.9827
  521TIP3    H223123   3.064   0.333   6.848  0.0800 -0.0289  0.0366
  522TIP3   OH223124   0.301   3.447   0.992  0.7844 -0.1315 -0.4973
  522TIP3    H123125   0.329   3.530   0.953  1.9443 -0.0877  0.3942
  522TIP3    H223126   0.247   3.406   0.924 -0.7084  1.8132 -0.5931
  523TIP3   OH223127   3.997   4.237   2.538 -0.8372 -0.1139 -0.0262
  523TIP3    H123128   4.037   4.316   2.573 -1.9763  1.0819 -1.3148
  523TIP3    H223129   3.999   4.175   2.611  2.0903  0.3034  0.3539
  524TIP3   OH223130   1.333   3.762   2.435 -0.2314 -0.3569 -0.8432
  524TIP3    H123131   1.414   3.798   2.399 -0.8645  2.3837  0.2142
  524TIP3    H223132   1.309   3.822   2.506 -2.1570 -2.2019  0.2011
  525TIP3   OH223133   4.152   4.255   8.715 -0.8404  0.7514 -0.2096
  525TIP3    H123134   4.177   4.197   8.786  0.1047 -0.1983 -1.2682
  525TIP3    H223135   4.226   4.316   8.708  0.2546 -0.6636 -1.8901
  526TIP3   OH223136   3.815   0.825   8.451 -0.2991 -0.3626  0.3632
  526TIP3    H123137   3.892   0.823   8.509  0.9301  0.9233 -1.1283
  526TIP3    H223138   3.790   0.917   8.448 -1.0982 -0.5976 -0.1927
  527TIP3   OH223139   3.280   4.055   0.953 -0.1089  0.2570 -0.1433
  527TIP3    H123140   3.233   3.988   1.004 -1.5700  0.4419 -1.1799
  527TIP3    H223141   3.362   4.013   0.929 -0.1091 -0.4275  0.9430
  528TIP3   OH223142   3.109   3.361   8.047 -0.8354 -0.2648 -0.0023
  528TIP3    H123143   3.035   3.420   8.037 -2.5486 -2.5311 -2.0696
  528TIP3    H223144   3.078   3.294   8.108  0.4974  0.0427  1.0871
  529TIP3   OH223145   5.429   5.374   1.561 -0.1763 -0.5249  0.1498
  529TIP3    H123146   5.364   5.444   1.573  0.1750 -0.1783  0.0678
  529TIP3    H223147   5.500   5.416   1.512 -0.9996 -1.5731 -2.0589
  530TIP3   OH223148   6.048   4.823   1.868  0.5323 -0.1165  0.2476
  530TIP3    H123149   5.961   4.790   1.888  0.3561  0.1477 -0.0812
  530TIP3    H223150   6.057   4.903   1.919  0.5298 -0.0684  0.1729
  531TIP3   OH223151   5.279   2.214   1.488  0.4415  0.3694 -0.1697
  531TIP3    H123152   5.318   2.249   1.408  0.3031 -3.2077 -2.0204
  531TIP3    H223153   5.348   2.161   1.527  0.0404  0.9110  1.3301
  532TIP3   OH223154   1.949   2.620   1.415 -0.2560  0.0540  0.0558
  532TIP3    H123155   1.899   2.628   1.334  0.3350  0.5749 -0.2660
  532TIP3    H223156   1.965   2.710   1.443  0.6072 -0.0917  0.0805
  533TIP3   OH223157   3.540   4.457   8.344  0.1235  0.2107  0.7136
  533TIP3    H123158   3.446   4.441   8.343  0.1892 -0.1927 -0.4399
  533TIP3    H223159   3.552   4.531   8.284  0.8838 -2.0189 -2.0770
  534TIP3   OH223160   2.153   0.188   1.002  0.8290 -0.1087  0.6715
  534TIP3    H123161   2.108   0.201   1.085  0.3238  1.1026  0.2370
  534TIP3    H223162   2.088   0.144   0.946  1.6901 -2.4277  1.3514
  535TIP3   OH223163   2.827   0.886   1.646  0.2441  0.2749  0.0333
  535TIP3    H123164   2.864   0.827   1.581  2.2627  1.0959  0.3712
  535TIP3    H223165   2.780   0.952   1.595  0.4096 -0.0210 -0.5070
  536TIP3   OH223166   5.023   3.049   2.318  0.5405 -0.1929  0.1417
  536TIP3    H123167   5.069   3.051   2.402  1.6472 -2.4991 -0.3140
  536TIP3    H223168   5.039   2.961   2.285 -2.9367 -0.6087 -0.8160
  537TIP3   OH223169   2.763   5.154   1.552  0.7769  0.4888 -0.4413
  537TIP3    H123170   2.711   5.088   1.507 -0.8645  0.4464  1.3888
  537TIP3    H223171   2.853   5.124   1.545  0.1480 -1.5066 -0.3747
  538TIP3   OH223172   1.692   1.190   0.429  0.4067 -0.1680  0.1855
  538TIP3    H123173   1.625   1.197   0.361  1.6674 -0.6467 -1.1571
  538TIP3    H223174   1.695   1.097   0.451  0.8017 -0.1841  0.0654
  539TIP3   OH223175   3.379   2.532   0.355  0.2991 -0.2463 -0.3449
  539TIP3    H123176   3.367   2.623   0.328 -0.8182  0.0647  1.0568
  539TIP3    H223177   3.311   2.483   0.307  0.5645 -0.2681 -0.7037
  540TIP3   OH223178   1.470   1.227   0.621 -0.5184  0.6208 -0.6251
  540TIP3    H123179   1.409   1.158   0.594 -0.8486  0.7897 -0.3265
  540TIP3    H223180   1.555   1.199   0.587 -0.8850  0.7480 -1.6919
  541TIP3   OH223181   3.931   1.558   1.393 -0.8057 -0.1177 -0.0219
  541TIP3    H123182   3.999   1.539   1.457  0.9413  3.3038 -0.6077
  541TIP3    H223183   3.855   1.582   1.445 -0.3614 -0.2898  0.7245
  542TIP3   OH223184   6.607   1.173   8.731  0.2202 -0.7537 -0.0473
  542TIP3    H123185   6.634   1.182   8.639 -1.0708  0.7667 -0.3310
  542TIP3    H223186   6.647   1.248   8.775  1.7052 -2.0531  0.8925
  543TIP3   OH223187   3.816   2.880   1.847  0.9389 -0.0168  0.5601
  543TIP3    H123188   3.876   2.885   1.773  0.0496  0.7398 -0.1393
  543TIP3    H223189   3.810   2.786   1.867 -1.8404 -0.8111 -2.9347
  544TIP3   OH223190   4.419   2.871   2.849 -0.5510 -0.1672 -0.5442
  544TIP3    H123191   4.413   2.777   2.827 -1.1096 -0.0547 -0.9017
  544TIP3    H223192   4.510   2.894   2.827 -0.6025 -0.4698 -1.1160
  545TIP3   OH223193   1.373   6.762   1.201 -0.1522 -0.2259  0.0334
  545TIP3    H123194   1.332   6.731   1.120 -0.6135  0.6906 -0.0950
  545TIP3    H223195   1.446   6.817   1.171 -1.7748  2.1393  0.1334
  546TIP3   OH223196   0.426   6.550   0.077 -0.4598 -0.1688 -0.2713
  546TIP3    H123197   0.363   6.497   0.127 -1.0374 -1.1066 -1.9055
  546TIP3    H223198   0.384   6.562  -0.008  0.6390  1.0857 -0.6649
  547TIP3   OH223199   6.229   0.761   6.820 -0.6597 -0.7827 -0.2933
  547TIP3    H123200   6.303   0.822   6.820 -0.3258 -1.1762 -1.0745
  547TIP3    H223201   6.169   0.796   6.753 -0.6628 -1.0852 -0.4472
  548TIP3   OH223202   1.292   3.044   0.353 -0.0863 -0.0848  0.3454
  548TIP3    H123203   1.334   2.962   0.327 -2.2939 -0.8619 -1.0961
  548TIP3    H223204   1.358   3.090   0.405  1.5160 -2.3818  0.4778
  549TIP3   OH223205   3.309   3.820   8.386 -0.0131 -0.0321  0.3621
  549TIP3    H123206   3.333   3.889   8.448  0.5239 -0.7013  0.9151
  549TIP3    H223207   3.227   3.785   8.419  1.0732 -1.5027  1.6993
  550TIP3   OH223208   3.889   5.599   2.311 -0.2881  0.1427 -0.2503
  550TIP3    H123209   3.820   5.560   2.256 -1.5606  0.8994  0.7471
  550TIP3    H223210   3.850   5.601   2.399  1.7933 -1.3059  0.7786
  551TIP3   OH223211   2.027   5.343   7.849  0.2618 -0.0856  0.1775
  551TIP3    H123212   2.013   5.251   7.870  2.7214 -0.4983  0.3104
  551TIP3    H223213   1.967   5.361   7.776 -0.7530 -1.5659  0.6070
  552TIP3   OH223214   1.379   0.311   8.597 -0.1937  0.0679  0.7844
  552TIP3    H123215   1.291   0.319   8.635 -0.2557  2.3500  0.3425
  552TIP3    H223216   1.403   0.220   8.610 -2.6962 -0.6740  0.7862
  553TIP3   OH223217   0.284   1.567   1.494  0.2530  0.2146  0.6445
  553TIP3    H123218   0.316   1.542   1.581 -0.9470 -1.5286  0.6231
  553TIP3    H223219   0.232   1.493   1.465 -0.0191  1.0936 -1.2559
  554TIP3   OH223220   5.665   1.732   2.009 -0.3172  0.1827 -0.0041
  554TIP3    H123221   5.625   1.762   2.091 -1.3703 -0.7297 -0.1583
  554TIP3    H223222   5.603   1.668   1.974  2.4793 -3.5118  1.1705
  555TIP3   OH223223   2.835   4.198   2.231 -0.2191 -0.0095 -0.1344
  555TIP3    H123224   2.751   4.157   2.211 -0.2650  0.4887 -1.0123
  555TIP3    H223225   2.876   4.140   2.295 -1.0462 -0.4766 -0.0236
  556TIP3   OH223226   0.455   3.506   0.202 -0.5158  0.0545  0.5996
  556TIP3    H123227   0.369   3.474   0.172 -0.9673  1.2742  0.5482
  556TIP3    H223228   0.454   3.491   0.297 -0.3256 -0.9616  0.4503
  557TIP3   OH223229   6.594   5.020   0.681  0.1395  0.1165 -0.0055
  557TIP3    H123230   6.590   5.059   0.769 -0.8563  0.8770 -0.3696
  557TIP3    H223231   6.619   5.093   0.624 -1.0091  0.0545 -0.5989
  558TIP3   OH223232   6.152   0.330   2.167  0.1806  0.5843  0.5071
  558TIP3    H123233   6.193   0.251   2.131 -0.0846  0.8501 -0.3808
  558TIP3    H223234   6.196   0.343   2.251  1.1866  0.2692  0.0426
  559TIP3   OH223235   1.790   2.355   1.825 -0.3776 -0.2703 -0.4344
  559TIP3    H123236   1.840   2.315   1.896 -1.4159 -0.3557  0.2751
  559TIP3    H223237   1.718   2.401   1.870 -0.2574  0.8463 -1.3414
  560TIP3   OH223238   4.802   1.863   0.585  0.0709 -0.4195  0.4822
  560TIP3    H123239   4.721   1.890   0.541  0.3607 -0.1628  0.0995
  560TIP3    H223240   4.842   1.945   0.614 -0.5647 -0.6337  2.0550
  561TIP3   OH223241   1.644   3.191   1.425 -0.0152 -0.2585  0.3369
  561TIP3    H123242   1.677   3.130   1.359  1.2475  0.8434 -0.0954
  561TIP3    H223243   1.671   3.153   1.508 -0.2209 -0.8494  0.1386
  562TIP3   OH223244   3.095   5.668   1.148 -0.1054 -0.3197  0.4445
  562TIP3    H123245   3.037   5.608   1.196  1.4870 -1.4898  0.9815
  562TIP3    H223246   3.115   5.621   1.067  0.3222 -0.0566  0.3974
  563TIP3   OH223247   4.546   3.066   1.731 -0.2157 -0.1107 -0.4158
  563TIP3    H123248   4.608   2.994   1.739 -0.6185 -0.5902 -1.4038
  563TIP3    H223249   4.572   3.128   1.799  0.4090 -0.9846  0.1615
  564TIP3   OH223250   5.065   0.638   8.479  0.1935  0.6755  0.2340
  564TIP3    H123251   5.078   0.730   8.501 -2.1148  1.2852 -0.6157
  564TIP3    H223252   4.978   0.617   8.514  0.8029 -1.2972  0.6955
  565TIP3   OH223253   6.074   5.807   2.078  0.2395 -0.3962  0.2787
  565TIP3    H123254   6.045   5.774   1.993  2.0399  1.4206 -1.1422
  565TIP3    H223255   6.142   5.745   2.105 -1.3726 -1.8440  1.2146
  566TIP3   OH223256   4.549   2.849   8.496  0.2658 -0.0661 -0.5583
  566TIP3    H123257   4.615   2.816   8.558  1.0155 -1.6191 -2.0932
  566TIP3    H223258   4.466   2.840   8.543  1.0472  1.5126  1.2589
  567TIP3   OH223259   6.745   0.744   1.905 -0.8318  0.2232 -0.1226
  567TIP3    H123260   6.687   0.818   1.887  0.0995  0.7883 -0.9671
  567TIP3    H223261   6.804   0.775   1.974 -2.8363 -1.0965  2.3348
  568TIP3   OH223262   0.519   2.986   1.798 -0.0632 -0.7240  0.5450
  568TIP3    H123263   0.428   2.972   1.824  0.1885 -0.4217  1.6632
  568TIP3    H223264   0.569   2.971   1.878  0.6565  1.3823  0.5661
  569TIP3   OH223265   5.227   3.966   3.188 -0.2064  0.2080 -0.3724
  569TIP3    H123266   5.260   4.055   3.178 -0.2887  0.1529 -1.2035
  569TIP3    H223267   5.133   3.977   3.202 -0.2710  0.2384 -0.8223
  570TIP3   OH223268   4.030   1.633   0.976  0.3588  0.2726 -0.1743
  570TIP3    H123269   3.990   1.701   1.030  0.1498 -0.0959  0.1348
  570TIP3    H223270   3.974   1.628   0.898 -0.1560 -0.1905  0.2237
  571TIP3   OH223271   6.675   5.355   1.147  0.4906 -0.9510 -0.6500
  571TIP3    H123272   6.628   5.437   1.160 -0.4077 -1.5317 -0.1477
  571TIP3    H223273   6.694   5.352   1.053 -1.0637 -1.0052 -0.9841
  572TIP3   OH223274   4.216   3.080   8.346  0.5183  0.3177 -0.3748
  572TIP3    H123275   4.274   3.004   8.349  0.3583  0.2106  0.4765
  572TIP3    H223276   4.204   3.099   8.253 -1.0424 -1.9593 -0.7259
  573TIP3   OH223277   1.011   5.016   8.670 -0.1013  0.2299  0.2749
  573TIP3    H123278   1.013   4.972   8.585  0.8891 -3.1351  1.8913
  573TIP3    H223279   0.923   5.055   8.675 -0.9979 -1.4423 -1.3780
  574TIP3   OH223280   4.409   4.081   2.894  0.4912 -0.2920 -0.8143
  574TIP3    H123281   4.343   4.024   2.855 -0.0069 -1.2355  1.2575
  574TIP3    H223282   4.366   4.166   2.901 -0.4815 -0.8458  0.3211
  575TIP3   OH223283   6.176   6.270   1.546  0.1988  0.5885  0.7048
  575TIP3    H123284   6.139   6.201   1.492 -1.1301  0.2344  1.9934
  575TIP3    H223285   6.164   6.238   1.636  3.1792  0.7032  1.2456
  576TIP3   OH223286   3.422   6.178   1.196 -0.6308  0.8089  0.3740
  576TIP3    H123287   3.453   6.268   1.202 -0.7923  0.8453  0.7031
  576TIP3    H223288   3.327   6.186   1.186 -0.7066  0.6670  0.9316
  577TIP3   OH223289   4.505   5.484   7.262 -0.0428  0.4082  0.1099
  577TIP3    H123290   4.519   5.538   7.184 -0.9180 -0.8970 -0.9826
  577TIP3    H223291   4.592   5.451   7.284 -0.0451 -0.7162 -1.4620
  578TIP3   OH223292   1.949   0.453   2.099 -0.5385 -0.0710 -0.0423
  578TIP3    H123293   1.884   0.404   2.048 -0.5847  0.7622 -0.8018
  578TIP3    H223294   1.998   0.385   2.145 -1.6284 -0.7408  0.1713
  579TIP3   OH223295   4.198   4.017   2.115  0.3542  0.4548  0.3769
  579TIP3    H123296   4.170   4.103   2.145  3.3523  0.7292  2.9968
  579TIP3    H223297   4.165   3.956   2.181  0.4376 -0.0435 -0.0306
  580TIP3   OH223298   6.558   5.747   7.000  0.0593  0.1704  0.3653
  580TIP3    H123299   6.498   5.688   7.047  0.6129 -3.2466 -2.7205
  580TIP3    H223300   6.502   5.791   6.937  0.1349  0.5252  0.5459
  581TIP3   OH223301   3.554   5.937   1.000 -0.9051  0.5697 -0.0461
  581TIP3    H123302   3.643   5.923   1.030 -0.5454  0.9872 -0.8850
  581TIP3    H223303   3.503   5.949   1.080 -0.7151 -2.2597  0.5971
  582TIP3   OH223304   0.440   0.575   2.328  0.4128 -0.0748 -0.3552
  582TIP3    H123305   0.349   0.568   2.357  0.1262 -0.8373 -1.3547
  582TIP3    H223306   0.434   0.600   2.235  1.1606 -1.1894 -0.7323
  583TIP3   OH223307   3.436   0.127   0.251  0.3323 -0.5287  1.0228
  583TIP3    H123308   3.527   0.101   0.238  0.4673  0.4941 -0.2769
  583TIP3    H223309   3.441   0.204   0.306  0.5972  1.7042 -1.8834
  584TIP3   OH223310   4.757   4.340   0.545 -0.4342 -0.0299 -0.1203
  584TIP3    H123311   4.664   4.341   0.523 -1.0333  0.5656  2.2277
  584TIP3    H223312   4.782   4.432   0.549  0.0383 -0.1679  0.1533
  585TIP3   OH223313   2.755   4.240   0.432 -0.0970 -0.0236  0.5037
  585TIP3    H123314   2.766   4.323   0.478  2.8187 -0.5300  0.9083
  585TIP3    H223315   2.744   4.175   0.501 -1.2877 -0.1590  0.2191
  586TIP3   OH223316   5.543   0.580   7.307 -0.1082 -0.2281  0.3701
  586TIP3    H123317   5.514   0.553   7.394 -0.8984  3.6207  1.4956
  586TIP3    H223318   5.521   0.673   7.302  1.2699  0.0763 -3.4184
  587TIP3   OH223319   2.737   4.483   2.700 -0.2245  0.1276  0.4537
  587TIP3    H123320   2.719   4.510   2.790 -4.9354  0.4082 -0.2792
  587TIP3    H223321   2.724   4.388   2.699 -0.4149  0.1517  0.0822
  588TIP3   OH223322   3.634   4.437   2.111  0.1022 -0.6084  0.7420
  588TIP3    H123323   3.664   4.527   2.123  1.1402 -1.0115  1.2750
  588TIP3    H223324   3.538   4.444   2.106  0.1862  0.5481  0.4657
  589TIP3   OH223325   1.248   1.716   0.032  0.0251  0.2227 -0.4053
  589TIP3    H123326   1.339   1.745   0.036  0.1659 -0.3214  1.2021
  589TIP3    H223327   1.200   1.792   0.001  1.0453  0.4268 -1.5916
  590TIP3   OH223328   2.334   1.738   1.895 -0.0891 -0.3296 -0.3000
  590TIP3    H123329   2.377   1.653   1.899  0.1687 -0.1930 -0.0843
  590TIP3    H223330   2.252   1.726   1.942  0.7880  0.0171  1.4167
  591TIP3   OH223331   6.757   1.189   1.025  0.5937  0.0757 -0.5340
  591TIP3    H123332   6.825   1.192   0.957  1.1372 -0.7923 -0.0503
  591TIP3    H223333   6.679   1.223   0.982  0.7153 -1.2005 -1.8713
  592TIP3   OH223334   0.450   4.133   0.453 -1.1656  0.5158  0.2610
  592TIP3    H123335   0.513   4.126   0.524  0.0504  0.5781 -0.7681
  592TIP3    H223336   0.412   4.045   0.446  0.9221 -0.3857 -0.9206
  593TIP3   OH223337   0.914   5.919   1.727  0.1300  0.3849 -0.3007
  593TIP3    H123338   0.949   5.937   1.814 -1.6950  1.4588  0.2525
  593TIP3    H223339   0.850   5.849   1.740  0.7740 -0.3643 -1.0171
  594TIP3   OH223340   5.382   6.058   6.853  0.6404 -0.2555  0.0590
  594TIP3    H123341   5.345   5.977   6.887 -0.0309 -0.7455 -1.7405
  594TIP3    H223342   5.470   6.034   6.825  0.4871 -0.3314 -0.3578
  595TIP3   OH223343   2.299   2.742   1.939 -0.0813 -0.0470  0.0697
  595TIP3    H123344   2.246   2.663   1.947  0.4351 -0.3073  1.2599
  595TIP3    H223345   2.390   2.710   1.943  0.1527  0.5111 -0.5908
  596TIP3   OH223346   5.197   3.601   8.203  0.9478  0.1575 -0.1226
  596TIP3    H123347   5.131   3.602   8.134 -0.3602 -1.1856  1.0279
  596TIP3    H223348   5.255   3.529   8.180  1.0129  0.2484 -0.2459
  597TIP3   OH223349   0.964   1.585   0.483  0.2105 -0.2574 -0.4935
  597TIP3    H123350   1.003   1.587   0.571 -0.0385  2.1843 -0.3895
  597TIP3    H223351   1.017   1.646   0.432 -0.5862 -0.5146 -1.6474
  598TIP3   OH223352   0.942   3.540   2.365  0.1803 -0.0506  0.5585
  598TIP3    H123353   0.990   3.597   2.424 -0.4578  0.9982  0.0984
  598TIP3    H223354   0.993   3.539   2.284 -0.3815  0.7770  0.1896
  599TIP3   OH223355   6.047   5.518   7.555 -0.3914 -0.4631  0.1417
  599TIP3    H123356   6.073   5.460   7.626  1.2833 -1.0817 -0.9099
  599TIP3    H223357   5.988   5.467   7.501  0.7324 -1.0768 -0.5402
  600TIP3   OH223358   6.398   2.261   2.333 -0.0911 -0.0005 -0.0534
  600TIP3    H123359   6.404   2.331   2.398 -0.2453 -0.6525  0.6833
  600TIP3    H223360   6.314   2.218   2.352  0.3892 -0.9103  0.0489
  601TIP3   OH223361   3.620   1.328   2.585  0.0658  0.0566  0.2240
  601TIP3    H123362   3.650   1.248   2.630  0.6152  0.4776  0.6120
  601TIP3    H223363   3.593   1.386   2.655  2.6211  1.4323  0.2046
  602TIP3   OH223364   0.442   6.270   0.497  0.5013 -0.3443  0.1286
  602TIP3    H123365   0.417   6.323   0.573 -0.8507 -2.4300  1.2450
  602TIP3    H223366   0.532   6.244   0.515  0.4685 -0.1547  0.5969
  603TIP3   OH223367   3.067   2.181   7.476  0.4064  0.0986 -0.2446
  603TIP3    H123368   2.972   2.168   7.469  0.0106  2.0245  0.6959
  603TIP3    H223369   3.088   2.240   7.404  0.7025  0.4958  0.1655
  604TIP3   OH223370   4.891   6.390   7.884  0.5801 -0.0078  0.0215
  604TIP3    H123371   4.959   6.326   7.901  0.8643  0.1632 -0.4615
  604TIP3    H223372   4.814   6.338   7.861  1.3503 -0.1545 -2.3979
  605TIP3   OH223373   5.275   6.499   7.461 -0.2399 -0.0012  0.0819
  605TIP3    H123374   5.344   6.551   7.502  1.2261  0.7510 -3.0226
  605TIP3    H223375   5.222   6.563   7.414 -0.2785 -1.0092 -1.2986
  606TIP3   OH223376   3.285   4.918   8.239 -0.0199 -0.4037 -0.1541
  606TIP3    H123377   3.218   4.976   8.274  0.9531  0.1125  0.9050
  606TIP3    H223378   3.235   4.844   8.202 -1.2142  0.5929 -0.6023
  607TIP3   OH223379   1.069   4.865   8.431 -0.1398  0.8496 -0.2708
  607TIP3    H123380   1.089   4.892   8.342  0.2853  0.8479 -0.1762
  607TIP3    H223381   1.030   4.778   8.421  0.9864  0.3387 -0.3754
  608TIP3   OH223382   5.380   1.434   2.205  0.3275  0.7327  0.1259
  608TIP3    H123383   5.428   1.505   2.249  2.0030 -0.3085  0.0422
  608TIP3    H223384   5.390   1.359   2.264 -1.5685  0.5612  0.2908
  609TIP3   OH223385   2.822   5.508   6.964  0.3793 -0.2682  0.1957
  609TIP3    H123386   2.875   5.463   6.898  0.1070  0.7850 -0.7890
  609TIP3    H223387   2.883   5.527   7.035  0.7172 -1.3045  0.1983
  610TIP3   OH223388   1.185   0.960   8.608 -0.1268 -0.4821 -0.7200
  610TIP3    H123389   1.152   0.984   8.522 -0.3865 -0.2682 -0.5654
  610TIP3    H223390   1.272   0.923   8.592  1.4219  2.7851 -0.8204
  611TIP3   OH223391   3.163   4.425   7.510  0.2145 -0.3245  0.1423
  611TIP3    H123392   3.085   4.379   7.541  0.0394  0.4432  0.8756
  611TIP3    H223393   3.211   4.360   7.459 -0.7142 -0.9144  0.0022
  612TIP3   OH223394   2.884   0.113   0.160 -0.3689  0.1214 -0.1667
  612TIP3    H123395   2.975   0.120   0.132 -1.0832  1.4081 -2.3247
  612TIP3    H223396   2.847   0.043   0.106 -0.8045 -0.0506  0.3420
  613TIP3   OH223397   3.227   6.215   0.501 -0.7412  0.1734  0.3369
  613TIP3    H123398   3.183   6.180   0.424 -2.4532  0.9728  0.9152
  613TIP3    H223399   3.175   6.184   0.575  2.0105 -2.3125  1.4197
  614TIP3   OH223400   2.845   1.438   1.413  0.1075  0.5815  0.7449
  614TIP3    H123401   2.828   1.395   1.329 -0.3904  0.4360  0.9201
  614TIP3    H223402   2.891   1.372   1.465  0.5417  0.7173  0.5460
  615TIP3   OH223403   0.455   2.876   7.604  0.2153 -0.2498 -0.3126
  615TIP3    H123404   0.523   2.926   7.649 -0.3345  0.0941  0.1565
  615TIP3    H223405   0.389   2.859   7.672  0.9536 -2.7145 -0.1069
  616TIP3   OH223406   0.863   5.247   8.408  0.0427  0.0397 -0.3940
  616TIP3    H123407   0.904   5.204   8.333  0.3625 -0.8830  0.2858
  616TIP3    H223408   0.911   5.330   8.417  1.2932 -0.6763 -0.0915
  617TIP3   OH223409   1.961   0.396   0.787 -0.0118  0.0524 -0.3648
  617TIP3    H123410   1.934   0.443   0.865  0.2987 -1.1541  0.4904
  617TIP3    H223411   1.944   0.304   0.806  2.4194 -0.5465 -0.6969
  618TIP3   OH223412   1.521   2.470   7.225 -0.3853  0.0110  0.0261
  618TIP3    H123413   1.533   2.548   7.170 -1.4812  0.0516 -0.1892
  618TIP3    H223414   1.426   2.457   7.227 -0.2745 -0.7721  0.8358
  619TIP3   OH223415   2.778   2.625   1.186  0.1641 -0.0211  0.2129
  619TIP3    H123416   2.784   2.535   1.218  3.3014  0.2922  0.8276
  619TIP3    H223417   2.739   2.674   1.258  0.2472 -0.5899  0.6463
  620TIP3   OH223418   1.711   0.136   1.466  0.0920 -0.1286  0.6532
  620TIP3    H123419   1.637   0.075   1.470 -1.0045  1.1304  0.3192
  620TIP3    H223420   1.788   0.080   1.473 -0.8263 -1.6771 -0.7454
  621TIP3   OH223421   1.577   5.262   2.120  0.0407  0.3953  0.4282
  621TIP3    H123422   1.483   5.273   2.102 -0.1532  0.3185  1.3125
  621TIP3    H223423   1.592   5.168   2.115 -0.0321  0.3659  0.7117
  622TIP3   OH223424   3.726   0.995   7.077 -0.0486 -0.3444  0.5103
  622TIP3    H123425   3.749   0.973   6.987 -0.8613  1.7477 -0.2701
  622TIP3    H223426   3.650   0.939   7.097 -0.7661  0.1740 -0.6471
  623TIP3   OH223427   3.607   3.606   0.255 -0.2095  0.1498  0.3150
  623TIP3    H123428   3.638   3.588   0.166 -0.7621  2.0007 -0.2943
  623TIP3    H223429   3.610   3.521   0.299 -0.6438 -0.9527 -1.6828
  624TIP3   OH223430   4.820   5.591   0.295 -0.1240  0.2561  0.0814
  624TIP3    H123431   4.750   5.634   0.345 -1.0025 -0.9282 -0.0839
  624TIP3    H223432   4.797   5.605   0.203 -0.5474 -0.7522  0.0269
  625TIP3   OH223433   1.246   3.703   1.557  0.4551 -0.0105  0.1145
  625TIP3    H123434   1.200   3.635   1.507 -0.4485  0.1692  0.6820
  625TIP3    H223435   1.200   3.784   1.535 -2.1034 -0.2994  3.5724
  626TIP3   OH223436   6.543   0.701   0.771  0.0103  0.5745  0.1194
  626TIP3    H123437   6.483   0.702   0.697  0.0549 -1.6413 -0.0286
  626TIP3    H223438   6.509   0.631   0.828  2.1225 -0.3927  0.2768
  627TIP3   OH223439   1.571   6.300   1.367  0.1612  0.1269  0.3394
  627TIP3    H123440   1.663   6.281   1.354  0.7880  2.1574  1.3797
  627TIP3    H223441   1.570   6.366   1.437 -2.1293 -0.5141  1.0028
  628TIP3   OH223442   2.855   3.888   8.394 -0.4290 -0.0654 -0.0607
  628TIP3    H123443   2.759   3.882   8.398 -0.3210 -1.3986  1.5762
  628TIP3    H223444   2.879   3.835   8.318 -0.9577 -0.2111 -0.1331
  629TIP3   OH223445   1.929   1.511   3.274 -0.0687 -0.5139  0.0763
  629TIP3    H123446   1.955   1.583   3.217  0.3440  0.2980  1.2655
  629TIP3    H223447   2.001   1.448   3.267  0.9478  0.4585  1.1603
  630TIP3   OH223448   4.532   6.238   8.739 -0.2027 -0.2280 -0.0279
  630TIP3    H123449   4.563   6.251   8.649 -0.5243  1.7536  0.1049
  630TIP3    H223450   4.569   6.311   8.788 -0.9021 -0.6854  1.2308
  631TIP3   OH223451   4.191   1.156   0.681 -0.1590 -0.0187 -0.2269
  631TIP3    H123452   4.252   1.149   0.754  0.9889 -3.0623 -1.3272
  631TIP3    H223453   4.133   1.229   0.705  3.4190  2.6928  1.1497
  632TIP3   OH223454   5.457   2.468   8.091 -0.0754  0.3041  0.0132
  632TIP3    H123455   5.537   2.471   8.144 -1.7117 -0.3371  2.7365
  632TIP3    H223456   5.389   2.443   8.153 -2.3889  0.6686 -2.2315
  633TIP3   OH223457   2.264   5.295   0.944 -0.9001 -0.0379 -0.0075
  633TIP3    H123458   2.268   5.220   1.004 -2.3877 -0.3916 -0.3214
  633TIP3    H223459   2.206   5.358   0.986 -1.9265 -0.2674 -1.0138
  634TIP3   OH223460   5.057   5.234   2.024 -0.4504 -0.4281 -0.3298
  634TIP3    H123461   5.009   5.274   2.096  1.0163 -1.1040  1.0928
  634TIP3    H223462   5.056   5.140   2.043  1.8013 -0.4381  0.0775
  635TIP3   OH223463   4.058   3.945   0.469  0.3911 -0.1950  0.2660
  635TIP3    H123464   4.097   3.871   0.515  1.9786  0.3946 -0.0660
  635TIP3    H223465   4.032   4.006   0.538 -1.3025 -1.2036  0.5632
  636TIP3   OH223466   2.195   1.050   8.613 -0.4522 -0.8615 -0.1910
  636TIP3    H123467   2.194   1.067   8.519  1.5367 -2.1702 -0.5090
  636TIP3    H223468   2.244   1.123   8.650 -2.4497  0.4251  0.0853
  637TIP3   OH223469   1.885   5.119   2.012 -0.2946  0.2433 -0.0039
  637TIP3    H123470   1.842   5.059   2.073  0.6584  0.4229  0.8733
  637TIP3    H223471   1.862   5.086   1.925 -0.3119 -1.0041  0.4587
  638TIP3   OH223472   1.995   2.508   7.720  0.5556  0.2236 -0.1013
  638TIP3    H123473   2.033   2.528   7.634 -2.7229 -0.7429 -1.9357
  638TIP3    H223474   1.956   2.590   7.749  0.0832  0.1206 -0.4357
  639TIP3   OH223475   1.286   3.345   3.469  0.6751  0.7686  0.0672
  639TIP3    H123476   1.374   3.380   3.457  0.8750  0.0026 -0.9177
  639TIP3    H223477   1.228   3.418   3.448  1.0614  1.3698  1.0222
  640TIP3   OH223478   5.739   6.506   0.803 -0.6394  0.0909  1.2667
  640TIP3    H123479   5.741   6.417   0.767 -0.8114  0.9079 -0.8590
  640TIP3    H223480   5.649   6.518   0.833 -1.1552  0.2043 -0.2565
  641TIP3   OH223481   6.198   2.253   6.718  0.4905 -0.0709  0.1157
  641TIP3    H123482   6.176   2.337   6.758  2.5372  0.1464  0.8840
  641TIP3    H223483   6.288   2.237   6.743  0.3256 -2.2661 -0.4729
  642TIP3   OH223484   1.456   5.211   7.978 -0.4914 -0.1546  0.2521
  642TIP3    H123485   1.552   5.210   7.975 -0.5255 -0.2085 -1.2392
  642TIP3    H223486   1.429   5.230   7.889 -1.8982 -1.1320  0.4423
  643TIP3   OH223487   4.553   6.709   1.082  0.2567 -0.3355 -0.0147
  643TIP3    H123488   4.551   6.802   1.060 -1.0142  0.2067  2.0610
  643TIP3    H223489   4.590   6.706   1.170 -1.3255 -1.5695  0.6712
  644TIP3   OH223490   1.078   2.845   0.406  0.6756  0.4592 -0.2682
  644TIP3    H123491   1.158   2.892   0.431  0.5122 -0.2865  1.8310
  644TIP3    H223492   1.109   2.765   0.364  1.0155  0.6975 -0.4785
  645TIP3   OH223493   6.026   3.268   0.075 -0.2294 -0.0396  1.3303
  645TIP3    H123494   6.033   3.232  -0.014 -0.7129  0.8303  0.9223
  645TIP3    H223495   5.940   3.240   0.105 -0.0652 -0.3348  1.5298
  646TIP3   OH223496   0.275   1.790   7.994  0.0382 -0.2730  0.5115
  646TIP3    H123497   0.311   1.792   8.083  1.2286 -1.4343  0.0798
  646TIP3    H223498   0.348   1.814   7.937  0.0523 -2.1530 -0.3436
  647TIP3   OH223499   3.133   2.333   7.256 -0.5743 -0.3239 -0.0294
  647TIP3    H123500   3.079   2.278   7.199 -0.3148 -1.0878  0.4438
  647TIP3    H223501   3.161   2.405   7.200 -2.8557  0.6297 -0.0399
  648TIP3   OH223502   0.172   5.889   1.184 -0.7209  0.0622 -0.3530
  648TIP3    H123503   0.213   5.955   1.127 -0.8849  0.6908  0.2456
  648TIP3    H223504   0.166   5.932   1.269 -1.0552 -0.6492 -0.0159
  649TIP3   OH223505   4.635   5.428   8.060 -0.0866  0.0600  0.1332
  649TIP3    H123506   4.595   5.364   8.001 -1.6425  2.0104 -1.0468
  649TIP3    H223507   4.701   5.471   8.006  0.3178  0.0844  0.6414
  650TIP3   OH223508   2.478   0.292   8.239  0.9252  0.2228  0.1156
  650TIP3    H123509   2.457   0.376   8.198  0.3116 -0.5594 -1.2133
  650TIP3    H223510   2.569   0.302   8.268  1.0731  1.1259 -0.5989
  651TIP3   OH223511   4.726   1.836   2.183  0.7272 -0.3156 -0.0571
  651TIP3    H123512   4.645   1.799   2.149 -0.2680 -0.5314  2.3739
  651TIP3    H223513   4.698   1.895   2.253  2.6223  0.5950  0.0060
  652TIP3   OH223514   2.629   5.867   1.708  0.5476  0.1440  0.2407
  652TIP3    H123515   2.605   5.956   1.734  3.2310  0.9931  0.0658
  652TIP3    H223516   2.658   5.825   1.789  2.1581  0.4588 -0.1484
  653TIP3   OH223517   5.539   3.608   8.463 -0.0858  0.5527  0.2188
  653TIP3    H123518   5.572   3.576   8.379  0.5416  2.2034 -0.1851
  653TIP3    H223519   5.605   3.580   8.527  2.0035  3.3824 -0.5130
  654TIP3   OH223520   4.132   2.417   1.872  0.1793 -0.1818  0.2807
  654TIP3    H123521   4.127   2.491   1.932  0.4231 -0.4319  0.6109
  654TIP3    H223522   4.140   2.340   1.928  0.6133 -0.3984 -0.0680
  655TIP3   OH223523   2.252   3.723   0.636  0.2044 -0.6008  0.0918
  655TIP3    H123524   2.195   3.668   0.690  3.5013 -3.3729  1.1259
  655TIP3    H223525   2.271   3.670   0.559 -0.0699  1.0685 -1.1920
  656TIP3   OH223526   0.405   6.344   1.382  0.2918 -0.6816  0.2850
  656TIP3    H123527   0.367   6.377   1.301 -2.6323 -1.4057  1.2193
  656TIP3    H223528   0.407   6.419   1.441 -1.1581 -0.9287  0.6813
  657TIP3   OH223529   4.170   4.998   2.408 -0.3984 -0.2832  0.2080
  657TIP3    H123530   4.076   4.989   2.421 -0.7247 -0.9402 -2.0531
  657TIP3    H223531   4.178   5.046   2.325  1.3143  2.4853  1.8184
  658TIP3   OH223532   5.497   2.280   8.504  0.1419 -0.5360 -0.0483
  658TIP3    H123533   5.512   2.374   8.503 -0.9355 -0.3464  0.3375
  658TIP3    H223534   5.583   2.242   8.524  0.5242  0.3733  0.0696
  659TIP3   OH223535   5.964   2.921   7.927 -0.6269 -0.1203 -0.4689
  659TIP3    H123536   5.917   2.939   8.008 -0.6856  0.4607 -0.6291
  659TIP3    H223537   5.972   2.826   7.924 -0.5600 -0.1376  0.2539
  660TIP3   OH223538   1.772   0.344   8.419  0.0065  0.3673 -0.2731
  660TIP3    H123539   1.847   0.402   8.423  0.5695 -0.3373 -0.3166
  660TIP3    H223540   1.789   0.288   8.344 -0.4475  0.0406 -0.1408
  661TIP3   OH223541   3.292   4.508   0.620 -0.0699 -0.3033 -0.4874
  661TIP3    H123542   3.323   4.444   0.685  4.5154 -0.2276 -2.2179
  661TIP3    H223543   3.293   4.461   0.537  1.1791  1.3397 -1.4714
  662TIP3   OH223544   1.125   3.783   2.943 -0.0845 -0.0331 -0.4897
  662TIP3    H123545   1.096   3.704   2.897 -0.1221 -0.0164 -0.4944
  662TIP3    H223546   1.218   3.789   2.923 -0.3603  0.7136 -1.6602
  663TIP3   OH223547   6.393   4.964   1.771 -0.0549 -0.2624  0.2813
  663TIP3    H123548   6.325   4.974   1.837  0.1780 -0.3639  0.5394
  663TIP3    H223549   6.423   5.053   1.754 -0.2773 -0.2145  0.1401
  664TIP3   OH223550   6.416   1.073   2.982  0.3576 -0.0438  0.0816
  664TIP3    H123551   6.336   1.117   2.953  1.3016  1.2652 -0.6654
  664TIP3    H223552   6.475   1.145   3.007  0.9810 -1.0127  1.5246
  665TIP3   OH223553   5.659   2.708   2.362 -0.3811  0.0939 -0.0425
  665TIP3    H123554   5.644   2.738   2.452 -1.6221 -0.6341  0.0073
  665TIP3    H223555   5.741   2.658   2.367 -0.6823 -0.3428  0.7875
  666TIP3   OH223556   3.702   6.049   2.528  0.2676 -0.1162 -0.0668
  666TIP3    H123557   3.616   6.088   2.539 -0.1760 -1.4106  1.4642
  666TIP3    H223558   3.750   6.072   2.608 -0.0256 -2.6079  0.9101
  667TIP3   OH223559   5.158   2.713   1.374  0.2238  0.5065  0.5868
  667TIP3    H123560   5.088   2.775   1.356  0.2681  0.4303  0.1420
  667TIP3    H223561   5.115   2.627   1.370  0.6746  0.3221 -1.5398
  668TIP3   OH223562   2.906   0.568   1.029  0.2865  0.4103 -0.5648
  668TIP3    H123563   2.995   0.536   1.016  0.9115  1.3027  1.3048
  668TIP3    H223564   2.857   0.491   1.059  1.4230  0.7282  2.3889
  669TIP3   OH223565   4.072   2.545   0.146 -0.5441  0.3410  0.3243
  669TIP3    H123566   4.008   2.616   0.144 -1.6782 -0.5921 -2.5426
  669TIP3    H223567   4.040   2.485   0.214 -1.2189  1.1569  0.7426
  670TIP3   OH223568   4.083   5.030   8.448 -0.1611  0.1105 -0.4806
  670TIP3    H123569   4.046   5.091   8.385  0.2571  0.4805 -0.3708
  670TIP3    H223570   4.036   5.048   8.529 -0.3341 -0.0082 -0.5537
  671TIP3   OH223571   4.697   3.864   0.142 -0.0058 -0.1952 -0.1494
  671TIP3    H123572   4.638   3.913   0.199 -0.6684 -0.0752 -0.9201
  671TIP3    H223573   4.776   3.918   0.138 -0.8524  1.0276 -1.2667
  672TIP3   OH223574   4.740   5.849   0.931  0.2640 -0.2357 -0.0584
  672TIP3    H123575   4.797   5.917   0.967 -0.4625  0.1391  0.4072
  672TIP3    H223576   4.798   5.774   0.918  1.3020  0.7607 -1.5316
  673TIP3   OH223577   5.142   2.730   0.903 -0.3153 -0.3858  0.6608
  673TIP3    H123578   5.116   2.793   0.970 -0.0368  1.3812 -0.7810
  673TIP3    H223579   5.084   2.748   0.829  1.6684  0.2506 -0.8417
  674TIP3   OH223580   3.851   3.968   0.967 -0.1154 -0.2206 -0.6791
  674TIP3    H123581   3.936   3.972   0.923 -0.9729  2.1360 -2.3335
  674TIP3    H223582   3.830   3.875   0.970  1.4774 -0.6921 -2.3870
  675TIP3   OH223583   5.551   5.699   1.718  0.2407  0.1755 -0.1668
  675TIP3    H123584   5.633   5.728   1.758  0.4882 -1.3266  0.4970
  675TIP3    H223585   5.579   5.642   1.646 -0.2313  1.0758 -1.0899
  676TIP3   OH223586   1.383   2.166   1.323  0.3608 -0.3154 -0.3530
  676TIP3    H123587   1.476   2.184   1.312  0.0020  1.1501 -1.2117
  676TIP3    H223588   1.346   2.247   1.358 -0.5016 -1.1020  0.6681
  677TIP3   OH223589   1.646   2.934   0.298 -0.4896 -0.4842 -0.2019
  677TIP3    H123590   1.571   2.885   0.333 -0.7188 -0.3433 -0.4992
  677TIP3    H223591   1.609   2.990   0.230 -0.1735 -0.1381 -0.0913
  678TIP3   OH223592   2.001   4.713   8.220 -0.0845  0.3417  0.0254
  678TIP3    H123593   2.082   4.662   8.218  0.4553  1.1931 -0.1683
  678TIP3    H223594   2.026   4.800   8.189 -1.1339  0.5343 -0.3287
  679TIP3   OH223595   5.896   1.524   3.001 -0.4231 -0.3876 -0.1537
  679TIP3    H123596   5.846   1.470   2.939 -1.3876  0.7884 -0.4403
  679TIP3    H223597   5.902   1.471   3.080 -1.4362 -0.8791 -0.3906
  680TIP3   OH223598   3.315   2.772   2.667 -0.0014 -0.0893 -0.1295
  680TIP3    H123599   3.333   2.859   2.632 -0.4463 -0.1496 -0.5225
  680TIP3    H223600   3.393   2.750   2.719  1.1296 -0.4097 -1.8744
  681TIP3   OH223601   2.535   5.353   6.906 -0.1176  0.3164 -0.1509
  681TIP3    H123602   2.524   5.384   6.816 -0.2871 -1.3848 -0.7508
  681TIP3    H223603   2.535   5.258   6.899  1.7715  0.1232  1.4268
  682TIP3   OH223604   5.220   4.043   8.271 -0.1820  0.1180 -0.5631
  682TIP3    H123605   5.164   4.120   8.268  0.3920  0.5211 -1.7851
  682TIP3    H223606   5.302   4.074   8.310  0.0198  0.1133 -0.9781
  683TIP3   OH223607   5.070   6.077   0.247 -0.5013  0.0772  0.0641
  683TIP3    H123608   5.035   5.992   0.219 -1.2811  0.7399 -1.0498
  683TIP3    H223609   5.021   6.098   0.326 -0.5738 -0.3410  0.1336
  684TIP3   OH223610   4.189   4.682   3.257  0.1255 -0.3072 -0.3104
  684TIP3    H123611   4.205   4.596   3.295  1.0576 -0.5140 -1.1324
  684TIP3    H223612   4.094   4.690   3.255  0.0032 -1.6472 -0.9205
  685TIP3   OH223613   0.438   2.816   2.133 -0.1103 -0.1061  0.3619
  685TIP3    H123614   0.490   2.897   2.135 -0.5416  0.1679  0.5980
  685TIP3    H223615   0.347   2.846   2.136 -0.2791 -0.6362  2.4203
  686TIP3   OH223616   4.279   2.998   7.789  0.7691  0.1757 -0.5957
  686TIP3    H123617   4.221   2.933   7.749  0.4453  0.6137 -0.8405
  686TIP3    H223618   4.286   3.068   7.725  0.8316  0.5521 -0.1845
  687TIP3   OH223619   6.227   5.988   8.276  0.5979 -0.4597 -0.2123
  687TIP3    H123620   6.257   5.969   8.187  0.5533 -1.8256  0.0386
  687TIP3    H223621   6.299   5.960   8.332 -0.3304 -1.9835  0.2925
  688TIP3   OH223622   5.914   3.398   1.607 -0.0087  0.4064 -0.1050
  688TIP3    H123623   5.981   3.447   1.559 -2.0701  2.0539 -1.4924
  688TIP3    H223624   5.881   3.334   1.543 -0.9356  0.7928 -0.0299
  689TIP3   OH223625   1.553   6.241   8.564 -0.8398 -0.0839 -0.2498
  689TIP3    H123626   1.522   6.260   8.653  1.6152  1.9702  0.2651
  689TIP3    H223627   1.562   6.146   8.562 -1.2425 -0.1988  1.5692
  690TIP3   OH223628   6.351   1.711   8.557  0.2896  0.2243 -0.1710
  690TIP3    H123629   6.359   1.784   8.619 -0.1237  0.6455 -0.5968
  690TIP3    H223630   6.273   1.663   8.586  0.6607 -0.1487  0.2109
  691TIP3   OH223631   2.020   2.119   0.817  0.0349 -0.0158  0.3225
  691TIP3    H123632   2.018   2.044   0.876 -0.2100  0.4857  0.9719
  691TIP3    H223633   2.089   2.099   0.754  1.2512  0.0510  1.6114
  692TIP3   OH223634   6.460   2.051   1.767  0.4331  0.1723 -0.2540
  692TIP3    H123635   6.394   2.099   1.816  1.4186 -0.0158  1.3490
  692TIP3    H223636   6.543   2.082   1.802  1.1285 -1.7620 -0.0745
  693TIP3   OH223637   5.909   6.131   1.333 -0.3470  0.1759  0.3524
  693TIP3    H123638   5.887   6.124   1.426 -2.5242 -3.9210 -0.2160
  693TIP3    H223639   5.994   6.087   1.326 -0.8335 -0.7833  0.2914
  694TIP3   OH223640   0.848   5.745   8.507 -0.4370 -0.1219 -0.0832
  694TIP3    H123641   0.870   5.802   8.434  0.5321  1.2182  1.1912
  694TIP3    H223642   0.888   5.787   8.583  0.1460 -2.4098  0.9707
  695TIP3   OH223643   0.965   1.750   8.143  0.1468 -0.6625  0.2752
  695TIP3    H123644   1.008   1.667   8.125  1.7273 -0.0070  0.7756
  695TIP3    H223645   1.037   1.814   8.145 -0.9687  0.6377  0.3335
  696TIP3   OH223646   5.704   2.767   1.752  0.1645 -0.1082  0.2655
  696TIP3    H123647   5.783   2.814   1.729  0.1833 -0.4485 -0.3961
  696TIP3    H223648   5.733   2.698   1.812  0.3318 -0.0699  0.2287
  697TIP3   OH223649   3.432   3.768   8.765  0.1403 -0.1826 -0.2067
  697TIP3    H123650   3.347   3.789   8.726 -0.2697  1.2878  1.3352
  697TIP3    H223651   3.428   3.674   8.782 -0.8779 -0.2736 -0.8388
  698TIP3   OH223652   2.872   5.102   0.066 -0.1261  0.1808  0.5754
  698TIP3    H123653   2.854   5.010   0.083  0.4173  0.0925  0.6781
  698TIP3    H223654   2.790   5.147   0.087 -0.6930 -0.3810 -0.3735
  699TIP3   OH223655   3.177   3.361   1.789 -0.0942 -0.2095 -0.0899
  699TIP3    H123656   3.160   3.439   1.735 -0.1517  0.2893  0.6271
  699TIP3    H223657   3.091   3.338   1.825  0.2998  1.0435  1.8547
  700TIP3   OH223658   0.779   1.223   0.576  0.6349  0.0986 -0.5087
  700TIP3    H123659   0.756   1.267   0.658 -0.6181 -0.4988 -0.5179
  700TIP3    H223660   0.700   1.228   0.523  1.1041 -0.4348 -1.2825
  701TIP3   OH223661   3.331   4.817   7.878  0.1259  0.2327  0.4115
  701TIP3    H123662   3.333   4.768   7.795  1.6633  2.2577 -0.8269
  701TIP3    H223663   3.238   4.822   7.899 -0.2430 -1.1355 -0.6635
  702TIP3   OH223664   5.716   3.773   2.011 -0.7600  0.3679  0.7065
  702TIP3    H123665   5.694   3.729   1.928 -0.6688  1.5695  0.0295
  702TIP3    H223666   5.644   3.749   2.070 -0.8458 -0.4684  0.2788
  703TIP3   OH223667   1.765   0.920   2.371  0.3557 -0.4767 -0.0075
  703TIP3    H123668   1.860   0.915   2.373  0.3965 -0.0832 -0.6075
  703TIP3    H223669   1.739   0.852   2.308  0.2374 -0.5769  0.1471
  704TIP3   OH223670   2.417   2.110   2.619 -0.2970 -0.4286 -1.0761
  704TIP3    H123671   2.359   2.143   2.550 -0.1149 -0.6645 -1.3468
  704TIP3    H223672   2.411   2.015   2.612 -1.2094 -0.4561  0.0390
  705TIP3   OH223673   1.594   6.145   0.427  0.6461  0.3947  0.1532
  705TIP3    H123674   1.582   6.136   0.333 -1.2925  0.6872  0.3365
  705TIP3    H223675   1.552   6.228   0.449  0.9361  0.2544  1.2978
  706TIP3   OH223676   0.253   6.393   0.259  0.5313  1.0528 -0.3181
  706TIP3    H123677   0.157   6.389   0.266  0.6166  0.5808  0.8763
  706TIP3    H223678   0.283   6.391   0.350  1.7876 -2.4593 -0.6835
  707TIP3   OH223679   1.513   0.981   8.293  0.8071 -0.1720  0.6021
  707TIP3    H123680   1.594   0.976   8.343  0.6282  2.7170  1.4083
  707TIP3    H223681   1.449   1.016   8.356  0.3205  2.5974 -1.2402
  708TIP3   OH223682   1.161   6.685   1.393 -0.6428  0.0333  0.0893
  708TIP3    H123683   1.239   6.724   1.354 -0.5971  0.9067  0.9999
  708TIP3    H223684   1.122   6.632   1.323  0.6369 -0.2435 -0.4401
  709TIP3   OH223685   5.554   0.961   2.214  0.3517 -0.1578 -0.4613
  709TIP3    H123686   5.588   0.926   2.132 -0.0092 -0.2744 -0.5638
  709TIP3    H223687   5.534   0.883   2.267  0.0927 -0.0947 -0.4658
  710TIP3   OH223688   3.828   5.862   0.990 -0.3677  0.3031  0.4067
  710TIP3    H123689   3.900   5.898   1.043 -1.0677  1.0168  0.8942
  710TIP3    H223690   3.826   5.769   1.013  0.6116  0.1952  0.1304
  711TIP3   OH223691   6.453   4.089   8.357 -0.3175 -0.4001 -0.0507
  711TIP3    H123692   6.463   3.995   8.338  3.2569 -0.2934  0.6216
  711TIP3    H223693   6.531   4.129   8.319 -1.1466  2.1491  0.7686
  712TIP3   OH223694   5.625   6.160   0.029  0.6723 -0.0441 -0.4084
  712TIP3    H123695   5.580   6.236  -0.006 -0.2764 -0.7658 -0.8005
  712TIP3    H223696   5.617   6.169   0.124 -0.0121  0.0080 -0.4695
  713TIP3   OH223697   2.972   1.980   7.667 -0.0970  0.4911  0.3847
  713TIP3    H123698   3.034   1.942   7.604  0.2716  0.9349  0.4765
  713TIP3    H223699   2.986   2.075   7.660 -0.3118  0.5609  0.8764
  714TIP3   OH223700   1.754   4.599   8.180  0.5192  0.2765  0.0643
  714TIP3    H123701   1.843   4.632   8.193  0.2517  1.1390 -0.2306
  714TIP3    H223702   1.701   4.649   8.241 -0.2236  1.9332 -1.8457
  715TIP3   OH223703   2.752   3.865   1.175 -0.6790  0.5292  0.3925
  715TIP3    H123704   2.774   3.824   1.091 -0.9213  1.1513  0.0106
  715TIP3    H223705   2.749   3.793   1.238 -3.4125 -0.4109 -0.6848
  716TIP3   OH223706   3.845   3.249   8.162  0.0825 -0.1109 -0.0077
  716TIP3    H123707   3.766   3.261   8.109  0.4722 -0.7245 -0.7511
  716TIP3    H223708   3.812   3.235   8.251 -0.7098 -1.2005 -0.4412
  717TIP3   OH223709   5.112   4.357   0.672 -0.0430  0.2750  0.0986
  717TIP3    H123710   5.079   4.275   0.637  1.9132 -0.6062  0.2043
  717TIP3    H223711   5.075   4.362   0.761  1.3743 -1.5274  0.8537
  718TIP3   OH223712   4.406   4.828   8.645 -0.5173 -0.3412  0.3835
  718TIP3    H123713   4.454   4.760   8.693 -0.1258  0.1753  0.7396
  718TIP3    H223714   4.459   4.844   8.567 -0.5688 -0.3828  0.3395
  719TIP3   OH223715   3.068   1.181   0.962  0.7659 -0.8137  0.2330
  719TIP3    H123716   3.010   1.256   0.977  1.6715  0.5787 -2.4509
  719TIP3    H223717   3.045   1.119   1.031 -0.4375  1.6621  2.2464
  720TIP3   OH223718   3.604   1.120   2.110 -0.2357 -0.3903  0.4661
  720TIP3    H123719   3.550   1.181   2.060  0.3659  1.0461  1.5162
  720TIP3    H223720   3.686   1.167   2.127  1.7116 -2.7148 -1.6244
  721TIP3   OH223721   2.112   1.003   7.982  0.7724  0.1199 -0.2995
  721TIP3    H123722   2.192   1.011   7.930  0.6873 -0.6306 -0.5659
  721TIP3    H223723   2.136   0.946   8.055  0.7227  0.6523  0.1303
  722TIP3   OH223724   5.176   0.145   2.922 -0.3045 -0.2331 -0.2503
  722TIP3    H123725   5.260   0.103   2.940 -1.2982 -2.9894 -1.4513
  722TIP3    H223726   5.198   0.237   2.906  2.5081 -0.8892 -0.6938
  723TIP3   OH223727   3.782   6.739   1.501 -0.1946  0.6170  0.1571
  723TIP3    H123728   3.773   6.692   1.584 -1.4254  1.3794  0.4855
  723TIP3    H223729   3.876   6.745   1.487  0.0073 -1.0836  0.5862
  724TIP3   OH223730   5.786   5.952   2.077 -0.4793 -0.4178 -0.1085
  724TIP3    H123731   5.873   5.948   2.117 -1.2038 -2.5388  1.4169
  724TIP3    H223732   5.792   5.895   2.001 -0.4651 -0.3499 -0.1582
  725TIP3   OH223733   0.986   5.197   2.793  0.5370  0.5091 -0.7337
  725TIP3    H123734   1.080   5.195   2.778  0.7390  1.2872  0.2474
  725TIP3    H223735   0.975   5.159   2.880 -0.4033 -2.4071 -2.0394
  726TIP3   OH223736   6.103   0.271   6.988 -0.2452 -0.3761 -0.1121
  726TIP3    H123737   6.110   0.363   7.012  1.5368 -0.6356  0.5592
  726TIP3    H223738   6.066   0.229   7.066 -0.3572 -0.3244 -0.1383
  727TIP3   OH223739   0.958   5.796   0.156  0.1762 -0.2461 -0.2004
  727TIP3    H123740   1.044   5.780   0.195 -0.4603  0.6558  1.7087
  727TIP3    H223741   0.901   5.730   0.196 -0.4041  0.4071  0.0740
  728TIP3   OH223742   4.948   2.928   0.995  0.3090 -0.5749 -0.1753
  728TIP3    H123743   5.014   2.997   0.988 -0.0950 -0.0317  1.1592
  728TIP3    H223744   4.905   2.928   0.909  1.6754 -0.6036 -0.9007
  729TIP3   OH223745   2.949   6.155   7.385 -0.1665 -0.4942  0.4814
  729TIP3    H123746   2.896   6.192   7.315  2.4885  0.4009 -1.1788
  729TIP3    H223747   3.008   6.226   7.411  0.2592 -1.4375  2.2342
  730TIP3   OH223748   3.195   0.626   1.595 -0.3582 -0.5253  0.3829
  730TIP3    H123749   3.264   0.652   1.657 -0.8416 -0.7157  1.0148
  730TIP3    H223750   3.113   0.652   1.638 -0.6745 -0.0268 -0.4987
  731TIP3   OH223751   3.544   6.352   1.455  0.3980  0.5518 -0.3436
  731TIP3    H123752   3.595   6.275   1.480 -0.0046  0.9715  2.1073
  731TIP3    H223753   3.585   6.384   1.375  2.7251 -0.2592  0.4494
  732TIP3   OH223754   4.779   5.997   1.338 -0.2531  0.3412  0.3860
  732TIP3    H123755   4.844   6.059   1.305 -0.3257  0.3546  0.2680
  732TIP3    H223756   4.796   5.992   1.432  1.9506 -1.9744 -0.0312
  733TIP3   OH223757   0.558   6.481   0.987 -0.3493  0.6695  0.2310
  733TIP3    H123758   0.492   6.505   1.052 -3.2749 -1.8659 -1.5463
  733TIP3    H223759   0.604   6.406   1.025 -2.1448 -0.8928 -0.5593
  734TIP3   OH223760   3.516   4.662   1.844 -0.1946 -0.0089  0.0492
  734TIP3    H123761   3.588   4.723   1.861 -0.3077  0.8715 -2.2202
  734TIP3    H223762   3.465   4.663   1.925  0.6393  1.7729  0.6197
  735TIP3   OH223763   1.303   5.271   2.092  0.1964 -0.1239 -0.0359
  735TIP3    H123764   1.244   5.204   2.126  0.2449 -0.5103 -0.6970
  735TIP3    H223765   1.266   5.295   2.007 -0.3888  1.4303  0.6180
  736TIP3   OH223766   1.181   5.042   0.467  0.1437 -0.4707 -0.4007
  736TIP3    H123767   1.146   5.000   0.389 -1.2432 -0.0777 -0.0194
  736TIP3    H223768   1.224   5.121   0.435 -0.9007 -0.0200 -0.7279
  737TIP3   OH223769   2.667   4.714   8.491  0.0091 -0.3758  0.1100
  737TIP3    H123770   2.612   4.741   8.418 -0.1835  0.4482  0.5553
  737TIP3    H223771   2.703   4.629   8.463 -1.2601 -0.8061 -0.2914
  738TIP3   OH223772   6.012   3.998   7.831  0.1583 -0.3416  0.3996
  738TIP3    H123773   5.959   4.065   7.788  0.7185 -0.1984 -0.0840
  738TIP3    H223774   5.966   3.916   7.812 -0.9427 -0.0372  1.6339
  739TIP3   OH223775   5.129   4.691   2.486  0.7302  0.3822  0.4677
  739TIP3    H123776   5.037   4.714   2.498  0.8482  1.5157 -0.4913
  739TIP3    H223777   5.172   4.724   2.565  0.3193 -0.1985  0.9446
  740TIP3   OH223778   5.546   3.943   8.153  0.0782  0.3737 -0.4544
  740TIP3    H123779   5.475   3.884   8.126 -0.7847  0.9462  0.4863
  740TIP3    H223780   5.557   4.003   8.080 -0.1138  0.0239 -0.7755
  741TIP3   OH223781   0.885   2.849   3.201  0.0576  0.5043 -0.0770
  741TIP3    H123782   0.864   2.757   3.183 -1.3093  0.5134  1.2207
  741TIP3    H223783   0.816   2.898   3.155  1.0337  0.9316 -1.1308
  742TIP3   OH223784   1.674   3.872   1.713  0.2474 -0.3429 -0.1719
  742TIP3    H123785   1.747   3.934   1.714  0.5912 -0.7443  0.4292
  742TIP3    H223786   1.702   3.801   1.771 -0.5803 -0.5469 -0.0041
  743TIP3   OH223787   0.645   2.500   0.061  0.3146 -0.4659  0.0179
  743TIP3    H123788   0.564   2.541   0.029  1.1444  0.5588 -0.8256
  743TIP3    H223789   0.626   2.406   0.059 -1.0084 -0.2251  0.2730
  744TIP3   OH223790   5.628   3.268   7.868  0.0995  0.3859 -0.3392
  744TIP3    H123791   5.546   3.313   7.884 -1.3292 -1.1624 -2.6993
  744TIP3    H223792   5.690   3.338   7.847 -1.7164  1.4411 -2.6553
  745TIP3   OH223793   6.366   0.171   0.391  0.2473 -0.2828  0.2873
  745TIP3    H123794   6.420   0.156   0.468  2.0993 -2.1188 -1.2449
  745TIP3    H223795   6.362   0.086   0.347 -0.8709  0.6504 -1.5594
  746TIP3   OH223796   6.652   2.617   0.422 -0.3453 -0.0039  0.3171
  746TIP3    H123797   6.698   2.626   0.506  2.3109 -1.7110 -0.8369
  746TIP3    H223798   6.665   2.701   0.378 -0.2429  0.2819  0.8860
  747TIP3   OH223799   2.064   3.667   2.260  0.5563  0.7330  0.0783
  747TIP3    H123800   1.986   3.711   2.225 -0.2483 -0.6618  0.0307
  747TIP3    H223801   2.107   3.631   2.183  2.2225  2.8696 -0.1016
  748TIP3   OH223802   2.216   3.186   2.198 -0.7545  0.0579 -0.0388
  748TIP3    H123803   2.228   3.211   2.290  0.5366 -0.0797 -0.1460
  748TIP3    H223804   2.251   3.097   2.193  0.4078  0.5239 -0.9037
  749TIP3   OH223805   3.259   5.024   0.704 -0.1094 -0.4268  0.5699
  749TIP3    H123806   3.233   4.986   0.788 -1.5654 -1.8121 -0.4486
  749TIP3    H223807   3.326   4.964   0.671  1.3356  0.7541  1.2034
  750TIP3   OH223808   5.098   1.683   7.448  0.2471 -0.5475  0.5203
  750TIP3    H123809   5.098   1.654   7.539  1.1133  1.6045  1.2804
  750TIP3    H223810   5.080   1.604   7.398 -0.0155 -1.8510  2.5291
  751TIP3   OH223811   3.779   3.362   2.114 -0.4184 -0.5185 -0.3355
  751TIP3    H123812   3.806   3.275   2.085 -0.8260  0.1884 -3.2155
  751TIP3    H223813   3.793   3.418   2.037 -0.7727  1.8392  1.2085
  752TIP3   OH223814   1.511   3.705   7.658 -0.0444  0.2198 -0.1738
  752TIP3    H123815   1.565   3.668   7.588  0.3688  2.1238 -0.9194
  752TIP3    H223816   1.479   3.788   7.623  0.2399  1.2790  1.9237
  753TIP3   OH223817   1.780   3.591   7.172  0.0016  0.2521  0.0664
  753TIP3    H123818   1.766   3.624   7.083  0.6058 -1.6095 -0.7744
  753TIP3    H223819   1.872   3.607   7.190 -0.0868  0.4974  0.3056
  754TIP3   OH223820   5.504   0.718   0.385 -0.1398  0.5010 -0.6163
  754TIP3    H123821   5.583   0.670   0.361  0.3055  0.0487  1.5434
  754TIP3    H223822   5.534   0.806   0.406 -0.3280  0.5481 -0.5440
  755TIP3   OH223823   6.773   1.744   0.764  1.1459 -0.1602 -0.5866
  755TIP3    H123824   6.715   1.820   0.753  2.1426  0.3722 -2.5961
  755TIP3    H223825   6.860   1.782   0.778  1.2344 -0.9601  1.3763
  756TIP3   OH223826   3.465   4.583   1.181  0.1639  0.0355 -0.0448
  756TIP3    H123827   3.507   4.650   1.236 -0.0320  0.1545 -0.0373
  756TIP3    H223828   3.372   4.606   1.183 -0.2021 -1.3977  1.6041
  757TIP3   OH223829   0.465   2.402   8.665 -0.5578 -0.5576  0.3221
  757TIP3    H123830   0.457   2.346   8.742 -2.9942 -1.2237 -0.3499
  757TIP3    H223831   0.503   2.345   8.598 -1.3933 -0.9230  0.1470
  758TIP3   OH223832   4.093   5.750   2.404  0.4093 -0.1779 -0.1436
  758TIP3    H123833   4.033   5.684   2.369  0.5811 -1.4788  1.8187
  758TIP3    H223834   4.124   5.712   2.487  2.4908  1.2782 -0.1834
  759TIP3   OH223835   5.448   3.047   1.310 -0.2923 -0.8013 -0.1974
  759TIP3    H123836   5.489   3.134   1.307 -2.3760  0.2902  0.5232
  759TIP3    H223837   5.496   3.000   1.378  0.7432 -0.1356 -0.4495
  760TIP3   OH223838   6.430   6.796   8.381  0.3341 -0.5615  0.0334
  760TIP3    H123839   6.497   6.786   8.448 -0.1624  1.0403  0.8025
  760TIP3    H223840   6.357   6.742   8.412  0.2305 -0.0917  0.6200
  761TIP3   OH223841   2.200   3.465   1.104  0.0327  0.0548 -0.8156
  761TIP3    H123842   2.166   3.525   1.037 -0.5382  0.6920  0.0253
  761TIP3    H223843   2.211   3.382   1.058 -2.3268 -0.0953 -1.2450
  762TIP3   OH223844   4.957   4.323   8.437 -0.6001  0.0213  0.0564
  762TIP3    H123845   4.904   4.246   8.416 -1.2726  0.6393 -0.5644
  762TIP3    H223846   4.963   4.322   8.533  0.7061 -1.6376 -0.0026
  763TIP3   OH223847   4.683   5.953   7.873  0.5421 -0.3097  0.0851
  763TIP3    H123848   4.593   5.948   7.842  0.4607 -0.9342  0.4099
  763TIP3    H223849   4.714   5.863   7.874  1.1971 -0.0977 -0.0826
  764TIP3   OH223850   3.679   5.347   1.609  0.5700 -0.5108 -0.0678
  764TIP3    H123851   3.632   5.263   1.608 -0.8468  0.2427  0.4544
  764TIP3    H223852   3.660   5.385   1.523  1.2820 -0.7512 -0.3362
  765TIP3   OH223853   0.818   4.799   7.810  0.0459 -0.4498 -0.3525
  765TIP3    H123854   0.776   4.874   7.769  0.9689 -0.7027 -1.8433
  765TIP3    H223855   0.756   4.771   7.878 -1.2654  0.3700 -1.1641
  766TIP3   OH223856   0.523   5.995   8.418 -0.0387  0.0354  0.1306
  766TIP3    H123857   0.598   6.039   8.459 -0.6511 -1.0924  2.6501
  766TIP3    H223858   0.448   6.047   8.445 -0.3371  0.1423 -0.8862
  767TIP3   OH223859   3.205   3.294   2.071  0.1314 -1.0441  0.0256
  767TIP3    H123860   3.193   3.385   2.099 -0.1578 -1.0261 -0.1530
  767TIP3    H223861   3.141   3.282   2.001  2.3709 -0.3804 -2.3003
  768TIP3   OH223862   0.749   2.208   7.962 -0.2087 -1.0114 -0.7949
  768TIP3    H123863   0.754   2.125   8.011  0.7415  0.0812  1.0819
  768TIP3    H223864   0.838   2.221   7.928  0.7388  0.9617  2.0789
  769TIP3   OH223865   1.774   5.103   1.747 -0.2276  0.2256 -0.1560
  769TIP3    H123866   1.693   5.051   1.739 -0.6476  0.7562  0.5245
  769TIP3    H223867   1.844   5.042   1.722 -0.8733 -0.0591 -1.3896
  770TIP3   OH223868   3.711   0.771   8.743 -0.4146 -0.4897 -0.6961
  770TIP3    H123869   3.802   0.801   8.753 -0.4166 -0.4188 -0.8731
  770TIP3    H223870   3.658   0.850   8.759 -0.4885 -0.7285  0.2901
  771TIP3   OH223871   5.545   0.979   1.784  0.0117  0.3706  0.1933
  771TIP3    H123872   5.459   0.965   1.824  1.3189 -2.7749  2.3558
  771TIP3    H223873   5.532   0.957   1.691 -1.6911  1.0634  0.2284
  772TIP3   OH223874   1.038   2.477   2.728  0.3156  0.1060  0.2322
  772TIP3    H123875   1.086   2.394   2.731 -0.7083 -0.4726  1.2147
  772TIP3    H223876   1.098   2.541   2.766  0.2238 -0.6730  1.7576
  773TIP3   OH223877   0.025   4.879   1.042 -0.5712  0.2478  0.7470
  773TIP3    H123878   0.025   4.932   0.963  1.0605 -1.0553 -0.2099
  773TIP3    H223879   0.050   4.791   1.012  0.2695 -0.2497  2.7093
  774TIP3   OH223880   1.265   6.592   8.404  0.3360  0.2799  0.0742
  774TIP3    H123881   1.248   6.683   8.429 -2.1108 -0.0487 -0.1394
  774TIP3    H223882   1.228   6.540   8.475  0.3795 -0.5508 -0.4959
  775TIP3   OH223883   0.220   0.593   0.126 -0.2957 -0.0831  0.4582
  775TIP3    H123884   0.180   0.680   0.138  0.2738  0.3520 -0.6690
  775TIP3    H223885   0.185   0.541   0.199 -0.8949  0.9969  0.9772
  776TIP3   OH223886   6.630   3.148   0.210  0.9096 -0.4322 -0.0530
  776TIP3    H123887   6.657   3.094   0.135  0.0855  0.2835 -0.8931
  776TIP3    H223888   6.702   3.210   0.222  0.9247 -0.3707 -0.4363
  777TIP3   OH223889   0.407   6.647   1.633 -0.0768 -0.2474 -0.4368
  777TIP3    H123890   0.427   6.739   1.652 -0.8053  0.0488 -1.0738
  777TIP3    H223891   0.440   6.599   1.709 -1.1875  0.7068  0.6813
  778TIP3   OH223892   2.619   0.273   1.453  0.4978 -0.3854  0.4006
  778TIP3    H123893   2.628   0.273   1.549  1.5793  0.1168  0.3178
  778TIP3    H223894   2.699   0.229   1.422  0.1450 -0.5572 -0.2783
  779TIP3   OH223895   1.514   0.998   0.762 -0.2445  0.5278  0.2280
  779TIP3    H123896   1.436   0.952   0.729 -0.7455  0.1049  1.8814
  779TIP3    H223897   1.504   1.088   0.731 -0.8267  0.2234 -0.4969
  780TIP3   OH223898   6.061   2.590   7.651 -0.0124 -0.3880  0.2633
  780TIP3    H123899   6.042   2.628   7.566 -0.5081  1.0775  0.9915
  780TIP3    H223900   6.152   2.614   7.668 -0.1237 -0.0941  0.4429
  781TIP3   OH223901   0.617   0.463   0.634 -0.2538  0.7472  0.1340
  781TIP3    H123902   0.557   0.515   0.687  0.3639  1.6740 -0.0451
  781TIP3    H223903   0.668   0.412   0.697 -1.2401 -0.0711  0.2805
  782TIP3   OH223904   5.608   0.796   1.978  0.3317 -0.1310  0.5656
  782TIP3    H123905   5.675   0.737   1.943  0.6805 -0.6002  1.9549
  782TIP3    H223906   5.585   0.853   1.905  0.2996 -1.7108 -0.6978
  783TIP3   OH223907   0.061   5.238   1.731 -0.0853 -0.2945  0.3974
  783TIP3    H123908   0.102   5.184   1.663  2.7945 -0.0152  1.7599
  783TIP3    H223909  -0.015   5.188   1.760  0.2601 -1.7339 -1.0703
  784TIP3   OH223910   2.530   1.705   6.967 -0.0122  0.4790 -0.2661
  784TIP3    H123911   2.521   1.646   7.042  0.0941 -0.6906 -1.1366
  784TIP3    H223912   2.530   1.793   7.004 -1.4509 -0.0188  0.9573
  785TIP3   OH223913   6.705   6.037   1.475  0.2439 -0.5377  0.3700
  785TIP3    H123914   6.776   5.998   1.526  0.5592 -0.2194  0.1833
  785TIP3    H223915   6.625   6.011   1.520  0.5182 -0.2551  1.0307
  786TIP3   OH223916   3.358   0.250   7.403  0.1143 -0.1077 -0.6041
  786TIP3    H123917   3.443   0.215   7.377  0.5091  1.2532 -1.2324
  786TIP3    H223918   3.365   0.344   7.388 -1.4850  0.0384 -0.6007
  787TIP3   OH223919   1.517   0.417   8.345  0.0707  0.0979 -0.5645
  787TIP3    H123920   1.474   0.425   8.430  0.3725  1.2391 -0.5015
  787TIP3    H223921   1.607   0.389   8.366 -0.1130 -0.5042 -0.5732
  788TIP3   OH223922   3.322   1.507   8.396 -0.2746  0.0872  0.1303
  788TIP3    H123923   3.320   1.564   8.319  1.1129 -2.7862 -2.2666
  788TIP3    H223924   3.411   1.517   8.430 -0.3455  0.1108  0.3055
  789TIP3   OH223925   4.986   0.826   1.725  0.5861  0.3904 -0.3214
  789TIP3    H123926   5.064   0.771   1.717  1.5392  1.4321  1.1712
  789TIP3    H223927   4.970   0.830   1.820 -0.2622  1.5899 -0.4953
  790TIP3   OH223928   6.488   2.927   2.110 -0.2414 -0.7057 -0.4070
  790TIP3    H123929   6.504   2.883   2.193 -2.1491  0.2179  0.5079
  790TIP3    H223930   6.401   2.897   2.082 -1.1911  1.6314 -0.2348
  791TIP3   OH223931   6.521   1.096   1.494  0.2680 -0.6596 -0.0045
  791TIP3    H123932   6.581   1.137   1.556 -1.4682 -1.2586  2.2259
  791TIP3    H223933   6.513   1.006   1.526 -0.4095 -1.1014 -1.3529
  792TIP3   OH223934   2.929   0.761   1.410  0.4319 -0.1593  0.4652
  792TIP3    H123935   2.942   0.667   1.401 -0.7991 -0.2119 -1.3902
  792TIP3    H223936   3.016   0.799   1.399  0.4860 -0.9233 -2.8938
  793TIP3   OH223937   6.161   0.963   0.022  0.5651  0.3702  0.0766
  793TIP3    H123938   6.143   0.884  -0.028 -0.8785  0.6662  0.1125
  793TIP3    H223939   6.220   0.933   0.092 -1.2755 -1.0581  1.1127
  794TIP3   OH223940   2.109   4.848   2.020 -0.3377  0.1415  0.1712
  794TIP3    H123941   2.185   4.801   2.056 -0.5118  1.2011  2.0984
  794TIP3    H223942   2.049   4.779   1.992  0.1678 -0.7787  1.2564
  795TIP3   OH223943   6.444   3.630   8.316 -0.3660  0.1401  0.4638
  795TIP3    H123944   6.421   3.696   8.250 -2.4440  1.0319  1.9685
  795TIP3    H223945   6.398   3.551   8.287 -0.7283  0.3402  0.4868
  796TIP3   OH223946   2.468   6.593   7.080  0.0270  0.3511 -0.0501
  796TIP3    H123947   2.528   6.583   7.007  0.3199  1.5670 -0.0031
  796TIP3    H223948   2.479   6.684   7.108  0.5796 -0.3167  2.0845
  797TIP3   OH223949   0.311   5.802   8.317  0.2789 -0.0033  0.2389
  797TIP3    H123950   0.377   5.733   8.307 -0.8182 -0.9178 -0.9770
  797TIP3    H223951   0.343   5.875   8.265  1.2285  0.2766  1.1765
  798TIP3   OH223952   5.580   6.497   2.031 -0.5098 -0.5769  0.1506
  798TIP3    H123953   5.517   6.568   2.049  0.5669  0.3161  0.5012
  798TIP3    H223954   5.553   6.462   1.946 -1.8470 -0.6266  0.5696
  799TIP3   OH223955   3.808   1.142   8.184  0.4928 -0.2847 -0.5247
  799TIP3    H123956   3.815   1.060   8.135  0.3778 -0.2509 -0.5980
  799TIP3    H223957   3.890   1.188   8.165  1.2412 -1.0421  0.7330
  800TIP3   OH223958   3.986   6.785   8.327  0.1028 -0.1212  0.4128
  800TIP3    H123959   3.972   6.728   8.402 -0.2319 -1.7565 -0.8444
  800TIP3    H223960   4.080   6.782   8.311  0.1529  0.1028  0.6602
  801TIP3   OH223961   2.290   5.520   1.176  0.5755 -0.4554 -0.0206
  801TIP3    H123962   2.302   5.578   1.251  1.0359 -0.3025 -0.2061
  801TIP3    H223963   2.313   5.574   1.100  1.0242 -0.8785 -0.1951
  802TIP3   OH223964   6.056   3.125   8.149 -0.2278 -0.0954  0.1033
  802TIP3    H123965   6.125   3.063   8.125  0.9649  2.2685 -3.2940
  802TIP3    H223966   5.979   3.096   8.100 -0.5800 -0.4821  0.8496
  803TIP3   OH223967   5.785   3.773   1.261  0.0494  0.5315  0.4840
  803TIP3    H123968   5.755   3.851   1.307 -2.2112 -0.6964  1.2492
  803TIP3    H223969   5.732   3.770   1.181  1.5835  0.8529 -0.5832
  804TIP3   OH223970   5.932   2.255   1.032  0.1263  0.8899  0.4364
  804TIP3    H123971   5.962   2.178   0.984  1.9639  1.4990  0.5340
  804TIP3    H223972   5.930   2.325   0.967 -0.4197  1.0170  0.5870
  805TIP3   OH223973   1.579   3.297   1.129 -0.1852 -0.5515 -0.3072
  805TIP3    H123974   1.642   3.226   1.135  0.2013 -0.2600 -0.9398
  805TIP3    H223975   1.506   3.269   1.185  0.3339 -1.0559  0.1175
  806TIP3   OH223976   3.661   4.042   8.222  0.1968  0.1273 -0.6923
  806TIP3    H123977   3.741   3.999   8.190  0.8951 -0.0224  1.1136
  806TIP3    H223978   3.656   4.123   8.172  3.0839  1.5254  0.9599
  807TIP3   OH223979   5.692   4.974   1.750 -0.0583 -0.3294 -0.8090
  807TIP3    H123980   5.742   5.053   1.733  0.5843 -0.4501  0.4195
  807TIP3    H223981   5.685   4.931   1.665  1.4007  0.0012 -1.1206
  808TIP3   OH223982   1.725   0.684   8.189 -0.0692 -0.8985 -0.4432
  808TIP3    H123983   1.643   0.704   8.143 -0.1537  0.0139  0.0788
  808TIP3    H223984   1.791   0.736   8.144 -0.3362  0.8630  1.1013
  809TIP3   OH223985   4.426   4.400   8.218  0.4136  0.3496 -0.2245
  809TIP3    H123986   4.342   4.432   8.250  0.5708  0.4124  0.1253
  809TIP3    H223987   4.419   4.406   8.123 -0.4147 -0.7244 -0.2617
  810TIP3   OH223988   3.403   5.035   0.401  0.3537  0.1385 -0.4743
  810TIP3    H123989   3.461   5.110   0.419  1.7084 -0.6598 -1.3187
  810TIP3    H223990   3.463   4.963   0.383 -0.9381 -1.0102 -0.2751
  811TIP3   OH223991   1.939   1.776   8.597  0.1515  0.1595  0.5200
  811TIP3    H123992   1.984   1.807   8.676  1.0566 -0.5787  0.3156
  811TIP3    H223993   1.855   1.743   8.629  0.1569  0.6611  1.0556
  812TIP3   OH223994   2.324   0.160   1.437  0.9353  0.3344 -0.1120
  812TIP3    H123995   2.410   0.200   1.427  1.1071 -0.0405 -0.1618
  812TIP3    H223996   2.302   0.175   1.529  0.8902  0.7511 -0.1896
  813TIP3   OH223997   4.525   3.745   0.768  0.2143  0.0823 -0.3666
  813TIP3    H123998   4.467   3.712   0.837  1.7199  1.6480  1.8026
  813TIP3    H223999   4.467   3.769   0.696 -1.6681  0.2445  1.1329
  814TIP3   OH224000   0.907   4.298   1.278  0.1450 -0.0834 -1.0061
  814TIP3    H124001   0.840   4.245   1.236  0.4784 -0.3684 -1.1779
  814TIP3    H224002   0.877   4.388   1.266 -1.0453 -0.2629  0.3291
  815TIP3   OH224003   5.508   5.495   0.927  0.3066  0.6736 -0.1612
  815TIP3    H124004   5.442   5.431   0.903  0.3557  0.7052 -0.3810
  815TIP3    H224005   5.510   5.493   1.023  1.3595 -0.7244 -0.1874
  816TIP3   OH224006   5.513   6.641   8.425 -0.2674 -0.4790 -0.8502
  816TIP3    H124007   5.604   6.616   8.410 -0.7248 -1.9583 -1.3105
  816TIP3    H224008   5.495   6.615   8.516  0.2709  1.5232 -0.1056
  817TIP3   OH224009   2.552   5.542   0.615  0.4371 -0.6015  0.0229
  817TIP3    H124010   2.504   5.613   0.572  0.1284 -0.0543  1.2233
  817TIP3    H224011   2.643   5.571   0.616  0.3564 -0.3524  0.2395
  818TIP3   OH224012   4.449   2.437   0.359 -1.1873 -0.1382  0.1976
  818TIP3    H124013   4.440   2.511   0.298 -0.5121  1.0133  1.4494
  818TIP3    H224014   4.542   2.415   0.356 -1.0313  0.3351  1.2581
  819TIP3   OH224015   3.815   6.677   1.787  0.3779  0.1115  0.1333
  819TIP3    H124016   3.839   6.601   1.840  0.5518  0.7726  1.0165
  819TIP3    H224017   3.724   6.696   1.812 -1.0981 -2.1084 -2.8710
  820TIP3   OH224018   5.773   6.148   2.730 -0.0119 -0.6775 -0.1461
  820TIP3    H124019   5.808   6.126   2.644  0.3934 -2.0479  0.3481
  820TIP3    H224020   5.840   6.204   2.770 -1.4726  2.5105 -1.7822
  821TIP3   OH224021   1.811   6.446   0.204  0.1195 -0.1027  0.3208
  821TIP3    H124022   1.873   6.517   0.224  0.0867  0.1741 -0.5007
  821TIP3    H224023   1.761   6.434   0.284 -1.2496  2.2015 -0.0831
  822TIP3   OH224024   6.079   0.488   1.803  0.2721  0.6677  0.0413
  822TIP3    H124025   5.996   0.442   1.816  1.0160 -0.5133  0.7807
  822TIP3    H224026   6.096   0.530   1.887  1.0517 -0.1886  0.3325
  823TIP3   OH224027   3.857   4.286   0.518 -0.9473  0.0446 -0.0625
  823TIP3    H124028   3.837   4.208   0.571  0.1968  1.8344  3.3108
  823TIP3    H224029   3.781   4.297   0.461 -2.4119 -1.9417  1.3709
  824TIP3   OH224030   5.277   5.988   8.562  0.5112 -0.1430  0.0988
  824TIP3    H124031   5.229   6.000   8.480  1.0271 -3.2718 -0.8008
  824TIP3    H224032   5.212   5.956   8.624  0.8559 -1.8776 -0.3785
  825TIP3   OH224033   2.312   3.682   1.815  0.1095 -0.1405  0.4718
  825TIP3    H124034   2.311   3.676   1.719  0.6689 -2.4348  0.5548
  825TIP3    H224035   2.400   3.712   1.836  1.0886 -2.7007  0.3158
  826TIP3   OH224036   6.798   0.112   1.643  0.0026  0.0700 -0.0022
  826TIP3    H124037   6.740   0.172   1.689  1.1133  2.2156 -1.2403
  826TIP3    H224038   6.771   0.119   1.551  1.9786  0.9373 -0.5691
  827TIP3   OH224039   5.018   4.996   8.039  0.5390  0.0582 -0.2230
  827TIP3    H124040   5.078   4.980   7.966 -0.2976  0.8089 -1.0986
  827TIP3    H224041   4.943   5.040   7.999  0.0128  0.3803  1.0785
  828TIP3   OH224042   4.938   3.648   1.896 -0.4753  0.0833 -0.0927
  828TIP3    H124043   4.995   3.579   1.861 -0.4937 -0.2609  0.5383
  828TIP3    H224044   4.931   3.628   1.990  1.1413  2.0710  0.5182
  829TIP3   OH224045   5.742   0.231   2.103  0.7080  0.3473  0.2187
  829TIP3    H124046   5.648   0.249   2.102  0.8520  1.1490  0.6005
  829TIP3    H224047   5.754   0.168   2.174  0.2915 -0.8243 -0.7067
  830TIP3   OH224048   2.275   5.577   1.593  0.1709  0.2083 -0.3525
  830TIP3    H124049   2.293   5.670   1.581 -0.5739  0.5433  0.9862
  830TIP3    H224050   2.192   5.563   1.546  0.2533  0.2315 -0.5053
  831TIP3   OH224051   6.257   6.311   0.595  0.4480  0.9347 -0.1326
  831TIP3    H124052   6.332   6.251   0.594 -0.0842  0.2374 -1.5839
  831TIP3    H224053   6.205   6.284   0.671 -0.2197 -1.0573 -1.2286
  832TIP3   OH224054   1.369   2.859   8.431  0.1694 -0.1902  0.2848
  832TIP3    H124055   1.349   2.918   8.359 -1.4709 -0.5655  0.3889
  832TIP3    H224056   1.385   2.917   8.506  0.4475  0.1632 -0.0498
  833TIP3   OH224057   0.245   0.658   1.803  0.1076 -0.6618 -0.2108
  833TIP3    H124058   0.205   0.622   1.724  0.2982  0.0924 -0.6635
  833TIP3    H224059   0.338   0.637   1.794  0.3479  0.6077 -0.8685
  834TIP3   OH224060   4.079   0.500   2.260  0.3484  0.0260 -0.5197
  834TIP3    H124061   4.119   0.509   2.347  0.7939 -1.9059 -0.4890
  834TIP3    H224062   3.996   0.548   2.268  0.7324  0.5408  0.7248
  835TIP3   OH224063   4.128   0.057   7.489  0.0073 -0.2314  0.0417
  835TIP3    H124064   4.185  -0.009   7.529 -0.8792 -0.4417  1.0023
  835TIP3    H224065   4.171   0.140   7.509 -0.0020 -0.3874  0.7566
  836TIP3   OH224066   5.725   1.380   2.349  0.4745 -0.0514  0.0391
  836TIP3    H124067   5.724   1.378   2.253  0.0121  1.2394 -0.0055
  836TIP3    H224068   5.687   1.296   2.375  0.2830 -0.2719 -0.9133
  837TIP3   OH224069   2.672   2.728   8.496  0.4374 -0.3350 -0.0416
  837TIP3    H124070   2.654   2.799   8.434  1.3900  0.1489  0.2163
  837TIP3    H224071   2.739   2.764   8.554  0.3847 -1.1907  0.5612
  838TIP3   OH224072   2.893   5.775   2.472  0.2144 -0.0027  0.0028
  838TIP3    H124073   2.876   5.839   2.404 -1.1922 -0.4153 -0.0729
  838TIP3    H224074   2.859   5.693   2.436  1.5224 -0.7104  0.2965
  839TIP3   OH224075   3.341   6.486   7.785  0.0778 -0.1377 -0.3071
  839TIP3    H124076   3.342   6.395   7.756 -2.5734 -0.6638  0.9384
  839TIP3    H224077   3.303   6.534   7.711  0.8636 -0.1060 -0.7081
  840TIP3   OH224078   6.736   5.293   2.480  0.4936 -0.1772  0.5052
  840TIP3    H124079   6.713   5.218   2.535 -0.0827 -0.1380  0.3211
  840TIP3    H224080   6.747   5.256   2.393  1.2300 -0.2098  0.6030
  841TIP3   OH224081   1.152   0.687   8.029 -0.2390 -0.1378  0.5459
  841TIP3    H124082   1.162   0.653   7.941 -1.2231 -0.1199  0.4140
  841TIP3    H224083   1.228   0.654   8.077  1.9848  2.2997 -1.0161
  842TIP3   OH224084   1.051   0.763   2.040 -0.0745  0.6030  0.2561
  842TIP3    H124085   1.030   0.804   2.124 -0.7413 -0.3793  0.5858
  842TIP3    H224086   0.967   0.731   2.007  0.4230 -0.4778 -0.0011
  843TIP3   OH224087   1.928   1.573   2.198 -0.1831 -0.1659 -0.1062
  843TIP3    H124088   1.937   1.479   2.182 -1.0379 -0.2907  0.1157
  843TIP3    H224089   1.969   1.586   2.284  2.8641  0.2286 -1.4914
  844TIP3   OH224090   4.348   1.606   1.459 -0.2193  0.1206 -0.0708
  844TIP3    H124091   4.263   1.611   1.504  0.4685  0.6466  1.2168
  844TIP3    H224092   4.342   1.526   1.407 -1.0210 -0.5891  1.0585
  845TIP3   OH224093   2.552   0.883   2.364  0.5926  0.9194  0.1871
  845TIP3    H124094   2.526   0.896   2.273 -1.1725  0.3422  0.5715
  845TIP3    H224095   2.617   0.813   2.359 -0.5440 -0.1367 -0.5369
  846TIP3   OH224096   4.598   3.812   1.628 -0.1451  0.3292 -0.5018
  846TIP3    H124097   4.658   3.812   1.553  0.2724 -3.0139 -0.3137
  846TIP3    H224098   4.513   3.791   1.590 -0.3777  0.8069 -0.2552
  847TIP3   OH224099   2.921   2.929   1.462 -0.3999  0.0469  0.3661
  847TIP3    H124100   2.903   2.837   1.485  1.8531 -0.9892 -1.6498
  847TIP3    H224101   2.957   2.967   1.543  1.9223 -1.8746  0.3476
  848TIP3   OH224102   3.155   2.874   1.282 -0.2233  0.1145  0.0847
  848TIP3    H124103   3.190   2.860   1.370  0.4442 -1.0167 -0.3406
  848TIP3    H224104   3.087   2.940   1.294 -1.2276 -1.1258  1.7147
  849TIP3   OH224105   5.699   2.332   1.198 -0.3385 -0.1483 -0.1431
  849TIP3    H124106   5.719   2.375   1.281  0.1115  2.7804 -1.6253
  849TIP3    H224107   5.778   2.282   1.177  0.3845  0.8200  0.2011
  850TIP3   OH224108   3.451   3.555   2.102  0.3182  0.0667  0.6508
  850TIP3    H124109   3.465   3.529   2.011  1.4018  0.4775  0.6776
  850TIP3    H224110   3.359   3.536   2.119 -0.0233  0.4325 -0.6697
  851TIP3   OH224111   3.032   3.000   2.372  0.6472  0.0445 -0.1541
  851TIP3    H124112   2.993   3.070   2.423  2.0721  1.3471 -0.7675
  851TIP3    H224113   3.038   2.926   2.432  2.2986  1.5198  1.6290
  852TIP3   OH224114   4.457   0.951   0.857  0.5716  0.4323  0.5516
  852TIP3    H124115   4.541   0.906   0.868  0.5695  0.4098  0.4779
  852TIP3    H224116   4.480   1.044   0.850  0.7026  0.3299 -0.6965
  853TIP3   OH224117   0.713   3.586   8.095  0.4257  0.1112 -0.2049
  853TIP3    H124118   0.649   3.627   8.153  0.5180 -1.3906  1.0671
  853TIP3    H224119   0.737   3.654   8.033 -0.4274  1.5163  0.9250
  854TIP3   OH224120   2.040   2.428   8.633  0.2005 -0.5113 -0.0360
  854TIP3    H124121   2.029   2.509   8.583  0.9125 -1.1641 -1.3258
  854TIP3    H224122   2.046   2.456   8.724 -2.8027  0.6099 -0.0604
  855TIP3   OH224123   1.455   6.797   0.215  0.1062 -0.0502 -0.4489
  855TIP3    H124124   1.512   6.744   0.159  0.5317  0.0514 -0.1129
  855TIP3    H224125   1.501   6.881   0.222 -0.0518  0.0082 -0.1204
  856TIP3   OH224126   5.068   5.149   0.617  0.1078 -0.1171  0.8122
  856TIP3    H124127   5.094   5.069   0.663  0.8137 -0.4148 -0.0815
  856TIP3    H224128   5.145   5.173   0.565 -1.6396 -1.8151 -3.0379
  857TIP3   OH224129   3.323   1.174   2.614  0.6119  0.2268 -0.2903
  857TIP3    H124130   3.375   1.122   2.676  0.7112  0.2562 -0.3485
  857TIP3    H224131   3.379   1.182   2.537 -0.0164 -0.9073 -0.8943
  858TIP3   OH224132   0.457   5.825   1.791  0.1207  0.5813  0.3760
  858TIP3    H124133   0.376   5.871   1.811 -0.0958  0.5527 -0.4188
  858TIP3    H224134   0.485   5.787   1.875 -2.7708 -2.7904  0.0561
  859TIP3   OH224135   0.301   2.344   2.602  0.1527  0.0729  0.3016
  859TIP3    H124136   0.292   2.434   2.634  2.0577 -0.3625  2.3072
  859TIP3    H224137   0.243   2.293   2.659  0.3989 -0.1900  0.3173
  860TIP3   OH224138   3.806   2.170   7.269  0.1982 -1.1552 -0.2320
  860TIP3    H124139   3.798   2.109   7.196  0.8561  0.3143 -1.5770
  860TIP3    H224140   3.730   2.228   7.261  1.2323  0.1458 -0.8638
  861TIP3   OH224141   0.461   1.642   0.667 -0.8771  0.1881 -0.1943
  861TIP3    H124142   0.549   1.622   0.638 -0.4207  1.3188  0.3480
  861TIP3    H224143   0.443   1.578   0.737 -0.5391 -0.1180 -0.3881
  862TIP3   OH224144   1.101   2.611   0.291 -0.4831  0.4126  0.2141
  862TIP3    H124145   1.146   2.540   0.336  1.0142  1.4720  0.4452
  862TIP3    H224146   1.107   2.589   0.198  0.8467  0.7047  0.2184
  863TIP3   OH224147   5.714   1.408   1.007 -0.3449  0.3472  0.8133
  863TIP3    H124148   5.638   1.384   1.060 -1.9260 -1.3109 -1.9276
  863TIP3    H224149   5.786   1.414   1.069 -2.3537  0.1998  3.3126
  864TIP3   OH224150   5.871   1.373   2.699 -1.3155 -0.0413 -0.6759
  864TIP3    H124151   5.843   1.401   2.612  0.7250 -0.1368 -1.4119
  864TIP3    H224152   5.933   1.302   2.683 -1.7798 -0.8860  0.9292
  865TIP3   OH224153   4.713   0.362   1.710  0.3090  0.2439  0.9372
  865TIP3    H124154   4.729   0.409   1.628  0.5739 -0.4123  0.6077
  865TIP3    H224155   4.770   0.404   1.774 -0.6290  1.4229  1.0375
  866TIP3   OH224156   4.759   5.715   7.957  0.4128 -0.5419 -0.1818
  866TIP3    H124157   4.789   5.681   8.042 -0.5063  1.3951  0.9919
  866TIP3    H224158   4.788   5.649   7.894  0.5686 -2.3984  1.6828
  867TIP3   OH224159   4.373   4.187   2.611 -0.0069 -0.4375  0.2173
  867TIP3    H124160   4.330   4.142   2.684 -1.0171 -0.3560 -0.3138
  867TIP3    H224161   4.467   4.169   2.624 -0.0388  0.5811  2.2059
  868TIP3   OH224162   0.762   0.911   2.546 -0.1735 -0.8844 -0.0520
  868TIP3    H124163   0.712   0.952   2.616 -0.9461  0.2893 -1.2551
  868TIP3    H224164   0.851   0.946   2.556 -0.4662 -0.1182 -0.1351
  869TIP3   OH224165   3.732   3.726   1.634 -0.3597 -0.2705  0.1707
  869TIP3    H124166   3.655   3.673   1.614  0.4930 -1.0206 -1.3006
  869TIP3    H224167   3.702   3.788   1.700 -2.0146 -1.0390  0.1918
  870TIP3   OH224168   2.705   3.095   0.381  0.5208 -0.1288  0.1848
  870TIP3    H124169   2.775   3.029   0.383  1.6263  0.9991 -0.4451
  870TIP3    H224170   2.722   3.150   0.457  0.8192  0.6430 -0.4345
  871TIP3   OH224171   2.921   1.005   1.249 -0.0279  0.7118 -0.0805
  871TIP3    H124172   2.834   1.047   1.246 -0.1693  0.4727  0.4314
  871TIP3    H224173   2.908   0.930   1.307  0.9736  1.7607  1.5848
  872TIP3   OH224174   0.480   5.253   0.991  0.1362 -0.6238  0.5781
  872TIP3    H124175   0.542   5.189   0.954  1.8253  0.3090  1.6500
  872TIP3    H224176   0.518   5.276   1.076 -1.9079 -0.2611  1.4341
  873TIP3   OH224177   1.115   3.747   7.311  0.7171 -0.6518 -0.4199
  873TIP3    H124178   1.030   3.731   7.269  0.5532 -0.0067 -0.3376
  873TIP3    H224179   1.174   3.683   7.270  0.5037 -0.2029 -1.4528
  874TIP3   OH224180   5.084   1.164   1.932 -0.3839  0.9281  0.2853
  874TIP3    H124181   5.060   1.150   1.841  1.1083  0.5089 -0.0740
  874TIP3    H224182   5.001   1.181   1.977 -1.7272 -2.8822 -0.3882
  875TIP3   OH224183   5.371   4.434   7.933  0.3748 -0.2395 -0.2480
  875TIP3    H124184   5.327   4.409   8.014  0.3758  0.0813 -0.1502
  875TIP3    H224185   5.450   4.480   7.961  1.2467 -1.5862 -0.4111
  876TIP3   OH224186   1.945   6.647   1.074 -0.3467 -0.2458 -0.2694
  876TIP3    H124187   1.924   6.692   0.992  0.8238  0.2240 -0.3390
  876TIP3    H224188   1.933   6.713   1.142  0.1813 -0.1734 -0.2398
  877TIP3   OH224189   2.750   5.019   0.925 -0.1101 -0.4944 -0.4515
  877TIP3    H124190   2.730   5.106   0.960 -0.4505 -0.3343 -1.0369
  877TIP3    H224191   2.840   5.002   0.952 -0.2020 -0.1671  0.0763
  878TIP3   OH224192   0.783   0.617   8.699 -0.1622 -0.8331 -0.2646
  878TIP3    H124193   0.831   0.609   8.782  0.7842  2.8729 -0.2743
  878TIP3    H224194   0.836   0.569   8.636  2.4641  1.1939  0.2071
  879TIP3   OH224195   2.192   4.474   7.927 -0.7221  0.1744 -0.3007
  879TIP3    H124196   2.110   4.517   7.904 -2.4174 -1.4432  2.2561
  879TIP3    H224197   2.168   4.383   7.945  1.7285 -0.4884  0.0195
  880TIP3   OH224198   4.151   6.489   1.658 -0.1319 -0.0147  0.2668
  880TIP3    H124199   4.105   6.421   1.708 -0.5165 -0.3402 -0.5206
  880TIP3    H224200   4.176   6.554   1.724 -1.5036  0.0547  0.7454
  881TIP3   OH224201   3.608   2.915   0.410  0.1113  0.5642  0.1129
  881TIP3    H124202   3.656   2.870   0.480 -0.2858  0.5932  0.4023
  881TIP3    H224203   3.621   3.008   0.427 -1.1053  0.6006  0.9392
  882TIP3   OH224204   0.883   4.196   1.974 -0.0459 -0.5445  0.0926
  882TIP3    H124205   0.930   4.130   1.923 -1.1730  0.8351 -2.9668
  882TIP3    H224206   0.799   4.156   1.995 -0.5246 -0.3124 -1.3070
  883TIP3   OH224207   1.707   3.616   7.452 -0.3975 -0.0240  0.1388
  883TIP3    H124208   1.689   3.523   7.463 -1.1987  0.1139  0.0637
  883TIP3    H224209   1.737   3.624   7.361 -1.5124 -0.0480 -0.2482
  884TIP3   OH224210   5.351   3.717   1.572 -0.2082 -0.1504 -0.0636
  884TIP3    H124211   5.390   3.674   1.496  0.7402  0.4617  0.0638
  884TIP3    H224212   5.280   3.657   1.599  0.3167 -1.0404 -0.6007
  885TIP3   OH224213   0.353   0.038   0.597  0.3145  0.2975 -0.1100
  885TIP3    H124214   0.277   0.095   0.585  0.1479  0.0443 -0.2519
  885TIP3    H224215   0.333  -0.014   0.675  0.8689  1.0791  0.5835
  886TIP3   OH224216   2.908   0.762   6.656 -0.2038  0.1092  0.3285
  886TIP3    H124217   2.869   0.702   6.719 -0.0339 -0.4227 -0.0608
  886TIP3    H224218   2.973   0.811   6.706  0.3537 -0.7291  0.4367
  887TIP3   OH224219   1.062   6.233   1.468 -1.1191 -0.2747  0.0804
  887TIP3    H124220   1.016   6.317   1.461  2.6543  2.0955  1.0495
  887TIP3    H224221   1.130   6.237   1.402  0.3054 -1.7281  1.3888
  888TIP3   OH224222   4.020   5.706   1.253 -0.4373 -0.7038  0.0644
  888TIP3    H124223   4.026   5.618   1.290  0.1105 -0.8988 -0.4701
  888TIP3    H224224   4.111   5.738   1.252  0.0143 -1.6946 -3.4514
  889TIP3   OH224225   5.452   0.195   2.126 -0.1861 -0.2998 -0.3024
  889TIP3    H124226   5.431   0.102   2.114 -1.4536 -0.2491  1.2160
  889TIP3    H224227   5.367   0.239   2.116  0.1468  0.5342  0.4596
  890TIP3   OH224228   1.313   1.507   2.133  0.3288  0.4654  0.0149
  890TIP3    H124229   1.349   1.484   2.218 -0.4570 -0.1053  0.1993
  890TIP3    H224230   1.240   1.566   2.152 -0.4145 -0.3622 -0.1906
  891TIP3   OH224231   4.803   6.707   7.998 -0.3549 -0.1087 -0.3020
  891TIP3    H124232   4.852   6.625   7.991 -2.7318 -1.7035  0.4055
  891TIP3    H224233   4.809   6.731   8.091  0.7963  0.8863 -0.6055
  892TIP3   OH224234   2.978   5.328   7.386  0.2994 -0.2442 -0.0863
  892TIP3    H124235   3.010   5.260   7.326  0.9809  1.3160 -1.5588
  892TIP3    H224236   3.056   5.377   7.411 -0.1125 -0.2854  1.3980
  893TIP3   OH224237   3.887   1.543   0.531 -0.0981  0.0230  0.0133
  893TIP3    H124238   3.923   1.464   0.489  0.1598  0.6696 -1.0337
  893TIP3    H224239   3.963   1.586   0.569  0.1113  0.8183 -1.2356
  894TIP3   OH224240   6.086   3.304   2.517 -0.0637 -0.4063  0.0867
  894TIP3    H124241   6.102   3.288   2.424 -0.4154  0.7820 -0.1965
  894TIP3    H224242   5.993   3.284   2.529  0.5683 -3.5005  0.8855
  895TIP3   OH224243   5.681   4.687   1.121 -0.0199 -0.3660  0.1356
  895TIP3    H124244   5.731   4.698   1.202  0.1510 -0.9191  0.1125
  895TIP3    H224245   5.597   4.651   1.150 -1.1634  2.2665  0.3680
  896TIP3   OH224246   2.335   4.471   0.571  0.4257 -0.2720  0.2207
  896TIP3    H124247   2.411   4.514   0.610  0.1059  0.4576  0.0692
  896TIP3    H224248   2.360   4.380   0.561  1.3465 -0.0053  0.0219
  897TIP3   OH224249   4.005   2.881   0.694 -0.5997  0.1696  0.5499
  897TIP3    H124250   4.077   2.827   0.726  0.4133  1.5921  0.7733
  897TIP3    H224251   4.033   2.909   0.606 -0.3417  1.6281  1.0727
  898TIP3   OH224252   0.500   1.138   0.800  0.0964 -0.3040  0.3572
  898TIP3    H124253   0.537   1.057   0.767  0.4247  0.1175 -0.3393
  898TIP3    H224254   0.525   1.141   0.892 -0.5010 -1.3178  0.5657
  899TIP3   OH224255   3.024   5.106   2.793 -0.7368 -0.2770  0.0503
  899TIP3    H124256   2.998   5.139   2.879 -1.4494 -1.5586  0.3503
  899TIP3    H224257   3.070   5.025   2.812 -1.1542 -0.7209 -0.7921
  900TIP3   OH224258   3.891   0.936   0.805  0.1959 -0.5054 -0.5219
  900TIP3    H124259   3.930   0.959   0.720  0.1019  0.1437 -0.3952
  900TIP3    H224260   3.888   1.019   0.853 -0.0690 -0.8070 -0.0110
  901TIP3   OH224261   2.278   3.616   1.535 -0.3518  0.1594 -0.4340
  901TIP3    H124262   2.205   3.587   1.589 -0.3549  1.8638  0.5691
  901TIP3    H224263   2.351   3.559   1.559 -0.3472  0.8744  1.4374
  902TIP3   OH224264   4.548   3.856   2.741  0.4741  0.0884  0.3016
  902TIP3    H124265   4.566   3.769   2.775  1.3345 -0.0206 -0.4105
  902TIP3    H224266   4.520   3.906   2.818  2.0708 -0.2362  1.1431
  903TIP3   OH224267   1.307   0.615   7.485  0.3511 -0.2451  0.3959
  903TIP3    H124268   1.338   0.525   7.499  0.5050 -0.0764  1.1562
  903TIP3    H224269   1.255   0.610   7.405  3.4865 -0.2644 -1.8135
  904TIP3   OH224270   0.278   1.318   0.976 -0.1043 -0.8965  0.4016
  904TIP3    H124271   0.306   1.378   0.908  3.0256 -1.7070  0.7791
  904TIP3    H224272   0.237   1.374   1.043  1.2444  0.6033  0.0317
  905TIP3   OH224273   0.009   2.018   2.475  0.5682  0.7930  0.4555
  905TIP3    H124274   0.051   2.103   2.461  2.2274 -0.0405  0.1601
  905TIP3    H224275  -0.084   2.039   2.489  1.3328  2.9193  3.3448
  906TIP3   OH224276   1.029   1.813   8.482 -0.3617  0.3352 -0.0131
  906TIP3    H124277   1.113   1.860   8.480 -0.0571 -0.2296 -0.6834
  906TIP3    H224278   1.053   1.721   8.474 -1.0613  0.1791 -0.3472
  907TIP3   OH224279   1.411   6.660   0.887  0.1681 -0.0168 -0.3644
  907TIP3    H124280   1.403   6.572   0.852  0.1488  0.0952 -0.6410
  907TIP3    H224281   1.502   6.666   0.917  0.2303 -0.0564 -0.5452
  908TIP3   OH224282   1.708   3.485   8.786 -0.2600 -0.2658 -0.1174
  908TIP3    H124283   1.664   3.485   8.871  0.5426 -1.1931  0.3201
  908TIP3    H224284   1.655   3.427   8.731  0.2681 -1.1955  0.3382
  909TIP3   OH224285   3.126   2.067   2.104  0.1850 -0.0190 -0.6590
  909TIP3    H124286   3.179   2.144   2.124  0.8801 -0.4642 -0.7677
  909TIP3    H224287   3.189   1.996   2.096 -0.3204 -0.3653 -1.8066
  910TIP3   OH224288   5.817   2.474   0.352 -0.2511 -0.3386  0.1606
  910TIP3    H124289   5.767   2.399   0.318  0.0000 -1.5389  2.2444
  910TIP3    H224290   5.771   2.498   0.433 -0.9154  2.4755 -0.9280
  911TIP3   OH224291   4.418   5.967   1.967 -0.1360 -0.2947 -0.3165
  911TIP3    H124292   4.343   5.912   1.989 -0.4066  0.3933  0.5621
  911TIP3    H224293   4.459   5.986   2.052  0.2532  0.4245 -0.6517
  912TIP3   OH224294   0.252   0.801   8.335  0.2834 -0.0958  0.2673
  912TIP3    H124295   0.334   0.851   8.340  0.0474  0.4839 -1.1855
  912TIP3    H224296   0.222   0.813   8.245 -1.4515 -0.2345  0.7954
  913TIP3   OH224297   6.345   4.992   1.226  0.2685 -0.0721  0.0571
  913TIP3    H124298   6.394   4.926   1.177 -0.9251 -1.7972  1.0967
  913TIP3    H224299   6.413   5.041   1.273  1.1507 -0.9782 -0.2151
  914TIP3   OH224300   6.463   4.074   8.034  0.7379  0.1058 -0.4627
  914TIP3    H124301   6.369   4.089   8.039  0.3387 -1.6792 -1.7800
  914TIP3    H224302   6.502   4.152   8.074 -1.2442  1.6108 -1.3183
  915TIP3   OH224303   6.096   5.324   7.747 -0.2920 -0.3071 -0.2069
  915TIP3    H124304   6.021   5.302   7.802 -0.0795  0.5024  0.4314
  915TIP3    H224305   6.082   5.275   7.666 -1.1505 -0.7032  0.1701
  916TIP3   OH224306   5.076   3.367   2.319  0.1216  0.9537  0.0167
  916TIP3    H124307   5.073   3.335   2.409 -0.9603 -0.7726 -0.5849
  916TIP3    H224308   4.999   3.328   2.277  1.2045  0.8088 -1.9544
  917TIP3   OH224309   4.097   2.200   2.813  0.2533 -0.1840 -0.3643
  917TIP3    H124310   4.166   2.265   2.796  0.5198  0.5437  2.7737
  917TIP3    H224311   4.114   2.130   2.751  1.4082  1.7101 -2.3180
  918TIP3   OH224312   0.392   4.064   7.918 -0.3748 -0.2882  0.0304
  918TIP3    H124313   0.450   3.990   7.900 -0.0434 -0.0490  0.1244
  918TIP3    H224314   0.432   4.138   7.873 -0.7761 -0.1895 -0.1692
  919TIP3   OH224315   0.569   0.745   0.604  0.9017  0.8496 -0.4267
  919TIP3    H124316   0.643   0.747   0.664  0.7908 -1.4703 -0.1222
  919TIP3    H224317   0.499   0.703   0.654  0.2813  0.4306 -1.6074
  920TIP3   OH224318   4.441   3.508   6.886 -0.7040  0.0526 -0.4444
  920TIP3    H124319   4.530   3.474   6.890 -0.5445  0.5582  1.0793
  920TIP3    H224320   4.451   3.603   6.887 -1.2459  0.1169 -0.7588
  921TIP3   OH224321   1.566   0.407   2.497 -0.5843 -0.2106  0.3033
  921TIP3    H124322   1.502   0.435   2.562 -1.7980  0.3976 -1.1156
  921TIP3    H224323   1.527   0.429   2.413  1.4271  0.0412 -0.6253
  922TIP3   OH224324   6.518   6.615   7.689  0.1989 -0.1333  0.0803
  922TIP3    H124325   6.552   6.526   7.679  3.2486  0.7899  1.0847
  922TIP3    H224326   6.579   6.670   7.639 -0.2880  1.6248  1.3147
  923TIP3   OH224327   2.724   6.123   0.744 -0.2523  0.0067  0.1796
  923TIP3    H124328   2.815   6.135   0.773  0.4097 -0.3075 -1.6120
  923TIP3    H224329   2.688   6.059   0.805  0.4689  0.7700  1.4259
  924TIP3   OH224330   5.787   4.744   0.875  0.0261  0.2334  0.2795
  924TIP3    H124331   5.718   4.717   0.814 -0.3288  0.8473  0.4058
  924TIP3    H224332   5.746   4.743   0.961 -0.2478  1.9477  0.2063
  925TIP3   OH224333   1.642   0.706   8.786  0.1648  0.2431 -0.4637
  925TIP3    H124334   1.582   0.645   8.742 -2.5396  2.4699 -0.1089
  925TIP3    H224335   1.680   0.758   8.716  1.0744 -0.5932 -0.6155
  926TIP3   OH224336   5.628   5.569   1.483 -0.2569 -0.4962  0.0798
  926TIP3    H124337   5.720   5.578   1.460 -0.5116 -1.7418 -1.6378
  926TIP3    H224338   5.590   5.655   1.465  0.5338 -0.0135  0.6791
  927TIP3   OH224339   0.055   2.548   7.211  0.0430 -0.1929 -0.1276
  927TIP3    H124340   0.040   2.532   7.304  0.1874  0.0679 -0.0573
  927TIP3    H224341   0.087   2.465   7.176  2.0265  0.2565  0.4883
  928TIP3   OH224342   6.193   1.036   0.341  0.4479 -0.1848 -0.0514
  928TIP3    H124343   6.243   1.072   0.268  0.8110 -0.3049  0.1327
  928TIP3    H224344   6.134   1.107   0.367  1.1000  0.2635  0.2562
  929TIP3   OH224345   6.133   1.308   7.663 -0.0748  0.4699 -0.5105
  929TIP3    H124346   6.113   1.344   7.750  0.8524  1.6297 -0.7561
  929TIP3    H224347   6.064   1.344   7.606 -1.0719 -0.8113 -0.1784
  930TIP3   OH224348   6.791   6.349   1.608  0.3910 -0.4208 -0.1331
  930TIP3    H124349   6.730   6.370   1.679  1.4094 -1.3065  1.0467
  930TIP3    H224350   6.851   6.423   1.606 -0.7523  0.5263 -1.3974
  931TIP3   OH224351   3.598   3.289   8.056 -0.2054 -0.2842  0.1524
  931TIP3    H124352   3.567   3.379   8.059 -0.0102 -0.1748 -0.7339
  931TIP3    H224353   3.536   3.239   8.110  0.1751  0.5060  1.3612
  932TIP3   OH224354   3.266   4.716   8.520  0.1685  0.0983  0.3472
  932TIP3    H124355   3.241   4.769   8.595  1.0610  0.1403  0.6257
  932TIP3    H224356   3.209   4.746   8.449 -0.5583  0.1825  0.9526
  933TIP3   OH224357   5.721   5.404   8.237  0.0085  0.5915 -0.2953
  933TIP3    H124358   5.711   5.312   8.262  0.9747  0.7680  0.8600
  933TIP3    H224359   5.811   5.426   8.264 -0.2750  1.9219 -0.3665
  934TIP3   OH224360   3.576   1.405   2.321 -0.2540 -0.3778 -0.2815
  934TIP3    H124361   3.566   1.330   2.380  1.0138  0.4058  1.0128
  934TIP3    H224362   3.487   1.428   2.296 -0.7046 -1.8767 -0.1454
  935TIP3   OH224363   4.059   6.186   7.868  0.2699  0.2027 -0.5704
  935TIP3    H124364   4.052   6.219   7.957  1.3233 -2.6614  0.6779
  935TIP3    H224365   3.974   6.145   7.851  0.4360 -0.1828 -0.4725
  936TIP3   OH224366   3.604   6.049   1.763 -0.2300 -0.2885 -0.3610
  936TIP3    H124367   3.599   5.992   1.839 -1.0743  1.3487  0.8764
  936TIP3    H224368   3.559   6.002   1.693 -1.2372 -0.9718  0.7271
  937TIP3   OH224369   2.224   1.387   0.184 -0.6217 -0.6165  0.5160
  937TIP3    H124370   2.222   1.294   0.203  1.2307 -0.1526  3.4609
  937TIP3    H224371   2.316   1.407   0.168 -1.1360  0.5552 -1.4263
  938TIP3   OH224372   2.486   5.867   2.134 -0.2574  0.0044  0.0205
  938TIP3    H124373   2.442   5.951   2.145 -1.1090 -0.4314  0.0186
  938TIP3    H224374   2.465   5.840   2.045  0.8898  0.2723 -0.3465
  939TIP3   OH224375   5.604   1.011   0.753  0.8040 -0.3199  0.3949
  939TIP3    H124376   5.530   1.061   0.787  1.5051 -0.0941  1.6742
  939TIP3    H224377   5.678   1.071   0.759  1.4131 -1.0888  0.7765
  940TIP3   OH224378   1.219   3.730   2.199  0.3865 -0.0354 -0.0008
  940TIP3    H124379   1.247   3.751   2.288  2.4976  1.7187 -0.9697
  940TIP3    H224380   1.127   3.759   2.195  0.3029 -0.0133  1.5504
  941TIP3   OH224381   0.265   1.704   2.781 -0.2040  0.2019 -0.2867
  941TIP3    H124382   0.281   1.777   2.841  0.4250 -0.0679 -0.1236
  941TIP3    H224383   0.188   1.731   2.731  0.5282  1.3610 -0.8275
  942TIP3   OH224384   4.969   1.073   1.357  0.1852 -0.1332 -0.3429
  942TIP3    H124385   4.918   1.150   1.333  0.6784  0.2705 -0.1151
  942TIP3    H224386   4.905   1.002   1.358 -0.6451  0.5763  1.1425
  943TIP3   OH224387   5.485   1.868   0.798 -0.3713 -0.5760  0.4206
  943TIP3    H124388   5.545   1.814   0.850 -0.8157 -1.2898  0.2046
  943TIP3    H224389   5.412   1.886   0.858 -1.8537 -3.0652 -0.4911
  944TIP3   OH224390   1.842   6.480   8.230 -0.4433 -0.3208 -0.3369
  944TIP3    H124391   1.856   6.398   8.182 -1.4881 -0.1296 -0.9963
  944TIP3    H224392   1.761   6.515   8.194  0.2132  1.2314 -0.3831
  945TIP3   OH224393   2.973   6.606   7.632  0.2534 -0.3901  0.4933
  945TIP3    H124394   3.050   6.610   7.575  0.9280 -0.4057  1.3730
  945TIP3    H224395   2.987   6.526   7.684 -0.4883 -0.5296  0.4835
  946TIP3   OH224396   1.258   0.050   8.382  0.0025 -0.2957 -0.5074
  946TIP3    H124397   1.344   0.081   8.410 -0.4496  0.2587  0.3105
  946TIP3    H224398   1.271   0.021   8.291  1.5697 -2.3334  0.2741
  947TIP3   OH224399   6.691   2.771   1.783 -0.5016 -0.7800  0.1142
  947TIP3    H124400   6.704   2.834   1.712 -1.1516 -0.8431 -0.0669
  947TIP3    H224401   6.775   2.771   1.830 -0.4179  0.0607 -0.0075
  948TIP3   OH224402   5.667   4.992   7.465 -0.0941 -0.3007 -0.2613
  948TIP3    H124403   5.673   4.910   7.415  1.2690 -1.2024  1.2591
  948TIP3    H224404   5.575   4.997   7.492 -0.4306 -0.7589 -1.2795
  949TIP3   OH224405   6.136   5.350   2.100 -0.3020 -0.1703  0.1119
  949TIP3    H124406   6.174   5.359   2.012  0.5414  0.1820  0.4924
  949TIP3    H224407   6.059   5.407   2.099 -0.2322 -0.0803 -0.3638
  950TIP3   OH224408   5.370   1.393   8.364 -0.2917 -0.2495  0.7497
  950TIP3    H124409   5.439   1.405   8.430 -1.5208 -0.6777  2.1804
  950TIP3    H224410   5.332   1.308   8.384 -1.1268 -0.0994 -0.1194
  951TIP3   OH224411   2.901   3.673   2.551  0.4406 -0.0349 -0.0133
  951TIP3    H124412   2.833   3.718   2.602  0.1470 -0.8076  0.3042
  951TIP3    H224413   2.983   3.693   2.596  0.1625 -0.8730  0.9103
  952TIP3   OH224414   0.341   3.285   1.866 -0.1331  0.0856  0.0520
  952TIP3    H124415   0.318   3.211   1.922  0.9606 -0.4405 -0.1833
  952TIP3    H224416   0.279   3.280   1.792 -0.0464 -0.6025  0.0263
  953TIP3   OH224417   5.230   2.663   2.358  0.1557  0.5389  0.0525
  953TIP3    H124418   5.288   2.659   2.434  2.2937  0.0105 -1.5242
  953TIP3    H224419   5.251   2.746   2.316  0.6207 -0.1614 -1.1497
  954TIP3   OH224420   4.428   2.054   2.628 -0.1227  0.3454 -0.2129
  954TIP3    H124421   4.383   2.096   2.701  0.0651  1.0026 -0.4654
  954TIP3    H224422   4.510   2.022   2.665 -0.3099  0.1210  0.0054
  955TIP3   OH224423   5.288   0.336   8.463  0.1322  0.2835  0.5637
  955TIP3    H124424   5.202   0.327   8.423 -0.4030  1.4945  1.3679
  955TIP3    H224425   5.319   0.247   8.476 -0.9075 -0.1576  0.0699
  956TIP3   OH224426   3.302   4.053   1.872  0.3940  0.0526 -0.6148
  956TIP3    H124427   3.397   4.063   1.863  0.7124 -2.0480 -0.1614
  956TIP3    H224428   3.289   4.032   1.964 -0.5534  0.6644 -0.6046
  957TIP3   OH224429   1.920   5.757   7.853 -0.3597 -0.0323 -0.2817
  957TIP3    H124430   2.003   5.715   7.833 -0.6997 -0.3864 -1.0034
  957TIP3    H224431   1.889   5.791   7.769 -1.2319 -0.4355 -0.1420
  958TIP3   OH224432   0.664   1.143   7.625 -0.3151  0.0980  0.4812
  958TIP3    H124433   0.741   1.111   7.579  0.1031  0.7177  0.7419
  958TIP3    H224434   0.592   1.087   7.594 -0.0100  0.3885 -0.7587
  959TIP3   OH224435   0.586   2.456   7.357  0.0175  0.2607 -0.2869
  959TIP3    H124436   0.651   2.474   7.425 -1.1763  1.6348  0.5393
  959TIP3    H224437   0.606   2.367   7.328  0.5740 -0.3735  1.8429
  960TIP3   OH224438   6.042   2.477   0.202 -0.2992 -0.4855 -0.2537
  960TIP3    H124439   5.951   2.484   0.233 -0.3173 -1.4471 -0.0427
  960TIP3    H224440   6.092   2.532   0.262 -0.6871 -0.3181 -0.0817
  961TIP3   OH224441   2.224   5.486   0.109 -0.1406 -0.2624 -0.0064
  961TIP3    H124442   2.195   5.556   0.167 -0.2923  0.0655 -0.4664
  961TIP3    H224443   2.170   5.411   0.133 -0.5640  0.0156 -0.0696
  962TIP3   OH224444   5.834   1.605   7.722 -0.2439  0.4895 -0.2665
  962TIP3    H124445   5.757   1.593   7.778  0.7059 -2.0118  0.6645
  962TIP3    H224446   5.890   1.665   7.770 -0.3374 -0.0328  0.5141
  963TIP3   OH224447   5.933   0.435   1.433  0.0745 -0.1155  0.0346
  963TIP3    H124448   5.876   0.361   1.455 -0.0171 -0.0169  0.1332
  963TIP3    H224449   5.895   0.471   1.353  0.3724 -0.4368 -0.2558
  964TIP3   OH224450   2.487   4.196   0.342 -0.3954  0.2257  0.5164
  964TIP3    H124451   2.577   4.192   0.373 -0.1574 -3.8332 -0.1339
  964TIP3    H224452   2.479   4.283   0.301  3.4887  0.4037 -0.1987
  965TIP3   OH224453   1.396   3.201   1.587 -0.0212  0.3597  0.0661
  965TIP3    H124454   1.403   3.248   1.503 -0.5618 -1.6029 -1.1443
  965TIP3    H224455   1.443   3.119   1.572 -1.6063 -0.7946  1.1116
  966TIP3   OH224456   4.200   2.581   2.070 -0.1925  0.3446  0.1320
  966TIP3    H124457   4.143   2.569   2.146 -1.3480  1.0935 -0.5798
  966TIP3    H224458   4.286   2.550   2.099 -0.5210  0.9220  1.8554
  967TIP3   OH224459   1.047   5.193   8.193 -0.4046 -0.2916  0.0771
  967TIP3    H124460   1.050   5.217   8.100  0.9396 -1.9407 -0.3700
  967TIP3    H224461   1.099   5.260   8.237 -2.5749  1.5902 -0.0027
  968TIP3   OH224462   6.775   2.598   7.745 -0.4255  0.0956  0.1784
  968TIP3    H124463   6.696   2.558   7.708 -1.1086  0.7908  0.8499
  968TIP3    H224464   6.814   2.645   7.671 -1.3416  0.7995  0.1084
  969TIP3   OH224465   1.441   4.981   7.147  0.4459  0.6250  0.4978
  969TIP3    H124466   1.534   4.998   7.130  0.4067  1.1799  0.8476
  969TIP3    H224467   1.395   5.058   7.114  0.0239 -0.0006 -0.4322
  970TIP3   OH224468   2.121   1.705   7.761  0.6519 -0.5494 -0.1004
  970TIP3    H124469   2.072   1.677   7.838 -0.2745  0.2707 -0.3688
  970TIP3    H224470   2.054   1.743   7.703  2.0190  5.4375  1.6005
  971TIP3   OH224471   6.752   2.826   6.769  0.8745  0.2488  0.0881
  971TIP3    H124472   6.757   2.901   6.829  0.7989  0.6812 -0.4414
  971TIP3    H224473   6.837   2.826   6.725  2.1945 -1.9101  2.3348
  972TIP3   OH224474   3.862   2.147   2.124  0.1233  0.1925 -0.1909
  972TIP3    H124475   3.835   2.080   2.061  1.4975 -1.4900  0.8962
  972TIP3    H224476   3.933   2.193   2.080 -1.5132  1.7464 -1.3627
  973TIP3   OH224477   0.255   0.047   2.101  0.2774  0.2318 -0.8007
  973TIP3    H124478   0.284   0.115   2.041  1.1887 -0.1486 -0.8082
  973TIP3    H224479   0.160   0.056   2.103  0.2604  0.5034 -1.9985
  974TIP3   OH224480   5.243   3.565   1.084  0.6218 -0.4922  0.0053
  974TIP3    H124481   5.153   3.595   1.075  0.6045 -0.9699 -1.5663
  974TIP3    H224482   5.251   3.544   1.177 -1.2173 -1.4651 -0.0141
  975TIP3   OH224483   2.679   1.818   8.550 -0.3207 -0.7902  0.5372
  975TIP3    H124484   2.601   1.830   8.497 -0.7235  0.2342  1.3374
  975TIP3    H224485   2.749   1.862   8.501 -0.6004 -0.2285  0.6367
  976TIP3   OH224486   6.026   3.684   1.827 -0.3176 -0.7561 -0.3145
  976TIP3    H124487   6.095   3.679   1.761 -1.5024 -0.5562 -1.6080
  976TIP3    H224488   6.027   3.598   1.869  1.5522 -0.3405  0.6029
  977TIP3   OH224489   6.212   3.491   6.764 -0.3947  0.0026 -0.1993
  977TIP3    H124490   6.130   3.535   6.742  0.5441  0.6482 -2.7613
  977TIP3    H224491   6.279   3.543   6.720  1.4593 -0.4234  1.9483
  978TIP3   OH224492   4.910   4.895   8.596 -0.2143 -0.3666 -0.8659
  978TIP3    H124493   4.841   4.944   8.552  0.0808 -0.3300 -1.2969
  978TIP3    H224494   4.982   4.958   8.604  0.0992 -0.6756 -1.2496
  979TIP3   OH224495   3.617   4.391   0.338  0.5775  0.0532  0.5555
  979TIP3    H124496   3.527   4.391   0.372  1.0672 -0.7550  1.9068
  979TIP3    H224497   3.648   4.480   0.351 -0.2548  0.5546 -0.6301
  980TIP3   OH224498   2.203   1.877   0.625 -0.2959 -0.3118 -0.4128
  980TIP3    H124499   2.236   1.966   0.635 -0.2175 -0.5372  1.8031
  980TIP3    H224500   2.280   1.821   0.641 -0.6960 -0.7855 -0.1289
  981TIP3   OH224501   0.951   5.883   8.704  0.1609  0.7058 -0.0789
  981TIP3    H124502   0.973   5.840   8.786 -1.3170 -0.5441 -0.3012
  981TIP3    H224503   0.941   5.976   8.727  0.8876  0.5557  0.9073
  982TIP3   OH224504   3.571   5.843   1.273 -0.0182  0.6733 -0.0670
  982TIP3    H124505   3.648   5.802   1.312  0.7368  1.7085 -0.4203
  982TIP3    H224506   3.497   5.789   1.302  0.7473  0.1514  0.9701
  983TIP3   OH224507   4.220   0.247   2.582  0.2983 -0.1342 -0.0385
  983TIP3    H124508   4.187   0.221   2.669  0.7891 -0.7158 -0.0212
  983TIP3    H224509   4.315   0.246   2.592  0.4146 -1.7842 -1.0157
  984TIP3   OH224510   0.172   6.676   8.105  0.1263 -0.1361  0.1703
  984TIP3    H124511   0.235   6.619   8.060 -0.0712 -0.5050  0.3591
  984TIP3    H224512   0.222   6.718   8.174  0.3451  0.1540 -0.1586
  985TIP3   OH224513   2.851   6.211   1.540  0.4328 -0.3699 -0.2137
  985TIP3    H124514   2.881   6.272   1.608  1.0059 -1.9897  1.0388
  985TIP3    H224515   2.810   6.268   1.474  2.2088  1.5138  0.1861
  986TIP3   OH224516   3.197   2.896   2.155 -0.7260  0.6083 -0.1980
  986TIP3    H124517   3.224   2.810   2.189 -0.9617 -0.0232 -1.5233
  986TIP3    H224518   3.154   2.938   2.229 -0.6668 -0.4505  0.4695
  987TIP3   OH224519   5.596   1.914   0.415 -0.3626  0.0793  0.3938
  987TIP3    H124520   5.618   1.824   0.441 -0.9539 -0.4852 -0.9847
  987TIP3    H224521   5.680   1.951   0.387 -0.1473 -0.1126  0.7810
  988TIP3   OH224522   5.391   0.448   6.254  0.0885 -0.3848 -0.0157
  988TIP3    H124523   5.338   0.395   6.314  0.6735 -0.7715  0.1770
  988TIP3    H224524   5.442   0.505   6.312 -2.0324  1.9227 -0.2649
  989TIP3   OH224525   2.296   2.409   8.105  0.0141  0.3930  0.5537
  989TIP3    H124526   2.335   2.386   8.190  3.5653  0.9810 -0.7197
  989TIP3    H224527   2.354   2.477   8.071 -0.0751 -1.1852 -3.1481
  990TIP3   OH224528   1.385   0.215   2.273 -0.2666  0.1877 -0.4653
  990TIP3    H124529   1.436   0.184   2.348 -1.6423 -0.8499  0.0986
  990TIP3    H224530   1.413   0.306   2.261  1.0684 -0.0861  0.3411
  991TIP3   OH224531   5.098   1.471   1.293  0.1686 -0.2915 -0.4448
  991TIP3    H124532   5.007   1.477   1.322  0.2051 -1.7805  0.0557
  991TIP3    H224533   5.104   1.384   1.253  0.9873  0.3973 -1.9229
  992TIP3   OH224534   3.818   0.859   7.287  0.2049  0.4182 -0.2962
  992TIP3    H124535   3.762   0.854   7.209 -0.7444  0.8998  0.3255
  992TIP3    H224536   3.896   0.809   7.264 -0.7982 -0.9099 -0.9382
  993TIP3   OH224537   3.084   0.344   7.484 -0.6241 -0.0217 -0.4295
  993TIP3    H124538   3.172   0.319   7.455 -1.0473 -0.3082 -1.5335
  993TIP3    H224539   3.099   0.411   7.550  0.4522 -0.8715  0.2365
  994TIP3   OH224540   6.773   0.656   2.678 -0.3141 -0.0681 -0.1562
  994TIP3    H124541   6.697   0.673   2.734  0.6279 -0.8965  1.4685
  994TIP3    H224542   6.817   0.582   2.720  2.4905  1.6379  0.2008
  995TIP3   OH224543   3.857   2.674   0.290  0.1522  0.0707  0.2595
  995TIP3    H124544   3.825   2.753   0.334  0.0543 -0.5834  1.4111
  995TIP3    H224545   3.815   2.602   0.337  0.4258 -0.6762 -0.6157
  996TIP3   OH224546   5.418   5.036   1.070  0.2941  0.3999  0.3453
  996TIP3    H124547   5.513   5.048   1.062  1.1004 -4.2117  0.0305
  996TIP3    H224548   5.404   5.018   1.163 -0.0338 -0.1807  0.1891
  997TIP3   OH224549   1.142   2.200   2.404 -0.2977  0.1610 -0.0930
  997TIP3    H124550   1.152   2.149   2.323 -1.0143  0.2811 -0.2684
  997TIP3    H224551   1.163   2.138   2.474  1.2367  0.3062 -0.3943
  998TIP3   OH224552   1.306   1.726   1.126 -0.1702 -0.1750  1.0826
  998TIP3    H124553   1.261   1.787   1.068 -0.1467 -2.4302 -1.5606
  998TIP3    H224554   1.397   1.755   1.126 -0.2865  0.1985  0.4479
  999TIP3   OH224555   0.045   5.245   3.131  0.0537 -0.7202  0.1910
  999TIP3    H124556   0.100   5.319   3.157 -0.4482 -1.0428  2.3480
  999TIP3    H224557   0.105   5.171   3.123  0.2474 -0.5710  0.2648
 1000TIP3   OH224558   1.347   3.520   7.438  0.0284 -0.0071  0.0720
 1000TIP3    H124559   1.433   3.562   7.427 -0.3691  0.5065 -1.2481
 1000TIP3    H224560   1.353   3.477   7.523  1.3105  0.7015  0.3787
 1001TIP3   OH224561   6.103   5.857   3.012 -0.0280  0.3843 -0.2832
 1001TIP3    H124562   6.067   5.930   2.963 -0.4149  1.8045  2.0012
 1001TIP3    H224563   6.194   5.881   3.027 -0.0876  0.2697  0.2582
 1002TIP3   OH224564   6.117   4.515   2.760 -0.4020  0.1938  0.3694
 1002TIP3    H124565   6.208   4.491   2.743 -0.3752  0.3742  0.2428
 1002TIP3    H224566   6.090   4.460   2.833 -0.6053 -0.8239 -0.4366
 1003TIP3   OH224567   0.421   0.979   2.286 -0.3961 -0.7051 -0.4071
 1003TIP3    H124568   0.334   0.947   2.261 -1.3936 -0.2250  2.1386
 1003TIP3    H224569   0.404   1.044   2.355  1.9271  0.5286 -0.8929
 1004TIP3   OH224570   0.840   3.970   7.142 -0.3748  0.3303 -0.1673
 1004TIP3    H124571   0.749   3.942   7.145 -0.1237 -0.6013 -0.8584
 1004TIP3    H224572   0.863   3.969   7.049  0.5549 -0.1724  0.0565
 1005TIP3   OH224573   0.829   6.167   1.662  0.0945  0.4323  0.2245
 1005TIP3    H124574   0.771   6.158   1.587 -0.7266  0.6341  0.8204
 1005TIP3    H224575   0.871   6.082   1.671  1.3666  0.8334 -1.3714
 1006TIP3   OH224576   4.699   4.298   8.154 -0.0650  0.7357 -1.0209
 1006TIP3    H124577   4.631   4.329   8.214  0.9993 -0.8089  1.0904
 1006TIP3    H224578   4.777   4.348   8.177  1.4745 -2.5936  1.9244
 1007TIP3   OH224579   3.893   1.966   7.945  0.3979 -0.8455  0.2474
 1007TIP3    H124580   3.838   2.043   7.931 -0.3915 -1.2158  1.2452
 1007TIP3    H224581   3.849   1.916   8.013  2.0153 -1.1096  1.1627
 1008TIP3   OH224582   4.594   3.087   0.809 -0.3925  0.6456 -0.2141
 1008TIP3    H124583   4.578   3.176   0.841 -0.0816  0.9461 -0.8773
 1008TIP3    H224584   4.506   3.050   0.796 -0.5443  1.2100 -0.8843
 1009TIP3   OH224585   4.911   4.940   0.256  0.6057 -0.1849  0.7593
 1009TIP3    H124586   4.994   4.948   0.210 -1.2227 -0.2057 -2.9184
 1009TIP3    H224587   4.903   4.847   0.277 -0.3767 -1.1134 -3.0993
 1010TIP3   OH224588   3.084   5.691   0.170 -0.3495  0.5367 -0.1835
 1010TIP3    H124589   3.047   5.779   0.158  0.1126  0.7083 -0.3531
 1010TIP3    H224590   3.176   5.706   0.192 -0.1733  0.0825 -0.5997
 1011TIP3   OH224591   0.461   0.004   3.221  0.0549 -0.0988 -0.2792
 1011TIP3    H124592   0.389   0.065   3.231  0.1830 -0.0585  0.4473
 1011TIP3    H224593   0.521   0.047   3.160 -1.1100 -0.6888 -1.9195
 1012TIP3   OH224594   0.606   5.316   2.391 -0.7560  0.4124  0.4170
 1012TIP3    H124595   0.542   5.271   2.335  0.4404  0.3980 -1.0283
 1012TIP3    H224596   0.617   5.402   2.350 -0.8641  0.9381  1.4627
 1013TIP3   OH224597   4.595   0.055   7.861 -0.2297 -0.1214  0.3770
 1013TIP3    H124598   4.684   0.054   7.896  0.2644  0.1921 -0.8130
 1013TIP3    H224599   4.563  -0.034   7.876  0.2722 -0.2371  0.8234
 1014TIP3   OH224600   1.323   3.297   2.661  0.2595  0.0820  0.1852
 1014TIP3    H124601   1.283   3.312   2.746  1.4496 -0.1186  0.8108
 1014TIP3    H224602   1.296   3.372   2.608 -0.5864  0.1497  0.6992
 1015TIP3   OH224603   1.612   4.978   0.549  0.1955 -0.9128 -0.2238
 1015TIP3    H124604   1.702   4.988   0.582  0.0637 -0.2746 -0.0423
 1015TIP3    H224605   1.562   5.045   0.596 -0.1521 -0.5172 -1.1332
 1016TIP3   OH224606   1.417   6.199   2.336  0.3280  0.0298  0.6080
 1016TIP3    H124607   1.485   6.163   2.279  1.0311  0.4375  1.1622
 1016TIP3    H224608   1.452   6.188   2.425  0.2856  1.4747  0.8280
 1017TIP3   OH224609   4.114   6.195   7.155  0.1060 -0.3223  0.3711
 1017TIP3    H124610   4.095   6.213   7.247  2.0107  0.6414  0.6287
 1017TIP3    H224611   4.107   6.100   7.147 -2.7316 -0.2300  0.8121
 1018TIP3   OH224612   3.478   1.624   0.431 -0.0747 -0.0234  0.3128
 1018TIP3    H124613   3.420   1.566   0.481  0.4040 -0.3749  0.4705
 1018TIP3    H224614   3.492   1.578   0.348  1.0172 -0.5718  0.7835
 1019TIP3   OH224615   4.896   2.227   1.415 -0.0981 -0.8242 -0.1651
 1019TIP3    H124616   4.856   2.158   1.468 -0.0929 -0.9415 -0.3131
 1019TIP3    H224617   4.825   2.256   1.358 -0.4248  0.0890  0.6839
 1020TIP3   OH224618   5.868   3.629   0.641 -0.4724 -0.3339 -0.4995
 1020TIP3    H124619   5.903   3.541   0.650  1.2315  0.1674 -1.7453
 1020TIP3    H224620   5.794   3.621   0.580  0.2047 -0.7927 -1.2728
 1021TIP3   OH224621   6.558   3.498   0.177  0.2791  0.5741  0.3744
 1021TIP3    H124622   6.596   3.584   0.193  0.7708  0.4899 -0.2877
 1021TIP3    H224623   6.484   3.514   0.120  0.4761  0.5419  0.1087
 1022TIP3   OH224624   2.490   5.855   7.906 -0.4979  0.6028 -0.4920
 1022TIP3    H124625   2.402   5.892   7.916  0.3983  2.6599  0.3881
 1022TIP3    H224626   2.519   5.885   7.820 -0.5328  0.2007 -0.6449
 1023TIP3   OH224627   3.781   2.320   0.039  1.0454  0.3895  0.3094
 1023TIP3    H124628   3.847   2.254   0.057  0.4021 -0.0594  1.1345
 1023TIP3    H224629   3.713   2.304   0.105  0.4367  1.2664 -0.0830
 1024TIP3   OH224630   1.104   2.748   1.297 -0.2373 -0.7279  0.7591
 1024TIP3    H124631   1.189   2.749   1.253  0.3065  1.1305  1.7253
 1024TIP3    H224632   1.077   2.657   1.295  1.1871 -1.1593 -0.6923
 1025TIP3   OH224633   1.972   6.242   8.239 -0.3063 -0.0670 -0.2349
 1025TIP3    H124634   2.000   6.310   8.299 -0.5885  0.0688 -0.2533
 1025TIP3    H224635   2.052   6.194   8.217 -0.0477  0.4879 -0.5135
 1026TIP3   OH224636   1.291   4.820   6.937  0.0994 -0.2800 -0.2326
 1026TIP3    H124637   1.358   4.793   6.874  0.0978 -3.4710  0.9398
 1026TIP3    H224638   1.339   4.831   7.019 -0.0760  2.7550 -0.4132
 1027TIP3   OH224639   6.232   5.667   2.254 -1.0252 -0.3687  0.0944
 1027TIP3    H124640   6.262   5.576   2.248 -2.0112 -0.7364  0.5719
 1027TIP3    H224641   6.201   5.676   2.344 -1.5312  0.2545 -0.1351
 1028TIP3   OH224642   1.697   3.634   0.883  0.2431  0.0097 -0.4755
 1028TIP3    H124643   1.628   3.576   0.849  0.3288 -0.0651 -0.5210
 1028TIP3    H224644   1.649   3.708   0.922  0.1673  0.5630 -1.5918
 1029TIP3   OH224645   6.071   4.230   2.009  0.1828  0.0326 -0.4745
 1029TIP3    H124646   6.160   4.235   1.974 -0.0037  0.8305 -0.8573
 1029TIP3    H224647   6.021   4.293   1.957 -0.2618  0.7320  0.7676
 1030TIP3   OH224648   4.336   1.458   8.342 -0.1869  0.2419  0.5208
 1030TIP3    H124649   4.416   1.510   8.333 -0.5687  0.8539  0.6278
 1030TIP3    H224650   4.359   1.373   8.305  0.2981  0.6406 -0.1274
 1031TIP3   OH224651   2.720   4.696   1.033  0.2038  0.1458  0.4292
 1031TIP3    H124652   2.691   4.628   0.973  0.3472  0.5565 -0.1107
 1031TIP3    H224653   2.809   4.672   1.056 -0.2786 -0.7091  1.4978
 1032TIP3   OH224654   6.280   3.351   2.722  0.5080 -0.0022 -0.3202
 1032TIP3    H124655   6.273   3.259   2.747 -0.1431  0.3709  0.9693
 1032TIP3    H224656   6.213   3.362   2.655 -1.0517  0.0320  1.1746
 1033TIP3   OH224657   1.745   3.725   1.312  0.0287  0.4082 -0.2432
 1033TIP3    H124658   1.742   3.656   1.246 -0.4546  0.2206 -0.0349
 1033TIP3    H224659   1.653   3.745   1.330  0.1451  0.3331  0.4949
 1034TIP3   OH224660   1.789   3.228   0.346 -0.0488 -0.4679  0.2285
 1034TIP3    H124661   1.713   3.246   0.290 -0.6424 -1.4523  0.6850
 1034TIP3    H224662   1.801   3.133   0.339  0.4977 -0.4541  0.9726
 1035TIP3   OH224663   6.081   6.768   1.363  0.5002  0.4133  0.3867
 1035TIP3    H124664   6.071   6.750   1.270  1.5851  1.4214  0.0403
 1035TIP3    H224665   6.006   6.726   1.405 -1.0652  1.5590 -1.1462
 1036TIP3   OH224666   5.627   6.097   7.831  0.2662  0.1345  0.2038
 1036TIP3    H124667   5.713   6.137   7.845  1.0297 -0.1966 -2.8017
 1036TIP3    H224668   5.567   6.172   7.822  0.6746  0.4508  0.0940
 1037TIP3   OH224669   3.306   0.328   0.449 -0.0704  0.1911  0.4390
 1037TIP3    H124670   3.212   0.338   0.436 -0.0524 -0.1238  0.0242
 1037TIP3    H224671   3.337   0.415   0.473 -0.5908  0.1157  1.4059
 1038TIP3   OH224672   3.113   6.800   2.093 -0.4618  0.2860 -0.1379
 1038TIP3    H124673   3.109   6.751   2.175  3.4596  0.7386  0.5316
 1038TIP3    H224674   3.093   6.735   2.025  0.3429 -1.1725  0.9609
 1039TIP3   OH224675   0.636   4.179   2.100 -0.8748 -0.9443  0.2561
 1039TIP3    H124676   0.699   4.245   2.130 -1.8437  0.1285  0.0013
 1039TIP3    H224677   0.563   4.185   2.162 -2.5496  0.7451 -1.6982
 1040TIP3   OH224678   3.125   6.673   2.319 -0.3716  0.0835 -0.0838
 1040TIP3    H124679   3.094   6.587   2.350 -0.1638  0.3567  0.9206
 1040TIP3    H224680   3.209   6.685   2.364 -0.3049  0.7278 -0.3761
 1041TIP3   OH224681   4.236   3.974   2.716  0.2095  0.5932  0.3624
 1041TIP3    H124682   4.245   3.887   2.677  1.4784  0.3335  1.1768
 1041TIP3    H224683   4.142   3.992   2.713  0.0287 -0.4254 -0.6158
 1042TIP3   OH224684   5.693   0.013   1.666  0.0458  0.1507  0.3538
 1042TIP3    H124685   5.730   0.080   1.723  0.0033  0.4953 -0.0267
 1042TIP3    H224686   5.601   0.008   1.692 -0.0224  0.4577  0.1692
 1043TIP3   OH224687   2.119   2.094   7.697 -0.6501 -0.0815  0.7684
 1043TIP3    H124688   2.050   2.031   7.720 -1.4526  1.0612  1.5931
 1043TIP3    H224689   2.117   2.158   7.768 -0.9649  1.7675 -0.8449
 1044TIP3   OH224690   1.786   4.023   8.644  0.0576 -0.2160 -0.1951
 1044TIP3    H124691   1.756   3.940   8.682 -2.3560  0.7361  0.1633
 1044TIP3    H224692   1.850   3.997   8.577  0.4180 -2.2536  0.8512
 1045TIP3   OH224693   0.346   3.272   7.601 -0.4779  0.6835  0.6789
 1045TIP3    H124694   0.319   3.363   7.592  1.5160  1.2869  0.2454
 1045TIP3    H224695   0.338   3.235   7.513  1.2080  1.2375  0.2509
 1046TIP3   OH224696   4.372   4.383   0.715  0.2195  0.4273 -0.3892
 1046TIP3    H124697   4.293   4.347   0.674  1.6869 -0.5587 -2.5985
 1046TIP3    H224698   4.367   4.355   0.806 -1.2023 -1.0360 -0.8679
 1047TIP3   OH224699   6.028   4.730   0.162  0.3563 -0.7635  0.4086
 1047TIP3    H124700   6.009   4.639   0.138 -0.1586 -0.7139  0.5989
 1047TIP3    H224701   6.120   4.729   0.190  1.0396 -0.7745 -1.6812
 1048TIP3   OH224702   3.221   2.699   8.466  0.2110  0.3297 -0.0207
 1048TIP3    H124703   3.188   2.704   8.555  1.0997  0.1870  0.3259
 1048TIP3    H224704   3.239   2.606   8.451 -0.0598  0.3345 -0.3960
 1049TIP3   OH224705   1.541   0.448   7.469 -0.6730 -0.1300  0.2991
 1049TIP3    H124706   1.572   0.455   7.560  2.1362 -0.3760 -0.5403
 1049TIP3    H224707   1.621   0.439   7.417 -1.9514  2.5977 -2.4932
 1050TIP3   OH224708   2.328   5.142   8.298  0.2339 -0.5152 -0.0455
 1050TIP3    H124709   2.277   5.146   8.378 -2.0839 -1.0719 -1.4133
 1050TIP3    H224710   2.322   5.230   8.261  0.2601 -0.5930 -0.2342
 1051TIP3   OH224711   3.481   0.783   8.303  0.2024  0.1013  0.6569
 1051TIP3    H124712   3.549   0.718   8.320  0.2222  0.1999  0.9758
 1051TIP3    H224713   3.482   0.839   8.381 -0.3682 -0.0090  0.7492
 1052TIP3   OH224714   5.635   4.509   7.947 -0.6676 -0.7224 -0.5138
 1052TIP3    H124715   5.685   4.547   8.019  0.6913  1.5489 -2.4746
 1052TIP3    H224716   5.674   4.423   7.933  1.3734  0.1534 -0.6193
 1053TIP3   OH224717   3.534   6.495   6.917  0.1849  0.0436 -0.6941
 1053TIP3    H124718   3.481   6.477   6.840 -0.4040  0.2505 -0.3450
 1053TIP3    H224719   3.530   6.590   6.927  0.3983  0.0349 -0.5057
 1054TIP3   OH224720   5.651   5.206   8.509  0.3950 -0.4360  0.2560
 1054TIP3    H124721   5.591   5.132   8.522 -0.3996  0.5386  2.6306
 1054TIP3    H224722   5.702   5.209   8.589  0.5926  1.4431  0.0861
 1055TIP3   OH224723   1.908   6.732   1.503  0.3064  0.1252  0.1422
 1055TIP3    H124724   1.958   6.745   1.584  0.5630 -1.4480  0.2669
 1055TIP3    H224725   1.918   6.639   1.484 -1.4713  0.0562 -0.5745
 1056TIP3   OH224726   2.323   3.664   1.248  0.7176 -1.0094 -0.4116
 1056TIP3    H124727   2.301   3.652   1.341 -0.0506  0.1770 -0.4162
 1056TIP3    H224728   2.283   3.589   1.205 -1.0626 -0.3270 -0.0565
 1057TIP3   OH224729   1.488   4.302   7.590  0.0139 -0.1049 -0.0358
 1057TIP3    H124730   1.493   4.213   7.556 -0.8323  0.1640 -0.8760
 1057TIP3    H224731   1.562   4.347   7.549  0.2004 -0.3036  0.0763
 1058TIP3   OH224732   3.171   1.286   8.431 -0.2029  0.7535  0.0537
 1058TIP3    H124733   3.204   1.233   8.358  0.3677 -1.9387  2.0899
 1058TIP3    H224734   3.230   1.361   8.435  1.7683 -0.6849 -0.3520
 1059TIP3   OH224735   2.290   4.893   8.018 -0.2948  0.1986  0.2628
 1059TIP3    H124736   2.347   4.839   8.075 -0.7221 -1.0285 -0.4304
 1059TIP3    H224737   2.342   4.972   8.001  1.6789 -1.2752 -1.1317
 1060TIP3   OH224738   2.766   0.585   6.865 -0.1303  0.0630  0.3761
 1060TIP3    H124739   2.675   0.553   6.869  0.1999 -0.8112  1.2344
 1060TIP3    H224740   2.758   0.680   6.877 -0.9291 -0.0089  0.5114
 1061TIP3   OH224741   3.576   2.191   2.575  0.6588 -0.7131 -0.3180
 1061TIP3    H124742   3.576   2.282   2.604  0.5449 -1.0995  0.9609
 1061TIP3    H224743   3.513   2.188   2.503 -0.0314  0.0361  0.2388
 1062TIP3   OH224744   3.838   4.299   8.054 -0.3838 -0.2374  0.5844
 1062TIP3    H124745   3.743   4.289   8.068 -0.4950 -1.1431 -0.6618
 1062TIP3    H224746   3.863   4.221   8.005  0.7805  0.6024 -0.2025
 1063TIP3   OH224747   4.448   4.962   2.440  0.3110 -0.8780 -0.8240
 1063TIP3    H124748   4.353   4.958   2.426 -0.2062 -0.7457  2.1015
 1063TIP3    H224749   4.484   4.973   2.352 -2.3270 -1.4703 -2.0951
 1064TIP3   OH224750   2.360   6.497   7.782 -0.3273 -0.0896  0.3028
 1064TIP3    H124751   2.303   6.426   7.751 -0.5779 -0.2436  1.1012
 1064TIP3    H224752   2.402   6.461   7.860  0.7675  0.0752 -0.1983
 1065TIP3   OH224753   4.659   5.893   2.346  0.5704  0.1313  0.4711
 1065TIP3    H124754   4.693   5.874   2.434  0.5342 -1.9816  0.0858
 1065TIP3    H224755   4.737   5.906   2.292  0.5918  1.5590  0.8017
 1066TIP3   OH224756   0.221   3.687   1.447 -0.0670 -0.4919  0.4328
 1066TIP3    H124757   0.163   3.673   1.521  0.3695 -2.3117  0.4796
 1066TIP3    H224758   0.285   3.616   1.453 -0.4026 -1.0906 -2.0500
 1067TIP3   OH224759   5.013   0.283   1.989 -0.8254  0.5136  0.1539
 1067TIP3    H124760   4.954   0.272   2.064  0.7559  0.6900  1.4669
 1067TIP3    H224761   5.093   0.319   2.026  0.7071 -1.1634 -1.3324
 1068TIP3   OH224762   3.558   6.755   7.745  0.1214 -0.1318  0.2036
 1068TIP3    H124763   3.595   6.800   7.668  1.1306  2.3110  1.9511
 1068TIP3    H224764   3.469   6.790   7.753 -0.9661 -2.3819 -1.2687
 1069TIP3   OH224765   0.679   3.901   2.176 -0.4794  0.2072 -0.6874
 1069TIP3    H124766   0.610   3.853   2.222  0.3662  1.5017  2.1891
 1069TIP3    H224767   0.650   3.992   2.177  0.9820  0.6983  0.1237
 1070TIP3   OH224768   6.658   2.043   8.251  0.0537 -0.0608 -0.5383
 1070TIP3    H124769   6.723   1.985   8.212  1.0388  0.9129 -0.3926
 1070TIP3    H224770   6.591   1.984   8.287  0.4718 -1.0496 -1.3491
 1071TIP3   OH224771   2.262   3.324   8.333  0.2084 -0.3519 -0.2718
 1071TIP3    H124772   2.310   3.356   8.256  2.0599 -0.2588  0.8630
 1071TIP3    H224773   2.210   3.399   8.361  2.5397  0.9675  0.8364
 1072TIP3   OH224774   4.077   0.552   8.075 -0.4416  0.2184  0.3887
 1072TIP3    H124775   4.141   0.606   8.121  1.6862  0.0197 -2.0970
 1072TIP3    H224776   4.086   0.466   8.115 -0.8371  0.7174  1.5909
 1073TIP3   OH224777   4.059   3.187   2.761  0.6375  0.0584 -0.3746
 1073TIP3    H124778   4.127   3.209   2.698 -0.4408  0.8845 -1.2999
 1073TIP3    H224779   4.089   3.106   2.802  2.1333  0.3805 -0.7876
 1074TIP3   OH224780   0.146   2.425   8.318 -0.3834  0.1659 -0.0185
 1074TIP3    H124781   0.187   2.506   8.348 -1.0805  0.1803  0.9231
 1074TIP3    H224782   0.219   2.369   8.292  0.0789  1.6870 -2.3532
 1075TIP3   OH224783   5.133   6.496   2.073  0.0916 -0.1586 -0.1233
 1075TIP3    H124784   5.138   6.544   1.990  1.6488  0.3003  0.2106
 1075TIP3    H224785   5.216   6.450   2.079  1.3098  2.1182  2.5300
 1076TIP3   OH224786   3.947   3.540   1.115  0.4945  0.0745 -0.1181
 1076TIP3    H124787   3.986   3.463   1.155  0.1986 -0.0525 -0.0665
 1076TIP3    H224788   3.999   3.613   1.147 -0.0234  0.0242  0.8863
 1077TIP3   OH224789   2.219   6.005   0.510 -0.0990 -0.1326 -0.1896
 1077TIP3    H124790   2.270   6.066   0.564 -0.3000 -0.3187  0.2209
 1077TIP3    H224791   2.196   5.935   0.571 -0.5886 -0.1976 -0.4495
 1078TIP3   OH224792   2.781   6.204   7.174 -0.0051  0.4674 -0.3692
 1078TIP3    H124793   2.850   6.239   7.117  1.1734 -1.7271 -0.3800
 1078TIP3    H224794   2.712   6.176   7.114  0.0605  0.6226 -0.5167
 1079TIP3   OH224795   4.366   4.688   2.211  0.5080  0.3729  0.0304
 1079TIP3    H124796   4.447   4.682   2.161  0.4365 -0.1244 -0.0313
 1079TIP3    H224797   4.395   4.704   2.301  0.6793  0.1065  0.0239
 1080TIP3   OH224798   1.065   6.175   2.734 -0.4252  0.4963  0.2394
 1080TIP3    H124799   1.112   6.239   2.680 -0.6229  0.3208 -0.1363
 1080TIP3    H224800   1.119   6.096   2.730 -1.0726  0.0917 -0.7104
 1081TIP3   OH224801   2.178   2.038   1.194 -0.0006  0.3704 -0.1562
 1081TIP3    H124802   2.175   1.970   1.261  0.7321 -0.8922 -1.3534
 1081TIP3    H224803   2.239   2.004   1.128 -0.0619  1.9382 -1.0589
 1082TIP3   OH224804   4.469   1.912   2.936  0.1720  0.3661  0.0470
 1082TIP3    H124805   4.534   1.881   2.873  0.5499  0.7467  0.2433
 1082TIP3    H224806   4.431   1.833   2.973  0.0387  0.1380 -0.5645
 1083TIP3   OH224807   3.395   4.674   2.765 -0.3402 -0.3532  0.6521
 1083TIP3    H124808   3.450   4.610   2.811 -0.7081 -1.2221 -0.0729
 1083TIP3    H224809   3.384   4.637   2.677  0.2366  1.2015 -0.1030
 1084TIP3   OH224810   5.571   6.245   0.281  0.5385  0.1281  0.2704
 1084TIP3    H124811   5.496   6.305   0.281 -0.1634 -0.6682  2.3875
 1084TIP3    H224812   5.647   6.303   0.288 -0.0170  0.8546  0.5151
 1085TIP3   OH224813   6.381   6.667   7.926 -0.3069 -0.1245  0.1297
 1085TIP3    H124814   6.406   6.660   7.834 -2.7315  2.1712 -0.8116
 1085TIP3    H224815   6.427   6.594   7.969  1.4063 -0.8796 -2.7312
 1086TIP3   OH224816   0.501   3.917   1.405  0.1866 -0.4352  0.4364
 1086TIP3    H124817   0.447   3.997   1.408  1.5001  0.4616  2.7540
 1086TIP3    H224818   0.588   3.946   1.430  0.9788 -2.4270  0.1584
 1087TIP3   OH224819   0.869   2.329   1.981  0.0277  0.0762  0.6774
 1087TIP3    H124820   0.852   2.235   1.990  2.1811 -0.3209  1.0803
 1087TIP3    H224821   0.849   2.365   2.067 -0.7454  0.0038  0.5396
 1088TIP3   OH224822   4.545   3.625   8.389 -0.0541 -0.3694 -0.3811
 1088TIP3    H124823   4.457   3.641   8.423  0.3086  0.8271  0.0370
 1088TIP3    H224824   4.603   3.645   8.463  0.6572  0.5558 -1.1668
 1089TIP3   OH224825   0.194   0.559   2.441 -0.0334  0.1178 -0.3077
 1089TIP3    H124826   0.131   0.560   2.369 -1.1338 -0.1718  0.6345
 1089TIP3    H224827   0.208   0.651   2.463 -0.6165  0.1590 -0.1061
 1090TIP3   OH224828   0.686   2.944   2.004  0.2358  0.0242  0.0342
 1090TIP3    H124829   0.735   2.886   2.062  2.2210  0.8012 -0.7780
 1090TIP3    H224830   0.716   2.921   1.916 -0.2504  1.0981 -0.4271
 1091TIP3   OH224831   1.400   4.183   2.609 -0.1755  0.2344 -0.1265
 1091TIP3    H124832   1.375   4.266   2.650 -0.8056  1.1069 -2.1320
 1091TIP3    H224833   1.494   4.191   2.595  0.0909 -0.1744  1.2924
 1092TIP3   OH224834   2.148   6.666   2.812 -0.4801  0.1287  0.1891
 1092TIP3    H124835   2.154   6.572   2.831  0.5331  0.3667  1.1674
 1092TIP3    H224836   2.071   6.695   2.861 -0.6408 -0.1389  0.0972
 1093TIP3   OH224837   5.741   6.518   7.004 -0.0470  0.6372 -0.5350
 1093TIP3    H124838   5.714   6.590   6.948 -0.2818 -1.2674 -3.0199
 1093TIP3    H224839   5.837   6.519   6.999  0.0459  1.5845  0.6426
 1094TIP3   OH224840   6.223   2.882   8.160  0.9732  0.0676  0.0838
 1094TIP3    H124841   6.285   2.828   8.112  1.0534 -0.2774  0.5717
 1094TIP3    H224842   6.247   2.871   8.252 -0.3864 -0.8049  0.3553
 1095TIP3   OH224843   5.634   3.854   0.691 -0.6002 -0.1270  0.0196
 1095TIP3    H124844   5.708   3.900   0.731 -1.5378  0.7641  0.8005
 1095TIP3    H224845   5.618   3.779   0.748 -1.0884  0.4014  0.6031
 1096TIP3   OH224846   0.915   6.166   8.657 -0.0540 -0.0310 -0.7599
 1096TIP3    H124847   0.837   6.144   8.606 -1.2157  3.2238 -0.6232
 1096TIP3    H224848   0.971   6.214   8.596  0.9221 -0.5677 -0.3090
 1097TIP3   OH224849   1.664   0.130   7.154 -0.1304  0.9353  0.5244
 1097TIP3    H124850   1.724   0.151   7.226  0.4492 -0.2120  0.3972
 1097TIP3    H224851   1.695   0.184   7.081 -1.4122  2.9761  1.3955
 1098TIP3   OH224852   0.474   2.373   2.896 -0.7315 -0.0209 -0.3148
 1098TIP3    H124853   0.448   2.463   2.878 -0.3303 -0.5000 -4.1036
 1098TIP3    H224854   0.561   2.381   2.936 -1.7754  1.2424  1.8694
 1099TIP3   OH224855   1.158   1.249   8.054 -0.5737  0.7702 -0.8078
 1099TIP3    H124856   1.090   1.183   8.046 -0.4714  0.6108 -0.3640
 1099TIP3    H224857   1.190   1.261   7.964 -0.9254  0.5748 -0.9618
 1100TIP3   OH224858   6.090   1.633   8.285  0.4131 -0.2628  0.2576
 1100TIP3    H124859   6.151   1.676   8.226 -0.6065 -1.4292 -1.7625
 1100TIP3    H224860   6.139   1.619   8.366  2.8941 -1.2729 -1.3169
 1101TIP3   OH224861   5.808   5.873   0.285 -0.3045  0.3041  0.0083
 1101TIP3    H124862   5.844   5.843   0.369  0.0487  0.5809 -0.0384
 1101TIP3    H224863   5.885   5.894   0.233 -0.5270  0.2325 -0.3492
 1102TIP3   OH224864   4.150   0.702   7.555  0.1144 -0.0264  0.3222
 1102TIP3    H124865   4.106   0.777   7.593 -1.2593 -0.1474 -0.9387
 1102TIP3    H224866   4.154   0.637   7.626  1.9284  1.4056  1.6284
 1103TIP3   OH224867   3.625   6.403   1.204 -0.0510  0.1233 -0.1424
 1103TIP3    H124868   3.635   6.431   1.114  0.5937  1.9858  0.4704
 1103TIP3    H224869   3.711   6.414   1.243 -0.1789 -1.1873  0.5892
 1104TIP3   OH224870   4.057   5.178   1.565 -0.2508  0.0190 -0.2747
 1104TIP3    H124871   4.142   5.188   1.522  0.0355  1.1060  0.5150
 1104TIP3    H224872   4.053   5.086   1.590  0.6370 -0.0720 -0.4389
 1105TIP3   OH224873   2.349   3.908   0.985 -0.0890 -0.3348  0.1442
 1105TIP3    H124874   2.394   3.989   1.009 -0.8248  1.0592 -2.7948
 1105TIP3    H224875   2.256   3.929   0.995 -0.3055 -0.5668 -1.2501
 1106TIP3   OH224876   5.616   1.058   0.191 -0.4401  0.1341  0.2564
 1106TIP3    H124877   5.674   1.017   0.127  0.2821  0.6431  0.5557
 1106TIP3    H224878   5.673   1.119   0.238 -0.6227 -1.1858  2.2937
 1107TIP3   OH224879   1.040   1.685   1.299  0.1216  0.3365  0.2333
 1107TIP3    H124880   1.097   1.695   1.223  0.0044 -0.2925  0.0556
 1107TIP3    H224881   1.030   1.590   1.309  0.2441  0.4074  1.1110
 1108TIP3   OH224882   4.618   0.866   8.270  0.1733 -0.1652 -0.0496
 1108TIP3    H124883   4.708   0.835   8.257  0.4371  0.7825 -0.5213
 1108TIP3    H224884   4.588   0.891   8.183 -0.8300 -1.1811 -0.0243
 1109TIP3   OH224885   1.653   3.189   2.797 -0.4231  0.5490  0.3319
 1109TIP3    H124886   1.712   3.118   2.820 -0.4285  0.7895  1.1209
 1109TIP3    H224887   1.708   3.250   2.747  0.2342  1.1516  1.7258
 1110TIP3   OH224888   3.416   0.104   8.760 -0.1449 -0.2036  0.3500
 1110TIP3    H124889   3.422   0.132   8.851  1.3640 -3.5065  1.4212
 1110TIP3    H224890   3.506   0.108   8.727 -0.0600 -2.3105  0.1824
 1111TIP3   OH224891   3.587   4.030   1.868 -0.1070  0.0972 -0.0058
 1111TIP3    H124892   3.586   3.989   1.782  3.2145  1.0782 -0.6570
 1111TIP3    H224893   3.620   3.962   1.926 -0.7938 -0.0552  0.2248
 1112TIP3   OH224894   2.066   5.257   7.527  0.1588  0.1471 -0.3587
 1112TIP3    H124895   2.161   5.261   7.540  0.2977 -0.1560 -1.2319
 1112TIP3    H224896   2.042   5.168   7.555  0.1708  0.1402 -0.3707
 1113TIP3   OH224897   3.604   1.556   2.090  0.3420  0.2353  0.1791
 1113TIP3    H124898   3.631   1.643   2.119 -0.5209  1.0332 -1.2921
 1113TIP3    H224899   3.630   1.498   2.161  0.7070  1.7272  1.3118
 1114TIP3   OH224900   2.063   0.361   8.181 -0.2503  0.1522 -0.3638
 1114TIP3    H124901   2.122   0.324   8.247  1.3836  0.9433 -1.3218
 1114TIP3    H224902   2.013   0.427   8.228 -2.4282 -2.3536  1.1148
 1115TIP3   OH224903   3.711   4.583   1.011  0.2632 -0.1511 -0.3381
 1115TIP3    H124904   3.638   4.563   1.070  0.0728  2.2574  0.3856
 1115TIP3    H224905   3.787   4.543   1.052 -0.1477  0.0451  0.6492
 1116TIP3   OH224906   1.607   4.581   7.701  0.0432  0.0225  0.4753
 1116TIP3    H124907   1.572   4.524   7.769  0.5407  1.6263  2.1375
 1116TIP3    H224908   1.638   4.521   7.633 -2.8366 -1.5550  0.4038
 1117TIP3   OH224909   5.535   2.300   2.415  0.1651  0.1215 -0.2207
 1117TIP3    H124910   5.625   2.286   2.444 -0.8697 -0.9545  2.8662
 1117TIP3    H224911   5.533   2.262   2.327  2.4196 -0.9757  0.1128
 1118TIP3   OH224912   2.666   1.502   1.747 -0.6180 -0.1234  0.4638
 1118TIP3    H124913   2.663   1.581   1.801 -1.7579 -0.3657  0.7878
 1118TIP3    H224914   2.607   1.441   1.791 -0.4123 -0.8534 -0.2553
 1119TIP3   OH224915   5.136   3.553   8.645 -0.7761  0.5130 -0.0612
 1119TIP3    H124916   5.091   3.489   8.591 -1.0239 -1.1803  2.0126
 1119TIP3    H224917   5.184   3.607   8.583 -1.4091 -0.9942 -1.9744
 1120TIP3   OH224918   5.141   6.024   8.342 -0.3292  0.1191 -0.5958
 1120TIP3    H124919   5.176   5.979   8.265  1.9603  2.5424 -1.1207
 1120TIP3    H224920   5.064   6.071   8.309 -0.6655 -0.5989 -0.8548
 1121TIP3   OH224921   6.419   4.938   7.207  0.5391  0.0994 -0.8281
 1121TIP3    H124922   6.403   5.031   7.221 -1.0390 -0.3260  0.5138
 1121TIP3    H224923   6.502   4.935   7.160  0.9352  2.1505 -0.3662
 1122TIP3   OH224924   4.091   3.841   2.413 -0.3713 -0.3808  0.2234
 1122TIP3    H124925   4.062   3.766   2.465  0.3062 -2.1951 -1.8848
 1122TIP3    H224926   4.015   3.865   2.361 -0.7618  0.8337  1.2961
 1123TIP3   OH224927   5.305   0.897   0.842  0.3675 -0.0644 -0.5181
 1123TIP3    H124928   5.221   0.941   0.853  0.6781  0.5458 -0.5308
 1123TIP3    H224929   5.360   0.933   0.911  0.5547 -0.6288 -0.3652
 1124TIP3   OH224930   3.541   2.502   1.429  0.1914 -0.0821  0.2198
 1124TIP3    H124931   3.518   2.540   1.513 -0.7523 -0.0006 -0.0639
 1124TIP3    H224932   3.566   2.577   1.375 -1.0374  0.0866 -0.1400
 1125TIP3   OH224933   5.674   6.506   7.831  0.2786  0.0870  0.0300
 1125TIP3    H124934   5.612   6.474   7.896 -1.3234  1.2032 -0.8949
 1125TIP3    H224935   5.666   6.602   7.835  1.7593  0.2556 -0.3130
 1126TIP3   OH224936   3.913   1.101   8.487  0.2518 -0.4968 -0.5135
 1126TIP3    H124937   3.932   1.036   8.554  0.5083  0.0707 -0.0254
 1126TIP3    H224938   3.962   1.178   8.514 -0.0735 -0.0904 -1.0652
 1127TIP3   OH224939   1.198   0.637   7.742 -0.1028  0.0498  0.1198
 1127TIP3    H124940   1.268   0.572   7.744  0.3461  0.5442  0.7035
 1127TIP3    H224941   1.180   0.650   7.649 -1.7359 -2.5319 -0.0398
 1128TIP3   OH224942   3.740   3.109   1.246 -0.0531 -0.6391 -0.6220
 1128TIP3    H124943   3.668   3.156   1.204 -1.0228 -1.2727  0.2699
 1128TIP3    H224944   3.775   3.171   1.310 -0.3950 -0.6221 -0.4466
 1129TIP3   OH224945   5.664   6.108   1.193 -1.0757 -0.4738 -0.0204
 1129TIP3    H124946   5.753   6.111   1.227 -1.3030  1.4078  0.5300
 1129TIP3    H224947   5.619   6.044   1.249  0.1924 -2.4594 -1.1478
 1130TIP3   OH224948   0.233   4.653   0.010  0.2308  0.0005 -0.4771
 1130TIP3    H124949   0.170   4.616  -0.052 -0.6222  0.5203  0.0688
 1130TIP3    H224950   0.297   4.583   0.024 -0.4649 -0.6899 -0.6987
 1131TIP3   OH224951   6.050   0.596   6.598  0.4030 -0.4440 -0.0488
 1131TIP3    H124952   5.961   0.629   6.612  1.0654  0.3104  3.0047
 1131TIP3    H224953   6.038   0.518   6.543 -1.8750  0.8424 -1.5549
 1132TIP3   OH224954   0.624   4.385   2.863 -0.5866  0.1266  0.3951
 1132TIP3    H124955   0.700   4.427   2.823 -0.7183  1.7549  1.7464
 1132TIP3    H224956   0.661   4.320   2.923 -0.3555 -1.0223 -0.9511
 1133TIP3   OH224957   0.820   1.690   0.766 -0.3173 -0.1651 -0.6682
 1133TIP3    H124958   0.892   1.629   0.782 -0.1842  0.1919  0.1116
 1133TIP3    H224959   0.863   1.774   0.750 -0.5788  0.1934  0.4775
 1134TIP3   OH224960   0.325   3.878   0.793  0.1034 -0.3671  0.5799
 1134TIP3    H124961   0.276   3.956   0.766 -0.4922 -1.0868 -0.4362
 1134TIP3    H224962   0.351   3.898   0.883 -3.1071 -0.4250  1.6640
 1135TIP3   OH224963   2.437   3.873   1.587  0.4254  0.5077  0.3734
 1135TIP3    H124964   2.386   3.882   1.506  1.4445 -0.0069 -0.3502
 1135TIP3    H224965   2.517   3.829   1.559  1.0876  0.9459  1.5583
 1136TIP3   OH224966   5.299   0.911   1.843  0.2400  0.1211  0.2812
 1136TIP3    H124967   5.248   0.990   1.827  1.8462  1.0590 -0.3263
 1136TIP3    H224968   5.282   0.890   1.935  0.2736  1.5092  0.6175
 1137TIP3   OH224969   1.506   2.127   8.505 -0.3435  0.0855  0.3406
 1137TIP3    H124970   1.572   2.066   8.471 -0.5524  1.0979 -2.0280
 1137TIP3    H224971   1.534   2.143   8.596  2.7516  0.5189 -0.5599
 1138TIP3   OH224972   6.724   3.860   8.204 -0.2867  0.0710 -0.1924
 1138TIP3    H124973   6.737   3.774   8.165 -1.5233  0.4007 -1.4031
 1138TIP3    H224974   6.784   3.918   8.157  1.2687 -0.2422  1.2768
 1139TIP3   OH224975   0.267   5.069   3.132 -0.2230  0.1768 -0.0286
 1139TIP3    H124976   0.327   5.140   3.109 -0.5784  1.4508  2.5260
 1139TIP3    H224977   0.321   5.004   3.176 -0.2827  0.0775 -0.1020
 1140TIP3   OH224978   0.013   0.145   2.215  0.1877  0.2314 -0.2785
 1140TIP3    H124979  -0.026   0.071   2.169 -2.7201 -0.5947  3.0258
 1140TIP3    H224980  -0.045   0.219   2.194  0.9715  0.7294 -0.7418
 1141TIP3   OH224981   0.065   2.822   0.688 -0.2424 -0.5426  0.0552
 1141TIP3    H124982   0.050   2.845   0.596  1.7247 -0.4382 -0.2775
 1141TIP3    H224983   0.160   2.816   0.696 -0.4314 -3.7304  1.3156
 1142TIP3   OH224984   5.032   6.800   2.751 -0.4429  0.6659  0.5035
 1142TIP3    H124985   4.945   6.762   2.766  0.0776 -0.0125  2.0608
 1142TIP3    H224986   5.041   6.866   2.820 -0.3624  1.9300 -0.6796
 1143TIP3   OH224987   5.671   1.226   0.407 -0.1222  0.5401  0.2228
 1143TIP3    H124988   5.614   1.302   0.392  0.3306  0.5689 -1.5987
 1143TIP3    H224989   5.752   1.263   0.440 -0.0750  0.8035 -0.1852
 1144TIP3   OH224990   1.720   5.636   1.913  0.2021 -0.3691  0.3017
 1144TIP3    H124991   1.802   5.637   1.964 -0.5443 -1.7291  1.6312
 1144TIP3    H224992   1.717   5.548   1.875 -0.3177 -0.0889 -0.3262
 1145TIP3   OH224993   0.307   3.488   8.107  0.4295  0.5242  0.6063
 1145TIP3    H124994   0.295   3.580   8.129 -2.4358  0.3352  0.2925
 1145TIP3    H224995   0.248   3.473   8.033  1.6860 -1.3200 -0.0873
 1146TIP3   OH224996   2.455   4.402   0.127 -0.5104  0.3931  0.7293
 1146TIP3    H124997   2.381   4.368   0.075  0.8798 -1.3418 -0.2161
 1146TIP3    H224998   2.514   4.439   0.062  1.7937 -2.7977  0.7778
 1147TIP3   OH224999   5.124   3.839   0.257 -0.3537  0.4909 -0.6126
 1147TIP3    H125000   5.190   3.822   0.190 -0.1171 -1.0128 -0.0424
 1147TIP3    H225001   5.051   3.782   0.233 -0.3145  0.0340  0.2992
 1148TIP3   OH225002   3.896   6.726   7.443 -0.3758 -0.3106 -0.0333
 1148TIP3    H125003   3.980   6.773   7.442 -1.6210  2.0601 -0.5311
 1148TIP3    H225004   3.918   6.639   7.412  1.8571  0.3443 -0.5324
 1149TIP3   OH225005   3.549   6.764   8.503 -0.1453  0.7395 -0.0736
 1149TIP3    H125006   3.470   6.818   8.508 -0.4957  0.3689 -1.3551
 1149TIP3    H225007   3.581   6.776   8.414 -0.3601 -1.3568 -0.4671
 1150TIP3   OH225008   1.223   3.546   0.172  0.0448  0.3134 -0.1835
 1150TIP3    H125009   1.230   3.513   0.083 -3.0273 -0.9501 -0.0802
 1150TIP3    H225010   1.225   3.467   0.227  0.8158  0.9892  0.8070
 1151TIP3   OH225011   5.771   3.370   6.898  0.3638  0.1064 -0.1007
 1151TIP3    H125012   5.678   3.347   6.893  0.8100 -1.5707 -1.6751
 1151TIP3    H225013   5.808   3.342   6.814  1.8038  3.2662 -0.6935
 1152TIP3   OH225014   0.641   6.211   1.091 -0.3797 -0.5931 -0.3508
 1152TIP3    H125015   0.712   6.245   1.146 -0.5516  0.2631 -0.6410
 1152TIP3    H225016   0.601   6.143   1.144 -1.3052  1.0072  1.1140
 1153TIP3   OH225017   2.337   1.333   8.353  0.2850 -0.2237  0.6884
 1153TIP3    H125018   2.358   1.311   8.444  3.4097 -2.2723 -0.3564
 1153TIP3    H225019   2.269   1.271   8.329 -0.5998  0.3615  1.6046
 1154TIP3   OH225020   0.548   4.036   8.185 -0.3365  0.5211 -0.2853
 1154TIP3    H125021   0.494   4.020   8.108 -0.4953  2.4649 -0.6233
 1154TIP3    H225022   0.628   4.077   8.151 -0.2169  0.9939  0.5257
 1155TIP3   OH225023   3.523   2.398   1.810 -0.3238 -0.0078 -0.4187
 1155TIP3    H125024   3.508   2.406   1.904 -1.2682  1.0748 -0.6265
 1155TIP3    H225025   3.587   2.328   1.801  0.9013  0.8550  1.1212
 1156TIP3   OH225026   4.719   1.307   2.884  0.1286 -0.3902 -0.5930
 1156TIP3    H125027   4.774   1.372   2.840 -1.0523  0.5930 -0.6762
 1156TIP3    H225028   4.762   1.291   2.968 -0.3466  1.7066  0.1125
 1157TIP3   OH225029   4.666   0.378   0.679 -0.2107  0.2655  0.1486
 1157TIP3    H125030   4.645   0.286   0.697  1.5591 -0.1046  0.4878
 1157TIP3    H225031   4.733   0.374   0.611 -0.1957  1.3288  0.0832
 1158TIP3   OH225032   0.070   1.114   0.103 -0.2225  0.6834 -0.5207
 1158TIP3    H125033   0.048   1.154   0.019 -0.0942 -0.5978 -1.1890
 1158TIP3    H225034   0.116   1.034   0.080  1.2676  1.1132  0.8013
 1159TIP3   OH225035   5.910   0.863   1.468 -0.5892  0.0116 -0.0906
 1159TIP3    H125036   6.001   0.866   1.498 -0.3422  1.6798 -0.8694
 1159TIP3    H225037   5.868   0.799   1.525  0.7469  0.2509  1.2388
 1160TIP3   OH225038   5.239   3.264   0.136  0.1662  0.2535  0.2469
 1160TIP3    H125039   5.305   3.203   0.102 -0.3345  0.1173 -0.5054
 1160TIP3    H225040   5.252   3.344   0.085  0.4708  0.6040  0.8640
 1161TIP3   OH225041   6.664   4.409   2.411  0.5626 -0.2969  0.1552
 1161TIP3    H125042   6.713   4.412   2.493  0.9897  0.3170 -0.1192
 1161TIP3    H225043   6.630   4.319   2.408 -0.4935  0.0079  1.5902
 1162TIP3   OH225044   4.463   1.430   1.660 -0.8975 -0.5032 -0.2945
 1162TIP3    H125045   4.527   1.501   1.668 -0.9910 -0.5262  0.8181
 1162TIP3    H225046   4.384   1.473   1.626 -0.5758 -0.3103 -0.8110
 1163TIP3   OH225047   1.001   3.060   0.586  0.0141  0.0822 -0.4593
 1163TIP3    H125048   0.993   2.981   0.533  0.8670 -0.5323  0.3014
 1163TIP3    H225049   0.960   3.129   0.533 -1.0753 -0.9323 -0.9566
 1164TIP3   OH225050   6.128   6.053   2.160 -0.2940  0.1449  0.3653
 1164TIP3    H125051   6.123   5.965   2.122  0.4307 -0.2711  1.1843
 1164TIP3    H225052   6.126   6.112   2.085  0.6380 -0.6306 -0.2904
 1165TIP3   OH225053   4.254   6.756   1.748 -0.2526 -0.0346  0.0749
 1165TIP3    H125054   4.211   6.837   1.775 -2.1019 -1.5562  2.0369
 1165TIP3    H225055   4.334   6.753   1.801 -0.7620 -0.0193  0.8652
 1166TIP3   OH225056   3.923   0.049   8.071 -0.2388  0.2501  0.6408
 1166TIP3    H125057   3.983   0.016   8.138  2.5504  1.7595 -0.9139
 1166TIP3    H225058   3.948   0.002   7.991  0.6777  2.6419 -0.5809
 1167TIP3   OH225059   1.120   2.397   1.835  0.1383 -0.2442 -0.3068
 1167TIP3    H125060   1.032   2.382   1.871  0.1697 -0.7931 -0.4508
 1167TIP3    H225061   1.177   2.338   1.885  0.3231 -0.3650 -0.6579
 1168TIP3   OH225062   1.651   0.754   3.090  0.1719  0.3015  0.3651
 1168TIP3    H125063   1.645   0.677   3.146 -0.8312  0.3579  0.3507
 1168TIP3    H225064   1.582   0.812   3.122  1.4672  1.5992  0.9779
 1169TIP3   OH225065   4.897   5.891   2.221  0.9509 -0.0507 -0.2284
 1169TIP3    H125066   4.924   5.971   2.267  4.4930 -0.4975 -1.2780
 1169TIP3    H225067   4.979   5.850   2.195 -0.7500 -0.8126 -5.3080
 1170TIP3   OH225068   4.793   3.827   7.940 -0.0205 -0.5202 -0.1500
 1170TIP3    H125069   4.823   3.911   7.974 -1.3112  0.7062 -1.9027
 1170TIP3    H225070   4.697   3.835   7.937 -0.1897 -2.1705 -0.0693
 1171TIP3   OH225071   0.271   3.681   1.835 -0.6326 -0.0361  0.4941
 1171TIP3    H125072   0.361   3.692   1.864 -0.7459  1.5992  0.3398
 1171TIP3    H225073   0.236   3.611   1.890  0.7558 -0.8089  0.4457
 1172TIP3   OH225074   4.229   6.171   0.169  0.0827 -0.2151  0.2634
 1172TIP3    H125075   4.274   6.113   0.108 -1.3064 -1.2887  0.2225
 1172TIP3    H225076   4.143   6.131   0.183 -0.5685  1.3244  0.9884
 1173TIP3   OH225077   6.643   1.114   0.696  0.3753 -0.1742 -0.3780
 1173TIP3    H125078   6.608   1.182   0.639 -0.0667 -1.0837 -1.2345
 1173TIP3    H225079   6.717   1.154   0.741  0.0954  0.8641 -0.8370
 1174TIP3   OH225080   3.833   6.405   1.660  0.6557  0.2085 -0.0833
 1174TIP3    H125081   3.768   6.385   1.727 -2.3097  0.6817 -2.6358
 1174TIP3    H225082   3.874   6.321   1.640 -0.1706 -0.3691  0.5751
 1175TIP3   OH225083   3.705   2.014   8.244 -0.2094  0.7435  0.4634
 1175TIP3    H125084   3.611   2.020   8.263  0.0785  0.1780  2.2219
 1175TIP3    H225085   3.716   1.927   8.207 -0.4856  1.1413 -0.6041
 1176TIP3   OH225086   0.675   1.679   1.216 -0.0338  0.6143 -0.5382
 1176TIP3    H125087   0.730   1.756   1.205 -2.0027  2.0177 -1.2906
 1176TIP3    H225088   0.594   1.713   1.255 -0.7663 -1.1766 -0.3854
 1177TIP3   OH225089   4.605   3.357   0.847  0.0169  0.4539  0.7610
 1177TIP3    H125090   4.686   3.398   0.818  0.1965  0.3173  1.0666
 1177TIP3    H225091   4.599   3.379   0.940  0.1391 -0.2517  0.9380
 1178TIP3   OH225092   0.961   0.027   2.151 -0.4901  0.2445  0.4171
 1178TIP3    H125093   0.916  -0.048   2.110 -1.0176  0.6429  0.2620
 1178TIP3    H225094   1.053   0.015   2.126 -0.8210  0.5935 -1.0932
 1179TIP3   OH225095   5.073   2.877   7.717  0.3572  0.0018 -0.4068
 1179TIP3    H125096   4.999   2.899   7.660 -0.6621  1.6751  1.4423
 1179TIP3    H225097   5.060   2.931   7.795  2.1089 -1.6117  1.1017
 1180TIP3   OH225098   1.721   1.269   1.161  0.4268  0.5358  0.1619
 1180TIP3    H125099   1.762   1.200   1.214 -1.7359 -0.9262  0.0744
 1180TIP3    H225100   1.628   1.250   1.165  0.0178  1.3910 -2.7815
 1181TIP3   OH225101   5.495   0.882   8.709  0.4192 -0.7269  0.1563
 1181TIP3    H125102   5.422   0.877   8.771  1.1096 -2.3602  0.9162
 1181TIP3    H225103   5.491   0.799   8.661  2.6422 -1.6010  1.3044
 1182TIP3   OH225104   0.526   2.619   2.313 -0.3304 -0.0181  0.7348
 1182TIP3    H125105   0.517   2.707   2.275 -0.8215  0.6338  2.2686
 1182TIP3    H225106   0.608   2.622   2.361  1.1592 -1.3805 -1.5203
 1183TIP3   OH225107   3.832   4.592   1.791  0.2466 -0.5225  0.2652
 1183TIP3    H125108   3.835   4.600   1.887  0.9062  1.4713  0.1207
 1183TIP3    H225109   3.769   4.659   1.763  1.9861  0.7559 -0.8078
 1184TIP3   OH225110   3.931   6.438   1.093  0.0699  0.2935 -0.1524
 1184TIP3    H125111   4.008   6.472   1.048  0.8605 -1.2741 -0.0446
 1184TIP3    H225112   3.859   6.496   1.065  1.2718  1.8266 -0.1865
 1185TIP3   OH225113   3.605   6.414   8.576  0.1701  0.1695  0.1652
 1185TIP3    H125114   3.529   6.376   8.532 -0.3456 -0.5119  1.5902
 1185TIP3    H225115   3.642   6.342   8.627  0.9133  0.8632  0.6334
 1186TIP3   OH225116   2.424   6.799   1.715 -0.3262  0.1386 -0.6609
 1186TIP3    H125117   2.410   6.746   1.637 -1.0022  0.5126 -0.8022
 1186TIP3    H225118   2.515   6.783   1.739 -0.3769 -0.6979 -0.9838
 1187TIP3   OH225119   6.414   4.523   0.410 -0.2726  0.0314  0.1808
 1187TIP3    H125120   6.363   4.443   0.420 -1.7507  0.7346 -1.2944
 1187TIP3    H225121   6.349   4.592   0.399  0.9599  1.5636  1.9417
 1188TIP3   OH225122   3.174   4.946   1.758 -0.1589 -0.1214 -0.3706
 1188TIP3    H125123   3.254   4.909   1.719 -1.0476 -0.4560 -1.9662
 1188TIP3    H225124   3.141   5.007   1.692 -1.3249 -0.1281  0.1799
 1189TIP3   OH225125   6.072   2.653   2.024  0.2783  0.0509  0.1911
 1189TIP3    H125126   6.045   2.584   1.963  2.0033 -1.2290  0.7626
 1189TIP3    H225127   5.991   2.693   2.054 -0.7175 -0.9823 -1.0164
 1190TIP3   OH225128   0.043   0.446   2.830  0.0060 -0.1579  0.0940
 1190TIP3    H125129   0.047   0.508   2.902  1.5643  0.1952 -0.2575
 1190TIP3    H225130   0.049   0.360   2.872  0.8679  0.0455  0.3989
 1191TIP3   OH225131   6.481   6.513   2.618 -0.1464  0.5110  0.5201
 1191TIP3    H125132   6.480   6.485   2.710 -0.8861  1.6352  0.8744
 1191TIP3    H225133   6.470   6.608   2.622 -1.4525  0.4432 -0.7789
 1192TIP3   OH225134   4.477   5.563   2.996 -0.5625  0.6125 -0.4319
 1192TIP3    H125135   4.527   5.620   3.055 -0.7863  0.3389  0.0285
 1192TIP3    H225136   4.416   5.623   2.952  0.9399  1.1537 -1.8870
 1193TIP3   OH225137   6.157   5.315   8.556  0.3214  0.4042 -0.7811
 1193TIP3    H125138   6.179   5.345   8.644  1.1864 -1.1146 -0.4511
 1193TIP3    H225139   6.228   5.347   8.501 -0.4401  1.7256 -1.0317
 1194TIP3   OH225140   1.754   0.289   1.913  0.2622  0.4463 -0.0355
 1194TIP3    H125141   1.662   0.263   1.913  0.3253  0.2189  0.5057
 1194TIP3    H225142   1.753   0.381   1.889 -0.1722  0.6653  0.7997
 1195TIP3   OH225143   6.214   6.531   7.520 -0.2040 -0.3259 -0.2644
 1195TIP3    H125144   6.234   6.449   7.564  0.8810 -0.6602 -1.3226
 1195TIP3    H225145   6.176   6.586   7.588 -1.0790 -1.7335  0.4370
 1196TIP3   OH225146   2.327   3.766   8.538  0.1920 -0.3043  0.0223
 1196TIP3    H125147   2.251   3.735   8.587 -0.6602 -2.9277 -2.6554
 1196TIP3    H225148   2.358   3.689   8.490  1.6262  1.7546 -2.6556
 1197TIP3   OH225149   2.869   2.515   7.680  0.0656  0.5543 -0.3108
 1197TIP3    H125150   2.884   2.525   7.586 -0.7917 -0.8298 -0.6146
 1197TIP3    H225151   2.883   2.422   7.697 -0.5849  0.6422  0.7874
 1198TIP3   OH225152   1.134   2.770   8.111 -0.1838 -0.5849  0.0625
 1198TIP3    H125153   1.130   2.865   8.099 -0.0973 -0.6937 -0.9259
 1198TIP3    H225154   1.073   2.735   8.045 -0.9659 -1.1782  1.0629
 1199TIP3   OH225155   2.518   5.773   3.060 -0.1964  0.0274 -0.2054
 1199TIP3    H125156   2.476   5.741   2.980 -1.5220  0.0011  0.4754
 1199TIP3    H225157   2.586   5.707   3.078 -0.3466 -0.3410 -0.9207
 1200TIP3   OH225158   2.985   2.056   1.329  0.1964  0.2415  0.1484
 1200TIP3    H125159   2.946   2.106   1.401 -2.8729  0.3806 -1.4159
 1200TIP3    H225160   3.028   2.122   1.275 -0.6335  0.6862  0.0090
 1201TIP3   OH225161   2.164   6.335   0.284 -0.0146  0.3972 -0.8166
 1201TIP3    H125162   2.158   6.240   0.278  1.8085  0.1745 -0.0003
 1201TIP3    H225163   2.169   6.365   0.194 -0.6214 -0.2705 -1.0816
 1202TIP3   OH225164   0.695   2.151   1.477  0.1769  0.1532  0.3998
 1202TIP3    H125165   0.665   2.242   1.478 -1.8238 -0.4753  0.2967
 1202TIP3    H225166   0.647   2.110   1.406  1.9366 -0.7542 -0.3395
 1203TIP3   OH225167   3.383   5.543   2.533 -0.1843  0.4497 -0.7093
 1203TIP3    H125168   3.469   5.538   2.574 -0.1894 -0.6966 -0.7950
 1203TIP3    H225169   3.400   5.579   2.446  0.4730 -1.3096 -1.3485
 1204TIP3   OH225170   1.143   5.223   7.429  0.0049 -0.5966 -1.0210
 1204TIP3    H125171   1.119   5.245   7.339 -0.6285 -1.3443 -1.0486
 1204TIP3    H225172   1.088   5.279   7.484  1.7842  1.2867 -1.0762
 1205TIP3   OH225173   6.594   0.292   7.383  0.1540 -0.4490 -0.5437
 1205TIP3    H125174   6.516   0.259   7.339 -0.8601 -0.1705  0.9685
 1205TIP3    H225175   6.648   0.327   7.312 -1.4347  0.0601 -1.5649
 1206TIP3   OH225176   1.264   6.132   0.221 -0.1283 -0.5335 -0.1108
 1206TIP3    H125177   1.344   6.180   0.201  1.4362 -1.5168  3.1142
 1206TIP3    H225178   1.278   6.045   0.182 -1.1219  0.2195 -2.2991
 1207TIP3   OH225179   6.242   5.634   0.732  0.0556 -0.2920 -0.0099
 1207TIP3    H125180   6.238   5.610   0.640 -0.8733  1.2915 -0.4253
 1207TIP3    H225181   6.151   5.643   0.759  0.3046 -1.3507  1.2488
 1208TIP3   OH225182   0.279   4.545   7.929  0.7664 -0.0706  0.4936
 1208TIP3    H125183   0.351   4.556   7.867 -0.1977 -2.0003 -1.1172
 1208TIP3    H225184   0.306   4.473   7.985  0.5553 -0.0893  0.5724
 1209TIP3   OH225185   4.609   5.872   1.580 -0.0492  0.0159  0.5810
 1209TIP3    H125186   4.650   5.787   1.597 -1.9962 -0.9240  0.8883
 1209TIP3    H225187   4.675   5.936   1.605  1.5442 -1.3925  0.1681
 1210TIP3   OH225188   6.098   3.624   0.803  0.5902 -0.3904  0.5303
 1210TIP3    H125189   6.011   3.626   0.765  0.7255 -0.8628  0.1771
 1210TIP3    H225190   6.085   3.641   0.896  0.2681  0.9320  0.2628
 1211TIP3   OH225191   6.479   5.635   8.277  0.6991 -0.1315 -0.3529
 1211TIP3    H125192   6.412   5.570   8.256  0.4213 -0.3054  0.9904
 1211TIP3    H225193   6.561   5.594   8.251  0.3807 -0.3154 -1.1053
 1212TIP3   OH225194   2.173   1.400   0.575  0.0328  0.2825 -0.2483
 1212TIP3    H125195   2.125   1.324   0.606 -0.0930  0.8375  1.0116
 1212TIP3    H225196   2.250   1.364   0.532  0.0963 -0.5567  0.5310
 1213TIP3   OH225197   6.080   5.969   0.166 -0.2098  0.3380 -0.1724
 1213TIP3    H125198   6.140   6.027   0.119 -2.1202  2.5857 -0.0177
 1213TIP3    H225199   6.107   5.977   0.258 -0.1716  0.6205 -0.2069
 1214TIP3   OH225200   1.496   2.577   8.304 -0.2048  0.1757 -0.2893
 1214TIP3    H125201   1.535   2.574   8.391 -0.6955 -0.3988 -0.0762
 1214TIP3    H225202   1.447   2.659   8.302  0.7477  0.7503 -0.4523
 1215TIP3   OH225203   4.786   2.232   0.023  0.7310 -0.2009  0.3748
 1215TIP3    H125204   4.877   2.264   0.023  0.6954 -0.0909  0.9915
 1215TIP3    H225205   4.756   2.245   0.113  0.7305 -2.0620  0.6811
 1216TIP3   OH225206   4.857   4.164   7.447 -0.9024  0.3529  0.1270
 1216TIP3    H125207   4.937   4.187   7.494 -0.6885  2.1036 -1.0087
 1216TIP3    H225208   4.882   4.088   7.394 -0.4342 -0.0325  0.8751
 1217TIP3   OH225209   3.275   6.601   7.550 -0.7315 -0.0408 -0.0251
 1217TIP3    H125210   3.244   6.689   7.533  0.2592  0.2171 -0.5747
 1217TIP3    H225211   3.346   6.587   7.487 -0.7428 -1.1563  0.1730
 1218TIP3   OH225212   0.222   1.784   7.673 -0.4261 -0.1099 -0.0960
 1218TIP3    H125213   0.155   1.830   7.724 -0.7100 -2.2687  1.6171
 1218TIP3    H225214   0.209   1.813   7.583 -2.3927  0.9695  0.4918
 1219TIP3   OH225215   6.470   0.743   7.140  0.1080  0.1000 -0.2703
 1219TIP3    H125216   6.504   0.830   7.158 -0.4774  0.5460 -1.2325
 1219TIP3    H225217   6.515   0.716   7.060  0.5888 -0.6626  0.2442
 1220TIP3   OH225218   0.757   6.133   8.430  0.6717 -0.3087 -0.1208
 1220TIP3    H125219   0.715   6.190   8.365  0.8619 -0.6661 -0.5623
 1220TIP3    H225220   0.804   6.068   8.378  0.1755 -1.0797  0.3853
 1221TIP3   OH225221   1.230   3.532   2.567  0.0564  0.0222  0.5262
 1221TIP3    H125222   1.272   3.613   2.538  2.7627 -1.3783  0.1833
 1221TIP3    H225223   1.216   3.545   2.661  1.3340  0.5606  0.6639
 1222TIP3   OH225224   1.882   4.031   1.312 -0.4441 -0.1898  0.9270
 1222TIP3    H125225   1.830   4.060   1.236  1.6014  0.3496 -0.3374
 1222TIP3    H225226   1.824   3.972   1.359 -1.0165 -2.6218 -2.4337
 1223TIP3   OH225227   6.052   3.140   7.483 -0.0777  0.2239  0.1679
 1223TIP3    H125228   6.109   3.112   7.411 -0.3821 -0.4907  0.1901
 1223TIP3    H225229   6.002   3.213   7.448 -1.7179 -1.4137 -1.0640
 1224TIP3   OH225230   5.928   3.750   8.080 -0.3584  0.4723 -0.1367
 1224TIP3    H125231   5.943   3.762   7.987  1.6891  0.9220  0.2013
 1224TIP3    H225232   5.960   3.662   8.099  1.4297  1.2107  0.4988
 1225TIP3   OH225233   5.640   1.092   7.992 -0.4863  0.4349  0.2217
 1225TIP3    H125234   5.719   1.106   7.939 -0.8649 -1.6205 -0.9871
 1225TIP3    H225235   5.625   0.998   7.988 -2.9078  0.7522  0.5442
 1226TIP3   OH225236   6.788   3.378   1.864  0.1176 -0.5386  0.5570
 1226TIP3    H125237   6.723   3.405   1.799  0.5314 -0.9664 -0.0413
 1226TIP3    H225238   6.815   3.291   1.836 -0.2754 -1.0720  1.7621
 1227TIP3   OH225239   1.010   4.362   0.166 -0.3541  0.1445 -0.2650
 1227TIP3    H125240   0.923   4.370   0.204 -0.5353 -0.9299 -0.4275
 1227TIP3    H225241   1.024   4.267   0.156  0.7758  0.3029 -0.3572
 1228TIP3   OH225242   3.348   2.153   8.683 -0.0299 -0.7866 -0.4959
 1228TIP3    H125243   3.425   2.171   8.629  2.1051 -1.5298  2.0492
 1228TIP3    H225244   3.331   2.235   8.729  0.6167 -1.1592  0.4590
 1229TIP3   OH225245   2.983   1.015   8.584 -0.6151 -0.3356 -0.0068
 1229TIP3    H125246   2.926   1.009   8.507 -0.9778 -1.5667  0.3391
 1229TIP3    H225247   3.046   1.083   8.562 -0.9291 -0.4282 -1.2511
 1230TIP3   OH225248   5.962   6.072   8.361 -0.4805  0.2692  0.1128
 1230TIP3    H125249   5.965   6.013   8.437 -1.3852  0.9610  0.7221
 1230TIP3    H225250   6.047   6.062   8.319  0.8046  1.2746  2.3204
 1231TIP3   OH225251   5.870   5.409   2.130 -0.6760  0.1951 -0.4656
 1231TIP3    H125252   5.897   5.367   2.212 -0.5300 -0.2255 -0.7247
 1231TIP3    H225253   5.796   5.465   2.154 -0.6953 -0.0033 -0.0648
 1232TIP3   OH225254   2.532   1.478   8.210 -0.2040  0.3365 -0.2093
 1232TIP3    H125255   2.473   1.410   8.243  0.3152 -0.5755 -1.1079
 1232TIP3    H225256   2.601   1.430   8.165  0.5719  1.4419 -0.2322
 1233TIP3   OH225257   5.269   3.212   1.995 -0.1531 -0.1690 -0.3446
 1233TIP3    H125258   5.330   3.255   1.935  0.5958 -0.8031 -0.0513
 1233TIP3    H225259   5.260   3.123   1.960 -0.0831 -0.3996  0.2173
 1234TIP3   OH225260   1.020   1.434   1.054 -0.2660  0.2215  0.3856
 1234TIP3    H125261   1.045   1.365   1.115 -0.4844  1.2828  1.7286
 1234TIP3    H225262   0.957   1.487   1.103 -2.0676 -0.0621 -1.4955
 1235TIP3   OH225263   5.309   3.702   0.682 -0.2903 -0.7063 -0.3843
 1235TIP3    H125264   5.291   3.713   0.589 -1.3279 -1.3953 -0.2844
 1235TIP3    H225265   5.226   3.723   0.725 -0.3479 -2.1374  0.2439
 1236TIP3   OH225266   1.724   5.083   8.045  0.1721  0.4649  0.4320
 1236TIP3    H125267   1.652   5.020   8.049  0.5268  0.1139  1.9201
 1236TIP3    H225268   1.721   5.128   8.130  0.9431  1.3057  0.0294
 1237TIP3   OH225269   3.404   1.424   1.084  0.1861 -0.4904 -0.6994
 1237TIP3    H125270   3.438   1.348   1.131  0.5456 -1.0455 -1.8274
 1237TIP3    H225271   3.317   1.439   1.123  0.2918 -1.1975 -0.1640
 1238TIP3   OH225272   0.192   0.252   2.963 -0.5632  0.4060 -0.6748
 1238TIP3    H125273   0.207   0.241   3.057 -3.0340  0.0070 -0.2472
 1238TIP3    H225274   0.142   0.175   2.937 -1.1881  1.2150 -1.9919
 1239TIP3   OH225275   1.697   3.957   7.305 -0.2180 -0.3803 -0.0175
 1239TIP3    H125276   1.719   3.892   7.371  1.9919  0.4343  0.1482
 1239TIP3    H225277   1.636   3.913   7.247  1.1143 -2.5919  0.1431
 1240TIP3   OH225278   4.253   2.249   8.405  0.6000  0.1606  0.0233
 1240TIP3    H125279   4.248   2.331   8.455  0.4258  0.4190 -0.4182
 1240TIP3    H225280   4.237   2.181   8.471  0.5740  0.4874  0.3611
 1241TIP3   OH225281   5.212   6.704   7.290 -0.4505  0.0697 -0.1480
 1241TIP3    H125282   5.216   6.792   7.253 -0.7253 -0.0368 -0.4422
 1241TIP3    H225283   5.219   6.646   7.214 -2.9146 -0.1515 -0.2856
 1242TIP3   OH225284   5.159   4.570   0.178  0.3673  0.0450 -0.3101
 1242TIP3    H125285   5.114   4.506   0.232  0.0515  0.4788 -0.0524
 1242TIP3    H225286   5.240   4.590   0.226  0.0060  0.5599  0.1022
 1243TIP3   OH225287   2.260   6.490   8.202  0.0454  0.0208  0.1289
 1243TIP3    H125288   2.339   6.442   8.177  0.4327  0.5004  0.4206
 1243TIP3    H225289   2.199   6.473   8.130  0.0552 -1.1592  0.3652
 1244TIP3   OH225290   4.219   5.828   0.041 -0.6537 -0.2587  0.0789
 1244TIP3    H125291   4.185   5.810   0.128 -0.4271 -0.8581  0.0522
 1244TIP3    H225292   4.304   5.869   0.056 -0.4913 -0.6141  0.1434
 1245TIP3   OH225293   5.129   2.053   1.362  0.1897  0.2850 -0.1892
 1245TIP3    H125294   5.156   2.118   1.426  1.9025  0.2796 -0.8506
 1245TIP3    H225295   5.037   2.074   1.342  0.2429  1.4944  0.7674
 1246TIP3   OH225296   5.454   2.973   2.771  0.2241  0.2029  0.1194
 1246TIP3    H125297   5.401   2.982   2.850 -1.5573  0.1099 -0.9954
 1246TIP3    H225298   5.533   3.024   2.788 -0.1763  0.2745  1.8945
 1247TIP3   OH225299   5.339   2.501   2.116  0.9248  0.1187  0.2303
 1247TIP3    H125300   5.310   2.539   2.199 -0.0085  2.3365 -1.0491
 1247TIP3    H225301   5.306   2.411   2.119 -1.1026  0.8225  1.3115
 1248TIP3   OH225302   6.754   1.410   8.181 -0.4485 -0.2440 -0.3212
 1248TIP3    H125303   6.768   1.353   8.105 -1.2718 -3.4311  1.6933
 1248TIP3    H225304   6.661   1.433   8.176 -0.1143  1.0198 -1.1402
 1249TIP3   OH225305   6.146   1.564   7.752 -0.0187 -0.3502 -0.1762
 1249TIP3    H125306   6.215   1.623   7.720  2.0127 -1.9466  0.9931
 1249TIP3    H225307   6.070   1.584   7.698  1.1330  2.0113 -1.0544
 1250TIP3   OH225308   1.433   2.984   1.007  0.1979 -0.1592 -0.1258
 1250TIP3    H125309   1.345   3.020   1.001 -0.3192 -1.4160 -0.3125
 1250TIP3    H225310   1.429   2.920   1.077  1.0560 -0.0053  0.0825
 1251TIP3   OH225311   3.378   0.128   7.661  0.5588  0.2969 -0.4255
 1251TIP3    H125312   3.302   0.107   7.716  1.9318  1.0594  1.8958
 1251TIP3    H225313   3.341   0.152   7.576 -1.8955  1.9370  1.0136
 1252TIP3   OH225314   2.593   0.618   0.044  0.0869 -0.2575 -0.3030
 1252TIP3    H125315   2.652   0.542   0.038 -0.1985 -0.4022 -1.4858
 1252TIP3    H225316   2.506   0.581   0.031 -0.4674 -0.2529  2.7628
 1253TIP3   OH225317   0.663   2.812   8.373 -0.4971 -0.4281 -0.7137
 1253TIP3    H125318   0.700   2.727   8.395 -0.6517 -0.9017 -2.2242
 1253TIP3    H225319   0.736   2.862   8.336 -0.1784  0.4571  0.9805
 1254TIP3   OH225320   3.257   4.251   0.760 -0.4581  0.5075 -0.3030
 1254TIP3    H125321   3.281   4.215   0.675  1.0642 -1.1469  0.7577
 1254TIP3    H225322   3.279   4.182   0.822 -0.1705  2.2012  1.5725
 1255TIP3   OH225323   1.459   4.730   0.326  0.5319 -0.7072 -0.5380
 1255TIP3    H125324   1.531   4.786   0.297  0.8749 -1.3589 -0.9711
 1255TIP3    H225325   1.425   4.773   0.404  0.5007  0.3420 -1.1171
 1256TIP3   OH225326   0.061   5.404   1.314  0.1164 -0.2874  0.0406
 1256TIP3    H125327  -0.026   5.391   1.276 -0.6310  2.8352  0.4158
 1256TIP3    H225328   0.091   5.488   1.279  2.0483 -0.2344  1.6138
 1257TIP3   OH225329   4.191   3.010   0.523  0.2841  0.2101  0.5986
 1257TIP3    H125330   4.214   2.987   0.433  1.3585 -1.6912  1.3163
 1257TIP3    H225331   4.136   3.088   0.514 -0.2105 -0.3347 -1.7341
 1258TIP3   OH225332   5.807   0.634   8.019 -0.2064 -0.3461  0.1604
 1258TIP3    H125333   5.832   0.690   8.092 -0.6274 -2.0170  1.6387
 1258TIP3    H225334   5.719   0.664   7.994  0.5379  1.2489 -0.7637
 1259TIP3   OH225335   6.314   1.303   7.377  0.0806  0.3033  0.4654
 1259TIP3    H125336   6.226   1.267   7.382  0.2906 -0.3878 -0.5305
 1259TIP3    H225337   6.357   1.252   7.309  0.8784  1.4195  0.0980
 1260TIP3   OH225338   5.888   4.428   2.943 -0.0042  0.1108  0.8648
 1260TIP3    H125339   5.849   4.502   2.897 -0.4633  0.1263  1.2733
 1260TIP3    H225340   5.924   4.466   3.023  0.3279 -0.0032  0.7719
 1261TIP3   OH225341   6.773   2.350   1.254 -0.0069 -0.4745  0.7742
 1261TIP3    H125342   6.696   2.363   1.308 -0.6827  0.3867 -0.3639
 1261TIP3    H225343   6.763   2.262   1.217 -0.9458 -0.0089 -0.1209
 1262TIP3   OH225344   5.707   6.598   8.177  0.2167  0.0407 -0.0094
 1262TIP3    H125345   5.711   6.694   8.179 -0.4512  0.0694  0.2321
 1262TIP3    H225346   5.772   6.570   8.242  0.5442  0.3242 -0.2145
 1263TIP3   OH225347   3.138   3.718   1.622 -0.6709  0.1269  0.0740
 1263TIP3    H125348   3.049   3.686   1.613 -0.4711 -0.7120  0.9242
 1263TIP3    H225349   3.129   3.810   1.644 -1.2805  0.4390 -1.3711
 1264TIP3   OH225350   0.974   6.022   2.384 -0.0494 -0.0202 -0.0076
 1264TIP3    H125351   1.006   5.994   2.470  0.4615  0.1026 -0.1538
 1264TIP3    H225352   0.997   6.114   2.379  1.1962 -0.3487 -0.8362
 1265TIP3   OH225353   5.386   0.798   7.452 -0.4279  0.1979  0.3129
 1265TIP3    H125354   5.358   0.887   7.474 -0.5391  0.0176  0.9105
 1265TIP3    H225355   5.427   0.766   7.532  0.9132  0.2243 -0.3392
 1266TIP3   OH225356   5.033   3.256   7.576 -0.1591  0.4405  0.0177
 1266TIP3    H125357   5.015   3.348   7.598 -0.6959  0.0207  1.4810
 1266TIP3    H225358   4.965   3.232   7.513 -0.1553  0.9672 -0.1911
 1267TIP3   OH225359   5.645   3.437   1.688  0.4548 -0.0971 -0.3342
 1267TIP3    H125360   5.630   3.508   1.627 -0.7955  0.7928  0.9360
 1267TIP3    H225361   5.740   3.426   1.689  0.6366  1.1919 -0.9563
 1268TIP3   OH225362   2.415   3.298   2.698  0.0534 -0.5614  1.0364
 1268TIP3    H125363   2.343   3.295   2.761 -0.4226  1.0824  0.6226
 1268TIP3    H225364   2.492   3.321   2.750 -0.1601 -0.1291  1.1644
 1269TIP3   OH225365   3.036   0.045   8.597  0.2854 -0.5394 -0.4331
 1269TIP3    H125366   3.053  -0.004   8.678  0.2526  0.7831  0.4040
 1269TIP3    H225367   2.993   0.125   8.626 -0.5939 -0.4601 -1.8615
 1270TIP3   OH225368   6.739   2.661   1.198 -0.3542 -0.4780 -0.6870
 1270TIP3    H125369   6.829   2.629   1.200  0.0236  0.5804  0.1868
 1270TIP3    H225370   6.710   2.657   1.289 -2.1447 -3.2884 -1.2397
 1271TIP3   OH225371   2.635   6.397   0.333 -0.0059  0.2448  0.3231
 1271TIP3    H125372   2.621   6.375   0.424 -0.7522  1.0243  0.4120
 1271TIP3    H225373   2.680   6.321   0.296  1.8776  0.6007  1.7270
 1272TIP3   OH225374   4.386   6.522   0.682 -1.0870  0.4403  0.1969
 1272TIP3    H125375   4.458   6.518   0.745 -1.5707  0.0947  0.7387
 1272TIP3    H225376   4.417   6.473   0.606 -1.0944 -0.4964  0.7874
 1273TIP3   OH225377   5.500   3.606   0.362 -0.9062  0.3070  0.3280
 1273TIP3    H125378   5.511   3.701   0.359  0.8333  0.2918  2.9021
 1273TIP3    H225379   5.571   3.575   0.418 -0.8761 -2.6594 -1.1515
 1274TIP3   OH225380   4.512   0.263   0.254 -0.4692  0.3777  0.0694
 1274TIP3    H125381   4.502   0.200   0.325 -0.1538 -0.9366 -1.0208
 1274TIP3    H225382   4.601   0.297   0.266 -0.3119 -0.0496  0.1362
 1275TIP3   OH225383   2.147   5.110   0.583  0.1209  0.1718 -0.1032
 1275TIP3    H125384   2.084   5.092   0.513  0.9745 -0.6716 -0.6832
 1275TIP3    H225385   2.198   5.185   0.552  0.3493 -0.0585 -0.2884
 1276TIP3   OH225386   2.222   0.834   8.184  0.1356  0.7845 -0.0496
 1276TIP3    H125387   2.283   0.775   8.139 -1.1346  0.8120 -1.8902
 1276TIP3    H225388   2.211   0.794   8.271  1.3095 -0.2349 -0.3399
 1277TIP3   OH225389   6.803   3.376   0.190 -0.0559 -0.5613 -0.7441
 1277TIP3    H125390   6.710   3.395   0.183  0.1715  0.7246 -0.5881
 1277TIP3    H225391   6.841   3.416   0.112  0.3459 -1.2870 -0.9310
 1278TIP3   OH225392   1.451   3.989   7.541 -0.2768 -0.6442 -0.5193
 1278TIP3    H125393   1.373   4.011   7.592  0.2425 -0.3405  0.1578
 1278TIP3    H225394   1.433   4.023   7.453  0.8725  3.6044  0.6391
 1279TIP3   OH225395   6.581   3.551   0.734  0.0401  0.2402 -0.3438
 1279TIP3    H125396   6.507   3.597   0.695  0.1780  0.1840 -0.6735
 1279TIP3    H225397   6.610   3.490   0.666  0.2819  0.1409 -0.1540
 1280TIP3   OH225398   3.475   6.138   8.298  0.1764  0.2917 -0.0108
 1280TIP3    H125399   3.509   6.068   8.353  1.4558  0.0295 -1.1008
 1280TIP3    H225400   3.391   6.105   8.266 -0.1715  0.0968  1.0773
 1281TIP3   OH225401   2.170   4.925   7.770 -0.3231 -0.2207 -0.2785
 1281TIP3    H125402   2.217   4.887   7.844 -1.9570  0.8274  1.3805
 1281TIP3    H225403   2.109   4.987   7.809 -1.9388 -0.3125 -2.4369
 1282TIP3   OH225404   3.600   6.321   1.832  0.3374  0.4338  0.4046
 1282TIP3    H125405   3.590   6.228   1.814  0.9025  0.5210 -0.3901
 1282TIP3    H225406   3.515   6.359   1.812 -0.2272 -0.0479  1.7459
 1283TIP3   OH225407   2.695   1.816   3.048  0.9248 -0.1913  0.5966
 1283TIP3    H125408   2.776   1.828   3.097  1.3878 -1.5560  0.2084
 1283TIP3    H225409   2.658   1.734   3.082 -1.7594  1.7354  2.7498
 1284TIP3   OH225410   0.930   5.406   7.542 -0.4955 -0.4614  0.3657
 1284TIP3    H125411   0.914   5.424   7.634 -0.3790 -0.0430  0.3055
 1284TIP3    H225412   0.959   5.490   7.506 -0.8004 -0.5552 -0.1094
 1285TIP3   OH225413   6.672   2.054   1.399 -0.4081  0.2902 -0.9579
 1285TIP3    H125414   6.727   2.059   1.322  0.8130  0.1988 -0.1123
 1285TIP3    H225415   6.674   2.143   1.436 -1.1829  0.3978 -1.1542
 1286TIP3   OH225416   1.434   2.673   1.443 -0.0444 -0.0607  0.1490
 1286TIP3    H125417   1.467   2.735   1.378  0.8182 -1.5158 -0.8778
 1286TIP3    H225418   1.513   2.632   1.480 -0.5516  0.1688  1.5567
 1287TIP3   OH225419   0.423   1.667   8.733  0.1922  0.6176 -0.4172
 1287TIP3    H125420   0.503   1.718   8.717  1.0025 -0.6737 -0.6627
 1287TIP3    H225421   0.418   1.607   8.658 -0.7315  0.3196 -0.1273
 1288TIP3   OH225422   1.291   1.467   1.078 -0.1559  0.0508  0.0090
 1288TIP3    H125423   1.307   1.553   1.115 -0.6135 -0.3438  1.1390
 1288TIP3    H225424   1.202   1.471   1.045 -0.7180 -0.4383  1.4029
 1289TIP3   OH225425   3.621   6.235   0.793  0.3986  0.2289 -0.6632
 1289TIP3    H125426   3.560   6.250   0.720  0.1029  0.1965 -0.4245
 1289TIP3    H225427   3.568   6.192   0.860  0.6796  0.2268 -0.4412
 1290TIP3   OH225428   2.556   1.820   0.878  0.7123 -0.0607 -0.4982
 1290TIP3    H125429   2.572   1.757   0.948 -0.4704 -0.8029 -0.8646
 1290TIP3    H225430   2.527   1.767   0.804 -1.6787  0.9729 -0.4005
 1291TIP3   OH225431   0.484   5.925   8.132 -0.5759 -0.2512  0.2721
 1291TIP3    H125432   0.519   5.960   8.214  0.1737  0.5085 -0.3515
 1291TIP3    H225433   0.561   5.905   8.079 -1.0483 -0.6344 -0.2914
 1292TIP3   OH225434   3.988   4.311   1.604  0.3150  0.7519 -0.0919
 1292TIP3    H125435   4.013   4.293   1.694  1.7062  2.0563 -0.1587
 1292TIP3    H225436   3.959   4.227   1.569 -0.0008  0.1720  1.4794
 1293TIP3   OH225437   1.165   1.573   8.515  0.1079  0.4325  0.9498
 1293TIP3    H125438   1.239   1.617   8.557  0.2355  1.0206  0.1258
 1293TIP3    H225439   1.201   1.491   8.482  0.6274  1.1081 -0.2224
 1294TIP3   OH225440   6.065   3.899   0.750  0.0048 -0.0648  0.1899
 1294TIP3    H125441   6.053   3.846   0.671  0.4106  0.3959 -0.1815
 1294TIP3    H225442   6.091   3.985   0.718 -0.5149  0.3239  0.8000
 1295TIP3   OH225443   3.133   1.220   1.288 -0.3384  0.1875  0.1912
 1295TIP3    H125444   3.108   1.296   1.236 -0.5196 -0.1067 -0.1652
 1295TIP3    H225445   3.056   1.163   1.285 -0.4402  0.2830  1.0107
 1296TIP3   OH225446   2.845   6.601   2.200  0.6071  0.6992 -0.4110
 1296TIP3    H125447   2.834   6.605   2.105 -0.7177 -2.0196 -0.4810
 1296TIP3    H225448   2.923   6.545   2.212  1.0284  1.3900  0.1203
 1297TIP3   OH225449   4.674   5.467   1.388 -0.3264 -0.4636  0.2730
 1297TIP3    H125450   4.687   5.562   1.385  0.3909 -0.5616 -1.9449
 1297TIP3    H225451   4.689   5.439   1.298 -1.3147 -2.6004  0.7235
 1298TIP3   OH225452   0.856   4.502   1.660 -0.5172  0.3305  0.2565
 1298TIP3    H125453   0.778   4.555   1.640 -1.1995 -0.9827 -0.6762
 1298TIP3    H225454   0.835   4.415   1.626  1.5395  0.0505 -0.3900
 1299TIP3   OH225455   1.197   2.454   0.548 -0.6474  0.3824  0.0478
 1299TIP3    H125456   1.282   2.486   0.518 -1.1189 -0.2887 -2.1708
 1299TIP3    H225457   1.191   2.365   0.514 -1.4228 -0.3091  1.8970
 1300TIP3   OH225458   6.309   2.348   0.412 -0.1794 -0.2591  0.1756
 1300TIP3    H125459   6.367   2.345   0.488 -1.1717  0.9134  1.0194
 1300TIP3    H225460   6.288   2.256   0.395 -1.6232 -0.5265  2.7137
 1301TIP3   OH225461   2.630   4.034   0.901  0.0203  0.0369  0.4810
 1301TIP3    H125462   2.612   3.949   0.941  3.7784 -0.6352  1.0894
 1301TIP3    H225463   2.675   4.013   0.819  2.6322  1.3184  1.4819
 1302TIP3   OH225464   3.172   0.922   1.205 -0.1208 -0.1014  0.3747
 1302TIP3    H125465   3.077   0.934   1.211 -0.2393 -0.0288 -1.3180
 1302TIP3    H225466   3.208   0.996   1.255 -0.9485  0.0149  0.8197
 1303TIP3   OH225467   5.318   3.251   0.398  0.0893 -0.8674 -0.5699
 1303TIP3    H125468   5.290   3.342   0.391 -0.7750 -1.1838 -1.3793
 1303TIP3    H225469   5.288   3.210   0.317  0.2679 -1.9331 -0.1170
 1304TIP3   OH225470   3.516   0.635   2.049  0.0415  0.7180  0.4590
 1304TIP3    H125471   3.500   0.564   2.112  1.3575 -1.4679 -1.4874
 1304TIP3    H225472   3.554   0.705   2.101  2.1166 -1.3934  2.0303
 1305TIP3   OH225473   3.109   1.815   7.495 -0.4707 -0.5152  0.2245
 1305TIP3    H125474   3.161   1.740   7.466 -0.0365  0.6205 -2.1407
 1305TIP3    H225475   3.082   1.858   7.414 -0.7399  1.8818  1.5109
 1306TIP3   OH225476   2.241   2.958   1.367  0.5943 -0.1752 -0.0239
 1306TIP3    H125477   2.241   3.034   1.309 -1.8180  1.4090  1.8565
 1306TIP3    H225478   2.304   2.980   1.435  0.6300 -0.3292 -0.0061
 1307TIP3   OH225479   3.864   2.420   8.604  0.4820 -0.1268  0.2870
 1307TIP3    H125480   3.910   2.342   8.573  1.6859  0.8422 -0.4796
 1307TIP3    H225481   3.842   2.401   8.695 -0.2560 -1.7887 -0.1933
 1308TIP3   OH225482   0.543   0.829   1.657  0.1805  0.2209  0.4481
 1308TIP3    H125483   0.569   0.866   1.742  2.4244  0.6193 -0.3319
 1308TIP3    H225484   0.542   0.735   1.672 -1.5166  0.3539  1.4130
 1309TIP3   OH225485   2.807   2.967   8.059  0.2455  0.3105  0.3934
 1309TIP3    H125486   2.852   3.051   8.060  0.2252  0.3300  1.8494
 1309TIP3    H225487   2.720   2.987   8.024  1.1916  0.3290 -2.1229
 1310TIP3   OH225488   6.401   5.937   8.464 -0.1399  0.0774  1.0748
 1310TIP3    H125489   6.487   5.896   8.450 -0.2066  0.5433 -1.0344
 1310TIP3    H225490   6.421   6.022   8.503  0.5767  1.0140 -1.1600
 1311TIP3   OH225491   0.428   5.098   0.346  0.3452 -0.3465  0.2530
 1311TIP3    H125492   0.356   5.098   0.408  0.0124 -0.9836 -0.1226
 1311TIP3    H225493   0.456   5.007   0.341  0.9212 -0.1686  0.0975
 1312TIP3   OH225494   5.724   4.876   2.170 -0.3789 -0.4315  0.3076
 1312TIP3    H125495   5.725   4.802   2.231 -0.0639 -1.0391 -0.4192
 1312TIP3    H225496   5.783   4.940   2.209 -1.3429 -0.1735  1.3946
 1313TIP3   OH225497   6.529   6.600   2.119  0.3356  1.1525  0.0139
 1313TIP3    H125498   6.568   6.685   2.138  0.9549  0.8636  0.0482
 1313TIP3    H225499   6.603   6.542   2.102 -0.1026  0.7651 -0.6386
 1314TIP3   OH225500   0.332   6.422   2.306 -0.5753 -0.1535  0.2343
 1314TIP3    H125501   0.284   6.442   2.386 -0.3660  0.6723  0.1590
 1314TIP3    H225502   0.424   6.429   2.331 -0.4347 -2.1867  0.4995
 1315TIP3   OH225503   2.597   3.697   1.852 -0.4334  0.3611  0.1926
 1315TIP3    H125504   2.591   3.602   1.843  1.4111  0.1581  0.7148
 1315TIP3    H225505   2.636   3.727   1.770  0.0488  0.5311  0.4814
 1316TIP3   OH225506   5.524   2.644   1.963 -0.2418  0.0509  0.1206
 1316TIP3    H125507   5.462   2.582   2.000 -3.8085  1.2826 -3.1069
 1316TIP3    H225508   5.511   2.724   2.015 -1.7445  0.3707 -0.6574
 1317TIP3   OH225509   5.242   2.206   2.045  0.1600 -0.7464 -0.3592
 1317TIP3    H125510   5.193   2.131   2.078  1.6341 -1.4879  0.2326
 1317TIP3    H225511   5.185   2.246   1.979 -1.3813 -1.3278  0.5814
 1318TIP3   OH225512   3.304   1.006   1.632 -0.3997  0.2129 -0.1332
 1318TIP3    H125513   3.338   1.043   1.550  1.6845  1.5877  1.2641
 1318TIP3    H225514   3.382   0.988   1.684 -1.6899 -0.2773  1.7137
 1319TIP3   OH225515   4.189   4.605   0.603  0.0217  0.2584  0.3743
 1319TIP3    H125516   4.191   4.524   0.655 -0.6988 -0.1575 -0.2290
 1319TIP3    H225517   4.119   4.591   0.540  2.5547 -0.3276 -2.5140
 1320TIP3   OH225518   0.471   4.504   3.106  0.3702 -0.0037 -0.4612
 1320TIP3    H125519   0.434   4.423   3.072  1.2886  0.1196 -1.8860
 1320TIP3    H225520   0.543   4.477   3.163 -0.5835 -0.2017  0.6764
 1321TIP3   OH225521   2.679   1.289   1.081 -0.1347 -0.0923 -0.1012
 1321TIP3    H125522   2.615   1.269   1.012 -0.1971 -1.4797  0.3324
 1321TIP3    H225523   2.657   1.229   1.152 -0.1441  1.3942  1.2040
 1322TIP3   OH225524   6.636   0.054   2.033 -0.0002 -0.0078 -0.3148
 1322TIP3    H125525   6.569   0.112   1.998  1.0289  0.8550 -0.9292
 1322TIP3    H225526   6.682   0.021   1.956  0.4067 -0.4181  0.0993
 1323TIP3   OH225527   5.657   2.287   7.985  0.0533  0.0521  0.4059
 1323TIP3    H125528   5.595   2.360   7.976  1.6280  1.3107 -1.0915
 1323TIP3    H225529   5.728   2.323   8.039  0.8681 -0.3272 -0.3858
 1324TIP3   OH225530   0.700   5.064   7.703  0.2972 -0.1467 -0.3793
 1324TIP3    H125531   0.730   5.134   7.761  2.1404 -1.0193 -0.2115
 1324TIP3    H225532   0.636   5.107   7.646 -0.9217  0.9482  1.6621
 1325TIP3   OH225533   3.720   4.354   1.599  1.1014  0.0648 -0.0123
 1325TIP3    H125534   3.698   4.347   1.692  0.5529 -2.0533 -0.2549
 1325TIP3    H225535   3.811   4.385   1.598  1.1692 -0.0503  1.2347
 1326TIP3   OH225536   3.488   5.740   0.542  0.3775  0.0592 -0.6389
 1326TIP3    H125537   3.460   5.820   0.588 -0.4887 -0.1912 -0.7173
 1326TIP3    H225538   3.453   5.668   0.595  1.3937 -0.2815 -0.4200
 1327TIP3   OH225539   4.078   2.969   1.750  0.1054 -0.2670 -0.3166
 1327TIP3    H125540   4.085   2.982   1.655 -0.0863 -1.1298 -0.4590
 1327TIP3    H225541   4.078   2.874   1.761 -2.1911 -0.2619  0.3388
 1328TIP3   OH225542   2.208   3.175   1.816  0.1769 -0.1034  0.0735
 1328TIP3    H125543   2.125   3.219   1.835  0.2693 -0.2015  0.7352
 1328TIP3    H225544   2.182   3.087   1.786  0.0508 -0.3122  0.7775
 1329TIP3   OH225545   1.650   1.838   8.792 -0.0474  0.5980  0.4878
 1329TIP3    H125546   1.713   1.910   8.792  0.1227  0.5135 -1.3453
 1329TIP3    H225547   1.679   1.782   8.720 -0.6253 -0.9131  1.3845
 1330TIP3   OH225548   1.312   1.354   8.445  0.5532  0.0082 -0.2535
 1330TIP3    H125549   1.343   1.296   8.514  1.0782 -0.3552 -0.7883
 1330TIP3    H225550   1.313   1.300   8.366 -0.4802  0.2790 -0.4758
 1331TIP3   OH225551   3.269   6.648   0.703  0.8626 -0.2919 -0.6154
 1331TIP3    H125552   3.355   6.687   0.685  0.6237  1.2494  1.3169
 1331TIP3    H225553   3.206   6.715   0.679  0.3883  0.1452  1.6503
 1332TIP3   OH225554   4.542   5.153   1.480 -0.6655 -0.5712 -0.4767
 1332TIP3    H125555   4.544   5.136   1.574 -0.7891  2.9727  0.3134
 1332TIP3    H225556   4.629   5.126   1.449  0.6995  1.3422  1.3988
 1333TIP3   OH225557   4.683   5.644   0.602  0.3730 -0.0946 -0.5320
 1333TIP3    H125558   4.594   5.674   0.622  0.2023 -0.8537 -0.1022
 1333TIP3    H225559   4.734   5.724   0.594 -0.1658  0.3288  0.1421
 1334TIP3   OH225560   0.036   4.625   8.606  0.0076  0.2872  0.1636
 1334TIP3    H125561   0.009   4.599   8.517  1.0166 -1.3393  0.3039
 1334TIP3    H225562   0.107   4.687   8.592  0.6575 -0.5197 -0.1831
 1335TIP3   OH225563   3.329   0.312   1.716 -0.0380 -0.5754 -0.2256
 1335TIP3    H125564   3.286   0.389   1.754  1.8376 -0.1422  1.1634
 1335TIP3    H225565   3.386   0.348   1.647 -1.5132 -1.1055 -1.7906
 1336TIP3   OH225566   4.314   5.778   2.941  0.1995  0.2180  0.1078
 1336TIP3    H125567   4.273   5.828   3.012 -0.4471 -1.2373  0.8038
 1336TIP3    H225568   4.355   5.844   2.885  0.3219  1.4354  1.5808
 1337TIP3   OH225569   3.524   3.541   0.933 -0.1381  0.1890  0.1666
 1337TIP3    H125570   3.446   3.505   0.975 -0.4885 -0.3741 -0.9473
 1337TIP3    H225571   3.498   3.558   0.843  0.3029  2.3370  0.3716
 1338TIP3   OH225572   5.341   4.831   8.643  0.1646 -0.1029  0.4034
 1338TIP3    H125573   5.378   4.742   8.647 -0.0230 -0.3133 -1.6315
 1338TIP3    H225574   5.404   4.880   8.590 -0.5810  0.5314  0.1012
 1339TIP3   OH225575   0.982   3.015   8.017 -0.3043  0.3824 -0.3054
 1339TIP3    H125576   0.888   3.030   8.023 -0.0583  1.7558  0.6952
 1339TIP3    H225577   1.015   3.091   7.969  0.3648  0.2325 -0.0891
 1340TIP3   OH225578   0.780   5.775   1.949 -0.3867 -1.0145 -0.1232
 1340TIP3    H125579   0.776   5.855   2.002 -0.9814  0.1022 -1.7797
 1340TIP3    H225580   0.846   5.721   1.992 -0.4968  0.0420  1.4574
 1341TIP3   OH225581   5.506   6.119   2.519  0.3590  0.8531 -0.2527
 1341TIP3    H125582   5.413   6.102   2.502 -0.0554  0.1239  2.3868
 1341TIP3    H225583   5.550   6.036   2.497  0.1565  0.6549  0.0944
 1342TIP3   OH225584   2.395   3.205   0.715  0.2019 -0.2492 -0.0073
 1342TIP3    H125585   2.358   3.149   0.647 -0.3679  0.3086 -0.1625
 1342TIP3    H225586   2.325   3.216   0.779  0.8458 -1.0424  0.8541
 1343TIP3   OH225587   1.759   1.545   1.280 -0.3378  0.1674 -0.4040
 1343TIP3    H125588   1.695   1.483   1.315 -0.6863 -0.8727 -2.6785
 1343TIP3    H225589   1.844   1.513   1.312 -0.7880  1.1279  2.0131
 1344TIP3   OH225590   3.762   0.876   8.079 -0.1173 -1.1298  0.1562
 1344TIP3    H125591   3.784   0.789   8.045  0.7348 -0.7065 -0.4155
 1344TIP3    H225592   3.694   0.908   8.021 -1.0096 -1.7205  0.8454
 1345TIP3   OH225593   1.314   5.963   8.363 -0.3158  0.3904 -0.9830
 1345TIP3    H125594   1.250   5.893   8.378 -1.5847  1.1477 -2.5599
 1345TIP3    H225595   1.289   6.032   8.425  0.5300 -0.2424  0.1093
 1346TIP3   OH225596   2.772   0.632   7.240 -0.1497  0.7575  0.6708
 1346TIP3    H125597   2.752   0.543   7.212  2.2143  0.3277  0.1162
 1346TIP3    H225598   2.741   0.688   7.169 -1.0690  0.3297  0.7277
 1347TIP3   OH225599   1.639   6.106   7.075 -0.8784  0.3620 -0.2410
 1347TIP3    H125600   1.632   6.017   7.041  1.3858  0.4935 -1.2657
 1347TIP3    H225601   1.581   6.158   7.019 -1.9959 -0.4063  0.1843
 1348TIP3   OH225602   6.807   4.543   8.312  0.3333 -0.1123  0.0738
 1348TIP3    H125603   6.752   4.472   8.281 -0.0317 -0.1022  0.6800
 1348TIP3    H225604   6.895   4.520   8.285 -0.0324  0.1450 -1.4080
 1349TIP3   OH225605   5.448   0.578   2.055 -0.3664  0.0231 -0.1131
 1349TIP3    H125606   5.501   0.646   2.014 -0.0333  0.9576  1.7432
 1349TIP3    H225607   5.496   0.555   2.134 -1.3561 -1.1325  0.1729
 1350TIP3   OH225608   3.271   1.221   0.323 -0.0799 -0.9182 -0.6315
 1350TIP3    H125609   3.340   1.272   0.364  1.5899 -1.7016 -2.3552
 1350TIP3    H225610   3.262   1.143   0.379 -0.7235 -0.0912  0.4628
 1351TIP3   OH225611   2.173   5.931   8.772  0.5738 -0.5041  0.3153
 1351TIP3    H125612   2.268   5.927   8.785  0.3735 -1.1996  1.7523
 1351TIP3    H225613   2.137   5.935   8.861 -0.7340  0.1344 -0.2227
 1352TIP3   OH225614   0.842   0.859   0.986  0.5001  0.5256  0.2653
 1352TIP3    H125615   0.933   0.829   0.985  0.8246  1.5015 -0.9551
 1352TIP3    H225616   0.840   0.930   1.049  1.1831  2.1943 -1.5120
 1353TIP3   OH225617   3.690   1.918   0.264 -0.2789 -0.3228 -0.0692
 1353TIP3    H125618   3.609   1.868   0.268  0.8469 -2.2472 -0.1001
 1353TIP3    H225619   3.746   1.868   0.204  1.3079  0.3393  0.7970
 1354TIP3   OH225620   3.222   3.027   0.231 -0.8608 -0.0926  0.1039
 1354TIP3    H125621   3.147   3.043   0.175 -1.6081 -0.0157  1.1094
 1354TIP3    H225622   3.186   3.016   0.319  0.4645  2.2518  1.0451
 1355TIP3   OH225623   5.998   5.272   1.025  0.5869  0.0694  0.0073
 1355TIP3    H125624   5.928   5.265   0.960  1.5323 -0.7588 -0.9710
 1355TIP3    H225625   6.036   5.184   1.028 -0.2950 -0.2824  2.7226
 1356TIP3   OH225626   4.503   1.767   8.171  0.2376 -0.6552  0.1190
 1356TIP3    H125627   4.428   1.826   8.178 -0.3403 -1.1254 -1.5194
 1356TIP3    H225628   4.571   1.819   8.129  0.2325 -0.7219  0.0269
 1357TIP3   OH225629   1.306   2.707   0.854 -0.2719 -0.1560 -0.0534
 1357TIP3    H125630   1.275   2.782   0.803  0.1205  0.6447  0.8416
 1357TIP3    H225631   1.402   2.711   0.847 -0.0430  1.3283  2.4802
 1358TIP3   OH225632   3.984   1.025   1.613  0.2464 -0.9860 -0.0104
 1358TIP3    H125633   4.028   0.941   1.626 -0.7352 -1.4650  0.2337
 1358TIP3    H225634   4.053   1.082   1.577  1.4129 -1.3624  1.4969
 1359TIP3   OH225635   4.939   2.465   2.119  0.0966  0.2637 -0.3709
 1359TIP3    H125636   4.871   2.398   2.128  0.2843  0.1169 -0.0070
 1359TIP3    H225637   4.923   2.525   2.192 -0.2471  0.7812 -0.8628
 1360TIP3   OH225638   6.151   4.731   1.481 -0.1629  0.1270 -0.1590
 1360TIP3    H125639   6.183   4.801   1.537 -2.5715  0.5095  0.8560
 1360TIP3    H225640   6.143   4.771   1.394  1.5386  0.1371 -0.3365
 1361TIP3   OH225641   2.427   2.487   0.087 -0.1652  0.0022  0.3069
 1361TIP3    H125642   2.438   2.395   0.111  1.3361  0.4782  1.6247
 1361TIP3    H225643   2.515   2.524   0.090 -0.7830  1.5790  0.1853
 1362TIP3   OH225644   1.657   2.416   1.065  0.2255 -0.1156  0.0940
 1362TIP3    H125645   1.636   2.402   1.158 -0.3232 -4.6150 -0.4947
 1362TIP3    H225646   1.752   2.410   1.060  0.1589 -1.4658  0.2178
 1363TIP3   OH225647   1.100   0.030   1.077  0.2862  0.3875 -0.4422
 1363TIP3    H125648   1.028   0.041   1.139 -0.5224 -2.5734 -0.7164
 1363TIP3    H225649   1.174   0.076   1.117 -0.1825 -1.3916  2.7939
 1364TIP3   OH225650   2.856   5.413   8.202 -0.0050  0.3910  0.7169
 1364TIP3    H125651   2.801   5.335   8.194  2.3630 -1.3268  0.0174
 1364TIP3    H225652   2.903   5.401   8.284 -0.3275  1.6043  1.0915
 1365TIP3   OH225653   0.455   2.357   1.344  0.6897 -0.4724 -0.4239
 1365TIP3    H125654   0.432   2.363   1.436  0.6088  1.6565 -0.5299
 1365TIP3    H225655   0.476   2.265   1.330  2.1329 -0.6017  2.0632
 1366TIP3   OH225656   3.374   0.587   6.966 -0.1067  0.1247 -0.0039
 1366TIP3    H125657   3.313   0.644   6.919 -0.0053  0.3479  0.1328
 1366TIP3    H225658   3.456   0.594   6.918  0.2694  1.1072  0.7517
 1367TIP3   OH225659   4.913   2.069   1.933  0.0006 -0.2647 -0.0540
 1367TIP3    H125660   4.820   2.049   1.936  0.0007 -0.7150 -1.8757
 1367TIP3    H225661   4.945   2.025   1.854  1.8424 -0.4385  0.7363
 1368TIP3   OH225662   6.242   4.918   3.154  0.0451 -0.3430 -0.3103
 1368TIP3    H125663   6.274   4.851   3.094 -1.5588 -1.7461  0.3113
 1368TIP3    H225664   6.247   4.877   3.240 -1.3511  0.1385  0.0306
 1369TIP3   OH225665   3.906   2.121   1.627  0.2621 -0.7212 -0.2581
 1369TIP3    H125666   3.887   2.215   1.619 -0.7699 -0.8290  0.6037
 1369TIP3    H225667   3.967   2.103   1.555  2.1100  1.0102  0.7707
 1370TIP3   OH225668   1.429   3.582   7.915  0.5922  0.4025 -0.3017
 1370TIP3    H125669   1.429   3.574   7.820  0.5265  0.7583 -0.3325
 1370TIP3    H225670   1.350   3.537   7.944  0.4136  0.6208 -0.4462
 1371TIP3   OH225671   5.168   4.334   2.640  0.0493 -0.0835  0.4444
 1371TIP3    H125672   5.236   4.332   2.708  0.1348  1.4088  0.4250
 1371TIP3    H225673   5.095   4.285   2.677  0.4989 -0.2137  1.1731
 1372TIP3   OH225674   5.381   0.063   8.478 -0.4487 -0.5881  0.1475
 1372TIP3    H125675   5.448  -0.001   8.457 -0.9741 -1.0556 -0.1126
 1372TIP3    H225676   5.386   0.073   8.573  0.9338  0.4379  0.0029
 1373TIP3   OH225677   0.509   5.367   1.255 -0.2182 -0.1024  0.2453
 1373TIP3    H125678   0.470   5.437   1.307 -0.4130 -0.4933  0.6395
 1373TIP3    H225679   0.455   5.290   1.275 -0.7151 -0.1243 -1.0505
 1374TIP3   OH225680   5.455   3.604   1.344  0.3294 -0.0408  0.4451
 1374TIP3    H125681   5.467   3.665   1.271  0.6710 -0.4076  0.1922
 1374TIP3    H225682   5.543   3.585   1.374  0.1663  1.8293  2.4237
 1375TIP3   OH225683   5.376   5.749   0.060  0.1927  0.2015 -0.3281
 1375TIP3    H125684   5.403   5.779   0.147  1.2770 -1.3431 -0.0952
 1375TIP3    H225685   5.427   5.803  -0.000 -1.0793  1.7660 -0.0690
 1376TIP3   OH225686   5.634   5.662   7.682  0.1027  0.0078 -0.6155
 1376TIP3    H125687   5.589   5.716   7.746  1.0126 -1.0852  1.0168
 1376TIP3    H225688   5.727   5.675   7.700  0.3646 -0.9650 -1.1741
 1377TIP3   OH225689   4.165   5.468   0.965  0.5225 -0.3266 -0.1185
 1377TIP3    H125690   4.087   5.441   1.012  0.3822  0.6498  0.2284
 1377TIP3    H225691   4.215   5.519   1.028  0.0881  1.4352 -1.1309
 1378TIP3   OH225692   0.913   0.429   1.618 -0.1169  0.6224 -0.2066
 1378TIP3    H125693   0.920   0.391   1.706  2.3830  1.1031 -0.1335
 1378TIP3    H225694   0.925   0.523   1.632  1.7696  0.5634 -1.1595
 1379TIP3   OH225695   2.391   2.039   8.647 -0.1065  0.6245 -0.1366
 1379TIP3    H125696   2.450   2.025   8.573 -0.6007  3.5803 -1.2357
 1379TIP3    H225697   2.304   2.047   8.607 -0.6097  0.7502  0.9519
 1380TIP3   OH225698   6.721   0.262   0.896  0.4601 -1.0155  0.3591
 1380TIP3    H125699   6.699   0.291   0.807  1.0202  0.6633  0.7469
 1380TIP3    H225700   6.784   0.326   0.928 -1.4145 -0.2506  2.8204
 1381TIP3   OH225701   5.334   4.253   6.828  0.6406 -0.4713  0.8475
 1381TIP3    H125702   5.398   4.236   6.759  0.7149 -0.2586  0.8614
 1381TIP3    H225703   5.251   4.225   6.791  0.7690 -0.9283  0.9020
 1382TIP3   OH225704   2.754   2.098   1.713 -1.4119 -0.1333  0.1211
 1382TIP3    H125705   2.751   2.005   1.693 -0.1668 -0.2350  0.3146
 1382TIP3    H225706   2.740   2.103   1.808 -2.7557 -0.0089 -0.0686
 1383TIP3   OH225707   0.685   5.099   8.076  0.2833  0.1741 -0.5946
 1383TIP3    H125708   0.593   5.098   8.047 -0.0222  0.5525  0.3254
 1383TIP3    H225709   0.734   5.126   7.998 -0.0540 -2.6883 -1.9204
 1384TIP3   OH225710   3.335   1.739   0.714 -0.1211  0.2903 -0.0830
 1384TIP3    H125711   3.258   1.763   0.663 -0.6841  3.1071  1.8622
 1384TIP3    H225712   3.396   1.811   0.701  1.6051 -1.1699 -0.3869
 1385TIP3   OH225713   3.476   6.732   7.236 -0.3070 -0.2764  0.1909
 1385TIP3    H125714   3.543   6.663   7.234 -1.1186 -1.1060  0.7403
 1385TIP3    H225715   3.393   6.685   7.228 -0.8585  0.7025 -0.0330
 1386TIP3   OH225716   0.690   5.987   1.438  0.1192  0.2139 -0.0967
 1386TIP3    H125717   0.615   5.972   1.381  1.0506 -2.3025 -0.7999
 1386TIP3    H225718   0.709   6.081   1.429 -2.0677  0.6295 -0.9492
 1387TIP3   OH225719   4.035   6.401   2.215  0.1566 -0.5721  0.4128
 1387TIP3    H125720   3.986   6.323   2.242 -2.2705  0.3466 -1.0539
 1387TIP3    H225721   4.033   6.458   2.292 -2.0382 -0.1366  0.0774
 1388TIP3   OH225722   0.685   5.722   0.754 -0.3379 -0.9402 -0.0059
 1388TIP3    H125723   0.739   5.744   0.678 -0.6522 -0.5219 -0.1145
 1388TIP3    H225724   0.660   5.807   0.791  0.0504 -1.1433  0.7390
 1389TIP3   OH225725   0.107   4.051   6.958 -0.6032  0.5088  0.4360
 1389TIP3    H125726   0.038   3.991   6.988 -2.3216  0.9088 -2.4027
 1389TIP3    H225727   0.162   3.998   6.901 -1.6877  1.3559 -1.4788
 1390TIP3   OH225728   3.954   1.737   0.728 -0.1585 -0.6180  1.3013
 1390TIP3    H125729   3.871   1.723   0.681 -0.4891  0.0418  1.6701
 1390TIP3    H225730   3.978   1.827   0.706  0.6538 -0.9170  0.9119
 1391TIP3   OH225731   5.497   4.116   8.407 -0.2464 -0.8745 -0.3847
 1391TIP3    H125732   5.495   4.036   8.460 -0.2850 -1.2123 -0.8883
 1391TIP3    H225733   5.543   4.090   8.327  1.1799  0.0229  0.1052
 1392TIP3   OH225734   1.187   0.325   8.064  0.0865 -0.8335  0.0912
 1392TIP3    H125735   1.110   0.334   8.121  0.9434  0.2535  1.1091
 1392TIP3    H225736   1.238   0.404   8.079 -0.1369  0.0463 -2.9772
 1393TIP3   OH225737   2.651   2.075   7.816  0.3018  0.1498  0.8313
 1393TIP3    H125738   2.656   2.046   7.907 -1.1674 -1.2522  0.4988
 1393TIP3    H225739   2.576   2.134   7.814  1.2018  1.3337  0.7905
 1394TIP3   OH225740   2.945   4.618   7.904  0.0237 -0.4930  0.5821
 1394TIP3    H125741   3.013   4.551   7.893  1.5917  0.9536  1.0530
 1394TIP3    H225742   2.889   4.608   7.828  2.7090  0.4189 -1.6885
 1395TIP3   OH225743   3.635   1.688   1.507  0.0437 -0.3305  0.0706
 1395TIP3    H125744   3.707   1.748   1.527 -0.7110  1.3376 -1.7890
 1395TIP3    H225745   3.557   1.742   1.513 -0.7227 -1.2398 -1.1838
 1396TIP3   OH225746   2.052   0.356   0.508 -0.1153 -0.4321  0.3978
 1396TIP3    H125747   2.013   0.278   0.548 -1.7037  0.8410  1.4511
 1396TIP3    H225748   1.977   0.411   0.485  0.8798 -0.0298 -2.1470
 1397TIP3   OH225749   2.788   0.843   6.908  0.0006 -0.4256  0.0858
 1397TIP3    H125750   2.873   0.879   6.881  0.4211 -1.1141  0.4565
 1397TIP3    H225751   2.734   0.920   6.926 -0.5907  0.1355 -3.4340
 1398TIP3   OH225752   1.456   6.752   7.811  0.3304  0.0574 -0.5748
 1398TIP3    H125753   1.374   6.749   7.860  0.0820 -0.4335 -1.0067
 1398TIP3    H225754   1.461   6.667   7.767  0.8834  0.2261 -0.8512
 1399TIP3   OH225755   4.323   0.940   8.739  0.0134  0.2039  0.2159
 1399TIP3    H125756   4.334   1.035   8.741  0.2434  0.1683  1.8908
 1399TIP3    H225757   4.238   0.927   8.696 -0.2947  1.1923  0.5025
 1400TIP3   OH225758   3.247   0.802   7.915 -0.2935  0.0826  0.5166
 1400TIP3    H125759   3.298   0.883   7.915  1.5841 -0.8786 -3.1533
 1400TIP3    H225760   3.170   0.821   7.862  0.3389 -0.5769 -0.6742
 1401TIP3   OH225761   4.691   6.382   8.087  0.5132 -0.0010  0.6511
 1401TIP3    H125762   4.702   6.288   8.080 -2.2049 -0.3329  0.0577
 1401TIP3    H225763   4.708   6.415   7.999 -3.0479 -0.5700 -0.3957
 1402TIP3   OH225764   3.378   1.055   7.889 -0.1735  0.0278  0.1227
 1402TIP3    H125765   3.460   1.051   7.939  1.5819 -0.0792 -2.5431
 1402TIP3    H225766   3.367   1.148   7.870  0.1221 -0.0861 -0.6591
 1403TIP3   OH225767   1.539   2.384   1.938 -0.1263 -0.7332  0.3341
 1403TIP3    H125768   1.472   2.428   1.989 -0.2361 -1.2028  0.5986
 1403TIP3    H225769   1.497   2.365   1.854 -0.0024 -0.1261  0.1260
 1404TIP3   OH225770   1.196   3.987   1.611 -0.7535  0.5664  0.6889
 1404TIP3    H125771   1.262   4.033   1.662  0.1755 -1.7504  1.7441
 1404TIP3    H225772   1.183   4.041   1.533  1.6950  1.5822  0.8928
 1405TIP3   OH225773   2.230   6.442   2.432 -0.2669  0.7788 -0.1048
 1405TIP3    H125774   2.314   6.404   2.407  0.7394  2.6457  0.1749
 1405TIP3    H225775   2.174   6.367   2.454  1.0698 -0.5413 -1.0445
 1406TIP3   OH225776   1.059   4.335   0.603  0.1409  0.1734  0.1129
 1406TIP3    H125777   1.081   4.403   0.539 -0.3065 -0.2693 -0.5216
 1406TIP3    H225778   1.026   4.383   0.678 -0.0639  0.6639 -0.2868
 1407TIP3   OH225779   1.644   2.751   8.066 -0.5461  0.0912 -0.1435
 1407TIP3    H125780   1.559   2.716   8.040 -1.7124  0.9255  2.1996
 1407TIP3    H225781   1.679   2.686   8.127 -0.4617  0.7102  0.4758
 1408TIP3   OH225782   0.650   6.198   2.003 -0.0629 -0.6545  0.4977
 1408TIP3    H125783   0.572   6.216   2.056 -0.5273 -0.1948 -0.3191
 1408TIP3    H225784   0.616   6.158   1.923  0.4941 -0.1296 -0.0177
 1409TIP3   OH225785   6.473   4.395   7.840 -0.4589 -0.1071  0.6367
 1409TIP3    H125786   6.474   4.374   7.934 -2.9067 -0.4085  0.6494
 1409TIP3    H225787   6.466   4.310   7.797  0.0942  0.0692  0.1903
 1410TIP3   OH225788   5.095   3.485   1.316  0.3686 -0.0769  0.4337
 1410TIP3    H125789   5.046   3.561   1.348 -0.2909  0.3083 -1.3799
 1410TIP3    H225790   5.033   3.436   1.263  0.6500 -2.1847  1.9093
 1411TIP3   OH225791   0.581   4.193   8.686  0.7574 -0.3424 -0.0995
 1411TIP3    H125792   0.548   4.186   8.776  3.2005  0.7862  0.9764
 1411TIP3    H225793   0.676   4.189   8.695  1.0554 -0.7167 -2.7189
 1412TIP3   OH225794   1.299   1.337   0.094  0.4806  0.3982  0.3263
 1412TIP3    H125795   1.248   1.397   0.040  1.2272  2.2724  1.6018
 1412TIP3    H225796   1.236   1.273   0.125 -1.3192  2.9514  2.3165
 1413TIP3   OH225797   0.431   3.742   1.181  0.0898  0.5003 -0.3025
 1413TIP3    H125798   0.461   3.830   1.203 -2.5933  1.4807 -0.2006
 1413TIP3    H225799   0.336   3.745   1.194 -0.5794 -1.3761 -3.6377
 1414TIP3   OH225800   3.010   3.119   1.312 -0.0437  0.5528 -0.0150
 1414TIP3    H125801   2.965   3.060   1.373  0.6341  0.6998  0.6548
 1414TIP3    H225802   2.965   3.202   1.321 -0.2881  0.4307 -0.1165
 1415TIP3   OH225803   4.909   3.678   1.398 -0.0109 -0.0338  0.0703
 1415TIP3    H125804   4.821   3.712   1.380  0.8326  1.3726 -1.8654
 1415TIP3    H225805   4.898   3.616   1.469 -2.9546 -1.6965 -1.6731
 1416TIP3   OH225806   1.897   5.462   1.621  0.0508  0.2083  0.3963
 1416TIP3    H125807   1.937   5.509   1.547  2.8624 -1.7913  0.4930
 1416TIP3    H225808   1.943   5.495   1.698 -0.3460 -0.2853  0.8537
 1417TIP3   OH225809   4.263   1.891   7.382  0.3091 -0.0442  0.0370
 1417TIP3    H125810   4.181   1.842   7.379 -2.4814  3.9347  1.8579
 1417TIP3    H225811   4.266   1.938   7.299  2.2901 -2.0647 -1.1518
 1418TIP3   OH225812   1.966   0.659   1.729 -0.2673 -0.5405 -0.5187
 1418TIP3    H125813   1.948   0.681   1.821  3.1358 -1.3409  0.5082
 1418TIP3    H225814   2.002   0.570   1.733 -3.5125 -2.1898 -3.2027
 1419TIP3   OH225815   0.763   4.248   1.592 -0.1791  0.3667  0.3753
 1419TIP3    H125816   0.782   4.171   1.645 -0.8071 -0.5024 -0.6269
 1419TIP3    H225817   0.768   4.217   1.502  0.9090  1.8247 -0.1029
 1420TIP3   OH225818   4.188   1.158   1.480  0.1114 -0.7016  0.4853
 1420TIP3    H125819   4.238   1.101   1.421  0.0199  0.2807 -0.5889
 1420TIP3    H225820   4.238   1.239   1.483 -0.4171 -0.3897  0.9604
 1421TIP3   OH225821   4.839   6.247   7.472  0.9366 -0.1246  0.2886
 1421TIP3    H125822   4.747   6.259   7.497  1.0426  1.0661  0.1718
 1421TIP3    H225823   4.839   6.168   7.418 -0.5969  1.5754 -2.4182
 1422TIP3   OH225824   6.743   1.039   1.267 -0.3270  0.4918  0.3280
 1422TIP3    H125825   6.759   1.080   1.182 -1.4005 -0.5949 -0.4522
 1422TIP3    H225826   6.648   1.028   1.270 -0.2745  0.2345  1.5484
 1423TIP3   OH225827   5.252   4.737   7.936 -0.0809  0.6091 -0.3939
 1423TIP3    H125828   5.324   4.743   7.873 -0.2284  2.2696 -0.4260
 1423TIP3    H225829   5.296   4.719   8.019  0.0985 -1.9059 -0.9297
 1424TIP3   OH225830   3.882   5.002   8.633  0.4513 -0.0596  0.0216
 1424TIP3    H125831   3.852   5.093   8.627  1.2402  0.1999 -0.1025
 1424TIP3    H225832   3.802   4.951   8.649 -0.1329  0.5460 -0.9011
 1425TIP3   OH225833   2.686   0.360   0.085 -0.0638 -0.1073 -0.4329
 1425TIP3    H125834   2.709   0.338   0.175  1.5864 -0.2857 -0.8644
 1425TIP3    H225835   2.605   0.313   0.068  0.6065 -1.6122  0.3627
 1426TIP3   OH225836   4.439   2.251   7.643  0.3973  0.1865  0.4266
 1426TIP3    H125837   4.409   2.326   7.693  0.3732  0.0953  0.5496
 1426TIP3    H225838   4.359   2.207   7.614  0.4084  0.5005 -0.0901
 1427TIP3   OH225839   6.157   1.748   1.901  0.5652 -0.0459 -0.5880
 1427TIP3    H125840   6.069   1.711   1.905  0.0003  1.1195 -1.6011
 1427TIP3    H225841   6.156   1.802   1.822  1.4194  1.9438  0.7064
 1428TIP3   OH225842   6.019   5.256   8.138 -0.8004 -0.4065 -0.0979
 1428TIP3    H125843   5.987   5.275   8.227  1.6037 -2.2768  1.3073
 1428TIP3    H225844   5.961   5.187   8.106 -1.2387 -0.2507  0.3499
 1429TIP3   OH225845   5.464   3.992   2.801 -0.1812 -0.4181  0.1688
 1429TIP3    H125846   5.534   3.996   2.866  2.5304  2.0581 -2.5552
 1429TIP3    H225847   5.474   3.906   2.761 -0.5760 -1.1731  1.6268
 1430TIP3   OH225848   0.944   5.462   1.820  0.2135  0.3760 -0.1602
 1430TIP3    H125849   0.957   5.486   1.912 -0.8595  2.1024 -0.4187
 1430TIP3    H225850   0.856   5.426   1.817 -0.3678  1.7747 -0.7383
 1431TIP3   OH225851   6.546   0.467   7.582 -0.2417  0.1169 -0.0669
 1431TIP3    H125852   6.546   0.402   7.653 -1.1971 -1.8672 -1.7971
 1431TIP3    H225853   6.553   0.416   7.502  0.0499  2.2513 -1.5010
 1432TIP3   OH225854   0.400   6.629   7.941 -0.3642 -0.7963  0.0191
 1432TIP3    H125855   0.350   6.628   7.859 -0.0655 -1.9019 -0.1639
 1432TIP3    H225856   0.408   6.722   7.963 -1.2141 -0.5316 -0.7330
 1433TIP3   OH225857   1.983   3.439   2.386 -0.3357 -0.2069  0.6510
 1433TIP3    H125858   1.991   3.517   2.330 -0.6566  0.3981  1.4310
 1433TIP3    H225859   2.052   3.449   2.451 -0.7316 -0.2883  1.0861
 1434TIP3   OH225860   5.591   1.495   7.918  0.0487  0.1162  0.4219
 1434TIP3    H125861   5.516   1.555   7.925 -0.3416 -0.4166  0.8888
 1434TIP3    H225862   5.597   1.455   8.005  1.4638  0.8318  0.6859
 1435TIP3   OH225863   2.781   6.760   7.411 -0.3832 -0.0683  0.6179
 1435TIP3    H125864   2.801   6.685   7.354 -0.0935 -0.0220  0.6607
 1435TIP3    H225865   2.690   6.745   7.437 -0.7815  0.3252 -0.4915
 1436TIP3   OH225866   3.489   2.545   1.124 -0.4747 -0.1357 -0.0083
 1436TIP3    H125867   3.495   2.455   1.153 -0.8793 -0.3293 -0.5029
 1436TIP3    H225868   3.410   2.579   1.166 -0.8358 -0.2953 -0.5449
 1437TIP3   OH225869   0.055   4.168   7.598 -0.9679  0.7148  0.5276
 1437TIP3    H125870   0.085   4.249   7.638 -3.1115  0.7996  2.1232
 1437TIP3    H225871   0.128   4.107   7.609 -0.1453  1.7982  1.2784
 1438TIP3   OH225872   2.911   3.839   0.602 -0.4145  0.1163 -0.4412
 1438TIP3    H125873   2.940   3.754   0.636 -1.0732  0.6395  1.5914
 1438TIP3    H225874   2.861   3.817   0.523 -1.7221 -1.5514  0.7712
 1439TIP3   OH225875   5.233   5.112   2.539 -0.2453  0.1433  0.4847
 1439TIP3    H125876   5.140   5.106   2.517  0.0639  0.7343 -1.1566
 1439TIP3    H225877   5.238   5.180   2.606 -0.8485  1.4439 -0.7217
 1440TIP3   OH225878   5.019   6.688   6.703  0.0309 -0.0588  0.5144
 1440TIP3    H125879   5.034   6.705   6.796  0.3680  0.0816  0.4352
 1440TIP3    H225880   4.986   6.598   6.701 -0.1621  0.0023  0.7847
 1441TIP3   OH225881   0.666   3.098   1.570  0.4056 -0.3555 -0.3508
 1441TIP3    H125882   0.693   3.176   1.620  1.5749 -1.5270  0.9568
 1441TIP3    H225883   0.621   3.043   1.635  0.7970 -1.3454 -0.8923
 1442TIP3   OH225884   4.193   0.657   7.293 -0.8707 -0.2199  0.1431
 1442TIP3    H125885   4.287   0.654   7.276 -1.0176  1.3288 -1.1904
 1442TIP3    H225886   4.186   0.657   7.389  0.4746 -0.4910  0.2631
 1443TIP3   OH225887   2.932   6.111   2.569  0.7778  0.3453  0.4722
 1443TIP3    H125888   2.926   6.093   2.475  2.2731 -1.1859  0.6134
 1443TIP3    H225889   2.874   6.186   2.583 -1.3056 -0.8208 -1.2603
 1444TIP3   OH225890   4.582   6.726   1.668 -0.2794  0.2342  0.3636
 1444TIP3    H125891   4.560   6.807   1.714 -1.5312 -1.1932  2.4577
 1444TIP3    H225892   4.582   6.750   1.575  0.2836  2.7926  0.9448
 1445TIP3   OH225893   1.092   1.499   8.142  0.5664  0.0882  0.4312
 1445TIP3    H125894   1.163   1.556   8.173  1.6508  0.3513 -2.2787
 1445TIP3    H225895   1.130   1.411   8.144 -0.0985 -0.1925  1.7950
 1446TIP3   OH225896   1.056   3.918   1.871  0.0993  0.2715  0.2486
 1446TIP3    H125897   1.113   3.948   1.801  0.4750 -1.2130 -0.1129
 1446TIP3    H225898   1.112   3.916   1.949 -0.3937  2.2154  0.7119
 1447TIP3   OH225899   4.788   0.854   1.334 -0.0107 -0.0917  0.2364
 1447TIP3    H125900   4.789   0.761   1.310 -0.8689 -0.0819  0.1137
 1447TIP3    H225901   4.750   0.856   1.422  1.9432 -0.0154  1.1312
 1448TIP3   OH225902   1.984   5.964   1.031 -0.3683  0.2439 -0.0982
 1448TIP3    H125903   2.051   5.960   0.963 -1.2174  0.1155 -0.9475
 1448TIP3    H225904   2.023   6.017   1.100  0.0969  1.3435 -1.1658
 1449TIP3   OH225905   2.726   5.145   1.851  0.6681  0.0941  0.6016
 1449TIP3    H125906   2.781   5.129   1.775  0.9181  2.2397  0.2600
 1449TIP3    H225907   2.637   5.145   1.817  0.8061  1.5062  0.1725
 1450TIP3   OH225908   1.371   6.530   7.195 -0.3639 -0.4592  0.5874
 1450TIP3    H125909   1.381   6.470   7.122  0.1121 -1.6513  1.6114
 1450TIP3    H225910   1.406   6.613   7.163 -0.1799 -0.9574 -0.5304
 1451TIP3   OH225911   3.914   0.257   1.471  0.3662 -0.2267 -0.2758
 1451TIP3    H125912   3.986   0.241   1.532 -0.0896 -1.8901 -0.1177
 1451TIP3    H225913   3.929   0.194   1.400 -0.6975 -0.3052 -0.4388
 1452TIP3   OH225914   1.911   5.822   0.737  0.3160 -0.5224  0.4540
 1452TIP3    H125915   1.849   5.849   0.669 -0.4584  0.5312  1.5461
 1452TIP3    H225916   1.889   5.731   0.756  0.1898 -0.6605 -0.3045
 1453TIP3   OH225917   2.915   1.997   8.102  0.1542  0.5135 -0.3799
 1453TIP3    H125918   2.901   1.923   8.042  0.2677  1.9599 -2.2698
 1453TIP3    H225919   2.863   1.974   8.179 -0.5452 -1.1263 -1.2704
 1454TIP3   OH225920   1.926   2.778   8.212  0.0913  0.3359  0.1001
 1454TIP3    H125921   1.946   2.685   8.199  1.7808  0.5277  1.0202
 1454TIP3    H225922   1.922   2.814   8.124  1.4309 -0.2417 -0.2226
 1455TIP3   OH225923   2.264   2.658   1.198  0.3555 -0.4996  0.2151
 1455TIP3    H125924   2.205   2.681   1.271 -1.2093  1.5628 -1.5497
 1455TIP3    H225925   2.341   2.712   1.213 -1.1439  2.2076 -1.0564
 1456TIP3   OH225926   5.956   4.292   1.737  0.0941  0.5691  0.7076
 1456TIP3    H125927   5.882   4.336   1.780 -0.1197 -0.1413  1.0871
 1456TIP3    H225928   5.982   4.352   1.667 -1.5287  0.3631 -0.1291
 1457TIP3   OH225929   6.155   5.800   1.632 -0.2934  0.2042 -0.1943
 1457TIP3    H125930   6.094   5.745   1.583  0.3263 -0.4839 -0.2041
 1457TIP3    H225931   6.217   5.830   1.566  2.6546 -3.5057  0.5529
 1458TIP3   OH225932   4.710   3.902   1.319  0.8922  0.3991 -0.7412
 1458TIP3    H125933   4.732   3.995   1.320  1.1354  0.3439  0.4409
 1458TIP3    H225934   4.672   3.887   1.233  0.5641  1.6582 -0.8290
 1459TIP3   OH225935   1.192   6.230   2.486 -0.1362 -0.2022 -0.0800
 1459TIP3    H125936   1.240   6.198   2.410 -1.8265  1.4874 -2.0054
 1459TIP3    H225937   1.247   6.300   2.522 -0.5860  1.0230 -1.6351
 1460TIP3   OH225938   4.099   5.248   0.075 -0.0722  0.1774 -0.3692
 1460TIP3    H125939   4.136   5.336   0.066 -1.0018  0.7103  0.6596
 1460TIP3    H225940   4.023   5.248   0.017 -1.1178  0.7008  0.9445
 1461TIP3   OH225941   5.319   3.800   8.063  0.1291  0.3285  0.4921
 1461TIP3    H125942   5.260   3.760   7.999  2.4546 -3.6602  0.5094
 1461TIP3    H225943   5.299   3.755   8.145  2.0172 -0.0022  0.8330
 1462TIP3   OH225944   3.149   6.414   8.271 -0.4085  0.3234  0.3310
 1462TIP3    H125945   3.167   6.505   8.247 -0.3792  0.4688  0.9036
 1462TIP3    H225946   3.085   6.384   8.206  0.2475  0.4748 -0.3945
 1463TIP3   OH225947   2.771   0.615   7.876 -0.7366  0.2745  0.4129
 1463TIP3    H125948   2.792   0.556   7.804 -2.2992 -0.8537  0.8260
 1463TIP3    H225949   2.855   0.636   7.916 -0.0132 -0.4543 -0.6818
 1464TIP3   OH225950   1.548   0.248   0.159 -0.3365 -0.1429  0.0908
 1464TIP3    H125951   1.456   0.263   0.137 -0.4617 -1.0132  0.0016
 1464TIP3    H225952   1.594   0.253   0.075 -0.1446  1.3011  0.2526
 1465TIP3   OH225953   6.635   2.232   7.692  0.1461  0.0716 -0.4108
 1465TIP3    H125954   6.564   2.168   7.694  0.1908  0.0020 -0.9670
 1465TIP3    H225955   6.667   2.234   7.782 -0.2922 -0.1980 -0.2445
 1466TIP3   OH225956   5.191   1.504   1.658 -0.1749  0.6289 -0.0390
 1466TIP3    H125957   5.280   1.517   1.625 -0.6389 -0.4640 -1.8784
 1466TIP3    H225958   5.138   1.569   1.610 -0.7307 -0.4263 -0.9129
 1467TIP3   OH225959   4.365   6.018   1.502 -0.7046 -0.1622  0.1244
 1467TIP3    H125960   4.284   6.034   1.552 -0.8904  0.8152 -0.4579
 1467TIP3    H225961   4.423   5.974   1.563 -1.1434  0.4807  1.0244
 1468TIP3   OH225962   1.946   1.067   2.558  0.0326 -0.0776  0.4764
 1468TIP3    H125963   2.007   1.096   2.490 -0.3622 -0.5602 -0.0976
 1468TIP3    H225964   2.002   1.046   2.633  0.4563  0.6672  0.3881
 1469TIP3   OH225965   5.415   5.070   1.377 -0.2396 -0.2876  0.0223
 1469TIP3    H125966   5.448   5.152   1.414  0.1137 -0.1113 -0.6621
 1469TIP3    H225967   5.479   5.004   1.403  1.4518  0.2647 -2.3719
 1470TIP3   OH225968   1.941   0.779   8.043  0.1776  0.1447 -0.0110
 1470TIP3    H125969   1.951   0.839   8.117  1.3570 -0.8013  0.6360
 1470TIP3    H225970   2.014   0.717   8.053 -1.0786 -1.4730 -0.5737
 1471TIP3   OH225971   6.802   1.564   1.232  0.2437  0.2858 -0.0592
 1471TIP3    H125972   6.738   1.546   1.163  0.1474  0.4304 -0.0095
 1471TIP3    H225973   6.868   1.496   1.223 -0.7443 -0.8365  0.9137
 1472TIP3   OH225974   5.464   4.347   7.528 -0.4645 -0.1244 -0.1110
 1472TIP3    H125975   5.386   4.301   7.497 -0.6718 -0.0339  0.2654
 1472TIP3    H225976   5.470   4.324   7.621 -0.5145  0.5308  0.0585
 1473TIP3   OH225977   2.692   4.023   7.518  0.3855  0.2559 -0.5819
 1473TIP3    H125978   2.680   4.115   7.543 -0.2420  0.4017 -1.3663
 1473TIP3    H225979   2.638   4.012   7.440  2.0760 -0.2499 -1.7324
 1474TIP3   OH225980   2.409   0.830   1.662  0.0828  0.7243 -0.4143
 1474TIP3    H125981   2.477   0.885   1.623 -0.5529  0.7585 -1.5198
 1474TIP3    H225982   2.443   0.741   1.657 -0.2056  0.6722 -1.5281
 1475TIP3   OH225983   1.872   5.648   7.196  0.8582  0.0764 -0.4150
 1475TIP3    H125984   1.960   5.660   7.159  1.0591  3.7262  0.8645
 1475TIP3    H225985   1.813   5.650   7.121  1.7223 -1.3608 -1.1864
 1476TIP3   OH225986   1.649   0.687   8.482  0.2598  0.3658 -0.2442
 1476TIP3    H125987   1.646   0.658   8.391  0.0050 -0.7688  0.1148
 1476TIP3    H225988   1.735   0.730   8.490  0.4376  0.1516 -0.9218
 1477TIP3   OH225989   0.026   1.127   0.382 -0.6969 -0.3199 -0.5826
 1477TIP3    H125990   0.054   1.085   0.300 -1.4106 -1.6279 -0.1913
 1477TIP3    H225991  -0.062   1.159   0.362  0.5231  2.8334 -1.4828
 1478TIP3   OH225992   0.049   0.945   1.675  0.6412 -0.3807 -0.0519
 1478TIP3    H125993   0.109   1.018   1.659  1.4007 -1.0421 -0.2915
 1478TIP3    H225994   0.045   0.898   1.591 -1.7451  0.7310 -0.6650
 1479TIP3   OH225995   0.275   6.804   8.323 -0.0308  0.0590  0.1279
 1479TIP3    H125996   0.341   6.818   8.391 -0.0742  0.4101  0.0972
 1479TIP3    H225997   0.218   6.880   8.328 -0.3295 -0.1569  0.0312
 1480TIP3   OH225998   1.405   2.026   7.148  0.7338 -0.0164  0.0487
 1480TIP3    H125999   1.365   1.981   7.073 -3.0406  0.2824  1.6640
 1480TIP3    H226000   1.452   1.957   7.195  0.7290 -0.7969 -1.0325
 1481TIP3   OH226001   0.253   3.977   7.676  0.6979 -0.3218  0.1092
 1481TIP3    H126002   0.284   3.897   7.633  0.0239 -0.3202 -0.3814
 1481TIP3    H226003   0.317   3.992   7.745  1.5039 -0.6171 -0.5540
 1482TIP3   OH226004   6.771   6.495   0.566  0.5748 -0.0966 -0.7222
 1482TIP3    H126005   6.785   6.589   0.561 -0.1391  0.0387 -0.2577
 1482TIP3    H226006   6.776   6.465   0.475 -0.6827  0.6229 -1.0522
 1483TIP3   OH226007   4.167   3.466   8.189  0.3097 -0.0764 -0.2211
 1483TIP3    H126008   4.244   3.522   8.179  0.2609 -0.2728 -2.1771
 1483TIP3    H226009   4.160   3.420   8.105 -1.7674 -0.2857  0.0069
 1484TIP3   OH226010   3.832   4.160   1.299  0.2609  0.2323 -0.0424
 1484TIP3    H126011   3.760   4.137   1.358 -1.3636  0.1425 -1.9260
 1484TIP3    H226012   3.907   4.111   1.332 -0.8469 -0.6645  1.2784
 1485TIP3   OH226013   3.283   5.908   8.314 -0.3357  0.2129  0.9044
 1485TIP3    H126014   3.290   5.813   8.305 -0.2564  0.3672 -1.2113
 1485TIP3    H226015   3.306   5.925   8.405 -0.9189 -1.8352  1.5069
 1486TIP3   OH226016   5.518   4.218   2.444 -0.2195  0.2993  0.1395
 1486TIP3    H126017   5.442   4.267   2.413  1.2247  2.3145 -0.4236
 1486TIP3    H226018   5.514   4.226   2.539  0.7826  2.9855  0.0571
 1487TIP3   OH226019   2.719   0.258   7.934 -0.0387 -0.1701 -0.3804
 1487TIP3    H126020   2.650   0.325   7.941 -0.2597 -0.4461  0.1128
 1487TIP3    H226021   2.784   0.297   7.876  0.1441  0.7387  0.4154
 1488TIP3   OH226022   1.103   0.237   8.710  0.0664  0.3599 -0.3746
 1488TIP3    H126023   1.083   0.178   8.782  0.6392  1.0664  0.3763
 1488TIP3    H226024   1.071   0.191   8.632  0.4704 -0.9239  0.1895
 1489TIP3   OH226025   2.284   5.527   1.977 -0.3877  0.3457 -0.2463
 1489TIP3    H126026   2.300   5.434   1.991  0.0543  0.7202  2.3257
 1489TIP3    H226027   2.197   5.542   2.013 -0.3916  0.9441 -0.4958
 1490TIP3   OH226028   3.025   5.277   8.687  0.7042  0.8367 -0.2020
 1490TIP3    H126029   2.977   5.348   8.730 -1.1849  1.3430 -2.8722
 1490TIP3    H226030   2.990   5.197   8.725 -0.2039  1.2861 -0.0806
 1491TIP3   OH226031   0.516   6.415   7.473  0.8834 -0.2790 -0.0585
 1491TIP3    H126032   0.607   6.445   7.482  0.6659  0.0233  1.4149
 1491TIP3    H226033   0.501   6.413   7.379  2.1678  0.4327 -0.3103
 1492TIP3   OH226034   2.138   2.225   7.949  0.1376  0.3501 -0.1088
 1492TIP3    H126035   2.192   2.293   7.989  0.7978 -0.5217  0.5334
 1492TIP3    H226036   2.094   2.183   8.023 -0.2436  0.0617 -0.4927
 1493TIP3   OH226037   5.344   2.899   7.725 -0.0410 -0.2796  0.2411
 1493TIP3    H126038   5.354   2.993   7.712  1.1849 -0.0937  2.1119
 1493TIP3    H226039   5.249   2.884   7.727 -0.2430  0.9544  0.2120
 1494TIP3   OH226040   1.651   2.305   1.603  0.2734 -0.6216 -0.6196
 1494TIP3    H126041   1.706   2.332   1.677 -2.4426 -1.8490  2.0681
 1494TIP3    H226042   1.671   2.212   1.591  1.1564 -0.2932 -1.9700
 1495TIP3   OH226043   4.704   1.131   2.251 -0.1914  0.3030  0.4785
 1495TIP3    H126044   4.757   1.137   2.331 -0.2181  1.6833  0.4165
 1495TIP3    H226045   4.685   1.222   2.229  1.0094  0.0537 -1.9079
 1496TIP3   OH226046   4.713   2.251   0.277  0.0849 -0.2699 -0.0498
 1496TIP3    H126047   4.786   2.199   0.311 -1.4578 -1.3321  1.8419
 1496TIP3    H226048   4.713   2.330   0.331 -1.0694 -0.9984  1.0890
 1497TIP3   OH226049   2.440   3.234   1.974  0.2038  0.0226  0.4128
 1497TIP3    H126050   2.381   3.224   2.048  0.7817 -3.1032  0.5592
 1497TIP3    H226051   2.391   3.202   1.899  1.6170 -2.8336  0.5703
 1498TIP3   OH226052   4.394   6.792   0.709 -0.2322  0.0009  0.0421
 1498TIP3    H126053   4.362   6.702   0.706 -0.1645 -0.0017 -0.7279
 1498TIP3    H226054   4.372   6.828   0.623  1.3568  0.1559 -0.3198
 1499TIP3   OH226055   5.545   5.918   0.205 -0.3792 -0.1947  0.6215
 1499TIP3    H126056   5.579   5.980   0.140  0.2131 -0.6481  0.4989
 1499TIP3    H226057   5.621   5.893   0.258 -0.2451 -2.1478 -0.4142
 1500TIP3   OH226058   3.762   3.446   3.046 -0.4459 -0.4755  0.3751
 1500TIP3    H126059   3.741   3.524   3.097  0.0948 -0.9138  1.2842
 1500TIP3    H226060   3.677   3.411   3.020 -0.7002  0.2037  0.2720
 1501TIP3   OH226061   2.718   0.022   1.030 -0.1745 -0.2268 -0.2131
 1501TIP3    H126062   2.706  -0.027   1.112 -3.1266 -1.9346 -1.4891
 1501TIP3    H226063   2.766  -0.039   0.973 -0.1159  0.0523 -0.4625
 1502TIP3   OH226064   6.277   4.517   3.084  0.2912  0.5207 -0.0820
 1502TIP3    H126065   6.307   4.579   3.018 -0.6883 -0.0164 -1.0781
 1502TIP3    H226066   6.266   4.435   3.035 -0.9699  0.2489  0.6244
 1503TIP3   OH226067   2.137   1.138   8.336  0.0152 -0.0654 -0.2001
 1503TIP3    H126068   2.166   1.057   8.293  1.0137 -0.4682  1.1567
 1503TIP3    H226069   2.055   1.161   8.292  0.5677 -0.8915 -1.7389
 1504TIP3   OH226070   0.164   4.751   1.558 -0.4151  0.4922 -0.2360
 1504TIP3    H126071   0.244   4.700   1.568 -0.1983  0.7423 -0.6298
 1504TIP3    H226072   0.116   4.706   1.488 -0.4511  0.5426 -0.2441
 1505TIP3   OH226073   1.234   4.248   8.037 -0.4860 -0.4352 -0.0543
 1505TIP3    H126074   1.286   4.169   8.052  0.7818  0.3473 -0.1810
 1505TIP3    H226075   1.294   4.307   7.991 -1.9967 -0.0843 -1.6787
 1506TIP3   OH226076   2.159   4.733   0.723  0.0786 -0.3399  0.1469
 1506TIP3    H126077   2.194   4.810   0.768 -0.3661  0.4701 -0.8485
 1506TIP3    H226078   2.178   4.749   0.630 -2.1698 -0.2485 -0.3573
 1507TIP3   OH226079   6.138   6.717   7.688  0.3396 -0.7921  0.0136
 1507TIP3    H126080   6.108   6.758   7.769 -0.5313 -1.8403  0.2362
 1507TIP3    H226081   6.126   6.786   7.622  0.7095 -0.0517  0.6953
 1508TIP3   OH226082   5.574   2.894   1.503 -0.0625  0.5443  0.1786
 1508TIP3    H126083   5.569   2.835   1.578 -2.1555 -0.5595 -0.7247
 1508TIP3    H226084   5.667   2.894   1.479  0.2678 -1.0434  1.2668
 1509TIP3   OH226085   0.415   0.478   8.463 -0.3547  0.2148  0.0050
 1509TIP3    H126086   0.477   0.406   8.450 -0.0658  0.4790 -0.1157
 1509TIP3    H226087   0.468   0.557   8.449 -0.4245  0.4829  1.1156
 1510TIP3   OH226088   3.003   0.094   7.620  0.1713 -0.2416  0.5239
 1510TIP3    H126089   3.071   0.066   7.560 -2.3158 -1.4624 -1.9705
 1510TIP3    H226090   2.960   0.012   7.647 -0.7332  0.5154  1.4781
 1511TIP3   OH226091   2.048   3.378   8.079 -0.3090  0.7515  0.2708
 1511TIP3    H126092   1.971   3.322   8.088  0.0423  0.2840  0.3957
 1511TIP3    H226093   2.043   3.438   8.153 -0.2230  0.3163  0.6330
 1512TIP3   OH226094   5.274   3.851   7.613 -0.7090  0.1688  0.6026
 1512TIP3    H126095   5.201   3.905   7.643 -1.2422 -1.3308  2.1410
 1512TIP3    H226096   5.239   3.801   7.539 -0.1856  1.8775 -0.8969
 1513TIP3   OH226097   4.645   1.033   8.463  0.6946  0.4510  0.0800
 1513TIP3    H126098   4.623   0.988   8.544 -0.5345 -0.7449 -0.8643
 1513TIP3    H226099   4.615   0.974   8.394  0.6767  1.9359 -1.2409
 1514TIP3   OH226100   4.671   3.215   1.504  0.2615  0.4923 -0.4804
 1514TIP3    H126101   4.617   3.155   1.555 -0.5435  3.2780  2.3234
 1514TIP3    H226102   4.758   3.210   1.544  0.0477  1.4966  0.1553
 1515TIP3   OH226103   2.133   1.266   7.997 -0.3550 -0.0887 -0.0603
 1515TIP3    H126104   2.068   1.324   8.037 -0.5473 -0.7258  0.5867
 1515TIP3    H226105   2.090   1.181   7.993 -0.1715 -0.1499 -1.2349
 1516TIP3   OH226106   3.027   2.644   2.137  0.2100 -0.1108 -0.7753
 1516TIP3    H126107   3.107   2.676   2.096  0.0261 -0.4292 -1.3850
 1516TIP3    H226108   3.058   2.588   2.209  0.5298  0.0680 -0.7710
 1517TIP3   OH226109   1.401   0.474   7.752 -0.1030 -0.3459 -0.0206
 1517TIP3    H126110   1.397   0.393   7.804 -1.7678 -0.3478 -0.0869
 1517TIP3    H226111   1.494   0.485   7.732  0.3053 -1.5885  1.0075
 1518TIP3   OH226112   2.283   0.320   0.774 -0.1317  0.3685  0.2255
 1518TIP3    H126113   2.251   0.272   0.850 -0.2006  0.5592  0.3160
 1518TIP3    H226114   2.359   0.269   0.744 -0.7239 -0.2797 -0.2055
 1519TIP3   OH226115   6.406   2.238   2.051  0.3707  0.0408 -0.0171
 1519TIP3    H126116   6.498   2.241   2.078 -0.0596 -1.2250  1.7827
 1519TIP3    H226117   6.357   2.242   2.133 -1.1388 -0.8693 -0.8270
 1520TIP3   OH226118   0.051   5.494   1.830 -0.3615 -0.0583 -0.6351
 1520TIP3    H126119   0.076   5.424   1.770  2.2884 -0.0415  0.3323
 1520TIP3    H226120   0.040   5.571   1.774 -0.4590 -0.6090 -1.3782
 1521TIP3   OH226121   0.657   6.354   1.746  0.7998 -0.1470  0.3949
 1521TIP3    H126122   0.744   6.328   1.715  0.1913 -0.4344 -1.1887
 1521TIP3    H226123   0.600   6.281   1.721  0.1348 -0.0513  1.5900
 1522TIP3   OH226124   2.568   4.297   7.229  0.0957 -0.4821  0.0059
 1522TIP3    H126125   2.622   4.324   7.303 -0.9485 -1.6050  1.2294
 1522TIP3    H226126   2.601   4.348   7.155  0.9335  0.9419  1.3093
 1523TIP3   OH226127   1.456   4.125   7.991  0.2922  0.0159  0.5669
 1523TIP3    H126128   1.534   4.156   8.036  0.2192  0.6647  0.2647
 1523TIP3    H226129   1.457   4.030   8.002  0.4739  0.1286  1.6035
 1524TIP3   OH226130   2.526   0.803   2.648  0.2071 -0.7076 -0.0013
 1524TIP3    H126131   2.501   0.894   2.666 -0.9423 -0.6573 -1.6326
 1524TIP3    H226132   2.610   0.810   2.602  0.0833 -0.4620 -0.1923
 1525TIP3   OH226133   3.528   1.547   0.768  0.3774 -0.0295 -0.3405
 1525TIP3    H126134   3.460   1.537   0.834  1.2552 -0.8033  0.4676
 1525TIP3    H226135   3.509   1.632   0.727 -0.1685  0.4838  0.9246
 1526TIP3   OH226136   0.198   2.943   1.545 -0.3714 -0.3604 -0.4167
 1526TIP3    H126137   0.263   2.881   1.580 -0.6559  0.1126  1.0450
 1526TIP3    H226138   0.249   3.018   1.515 -0.2158  0.0712  0.8617
 1527TIP3   OH226139   4.465   4.888   7.728 -0.0677  0.0258  0.1783
 1527TIP3    H126140   4.542   4.923   7.685 -0.1161 -0.1511 -0.0548
 1527TIP3    H226141   4.475   4.913   7.820  0.3647 -0.1663  0.1869
 1528TIP3   OH226142   1.242   4.170   0.776 -0.0387 -0.0536 -0.2851
 1528TIP3    H126143   1.151   4.174   0.746  0.0286 -1.6174 -0.7490
 1528TIP3    H226144   1.294   4.186   0.698  0.1092  0.8241 -0.0231
 1529TIP3   OH226145   2.788   2.811   1.955  0.0103  0.4608  0.2141
 1529TIP3    H126146   2.879   2.806   1.927  0.3160  2.0928  0.7929
 1529TIP3    H226147   2.793   2.838   2.047 -0.9903 -3.3487  1.5344
 1530TIP3   OH226148   4.053   2.329   8.241  0.2299 -0.2032 -0.4999
 1530TIP3    H126149   3.973   2.289   8.273  0.1674  1.4537  1.7134
 1530TIP3    H226150   4.123   2.283   8.288  0.4909 -0.6739 -1.3300
 1531TIP3   OH226151   4.816   4.631   8.378  0.2284  0.0073  0.1064
 1531TIP3    H126152   4.904   4.628   8.418 -0.2428  0.2700  1.2027
 1531TIP3    H226153   4.766   4.564   8.425 -0.3718  0.3932  0.0275
 1532TIP3   OH226154   0.443   1.750   1.359  0.2306 -0.6327 -0.0829
 1532TIP3    H126155   0.409   1.665   1.386  0.8641 -1.1734 -0.9599
 1532TIP3    H226156   0.370   1.792   1.313  0.3066 -1.2275 -0.7563
 1533TIP3   OH226157   1.750   3.528   1.119 -0.1400  0.6212 -0.4554
 1533TIP3    H126158   1.701   3.447   1.108  0.4104  0.2991 -0.6269
 1533TIP3    H226159   1.712   3.589   1.056 -1.3870  0.9096  0.5494
 1534TIP3   OH226160   1.767   3.698   2.091  0.6171 -1.0824 -0.1914
 1534TIP3    H126161   1.793   3.699   1.998  1.5549  0.7023  0.0428
 1534TIP3    H226162   1.685   3.650   2.092 -0.8404  1.1012 -2.3965
 1535TIP3   OH226163   1.575   2.209   7.270 -0.2436 -0.3252  0.4884
 1535TIP3    H126164   1.565   2.299   7.238  3.1159 -0.2794 -0.9199
 1535TIP3    H226165   1.516   2.158   7.215 -0.6652  0.7825 -0.1266
 1536TIP3   OH226166   1.641   5.636   1.241 -0.4389  0.3990  0.3957
 1536TIP3    H126167   1.652   5.679   1.325  0.1099 -1.6953  1.4846
 1536TIP3    H226168   1.686   5.692   1.178  1.8267  0.5269  2.0155
 1537TIP3   OH226169   6.287   1.717   7.289 -0.3530 -0.2986  0.3404
 1537TIP3    H126170   6.358   1.681   7.342  1.2672 -0.7374 -1.9891
 1537TIP3    H226171   6.292   1.669   7.207 -0.0883  3.0363 -1.7894
 1538TIP3   OH226172   1.187   5.502   7.300 -0.1819  0.1672  0.7870
 1538TIP3    H126173   1.242   5.497   7.221 -0.0832 -1.3703  0.9196
 1538TIP3    H226174   1.101   5.473   7.270 -0.6419  1.4562  0.8344
 1539TIP3   OH226175   5.155   1.145   1.184  0.5475 -0.1129 -0.2875
 1539TIP3    H126176   5.100   1.124   1.259  0.7077 -1.1309 -0.4322
 1539TIP3    H226177   5.236   1.179   1.221  1.0116 -1.5202  0.0768
 1540TIP3   OH226178   5.508   5.097   8.753 -0.6836  0.4046 -0.1320
 1540TIP3    H126179   5.517   5.183   8.794 -1.7128  0.1753  0.6098
 1540TIP3    H226180   5.421   5.097   8.714 -0.3861 -0.0255 -0.8233
 1541TIP3   OH226181   4.654   1.979   2.406  0.1303 -0.8437 -0.3534
 1541TIP3    H126182   4.623   1.897   2.444 -0.4298 -0.3548  0.2656
 1541TIP3    H226183   4.744   1.987   2.439 -0.3727 -0.3833  0.9947
 1542TIP3   OH226184   0.368   1.624   0.188  0.3762  0.6960 -0.4748
 1542TIP3    H126185   0.410   1.606   0.104 -1.1411 -1.3947 -0.8830
 1542TIP3    H226186   0.346   1.537   0.222 -0.5912  1.5747  1.2649
 1543TIP3   OH226187   3.000   3.500   8.678  0.2495  0.4777  0.2559
 1543TIP3    H126188   2.920   3.524   8.632 -0.5134 -1.7647  0.2930
 1543TIP3    H226189   3.063   3.481   8.608  0.4444  1.2287  0.2180
 1544TIP3   OH226190   3.662   0.791   0.789 -0.1406  0.1121 -0.0484
 1544TIP3    H126191   3.601   0.855   0.752  0.0040  0.0590 -0.3839
 1544TIP3    H226192   3.744   0.839   0.797  0.1764 -0.2491 -1.0373
 1545TIP3   OH226193   5.131   1.010   1.572  0.3205  0.3570  0.3475
 1545TIP3    H126194   5.060   0.987   1.633  0.8880 -1.9142  0.2348
 1545TIP3    H226195   5.107   1.096   1.539 -1.9510  0.0150  0.9506
 1546TIP3   OH226196   1.395   3.327   0.736 -0.0142  0.0971 -0.7815
 1546TIP3    H126197   1.425   3.394   0.797  0.0919 -1.5085  1.0210
 1546TIP3    H226198   1.308   3.303   0.767 -0.8552  0.7069 -2.5543
 1547TIP3   OH226199   0.766   3.836   1.178 -0.5958  0.5865 -0.6871
 1547TIP3    H126200   0.839   3.802   1.126 -1.4631  1.6663 -2.6987
 1547TIP3    H226201   0.736   3.761   1.229  0.6358 -0.3804 -1.3321
 1548TIP3   OH226202   0.924   6.256   7.984  0.4731 -0.5073 -0.5682
 1548TIP3    H126203   0.860   6.278   7.917  0.4933 -0.4420 -0.5662
 1548TIP3    H226204   0.934   6.161   7.978 -1.5666 -0.9166  1.1438
 1549TIP3   OH226205   6.410   0.319   7.176 -0.6071  0.6288 -0.4350
 1549TIP3    H126206   6.408   0.272   7.093  3.2010 -0.2356 -0.2056
 1549TIP3    H226207   6.426   0.410   7.151 -0.2601  0.5052 -0.6675
 1550TIP3   OH226208   3.228   6.730   8.206 -0.2600  0.3710  0.3541
 1550TIP3    H126209   3.213   6.713   8.113  0.7496  2.3059 -0.2136
 1550TIP3    H226210   3.318   6.764   8.210 -0.3383  0.4708  2.0259
 1551TIP3   OH226211   1.957   0.083   0.553 -0.3493 -0.1876 -0.0476
 1551TIP3    H126212   2.036   0.037   0.527 -0.1060 -0.1061  0.5238
 1551TIP3    H226213   1.955   0.076   0.649 -0.5031  0.6640  0.0233
 1552TIP3   OH226214   2.936   3.988   2.674 -0.5320  0.1841 -0.0950
 1552TIP3    H126215   3.015   3.937   2.687 -0.7346  0.4149  2.4686
 1552TIP3    H226216   2.867   3.937   2.717 -1.8415 -0.0342 -2.2927
 1553TIP3   OH226217   6.395   5.925   2.214 -0.9412  0.2972 -0.1148
 1553TIP3    H126218   6.330   5.866   2.252 -1.2118  0.5855 -0.1188
 1553TIP3    H226219   6.418   5.886   2.130 -1.6318  0.5501 -0.4269
 1554TIP3   OH226220   6.489   1.042   1.123 -0.3528  0.8390 -0.7622
 1554TIP3    H126221   6.536   1.018   1.043  1.1647  1.2004 -0.0154
 1554TIP3    H226222   6.474   0.959   1.168  2.5835  0.9312  0.5736
 1555TIP3   OH226223   3.035   1.015   7.514  0.3250  0.4268 -0.2648
 1555TIP3    H126224   3.041   0.950   7.444 -1.2782  0.9495 -0.9266
 1555TIP3    H226225   3.024   1.099   7.470 -0.3571  0.8111  0.6007
 1556TIP3   OH226226   1.356   2.643   0.097 -0.1871 -0.0202  0.5422
 1556TIP3    H126227   1.429   2.663   0.038 -1.2216  1.5332 -0.2646
 1556TIP3    H226228   1.285   2.616   0.039 -0.3378 -1.3758  1.3135
 1557TIP3   OH226229   5.113   4.279   8.220  0.2278  0.6090 -0.3986
 1557TIP3    H126230   5.166   4.352   8.189  0.3773 -0.0257 -1.6994
 1557TIP3    H226231   5.073   4.311   8.301  2.5292  1.1359  0.6172
 1558TIP3   OH226232   5.034   5.268   0.870  0.0679  0.0597 -0.2103
 1558TIP3    H126233   5.007   5.185   0.829  1.4809 -0.8182  0.5831
 1558TIP3    H226234   5.052   5.326   0.796  0.9677 -0.9705 -0.8266
 1559TIP3   OH226235   1.013   3.343   2.563  0.0091 -0.1280  0.5585
 1559TIP3    H126236   1.072   3.419   2.555  1.3418 -1.2293 -0.6080
 1559TIP3    H226237   0.986   3.343   2.655 -0.5869  2.1407  0.4618
 1560TIP3   OH226238   1.044   1.683   2.900 -0.0464  0.2824  0.1273
 1560TIP3    H126239   0.997   1.658   2.980 -0.7743 -2.0244 -0.9250
 1560TIP3    H226240   0.988   1.747   2.857 -0.1732  0.7085  0.9078
 1561TIP3   OH226241   2.226   6.738   0.135 -0.2578 -0.5065 -0.0333
 1561TIP3    H126242   2.223   6.773   0.046 -1.1553  1.7678  0.8261
 1561TIP3    H226243   2.296   6.787   0.177 -2.0463  0.9309  1.4269
 1562TIP3   OH226244   5.533   2.930   2.024  0.1969  0.1054  0.0841
 1562TIP3    H126245   5.479   2.943   1.946  0.0750  1.3496  0.3449
 1562TIP3    H226246   5.621   2.954   1.996  0.1601  0.5098  0.3076
 1563TIP3   OH226247   0.512   1.916   7.931 -0.2692  0.2234  0.1375
 1563TIP3    H126248   0.605   1.910   7.952 -0.0510 -0.8972 -1.0446
 1563TIP3    H226249   0.506   1.986   7.866 -0.1147 -0.3412 -0.4891
 1564TIP3   OH226250   5.778   4.991   8.353 -0.5285 -0.0582 -0.7926
 1564TIP3    H126251   5.783   4.937   8.431  0.0986 -0.6668 -1.2451
 1564TIP3    H226252   5.686   5.018   8.349 -1.1618 -2.0575 -1.1783
 1565TIP3   OH226253   4.832   5.618   8.188 -0.0311  0.1430 -0.1274
 1565TIP3    H126254   4.924   5.624   8.163  0.6501 -0.6381  1.9338
 1565TIP3    H226255   4.825   5.534   8.235 -1.5863  0.5965  0.5293
 1566TIP3   OH226256   6.784   3.670   8.530  1.1248  0.0924  0.1449
 1566TIP3    H126257   6.854   3.734   8.546  1.6524 -0.0430 -1.4151
 1566TIP3    H226258   6.706   3.724   8.512  1.2765  0.2818  0.0498
 1567TIP3   OH226259   0.486   6.170   0.793  0.1052 -0.2983  0.0700
 1567TIP3    H126260   0.570   6.215   0.780  0.6845 -1.5681 -0.8250
 1567TIP3    H226261   0.423   6.240   0.808  0.7655  0.9164 -2.3512
 1568TIP3   OH226262   2.950   1.211   0.486  0.2283  0.4758  0.2628
 1568TIP3    H126263   3.001   1.228   0.565  0.0204 -0.8854  0.7140
 1568TIP3    H226264   2.999   1.256   0.417  2.3828 -1.1749  0.5896
 1569TIP3   OH226265   2.684   1.557   3.130 -0.1288  0.4107  0.2731
 1569TIP3    H126266   2.625   1.504   3.183  0.3120  1.6563  2.1131
 1569TIP3    H226267   2.661   1.537   3.039 -2.9099  0.3788  0.9189
 1570TIP3   OH226268   6.488   6.111   7.861  0.3445 -0.3522 -0.4591
 1570TIP3    H126269   6.465   6.104   7.769 -0.8664 -1.3826 -0.1162
 1570TIP3    H226270   6.500   6.204   7.876 -0.1110 -0.1130 -1.5049
 1571TIP3   OH226271   0.880   5.660   0.942 -0.5541  0.9294  0.1238
 1571TIP3    H126272   0.819   5.669   0.869  0.6143  1.3047 -0.8184
 1571TIP3    H226273   0.845   5.586   0.993 -0.5996 -0.2942 -1.6095
 1572TIP3   OH226274   4.029   5.833   8.029  0.4927  0.2143 -0.5485
 1572TIP3    H126275   4.027   5.760   7.968 -0.0518 -0.2042 -0.0490
 1572TIP3    H226276   4.122   5.846   8.048  0.6531  0.2656 -1.3593
 1573TIP3   OH226277   3.952   1.930   3.058  0.6808  0.1314 -0.4604
 1573TIP3    H126278   3.989   1.864   3.000  1.4442 -0.0163  0.1721
 1573TIP3    H226279   4.014   2.002   3.055 -0.9095  1.5254 -2.3487
 1574TIP3   OH226280   6.368   5.651   1.739 -0.5416 -0.3001 -0.0746
 1574TIP3    H126281   6.312   5.710   1.688  1.1817  0.9254 -0.6407
 1574TIP3    H226282   6.407   5.592   1.674  1.8355  1.4081 -0.3162
 1575TIP3   OH226283   2.646   0.622   0.414  0.8724 -0.1111 -1.0733
 1575TIP3    H126284   2.668   0.631   0.506  2.6794  2.7479 -1.6569
 1575TIP3    H226285   2.683   0.538   0.388 -0.8876 -1.6355  1.0225
 1576TIP3   OH226286   3.645   0.407   0.253  0.2146 -0.5593 -0.2054
 1576TIP3    H126287   3.682   0.429   0.338  0.5353 -0.9854 -0.2338
 1576TIP3    H226288   3.597   0.486   0.227 -1.7756 -1.1442  1.3749
 1577TIP3   OH226289   1.606   3.465   0.643 -0.3486  0.3454 -0.4023
 1577TIP3    H126290   1.559   3.527   0.587 -0.2215  2.4645  1.6928
 1577TIP3    H226291   1.538   3.407   0.677 -1.4750  2.6645  1.6890
 1578TIP3   OH226292   6.415   1.413   7.617 -0.2899 -0.0950 -0.2013
 1578TIP3    H126293   6.327   1.389   7.644 -0.0829 -0.6658 -0.0078
 1578TIP3    H226294   6.417   1.397   7.522 -0.3692 -0.1648 -0.1907
 1579TIP3   OH226295   1.892   4.248   8.755 -0.8617 -0.1301  0.1763
 1579TIP3    H126296   1.841   4.308   8.700 -0.2984 -1.1209 -1.4995
 1579TIP3    H226297   1.854   4.162   8.736 -1.9352 -0.3333  2.8486
 1580TIP3   OH226298   5.348   0.781   8.248 -0.0457  0.2488  0.2705
 1580TIP3    H126299   5.344   0.741   8.161 -0.1875  0.6790  0.0765
 1580TIP3    H226300   5.275   0.842   8.250 -0.7860 -0.6343  1.1440
 1581TIP3   OH226301   2.025   4.539   8.439  0.3573 -0.6934 -0.2696
 1581TIP3    H126302   2.054   4.460   8.394  0.8372 -0.1226 -0.9743
 1581TIP3    H226303   2.034   4.609   8.374 -0.3691 -0.1072  0.2403
 1582TIP3   OH226304   0.148   5.122   2.343 -0.6996  0.1797 -0.0325
 1582TIP3    H126305   0.078   5.109   2.279  0.4175 -1.5631 -0.9835
 1582TIP3    H226306   0.229   5.114   2.292  0.2332  2.3680  0.9902
 1583TIP3   OH226307   3.720   6.398   2.350  0.1879  0.4705 -0.1095
 1583TIP3    H126308   3.772   6.318   2.349 -0.8065 -0.2022 -1.1223
 1583TIP3    H226309   3.681   6.402   2.263 -0.9438  1.2777  0.4065
 1584TIP3   OH226310   4.345   2.095   1.972  0.5472  0.4062 -0.0645
 1584TIP3    H126311   4.360   2.037   2.047 -0.6467 -1.7242 -1.3657
 1584TIP3    H226312   4.251   2.092   1.958  0.4553  2.6966 -0.2223
 1585TIP3   OH226313   4.835   0.647   8.636 -0.0871 -0.1725 -0.2752
 1585TIP3    H126314   4.747   0.625   8.609  0.1613 -0.4688 -0.8553
 1585TIP3    H226315   4.847   0.738   8.607 -1.1233  0.8255  2.1506
 1586TIP3   OH226316   4.591   1.378   7.183 -0.0313 -0.1316 -0.3141
 1586TIP3    H126317   4.677   1.337   7.175 -0.3309 -1.0587  0.9823
 1586TIP3    H226318   4.610   1.472   7.192  0.7562 -0.1660 -1.3527
 1587TIP3   OH226319   0.040   0.600   7.886 -0.1097 -0.3888  1.0314
 1587TIP3    H126320   0.012   0.680   7.930 -0.8687  0.6738 -1.2374
 1587TIP3    H226321  -0.024   0.534   7.912 -1.0631  0.4366  0.8278
 1588TIP3   OH226322   0.891   5.211   2.318 -0.1227  0.8147 -0.5161
 1588TIP3    H126323   0.805   5.200   2.358 -0.2406  0.4407 -0.8677
 1588TIP3    H226324   0.873   5.251   2.233 -0.0490 -0.2365 -1.0449
 1589TIP3   OH226325   5.872   4.891   0.331  0.1505 -0.0168 -0.8534
 1589TIP3    H126326   5.923   4.821   0.291  2.2076  0.8536  0.1127
 1589TIP3    H226327   5.822   4.848   0.400  0.8851 -0.6474 -0.7029
 1590TIP3   OH226328   4.507   6.492   1.354  0.1161 -0.0943  0.5431
 1590TIP3    H126329   4.490   6.577   1.394 -1.2466 -0.1012  0.0153
 1590TIP3    H226330   4.425   6.443   1.364  0.6662 -1.1084  0.2597
 1591TIP3   OH226331   4.348   1.223   7.161 -0.1818  0.2784  0.1979
 1591TIP3    H126332   4.426   1.277   7.150 -0.2274  0.4327  0.5953
 1591TIP3    H226333   4.288   1.280   7.210 -1.4656  1.0753 -2.1340
 1592TIP3   OH226334   4.099   0.287   8.144 -0.0867 -0.1107  0.7870
 1592TIP3    H126335   4.024   0.236   8.115 -2.2116  2.4513  1.4879
 1592TIP3    H226336   4.112   0.260   8.235 -2.2890  1.6862  1.7022
 1593TIP3   OH226337   5.172   0.656   7.578 -0.1518  0.6165  0.1268
 1593TIP3    H126338   5.228   0.715   7.526  0.7392  0.5515  0.9803
 1593TIP3    H226339   5.152   0.584   7.517 -0.1831  1.1629 -0.5252
 1594TIP3   OH226340   0.667   4.627   2.098  0.9527  0.0355  0.1210
 1594TIP3    H126341   0.707   4.557   2.047 -0.7390 -0.8598 -0.0275
 1594TIP3    H226342   0.707   4.619   2.185 -0.9344 -2.7511  0.8604
 1595TIP3   OH226343   3.451   3.167   0.788  0.4058  0.0791  0.1631
 1595TIP3    H126344   3.378   3.113   0.757 -0.2701  0.5886  0.8410
 1595TIP3    H226345   3.511   3.104   0.829  0.4021 -0.3562 -0.4956
 1596TIP3   OH226346   4.612   0.093   0.443 -0.1313 -0.0780  0.1746
 1596TIP3    H126347   4.543   0.028   0.461  0.0895  0.1152  1.8027
 1596TIP3    H226348   4.654   0.108   0.527 -0.9897  3.1525  0.1291
 1597TIP3   OH226349   1.127   0.253   1.537 -0.7975  0.4328  0.0894
 1597TIP3    H126350   1.180   0.314   1.589 -1.7457  1.3947 -0.0376
 1597TIP3    H226351   1.037   0.283   1.550 -1.3165 -1.1227  0.2455
 1598TIP3   OH226352   6.557   1.148   8.044 -0.0163 -0.1521 -0.2568
 1598TIP3    H126353   6.474   1.131   8.089 -0.3556  1.1604 -0.3221
 1598TIP3    H226354   6.531   1.186   7.960  0.6476 -0.5207 -0.6381
 1599TIP3   OH226355   5.146   6.329   0.485  0.0109  0.6506 -0.5205
 1599TIP3    H126356   5.189   6.337   0.570 -0.2058 -0.9154 -0.2247
 1599TIP3    H226357   5.083   6.258   0.496 -0.8877  1.2220 -1.6607
 1600TIP3   OH226358   6.054   2.019   1.442 -0.2137 -0.7058  0.1859
 1600TIP3    H126359   5.960   1.999   1.445 -1.0421  2.4503 -0.7637
 1600TIP3    H226360   6.062   2.086   1.373  2.5184  0.1818  1.2243
 1601TIP3   OH226361   2.839   0.866   8.115 -0.1813 -0.2748 -0.0112
 1601TIP3    H126362   2.875   0.796   8.062 -0.3659  0.2439 -0.8508
 1601TIP3    H226363   2.798   0.925   8.051  3.8654  3.0512  0.0202
 1602TIP3   OH226364   0.856   3.772   7.955 -0.3346  0.1622 -0.3353
 1602TIP3    H126365   0.874   3.707   7.887  2.5927  0.3598  0.1503
 1602TIP3    H226366   0.883   3.855   7.918  0.4483  0.3991  0.7227
 1603TIP3   OH226367   3.575   5.064   1.558  0.1743  0.0937  0.5849
 1603TIP3    H126368   3.481   5.065   1.542  0.1473  0.8480  0.7651
 1603TIP3    H226369   3.609   4.999   1.496 -0.0257  2.2888 -2.0133
 1604TIP3   OH226370   0.273   1.359   8.109  0.2900  0.3884  0.3990
 1604TIP3    H126371   0.222   1.330   8.033 -0.8133  2.7397  0.1491
 1604TIP3    H226372   0.310   1.443   8.082  3.1792 -0.5484  1.1102
 1605TIP3   OH226373   0.024   4.933   7.826 -0.1641 -0.5348  0.1983
 1605TIP3    H126374   0.116   4.930   7.801 -0.2804 -1.8206 -0.1706
 1605TIP3    H226375   0.015   4.866   7.894 -0.7738 -0.2320  0.4256
 1606TIP3   OH226376   0.392   0.128   0.187  0.4772  0.2563 -0.1701
 1606TIP3    H126377   0.345   0.107   0.106  0.2571  0.9462 -0.2262
 1606TIP3    H226378   0.356   0.068   0.252  2.2083 -1.9214 -1.0322
 1607TIP3   OH226379   0.598   1.883   7.598 -0.0407 -0.3939 -0.6583
 1607TIP3    H126380   0.666   1.950   7.602 -0.3544  0.0127 -1.8888
 1607TIP3    H226381   0.538   1.913   7.531 -2.1368 -0.1535  1.2172
 1608TIP3   OH226382   4.265   0.920   8.118  0.0505  0.2298  0.4393
 1608TIP3    H126383   4.284   0.827   8.106  0.2940  0.0123  2.1795
 1608TIP3    H226384   4.178   0.922   8.159  0.4023  0.6995  1.1946
 1609TIP3   OH226385   2.627   1.755   7.866  0.5638  0.0519 -0.2501
 1609TIP3    H126386   2.671   1.710   7.793 -0.8390  0.1139 -1.1838
 1609TIP3    H226387   2.551   1.798   7.825 -0.2556  0.1073  1.2596
 1610TIP3   OH226388   2.915   4.905   7.207 -0.0194 -0.0190 -0.2638
 1610TIP3    H126389   2.841   4.847   7.188  1.5177 -1.5606 -1.9758
 1610TIP3    H226390   2.991   4.846   7.208  1.4628  1.8050 -0.7357
 1611TIP3   OH226391   4.949   5.327   8.703  0.1252 -0.6318 -0.8442
 1611TIP3    H126392   4.981   5.244   8.738  1.5621 -0.2989 -1.3000
 1611TIP3    H226393   5.016   5.354   8.640 -1.1572  0.0290 -1.9824
 1612TIP3   OH226394   1.497   4.743   1.088 -0.0630  0.0197  0.8446
 1612TIP3    H126395   1.444   4.785   1.021 -0.5754 -0.4872  0.9285
 1612TIP3    H226396   1.556   4.685   1.039  0.3622  0.5137  0.7588
 1613TIP3   OH226397   6.551   2.853   1.102  0.2024 -0.1514 -0.3324
 1613TIP3    H126398   6.602   2.786   1.148  0.4977  0.5612  0.3980
 1613TIP3    H226399   6.606   2.878   1.028  0.8203  0.4450  0.3181
 1614TIP3   OH226400   2.818   3.231   8.799 -0.4986 -0.2178 -0.1679
 1614TIP3    H126401   2.859   3.308   8.760  0.0302 -0.7254 -0.6115
 1614TIP3    H226402   2.724   3.246   8.786 -0.6579  1.7893  2.3814
 1615TIP3   OH226403   5.788   4.729   2.427  0.4455  0.1131  0.1307
 1615TIP3    H126404   5.874   4.727   2.468 -0.0358  0.5164  1.2072
 1615TIP3    H226405   5.727   4.705   2.498 -0.5124  1.8371 -0.0633
 1616TIP3   OH226406   6.021   0.116   7.529  0.2017  0.2051 -0.4941
 1616TIP3    H126407   5.937   0.072   7.515 -0.4105  1.1837 -0.0316
 1616TIP3    H226408   5.998   0.199   7.571  1.0523  2.0861 -3.3752
 1617TIP3   OH226409   5.227   3.483   1.758 -0.1414 -0.3289 -0.6832
 1617TIP3    H126410   5.271   3.472   1.673  0.8384  0.1754 -0.2648
 1617TIP3    H226411   5.299   3.485   1.821 -0.6157  2.1389 -0.1283
 1618TIP3   OH226412   6.535   0.237   7.743 -0.3529  0.2502 -0.0545
 1618TIP3    H126413   6.519   0.183   7.665  1.2589  0.4239 -0.5471
 1618TIP3    H226414   6.511   0.181   7.816  1.0632 -1.1193 -0.5645
 1619TIP3   OH226415   1.954   5.450   8.203  0.1892 -0.6396 -0.2148
 1619TIP3    H126416   2.028   5.507   8.224  0.5665 -0.5600 -1.6904
 1619TIP3    H226417   1.901   5.501   8.142  0.0824 -1.5301 -0.8873
 1620TIP3   OH226418   4.672   2.080   7.807  0.2995 -0.2039  0.2885
 1620TIP3    H126419   4.582   2.081   7.774 -0.3875 -2.4195  1.8540
 1620TIP3    H226420   4.672   2.144   7.878  0.3229  0.6812 -0.4927
 1621TIP3   OH226421   2.242   1.848   0.333 -0.2768  0.4748  0.0197
 1621TIP3    H126422   2.271   1.937   0.316  2.4151 -0.2711  0.2287
 1621TIP3    H226423   2.210   1.850   0.424  0.5580  1.0814  0.3186
 1622TIP3   OH226424   3.642   2.219   7.846  0.0116  0.0493 -0.6385
 1622TIP3    H126425   3.583   2.145   7.830  1.3083 -1.2442  0.3458
 1622TIP3    H226426   3.712   2.208   7.782  0.1913  0.4671 -0.5184
 1623TIP3   OH226427   6.062   4.927   8.281 -0.3668 -0.5103  0.0370
 1623TIP3    H126428   5.967   4.914   8.281 -0.6422  0.8307  2.7699
 1623TIP3    H226429   6.073   5.018   8.306  1.6756 -0.4546 -0.9070
 1624TIP3   OH226430   3.357   3.709   6.883  0.0180  0.1885 -0.2117
 1624TIP3    H126431   3.268   3.692   6.915 -0.3912  1.7618 -0.4225
 1624TIP3    H226432   3.413   3.657   6.940 -1.0759 -1.5417 -0.6479
 1625TIP3   OH226433   5.646   4.687   8.349 -0.1183  0.0983  0.1229
 1625TIP3    H126434   5.724   4.714   8.397  0.1710 -0.9320  0.2523
 1625TIP3    H226435   5.602   4.626   8.407 -0.1950 -0.5270 -0.5848
 1626TIP3   OH226436   4.610   6.584   0.362  0.4002  0.2236  0.2201
 1626TIP3    H126437   4.683   6.642   0.386  0.4846 -0.2037  1.0327
 1626TIP3    H226438   4.599   6.527   0.439 -1.1692  0.6545  0.3435
 1627TIP3   OH226439   5.057   0.021   0.270  0.2090  0.7404 -0.0961
 1627TIP3    H126440   5.072  -0.071   0.247  1.2488  0.7266  0.5609
 1627TIP3    H226441   4.974   0.021   0.318  0.7991 -0.0456  0.9540
 1628TIP3   OH226442   1.247   6.074   0.965 -0.0472 -0.2103  0.1392
 1628TIP3    H126443   1.190   6.119   0.902  0.3839 -1.6670 -1.3804
 1628TIP3    H226444   1.188   6.017   1.015 -0.3319  0.6074  0.7400
 1629TIP3   OH226445   4.887   2.841   8.109 -0.2243 -0.3327 -0.3495
 1629TIP3    H126446   4.968   2.831   8.059  0.2847  1.2380  0.0789
 1629TIP3    H226447   4.900   2.788   8.188  0.8932  0.7742  0.2503
 1630TIP3   OH226448   3.642   2.218   0.304 -0.9063  0.5531 -0.0170
 1630TIP3    H126449   3.549   2.211   0.328 -1.1356  1.4615 -0.5566
 1630TIP3    H226450   3.665   2.132   0.271 -1.8514  0.5785 -0.7924
 1631TIP3   OH226451   5.034   3.439   7.108  0.5137 -0.1485  0.5897
 1631TIP3    H126452   5.102   3.390   7.062  0.2189 -1.0773  1.1116
 1631TIP3    H226453   4.994   3.493   7.040 -1.1112 -2.7885 -0.7503
 1632TIP3   OH226454   5.895   6.277   2.268 -0.1627 -0.2224  0.6165
 1632TIP3    H126455   5.883   6.317   2.182 -0.1582 -0.6676  0.4062
 1632TIP3    H226456   5.989   6.280   2.283  0.4616 -3.9314 -1.2916
 1633TIP3   OH226457   6.672   4.458   0.321  0.0362 -0.3325 -0.2490
 1633TIP3    H126458   6.636   4.379   0.361  0.7377 -1.1430 -1.1695
 1633TIP3    H226459   6.596   4.513   0.304 -0.3353 -0.2237  1.5996
 1634TIP3   OH226460   4.537   5.951   1.131  0.6360 -0.4176 -0.6955
 1634TIP3    H126461   4.534   5.886   1.061  0.0273 -2.7530  1.3775
 1634TIP3    H226462   4.591   5.911   1.199 -0.0289  1.0930  0.7870
 1635TIP3   OH226463   6.682   4.120   2.353  0.2461  0.2323 -0.2461
 1635TIP3    H126464   6.596   4.086   2.379  0.1074 -0.2800 -1.3252
 1635TIP3    H226465   6.744   4.070   2.407 -0.1770  2.0992  2.1258
 1636TIP3   OH226466   3.323   2.462   1.623  0.2627 -0.3354 -0.1826
 1636TIP3    H126467   3.394   2.418   1.669  1.0187 -0.8680 -1.7744
 1636TIP3    H226468   3.243   2.431   1.665  0.9151 -0.8517  0.6983
 1637TIP3   OH226469   6.580   3.830   8.431  0.4619 -0.1099 -0.0008
 1637TIP3    H126470   6.529   3.754   8.402 -1.9869  1.2222  0.5327
 1637TIP3    H226471   6.648   3.840   8.365 -0.7364 -1.2683 -1.4933
 1638TIP3   OH226472   1.288   5.912   0.452 -0.0614 -0.6295 -0.4823
 1638TIP3    H126473   1.207   5.962   0.442  0.3014 -0.0130 -0.3752
 1638TIP3    H226474   1.330   5.949   0.530 -0.6016 -2.2470  0.6244
 1639TIP3   OH226475   2.732   4.035   0.622 -0.5207 -0.6132  0.6124
 1639TIP3    H126476   2.806   3.977   0.639 -0.2748  0.1976  2.5402
 1639TIP3    H226477   2.662   3.977   0.592  1.3053 -1.2349 -3.0153
 1640TIP3   OH226478   4.602   5.300   8.290  0.5443  0.3716  0.4659
 1640TIP3    H126479   4.597   5.339   8.202  0.2524 -0.1322  0.2590
 1640TIP3    H226480   4.673   5.348   8.333  1.9843 -0.6545 -0.6800
 1641TIP3   OH226481   2.463   2.667   8.139 -0.0542  0.4607  0.0880
 1641TIP3    H126482   2.408   2.736   8.176  1.7127  2.2189 -0.4079
 1641TIP3    H226483   2.509   2.631   8.215 -3.5842 -2.8847  0.9635
 1642TIP3   OH226484   1.206   5.554   7.820 -0.4336 -0.1376 -0.1020
 1642TIP3    H126485   1.289   5.512   7.796 -0.9988 -1.4054  0.1217
 1642TIP3    H226486   1.223   5.648   7.809  1.0744 -0.3688  0.0843
 1643TIP3   OH226487   2.706   4.912   8.678  0.1003  0.0090  0.2011
 1643TIP3    H126488   2.766   4.966   8.627 -2.1761  2.0052 -0.5654
 1643TIP3    H226489   2.687   4.837   8.621  1.6963 -0.5806  0.4052
 1644TIP3   OH226490   0.388   4.560   1.591  0.1080  0.2296 -0.2615
 1644TIP3    H126491   0.359   4.531   1.677 -1.7753  2.1342 -0.1781
 1644TIP3    H226492   0.479   4.587   1.604  0.9694 -2.5333  0.2964
 1645TIP3   OH226493   2.566   5.010   1.411 -0.2219 -0.1765 -0.0990
 1645TIP3    H126494   2.480   5.011   1.369 -0.2329 -2.0997 -0.1938
 1645TIP3    H226495   2.615   4.942   1.365  0.6906 -0.4438  1.2065
 1646TIP3   OH226496   3.411   3.651   1.723  0.0008 -0.4429  0.3896
 1646TIP3    H126497   3.411   3.555   1.727 -0.9398 -0.7827 -3.3603
 1646TIP3    H226498   3.322   3.674   1.695 -0.0681  1.6637  2.0721
 1647TIP3   OH226499   5.155   3.084   0.937 -0.5897 -0.5388  0.4397
 1647TIP3    H126500   5.228   3.137   0.904 -1.1827  0.6616  1.0175
 1647TIP3    H226501   5.196   3.024   0.999  0.1110 -0.9031 -0.3422
 1648TIP3   OH226502   2.561   6.120   8.116 -0.1432 -0.2421 -0.0721
 1648TIP3    H126503   2.584   6.075   8.035 -1.2715 -1.1551  0.0789
 1648TIP3    H226504   2.573   6.054   8.184 -0.5794  0.0720  0.3138
 1649TIP3   OH226505   6.479   5.120   2.315  0.0110  0.0190 -0.2788
 1649TIP3    H126506   6.454   5.034   2.347  1.4709 -0.1326  0.5590
 1649TIP3    H226507   6.558   5.104   2.262  0.9589  0.9226  0.7962
 1650TIP3   OH226508   2.172   5.742   0.660  0.4255 -0.0230  0.1634
 1650TIP3    H126509   2.096   5.783   0.702  0.6998 -0.2803  0.9400
 1650TIP3    H226510   2.165   5.649   0.683  1.2838  0.0468  0.7494
 1651TIP3   OH226511   4.929   1.915   8.308  0.1826 -0.3049  0.3690
 1651TIP3    H126512   4.937   2.003   8.270  0.7562  0.4709  2.1971
 1651TIP3    H226513   4.940   1.928   8.402 -1.0106 -2.1805  0.8227
 1652TIP3   OH226514   1.012   5.385   1.074 -0.6144  0.3590  0.8140
 1652TIP3    H126515   0.969   5.347   0.997  0.7420 -1.0378  0.7135
 1652TIP3    H226516   0.941   5.400   1.136 -1.5218  0.0485 -0.1262
 1653TIP3   OH226517   6.302   1.779   8.181  0.4224 -0.0564 -0.0592
 1653TIP3    H126518   6.355   1.766   8.259 -0.2654 -0.4471  0.3479
 1653TIP3    H226519   6.364   1.808   8.114  1.5196 -2.4691 -0.1823
 1654TIP3   OH226520   3.216   3.507   8.447 -0.4133 -0.1263 -0.2278
 1654TIP3    H126521   3.126   3.521   8.419 -0.2239  0.7245 -0.4468
 1654TIP3    H226522   3.254   3.451   8.380 -0.1007  1.5059 -1.4691
 1655TIP3   OH226523   0.072   6.419   1.102 -0.2023 -0.0958 -0.3354
 1655TIP3    H126524   0.027   6.436   1.020  1.2583  0.1233 -1.1240
 1655TIP3    H226525   0.013   6.453   1.169 -1.0673  0.4405 -1.3319
 1656TIP3   OH226526   1.685   5.860   7.219 -0.4354  0.2767 -0.3027
 1656TIP3    H126527   1.683   5.851   7.314  2.9812 -1.1832 -0.2406
 1656TIP3    H226528   1.658   5.774   7.186 -0.9517  0.5704 -0.6626
 1657TIP3   OH226529   6.454   4.143   7.747  0.0763  0.0258  0.3841
 1657TIP3    H126530   6.518   4.121   7.680  0.0257  0.6579  0.1162
 1657TIP3    H226531   6.393   4.069   7.748  1.9621 -1.6192  2.1319
 1658TIP3   OH226532   1.672   1.770   2.617 -0.4383 -0.4314 -0.2818
 1658TIP3    H126533   1.693   1.844   2.673  1.1041 -0.7751 -0.3673
 1658TIP3    H226534   1.630   1.707   2.676  1.4412 -0.9179  0.6004
 1659TIP3   OH226535   2.932   0.453   8.333 -0.3851 -0.2116 -0.1103
 1659TIP3    H126536   3.023   0.474   8.312 -0.5110 -1.0088 -1.6268
 1659TIP3    H226537   2.888   0.537   8.338  0.7804  0.3455  2.6557
 1660TIP3   OH226538   4.545   3.339   8.535 -0.0608 -0.1097  0.3738
 1660TIP3    H126539   4.557   3.381   8.450 -1.6795  3.6217  1.7886
 1660TIP3    H226540   4.462   3.291   8.526 -1.4546  2.1654  0.3954
 1661TIP3   OH226541   1.723   1.345   2.988 -0.0007  0.1549 -0.6729
 1661TIP3    H126542   1.720   1.386   3.074 -0.6123 -0.5003 -0.3645
 1661TIP3    H226543   1.637   1.364   2.949 -0.0665 -0.3039 -0.7645
 1662TIP3   OH226544   0.787   5.177   8.660  0.3904  0.2943  0.5748
 1662TIP3    H126545   0.821   5.179   8.570 -0.3510 -0.6517  0.2460
 1662TIP3    H226546   0.693   5.190   8.650  0.3761  0.7611  1.2734
 1663TIP3   OH226547   2.548   6.386   1.501 -0.3102  0.2087  0.0058
 1663TIP3    H126548   2.478   6.431   1.452 -1.9586 -0.0951  1.9426
 1663TIP3    H226549   2.629   6.426   1.469 -1.3415  0.5748 -2.3338
 1664TIP3   OH226550   4.486   5.937   0.425  0.3980  0.4019  0.0373
 1664TIP3    H126551   4.441   5.915   0.506 -0.3100  1.0098 -0.1814
 1664TIP3    H226552   4.457   5.871   0.362  0.1119  0.5649 -0.0023
 1665TIP3   OH226553   1.714   1.002   8.013  0.1273  0.4459  0.5399
 1665TIP3    H126554   1.734   0.993   7.920  1.7308 -0.0142  0.8959
 1665TIP3    H226555   1.620   1.019   8.016 -0.0846 -0.2594 -1.1164
 1666TIP3   OH226556   3.347   1.529   2.272  0.2878 -0.2184  0.1481
 1666TIP3    H126557   3.284   1.457   2.259 -0.6845  0.7392 -0.6217
 1666TIP3    H226558   3.294   1.600   2.309  0.7238  0.8766 -1.2575
 1667TIP3   OH226559   2.922   1.415   0.995 -0.5199 -0.6365  0.1775
 1667TIP3    H126560   2.892   1.441   0.908  0.0365  1.4256  0.5586
 1667TIP3    H226561   2.842   1.395   1.044 -0.8062 -2.5988 -0.9792
 1668TIP3   OH226562   6.525   0.668   1.515 -0.2303  0.2409  0.6899
 1668TIP3    H126563   6.525   0.572   1.514 -2.3098  0.2009 -0.6185
 1668TIP3    H226564   6.481   0.690   1.598 -2.1200 -0.0424 -0.1764
 1669TIP3   OH226565   1.494   1.231   0.237  0.2461  0.1727  0.5348
 1669TIP3    H126566   1.501   1.147   0.191  0.2530  1.1220 -1.2807
 1669TIP3    H226567   1.440   1.285   0.179 -0.0486  1.3165  1.8438
 1670TIP3   OH226568   1.143   0.347   2.085 -0.2547  0.2239  0.1759
 1670TIP3    H126569   1.232   0.359   2.052 -0.6957 -1.2984 -1.7810
 1670TIP3    H226570   1.136   0.407   2.160  2.0110  1.2227 -0.3385
 1671TIP3   OH226571   2.272   5.108   1.561  0.1492 -0.0936  0.3287
 1671TIP3    H126572   2.191   5.143   1.599 -0.0966  0.2625 -0.5030
 1671TIP3    H226573   2.315   5.185   1.523  0.8783 -0.2853  0.7586
 1672TIP3   OH226574   2.631   2.259   2.636 -0.2142  0.2595 -0.3157
 1672TIP3    H126575   2.659   2.221   2.720 -1.1025 -0.8227 -0.4843
 1672TIP3    H226576   2.553   2.209   2.612  0.3127  0.2018 -2.0448
 1673TIP3   OH226577   1.834   6.595   0.753  0.3292 -0.1614 -0.0321
 1673TIP3    H126578   1.855   6.687   0.772 -2.0041  0.7257 -1.3046
 1673TIP3    H226579   1.768   6.571   0.818  0.4104 -0.6927 -0.1393
 1674TIP3   OH226580   4.283   3.771   0.631  0.5202 -0.0975 -0.0899
 1674TIP3    H126581   4.226   3.797   0.704  0.0247 -0.5251 -0.3206
 1674TIP3    H226582   4.268   3.677   0.622  1.8526 -0.3866  0.3605
 1675TIP3   OH226583   3.365   2.792   0.305  0.5718  0.3373 -0.5710
 1675TIP3    H126584   3.431   2.838   0.357  0.0287 -0.4196  0.8291
 1675TIP3    H226585   3.303   2.861   0.279  0.4439  0.6106  0.4344
 1676TIP3   OH226586   3.516   6.753   6.845  0.3540 -0.3453  0.0100
 1676TIP3    H126587   3.513   6.826   6.906 -0.9130 -1.2197  1.0653
 1676TIP3    H226588   3.473   6.785   6.766 -2.1599 -0.5220  1.1987
 1677TIP3   OH226589   6.597   5.571   8.714 -0.2807 -0.2863 -0.1793
 1677TIP3    H126590   6.692   5.579   8.708 -0.3377  0.5251 -0.1083
 1677TIP3    H226591   6.577   5.591   8.806 -0.4885 -0.8155 -0.1063
 1678TIP3   OH226592   4.595   5.385   0.525 -0.0548 -0.1168  0.5094
 1678TIP3    H126593   4.601   5.480   0.533 -0.3302 -0.0275 -0.3297
 1678TIP3    H226594   4.686   5.356   0.521  0.0660  0.4237 -2.6524
 1679TIP3   OH226595   5.741   5.836   7.439  0.2856 -0.0529  0.3272
 1679TIP3    H126596   5.751   5.823   7.345  0.9354 -2.4564  0.6569
 1679TIP3    H226597   5.818   5.887   7.465  0.0322  0.7424 -0.4305
 1680TIP3   OH226598   2.881   5.187   7.760 -0.3240 -0.3127  0.2266
 1680TIP3    H126599   2.809   5.250   7.762  1.3274  1.6611  0.7586
 1680TIP3    H226600   2.960   5.241   7.761  1.2026 -2.3492 -1.7395
 1681TIP3   OH226601   5.283   1.385   7.101 -0.1545  0.5452 -0.7197
 1681TIP3    H126602   5.287   1.310   7.041 -0.9699 -0.7018  0.6986
 1681TIP3    H226603   5.195   1.380   7.139  0.2965  1.3579  0.4773
 1682TIP3   OH226604   4.335   0.644   8.093  1.1409 -0.2197 -0.0363
 1682TIP3    H126605   4.352   0.575   8.028  1.4962 -0.2254  0.0591
 1682TIP3    H226606   4.387   0.618   8.169  0.5688 -0.3198  0.3306
 1683TIP3   OH226607   4.407   2.875   1.934  0.2036 -0.6334  0.4304
 1683TIP3    H126608   4.343   2.840   1.873 -0.6545 -2.5569  2.3130
 1683TIP3    H226609   4.483   2.896   1.880 -0.5713 -2.0666 -1.3018
 1684TIP3   OH226610   3.693   6.678   8.711  0.2201  0.0829 -0.3102
 1684TIP3    H126611   3.659   6.715   8.630  1.8708  1.6590 -0.3376
 1684TIP3    H226612   3.654   6.591   8.715 -1.8650  0.8748 -1.5071
 1685TIP3   OH226613   5.680   5.677   8.377 -0.2241 -0.2393 -0.1791
 1685TIP3    H126614   5.718   5.723   8.301  1.6650 -2.9855 -1.0400
 1685TIP3    H226615   5.743   5.690   8.447 -0.3064 -0.4750 -0.0604
 1686TIP3   OH226616   3.787   5.739   1.397 -0.6081 -0.3380  0.0657
 1686TIP3    H126617   3.868   5.703   1.360  0.7336  0.6408  1.9185
 1686TIP3    H226618   3.814   5.783   1.477 -3.1778 -1.1572  1.5073
 1687TIP3   OH226619   2.261   2.730   8.797  0.2654 -0.2538  0.5693
 1687TIP3    H126620   2.275   2.728   8.703  0.1366 -2.0154  0.5398
 1687TIP3    H226621   2.299   2.648   8.829  0.1052  0.1938  2.0221
 1688TIP3   OH226622   4.274   1.371   1.295  0.3003 -0.0407 -0.4936
 1688TIP3    H126623   4.254   1.437   1.229 -1.6983  0.7046  0.7522
 1688TIP3    H226624   4.197   1.314   1.295  1.7797 -2.1582 -1.2041
 1689TIP3   OH226625   0.406   1.844   8.247 -0.0919 -0.2020 -0.0468
 1689TIP3    H126626   0.484   1.827   8.300  0.2972 -0.9695 -0.8389
 1689TIP3    H226627   0.426   1.925   8.200 -0.4498  0.4974  0.9728
 1690TIP3   OH226628   1.927   0.780   8.501  0.0875  0.2509  0.1914
 1690TIP3    H126629   1.978   0.845   8.453  1.0875  0.3033  1.2701
 1690TIP3    H226630   1.975   0.768   8.583 -0.3070 -1.5344  0.1963
 1691TIP3   OH226631   0.002   6.757   1.130  0.0548  0.0716 -0.7449
 1691TIP3    H126632   0.093   6.781   1.113 -0.1056  0.9161 -0.4815
 1691TIP3    H226633  -0.034   6.734   1.044  0.0037  1.6097 -1.1627
 1692TIP3   OH226634   4.457   5.562   2.581 -0.1516 -0.4100  0.1307
 1692TIP3    H126635   4.397   5.509   2.530 -2.4397  0.9825  1.2403
 1692TIP3    H226636   4.467   5.643   2.530 -0.6419  0.0722  0.7886
 1693TIP3   OH226637   3.003   3.115   1.645  0.2417 -0.1550 -0.1600
 1693TIP3    H126638   2.971   3.136   1.733  1.7974  1.4676  0.0680
 1693TIP3    H226639   2.969   3.187   1.590 -2.1281 -1.9889 -1.3130
 1694TIP3   OH226640   3.715   3.887   0.196  0.3713 -0.4856  0.2768
 1694TIP3    H126641   3.687   3.898   0.105 -1.8858 -0.7552  0.8640
 1694TIP3    H226642   3.686   3.799   0.219  0.5789 -0.2796  1.3673
 1695TIP3   OH226643   3.018   2.161   0.395 -0.3041 -0.0436  0.5955
 1695TIP3    H126644   2.989   2.099   0.327 -0.9610 -0.3423  1.1286
 1695TIP3    H226645   2.947   2.159   0.460 -0.0019  0.7491  0.9573
 1696TIP3   OH226646   1.992   6.751   8.311 -0.2021  0.0182 -0.2327
 1696TIP3    H126647   2.086   6.764   8.321 -0.5385  1.4998  1.3083
 1696TIP3    H226648   1.983   6.658   8.289  1.5465 -0.4139  0.6995
 1697TIP3   OH226649   5.469   2.323   0.461  0.6418  0.3468 -0.5892
 1697TIP3    H126650   5.444   2.231   0.453 -0.4781  0.6477 -0.6307
 1697TIP3    H226651   5.425   2.366   0.388  1.2078  0.9115 -0.6043
 1698TIP3   OH226652   3.993   3.039   7.486 -0.0109  0.4629  0.6609
 1698TIP3    H126653   3.965   3.069   7.573 -2.8345 -0.7052  0.2831
 1698TIP3    H226654   3.953   3.101   7.425  0.8802  0.5342  0.1276
 1699TIP3   OH226655   5.843   5.808   0.957  0.0059 -0.1327 -0.2476
 1699TIP3    H126656   5.862   5.774   1.044  0.7343  1.0874  0.0933
 1699TIP3    H226657   5.803   5.894   0.973  0.8029  0.4178 -1.1147
 1700TIP3   OH226658   1.722   2.038   2.748 -0.1166  0.0546 -0.0849
 1700TIP3    H126659   1.771   2.115   2.775  0.8977 -0.2349 -1.0435
 1700TIP3    H226660   1.676   2.010   2.827 -0.4746  1.6064  0.2796
 1701TIP3   OH226661   5.761   3.104   7.675  0.5805  0.1379 -0.2956
 1701TIP3    H126662   5.736   3.160   7.602 -1.6369 -1.5078 -0.9250
 1701TIP3    H226663   5.728   3.150   7.753 -0.6053  0.0832 -0.7371
 1702TIP3   OH226664   1.495   0.228   1.262 -0.0638  0.6374 -0.8023
 1702TIP3    H126665   1.490   0.256   1.353 -1.7525 -0.8582 -0.3658
 1702TIP3    H226666   1.554   0.152   1.264 -1.5879 -0.6005 -0.5494
 1703TIP3   OH226667   0.982   3.918   2.676 -0.2392  0.2164 -0.6414
 1703TIP3    H126668   0.967   3.971   2.754 -0.2359 -1.9368  0.9106
 1703TIP3    H226669   1.077   3.920   2.662  0.0145 -0.9524  0.6588
 1704TIP3   OH226670   5.129   4.877   1.541  0.4294 -0.0726 -0.1698
 1704TIP3    H126671   5.185   4.935   1.593 -0.7216  0.9204  0.0047
 1704TIP3    H226672   5.166   4.881   1.453 -0.0998  1.5905 -0.3502
 1705TIP3   OH226673   6.088   5.526   1.003 -0.1121  0.3435  0.0286
 1705TIP3    H126674   6.044   5.538   0.919 -1.4265  0.0270  0.6551
 1705TIP3    H226675   6.051   5.446   1.038  1.4387 -0.2820  0.3112
 1706TIP3   OH226676   6.140   0.669   7.280  0.7170 -0.4412 -0.3670
 1706TIP3    H126677   6.167   0.615   7.354 -1.5988  0.0656  0.9518
 1706TIP3    H226678   6.100   0.746   7.321  0.5701  0.4898 -2.1765
 1707TIP3   OH226679   0.797   3.846   8.613 -0.2411  0.0860  0.2015
 1707TIP3    H126680   0.732   3.836   8.543  1.3314  0.1682 -1.3226
 1707TIP3    H226681   0.828   3.936   8.604  0.0693  0.0596  0.9413
 1708TIP3   OH226682   1.393   6.459   2.234  0.1948 -0.0831 -0.1992
 1708TIP3    H126683   1.388   6.387   2.297  0.0784 -1.4574 -1.7024
 1708TIP3    H226684   1.485   6.461   2.208  0.5004  1.2824  0.8462
 1709TIP3   OH226685   3.906   0.707   1.932  0.2616  0.2240 -0.2485
 1709TIP3    H126686   3.966   0.634   1.913 -1.1048 -0.9384 -0.2683
 1709TIP3    H226687   3.925   0.730   2.022  1.7845  0.9176 -0.7098
 1710TIP3   OH226688   4.934   5.719   1.189  0.1649 -0.2738  0.5666
 1710TIP3    H126689   4.975   5.787   1.241  0.6838 -1.2387  1.4596
 1710TIP3    H226690   5.004   5.687   1.132 -0.3500  0.6469 -0.6396
 1711TIP3   OH226691   0.687   3.574   2.208 -0.3621 -0.0126 -0.5485
 1711TIP3    H126692   0.753   3.578   2.276 -0.3556  0.8046 -0.5943
 1711TIP3    H226693   0.609   3.538   2.252  0.1922 -1.3275 -0.5838
 1712TIP3   OH226694   5.649   2.856   7.724  0.4356  0.1871 -0.6674
 1712TIP3    H126695   5.642   2.795   7.651  3.0844  0.3829 -1.1963
 1712TIP3    H226696   5.676   2.939   7.684 -0.8575  1.1111  0.2765
 1713TIP3   OH226697   0.521   1.511   8.522  0.0421  0.2354  1.0174
 1713TIP3    H126698   0.565   1.432   8.552 -0.9591 -1.0685 -0.7627
 1713TIP3    H226699   0.465   1.482   8.451  0.6138  2.7449 -0.6152
 1714TIP3   OH226700   2.804   4.297   0.838  0.3662  0.2774 -0.4192
 1714TIP3    H126701   2.738   4.227   0.836 -0.0453  0.6179  0.7049
 1714TIP3    H226702   2.865   4.274   0.768 -1.3633  0.3546 -2.0468
 1715TIP3   OH226703   6.764   3.958   1.563  0.4546  0.0648  0.3025
 1715TIP3    H126704   6.721   4.014   1.628  1.4546 -0.2976  1.3110
 1715TIP3    H226705   6.813   3.895   1.615  0.9416 -0.5058 -0.8201
 1716TIP3   OH226706   1.677   5.711   1.491 -0.3367  0.6239  0.1252
 1716TIP3    H126707   1.738   5.743   1.558 -1.4393  2.2257  0.4281
 1716TIP3    H226708   1.631   5.639   1.533  0.1519  0.5241  0.4995
 1717TIP3   OH226709   0.505   2.317   7.112 -0.0338 -0.6598  0.3403
 1717TIP3    H126710   0.448   2.293   7.039  1.5621 -0.5426 -1.0281
 1717TIP3    H226711   0.537   2.405   7.089  2.8619 -1.7887 -0.4849
 1718TIP3   OH226712   4.302   1.879   0.548  0.1442 -0.0332 -0.0422
 1718TIP3    H126713   4.251   1.881   0.629  0.0082  2.0216 -0.1361
 1718TIP3    H226714   4.267   1.804   0.499 -1.1031 -0.1252  0.9525
 1719TIP3   OH226715   4.382   4.698   8.249 -0.7072 -0.4281  0.4668
 1719TIP3    H126716   4.347   4.787   8.246  0.4817  0.0600  0.6118
 1719TIP3    H226717   4.456   4.703   8.310  1.1500 -0.8321 -1.6172
 1720TIP3   OH226718   3.340   0.506   7.328  0.0196 -0.0945  0.0145
 1720TIP3    H126719   3.300   0.591   7.310  0.1878  0.1884  0.9333
 1720TIP3    H226720   3.330   0.457   7.247 -1.2582  0.3400 -0.1133
 1721TIP3   OH226721   3.290   2.377   0.032  0.1082 -0.2083 -0.4912
 1721TIP3    H126722   3.196   2.366   0.042  0.3491 -3.3121 -0.5803
 1721TIP3    H226723   3.324   2.375   0.122  0.0703  2.5816 -0.3170
 1722TIP3   OH226724   3.576   2.268   8.577  0.4280 -0.3148  0.3881
 1722TIP3    H126725   3.542   2.226   8.498 -2.9214  1.8422  0.5036
 1722TIP3    H226726   3.649   2.321   8.547 -0.0951 -0.3895 -1.0649
 1723TIP3   OH226727   1.650   0.005   1.157 -0.2345 -0.2528  0.6204
 1723TIP3    H126728   1.740   0.038   1.156 -0.2635 -0.1685 -0.0027
 1723TIP3    H226729   1.651  -0.070   1.216 -0.0665  0.5909  1.7263
 1724TIP3   OH226730   3.359   6.321   8.457  0.1490  0.1704  0.0232
 1724TIP3    H126731   3.291   6.341   8.392 -0.9712  0.4092  1.2092
 1724TIP3    H226732   3.411   6.251   8.417 -0.7550  0.0256 -0.9538
 1725TIP3   OH226733   3.913   3.078   2.222 -0.0583  0.4459 -0.3700
 1725TIP3    H126734   3.962   3.144   2.272  1.4714 -0.8754 -0.0598
 1725TIP3    H226735   3.956   3.075   2.137  0.4609 -0.7421 -0.0892
 1726TIP3   OH226736   2.626   4.510   8.299 -0.0384  0.1216 -0.4519
 1726TIP3    H126737   2.690   4.518   8.228 -0.9573  0.1534 -1.3126
 1726TIP3    H226738   2.630   4.419   8.326  0.6536  0.2197 -0.2187
 1727TIP3   OH226739   0.330   4.311   6.817  0.4744 -0.4899  0.0082
 1727TIP3    H126740   0.347   4.225   6.778 -0.5603 -1.1818  1.0342
 1727TIP3    H226741   0.416   4.339   6.851  1.1474 -0.3806 -1.6862
 1728TIP3   OH226742   5.688   6.361   7.439 -0.7427 -0.0316 -0.0468
 1728TIP3    H126743   5.751   6.367   7.367 -1.8371  1.7118 -0.9457
 1728TIP3    H226744   5.684   6.450   7.475 -1.0515 -0.6261  1.4297
 1729TIP3   OH226745   3.317   4.131   1.589 -0.2932 -0.1252 -0.3038
 1729TIP3    H126746   3.284   4.100   1.674 -0.7641  1.3859  0.0865
 1729TIP3    H226747   3.239   4.151   1.538 -0.0546  2.3143  0.1917
 1730TIP3   OH226748   6.701   5.805   1.912  0.5563  0.7474  0.0318
 1730TIP3    H126749   6.744   5.781   1.830  1.5547  1.3347  0.3624
 1730TIP3    H226750   6.767   5.789   1.979  1.1811  3.9013  0.3231
 1731TIP3   OH226751   0.490   1.548   7.964 -0.5182 -0.1388 -0.6263
 1731TIP3    H126752   0.480   1.611   7.893 -0.2529 -0.1336 -0.6588
 1731TIP3    H226753   0.528   1.598   8.036  0.2714 -0.3960 -0.8546
 1732TIP3   OH226754   3.956   3.363   0.611  0.0704  0.0405 -0.2152
 1732TIP3    H126755   3.871   3.403   0.626 -0.5138 -0.8445 -1.0909
 1732TIP3    H226756   3.979   3.324   0.696 -0.5815 -0.0727 -0.0863
 1733TIP3   OH226757   5.578   1.258   1.918  0.3437 -0.0988  0.1051
 1733TIP3    H126758   5.487   1.287   1.912 -0.5692 -2.3442  1.6971
 1733TIP3    H226759   5.578   1.172   1.877  1.1433 -1.2095  2.2833
 1734TIP3   OH226760   0.228   4.602   0.897  0.2122  0.1522 -0.8094
 1734TIP3    H126761   0.232   4.596   0.802  0.5017 -1.1684 -0.7300
 1734TIP3    H226762   0.289   4.672   0.920 -1.1949  1.7481 -1.6837
 1735TIP3   OH226763   2.698   5.252   1.080 -0.2165 -0.6164  0.3302
 1735TIP3    H126764   2.671   5.321   1.019  3.3137  0.2508 -0.4858
 1735TIP3    H226765   2.636   5.258   1.153 -1.2339  2.0354 -0.6387
 1736TIP3   OH226766   3.270   2.655   8.781  0.0796  0.2908  0.9829
 1736TIP3    H126767   3.276   2.564   8.753 -1.4707  0.4922 -0.0955
 1736TIP3    H226768   3.339   2.664   8.847  1.7109 -1.0597 -0.4445
 1737TIP3   OH226769   5.350   4.309   1.353 -0.2423  0.1828 -0.2069
 1737TIP3    H126770   5.440   4.322   1.384 -0.3737  1.7377 -0.4142
 1737TIP3    H226771   5.326   4.223   1.387  1.3607 -0.3222 -0.2607
 1738TIP3   OH226772   0.361   0.294   6.979  0.3949 -0.3653  0.4415
 1738TIP3    H126773   0.390   0.380   6.950 -1.7002  0.1337 -0.3929
 1738TIP3    H226774   0.423   0.233   6.940  1.3277  0.6943  0.2067
 1739TIP3   OH226775   1.504   0.824   7.483 -0.1325 -0.0270 -0.3300
 1739TIP3    H126776   1.426   0.768   7.485 -0.7718  0.8446  0.4415
 1739TIP3    H226777   1.532   0.827   7.574  0.7386 -0.2258 -0.5886
 1740TIP3   OH226778   6.174   0.983   6.616  0.1314  0.4896  0.2483
 1740TIP3    H126779   6.079   0.976   6.610  0.1700  0.8032 -0.9156
 1740TIP3    H226780   6.194   1.070   6.583  0.9804 -0.4354 -1.8751
 1741TIP3   OH226781   1.267   0.020   0.408 -0.5110 -0.1557 -0.3719
 1741TIP3    H126782   1.224   0.105   0.409  1.0866  0.7053  0.7226
 1741TIP3    H226783   1.333   0.027   0.339 -1.7523 -1.2877 -1.7186
 1742TIP3   OH226784   1.600   0.153   0.836  0.0822  0.4118 -0.1446
 1742TIP3    H126785   1.694   0.139   0.846  0.2058  0.1172 -1.5167
 1742TIP3    H226786   1.592   0.207   0.757 -0.8207  1.9609  0.9372
 1743TIP3   OH226787   5.815   5.810   0.595 -0.3359 -0.2961 -0.0042
 1743TIP3    H126788   5.877   5.850   0.656  1.1503 -1.1172 -0.9111
 1743TIP3    H226789   5.752   5.765   0.651  1.8169 -2.2657  1.0044
 1744TIP3   OH226790   0.713   3.953   0.381 -0.2420  0.5622 -0.0880
 1744TIP3    H126791   0.639   3.923   0.328  1.9926 -1.3066 -2.4121
 1744TIP3    H226792   0.750   3.873   0.419  2.4326  0.9345 -1.6566
 1745TIP3   OH226793   2.433   5.226   2.696 -0.8834 -0.1185  0.3356
 1745TIP3    H126794   2.468   5.243   2.783 -0.3324 -0.3013  0.1559
 1745TIP3    H226795   2.471   5.296   2.641 -1.9930  0.5732  0.4238
 1746TIP3   OH226796   2.428   1.959   2.271 -0.0306  0.3261 -0.3504
 1746TIP3    H126797   2.450   2.052   2.271 -0.8441  0.5382 -1.0855
 1746TIP3    H226798   2.332   1.958   2.268 -0.0316 -0.5381 -0.1682
 1747TIP3   OH226799   3.800   0.429   8.126 -0.0120  0.5367 -0.2558
 1747TIP3    H126800   3.792   0.351   8.181 -0.9927  1.7394  1.3889
 1747TIP3    H226801   3.890   0.457   8.138  0.0669  0.2145 -0.0671
 1748TIP3   OH226802   3.853   5.233   1.382  0.3447 -0.0313  0.1461
 1748TIP3    H126803   3.874   5.232   1.476  4.4566  1.2229 -0.5337
 1748TIP3    H226804   3.843   5.140   1.360  1.9803 -0.5821  1.4312
 1749TIP3   OH226805   6.070   1.217   7.354 -0.3224 -0.0342  0.7555
 1749TIP3    H126806   6.025   1.191   7.273  0.9747  0.5827 -0.2058
 1749TIP3    H226807   6.001   1.217   7.421 -1.2007 -1.6953 -0.0782
 1750TIP3   OH226808   6.461   3.770   1.944  0.0292 -0.6459  0.2325
 1750TIP3    H126809   6.518   3.732   1.877 -0.4261 -0.6398 -0.1605
 1750TIP3    H226810   6.516   3.773   2.023  1.6812  2.2511 -0.8451
 1751TIP3   OH226811   5.320   3.714   0.079  0.3519 -0.0431  0.1756
 1751TIP3    H126812   5.401   3.664   0.094  0.2787  0.4734  2.6139
 1751TIP3    H226813   5.270   3.660   0.019  2.1484 -0.7627 -0.7662
 1752TIP3   OH226814   1.877   2.320   2.539 -0.1490  0.3582  0.0242
 1752TIP3    H126815   1.857   2.391   2.479  3.0243  2.6249  1.3335
 1752TIP3    H226816   1.905   2.248   2.483 -1.9963  0.5940 -1.2938
 1753TIP3   OH226817   2.500   1.494   0.159 -0.5113 -0.4083  0.5251
 1753TIP3    H126818   2.558   1.424   0.130 -0.8388 -0.3111 -0.3969
 1753TIP3    H226819   2.526   1.570   0.108 -1.3915 -0.3437  0.1495
 1754TIP3   OH226820   4.982   3.938   2.887  0.7520 -0.0303  0.7508
 1754TIP3    H126821   5.069   3.950   2.927  1.5316 -4.2392  0.7596
 1754TIP3    H226822   4.921   3.973   2.952  2.3254  1.2001  1.6451
 1755TIP3   OH226823   1.859   4.899   1.037  0.7612  0.2043  0.3604
 1755TIP3    H126824   1.872   4.879   1.130  0.0114 -1.3519  0.1624
 1755TIP3    H226825   1.910   4.832   0.991 -0.9762 -0.7121 -0.3356
 1756TIP3   OH226826   4.685   6.322   2.218  0.3983 -0.1959  0.0213
 1756TIP3    H126827   4.739   6.331   2.140 -1.1592 -0.2539 -1.1054
 1756TIP3    H226828   4.699   6.404   2.266  3.0124 -1.0236  0.8252
 1757TIP3   OH226829   3.331   1.392   1.400 -0.2041 -0.3951  0.8117
 1757TIP3    H126830   3.296   1.335   1.331  0.0475 -0.9281  1.1186
 1757TIP3    H226831   3.291   1.359   1.480 -0.5496  0.2688  0.9155
 1758TIP3   OH226832   4.836   5.412   1.049  0.0416  0.3604  0.2071
 1758TIP3    H126833   4.907   5.469   1.018  1.7733 -0.3565  2.5799
 1758TIP3    H226834   4.856   5.327   1.009  1.0746 -0.0494  1.5230
 1759TIP3   OH226835   2.494   0.006   7.251 -0.2614  0.0636  0.1490
 1759TIP3    H126836   2.575   0.027   7.204 -1.3545  0.6153 -1.5880
 1759TIP3    H226837   2.456   0.091   7.273 -0.4224 -0.1896  0.8606
 1760TIP3   OH226838   0.975   2.187   1.481  0.3267  0.0399 -0.0625
 1760TIP3    H126839   1.002   2.109   1.432 -2.1115 -1.1594  0.3206
 1760TIP3    H226840   0.886   2.166   1.512  0.8057  1.7066  2.8088
 1761TIP3   OH226841   1.508   3.486   8.390 -0.2155 -0.4510 -0.5766
 1761TIP3    H126842   1.505   3.544   8.467 -0.6618  0.8481 -1.5463
 1761TIP3    H226843   1.488   3.542   8.316 -0.9132 -1.9101 -1.5457
 1762TIP3   OH226844   3.148   4.746   7.256 -0.3224  0.2436  0.2407
 1762TIP3    H126845   3.239   4.732   7.281 -0.3593  0.5231  0.5353
 1762TIP3    H226846   3.097   4.718   7.333 -0.5500 -1.0181 -0.3335
 1763TIP3   OH226847   2.113   6.314   7.226  0.0656  0.0298  0.3191
 1763TIP3    H126848   2.061   6.255   7.171 -0.5174 -0.3229  1.2200
 1763TIP3    H226849   2.144   6.382   7.166  0.1767 -0.8197 -0.6021
 1764TIP3   OH226850   2.741   3.704   7.822 -0.7617  0.3758  0.0551
 1764TIP3    H126851   2.833   3.725   7.838 -0.7496  0.7504 -0.4774
 1764TIP3    H226852   2.721   3.633   7.883 -0.4126  1.0034  0.9226
 1765TIP3   OH226853   2.786   2.635   2.304  0.2465  0.1224  0.1714
 1765TIP3    H126854   2.817   2.696   2.371  1.1586 -0.3232  0.1745
 1765TIP3    H226855   2.824   2.668   2.222  3.8195 -2.3127  0.5992
 1766TIP3   OH226856   4.494   0.420   7.428  0.1272 -1.1336  0.0643
 1766TIP3    H126857   4.587   0.397   7.430 -0.1697 -2.5282 -1.0731
 1766TIP3    H226858   4.490   0.499   7.374  0.4389 -2.4113 -1.9393
 1767TIP3   OH226859   5.252   1.330   0.131 -0.1740  0.1184  0.0794
 1767TIP3    H126860   5.319   1.398   0.137  0.7879 -0.6104 -1.7158
 1767TIP3    H226861   5.282   1.261   0.191  1.0183 -0.4302 -1.0906
 1768TIP3   OH226862   5.830   5.958   8.748  0.0898 -0.1613 -0.0047
 1768TIP3    H126863   5.765   6.020   8.780 -0.4138 -0.8497  0.3534
 1768TIP3    H226864   5.899   5.959   8.815  0.4768  0.5978 -0.4043
 1769TIP3   OH226865   4.071   4.878   0.668  0.2224  0.4069  0.2842
 1769TIP3    H126866   4.145   4.903   0.613 -0.1484  0.7326 -0.0697
 1769TIP3    H226867   4.105   4.808   0.723  1.0062  1.0288  0.6168
 1770TIP3   OH226868   1.364   5.882   2.332 -0.2894 -0.2305 -0.4327
 1770TIP3    H126869   1.371   5.899   2.426  2.4526 -2.3243 -0.1105
 1770TIP3    H226870   1.417   5.951   2.291 -0.3606 -0.1113 -0.3256
 1771TIP3   OH226871   4.065   1.994   1.430  0.0610  0.1703 -0.5230
 1771TIP3    H126872   4.146   1.945   1.441  0.3427  0.6165 -0.5739
 1771TIP3    H226873   4.085   2.058   1.362 -0.5111 -0.0926 -0.9460
 1772TIP3   OH226874   4.690   5.793   7.344 -0.2869 -0.1580 -0.4698
 1772TIP3    H126875   4.760   5.728   7.347 -0.9923 -0.9010  1.4000
 1772TIP3    H226876   4.697   5.840   7.427 -0.9911  0.8755 -0.9686
 1773TIP3   OH226877   6.354   6.069   1.710 -0.2155 -0.3357 -0.3515
 1773TIP3    H126878   6.386   6.148   1.755 -1.2083  0.5102 -1.0678
 1773TIP3    H226879   6.381   5.997   1.766  0.3173  0.5455  0.5681
 1774TIP3   OH226880   5.652   1.536   0.247  0.3714 -0.1550  0.2546
 1774TIP3    H126881   5.627   1.505   0.160  0.2014  0.9693 -0.1141
 1774TIP3    H226882   5.581   1.506   0.304 -2.1712  3.2128 -0.8132
 1775TIP3   OH226883   1.693   5.337   7.841 -0.2685 -0.1666 -0.3778
 1775TIP3    H126884   1.727   5.371   7.758 -1.3016  0.5617 -0.5345
 1775TIP3    H226885   1.708   5.243   7.837 -2.3147 -0.4882 -2.4269
 1776TIP3   OH226886   4.193   0.500   2.514 -0.2177 -0.2226 -0.7652
 1776TIP3    H126887   4.195   0.406   2.527 -0.3807 -0.4389 -2.1437
 1776TIP3    H226888   4.126   0.532   2.575 -1.4013 -1.2207 -1.4982
 1777TIP3   OH226889   0.688   0.647   1.303 -0.0531 -0.3404  0.4458
 1777TIP3    H126890   0.770   0.636   1.255  0.1433 -1.1179  0.9331
 1777TIP3    H226891   0.705   0.607   1.388 -0.4227  0.9312  1.1376
 1778TIP3   OH226892   6.492   6.273   1.566 -0.3996 -0.5373 -0.0298
 1778TIP3    H126893   6.413   6.227   1.595 -0.5004 -0.6840 -0.5386
 1778TIP3    H226894   6.464   6.363   1.550 -1.1186 -1.1665 -2.8640
 1779TIP3   OH226895   0.631   2.370   2.485  0.5884 -0.2978  0.0387
 1779TIP3    H126896   0.674   2.308   2.544  0.5865  1.4978  2.0191
 1779TIP3    H226897   0.604   2.443   2.541 -2.6572 -0.0819 -1.5416
 1780TIP3   OH226898   0.836   5.780   2.594  0.6153 -0.5607 -0.0257
 1780TIP3    H126899   0.882   5.784   2.678  0.3499  1.3920  0.0629
 1780TIP3    H226900   0.750   5.744   2.615  0.5174  0.0075  0.5580
 1781TIP3   OH226901   5.951   0.139   0.197 -0.3643 -0.2051  0.5687
 1781TIP3    H126902   6.032   0.187   0.213  0.6356 -0.3800 -3.0237
 1781TIP3    H226903   5.978   0.047   0.195 -0.9094 -0.3687  0.6276
 1782TIP3   OH226904   6.466   5.285   2.776 -0.3118 -0.3688  0.6990
 1782TIP3    H126905   6.511   5.367   2.794 -1.8669  0.2275  2.1708
 1782TIP3    H226906   6.482   5.231   2.854 -2.7766  0.2012  1.6757
 1783TIP3   OH226907   0.279   6.007   0.524 -0.1833 -0.3327  0.3671
 1783TIP3    H126908   0.314   5.919   0.532  1.7860  0.5468  2.4222
 1783TIP3    H226909   0.352   6.059   0.488 -0.1033  1.0741  2.4030
 1784TIP3   OH226910   6.346   1.645   0.517 -0.2309  0.3211 -0.5255
 1784TIP3    H126911   6.390   1.692   0.447 -1.3536  2.1134 -0.0874
 1784TIP3    H226912   6.319   1.562   0.477 -1.2989  1.5058 -2.3940
 1785TIP3   OH226913   5.848   6.689   1.508  0.3059 -0.4781 -0.0538
 1785TIP3    H126914   5.789   6.750   1.552  0.6347  0.0263 -0.3023
 1785TIP3    H226915   5.792   6.644   1.444  0.2405  0.1729 -0.4604
 1786TIP3   OH226916   6.303   4.421   1.070  0.4059 -0.3028 -0.4554
 1786TIP3    H126917   6.383   4.374   1.092  0.6293 -0.2042 -1.0180
 1786TIP3    H226918   6.329   4.478   0.996 -0.6762 -1.7854 -2.0535
 1787TIP3   OH226919   1.852   3.339   0.592 -0.1805  0.1793  0.0467
 1787TIP3    H126920   1.775   3.393   0.613  0.3121  1.3289 -0.9764
 1787TIP3    H226921   1.833   3.305   0.505 -0.0993 -0.6254  0.3354
 1788TIP3   OH226922   0.987   1.965   7.670 -0.0810 -0.5131  0.1099
 1788TIP3    H126923   1.032   1.904   7.612  2.2179  2.3203 -1.3216
 1788TIP3    H226924   0.918   2.004   7.616 -0.5871 -0.7374  0.5733
 1789TIP3   OH226925   5.862   3.279   1.365  0.1880  0.5665 -0.2617
 1789TIP3    H126926   5.913   3.299   1.287 -0.6124  1.1264 -0.6649
 1789TIP3    H226927   5.819   3.196   1.345  2.2365 -0.8330  0.7647
 1790TIP3   OH226928   6.791   2.246   8.414 -0.0253 -0.2850 -0.8303
 1790TIP3    H126929   6.848   2.310   8.371  2.9864 -3.2692 -1.6180
 1790TIP3    H226930   6.740   2.207   8.342 -1.5093  0.7796 -0.4094
 1791TIP3   OH226931   1.622   3.923   0.193 -0.0315 -0.0570 -0.0332
 1791TIP3    H126932   1.552   3.861   0.217 -0.1567  0.4921  1.0939
 1791TIP3    H226933   1.576   3.996   0.153 -0.0798  0.1468  0.3859
 1792TIP3   OH226934   0.012   3.974   1.068 -0.0632 -0.3059  0.1092
 1792TIP3    H126935  -0.022   3.990   1.156 -0.9351 -1.7791  0.0745
 1792TIP3    H226936  -0.056   4.006   1.009 -0.0338 -0.4627 -0.0118
 1793TIP3   OH226937   6.611   3.634   1.765  0.1762 -1.1242  0.0190
 1793TIP3    H126938   6.680   3.675   1.713 -0.0326 -1.1399 -0.2751
 1793TIP3    H226939   6.566   3.576   1.703 -1.2611  0.2275 -0.2864
 1794TIP3   OH226940   3.517   1.923   0.922 -0.1991  0.5898  0.5565
 1794TIP3    H126941   3.493   1.840   0.964  1.5494  0.3889  1.2257
 1794TIP3    H226942   3.612   1.929   0.932 -0.1637  2.2048 -0.3751
 1795TIP3   OH226943   3.753   1.782   8.127  0.1208 -0.3081  0.3095
 1795TIP3    H126944   3.813   1.712   8.152 -0.7424 -1.7488 -1.4284
 1795TIP3    H226945   3.699   1.744   8.057 -0.4358  2.0673 -0.6615
 1796TIP3   OH226946   4.730   5.983   0.200  0.1980  0.2543 -0.6638
 1796TIP3    H126947   4.728   6.048   0.270  0.9270 -0.1372 -0.2716
 1796TIP3    H226948   4.800   5.923   0.224 -0.4806 -0.7037 -1.0019
 1797TIP3   OH226949   2.660   6.692   8.292  0.1334 -0.2048  0.1786
 1797TIP3    H126950   2.659   6.709   8.386  1.1158 -1.7780  0.5035
 1797TIP3    H226951   2.608   6.612   8.281 -1.4253  0.8955 -0.8574
 1798TIP3   OH226952   5.132   0.211   6.945 -0.1324  0.1935 -0.0709
 1798TIP3    H126953   5.205   0.251   6.899  0.0184  0.2816  0.2365
 1798TIP3    H226954   5.055   0.261   6.916 -0.0601  0.1527 -0.3332
 1799TIP3   OH226955   4.044   0.868   6.870  0.9761  0.4452  0.2439
 1799TIP3    H126956   4.019   0.792   6.923  2.2223  0.0787  0.3347
 1799TIP3    H226957   4.130   0.894   6.904  0.9726  1.3375 -0.3936
 1800TIP3   OH226958   6.155   3.213   2.258  0.0678  0.4458 -0.3730
 1800TIP3    H126959   6.243   3.248   2.250  0.2322  0.2701  0.5109
 1800TIP3    H226960   6.167   3.123   2.289 -0.4278  0.9074  1.3036
 1801TIP3   OH226961   1.729   3.022   1.203  0.0856  0.3941  0.8578
 1801TIP3    H126962   1.700   3.021   1.112 -0.7458  0.3383  1.1130
 1801TIP3    H226963   1.824   3.024   1.198  0.0382  1.4821 -0.0233
 1802TIP3   OH226964   4.175   5.237   0.818  0.3185  0.5936 -0.8899
 1802TIP3    H126965   4.259   5.196   0.838  0.0227 -0.2797 -1.3705
 1802TIP3    H226966   4.174   5.317   0.871  2.2733  1.6430 -2.2908
 1803TIP3   OH226967   6.558   5.944   8.736  0.6790 -0.1764 -0.2415
 1803TIP3    H126968   6.578   5.896   8.655  1.1954 -1.6662  0.7241
 1803TIP3    H226969   6.553   6.035   8.709 -0.2772 -0.7317 -2.1684
 1804TIP3   OH226970   5.989   1.971   3.058 -0.3438 -0.7014  0.2895
 1804TIP3    H126971   6.072   2.012   3.082 -1.2149  2.0044 -0.8685
 1804TIP3    H226972   5.933   2.044   3.031 -2.2392 -2.6467 -1.4950
 1805TIP3   OH226973   1.532   2.738   8.716 -0.2991 -0.2090  0.7846
 1805TIP3    H126974   1.487   2.814   8.678  0.2955 -1.5455 -2.9776
 1805TIP3    H226975   1.620   2.742   8.680  0.2534 -1.8001  1.8839
 1806TIP3   OH226976   0.575   0.227   7.606  0.2589 -0.4116 -0.3983
 1806TIP3    H126977   0.480   0.220   7.594  0.4644 -1.1619 -1.8383
 1806TIP3    H226978   0.611   0.166   7.542  1.7243 -0.0938  0.0975
 1807TIP3   OH226979   1.721   1.059   8.442 -0.3368  0.5341 -0.2115
 1807TIP3    H126980   1.743   0.997   8.511  1.4199  1.0062 -0.3083
 1807TIP3    H226981   1.738   1.145   8.481 -1.1737  0.9021 -0.6231
 1808TIP3   OH226982   5.490   0.667   7.993  0.0541 -0.2828  0.6026
 1808TIP3    H126983   5.411   0.709   7.961  0.9664  1.4633  0.5653
 1808TIP3    H226984   5.458   0.595   8.048 -1.5249 -0.6829 -0.7607
 1809TIP3   OH226985   6.022   0.552   8.297 -0.0933  0.0631  0.5509
 1809TIP3    H126986   5.932   0.521   8.309 -0.0044 -0.2576  0.3863
 1809TIP3    H226987   6.055   0.504   8.221  0.0194  0.6168  0.2419
 1810TIP3   OH226988   0.539   4.264   7.777 -0.1042  0.4270 -0.2896
 1810TIP3    H126989   0.599   4.229   7.712  0.2957 -2.4133  1.4313
 1810TIP3    H226990   0.526   4.355   7.751  2.2803  0.2303 -2.6214
 1811TIP3   OH226991   6.538   5.044   1.487  0.2356  0.2308  0.6503
 1811TIP3    H126992   6.596   4.996   1.428 -1.9780 -0.4390 -1.1314
 1811TIP3    H226993   6.534   4.990   1.566  0.8031 -0.5330  0.1678
 1812TIP3   OH226994   3.899   4.320   0.010 -0.3151 -0.6331 -0.0712
 1812TIP3    H126995   3.989   4.307  -0.019 -0.3110 -2.1514  0.5336
 1812TIP3    H226996   3.886   4.256   0.080 -2.7420 -2.5928 -2.1041
 1813TIP3   OH226997   3.369   1.317   7.779  0.2048  0.3535 -0.3220
 1813TIP3    H126998   3.309   1.355   7.843  1.1142  0.4106  0.5202
 1813TIP3    H226999   3.404   1.392   7.731  1.4663  0.5532  0.8661
 1814TIP3   OH227000   1.678   5.229   3.362 -0.0481  0.3059  0.2283
 1814TIP3    H127001   1.652   5.138   3.375 -0.4168  0.0397 -1.9387
 1814TIP3    H227002   1.607   5.280   3.403 -0.2022 -0.3836  0.8281
 1815TIP3   OH227003   3.716   4.116   7.574 -0.0672 -0.0954  0.2143
 1815TIP3    H127004   3.671   4.152   7.651  0.0572  0.0223  0.2338
 1815TIP3    H227005   3.647   4.075   7.523 -0.1923  0.0533  0.2607
 1816TIP3   OH227006   2.698   3.762   0.880 -0.3346 -0.0121 -0.3964
 1816TIP3    H127007   2.608   3.731   0.892  0.1461 -1.2979  0.0918
 1816TIP3    H227008   2.739   3.696   0.825  0.1545  0.8924 -1.1366
 1817TIP3   OH227009   0.146   0.505   3.189  0.1735 -0.2483  0.5997
 1817TIP3    H127010   0.239   0.485   3.201  0.4502  1.2242  1.0822
 1817TIP3    H227011   0.114   0.436   3.131  0.8226 -2.5992  2.8285
 1818TIP3   OH227012   6.305   0.978   7.915  0.2285  0.0578  0.5598
 1818TIP3    H127013   6.388   0.937   7.939  0.1980  0.0489  0.6501
 1818TIP3    H227014   6.323   1.021   7.831  0.8562  1.6428  1.4553
 1819TIP3   OH227015   1.060   0.027   1.818 -0.6462  0.4818 -0.0725
 1819TIP3    H127016   1.001  -0.006   1.750  1.1934 -2.3051 -0.4657
 1819TIP3    H227017   1.072  -0.047   1.878 -0.4839  2.1852  2.1297
 1820TIP3   OH227018   6.617   1.280   0.363 -0.4218 -0.4574  0.1450
 1820TIP3    H127019   6.544   1.342   0.372  1.1313  1.5712 -0.3511
 1820TIP3    H227020   6.684   1.330   0.317  0.9872 -2.5307 -0.1666
 1821TIP3   OH227021   1.301   4.625   7.918 -0.3393  0.0496 -0.7841
 1821TIP3    H127022   1.358   4.700   7.899 -0.1005  0.4744  1.3488
 1821TIP3    H227023   1.359   4.549   7.914  0.3769  0.4544  1.1444
 1822TIP3   OH227024   2.893   1.564   7.221 -0.6040  0.5054 -0.1626
 1822TIP3    H127025   2.853   1.538   7.138 -0.1348 -2.4481  0.4301
 1822TIP3    H227026   2.987   1.561   7.205 -0.4224 -1.9981  0.8528
 1823TIP3   OH227027   1.989   5.026   0.334 -0.4088  0.0059  0.3769
 1823TIP3    H127028   1.903   5.021   0.293  0.1589  0.9241 -1.0147
 1823TIP3    H227029   2.026   4.938   0.322 -0.7895 -0.1243  0.1391
 1824TIP3   OH227030   2.142   4.970   2.298  0.0978 -0.2663 -0.5707
 1824TIP3    H127031   2.148   4.920   2.217  1.6420 -0.8840 -0.1149
 1824TIP3    H227032   2.221   5.024   2.299  0.5363 -0.8759  0.8875
 1825TIP3   OH227033   2.615   3.918   1.987 -0.3379  0.2392  0.2037
 1825TIP3    H127034   2.623   3.832   1.947  0.6492 -0.4008  1.6958
 1825TIP3    H227035   2.617   3.902   2.081  0.7602  1.9501  0.5309
 1826TIP3   OH227036   1.881   4.959   3.202  0.7281  0.5103 -0.3168
 1826TIP3    H127037   1.793   4.983   3.233  0.2272 -1.6424  0.0862
 1826TIP3    H227038   1.900   5.023   3.134 -1.9870 -0.0578 -1.7850
 1827TIP3   OH227039   4.750   0.938   2.547 -0.7407  0.4242  0.7066
 1827TIP3    H127040   4.796   1.017   2.519 -0.1626 -0.3234 -0.5110
 1827TIP3    H227041   4.812   0.893   2.604  0.3430 -0.8539 -1.3592
 1828TIP3   OH227042   2.994   1.650   1.896  0.0139 -0.4777  0.0326
 1828TIP3    H127043   3.010   1.591   1.970 -0.5703 -0.8052 -0.0916
 1828TIP3    H227044   3.030   1.604   1.821  0.1776 -0.3627  0.0411
 1829TIP3   OH227045   4.297   6.157   0.756 -0.1451 -0.8446 -0.1732
 1829TIP3    H127046   4.240   6.080   0.763 -2.8921  1.0841  0.4567
 1829TIP3    H227047   4.289   6.184   0.664 -0.4423 -0.4465 -0.0320
 1830TIP3   OH227048   4.187   4.078   7.777  0.4546 -0.1268 -0.6850
 1830TIP3    H127049   4.233   3.996   7.759 -0.2009 -0.7485  0.3333
 1830TIP3    H227050   4.141   4.098   7.695  0.8167 -0.6435 -1.0211
 1831TIP3   OH227051   6.031   1.164   0.831 -0.2064  0.4404 -0.3610
 1831TIP3    H127052   6.066   1.253   0.837  0.9812 -0.0107 -0.2955
 1831TIP3    H227053   6.042   1.128   0.919 -0.5005  0.1606 -0.4367
 1832TIP3   OH227054   4.643   4.912   7.984  0.1909  0.5948 -0.5558
 1832TIP3    H127055   4.593   4.950   8.056 -0.9217 -0.8345 -0.5219
 1832TIP3    H227056   4.725   4.961   7.982  0.1697  0.7746  1.5733
 1833TIP3   OH227057   6.038   3.539   2.278 -0.1380  0.1090  0.2417
 1833TIP3    H127058   6.029   3.613   2.219 -1.7369  0.0970  0.4135
 1833TIP3    H227059   6.090   3.475   2.230  1.3423  1.3447  0.1246
 1834TIP3   OH227060   2.862   6.553   7.988 -0.0466 -0.0723  0.6774
 1834TIP3    H127061   2.945   6.553   7.939 -0.2434 -1.5883  0.2755
 1834TIP3    H227062   2.852   6.643   8.019  1.4737  0.2707  0.2644
 1835TIP3   OH227063   1.953   0.454   1.096 -0.5117  0.6460 -0.1178
 1835TIP3    H127064   1.879   0.394   1.083 -0.0297  0.2543 -1.1802
 1835TIP3    H227065   1.912   0.536   1.125 -1.7878  1.4808 -3.6558
 1836TIP3   OH227066   4.321   1.941   1.515  0.2272 -0.1864  0.2473
 1836TIP3    H127067   4.344   2.033   1.517  0.9170 -0.3557  0.3414
 1836TIP3    H227068   4.354   1.906   1.598  0.4423 -0.6195 -0.0148
 1837TIP3   OH227069   1.753   5.066   8.421 -0.0556  0.0295 -0.2472
 1837TIP3    H127070   1.661   5.044   8.438 -0.6248  2.1805 -0.2977
 1837TIP3    H227071   1.750   5.126   8.347  1.5941 -1.3453 -1.5122
 1838TIP3   OH227072   6.650   2.817   1.464  0.2382 -0.0698  0.3770
 1838TIP3    H127073   6.571   2.769   1.491 -0.0520 -1.4217 -2.5070
 1838TIP3    H227074   6.719   2.752   1.467  0.1904 -0.3093 -1.8937
 1839TIP3   OH227075   6.380   4.448   2.697  0.3510  0.0165 -0.2503
 1839TIP3    H127076   6.441   4.433   2.770 -0.7250  2.2073  1.1982
 1839TIP3    H227077   6.413   4.527   2.654 -0.7914  0.5603 -0.1568
 1840TIP3   OH227078   1.436   0.214   1.974  0.0905  0.0732 -0.0410
 1840TIP3    H127079   1.370   0.247   1.913 -1.3043 -0.4529  1.1234
 1840TIP3    H227080   1.387   0.158   2.034  1.6059 -0.3174  0.8856
 1841TIP3   OH227081   0.521   5.069   8.318  0.2449 -0.2697  0.0373
 1841TIP3    H127082   0.548   5.114   8.238 -1.1726  0.1726 -0.2399
 1841TIP3    H227083   0.520   4.976   8.295 -1.2080 -0.0777 -0.8518
 1842TIP3   OH227084   0.650   3.118   8.629 -0.4467  0.2661 -0.4221
 1842TIP3    H127085   0.704   3.080   8.697 -1.7979 -0.5296  0.2610
 1842TIP3    H227086   0.671   3.068   8.550  0.6527  0.7634 -0.4607
 1843TIP3   OH227087   5.057   6.640   8.306  0.0563 -0.1552 -0.5389
 1843TIP3    H127088   5.075   6.585   8.230 -0.7867 -0.4139 -0.5624
 1843TIP3    H227089   4.968   6.617   8.331  0.3341 -0.0747  0.5405
 1844TIP3   OH227090   4.186   3.534   0.519  0.2078 -0.6032 -0.2744
 1844TIP3    H127091   4.108   3.481   0.536  1.5649 -2.3191  1.0742
 1844TIP3    H227092   4.259   3.478   0.546  1.7329  2.4942  2.7744
 1845TIP3   OH227093   6.359   6.330   8.214  0.3673  0.3285  0.2204
 1845TIP3    H127094   6.371   6.247   8.260  0.1620  0.1682 -0.0134
 1845TIP3    H227095   6.287   6.373   8.260  0.9694  0.7235  0.8200
 1846TIP3   OH227096   5.723   2.533   8.161  0.3912  0.0645  0.1082
 1846TIP3    H127097   5.805   2.493   8.133 -0.5594 -0.5490 -2.0467
 1846TIP3    H227098   5.710   2.605   8.099  0.4870  1.7508  1.9561
 1847TIP3   OH227099   5.227   0.502   0.458 -0.2032 -0.2359 -0.0547
 1847TIP3    H127100   5.173   0.425   0.477  0.2218 -0.2806  1.0331
 1847TIP3    H227101   5.313   0.481   0.495 -0.0430  0.6955  0.1334
 1848TIP3   OH227102   3.440   0.373   1.055  0.2659 -0.0980  0.0964
 1848TIP3    H127103   3.449   0.344   0.964 -1.6492  0.1781 -0.2163
 1848TIP3    H227104   3.384   0.307   1.096 -0.5409  0.8219  0.5241
 1849TIP3   OH227105   6.281   6.076   7.628 -0.2916 -0.4993 -0.2524
 1849TIP3    H127106   6.291   6.126   7.546  0.3071 -1.1798 -0.6017
 1849TIP3    H227107   6.205   6.116   7.671  0.2567  0.8131 -0.4484
 1850TIP3   OH227108   6.183   0.637   0.117 -0.0162 -0.2452 -0.1223
 1850TIP3    H127109   6.100   0.669   0.151  0.5684  1.1240  0.1013
 1850TIP3    H227110   6.240   0.631   0.194  0.0032 -1.5315 -0.2135
 1851TIP3   OH227111   3.420   4.019   7.793 -0.5357  0.2048 -0.3818
 1851TIP3    H127112   3.386   3.993   7.708 -0.2546 -0.7536 -0.2184
 1851TIP3    H227113   3.513   3.996   7.789 -0.8614 -1.4648  0.7707
 1852TIP3   OH227114   1.205   4.004   7.352 -0.0692  0.3734 -0.0447
 1852TIP3    H127115   1.196   3.908   7.352 -1.2287  0.4252  2.0080
 1852TIP3    H227116   1.153   4.032   7.276 -0.4881 -0.5749 -0.1275
 1853TIP3   OH227117   1.348   4.154   2.028 -0.2061  0.3503  0.2482
 1853TIP3    H127118   1.260   4.193   2.022  0.6332  2.5591  1.3690
 1853TIP3    H227119   1.343   4.095   2.103 -0.8055  0.2067  0.1056
 1854TIP3   OH227120   5.376   4.450   1.707  1.1070  0.0164  0.7482
 1854TIP3    H127121   5.433   4.419   1.637  2.3519 -0.6305  1.9868
 1854TIP3    H227122   5.289   4.421   1.682  1.9377 -2.8992  0.9013
 1855TIP3   OH227123   0.062   3.338   8.557  0.3968  0.4021  0.0142
 1855TIP3    H127124   0.138   3.287   8.529  2.2934  3.3119 -0.6885
 1855TIP3    H227125   0.044   3.396   8.482 -0.6880  1.7091  1.2355
 1856TIP3   OH227126   1.844   0.927   0.330 -0.3880  0.4061 -0.3472
 1856TIP3    H127127   1.773   0.938   0.394 -1.6050  2.9737 -1.9877
 1856TIP3    H227128   1.924   0.923   0.383 -1.5873 -1.1421  1.4767
 1857TIP3   OH227129   5.530   4.380   8.410  0.2606 -0.0430  0.1806
 1857TIP3    H127130   5.510   4.307   8.468 -1.2029  0.5259  0.4368
 1857TIP3    H227131   5.556   4.339   8.328 -2.6169 -0.9423 -0.3951
 1858TIP3   OH227132   1.961   6.674   7.901  0.3444  0.1089 -0.5185
 1858TIP3    H127133   1.955   6.757   7.948 -0.3839 -0.1945 -0.0579
 1858TIP3    H227134   1.981   6.700   7.811  0.6287  0.7531 -0.2792
 1859TIP3   OH227135   3.528   5.333   0.520 -0.2876 -0.9837  0.0801
 1859TIP3    H127136   3.614   5.299   0.545 -0.3458 -0.5559  0.9221
 1859TIP3    H227137   3.502   5.388   0.595  0.5717  2.3590 -1.8771
 1860TIP3   OH227138   6.726   0.568   8.371 -0.2485  0.1664 -0.1161
 1860TIP3    H127139   6.813   0.559   8.332 -0.8860  0.3824 -1.6556
 1860TIP3    H227140   6.710   0.662   8.375 -0.4961  0.1221 -0.0101
 1861TIP3   OH227141   0.464   5.860   2.282 -0.5579  0.1002  0.4040
 1861TIP3    H127142   0.433   5.820   2.363 -0.9435 -0.3453  0.0374
 1861TIP3    H227143   0.558   5.870   2.296 -0.6440  0.1733  0.9703
 1862TIP3   OH227144   6.009   2.256   1.300 -0.6027 -0.4282  0.4766
 1862TIP3    H127145   5.978   2.241   1.211 -0.7800  0.1261  0.4438
 1862TIP3    H227146   6.077   2.322   1.291 -1.2490  0.3050  0.8479
 1863TIP3   OH227147   5.722   1.759   8.613  0.4645  0.0780  0.2781
 1863TIP3    H127148   5.661   1.794   8.549  1.2681 -0.1282 -0.6209
 1863TIP3    H227149   5.760   1.681   8.571 -0.7701 -1.5036  1.9530
 1864TIP3   OH227150   2.836   1.871   1.186 -0.7514 -0.0455  0.0503
 1864TIP3    H127151   2.751   1.834   1.211 -0.6319 -0.3629 -0.0030
 1864TIP3    H227152   2.852   1.941   1.248 -0.3786 -0.9349  0.9887
 1865TIP3   OH227153   1.429   4.117   0.129 -0.0543 -0.2542 -0.5113
 1865TIP3    H127154   1.419   4.194   0.184 -0.4967  1.1077 -2.3997
 1865TIP3    H227155   1.339   4.095   0.102  0.2090 -0.4438 -1.2643
 1866TIP3   OH227156   2.812   6.609   2.603 -0.2366  0.1472  0.3920
 1866TIP3    H127157   2.787   6.701   2.594 -1.5892 -0.0105  1.9698
 1866TIP3    H227158   2.832   6.580   2.514  0.7275  2.0868 -0.0631
 1867TIP3   OH227159   1.247   6.735   8.137 -0.1555  0.0162  0.3202
 1867TIP3    H127160   1.221   6.690   8.217  0.5470 -0.1087  0.4921
 1867TIP3    H227161   1.256   6.666   8.071  0.4231 -0.0432  0.4517
 1868TIP3   OH227162   3.182   1.094   0.676 -0.0376  0.7332 -0.1453
 1868TIP3    H127163   3.232   1.159   0.724  1.3475 -1.6268  1.8783
 1868TIP3    H227164   3.135   1.045   0.743 -0.4781 -0.7664 -1.4836
 1869TIP3   OH227165   0.040   5.135   0.879 -0.2814  0.3516 -0.0587
 1869TIP3    H127166  -0.029   5.200   0.866 -0.6764 -0.2319 -0.9743
 1869TIP3    H227167   0.086   5.164   0.958 -1.4939  0.8088  0.4972
 1870TIP3   OH227168   2.476   3.445   1.601  0.6909  0.1027 -0.4988
 1870TIP3    H127169   2.502   3.411   1.687 -0.6003 -1.4172 -0.6554
 1870TIP3    H227170   2.522   3.389   1.538 -1.3769 -1.4399 -0.7611
 1871TIP3   OH227171   1.213   5.614   8.648  0.5850  0.2572  0.2622
 1871TIP3    H127172   1.143   5.662   8.692  0.0656  0.6549 -0.9461
 1871TIP3    H227173   1.186   5.523   8.651  1.1106  0.1303  1.7310
 1872TIP3   OH227174   2.916   4.178   8.782  0.6812  0.3123  1.0636
 1872TIP3    H127175   2.892   4.161   8.873  0.7761  1.7379  1.3851
 1872TIP3    H227176   2.965   4.261   8.785  1.5222 -0.0991 -0.1652
 1873TIP3   OH227177   0.648   0.710   8.323  0.2192 -0.1334 -0.0706
 1873TIP3    H127178   0.586   0.724   8.395  0.3542  0.5081 -0.0761
 1873TIP3    H227179   0.592   0.699   8.245  0.0911 -0.2955  0.0429
 1874TIP3   OH227180   1.275   0.624   0.465  0.0892  1.2190  0.7901
 1874TIP3    H127181   1.296   0.542   0.509  2.7246  0.6768 -1.2377
 1874TIP3    H227182   1.201   0.602   0.409  0.6302  0.2590  0.4310
 1875TIP3   OH227183   5.926   5.738   7.694  0.0646 -0.0672  0.4298
 1875TIP3    H127184   5.955   5.652   7.664  2.2661  0.9752 -0.5923
 1875TIP3    H227185   5.953   5.798   7.625 -2.2881  1.3947  0.6487
 1876TIP3   OH227186   0.969   3.832   1.006  0.0479  0.5114  0.1866
 1876TIP3    H127187   1.004   3.896   1.068  2.4685  0.8406 -1.3743
 1876TIP3    H227188   0.930   3.885   0.936  1.3806  0.3425 -0.7330
 1877TIP3   OH227189   3.852   4.059   0.654  0.3308  0.3257 -0.0887
 1877TIP3    H127190   3.774   4.085   0.704 -1.3981 -1.9306 -1.4615
 1877TIP3    H227191   3.912   4.025   0.721 -1.8028 -2.3466  0.6398
 1878TIP3   OH227192   3.460   3.482   7.025 -0.8151 -0.2198 -0.4260
 1878TIP3    H127193   3.548   3.508   7.053 -0.8072  0.7326 -1.3030
 1878TIP3    H227194   3.475   3.415   6.958 -0.8194 -1.7024  0.9907
 1879TIP3   OH227195   1.987   2.155   8.646  0.3508 -0.4767 -0.0064
 1879TIP3    H127196   1.969   2.247   8.625 -3.4147 -0.9187  0.5423
 1879TIP3    H227197   2.066   2.134   8.596  0.6230  2.7032 -1.1472
 1880TIP3   OH227198   1.929   2.118   2.383  0.2514 -0.0983 -0.0897
 1880TIP3    H127199   1.897   2.043   2.434  0.0268  0.6146  0.8535
 1880TIP3    H227200   2.019   2.095   2.361 -0.0402 -0.9524 -0.4267
 1881TIP3   OH227201   3.793   3.193   0.822  0.6760 -0.0546  0.0544
 1881TIP3    H127202   3.749   3.275   0.803  0.8964 -0.2972 -1.6546
 1881TIP3    H227203   3.876   3.219   0.861 -0.5421  0.4220  2.5354
 1882TIP3   OH227204   0.604   4.723   7.961  0.0324 -0.2172  0.3511
 1882TIP3    H127205   0.618   4.636   7.999  0.3357  0.0466  0.8543
 1882TIP3    H227206   0.553   4.770   8.027 -1.7567 -0.5873 -0.7088
 1883TIP3   OH227207   0.774   3.953   1.425  0.2490  0.1429  0.0075
 1883TIP3    H127208   0.829   3.920   1.354 -0.0891  0.8842 -0.6211
 1883TIP3    H227209   0.820   3.927   1.505  1.0875  0.0383 -0.4907
 1884TIP3   OH227210   3.589   3.459   1.540  0.3482 -0.1435  0.4387
 1884TIP3    H127211   3.500   3.429   1.518  0.1408 -0.6740  1.8855
 1884TIP3    H227212   3.615   3.512   1.465 -0.8807 -0.6322 -0.3754
 1885TIP3   OH227213   3.468   0.647   1.425 -0.1807  0.2616  0.4241
 1885TIP3    H127214   3.455   0.556   1.451 -0.3652 -0.3664 -1.6979
 1885TIP3    H227215   3.391   0.693   1.460 -0.5124 -0.5601  0.8070
 1886TIP3   OH227216   0.092   0.583   2.187 -0.1331  0.2778 -0.4375
 1886TIP3    H127217   0.164   0.550   2.133  0.5280  1.1200 -0.0868
 1886TIP3    H227218   0.017   0.530   2.162  0.5298 -0.3720 -1.0706
 1887TIP3   OH227219   1.748   1.420   0.057 -0.1888 -0.4171 -0.5271
 1887TIP3    H127220   1.747   1.333   0.097  0.6024 -0.2686 -0.1636
 1887TIP3    H227221   1.716   1.478   0.125  1.7045 -0.0828  0.1359
 1888TIP3   OH227222   4.883   1.733   0.800  0.0440 -0.3485  0.2183
 1888TIP3    H127223   4.904   1.742   0.707 -0.6674 -0.4244  0.0516
 1888TIP3    H227224   4.969   1.722   0.842  0.4479  0.6249 -0.3120
 1889TIP3   OH227225   6.226   4.254   8.379  0.9177 -0.3897 -0.3979
 1889TIP3    H127226   6.244   4.342   8.347  1.4204 -0.0166  0.8610
 1889TIP3    H227227   6.310   4.208   8.371  0.8887 -0.4791 -0.1971
 1890TIP3   OH227228   4.147   2.109   3.091  0.4005  0.2406 -0.4659
 1890TIP3    H127229   4.214   2.159   3.137 -0.0795 -1.2114  2.0167
 1890TIP3    H227230   4.183   2.097   3.003  3.0864  0.1673  0.5229
 1891TIP3   OH227231   4.052   5.157   7.532 -0.2136  0.1447 -0.2682
 1891TIP3    H127232   4.132   5.138   7.484  0.0358  0.7711 -0.1062
 1891TIP3    H227233   4.000   5.077   7.525  0.1687 -0.0550 -0.8871
 1892TIP3   OH227234   5.704   3.094   7.094  0.9515 -0.3015 -0.4396
 1892TIP3    H127235   5.676   3.181   7.066 -1.9540 -0.7593  0.6675
 1892TIP3    H227236   5.755   3.061   7.020 -1.9672  0.5212 -3.0775
 1893TIP3   OH227237   1.723   3.419   8.235  0.1460  0.0105  0.1913
 1893TIP3    H127238   1.674   3.390   8.158  0.6404  0.1383 -0.1746
 1893TIP3    H227239   1.656   3.457   8.292 -0.7179 -2.7687  1.2058
 1894TIP3   OH227240   2.481   4.813   0.998  0.0629  0.7692  0.1914
 1894TIP3    H127241   2.433   4.785   0.921 -0.0628 -1.3878  0.9933
 1894TIP3    H227242   2.568   4.774   0.988 -0.1131  0.0210  1.3531
 1895TIP3   OH227243   6.668   1.517   2.334 -0.1979  0.6315  0.2659
 1895TIP3    H127244   6.689   1.548   2.422 -0.0968 -0.3938  0.6240
 1895TIP3    H227245   6.644   1.596   2.285 -0.0473  1.2391  1.1509
 1896TIP3   OH227246   0.566   4.059   2.383  0.6609  0.1485  0.1794
 1896TIP3    H127247   0.651   4.081   2.421  0.1865 -1.6592  2.5213
 1896TIP3    H227248   0.574   3.967   2.358 -0.3376  0.2054 -0.4143
 1897TIP3   OH227249   2.432   0.033   2.106 -0.3939 -0.0510 -0.1418
 1897TIP3    H127250   2.399   0.041   2.195  1.0852  0.8214  0.3639
 1897TIP3    H227251   2.517  -0.009   2.115 -1.1636 -2.0795 -1.3907
 1898TIP3   OH227252   6.812   0.838   2.460  0.2663  0.0646 -0.0833
 1898TIP3    H127253   6.755   0.770   2.495 -1.2686  1.5112  0.3530
 1898TIP3    H227254   6.860   0.871   2.536  0.5152 -0.0880 -0.1757
 1899TIP3   OH227255   1.060   0.670   0.858 -0.7903 -0.7944  0.4171
 1899TIP3    H127256   1.151   0.692   0.876 -1.1555  0.3308  0.9542
 1899TIP3    H227257   1.065   0.602   0.790  0.4238 -0.0277 -0.2999
 1900TIP3   OH227258   4.199   6.787   0.924  0.3516 -0.2057 -0.2630
 1900TIP3    H127259   4.233   6.832   1.001 -1.2546  2.1576 -0.8034
 1900TIP3    H227260   4.269   6.795   0.859  2.1013 -3.0313  1.0837
 1901TIP3   OH227261   0.628   4.423   1.050  0.0215 -0.0239 -0.2044
 1901TIP3    H127262   0.687   4.355   1.016  0.7168  1.0263 -1.1793
 1901TIP3    H227263   0.554   4.375   1.088 -1.9850 -1.3893 -5.1245
 1902TIP3   OH227264   4.191   3.825   1.750  0.2947  0.3348 -0.0141
 1902TIP3    H127265   4.219   3.746   1.797  1.0040  1.1355  0.9730
 1902TIP3    H227266   4.136   3.793   1.679  1.5779 -1.1503 -0.4081
 1903TIP3   OH227267   0.879   1.853   2.493  0.3937 -0.2477 -0.0107
 1903TIP3    H127268   0.857   1.850   2.586  0.3735 -1.0681 -0.0369
 1903TIP3    H227269   0.973   1.870   2.491  0.0893  1.6659  0.1213
 1904TIP3   OH227270   4.004   2.970   1.211  0.6548  0.1365 -0.1560
 1904TIP3    H127271   3.929   3.015   1.249  1.3242 -0.2695  1.7753
 1904TIP3    H227272   4.078   3.028   1.228  0.6871  1.2567 -3.3515
 1905TIP3   OH227273   6.574   2.459   8.422 -0.1036 -0.3381  0.1753
 1905TIP3    H127274   6.664   2.439   8.395 -0.1612  1.8621 -2.0686
 1905TIP3    H227275   6.583   2.525   8.490  0.1186  2.2598 -2.1911
 1906TIP3   OH227276   2.897   1.831   2.105  0.0273  0.0525  0.0269
 1906TIP3    H127277   2.974   1.824   2.161  0.1296  2.1009  0.2285
 1906TIP3    H227278   2.898   1.751   2.052  1.0819 -0.9662  1.4890
 1907TIP3   OH227279   4.482   4.533   1.656 -0.2373  0.5178 -0.3537
 1907TIP3    H127280   4.546   4.603   1.649 -0.4801  1.0515  1.8669
 1907TIP3    H227281   4.398   4.578   1.670 -1.0933 -0.1712 -2.8384
 1908TIP3   OH227282   4.710   4.917   1.448  0.3348 -0.0312  0.3555
 1908TIP3    H127283   4.700   4.840   1.504 -0.5787  0.8133  1.4099
 1908TIP3    H227284   4.678   4.889   1.363 -1.3450 -0.4445  1.0780
 1909TIP3   OH227285   6.052   6.716   0.367  0.8131  0.1601 -0.5351
 1909TIP3    H127286   6.054   6.790   0.427  0.0468  1.4071 -1.9811
 1909TIP3    H227287   5.978   6.663   0.396 -0.8835  1.8417 -1.5468
 1910TIP3   OH227288   2.156   1.595   0.769 -0.5046  0.7227  0.2433
 1910TIP3    H127289   2.181   1.677   0.726  0.1278 -0.7619 -2.4937
 1910TIP3    H227290   2.186   1.527   0.708 -0.8985 -1.5522  2.4519
 1911TIP3   OH227291   5.116   0.321   1.028  0.2484 -0.1360 -0.0849
 1911TIP3    H127292   5.138   0.402   1.075 -0.0528  0.5069 -1.0344
 1911TIP3    H227293   5.200   0.282   1.007  0.3940 -0.3618  0.8539
 1912TIP3   OH227294   0.702   4.962   2.271  0.7895 -0.3355  0.2134
 1912TIP3    H127295   0.761   5.037   2.268  1.6529 -0.9958  0.1232
 1912TIP3    H227296   0.743   4.901   2.332  1.7516 -2.0429 -1.9550
 1913TIP3   OH227297   5.674   2.399   1.894  0.2285 -0.6331  0.1666
 1913TIP3    H127298   5.627   2.348   1.828 -0.9927 -1.0307  1.2864
 1913TIP3    H227299   5.610   2.466   1.922  1.3106  0.6279 -0.2607
 1914TIP3   OH227300   0.595   1.036   2.734  0.1538 -0.6647  0.1746
 1914TIP3    H127301   0.616   1.095   2.806 -0.0134 -0.0439 -0.2796
 1914TIP3    H227302   0.500   1.028   2.736  0.2762 -2.7460  1.6511
 1915TIP3   OH227303   3.144   2.534   7.025  0.1835  0.3161  0.1586
 1915TIP3    H127304   3.081   2.578   6.968  0.9426  0.9268 -0.2194
 1915TIP3    H227305   3.148   2.589   7.103  0.6484  0.5720 -0.0435
 1916TIP3   OH227306   3.211   0.358   8.649  0.1405  0.5412 -0.0477
 1916TIP3    H127307   3.245   0.442   8.618 -0.4506  0.4915 -0.8656
 1916TIP3    H227308   3.117   0.361   8.630  0.1634 -0.4367 -0.4137
 1917TIP3   OH227309   1.296   0.425   1.696  0.8646 -0.1150 -0.5228
 1917TIP3    H127310   1.309   0.516   1.669 -0.9226 -0.0685 -1.3934
 1917TIP3    H227311   1.255   0.432   1.782  0.8984 -0.0961 -0.5081
 1918TIP3   OH227312   2.901   3.589   1.673  0.3690  0.0942 -0.1137
 1918TIP3    H127313   2.912   3.516   1.612 -2.3287 -0.8775  0.4457
 1918TIP3    H227314   2.816   3.627   1.652  1.3833  2.6928  0.0967
 1919TIP3   OH227315   5.224   5.296   2.800  0.4626 -0.5778  0.1958
 1919TIP3    H127316   5.172   5.271   2.877  0.6294 -1.4052  0.0502
 1919TIP3    H227317   5.315   5.290   2.830  0.5441 -1.3983 -0.2095
 1920TIP3   OH227318   0.503   1.405   0.835 -0.1692  0.0152  0.0269
 1920TIP3    H127319   0.510   1.321   0.789  0.8154  0.7895 -1.3436
 1920TIP3    H227320   0.551   1.392   0.917 -1.6693 -1.3030  0.7393
 1921TIP3   OH227321   1.933   2.130   1.461  0.2314  0.2209  0.1269
 1921TIP3    H127322   1.962   2.219   1.481  1.3494 -0.0288 -0.3146
 1921TIP3    H227323   1.960   2.078   1.537 -2.2344  0.5808  1.3281
 1922TIP3   OH227324   4.227   5.753   2.649 -0.2901  0.3427 -0.0393
 1922TIP3    H127325   4.234   5.841   2.685  0.9099  0.6022 -0.8642
 1922TIP3    H227326   4.288   5.751   2.576 -1.1520 -0.8157 -0.7747
 1923TIP3   OH227327   0.171   3.841   8.522 -0.2565 -0.1196 -0.2856
 1923TIP3    H127328   0.211   3.927   8.505  1.3364 -0.3792  1.6664
 1923TIP3    H227329   0.218   3.781   8.465  1.8006 -0.2954  1.4419
 1924TIP3   OH227330   3.350   5.681   0.293 -0.0193 -0.3052  0.1025
 1924TIP3    H127331   3.395   5.709   0.373 -0.3192 -1.7743  0.8316
 1924TIP3    H227332   3.384   5.593   0.276 -1.3038 -0.7453 -0.3358
 1925TIP3   OH227333   1.134   0.529   2.296  0.3709 -0.1646 -0.1190
 1925TIP3    H127334   1.163   0.577   2.374  0.0111 -0.7673  0.3972
 1925TIP3    H227335   1.067   0.586   2.257  2.4233  1.4293 -1.5415
 1926TIP3   OH227336   4.489   1.533   8.012  0.1706  0.3285  0.0833
 1926TIP3    H127337   4.546   1.558   7.940  1.9817 -2.5357  0.3908
 1926TIP3    H227338   4.475   1.615   8.061  0.3082  1.9737 -2.4611
 1927TIP3   OH227339   2.085   4.209   1.885  0.6096 -0.2913  0.4905
 1927TIP3    H127340   2.112   4.286   1.935  2.6808 -0.2223 -0.6063
 1927TIP3    H227341   2.166   4.176   1.847 -0.8006 -0.3210 -2.8278
 1928TIP3   OH227342   4.855   6.670   0.439 -0.3204 -0.7370  0.0637
 1928TIP3    H127343   4.873   6.591   0.387  2.4218 -0.1391 -0.0330
 1928TIP3    H227344   4.886   6.648   0.527 -0.5591 -0.1396  0.2992
 1929TIP3   OH227345   6.409   5.734   7.908 -0.2472 -0.1362  0.0234
 1929TIP3    H127346   6.495   5.698   7.927  0.1706  0.2788 -1.0223
 1929TIP3    H227347   6.354   5.658   7.890 -0.2261 -0.4294  1.1362
 1930TIP3   OH227348   1.934   3.541   8.625  0.2970  0.3047 -0.2756
 1930TIP3    H127349   1.918   3.627   8.585 -0.2491  0.8079  0.9953
 1930TIP3    H227350   1.866   3.532   8.692 -0.3146 -1.5964 -1.0879
 1931TIP3   OH227351   1.501   5.855   0.983 -0.0031  0.3350  0.3693
 1931TIP3    H127352   1.484   5.937   1.028 -1.0607 -0.8058  2.1536
 1931TIP3    H227353   1.589   5.830   1.011  1.0173  1.6082 -1.4822
 1932TIP3   OH227354   4.107   4.728   2.162  0.3485 -0.1213  0.3115
 1932TIP3    H127355   4.079   4.745   2.252  0.3593  2.1034 -0.0373
 1932TIP3    H227356   4.202   4.728   2.166  0.4262  2.2124  0.0364
 1933TIP3   OH227357   1.753   6.521   0.482 -0.3791  0.8536 -0.2535
 1933TIP3    H127358   1.834   6.557   0.445 -0.1141  0.8959  0.3556
 1933TIP3    H227359   1.764   6.530   0.576  0.4640 -2.3510  0.0711
 1934TIP3   OH227360   4.923   4.954   2.819  0.5243  0.3086  0.2770
 1934TIP3    H127361   4.918   5.041   2.858  0.0183 -0.0243  0.9820
 1934TIP3    H227362   4.873   4.898   2.879  1.6054 -0.6430  0.3362
 1935TIP3   OH227363   6.423   3.239   2.224  0.5212  0.1821  0.0475
 1935TIP3    H127364   6.445   3.328   2.196 -0.2225  0.6007  0.7329
 1935TIP3    H227365   6.481   3.183   2.173  0.4359  1.0068 -1.0127
 1936TIP3   OH227366   5.989   3.954   0.383 -0.0619  0.4577  0.5506
 1936TIP3    H127367   6.045   3.889   0.426  0.1408  0.7325  0.7046
 1936TIP3    H227368   5.900   3.925   0.401  0.0264 -0.1258  0.0895
 1937TIP3   OH227369   0.618   1.059   7.897  0.4382  0.4715  0.2020
 1937TIP3    H127370   0.605   1.140   7.848  0.5231  0.8457  0.7845
 1937TIP3    H227371   0.553   1.064   7.968  0.6064  0.1449  0.3790
 1938TIP3   OH227372   5.256   2.176   0.771  0.0324 -0.4454  0.0227
 1938TIP3    H127373   5.322   2.224   0.721  0.3319 -0.2818  0.5645
 1938TIP3    H227374   5.252   2.222   0.855  0.2365 -1.2917  0.5089
 1939TIP3   OH227375   6.621   3.433   8.632 -0.3357  0.0579 -0.0578
 1939TIP3    H127376   6.708   3.448   8.596 -0.4619  1.3155  0.1255
 1939TIP3    H227377   6.591   3.520   8.660 -1.1947 -0.5268  0.9029
 1940TIP3   OH227378   3.347   2.247   0.942 -0.3750  0.3486  1.0309
 1940TIP3    H127379   3.346   2.333   0.899  2.3266  0.3097  0.6957
 1940TIP3    H227380   3.327   2.185   0.872 -0.8474  0.5955  0.9424
 1941TIP3   OH227381   4.076   1.489   8.398 -0.9955 -0.1826 -0.1711
 1941TIP3    H127382   4.062   1.418   8.461 -1.8839  1.0243  1.0467
 1941TIP3    H227383   4.171   1.503   8.398 -0.9340 -0.5433  0.5296
 1942TIP3   OH227384   4.352   5.057   0.911  0.3105 -0.2438  0.0729
 1942TIP3    H127385   4.310   4.971   0.910  0.5089 -0.3320 -0.9568
 1942TIP3    H227386   4.413   5.056   0.838 -0.2987  1.0793 -0.4978
 1943TIP3   OH227387   5.998   5.088   0.486 -0.3154  0.5782 -0.4334
 1943TIP3    H127388   6.027   5.146   0.416  0.8517 -2.3126 -2.5474
 1943TIP3    H227389   5.950   5.018   0.441 -0.8580 -0.6221  1.8366
 1944TIP3   OH227390   5.026   4.319   7.624  0.5089  0.3476 -0.0968
 1944TIP3    H127391   4.935   4.334   7.651  0.4722  0.3456 -0.2208
 1944TIP3    H227392   5.077   4.372   7.685  0.4594 -0.0688  0.3190
 1945TIP3   OH227393   0.220   6.444   7.413  0.8312  0.3731 -0.4613
 1945TIP3    H127394   0.258   6.402   7.336  0.4797  0.9734 -0.9688
 1945TIP3    H227395   0.170   6.374   7.457 -1.8704  0.7748 -2.6546
 1946TIP3   OH227396   0.971   1.828   1.682  0.5021 -0.3692  0.3719
 1946TIP3    H127397   0.879   1.804   1.686  0.0272  1.1294 -0.5206
 1946TIP3    H227398   1.019   1.745   1.691 -0.9650 -1.4733 -1.4131
 1947TIP3   OH227399   0.528   3.182   1.090  0.1963  0.0489  0.1165
 1947TIP3    H127400   0.467   3.251   1.116 -0.0376  0.0856 -0.4962
 1947TIP3    H227401   0.555   3.141   1.172  0.5728  1.0582  0.5235
 1948TIP3   OH227402   0.872   2.842   2.173  0.2606 -0.0626 -0.0671
 1948TIP3    H127403   0.920   2.924   2.185  0.2558 -0.0801  0.0778
 1948TIP3    H227404   0.937   2.773   2.192  0.1305 -0.0828  0.3124
 1949TIP3   OH227405   0.300   0.647   6.818 -0.0393  0.4492  0.7148
 1949TIP3    H127406   0.258   0.563   6.840 -0.7408  0.8880  1.0831
 1949TIP3    H227407   0.274   0.705   6.889  1.0841  0.7762  0.8667
 1950TIP3   OH227408   0.960   0.373   8.211 -0.1493 -0.3001  0.3655
 1950TIP3    H127409   0.935   0.325   8.290  0.8295 -0.3541  0.6515
 1950TIP3    H227410   0.899   0.342   8.144 -0.4952 -0.8281  0.9133
 1951TIP3   OH227411   3.234   2.055   0.806  0.8195  0.0202 -0.1520
 1951TIP3    H127412   3.276   1.972   0.786 -0.4210  0.0021 -3.1804
 1951TIP3    H227413   3.141   2.033   0.813  0.8383  0.5447  3.3877
 1952TIP3   OH227414   5.183   2.427   0.476  0.3957  0.3244  0.2104
 1952TIP3    H127415   5.153   2.336   0.478 -0.2589  0.5384  0.5246
 1952TIP3    H227416   5.171   2.459   0.566  1.5453  0.4392  0.3452
 1953TIP3   OH227417   1.929   2.788   0.112  0.3520  0.1785  0.0740
 1953TIP3    H127418   2.015   2.815   0.144 -0.0235 -0.4321  1.6806
 1953TIP3    H227419   1.919   2.698   0.142 -0.5405 -0.0193 -0.7589
 1954TIP3   OH227420   3.570   4.843   0.354  0.1416 -0.0422  0.0301
 1954TIP3    H127421   3.553   4.835   0.261  2.8423  0.5327 -0.6115
 1954TIP3    H227422   3.599   4.756   0.382 -0.8255 -0.2586  0.4084
 1955TIP3   OH227423   0.105   4.941   1.743  0.3789  0.0156 -0.0502
 1955TIP3    H127424   0.123   4.888   1.665  1.5834  0.0575  0.1693
 1955TIP3    H227425   0.012   4.928   1.760  0.6330 -2.0820  0.0108
 1956TIP3   OH227426   6.681   4.453   0.884  0.2064  0.0938  0.0241
 1956TIP3    H127427   6.732   4.377   0.859  1.5828  0.2536  2.0841
 1956TIP3    H227428   6.742   4.527   0.879 -0.5598  0.7429 -0.0444
 1957TIP3   OH227429   2.359   0.274   2.764 -0.1916 -0.7426  0.0303
 1957TIP3    H127430   2.341   0.183   2.741 -2.5013 -0.5426  0.7499
 1957TIP3    H227431   2.338   0.280   2.858 -0.7141  0.6327 -0.1402
 1958TIP3   OH227432   4.732   4.097   0.345  0.7519  0.2229  0.2907
 1958TIP3    H127433   4.697   4.183   0.321  1.0239  0.6903  1.4906
 1958TIP3    H227434   4.826   4.110   0.349  1.0030 -0.7033 -1.6514
 1959TIP3   OH227435   2.431   0.040   2.399  0.3715  0.2095 -0.0052
 1959TIP3    H127436   2.451   0.070   2.488  0.9769 -0.5591  0.1362
 1959TIP3    H227437   2.509  -0.009   2.372  0.1096  0.2512 -0.8815
 1960TIP3   OH227438   4.672   3.425   3.041 -0.0628 -0.2539  0.1270
 1960TIP3    H127439   4.766   3.439   3.033  0.0057  0.5815  1.9128
 1960TIP3    H227440   4.645   3.486   3.110 -2.1130  0.3522 -1.1277
 1961TIP3   OH227441   4.510   1.736   2.022 -0.0358 -0.4654 -0.3047
 1961TIP3    H127442   4.542   1.647   2.003 -1.3988 -0.7417 -1.4531
 1961TIP3    H227443   4.416   1.725   2.037 -0.4183  0.9101 -1.5164
 1962TIP3   OH227444   5.906   1.272   3.199 -0.1171  0.3050 -0.6489
 1962TIP3    H127445   5.813   1.253   3.209  0.2469 -0.7922  0.9741
 1962TIP3    H227446   5.936   1.213   3.130  0.0012 -1.7947  1.0761
 1963TIP3   OH227447   6.131   0.692   7.828  0.2150 -0.1081 -0.1693
 1963TIP3    H127448   6.091   0.742   7.899  0.4488 -0.0897 -0.0512
 1963TIP3    H227449   6.130   0.601   7.858 -0.4412 -0.2095 -0.4894
 1964TIP3   OH227450   4.914   0.147   1.602  0.0568  0.7655 -0.5599
 1964TIP3    H127451   4.881   0.151   1.692  0.9895  0.8232 -0.2143
 1964TIP3    H227452   4.838   0.169   1.548 -1.3001 -2.0497  0.0361
 1965TIP3   OH227453   1.978   1.195   2.950  0.0850 -0.5718 -0.3240
 1965TIP3    H127454   2.001   1.231   3.036  3.3430  0.6554 -1.5210
 1965TIP3    H227455   1.888   1.223   2.935  0.6265  2.4381  1.2050
 1966TIP3   OH227456   5.999   4.411   2.411 -0.4801  0.2630  0.0682
 1966TIP3    H127457   5.991   4.400   2.506  0.2205  0.9643  0.2164
 1966TIP3    H227458   5.912   4.391   2.377 -1.6632  3.1097  1.1478
 1967TIP3   OH227459   0.390   1.133   2.499  0.1533 -0.3445  0.2699
 1967TIP3    H127460   0.368   1.086   2.579  2.0081 -2.7550 -0.4901
 1967TIP3    H227461   0.306   1.163   2.464 -0.6838  1.0032  3.1381
 1968TIP3   OH227462   4.248   1.500   1.058 -0.2655  0.6627 -0.3482
 1968TIP3    H127463   4.312   1.557   1.016 -0.4017  0.7040 -0.5016
 1968TIP3    H227464   4.163   1.538   1.035 -0.3216  1.8410  1.6119
 1969TIP3   OH227465   1.517   5.898   0.063 -0.9550  0.4577 -0.1728
 1969TIP3    H127466   1.590   5.842   0.039 -0.8238  0.4207  0.3158
 1969TIP3    H227467   1.452   5.884  -0.007 -1.2859 -0.9651  0.4001
 1970TIP3   OH227468   6.036   3.555   0.015  0.2723  0.5467 -0.5274
 1970TIP3    H127469   6.044   3.460   0.007  0.3151  0.3935  1.1015
 1970TIP3    H227470   5.981   3.569   0.092  4.0720  1.8201  2.2829
 1971TIP3   OH227471   4.352   3.185   1.530  0.0650 -0.5388 -0.1616
 1971TIP3    H127472   4.325   3.165   1.620 -1.9643  0.5941 -0.4556
 1971TIP3    H227473   4.408   3.262   1.539  0.3216 -0.7623  0.1771
 1972TIP3   OH227474   6.380   1.670   1.624  0.2547  0.0520 -0.3028
 1972TIP3    H127475   6.387   1.756   1.664 -0.1036 -0.4678  0.9286
 1972TIP3    H227476   6.287   1.660   1.603  0.4687  0.4095 -1.5264
 1973TIP3   OH227477   0.908   1.586   3.127 -0.1986  0.6942 -0.4630
 1973TIP3    H127478   0.887   1.515   3.066 -0.1058 -0.7557  1.1342
 1973TIP3    H227479   0.824   1.609   3.167 -0.0900  0.8760 -0.3345
 1974TIP3   OH227480   6.583   3.729   6.869  0.3727 -0.8343 -0.3040
 1974TIP3    H127481   6.616   3.814   6.839  0.9912 -1.4002 -1.2512
 1974TIP3    H227482   6.584   3.736   6.965  1.3703 -0.1329 -0.3495
 1975TIP3   OH227483   1.267   2.939   1.445 -0.2700  0.1034  0.2472
 1975TIP3    H127484   1.262   3.020   1.395 -0.1995 -0.1849 -0.2334
 1975TIP3    H227485   1.215   2.876   1.395 -3.3931  0.7563  2.4522
 1976TIP3   OH227486   4.362   3.944   1.228  0.1849  0.5234  0.1200
 1976TIP3    H127487   4.361   4.038   1.245  2.1789  1.0454 -2.1196
 1976TIP3    H227488   4.356   3.937   1.133 -0.3724 -1.6692  0.2649
 1977TIP3   OH227489   0.475   4.505   0.032 -0.6615  0.3537 -0.5022
 1977TIP3    H127490   0.570   4.493   0.021 -0.8134 -0.9646 -0.4922
 1977TIP3    H227491   0.444   4.423   0.070 -1.7045  1.0660  0.2451
 1978TIP3   OH227492   6.562   2.719   8.206  0.2794  0.5992  0.7295
 1978TIP3    H127493   6.506   2.796   8.198  0.0136  0.2256 -1.5975
 1978TIP3    H227494   6.503   2.649   8.234 -0.9431 -0.1736 -3.2101
 1979TIP3   OH227495   1.011   3.555   1.838 -0.0778 -0.2169  0.2132
 1979TIP3    H127496   1.074   3.623   1.860 -0.7222  0.2966  0.5281
 1979TIP3    H227497   0.928   3.588   1.872 -0.2259 -1.6383  1.3007
 1980TIP3   OH227498   2.605   1.323   2.042  0.6019  0.1618  0.0078
 1980TIP3    H127499   2.661   1.374   2.101  0.4225 -0.2909  0.5744
 1980TIP3    H227500   2.666   1.283   1.979  0.5693  3.5390 -2.4658
 1981TIP3   OH227501   1.685   5.976   0.613 -0.5126  0.4222  0.3515
 1981TIP3    H127502   1.605   5.987   0.664 -0.4801  0.2909  0.4324
 1981TIP3    H227503   1.674   6.033   0.537 -0.6331  0.4924  0.4215
 1982TIP3   OH227504   4.331   4.067   0.579  0.1911 -0.2290 -0.3983
 1982TIP3    H127505   4.248   4.112   0.593 -0.2410 -0.6755 -1.4318
 1982TIP3    H227506   4.314   3.976   0.605  0.4334 -0.2628 -0.3560
 1983TIP3   OH227507   0.892   3.592   0.490  0.0447  0.1582 -0.5586
 1983TIP3    H127508   0.866   3.655   0.557 -0.3953 -0.3604 -0.2329
 1983TIP3    H227509   0.850   3.624   0.409  0.2864  0.5885 -0.5162
 1984TIP3   OH227510   5.291   6.408   0.719 -0.2950 -0.1429 -0.0269
 1984TIP3    H127511   5.370   6.432   0.671  0.4891 -1.0293  0.8076
 1984TIP3    H227512   5.314   6.415   0.811 -0.6161 -2.1069  0.2551
 1985TIP3   OH227513   4.845   6.813   0.921 -0.1110 -0.1877  0.0615
 1985TIP3    H127514   4.877   6.858   0.998  0.7892 -0.1546 -0.3208
 1985TIP3    H227515   4.796   6.738   0.955  2.3419 -1.6095  0.6788
 1986TIP3   OH227516   4.455   6.459   1.634 -0.4740  0.0968 -0.1327
 1986TIP3    H127517   4.479   6.551   1.633  0.9666 -0.2598 -1.2315
 1986TIP3    H227518   4.365   6.458   1.665 -0.4474  1.8458  0.0879
 1987TIP3   OH227519   3.905   6.246   0.334  0.3376 -0.0626 -0.1627
 1987TIP3    H127520   3.951   6.291   0.264 -0.4288  1.0545  0.0342
 1987TIP3    H227521   3.828   6.207   0.291 -0.2432  0.7968  0.0792
 1988TIP3   OH227522   3.268   2.855   1.763  0.1808 -0.1562  0.3642
 1988TIP3    H127523   3.237   2.931   1.812  0.8007  0.1085  0.3573
 1988TIP3    H227524   3.345   2.825   1.813  1.0322  0.3234 -0.6284
 1989TIP3   OH227525   2.368   0.471   2.382 -0.0908 -0.0640 -0.3700
 1989TIP3    H127526   2.369   0.519   2.300  1.1731 -0.5279 -0.6495
 1989TIP3    H227527   2.275   0.467   2.407 -0.4123  0.6990 -1.3909
 1990TIP3   OH227528   1.871   0.176   7.729 -0.0362 -0.0118 -0.2443
 1990TIP3    H127529   1.893   0.219   7.647 -0.2794  0.3754 -0.1127
 1990TIP3    H227530   1.906   0.088   7.721  1.3988  0.5250 -0.1097
 1991TIP3   OH227531   6.131   1.262   0.560 -0.0266  0.2333  0.1914
 1991TIP3    H127532   6.062   1.323   0.586  0.1438  0.6922 -0.4102
 1991TIP3    H227533   6.130   1.195   0.629 -1.5559 -0.1672 -0.1647
 1992TIP3   OH227534   4.636   6.449   0.065 -0.2971  0.0059 -0.2927
 1992TIP3    H127535   4.581   6.493   0.130  0.5025 -1.6010  1.5638
 1992TIP3    H227536   4.707   6.511   0.048  0.3743 -0.1857  1.6420
 1993TIP3   OH227537   3.542   2.886   8.274 -0.0229 -0.0467 -0.1057
 1993TIP3    H127538   3.568   2.900   8.182 -1.6060 -0.8619 -0.7178
 1993TIP3    H227539   3.568   2.966   8.319 -1.1441  1.3044 -1.7316
 1994TIP3   OH227540   4.521   4.048   7.178  0.0384  0.2921  0.3044
 1994TIP3    H127541   4.456   4.086   7.120 -0.2411  0.6865  0.8689
 1994TIP3    H227542   4.500   3.954   7.179 -0.4246  0.3932  0.3521
 1995TIP3   OH227543   6.213   2.966   7.709 -0.3791  0.5267 -0.2787
 1995TIP3    H127544   6.270   3.042   7.722  0.0420  0.2399 -0.4257
 1995TIP3    H227545   6.250   2.898   7.765 -1.0951  0.6009  0.2916
 1996TIP3   OH227546   6.740   3.158   1.500 -0.5939 -0.1033 -0.1606
 1996TIP3    H127547   6.821   3.108   1.497  0.7753  2.0606 -1.0944
 1996TIP3    H227548   6.708   3.159   1.410 -1.6456 -0.8593  0.1811
 1997TIP3   OH227549   2.072   0.707   0.758  0.1150  0.2580 -0.2487
 1997TIP3    H127550   2.139   0.764   0.721 -1.2847  1.3599 -1.1788
 1997TIP3    H227551   1.991   0.758   0.752 -0.4595 -0.0133  3.1248
 1998TIP3   OH227552   6.813   1.474   0.281 -0.0720  0.2182  0.8733
 1998TIP3    H127553   6.888   1.416   0.269  0.1685  0.7653 -0.4574
 1998TIP3    H227554   6.845   1.544   0.338  0.1639  0.0024  1.0074
 1999TIP3   OH227555   6.330   0.620   0.337  0.0132  0.3283 -0.2170
 1999TIP3    H127556   6.378   0.694   0.301 -0.0142  0.9649  1.0186
 1999TIP3    H227557   6.398   0.561   0.370  0.0164  0.0567 -0.7011
 2000TIP3   OH227558   5.004   3.963   8.650  0.6935  0.5123 -0.5636
 2000TIP3    H127559   4.979   4.054   8.637  0.7563  0.3893 -1.6230
 2000TIP3    H227560   5.097   3.966   8.672  0.2406  0.8334  1.5124
 2001TIP3   OH227561   3.218   0.719   7.204  0.8549  0.3946 -0.1666
 2001TIP3    H127562   3.184   0.800   7.166 -1.1151 -0.5565 -0.5440
 2001TIP3    H227563   3.223   0.658   7.131  1.4423 -0.1141  0.2892
 2002TIP3   OH227564   0.712   3.636   1.594 -0.2120  0.2760 -0.3508
 2002TIP3    H127565   0.792   3.688   1.585  0.8122 -1.1315  0.1552
 2002TIP3    H227566   0.652   3.694   1.641  1.4381  0.5075  1.6475
 2003TIP3   OH227567   2.727   3.440   0.159 -0.2280 -0.8650  0.2025
 2003TIP3    H127568   2.687   3.375   0.101 -0.2696 -0.6412 -0.0194
 2003TIP3    H227569   2.683   3.522   0.138  0.9049 -0.4465 -0.6365
 2004TIP3   OH227570   6.320   5.124   0.252 -0.4555  0.3978  0.1259
 2004TIP3    H127571   6.229   5.142   0.225 -0.8945  0.2983  1.4527
 2004TIP3    H227572   6.327   5.029   0.249 -0.3806  0.4066  0.0047
 2005TIP3   OH227573   2.591   2.298   8.021  0.0011 -0.7481  0.5907
 2005TIP3    H127574   2.622   2.388   8.014 -1.1807 -0.1909  1.9338
 2005TIP3    H227575   2.518   2.294   7.958 -0.0685 -0.7022  0.6677
 2006TIP3   OH227576   6.508   1.333   0.901  0.2382 -0.2284 -0.4295
 2006TIP3    H127577   6.472   1.396   0.840 -0.8717 -0.2364  0.1936
 2006TIP3    H227578   6.475   1.248   0.871  1.5854 -0.5223 -1.1652
 2007TIP3   OH227579   2.033   2.515   8.140  0.6316 -0.0317 -0.3285
 2007TIP3    H127580   1.967   2.449   8.158 -0.1090  0.8060  0.0795
 2007TIP3    H227581   2.114   2.478   8.176  0.2121 -0.6547 -0.0044
 2008TIP3   OH227582   3.328   2.640   2.232  0.1975 -0.1765 -0.2491
 2008TIP3    H127583   3.391   2.638   2.160 -1.6720  0.9017 -2.0250
 2008TIP3    H227584   3.370   2.692   2.301  2.2151 -1.6292 -0.3238
 2009TIP3   OH227585   5.940   4.706   7.175 -0.1476  0.4269 -0.3244
 2009TIP3    H127586   5.967   4.617   7.152 -1.2305  0.4819 -1.9661
 2009TIP3    H227587   6.007   4.763   7.136 -0.9035  0.4237 -1.6913
 2010TIP3   OH227588   1.827   3.346   2.605  0.7274  0.7226 -0.2370
 2010TIP3    H127589   1.866   3.423   2.645  0.6543  0.3046  0.6758
 2010TIP3    H227590   1.864   3.342   2.517  0.7548  1.7705 -0.2759
 2011TIP3   OH227591   3.197   6.193   7.039  0.3953 -0.3102 -0.0273
 2011TIP3    H127592   3.225   6.116   7.089  1.2408 -0.7730 -1.1720
 2011TIP3    H227593   3.136   6.159   6.974 -1.3372  0.4099  1.1298
 2012TIP3   OH227594   5.078   5.079   8.754 -0.5415  0.5166  0.4323
 2012TIP3    H127595   5.099   5.122   8.837  0.0336 -0.2270  0.6872
 2012TIP3    H227596   5.089   4.985   8.772  0.0165  0.3675 -0.6012
 2013TIP3   OH227597   0.151   4.597   0.586  0.0861  0.4091  0.2046
 2013TIP3    H127598   0.189   4.638   0.508  1.6306  0.2771  0.8560
 2013TIP3    H227599   0.169   4.503   0.574 -1.3271  0.1621 -0.1450
 2014TIP3   OH227600   1.961   4.535   3.065 -1.0991 -0.2102 -0.1722
 2014TIP3    H127601   2.010   4.603   3.111 -1.9161 -0.7843  1.6515
 2014TIP3    H227602   2.010   4.521   2.985  0.0284  1.3321  0.1864
 2015TIP3   OH227603   4.851   5.833   2.943  0.1319  0.0121  0.4633
 2015TIP3    H127604   4.932   5.884   2.956 -0.4884  0.9656  0.6791
 2015TIP3    H227605   4.867   5.783   2.863  1.1050 -0.1579  0.7480
 2016TIP3   OH227606   1.892   1.273   2.188 -0.1476  0.1862 -0.2016
 2016TIP3    H127607   1.964   1.221   2.222  0.7314  1.5920  0.1660
 2016TIP3    H227608   1.839   1.211   2.138 -1.5318 -2.0707  3.6019
 2017TIP3   OH227609   0.667   1.558   0.508  0.4823 -0.3535 -0.3888
 2017TIP3    H127610   0.645   1.624   0.443  0.3532 -0.3025 -0.2943
 2017TIP3    H227611   0.761   1.545   0.498  0.4001 -0.6215 -0.8391
 2018TIP3   OH227612   2.459   2.423   1.701 -0.0311  0.5097 -0.3192
 2018TIP3    H127613   2.529   2.381   1.751 -0.9863  0.1159  0.7236
 2018TIP3    H227614   2.501   2.499   1.661  0.6246  1.3158  1.7397
 2019TIP3   OH227615   2.666   3.587   0.608 -0.4352  0.1769  0.2130
 2019TIP3    H127616   2.667   3.504   0.656 -2.0481  0.5780  1.0154
 2019TIP3    H227617   2.729   3.575   0.537 -1.1995 -2.0308 -0.1724
 2020TIP3   OH227618   0.352   2.547   8.435  0.5190  0.0245  0.6726
 2020TIP3    H127619   0.306   2.547   8.519 -2.0458 -2.5133 -0.5681
 2020TIP3    H227620   0.430   2.494   8.451  0.4684  0.2150  1.6212
 2021TIP3   OH227621   4.254   4.758   0.967  0.1817  0.4761 -0.0530
 2021TIP3    H127622   4.220   4.686   0.914  2.2154  0.4114 -1.4027
 2021TIP3    H227623   4.179   4.791   1.015 -1.1985 -1.2560 -0.9344
 2022TIP3   OH227624   6.797   4.397   2.637 -0.0914 -0.3587 -0.2618
 2022TIP3    H127625   6.758   4.364   2.718 -1.4236 -1.2636 -1.2275
 2022TIP3    H227626   6.889   4.412   2.659  0.3053 -3.3853  0.6572
 2023TIP3   OH227627   2.305   0.875   0.652 -0.0321 -0.5316 -0.1905
 2023TIP3    H127628   2.313   0.881   0.747  1.9203  2.0090 -0.4188
 2023TIP3    H227629   2.387   0.836   0.623  0.2133  0.4841 -0.9265
 2024TIP3   OH227630   4.529   0.252   2.748  0.4894 -0.0580  0.3570
 2024TIP3    H127631   4.543   0.158   2.760  1.1215  0.0921  0.8568
 2024TIP3    H227632   4.601   0.293   2.796  1.4404  0.6500 -1.5787
 2025TIP3   OH227633   2.632   1.879   2.790 -0.3917 -0.0957  0.5909
 2025TIP3    H127634   2.570   1.817   2.752  1.2821 -1.1994 -0.5096
 2025TIP3    H227635   2.645   1.849   2.880 -0.0220 -1.0505  0.2352
 2026TIP3   OH227636   2.295   4.309   7.224  0.4841  0.0669 -0.0813
 2026TIP3    H127637   2.389   4.307   7.241  0.2626  0.3826  1.2377
 2026TIP3    H227638   2.256   4.343   7.304 -0.5660  2.1553 -1.3632
 2027TIP3   OH227639   4.355   6.745   0.411 -0.0879  0.2573  0.4780
 2027TIP3    H127640   4.392   6.656   0.413  0.2593  0.3482 -0.9471
 2027TIP3    H227641   4.263   6.733   0.434  0.0747 -0.3983  0.8192
 2028TIP3   OH227642   6.447   1.913   8.373 -0.8464  0.2180 -0.4531
 2028TIP3    H127643   6.366   1.964   8.372 -1.2062 -0.3181  0.2267
 2028TIP3    H227644   6.432   1.846   8.440  1.1286  1.6352  1.5246
 2029TIP3   OH227645   3.761   5.245   8.764  0.0153  0.6536  0.3588
 2029TIP3    H127646   3.700   5.177   8.735 -0.3795  0.6237  1.2039
 2029TIP3    H227647   3.735   5.323   8.715 -1.2294  0.8382  1.2579
 2030TIP3   OH227648   6.557   4.857   2.176  0.1119 -0.1425 -0.0705
 2030TIP3    H127649   6.590   4.778   2.219 -0.9270 -0.8664 -0.5519
 2030TIP3    H227650   6.620   4.875   2.106  0.3950 -0.4957  0.0926
 2031TIP3   OH227651   0.588   5.568   7.478  0.0473 -0.2801  0.1822
 2031TIP3    H127652   0.666   5.551   7.425  0.1009  2.6860 -0.9187
 2031TIP3    H227653   0.522   5.508   7.444  1.7030 -2.7187  0.9990
 2032TIP3   OH227654   5.885   5.788   8.551  0.1862  0.0123 -0.1778
 2032TIP3    H127655   5.835   5.857   8.595 -1.2899 -0.1701 -1.5064
 2032TIP3    H227656   5.976   5.815   8.561 -0.1470  0.5739  1.9494
 2033TIP3   OH227657   0.228   1.329   0.217  0.1356  0.2463 -0.2737
 2033TIP3    H127658   0.301   1.313   0.158 -0.9291 -2.1784 -1.0665
 2033TIP3    H227659   0.169   1.254   0.203 -2.0145  1.5882  1.0454
 2034TIP3   OH227660   5.992   3.246   7.817 -0.2736  0.0744 -0.1677
 2034TIP3    H127661   5.923   3.313   7.817 -0.3727  0.0049  1.0521
 2034TIP3    H227662   6.063   3.285   7.869 -1.0911 -1.4385  2.2626
 2035TIP3   OH227663   0.155   1.404   8.684  0.7093  0.1238 -0.7426
 2035TIP3    H127664   0.112   1.484   8.713  0.9059 -0.5424  1.5672
 2035TIP3    H227665   0.091   1.361   8.628 -0.9748  0.0418  1.1549
 2036TIP3   OH227666   2.960   4.022   2.054 -0.4072  0.7837  0.0741
 2036TIP3    H127667   2.949   4.075   2.133 -1.2710 -0.3029  0.7166
 2036TIP3    H227668   2.910   4.069   1.987 -1.7134  0.4748  0.7913
 2037TIP3   OH227669   2.470   6.460   1.756 -0.5927 -0.3092 -0.2335
 2037TIP3    H127670   2.399   6.516   1.725 -0.6561 -0.8587 -1.1093
 2037TIP3    H227671   2.501   6.414   1.678 -0.3696 -1.2953  0.4101
 2038TIP3   OH227672   0.581   3.177   7.675 -0.3567  0.6023  0.3175
 2038TIP3    H127673   0.531   3.199   7.754 -1.0952  1.3394 -0.3456
 2038TIP3    H227674   0.527   3.209   7.603 -0.0298 -0.7078 -0.5355
 2039TIP3   OH227675   2.095   6.407   2.875 -1.1547 -0.4662  0.5156
 2039TIP3    H127676   2.003   6.388   2.855 -1.0934  1.1544 -1.7054
 2039TIP3    H227677   2.121   6.339   2.937 -3.0677 -2.6466 -0.9297
 2040TIP3   OH227678   1.569   4.054   1.534  0.1628  0.0258  0.3774
 2040TIP3    H127679   1.609   3.991   1.594  0.3137  0.1150  0.3705
 2040TIP3    H227680   1.481   4.067   1.569  0.4496  0.5272  0.9267
 2041TIP3   OH227681   4.393   1.856   1.783  0.3033  0.0021 -0.2615
 2041TIP3    H127682   4.394   1.938   1.831 -1.5537  0.0903 -0.3006
 2041TIP3    H227683   4.466   1.805   1.819 -0.5971  0.3293  2.1907
 2042TIP3   OH227684   3.950   2.545   0.648 -0.2277  0.0885  0.1322
 2042TIP3    H127685   4.015   2.589   0.703  0.3731 -2.7506  1.8735
 2042TIP3    H227686   3.998   2.474   0.605 -2.0640 -2.0906  1.4679
 2043TIP3   OH227687   6.742   2.570   0.727  0.3435 -0.2760  0.2923
 2043TIP3    H127688   6.766   2.662   0.714 -1.9645  0.4115  0.3397
 2043TIP3    H227689   6.814   2.520   0.688  0.8665  1.5844 -1.3011
 2044TIP3   OH227690   1.703   0.319   1.106 -0.2050 -0.0745 -0.8680
 2044TIP3    H127691   1.653   0.256   1.054 -1.0158  1.0301 -1.4793
 2044TIP3    H227692   1.643   0.343   1.177  0.2680 -0.3285 -0.3833
 2045TIP3   OH227693   1.246   3.073   2.218  0.2643 -0.7937 -0.3660
 2045TIP3    H127694   1.324   3.021   2.235  1.1414  0.1197 -1.4719
 2045TIP3    H227695   1.265   3.159   2.255 -0.3629 -0.6607 -0.3311
 2046TIP3   OH227696   5.421   0.999   1.077 -0.5045  0.6114  0.1201
 2046TIP3    H127697   5.474   1.050   1.138  2.8717 -1.4393 -0.8807
 2046TIP3    H227698   5.380   0.932   1.132  0.9298 -0.0207  0.4480
 2047TIP3   OH227699   4.899   6.372   2.003 -0.1789  0.1674 -0.2756
 2047TIP3    H127700   4.935   6.286   2.023 -2.5366 -0.2157  3.0424
 2047TIP3    H227701   4.975   6.428   1.992  1.4316 -1.4801  1.8050
 2048TIP3   OH227702   6.572   2.938   2.899 -0.2110 -0.0515  0.1383
 2048TIP3    H127703   6.476   2.932   2.908 -0.2071  0.8464  0.9326
 2048TIP3    H227704   6.596   3.016   2.950  1.1035 -1.0657  1.1478
 2049TIP3   OH227705   0.431   3.720   8.637  0.1423  0.0848  0.1457
 2049TIP3    H127706   0.419   3.739   8.544  1.5225 -1.8964 -0.5169
 2049TIP3    H227707   0.392   3.634   8.649  0.0943  0.2653  1.3813
 2050TIP3   OH227708   5.402   2.359   0.190 -0.0174 -0.1465 -0.0268
 2050TIP3    H127709   5.358   2.276   0.207 -1.2886  0.6081  0.5021
 2050TIP3    H227710   5.397   2.371   0.096 -1.2870  0.0867  0.0524
 2051TIP3   OH227711   3.756   2.519   7.722  1.1068 -0.1345 -0.2420
 2051TIP3    H127712   3.827   2.501   7.661  1.3958  2.3559 -0.7705
 2051TIP3    H227713   3.800   2.548   7.803  0.7144 -0.0993 -0.0370
 2052TIP3   OH227714   5.477   0.375   8.774  0.0597  0.4799  0.4951
 2052TIP3    H127715   5.541   0.352   8.706 -1.2458  1.0926 -1.0190
 2052TIP3    H227716   5.436   0.456   8.742 -0.3639  0.9867  2.2077
 2053TIP3   OH227717   2.600   3.384   7.341  0.6273  0.0774  0.5888
 2053TIP3    H127718   2.654   3.359   7.266  0.3604  1.8691 -0.2446
 2053TIP3    H227719   2.650   3.451   7.386  0.0847  0.1375  1.1163
 2054TIP3   OH227720   5.106   1.775   0.471 -0.5895 -0.0466  0.3754
 2054TIP3    H127721   5.028   1.750   0.422 -1.2265  2.1850  0.1588
 2054TIP3    H227722   5.103   1.870   0.474  0.3140 -0.0129  3.3269
 2055TIP3   OH227723   2.367   4.941   8.623 -0.0181  0.5235  0.5236
 2055TIP3    H127724   2.439   4.916   8.566  1.0268 -1.9951  2.7258
 2055TIP3    H227725   2.404   4.939   8.711 -2.5566  0.0308  1.6863
 2056TIP3   OH227726   3.928   6.231   0.727 -0.1435 -0.2944  0.2490
 2056TIP3    H127727   3.962   6.188   0.806  0.3001 -0.0899  0.1775
 2056TIP3    H227728   3.844   6.267   0.754 -0.4850 -1.1340  0.3303
 2057TIP3   OH227729   1.719   0.002   1.900  0.3424 -0.1076 -0.2562
 2057TIP3    H127730   1.701  -0.033   1.813 -1.8182  0.2281  0.0043
 2057TIP3    H227731   1.733   0.096   1.885 -1.1743  0.1621 -0.1610
 2058TIP3   OH227732   5.215   6.503   8.501  0.3056 -0.1640 -0.0458
 2058TIP3    H127733   5.181   6.584   8.462  2.6849  0.9980  0.1062
 2058TIP3    H227734   5.156   6.485   8.574 -0.5648  1.1337 -0.3798
 2059TIP3   OH227735   4.903   0.601   7.398  0.0140 -0.2107 -0.2792
 2059TIP3    H127736   4.868   0.512   7.399 -1.7229  0.4082  0.7806
 2059TIP3    H227737   4.876   0.636   7.313 -1.9597  0.1886  0.4388
 2060TIP3   OH227738   3.878   5.445   1.967 -0.3475 -0.0922 -0.1296
 2060TIP3    H127739   3.954   5.400   2.002  2.1380  3.4088 -0.5322
 2060TIP3    H227740   3.892   5.445   1.872 -0.3215  1.3884 -0.1398
 2061TIP3   OH227741   1.996   3.858   1.884 -0.2193  0.1449 -0.8053
 2061TIP3    H127742   1.981   3.865   1.790  0.3186  0.1351 -0.8928
 2061TIP3    H227743   2.006   3.948   1.913 -2.3672  0.3196 -0.4102
 2062TIP3   OH227744   5.447   5.097   8.178 -0.1065 -0.2551  0.1208
 2062TIP3    H127745   5.356   5.125   8.186  0.5791  1.7791  1.6302
 2062TIP3    H227746   5.470   5.116   8.087 -1.3308 -1.4476 -0.4848
 2063TIP3   OH227747   5.780   1.244   1.226 -0.1804 -0.3770 -0.0021
 2063TIP3    H127748   5.834   1.208   1.155  0.7104  3.4098 -1.5107
 2063TIP3    H227749   5.836   1.240   1.303 -0.2561 -2.3751 -0.0067
 2064TIP3   OH227750   6.615   0.942   0.905  0.7074  0.2686  0.4470
 2064TIP3    H127751   6.644   1.011   0.845  2.7511 -0.7250  0.2018
 2064TIP3    H227752   6.583   0.873   0.847  0.3636  0.2710  0.6285
 2065TIP3   OH227753   3.551   1.131   1.121 -0.3489  0.4326 -0.2405
 2065TIP3    H127754   3.586   1.045   1.099 -0.3009  0.3548  0.1455
 2065TIP3    H227755   3.549   1.178   1.037  3.3705  1.4520  0.0880
 2066TIP3   OH227756   4.710   1.550   7.833  0.3848  0.4831  0.7784
 2066TIP3    H127757   4.776   1.519   7.772  0.3070  0.6189  0.6252
 2066TIP3    H227758   4.758   1.569   7.914  0.5272  0.5546  0.6763
 2067TIP3   OH227759   2.955   2.194   7.118 -0.3254  0.0156 -0.0047
 2067TIP3    H127760   2.978   2.206   7.026  0.2767  3.0720  0.4397
 2067TIP3    H227761   2.867   2.232   7.126 -0.9056 -1.3551  0.4902
 2068TIP3   OH227762   4.482   4.330   0.083 -0.0754 -0.1685 -0.0646
 2068TIP3    H127763   4.447   4.327  -0.006 -0.2093  0.5999 -0.0382
 2068TIP3    H227764   4.429   4.395   0.129  0.2242 -0.2988  0.4790
 2069TIP3   OH227765   3.008   4.282   7.965  0.0022  0.0988 -0.5152
 2069TIP3    H127766   2.975   4.261   8.052 -0.5149  0.9587 -0.4965
 2069TIP3    H227767   2.930   4.304   7.914  0.3905  0.5192 -0.9344
 2070TIP3   OH227768   2.628   5.936   0.897  0.1850  0.4404 -0.1981
 2070TIP3    H127769   2.670   5.854   0.923 -1.9368 -0.6937 -0.1829
 2070TIP3    H227770   2.556   5.910   0.839 -1.4503  2.1475  0.9470
 2071TIP3   OH227771   0.984   6.679   8.548  0.4540  0.1122  0.3227
 2071TIP3    H127772   0.910   6.707   8.603  0.2897  3.4142 -1.3342
 2071TIP3    H227773   1.061   6.698   8.602  0.1955 -1.2846  1.2228
 2072TIP3   OH227774   0.734   0.945   2.189 -0.0646 -0.1194  0.0109
 2072TIP3    H127775   0.671   0.982   2.251  0.4120  1.0475 -0.1741
 2072TIP3    H227776   0.819   0.957   2.233  0.1768 -0.2189 -0.4266
 2073TIP3   OH227777   2.929   6.322   1.773 -0.2819 -0.0774  0.5997
 2073TIP3    H127778   2.932   6.407   1.816 -0.0705  0.1546  0.1306
 2073TIP3    H227779   3.017   6.286   1.783 -0.7816 -0.9418  2.1768
 2074TIP3   OH227780   1.906   4.264   3.007  0.1819 -0.1859  0.0799
 2074TIP3    H127781   1.921   4.357   3.024  1.0960  0.0205 -1.5756
 2074TIP3    H227782   1.812   4.257   2.991 -0.0322  0.2892  1.0729
 2075TIP3   OH227783   4.020   5.216   8.259 -0.5364  0.2934  0.3014
 2075TIP3    H127784   4.011   5.171   8.175  0.0685 -1.4541  1.1270
 2075TIP3    H227785   4.114   5.230   8.270 -0.4325 -1.0812  1.4453
 2076TIP3   OH227786   4.600   1.687   1.493 -0.3991 -1.0824  0.3512
 2076TIP3    H127787   4.508   1.661   1.501 -0.7802  0.3908  1.0409
 2076TIP3    H227788   4.616   1.692   1.398 -0.5820 -2.7658  0.2015
 2077TIP3   OH227789   6.560   1.638   7.358 -0.2738 -0.5235 -0.1534
 2077TIP3    H127790   6.595   1.552   7.337 -1.3591 -0.8755 -0.6044
 2077TIP3    H227791   6.633   1.685   7.397  0.8080 -1.0752 -1.4338
 2078TIP3   OH227792   1.846   1.565   0.542  0.5296  0.1003 -0.4780
 2078TIP3    H127793   1.894   1.636   0.499  1.9816 -0.5229  0.0536
 2078TIP3    H227794   1.769   1.608   0.579  0.0189  0.9101 -2.3696
 2079TIP3   OH227795   5.808   1.864   1.808  0.2452  0.6066  0.4855
 2079TIP3    H127796   5.730   1.859   1.863 -0.7142  0.4379 -0.8323
 2079TIP3    H227797   5.840   1.953   1.819 -0.4065  0.8198  0.7012
 2080TIP3   OH227798   5.389   5.075   2.315  0.4845  0.4712 -0.3042
 2080TIP3    H127799   5.348   5.076   2.402  0.9604 -0.6654 -0.0477
 2080TIP3    H227800   5.427   4.987   2.308 -1.9238 -0.5151 -2.7740
 2081TIP3   OH227801   2.345   0.538   8.172  0.0656 -0.5810  0.3263
 2081TIP3    H127802   2.250   0.550   8.171  0.0958  0.2597 -2.5493
 2081TIP3    H227803   2.372   0.561   8.083  3.2454  1.4303  1.6587
 2082TIP3   OH227804   3.967   2.378   1.263  0.5909 -0.2778 -0.1088
 2082TIP3    H127805   3.901   2.361   1.330  0.7060  1.9131  0.6395
 2082TIP3    H227806   3.918   2.372   1.180 -0.0729 -0.7737  0.3111
 2083TIP3   OH227807   3.094   3.629   6.963 -0.4580 -0.4496 -0.5363
 2083TIP3    H127808   3.130   3.541   6.951  1.3043  0.3541 -1.4762
 2083TIP3    H227809   3.004   3.614   6.992  0.1998 -2.5636  0.6581
 2084TIP3   OH227810   5.934   5.027   1.412 -0.2622 -0.1584 -0.2747
 2084TIP3    H127811   5.915   5.120   1.401 -1.6704 -0.4434 -0.4391
 2084TIP3    H227812   5.986   5.003   1.335  3.1594  1.1994  1.3911
 2085TIP3   OH227813   5.945   3.411   1.902  0.4422  0.6984  0.2302
 2085TIP3    H127814   5.944   3.402   1.807 -1.9148  0.0583  0.2659
 2085TIP3    H227815   5.966   3.323   1.934 -1.8231  0.1100  0.2815
 2086TIP3   OH227816   3.697   1.668   0.108  0.5733  0.3541  0.0643
 2086TIP3    H127817   3.714   1.665   0.014 -2.0190  1.5897 -0.5406
 2086TIP3    H227818   3.619   1.614   0.120 -0.6641  2.2441  1.0259
 2087TIP3   OH227819   5.342   4.389   0.905  0.3386  0.5611 -0.1442
 2087TIP3    H127820   5.255   4.352   0.920 -0.0777  1.5419 -0.0660
 2087TIP3    H227821   5.338   4.476   0.946  0.7537  1.3505 -1.7001
 2088TIP3   OH227822   2.929   3.276   1.882  0.2608 -0.6097  0.1212
 2088TIP3    H127823   2.862   3.211   1.902 -3.1896  1.3052 -3.6395
 2088TIP3    H227824   2.903   3.354   1.930  0.5707 -0.2368 -0.3006
 2089TIP3   OH227825   3.255   6.609   8.509 -0.6315  1.0729 -0.2881
 2089TIP3    H127826   3.334   6.651   8.542 -0.1285  1.0874 -1.4699
 2089TIP3    H227827   3.273   6.515   8.516 -0.3465  1.0747 -0.8942
 2090TIP3   OH227828   0.880   1.465   7.970 -0.4389  0.2172  0.0184
 2090TIP3    H127829   0.884   1.400   7.900 -0.2058  0.6612 -0.3876
 2090TIP3    H227830   0.960   1.451   8.020 -0.9017 -0.5063  0.5668
 2091TIP3   OH227831   6.563   1.921   0.766  0.3072 -0.3594 -0.3229
 2091TIP3    H127832   6.521   1.983   0.705  2.4810  0.0812 -1.4614
 2091TIP3    H227833   6.605   1.977   0.831 -1.0656 -0.8068  0.9957
 2092TIP3   OH227834   0.611   6.587   2.119 -0.2646 -0.4265  0.1768
 2092TIP3    H127835   0.580   6.661   2.171  0.5706 -0.7871  1.2189
 2092TIP3    H227836   0.615   6.514   2.181  2.2665 -0.5027  0.0190
 2093TIP3   OH227837   3.014   1.446   8.217 -0.1604  0.3354 -0.7294
 2093TIP3    H127838   3.044   1.458   8.307 -1.5971 -0.0147 -0.1786
 2093TIP3    H227839   2.982   1.533   8.190 -2.0556 -0.0695  0.0243
 2094TIP3   OH227840   6.175   4.685   0.605  0.6208  0.6762  0.2247
 2094TIP3    H127841   6.114   4.659   0.674  0.7478 -2.9187 -0.8610
 2094TIP3    H227842   6.260   4.691   0.649  0.5024 -0.4255  0.6350
 2095TIP3   OH227843   6.531   4.956   8.179  0.2044 -0.1675  0.5595
 2095TIP3    H127844   6.602   4.914   8.226 -0.1892 -1.0791  0.3698
 2095TIP3    H227845   6.555   5.048   8.175  1.4541 -0.4854  0.3543
 2096TIP3   OH227846   2.228   4.554   0.321  0.4006  0.3474  0.4300
 2096TIP3    H127847   2.144   4.597   0.334  1.6083  3.0101 -0.0139
 2096TIP3    H227848   2.273   4.562   0.405  0.8881  0.5165  0.1559
 2097TIP3   OH227849   2.270   4.044   1.790  0.2838  0.4595 -0.1642
 2097TIP3    H127850   2.251   3.975   1.854 -1.1450  0.4615 -0.5566
 2097TIP3    H227851   2.271   3.999   1.706 -1.0590  0.9508 -0.4688
 2098TIP3   OH227852   5.335   5.713   1.247 -0.9232 -0.0742 -0.3647
 2098TIP3    H127853   5.342   5.618   1.248 -0.3373 -0.0256  0.2196
 2098TIP3    H227854   5.425   5.744   1.243 -1.0411  0.4718  0.9187
 2099TIP3   OH227855   4.797   6.225   0.960 -0.1381  0.4636 -0.2773
 2099TIP3    H127856   4.784   6.284   1.034 -0.1349  1.8996 -1.3818
 2099TIP3    H227857   4.857   6.158   0.994  1.2424  2.0361  0.5552
 2100TIP3   OH227858   2.456   4.891   8.360 -0.2604 -0.0844  0.3233
 2100TIP3    H127859   2.393   4.962   8.371 -0.4600 -0.4462  1.7088
 2100TIP3    H227860   2.505   4.914   8.280 -0.1458  1.7315  0.8796
 2101TIP3   OH227861   3.952   1.019   1.125  0.0518  0.0604 -0.0421
 2101TIP3    H127862   4.034   0.977   1.100 -0.1011  0.6194 -1.5951
 2101TIP3    H227863   3.923   1.065   1.046 -2.1830 -0.8247  0.1797
 2102TIP3   OH227864   0.584   4.397   0.769  0.4228  0.4565  0.1891
 2102TIP3    H127865   0.602   4.413   0.677  3.9723 -0.2854  0.6135
 2102TIP3    H227866   0.596   4.482   0.811 -2.8418  1.1829 -0.0985
 2103TIP3   OH227867   6.713   2.874   7.284  0.3527  0.5490  0.4080
 2103TIP3    H127868   6.659   2.831   7.351 -1.1887 -0.2740 -1.2624
 2103TIP3    H227869   6.650   2.901   7.217  1.8539  1.0659 -0.8475
 2104TIP3   OH227870   2.997   0.761   7.379  0.7854 -0.1493 -0.0260
 2104TIP3    H127871   2.917   0.735   7.334 -0.1753  1.3707  0.7029
 2104TIP3    H227872   3.068   0.737   7.319 -0.3126 -0.1668 -1.3512
 2105TIP3   OH227873   3.016   2.251   0.917  0.6324 -0.4238  0.0454
 2105TIP3    H127874   3.061   2.312   0.858 -1.7287  0.0323 -1.4378
 2105TIP3    H227875   3.033   2.165   0.879  1.0268 -0.3422  0.0357
 2106TIP3   OH227876   0.912   2.180   8.353  0.5971 -0.1527 -0.0585
 2106TIP3    H127877   1.001   2.157   8.325  0.1536 -0.4403 -1.3058
 2106TIP3    H227878   0.899   2.269   8.320 -0.5046 -1.0656 -2.3064
 2107TIP3   OH227879   2.175   2.060   8.474 -0.0398  0.3397 -0.1943
 2107TIP3    H127880   2.199   2.131   8.415 -0.4169  0.9256  0.3371
 2107TIP3    H227881   2.149   1.988   8.416  2.3582 -0.1313 -0.7780
 2108TIP3   OH227882   4.504   6.584   8.148 -0.4700  0.3229  0.7062
 2108TIP3    H127883   4.454   6.562   8.226 -0.5434 -1.3452  0.2245
 2108TIP3    H227884   4.569   6.514   8.141  1.0447  1.6699  0.5250
 2109TIP3   OH227885   5.493   0.376   0.296 -0.4329  0.5304 -0.1037
 2109TIP3    H127886   5.517   0.387   0.204 -0.3742 -0.2016 -0.1825
 2109TIP3    H227887   5.413   0.324   0.294 -1.6280  2.2855  0.1895
 2110TIP3   OH227888   1.751   5.887   2.418 -0.5193  0.3652  0.3652
 2110TIP3    H127889   1.758   5.834   2.338  0.3165  0.2448  0.5015
 2110TIP3    H227890   1.770   5.825   2.489  0.2723  0.7968  0.5419
 2111TIP3   OH227891   3.663   1.401   0.575 -0.0887  0.0706  0.0621
 2111TIP3    H127892   3.613   1.454   0.636  0.1682 -0.3909  0.6815
 2111TIP3    H227893   3.741   1.452   0.556 -0.5194  0.5428 -0.4649
 2112TIP3   OH227894   2.994   1.739   0.979  0.0986  0.1210 -0.0364
 2112TIP3    H127895   2.986   1.820   0.927 -0.5977  0.2542  0.2740
 2112TIP3    H227896   2.946   1.757   1.059  1.0624 -0.1385  0.6081
 2113TIP3   OH227897   3.873   6.164   2.310  0.2242 -0.2264 -0.0512
 2113TIP3    H127898   3.802   6.108   2.342  0.4956 -0.0286  0.9595
 2113TIP3    H227899   3.952   6.111   2.319  0.4400  0.1888  0.6096
 2114TIP3   OH227900   4.439   5.913   7.257  0.1073 -0.0960 -0.0955
 2114TIP3    H127901   4.352   5.882   7.233 -0.0297 -0.6670  1.0659
 2114TIP3    H227902   4.424   5.974   7.330  0.6692 -0.0786  0.0104
 2115TIP3   OH227903   0.875   5.558   0.302  0.5617  0.3212  0.2237
 2115TIP3    H127904   0.904   5.507   0.378  0.8092 -1.3943 -0.9596
 2115TIP3    H227905   0.797   5.513   0.271 -0.2579  1.7396  0.1789
 2116TIP3   OH227906   3.704   4.822   8.716 -0.2672 -0.0876 -0.1252
 2116TIP3    H127907   3.617   4.829   8.755  0.0110  1.3577  0.2734
 2116TIP3    H227908   3.720   4.728   8.710 -1.2018 -0.3567  1.2447
 2117TIP3   OH227909   5.500   3.468   0.676  0.0049 -0.4962  0.3496
 2117TIP3    H127910   5.423   3.459   0.732 -0.4612  1.2136  0.0336
 2117TIP3    H227911   5.467   3.509   0.597  1.1578 -0.2630 -0.0263
 2118TIP3   OH227912   4.201   2.212   1.320 -0.1065  0.2374 -0.0274
 2118TIP3    H127913   4.120   2.259   1.299 -0.7577 -0.3647  1.0307
 2118TIP3    H227914   4.204   2.141   1.256 -0.7040 -0.0448  0.2419
 2119TIP3   OH227915   4.585   1.754   1.253 -1.1113  0.2575 -0.2834
 2119TIP3    H127916   4.615   1.845   1.253 -0.6698  0.2060  2.5628
 2119TIP3    H227917   4.627   1.714   1.177 -0.7038  2.2155 -1.1440
 2120TIP3   OH227918   0.349   1.190   2.041 -0.8277  0.0588  0.9014
 2120TIP3    H127919   0.355   1.110   1.988 -0.7176 -0.7534  2.1211
 2120TIP3    H227920   0.261   1.187   2.079 -0.5304  0.1089  1.5943
 2121TIP3   OH227921   2.150   3.580   8.298 -0.0903 -0.2579 -0.5538
 2121TIP3    H127922   2.218   3.627   8.250 -0.4148  0.7748 -0.0316
 2121TIP3    H227923   2.071   3.632   8.286 -0.0821  0.3182  1.4653
 2122TIP3   OH227924   2.815   1.829   1.785 -0.4456 -0.6152  0.2237
 2122TIP3    H127925   2.777   1.794   1.704 -1.4575 -0.2862  0.5319
 2122TIP3    H227926   2.886   1.769   1.806 -1.3424 -1.7839  0.0726
 2123TIP3   OH227927   3.293   5.231   7.305 -0.4382 -0.0984  0.6065
 2123TIP3    H127928   3.357   5.161   7.320 -0.0457  0.1443  0.0889
 2123TIP3    H227929   3.227   5.192   7.248 -0.0122  0.0701 -0.0035
 2124TIP3   OH227930   1.523   4.475   0.298 -0.3101 -0.3380 -0.2623
 2124TIP3    H127931   1.599   4.462   0.242  0.3019  1.0623  0.1968
 2124TIP3    H227932   1.493   4.564   0.278 -1.3400 -0.5729  0.1484
 2125TIP3   OH227933   0.593   2.813   0.051  0.1096  0.4617 -0.0087
 2125TIP3    H127934   0.598   2.836   0.144  1.3522 -2.3431  0.7269
 2125TIP3    H227935   0.662   2.864   0.010 -0.4189  1.6970  0.5793
 2126TIP3   OH227936   0.012   5.718   8.327 -0.0860  0.0922  0.1951
 2126TIP3    H127937  -0.001   5.749   8.237  1.2193 -1.3221 -0.5358
 2126TIP3    H227938   0.100   5.748   8.350  0.4723 -1.4394  0.1424
 2127TIP3   OH227939   1.182   1.249   2.336  0.3385  0.3257  0.0839
 2127TIP3    H127940   1.172   1.344   2.340 -0.6007  0.2685 -0.6533
 2127TIP3    H227941   1.276   1.235   2.347  0.5371  1.3558 -0.1316
 2128TIP3   OH227942   6.138   4.418   7.779  0.3201 -0.1625  0.4314
 2128TIP3    H127943   6.088   4.480   7.832 -0.5111 -0.3106 -0.1527
 2128TIP3    H227944   6.170   4.353   7.843  0.3632  0.3185  0.9073
 2129TIP3   OH227945   0.081   6.381   8.306  0.4648 -0.3311  0.8335
 2129TIP3    H127946   0.022   6.455   8.322 -0.5104 -0.7657 -0.5672
 2129TIP3    H227947   0.168   6.417   8.322 -0.0155  1.0149  0.6157
 2130TIP3   OH227948   6.603   5.285   8.543 -0.5139  0.1843 -0.1594
 2130TIP3    H127949   6.562   5.349   8.601 -2.5287 -0.3474 -0.9247
 2130TIP3    H227950   6.659   5.337   8.486 -1.1188  1.1277  0.0786
 2131TIP3   OH227951   0.845   6.683   0.658 -0.1955 -0.0475  0.5826
 2131TIP3    H127952   0.801   6.739   0.594  1.0235  0.1442 -0.1075
 2131TIP3    H227953   0.777   6.622   0.686 -0.4228 -1.1811 -2.0937
 2132TIP3   OH227954   2.657   3.160   1.642 -0.4503 -0.1007 -0.4454
 2132TIP3    H127955   2.727   3.157   1.576 -0.4412  0.8121 -0.4893
 2132TIP3    H227956   2.673   3.242   1.690 -1.7790  0.3857 -0.7844
 2133TIP3   OH227957   3.135   3.159   8.514 -0.0892  0.7707 -0.0709
 2133TIP3    H127958   3.178   3.080   8.480  0.5584  1.2899 -0.4784
 2133TIP3    H227959   3.202   3.203   8.566 -0.5637  0.8682  0.4737
 2134TIP3   OH227960   6.071   6.445   1.215  0.0863  0.3240 -0.0861
 2134TIP3    H127961   6.010   6.447   1.289  0.3843  2.0121  0.1452
 2134TIP3    H227962   6.096   6.352   1.207 -1.4017 -0.1807  0.7025
 2135TIP3   OH227963   2.137   5.214   7.265 -0.4326  0.3234 -0.6528
 2135TIP3    H127964   2.112   5.237   7.354 -1.0515 -1.1947 -0.4013
 2135TIP3    H227965   2.058   5.172   7.228  0.3212 -0.5179 -1.3509
 2136TIP3   OH227966   0.177   5.961   0.028 -0.0929 -0.2137  0.0440
 2136TIP3    H127967   0.172   5.919  -0.058 -0.0057  0.5938 -0.3717
 2136TIP3    H227968   0.233   6.037   0.014 -1.0757  0.6217  0.5251
 2137TIP3   OH227969   4.014   4.405   7.354 -0.3478  0.0900 -0.7215
 2137TIP3    H127970   4.011   4.338   7.286 -1.3825 -0.9158  0.2676
 2137TIP3    H227971   3.926   4.442   7.356 -0.3513  0.0486  0.1145
 2138TIP3   OH227972   1.998   0.544   8.376  0.1796  0.2998 -0.6896
 2138TIP3    H127973   1.949   0.606   8.430 -0.2627 -0.6877  0.0635
 2138TIP3    H227974   2.090   0.565   8.392  0.0301  1.1981 -0.9701
 2139TIP3   OH227975   1.640   0.930   1.738  0.6422 -0.0996  0.2505
 2139TIP3    H127976   1.586   0.986   1.682  0.5832  0.1257  0.5281
 2139TIP3    H227977   1.715   0.907   1.684 -0.8698 -2.4158 -1.0284
 2140TIP3   OH227978   0.090   6.163   1.985  0.1793 -0.5073 -0.0718
 2140TIP3    H127979   0.048   6.130   2.064  1.2804  1.0766  1.2234
 2140TIP3    H227980   0.069   6.256   1.983  3.1194  0.2709  0.3882
 2141TIP3   OH227981   1.474   0.790   8.101  0.2203 -0.3755  0.0400
 2141TIP3    H127982   1.458   0.838   8.020  1.1252 -0.0806  0.0210
 2141TIP3    H227983   1.488   0.858   8.167  0.6521 -0.6071  0.1947
 2142TIP3   OH227984   5.342   3.674   1.976 -0.5835  0.1434  0.0112
 2142TIP3    H127985   5.284   3.619   2.029 -1.2243  0.4196 -0.3954
 2142TIP3    H227986   5.294   3.756   1.966 -0.3360  0.2021 -0.7423
 2143TIP3   OH227987   5.305   2.145   7.944  0.7741 -0.0980  0.2558
 2143TIP3    H127988   5.343   2.233   7.948  2.0162 -0.6025  0.0655
 2143TIP3    H227989   5.248   2.147   7.868  1.4288  0.3159 -0.2393
 2144TIP3   OH227990   3.810   1.960   1.952 -0.0479 -0.1481  0.5422
 2144TIP3    H127991   3.726   1.947   1.909 -0.4333 -0.9558  1.5171
 2144TIP3    H227992   3.873   1.916   1.894 -0.5158 -0.9528  0.6310
 2145TIP3   OH227993   1.620   4.933   1.377  0.1552 -0.0298  0.2593
 2145TIP3    H127994   1.675   4.855   1.384  0.1928 -0.2308 -1.6831
 2145TIP3    H227995   1.629   4.976   1.462  2.3079 -0.7208  0.4470
 2146TIP3   OH227996   2.025   6.542   0.412 -0.1962  0.4226 -0.6150
 2146TIP3    H127997   2.069   6.474   0.361  0.4089  1.6272 -1.7612
 2146TIP3    H227998   2.011   6.613   0.350 -0.0827  1.6606  0.7335
 2147TIP3   OH227999   1.186   6.771   0.771  0.3491  0.5241  0.2909
 2147TIP3    H128000   1.164   6.864   0.778 -1.2148  0.1570  0.6441
 2147TIP3    H228001   1.277   6.766   0.800  1.1492  2.2107 -1.6732
 2148TIP3   OH228002   1.678   4.969   2.129 -0.3708  0.5845 -0.2027
 2148TIP3    H128003   1.727   4.959   2.211 -0.7373  1.0193  0.0755
 2148TIP3    H228004   1.655   4.879   2.104  0.1540  0.4159 -0.0844
 2149TIP3   OH228005   6.634   5.300   0.856 -0.2240  0.5561 -0.3427
 2149TIP3    H128006   6.562   5.298   0.920  0.6095  0.9487  0.6259
 2149TIP3    H228007   6.590   5.319   0.773 -1.3814 -0.4299  0.0132
 2150TIP3   OH228008   6.128   4.143   0.657 -0.2686  0.0978 -0.3252
 2150TIP3    H128009   6.043   4.188   0.652 -0.0353  0.4086 -3.0676
 2150TIP3    H228010   6.186   4.206   0.698 -0.7606  0.9663 -0.9228
 2151TIP3   OH228011   6.599   6.110   1.892  0.1044  0.0714 -0.0088
 2151TIP3    H128012   6.641   6.026   1.872  0.2714 -0.2989  1.7388
 2151TIP3    H228013   6.641   6.173   1.834  0.5515 -0.9177 -0.7760
 2152TIP3   OH228014   6.096   0.120   8.318  0.1511 -0.3778 -0.1128
 2152TIP3    H128015   6.149   0.064   8.262  1.3149 -0.5412  1.0917
 2152TIP3    H228016   6.158   0.183   8.355 -0.2142 -1.3017  2.2452
 2153TIP3   OH228017   5.215   4.590   0.715 -0.4810  0.0148  0.4727
 2153TIP3    H128018   5.163   4.615   0.792 -0.9866  1.6435 -0.3647
 2153TIP3    H228019   5.167   4.517   0.676 -0.3052 -0.7294  1.5689
 2154TIP3   OH228020   6.600   4.660   8.764 -0.1984  0.1613 -0.4593
 2154TIP3    H128021   6.672   4.665   8.701  0.0920  2.3438 -0.0386
 2154TIP3    H228022   6.622   4.725   8.831 -1.3139 -0.9265  1.0521
 2155TIP3   OH228023   6.239   1.249   2.543  0.0270 -0.4646 -0.7879
 2155TIP3    H128024   6.160   1.289   2.507  0.3949  0.6129 -0.4550
 2155TIP3    H228025   6.310   1.280   2.486  0.4107 -0.0442 -0.0957
 2156TIP3   OH228026   3.644   1.595   1.199 -0.3220 -0.5244 -0.0606
 2156TIP3    H128027   3.718   1.560   1.149 -0.3284 -0.5641 -0.0421
 2156TIP3    H228028   3.674   1.680   1.230 -1.0374  0.4631 -1.8783
 2157TIP3   OH228029   4.591   3.607   8.079  0.4421  0.3750  0.1166
 2157TIP3    H128030   4.536   3.538   8.042  2.0667 -0.6714 -0.4313
 2157TIP3    H228031   4.575   3.683   8.024  2.7367 -1.1156 -2.8842
 2158TIP3   OH228032   4.437   5.929   3.213 -0.1513 -0.0800 -0.3397
 2158TIP3    H128033   4.504   5.879   3.166  0.5578  0.0143  0.5542
 2158TIP3    H228034   4.439   6.016   3.173  0.1853 -0.1100 -0.3886
 2159TIP3   OH228035   3.250   6.060   1.490  0.4348  0.7362  0.0297
 2159TIP3    H128036   3.307   5.999   1.538 -1.6434 -0.9388  0.5366
 2159TIP3    H228037   3.199   6.003   1.432 -1.8407  1.9113  0.7667
 2160TIP3   OH228038   3.920   5.588   0.168  1.4272  0.3190  0.2822
 2160TIP3    H128039   3.863   5.512   0.171  0.3437  1.1190  0.3439
 2160TIP3    H228040   3.869   5.659   0.207  1.7624  1.4974 -1.3180
 2161TIP3   OH228041   6.548   0.855   3.082 -0.0012 -0.6802 -0.4053
 2161TIP3    H128042   6.501   0.933   3.054  0.6245 -0.8476 -2.0177
 2161TIP3    H228043   6.640   0.881   3.086 -0.1712 -0.0611  3.7584
 2162TIP3   OH228044   5.104   4.298   1.217  0.3599  0.0708 -0.1898
 2162TIP3    H128045   5.032   4.328   1.271 -0.1360  1.2977 -1.4645
 2162TIP3    H228046   5.181   4.304   1.273 -0.3225  0.0607  0.7594
 2163TIP3   OH228047   1.457   6.409   8.330  0.0671 -0.1871  0.3434
 2163TIP3    H128048   1.396   6.475   8.365 -2.4242 -1.8365 -0.5937
 2163TIP3    H228049   1.464   6.344   8.399 -0.5235 -0.7717 -0.1353
 2164TIP3   OH228050   6.306   5.830   1.430 -0.2407  0.3738  0.2121
 2164TIP3    H128051   6.400   5.817   1.436 -0.3932 -0.5432  0.8017
 2164TIP3    H228052   6.275   5.758   1.375 -1.1546 -2.3060  3.8502
 2165TIP3   OH228053   5.839   0.654   6.921 -0.6085  0.0590 -0.0680
 2165TIP3    H128054   5.887   0.649   6.838  1.3145 -1.2765  1.0449
 2165TIP3    H228055   5.892   0.713   6.975 -1.2878  0.1163  0.5479
 2166TIP3   OH228056   2.707   0.392   7.661 -0.1525  0.0452 -0.7312
 2166TIP3    H128057   2.755   0.471   7.635  1.2057 -0.3255  0.5246
 2166TIP3    H228058   2.672   0.357   7.579  2.2086  0.0417 -1.8211
 2167TIP3   OH228059   3.800   1.288   7.397  0.3030  0.0003 -0.3599
 2167TIP3    H128060   3.713   1.328   7.387 -0.8206 -1.4321  2.4856
 2167TIP3    H228061   3.861   1.361   7.385 -1.2393  1.0742 -2.3091
 2168TIP3   OH228062   4.948   6.433   1.101 -0.4723 -0.0202 -0.4837
 2168TIP3    H128063   4.872   6.424   1.157  0.1358 -0.6749  0.2569
 2168TIP3    H228064   4.913   6.459   1.016 -1.7690 -2.7856 -0.8806
 2169TIP3   OH228065   2.450   3.924   0.634  0.1635  0.7176  0.1063
 2169TIP3    H128066   2.434   3.891   0.545  0.7779  1.2588 -0.2128
 2169TIP3    H228067   2.437   3.848   0.690 -1.5468  0.6657 -0.3029
 2170TIP3   OH228068   5.807   1.651   7.443 -0.1969 -0.3622  1.0064
 2170TIP3    H128069   5.852   1.648   7.527 -0.8170 -2.6874  1.3145
 2170TIP3    H228070   5.715   1.665   7.465 -0.2023  0.2502  0.6237
 2171TIP3   OH228071   1.290   4.968   1.160 -0.2305 -0.1021 -0.0150
 2171TIP3    H128072   1.248   5.051   1.183 -1.6904 -0.7503 -0.2853
 2171TIP3    H228073   1.275   4.958   1.066 -1.1275 -1.2280  0.2207
 2172TIP3   OH228074   3.906   3.045   2.535  0.1457 -0.7218 -0.0072
 2172TIP3    H128075   3.958   3.095   2.472  0.7085 -1.4410 -0.1294
 2172TIP3    H228076   3.969   2.985   2.576  0.4342  1.5502  3.2860
 2173TIP3   OH228077   1.265   0.662   8.670 -1.1027  0.6052  0.9483
 2173TIP3    H128078   1.176   0.628   8.682 -0.6682 -0.5200  1.0913
 2173TIP3    H228079   1.316   0.620   8.739 -0.1911  0.2605  0.0805
 2174TIP3   OH228080   6.248   6.583   1.057 -0.3785  0.0614 -0.4738
 2174TIP3    H128081   6.208   6.584   0.969 -1.2003  2.9096 -0.1699
 2174TIP3    H228082   6.178   6.552   1.114 -0.4434 -0.0563 -0.6170
 2175TIP3   OH228083   4.740   6.232   0.309  0.5305  0.1183 -0.1355
 2175TIP3    H128084   4.706   6.260   0.224 -0.1550  0.7232  0.3274
 2175TIP3    H228085   4.690   6.282   0.372 -0.0099 -1.3979  0.6965
 2176TIP3   OH228086   0.753   1.259   0.075 -0.1597  0.6512 -0.2807
 2176TIP3    H128087   0.683   1.218   0.127 -0.6943  1.6868 -0.1472
 2176TIP3    H228088   0.832   1.213   0.100 -0.1682  1.9066  2.4481
 2177TIP3   OH228089   0.105   5.324   2.089 -0.0878 -0.4102  0.1588
 2177TIP3    H128090   0.163   5.268   2.036  0.8193  1.0294 -0.4309
 2177TIP3    H228091   0.068   5.386   2.026 -0.6292  0.0170  0.8859
 2178TIP3   OH228092   4.191   2.625   7.122 -0.3593  0.2146 -0.3590
 2178TIP3    H128093   4.209   2.684   7.048 -1.8858  1.0184 -0.1216
 2178TIP3    H228094   4.199   2.537   7.085  1.2951  0.5390 -0.8818
 2179TIP3   OH228095   2.595   5.817   1.272 -0.1325  0.7411  0.2947
 2179TIP3    H128096   2.651   5.882   1.314 -0.4926  1.7508 -0.7337
 2179TIP3    H228097   2.610   5.736   1.322  0.3110  1.6062  1.6134
 2180TIP3   OH228098   5.974   1.139   2.978  0.3199  0.1021  0.5881
 2180TIP3    H128099   6.044   1.196   2.946  0.1907  1.4503  2.5962
 2180TIP3    H228100   6.011   1.050   2.972  1.1519  0.5044 -0.9397
 2181TIP3   OH228101   5.434   3.491   7.756  0.5817  0.5338 -0.0534
 2181TIP3    H128102   5.396   3.454   7.676  0.0684  1.8830 -0.4603
 2181TIP3    H228103   5.520   3.522   7.728  0.0557  1.8001 -0.3203
 2182TIP3   OH228104   3.901   3.728   1.952  0.7517  0.7164 -0.4175
 2182TIP3    H128105   3.938   3.814   1.935 -1.2915  1.4081 -1.7983
 2182TIP3    H228106   3.807   3.739   1.937  0.5537 -2.0135 -1.7761
 2183TIP3   OH228107   6.094   1.995   7.715  0.1423  0.1131  0.9035
 2183TIP3    H128108   6.037   1.951   7.652 -0.4706  0.8315  0.9418
 2183TIP3    H228109   6.067   2.086   7.712  0.9885  0.3868  1.2669
 2184TIP3   OH228110   2.862   3.065   8.505  0.2898 -0.1869  0.3837
 2184TIP3    H128111   2.861   3.035   8.596 -0.0616  0.4302  0.5920
 2184TIP3    H228112   2.919   3.142   8.506  0.0619 -0.0141  0.1377
 2185TIP3   OH228113   3.787   5.237   0.505  0.9520  0.2812 -0.0747
 2185TIP3    H128114   3.829   5.204   0.585  0.8186  1.1743  0.3667
 2185TIP3    H228115   3.858   5.276   0.455  1.1219 -0.6978 -0.6324
 2186TIP3   OH228116   4.432   2.198   1.476 -0.0855 -0.2022  0.3112
 2186TIP3    H128117   4.420   2.236   1.563 -0.4846  1.2284 -0.3275
 2186TIP3    H228118   4.360   2.235   1.424  0.1784 -0.9829 -0.6335
 2187TIP3   OH228119   0.253   4.239   0.095 -0.1388  0.0983 -0.3861
 2187TIP3    H128120   0.160   4.245   0.117  0.0120 -0.7689  0.5824
 2187TIP3    H228121   0.255   4.194   0.011 -0.6242  1.0292 -0.9128
 2188TIP3   OH228122   6.633   0.969   1.827  0.3366 -0.4777  0.3939
 2188TIP3    H128123   6.712   0.958   1.775 -0.6034  0.6880 -1.3658
 2188TIP3    H228124   6.653   1.039   1.889  0.8683 -0.6284  0.3918
 2189TIP3   OH228125   3.859   5.187   7.746 -0.0196  0.3418  0.2018
 2189TIP3    H128126   3.836   5.095   7.758  0.7726  0.1759  0.4623
 2189TIP3    H228127   3.951   5.187   7.720  0.3524  1.1210  1.4147
 2190TIP3   OH228128   5.472   1.130   8.615  0.1824 -0.1438 -0.1899
 2190TIP3    H128129   5.525   1.134   8.536  0.1127  1.9738 -0.1829
 2190TIP3    H228130   5.487   1.042   8.650  6.0580  1.0605  1.4114
 2191TIP3   OH228131   5.731   5.484   1.151 -0.1299 -0.3488 -0.0159
 2191TIP3    H128132   5.783   5.483   1.071 -0.2142 -0.2445 -0.0716
 2191TIP3    H228133   5.780   5.539   1.212 -1.0601  1.2727 -0.6604
 2192TIP3   OH228134   3.266   4.886   2.421  0.3823  0.0988  0.0152
 2192TIP3    H128135   3.351   4.860   2.457 -0.1117 -1.7433 -0.0404
 2192TIP3    H228136   3.268   4.982   2.420  1.9274  0.1150  1.2773
 2193TIP3   OH228137   2.764   4.500   1.926  0.1948 -0.5500 -0.1190
 2193TIP3    H128138   2.708   4.535   1.996  0.7725 -0.2451  0.2010
 2193TIP3    H228139   2.720   4.420   1.898 -0.8575  0.1380 -0.4812
 2194TIP3   OH228140   3.647   1.183   1.716  0.2514  0.4513  0.5369
 2194TIP3    H128141   3.707   1.140   1.778  0.5229  1.9276  1.3398
 2194TIP3    H228142   3.588   1.234   1.771 -0.0368  1.1387 -0.3895
 2195TIP3   OH228143   5.640   3.640   7.959 -0.1971  0.0349 -0.0139
 2195TIP3    H128144   5.628   3.620   8.052  1.1965  1.6983  0.5645
 2195TIP3    H228145   5.624   3.734   7.953 -3.5951 -0.4989 -2.0955
 2196TIP3   OH228146   0.300   0.126   7.333 -0.4133  0.4888  0.6616
 2196TIP3    H128147   0.248   0.054   7.369 -0.6062 -0.1015 -0.7446
 2196TIP3    H228148   0.379   0.084   7.299  0.5039  1.2409  1.7684
 2197TIP3   OH228149   0.950   3.002   7.695 -0.2452 -0.0839 -0.1276
 2197TIP3    H128150   0.934   3.085   7.650 -1.0922  0.4134  1.0279
 2197TIP3    H228151   1.037   2.974   7.665 -0.1281  1.0056 -0.8489
 2198TIP3   OH228152   3.743   1.698   8.627  0.3405  0.2089  0.6559
 2198TIP3    H128153   3.746   1.672   8.535  1.3088 -0.4214  0.8580
 2198TIP3    H228154   3.669   1.759   8.631  0.4445  0.4634 -0.5899
 2199TIP3   OH228155   6.231   3.534   7.024 -0.3010  0.3147  0.0289
 2199TIP3    H128156   6.244   3.510   6.932  0.5680 -1.4603  0.5596
 2199TIP3    H228157   6.136   3.541   7.034 -0.3813  1.5074 -1.1965
 2200TIP3   OH228158   4.313   4.203   1.237  0.4697  0.5232 -0.1266
 2200TIP3    H128159   4.253   4.204   1.162 -0.0734 -2.1375  0.1950
 2200TIP3    H228160   4.273   4.263   1.300 -0.3684  0.9047 -0.9956
 2201TIP3   OH228161   4.977   6.138   6.987 -0.2073 -0.2309  0.2505
 2201TIP3    H128162   4.994   6.068   6.924 -0.1467  1.4184 -1.6608
 2201TIP3    H228163   4.956   6.214   6.933 -0.6274  1.1504  2.2603
 2202TIP3   OH228164   1.799   2.717   7.397 -0.2186  0.2192 -0.4648
 2202TIP3    H128165   1.872   2.655   7.404 -0.4723 -0.1675 -1.1182
 2202TIP3    H228166   1.839   2.796   7.361 -0.1358 -0.0234 -0.9133
 2203TIP3   OH228167   1.573   2.916   1.952 -0.2231  0.5443  0.2231
 2203TIP3    H128168   1.542   2.836   1.909 -0.9372  0.0084  1.6731
 2203TIP3    H228169   1.643   2.948   1.895 -0.3808 -0.7410 -0.7388
 2204TIP3   OH228170   2.117   3.946   2.493  0.2720  0.1901  0.1617
 2204TIP3    H128171   2.122   4.040   2.510  1.1782  0.2636 -0.4694
 2204TIP3    H228172   2.108   3.939   2.398  0.0581 -0.3620  0.2176
 2205TIP3   OH228173   3.882   2.011   0.737  0.0045 -0.3516  0.2067
 2205TIP3    H128174   3.818   1.962   0.790  1.5777 -0.8662  1.7279
 2205TIP3    H228175   3.843   2.097   0.727 -1.0560 -0.7278  0.8667
 2206TIP3   OH228176   0.771   3.307   2.283 -0.2865 -0.6665  0.1473
 2206TIP3    H128177   0.826   3.352   2.347 -0.5039 -2.0663  1.3794
 2206TIP3    H228178   0.728   3.378   2.234  1.2512  0.4382  0.3214
 2207TIP3   OH228179   4.796   6.769   8.518 -0.4736  0.1979 -0.6818
 2207TIP3    H128180   4.831   6.710   8.585  1.5586  0.1544 -1.7218
 2207TIP3    H228181   4.701   6.758   8.524 -0.2859 -0.8105  1.2608
 2208TIP3   OH228182   4.059   5.611   8.288 -0.4215 -0.6823  0.7339
 2208TIP3    H128183   4.121   5.684   8.278 -0.4914 -0.7673 -0.4582
 2208TIP3    H228184   4.085   5.568   8.369  0.1602  0.1555  1.0058
 2209TIP3   OH228185   0.148   6.740   7.445 -0.0250  0.3756 -0.5673
 2209TIP3    H128186   0.169   6.648   7.429 -0.2323  0.3598 -0.7446
 2209TIP3    H228187   0.061   6.738   7.485  0.2423  0.4517  0.0284
 2210TIP3   OH228188   5.483   5.708   7.456 -0.2322  0.1852 -0.4791
 2210TIP3    H128189   5.495   5.628   7.405 -2.5461 -0.3360 -0.3080
 2210TIP3    H228190   5.546   5.701   7.528 -0.2608 -1.3781 -0.5746
 2211TIP3   OH228191   0.480   3.822   1.680  0.5158  0.0316 -0.3385
 2211TIP3    H128192   0.465   3.884   1.609 -0.4541 -0.1452 -0.3040
 2211TIP3    H228193   0.428   3.745   1.656  0.7471 -0.3004  0.2102
 2212TIP3   OH228194   2.808   0.081   2.022  0.0403 -0.1010 -0.4669
 2212TIP3    H128195   2.827   0.024   1.947  3.0097  0.4025 -0.2142
 2212TIP3    H228196   2.883   0.070   2.080 -2.5980 -1.2498  3.0478
 2213TIP3   OH228197   5.353   2.314   8.727 -0.0515  0.1295  0.1960
 2213TIP3    H128198   5.405   2.253   8.778 -0.2638 -1.0635 -0.9692
 2213TIP3    H228199   5.381   2.300   8.636 -1.7682  0.0740 -0.3574
 2214TIP3   OH228200   3.814   2.628   1.979  0.4498 -0.2797  0.3211
 2214TIP3    H128201   3.869   2.626   2.056 -1.8381  1.9053  2.2028
 2214TIP3    H228202   3.730   2.592   2.008 -1.0735  2.3351 -0.4396
 2215TIP3   OH228203   6.090   1.945   1.029  0.3892  0.5762  0.7113
 2215TIP3    H128204   6.110   2.003   1.103  1.3907  0.0742  0.8463
 2215TIP3    H228205   6.101   2.000   0.951  0.7162  0.7292  0.8664
 2216TIP3   OH228206   5.949   2.139   8.312  0.3873 -0.4316  0.5285
 2216TIP3    H128207   5.944   2.048   8.283  0.7826 -0.1108 -0.5969
 2216TIP3    H228208   6.027   2.174   8.269 -0.4201  0.7681 -0.0071
 2217TIP3   OH228209   3.155   3.901   0.260 -0.4144  0.2974 -0.0786
 2217TIP3    H128210   3.097   3.973   0.235  0.4822  1.3026  0.6675
 2217TIP3    H228211   3.219   3.895   0.188  0.3603  1.2021  0.5167
 2218TIP3   OH228212   0.428   0.077   8.049 -0.0343  0.0195 -1.2848
 2218TIP3    H128213   0.338   0.106   8.033  0.0131 -0.3629 -2.2716
 2218TIP3    H228214   0.478   0.158   8.057 -0.7659  0.3255  1.3887
 2219TIP3   OH228215   0.178   3.762   1.111 -0.1390 -0.1552 -0.1222
 2219TIP3    H128216   0.150   3.689   1.056 -1.8899 -0.9483  1.6938
 2219TIP3    H228217   0.110   3.829   1.098  0.2879  0.2818 -0.1195
 2220TIP3   OH228218   2.658   2.521   7.862 -0.3381 -0.6934 -0.1775
 2220TIP3    H128219   2.596   2.585   7.828 -0.4529 -0.3259  0.6941
 2220TIP3    H228220   2.715   2.501   7.788 -1.2138 -0.6966 -0.8587
 2221TIP3   OH228221   4.252   1.916   0.191  0.4716 -0.0667 -0.0134
 2221TIP3    H128222   4.325   1.977   0.187  0.6673 -0.2039  1.0610
 2221TIP3    H228223   4.174   1.971   0.191  0.4820  0.0328 -2.5554
 2222TIP3   OH228224   6.578   2.346   1.494  0.3421  0.7878 -0.5204
 2222TIP3    H128225   6.500   2.399   1.507 -0.6544 -1.0093  1.5588
 2222TIP3    H228226   6.639   2.375   1.561 -0.1978 -0.5528  0.6097
 2223TIP3   OH228227   3.591   6.406   2.095  0.5844 -0.4341  0.9357
 2223TIP3    H128228   3.526   6.476   2.098 -0.0374 -0.9481 -0.0164
 2223TIP3    H228229   3.609   6.395   2.001  3.6350  1.1511  1.2088
 2224TIP3   OH228230   0.543   0.714   8.601 -0.3539  0.0779 -0.2193
 2224TIP3    H128231   0.465   0.717   8.657 -0.0447  1.7423  0.1754
 2224TIP3    H228232   0.607   0.664   8.652 -0.9032 -0.6374 -0.2134
 2225TIP3   OH228233   4.614   0.902   8.704  0.1828 -0.0414  0.2135
 2225TIP3    H128234   4.520   0.918   8.712  0.3450  1.4030 -0.4936
 2225TIP3    H228235   4.622   0.806   8.704 -1.2384 -0.1763  0.7046
 2226TIP3   OH228236   3.399   4.625   7.686  0.1105  0.3088 -0.7225
 2226TIP3    H128237   3.400   4.563   7.613 -1.7522 -0.5631 -0.0736
 2226TIP3    H228238   3.486   4.618   7.724  0.2682 -1.1754 -1.2806
 2227TIP3   OH228239   6.608   4.089   0.933 -0.2230 -0.1576 -0.1767
 2227TIP3    H128240   6.589   4.134   0.851 -3.5899  0.3971  0.7353
 2227TIP3    H228241   6.544   4.018   0.937  0.7249 -0.9826  1.3854
 2228TIP3   OH228242   3.654   6.804   7.490  0.1012 -0.1350  0.5933
 2228TIP3    H128243   3.734   6.759   7.464  0.6396  0.1377  1.6782
 2228TIP3    H228244   3.639   6.869   7.422  0.1363 -0.9760 -0.2242
 2229TIP3   OH228245   4.803   4.010   2.379 -0.1812  0.2323 -0.0741
 2229TIP3    H128246   4.719   4.005   2.334  0.2420 -0.5557 -0.7997
 2229TIP3    H228247   4.784   3.980   2.468 -0.8712  1.1053  0.0924
 2230TIP3   OH228248   0.456   2.900   0.938 -0.0251  0.4604 -0.6684
 2230TIP3    H128249   0.364   2.886   0.957  0.4040  0.6642  2.1425
 2230TIP3    H228250   0.459   2.981   0.887 -1.4169  0.0469 -1.4375
 2231TIP3   OH228251   1.873   0.555   0.443 -0.3431 -0.1265  0.2308
 2231TIP3    H128252   1.925   0.635   0.448  0.1380 -0.3629 -0.6601
 2231TIP3    H228253   1.825   0.564   0.360  0.3833 -1.1319 -0.3235
 2232TIP3   OH228254   3.265   5.696   8.086 -0.3855 -0.0473 -0.8742
 2232TIP3    H128255   3.174   5.668   8.071 -0.4911  0.2796 -0.8363
 2232TIP3    H228256   3.307   5.619   8.124 -0.3068 -0.6584 -2.1230
 2233TIP3   OH228257   6.512   5.221   8.154  0.1050  0.2492  0.0033
 2233TIP3    H128258   6.547   5.282   8.218 -2.7179  1.9924  0.0428
 2233TIP3    H228259   6.553   5.248   8.071  0.8253  0.4868  0.4234
 2234TIP3   OH228260   3.585   5.759   0.003  0.2820 -0.5487 -0.5152
 2234TIP3    H128261   3.491   5.755  -0.017  0.2642 -1.7486 -0.3097
 2234TIP3    H228262   3.625   5.697  -0.058  1.0796  0.6724 -1.2570
 2235TIP3   OH228263   6.528   5.587   1.196 -0.1618  0.3480 -0.4173
 2235TIP3    H128264   6.535   5.586   1.101 -0.2062  2.1319 -0.4705
 2235TIP3    H228265   6.435   5.603   1.213 -0.1033  0.3375 -0.0733
 2236TIP3   OH228266   5.059   2.962   1.591 -0.5615 -0.2668  0.0399
 2236TIP3    H128267   4.994   2.894   1.605 -0.0377 -1.2818 -1.9984
 2236TIP3    H228268   5.144   2.917   1.596 -0.1742  0.3607 -0.5276
 2237TIP3   OH228269   1.148   3.821   7.727 -0.5846 -0.0245 -0.7125
 2237TIP3    H128270   1.089   3.754   7.694 -0.8321  0.5692 -1.5207
 2237TIP3    H228271   1.141   3.892   7.664 -0.4052  0.8049  0.1675
 2238TIP3   OH228272   3.280   2.488   2.581 -0.2137 -0.0798  0.6454
 2238TIP3    H128273   3.288   2.579   2.610  1.3402  0.1904 -0.4623
 2238TIP3    H228274   3.355   2.444   2.621 -0.7852 -0.8129  0.9262
 2239TIP3   OH228275   2.945   6.496   8.535  0.2091  0.1811  0.5513
 2239TIP3    H128276   2.978   6.496   8.625 -1.5609 -0.1305  1.2467
 2239TIP3    H228277   2.997   6.430   8.490  1.1836  0.4054  1.3056
 2240TIP3   OH228278   4.846   6.640   8.799  0.5496 -0.4269  0.3505
 2240TIP3    H128279   4.848   6.725   8.843 -0.2245  0.1274 -0.6377
 2240TIP3    H228280   4.935   6.625   8.769  1.0393 -0.7106  1.8764
 2241TIP3   OH228281   5.363   3.468   6.872  0.3012  0.2752  0.2689
 2241TIP3    H128282   5.331   3.524   6.942 -0.1235  1.2126 -0.6414
 2241TIP3    H228283   5.301   3.395   6.868  0.2607  0.2812  0.7772
 2242TIP3   OH228284   4.386   0.381   1.178 -0.5128  0.1595 -0.0139
 2242TIP3    H128285   4.461   0.361   1.122  0.5897  1.5861  0.8840
 2242TIP3    H228286   4.326   0.430   1.121 -0.5314 -0.5048 -0.5823
 2243TIP3   OH228287   5.349   0.212   0.963 -0.2796 -0.5191 -0.1135
 2243TIP3    H128288   5.373   0.120   0.951  0.1059 -0.4221 -0.0788
 2243TIP3    H228289   5.374   0.254   0.881  0.1118 -0.3271  0.1011
 2244TIP3   OH228290   0.586   3.613   7.756  0.0140 -0.1202  0.0163
 2244TIP3    H128291   0.624   3.568   7.681  0.4481 -1.5598  1.0601
 2244TIP3    H228292   0.525   3.676   7.718  1.5089  0.4298 -1.6004
 2245TIP3   OH228293   3.102   0.369   0.099  0.2078  0.5245 -0.0762
 2245TIP3    H128294   3.107   0.465   0.093  0.6131  0.4580 -0.7918
 2245TIP3    H228295   3.140   0.337   0.018 -1.3197 -0.2245 -0.5363
 2246TIP3   OH228296   3.858   0.077   7.759  0.4708 -0.6704 -0.1993
 2246TIP3    H128297   3.929   0.016   7.782  0.8584 -0.0087  0.4072
 2246TIP3    H228298   3.807   0.031   7.693  0.6061 -1.7628  0.4360
 2247TIP3   OH228299   0.401   2.792   7.334 -0.1891 -0.8683 -0.6242
 2247TIP3    H128300   0.451   2.852   7.279 -0.3271  1.3320  1.4757
 2247TIP3    H228301   0.421   2.819   7.424 -1.0885 -3.3380  0.4249
 2248TIP3   OH228302   1.709   6.681   7.755  0.3769  0.1674  0.0253
 2248TIP3    H128303   1.776   6.695   7.822  0.7695  3.0480 -0.8317
 2248TIP3    H228304   1.630   6.723   7.790  0.6853  2.0366 -1.3580
 2249TIP3   OH228305   4.871   3.894   0.579 -0.0063 -0.1502 -0.1591
 2249TIP3    H128306   4.834   3.862   0.661  0.7082 -2.7403 -0.7654
 2249TIP3    H228307   4.854   3.823   0.516  1.2222  0.9097 -1.7539
 2250TIP3   OH228308   4.767   3.067   2.449  0.3165 -0.5989  0.2884
 2250TIP3    H128309   4.725   2.985   2.424 -0.8508 -0.0961  0.5089
 2250TIP3    H228310   4.856   3.061   2.413 -0.3094 -1.2036 -1.2403
 2251TIP3   OH228311   2.666   1.725   8.138 -0.0472  0.4869 -0.1787
 2251TIP3    H128312   2.593   1.671   8.169 -1.0607  1.9142  0.0218
 2251TIP3    H228313   2.643   1.747   8.047  0.2661  0.7463 -0.1969
 2252TIP3   OH228314   2.330   5.774   1.902 -0.5869  0.1476 -0.3644
 2252TIP3    H128315   2.302   5.688   1.935  0.4894 -0.2890 -0.5355
 2252TIP3    H228316   2.411   5.756   1.855 -1.2216  1.0139 -1.8688
 2253TIP3   OH228317   1.256   3.136   3.267  0.0997  0.2991 -0.2469
 2253TIP3    H128318   1.270   3.208   3.328 -0.6085 -0.0350  0.3260
 2253TIP3    H228319   1.197   3.076   3.313  1.2947 -1.0472 -0.3822
 2254TIP3   OH228320   0.184   0.231   8.435  0.5959 -0.5659  0.0099
 2254TIP3    H128321   0.230   0.297   8.486 -0.4606 -0.9493  1.5430
 2254TIP3    H228322   0.157   0.276   8.355  1.8535  0.1963 -0.0066
 2255TIP3   OH228323   5.514   3.410   6.633 -0.1578 -0.2250 -0.1869
 2255TIP3    H128324   5.493   3.323   6.600 -1.7991 -0.2792  0.8950
 2255TIP3    H228325   5.463   3.418   6.714 -2.7156  2.9815 -1.8739
 2256TIP3   OH228326   4.987   1.141   7.060  0.3684 -0.1997 -0.2951
 2256TIP3    H128327   4.934   1.220   7.064  0.5681  0.0928 -2.2896
 2256TIP3    H228328   4.924   1.070   7.045  0.4113 -0.0071 -1.4720
 2257TIP3   OH228329   3.700   6.801   8.271  0.6426 -0.1281 -0.1002
 2257TIP3    H128330   3.754   6.730   8.305 -0.3004 -1.4036 -1.1699
 2257TIP3    H228331   3.755   6.843   8.205  0.1217 -1.9056 -1.7329
 2258TIP3   OH228332   3.049   0.413   0.373 -0.1159  0.4025  0.0705
 2258TIP3    H128333   3.040   0.379   0.284  0.6933  1.5917 -0.4927
 2258TIP3    H228334   2.998   0.352   0.427 -1.8841  0.4975 -1.3898
 2259TIP3   OH228335   1.097   5.954   7.506  0.1288 -0.0748 -0.2913
 2259TIP3    H128336   1.134   6.042   7.505 -0.5237  0.2441 -2.5397
 2259TIP3    H228337   1.172   5.896   7.489  0.6743 -0.0746  1.8330
 2260TIP3   OH228338   5.666   1.827   8.110 -0.1631 -0.3140  0.4251
 2260TIP3    H128339   5.617   1.909   8.112 -0.7182 -0.5010 -2.1664
 2260TIP3    H228340   5.602   1.762   8.080  1.4032 -0.6503 -2.5828
 2261TIP3   OH228341   4.738   1.658   1.026 -0.1349  0.1348  0.0117
 2261TIP3    H128342   4.770   1.699   0.946 -0.4607 -0.4840 -0.4420
 2261TIP3    H228343   4.759   1.565   1.016 -0.8918 -0.0755  0.2748
 2262TIP3   OH228344   6.188   6.765   8.110 -0.2688  0.3395  0.1035
 2262TIP3    H128345   6.113   6.734   8.059  0.4202 -0.9412 -0.1789
 2262TIP3    H228346   6.264   6.729   8.065  0.4409  0.4204  1.1914
 2263TIP3   OH228347   0.217   0.213   0.842 -0.2459 -0.4202 -0.2489
 2263TIP3    H128348   0.266   0.142   0.885  0.5511 -0.0700 -0.5478
 2263TIP3    H228349   0.218   0.284   0.905  1.6402  0.3855 -1.1021
 2264TIP3   OH228350   1.020   6.222   2.097 -0.2197  1.0680 -0.0063
 2264TIP3    H128351   0.937   6.252   2.062 -0.3758  0.4266 -0.1919
 2264TIP3    H228352   1.065   6.302   2.125 -1.6979  1.3115  1.9053
 2265TIP3   OH228353   6.716   0.843   8.304  0.2138 -0.3356 -0.5232
 2265TIP3    H128354   6.622   0.856   8.289  0.4610  0.7729 -1.2996
 2265TIP3    H228355   6.736   0.897   8.380  0.2304 -0.5415 -0.3815
 2266TIP3   OH228356   5.190   0.651   0.952  0.8336 -0.0554 -0.5741
 2266TIP3    H128357   5.184   0.652   1.047 -2.8572  0.8295 -0.6676
 2266TIP3    H228358   5.215   0.740   0.928 -1.3269  0.6491 -0.4223
 2267TIP3   OH228359   4.374   5.796   8.563  0.3678  0.4428  0.6702
 2267TIP3    H128360   4.312   5.818   8.634 -1.2948  0.0898 -0.6064
 2267TIP3    H228361   4.357   5.704   8.546  1.8693  0.1233  0.8323
 2268TIP3   OH228362   5.438   0.718   0.671 -0.3626 -0.1042  0.1943
 2268TIP3    H128363   5.401   0.767   0.745 -0.0517 -0.6404  0.7137
 2268TIP3    H228364   5.417   0.771   0.594 -1.2372  0.1528  0.5959
 2269TIP3   OH228365   2.728   6.453   7.498 -0.1219 -0.1493  0.5923
 2269TIP3    H128366   2.758   6.479   7.411 -1.9358 -1.7827 -0.6276
 2269TIP3    H228367   2.807   6.451   7.552  0.9527  1.5134 -0.8370
 2270TIP3   OH228368   5.192   5.615   8.335  0.0714 -0.0902  0.5519
 2270TIP3    H128369   5.147   5.690   8.297  0.1952  0.0498  0.6762
 2270TIP3    H228370   5.283   5.644   8.344  0.1071 -0.2322  0.6583
 2271TIP3   OH228371   0.702   0.761   2.825  0.3308  0.0794  0.2658
 2271TIP3    H128372   0.629   0.703   2.847  0.3906 -0.5498 -1.0423
 2271TIP3    H228373   0.668   0.817   2.755  1.4408 -1.1822 -1.4010
 2272TIP3   OH228374   2.606   1.388   0.619 -0.1961 -0.2592  0.0796
 2272TIP3    H128375   2.684   1.422   0.575 -0.9422  1.3371 -0.0835
 2272TIP3    H228376   2.639   1.319   0.676  1.1383 -0.6159 -1.0481
 2273TIP3   OH228377   3.726   4.708   2.227  0.0325  0.5394 -0.1585
 2273TIP3    H128378   3.769   4.779   2.180 -0.2856  1.3245  0.7117
 2273TIP3    H228379   3.787   4.685   2.296 -0.4354  0.8673  0.3685
 2274TIP3   OH228380   4.005   3.340   1.904  0.4583 -0.2542 -0.2703
 2274TIP3    H128381   4.082   3.305   1.859 -0.0007 -1.1446 -0.3829
 2274TIP3    H228382   3.943   3.268   1.904  0.3399 -0.1958  1.5575
 2275TIP3   OH228383   5.863   2.781   0.266 -0.6075 -0.2501 -0.9339
 2275TIP3    H128384   5.841   2.688   0.262 -0.5250 -0.2777 -0.7296
 2275TIP3    H228385   5.884   2.797   0.357  1.6328 -0.5386 -1.3526
 2276TIP3   OH228386   4.588   4.813   8.427 -0.4449 -0.2225  0.3843
 2276TIP3    H128387   4.623   4.892   8.386 -0.8192  0.3852  1.2135
 2276TIP3    H228388   4.652   4.745   8.406 -0.1062  0.3006 -0.3222
 2277TIP3   OH228389   4.786   5.562   7.594 -0.2235 -0.2303  0.1755
 2277TIP3    H128390   4.796   5.519   7.509  0.7676  0.4132 -0.0483
 2277TIP3    H228391   4.706   5.615   7.585 -1.6576 -2.2200  0.5662
 2278TIP3   OH228392   1.407   2.456   1.685  0.1198 -0.4459 -0.1236
 2278TIP3    H128393   1.489   2.456   1.636  0.7824  0.4058  0.9611
 2278TIP3    H228394   1.340   2.433   1.619  1.0402  0.1397 -1.3059
 2279TIP3   OH228395   2.098   5.372   0.412 -0.1734  0.0287  0.1222
 2279TIP3    H128396   2.174   5.317   0.392 -0.8511 -0.3374 -1.5424
 2279TIP3    H228397   2.039   5.359   0.339 -1.1556  1.5859  0.6036
 2280TIP3   OH228398   5.374   0.914   2.886  0.0304 -0.2164  0.2994
 2280TIP3    H128399   5.354   0.972   2.813 -0.8712  0.1058  0.7797
 2280TIP3    H228400   5.433   0.965   2.942  0.8829 -0.5380 -0.2840
 2281TIP3   OH228401   4.414   5.540   8.512 -0.1342  0.1029  0.1485
 2281TIP3    H128402   4.413   5.466   8.572 -1.4636  0.6722  0.8751
 2281TIP3    H228403   4.507   5.558   8.498  0.2509 -2.1491 -0.6661
 2282TIP3   OH228404   0.379   2.188   7.798 -0.2456 -0.3439 -0.1288
 2282TIP3    H128405   0.394   2.231   7.881 -0.2715 -0.3026 -0.1459
 2282TIP3    H228406   0.284   2.191   7.786 -0.0657  2.3587 -1.6040
 2283TIP3   OH228407   4.179   0.189   1.832  0.1007  0.3895  0.8651
 2283TIP3    H128408   4.096   0.155   1.864 -1.5413  2.7931 -0.5399
 2283TIP3    H228409   4.215   0.238   1.906 -0.7910  1.0813  0.8560
 2284TIP3   OH228410   0.026   0.785   0.162 -0.1472  0.0829 -0.4429
 2284TIP3    H128411  -0.059   0.744   0.181 -0.6140  0.4088 -1.6861
 2284TIP3    H228412   0.033   0.780   0.066  0.9039  0.7272 -0.4080
 2285TIP3   OH228413   3.671   2.524   8.122 -0.3611  0.1780  0.2512
 2285TIP3    H128414   3.716   2.440   8.111  3.2935  2.1826 -1.7498
 2285TIP3    H228415   3.710   2.561   8.201 -2.2930 -0.0667  1.3894
 2286TIP3   OH228416   0.435   3.745   7.564  0.0220 -0.1649 -0.0988
 2286TIP3    H128417   0.386   3.665   7.548 -0.3418 -0.0820  0.5620
 2286TIP3    H228418   0.474   3.767   7.480 -1.9080  0.3327 -0.9080
 2287TIP3   OH228419   1.422   1.766   8.040  0.6748  0.2050  0.3237
 2287TIP3    H128420   1.439   1.690   7.984  1.5397  0.2164  0.5540
 2287TIP3    H228421   1.331   1.757   8.066  1.2085 -1.6843  1.7465
 2288TIP3   OH228422   1.631   3.528   0.275 -0.3637 -0.1583  0.5031
 2288TIP3    H128423   1.612   3.438   0.247 -1.1457 -0.2140  1.1670
 2288TIP3    H228424   1.557   3.551   0.332 -0.5825  1.1796 -0.2754
 2289TIP3   OH228425   2.938   6.238   0.979  0.1510  0.4002 -0.5643
 2289TIP3    H128426   2.998   6.266   0.910  1.2069 -0.4958 -0.0449
 2289TIP3    H228427   2.864   6.298   0.972  0.3984  0.5708 -2.2188
 2290TIP3   OH228428   3.483   4.752   0.103 -0.0866  0.0323  0.4839
 2290TIP3    H128429   3.509   4.668   0.065  0.5080  2.0707 -4.3486
 2290TIP3    H228430   3.391   4.739   0.129 -0.6488 -1.6651 -1.9942
 2291TIP3   OH228431   0.522   0.969   8.484  0.0575  0.4516 -0.4531
 2291TIP3    H128432   0.474   1.044   8.519 -1.5097 -0.6550 -0.1546
 2291TIP3    H228433   0.535   0.911   8.559 -1.6704 -1.0690 -1.2571
 2292TIP3   OH228434   6.620   5.846   0.950 -0.3741  0.2451  0.9802
 2292TIP3    H128435   6.620   5.864   1.044 -2.5922  0.8282  0.9410
 2292TIP3    H228436   6.537   5.882   0.920 -0.0609 -0.6365 -1.0812
 2293TIP3   OH228437   6.260   2.060   0.068 -0.0089 -0.1669 -0.2523
 2293TIP3    H128438   6.302   2.136   0.029  1.0279 -0.5971 -0.0385
 2293TIP3    H228439   6.175   2.091   0.098  1.3573  1.6479  2.2201
 2294TIP3   OH228440   3.223   1.334   1.658  0.6534 -0.4875 -0.6168
 2294TIP3    H128441   3.210   1.249   1.699  2.8213 -0.3205  0.5255
 2294TIP3    H228442   3.167   1.394   1.708  1.0431 -0.8068  0.2174
 2295TIP3   OH228443   3.175   0.637   0.070  0.2387 -0.1276 -0.0884
 2295TIP3    H128444   3.107   0.624   0.004  0.1741  2.4522 -0.6049
 2295TIP3    H228445   3.135   0.695   0.135  1.0674 -0.7840  1.0492
 2296TIP3   OH228446   3.530   2.899   1.239  0.0133  0.0842 -0.0173
 2296TIP3    H128447   3.562   2.836   1.304 -0.1870  0.3010  0.2962
 2296TIP3    H228448   3.583   2.978   1.254 -0.5824  0.4047  0.4250
 2297TIP3   OH228449   5.841   5.877   1.610 -0.5109  1.1932 -0.2646
 2297TIP3    H128450   5.771   5.911   1.554 -0.1319  0.5791 -1.1377
 2297TIP3    H228451   5.889   5.816   1.554 -1.1589 -0.7882  1.2377
 2298TIP3   OH228452   4.713   5.293   2.293 -0.2794 -0.0893  0.0459
 2298TIP3    H128453   4.695   5.249   2.376  0.4222  0.1597  0.3452
 2298TIP3    H228454   4.651   5.366   2.291 -1.5131 -1.1270 -0.5020
 2299TIP3   OH228455   0.919   3.530   0.038 -0.5755  0.0859  0.2366
 2299TIP3    H128456   0.999   3.503   0.084 -0.9336  0.3139  1.0063
 2299TIP3    H228457   0.950   3.567  -0.044  0.0880 -0.2296  0.3368
 2300TIP3   OH228458   0.544   2.610   7.066 -0.3602  0.0346 -0.2751
 2300TIP3    H128459   0.569   2.677   7.130 -1.1030 -0.4656  0.5592
 2300TIP3    H228460   0.626   2.563   7.048 -0.4879 -1.2664  2.0546
 2301TIP3   OH228461   1.268   3.207   8.544  0.1856  0.0452  0.0281
 2301TIP3    H128462   1.184   3.162   8.547  0.4499 -0.4103  1.3986
 2301TIP3    H228463   1.273   3.244   8.456 -0.2927 -2.1010 -0.9488
 2302TIP3   OH228464   6.021   4.648   2.555  0.0662  0.3564  0.4583
 2302TIP3    H128465   6.013   4.563   2.511 -1.5124 -0.3348  1.9847
 2302TIP3    H228466   6.063   4.628   2.639  4.4863  1.8565 -1.0931
 2303TIP3   OH228467   2.361   0.758   0.364  0.2535 -0.6267 -0.5446
 2303TIP3    H128468   2.331   0.705   0.291 -1.3454  2.9314 -2.7683
 2303TIP3    H228469   2.431   0.813   0.327 -0.9743  1.6602  0.3047
 2304TIP3   OH228470   5.553   2.472   1.445  0.1872  0.0634 -0.5512
 2304TIP3    H128471   5.493   2.512   1.508  0.8259 -0.5303  0.4642
 2304TIP3    H228472   5.633   2.524   1.453  0.5062 -0.4524 -0.3504
 2305TIP3   OH228473   0.622   0.370   7.188  0.7485 -0.3525  0.4046
 2305TIP3    H128474   0.543   0.396   7.236  1.6057  0.2978  1.5071
 2305TIP3    H228475   0.608   0.405   7.100 -0.5228 -0.9228  0.3515
 2306TIP3   OH228476   5.912   5.316   1.402  0.4328 -0.0339  0.3222
 2306TIP3    H128477   5.935   5.403   1.436  1.3249 -0.1287 -0.0184
 2306TIP3    H228478   5.962   5.307   1.322  1.8085 -1.5887  1.2891
 2307TIP3   OH228479   3.980   1.763   2.285  0.1661  0.0842  0.0270
 2307TIP3    H128480   3.987   1.680   2.237 -0.7655  0.2716 -0.4432
 2307TIP3    H228481   4.001   1.739   2.375  0.1622 -0.6169 -0.1479
 2308TIP3   OH228482   0.353   3.297   2.476 -0.1054  0.1712 -0.3998
 2308TIP3    H128483   0.258   3.292   2.467 -0.1230 -2.9203  0.3714
 2308TIP3    H228484   0.367   3.330   2.565 -0.5428 -0.9674  0.1175
 2309TIP3   OH228485   1.673   1.610   2.395 -0.0064  0.3761 -0.1646
 2309TIP3    H128486   1.741   1.647   2.339 -1.2667  1.6809 -0.9146
 2309TIP3    H228487   1.670   1.668   2.471  0.7020 -0.5446  0.5931
 2310TIP3   OH228488   6.291   4.017   2.026  0.5637  0.1121 -0.4880
 2310TIP3    H128489   6.325   4.021   1.936 -0.1997  2.3280 -0.7481
 2310TIP3    H228490   6.370   4.016   2.080  1.0417 -1.4766 -1.1289
 2311TIP3   OH228491   3.475   6.427   2.508  0.4786  0.1028  0.2520
 2311TIP3    H128492   3.569   6.436   2.490  0.2976  1.1336 -0.2062
 2311TIP3    H228493   3.471   6.402   2.600  1.1012  3.5926  1.3700
 2312TIP3   OH228494   1.982   3.571   0.896  0.5475 -0.2332  0.3217
 2312TIP3    H128495   1.988   3.646   0.955  0.8113 -1.2156  1.5742
 2312TIP3    H228496   1.892   3.541   0.904  0.3162  0.1897 -0.5168
 2313TIP3   OH228497   4.524   1.249   7.987  0.2052 -0.2524  0.0737
 2313TIP3    H128498   4.542   1.248   7.893  1.5906  0.3508  0.3046
 2313TIP3    H228499   4.494   1.339   8.005  0.3757 -0.2331  0.2730
 2314TIP3   OH228500   3.557   4.863   8.163  0.2312  0.3354  0.0085
 2314TIP3    H128501   3.544   4.775   8.128 -1.1733  1.0515 -1.4276
 2314TIP3    H228502   3.468   4.900   8.168  0.8926  2.2515 -1.1276
 2315TIP3   OH228503   0.048   3.776   7.881  0.0281 -0.4229 -0.1221
 2315TIP3    H128504  -0.031   3.826   7.863 -1.2649 -2.6332 -0.9470
 2315TIP3    H228505   0.083   3.753   7.794  0.3781 -1.2251  0.2132
 2316TIP3   OH228506   4.711   0.873   0.886 -0.4497  0.5312  0.1084
 2316TIP3    H128507   4.732   0.788   0.925 -0.4369  0.2312 -0.5355
 2316TIP3    H228508   4.718   0.935   0.958  0.4695  0.1223  0.3853
 2317TIP3   OH228509   4.992   6.539   2.593 -1.0225 -0.7115  0.3434
 2317TIP3    H128510   4.931   6.605   2.626  0.1605  0.8210 -0.4348
 2317TIP3    H228511   5.028   6.498   2.672 -1.6169 -0.3096  0.8364
 2318TIP3   OH228512   1.185   3.531   0.506 -0.0059 -0.2539  0.1257
 2318TIP3    H128513   1.095   3.538   0.475 -0.4134 -0.5857  1.2083
 2318TIP3    H228514   1.181   3.556   0.598  0.7824 -1.5325  0.5218
 2319TIP3   OH228515   0.417   6.805   8.599 -0.1280  1.1057  0.3915
 2319TIP3    H128516   0.511   6.809   8.613 -0.3341  2.3568  1.6888
 2319TIP3    H228517   0.390   6.723   8.640  0.7435 -0.9979 -2.8375
 2320TIP3   OH228518   2.492   3.654   1.028 -0.0138  1.0960 -0.1654
 2320TIP3    H128519   2.465   3.654   1.120 -0.3658 -2.7290 -0.0873
 2320TIP3    H228520   2.430   3.712   0.984 -0.5701  2.0803  1.8339
 2321TIP3   OH228521   4.370   3.810   2.058  0.0873  0.0059  0.3860
 2321TIP3    H128522   4.317   3.889   2.064 -0.9387 -0.5434 -0.9636
 2321TIP3    H228523   4.356   3.764   2.141  2.8654  2.4546  2.4540
 2322TIP3   OH228524   5.471   3.006   7.402  0.0558  0.2735 -0.3417
 2322TIP3    H128525   5.540   3.064   7.434  1.0138 -2.1191  2.3286
 2322TIP3    H228526   5.511   2.919   7.403 -2.4605 -0.9696 -0.4654
 2323TIP3   OH228527   4.039   2.845   8.416  0.2533  0.0655 -0.2042
 2323TIP3    H128528   4.093   2.790   8.360 -0.2953 -0.6764 -0.0133
 2323TIP3    H228529   4.078   2.933   8.408  1.6396 -0.4869  0.1243
 2324TIP3   OH228530   2.717   3.084   2.922 -0.0516  0.2451  0.0528
 2324TIP3    H128531   2.630   3.047   2.936 -0.1495  0.1580 -0.7634
 2324TIP3    H228532   2.700   3.173   2.891  0.1756  0.8035  1.4495
 2325TIP3   OH228533   4.262   4.570   8.033  0.2605  0.2906  0.6582
 2325TIP3    H128534   4.175   4.544   8.064 -0.6751  2.7693  0.4120
 2325TIP3    H228535   4.299   4.622   8.105  0.7632  0.7374  0.0903
 2326TIP3   OH228536   6.238   3.304   1.426 -0.0312  0.5757  0.0287
 2326TIP3    H128537   6.210   3.372   1.365  1.9418  0.6962 -0.8245
 2326TIP3    H228538   6.253   3.351   1.508 -1.4524  0.6351  0.2822
 2327TIP3   OH228539   3.901   2.181   2.487 -0.1182 -0.1954 -0.2182
 2327TIP3    H128540   3.964   2.253   2.497  2.0748 -1.8411 -1.1348
 2327TIP3    H228541   3.917   2.124   2.563  1.3869 -1.8830 -1.6906
 2328TIP3   OH228542   5.204   1.546   7.973  0.6617 -0.1281 -0.8750
 2328TIP3    H128543   5.219   1.453   7.989 -1.0080 -0.6804 -2.1582
 2328TIP3    H228544   5.292   1.585   7.977  1.3043 -1.5772  0.5451
 2329TIP3   OH228545   1.672   6.559   0.969 -0.1763 -0.2340  0.2365
 2329TIP3    H128546   1.706   6.585   1.055  0.2554  1.1136 -0.3202
 2329TIP3    H228547   1.644   6.468   0.982  1.5662 -0.6853  1.3256
 2330TIP3   OH228548   6.160   3.946   1.171  0.4838  0.0152  0.5000
 2330TIP3    H128549   6.163   4.009   1.098 -1.7490  0.1418  0.4535
 2330TIP3    H228550   6.133   3.999   1.246 -1.7398 -0.8883  0.3936
 2331TIP3   OH228551   2.646   0.783   0.657  0.0073 -0.1233 -0.0865
 2331TIP3    H128552   2.681   0.858   0.705 -1.0007  0.5570 -0.3932
 2331TIP3    H228553   2.658   0.709   0.716 -0.7367  0.6053  1.0014
 2332TIP3   OH228554   1.883   1.977   0.014 -0.0323  0.2129  0.7485
 2332TIP3    H128555   1.910   2.035  -0.057 -0.3142  1.8843  1.9470
 2332TIP3    H228556   1.890   2.030   0.093 -1.1257 -1.1342  1.8156
 2333TIP3   OH228557   6.696   2.247   7.952  0.2097  0.3984 -0.2958
 2333TIP3    H128558   6.640   2.204   8.016  0.9763 -0.2496 -0.0375
 2333TIP3    H228559   6.728   2.326   7.997  0.9059 -0.1577  0.2154
 2334TIP3   OH228560   4.486   3.415   7.452 -0.3978  0.4396 -0.1761
 2334TIP3    H128561   4.544   3.421   7.376 -0.4451  0.9193 -0.1785
 2334TIP3    H228562   4.497   3.325   7.484 -2.5921 -0.8043 -2.4968
 2335TIP3   OH228563   4.482   2.297   0.627 -0.2009 -0.9511 -0.1925
 2335TIP3    H128564   4.430   2.331   0.554 -0.6538 -1.7550 -0.2598
 2335TIP3    H228565   4.435   2.219   0.655 -0.5397 -0.1634  1.5649
 2336TIP3   OH228566   2.570   0.429   0.986 -0.2237  0.0052  0.7611
 2336TIP3    H128567   2.567   0.361   1.054 -0.7354 -0.5727  0.1739
 2336TIP3    H228568   2.533   0.386   0.908 -3.0856  1.6940  1.0488
 2337TIP3   OH228569   2.430   4.988   0.639  0.1454  0.2984  0.3449
 2337TIP3    H128570   2.483   5.068   0.645  0.2160  0.3223 -0.4889
 2337TIP3    H228571   2.369   4.995   0.713 -1.1481  2.0856 -0.8060
 2338TIP3   OH228572   5.026   5.963   8.664 -0.1475 -0.2187 -0.4489
 2338TIP3    H128573   4.969   5.998   8.596  0.6616  1.5112 -0.2946
 2338TIP3    H228574   5.039   6.036   8.725 -0.4750 -1.5685  1.3435
 2339TIP3   OH228575   1.488   4.645   1.384  0.0439 -0.4884 -0.1967
 2339TIP3    H128576   1.526   4.619   1.467 -0.7471 -0.1726  0.2821
 2339TIP3    H228577   1.519   4.580   1.321 -1.0109 -1.9746  0.7474
 2340TIP3   OH228578   4.480   5.657   8.038 -0.8009  0.6132 -0.1130
 2340TIP3    H128579   4.469   5.672   7.944 -1.9270 -0.5686 -0.1930
 2340TIP3    H228580   4.523   5.572   8.044 -1.9777  0.0273  0.4354
 2341TIP3   OH228581   3.588   0.401   8.550  0.6299  0.3828 -1.1060
 2341TIP3    H128582   3.626   0.475   8.502 -0.2363  0.0011 -2.4567
 2341TIP3    H228583   3.513   0.438   8.596  0.5375  0.4717 -1.3225
 2342TIP3   OH228584   6.100   4.877   1.221 -0.0407 -0.3150  0.2068
 2342TIP3    H128585   6.094   4.847   1.131 -0.1290  2.3081 -0.7429
 2342TIP3    H228586   6.180   4.931   1.223  0.3017 -0.8240  1.8662
 2343TIP3   OH228587   1.677   2.657   1.575  0.3093  0.5261  0.6093
 2343TIP3    H128588   1.688   2.748   1.603 -0.7470  1.2963 -1.2581
 2343TIP3    H228589   1.761   2.615   1.593  1.2576  2.2330  0.3286
 2344TIP3   OH228590   4.977   4.510   8.776  0.1138  0.5948 -0.2239
 2344TIP3    H128591   4.908   4.577   8.773  0.9089  1.3992 -1.2798
 2344TIP3    H228592   5.050   4.553   8.821  0.4291  0.2392 -0.3938
 2345TIP3   OH228593   3.489   0.986   1.880  0.0233  0.4448 -0.0485
 2345TIP3    H128594   3.572   0.989   1.928 -0.1087 -2.4625  0.5823
 2345TIP3    H228595   3.492   0.903   1.833 -2.1914  0.6567 -0.6579
 2346TIP3   OH228596   5.064   5.705   7.039 -0.8575 -0.4950 -0.3033
 2346TIP3    H128597   5.150   5.718   7.079 -0.9582 -0.6747 -0.0207
 2346TIP3    H228598   5.059   5.611   7.023 -1.3886 -0.6388  0.6000
 2347TIP3   OH228599   5.167   2.993   8.799  0.0599 -0.5279 -0.1591
 2347TIP3    H128600   5.225   2.994   8.875  0.4537 -0.9226 -0.4479
 2347TIP3    H228601   5.225   3.007   8.724 -0.5605  1.8238 -0.2622
 2348TIP3   OH228602   5.012   1.548   7.675 -1.0277  0.6390 -0.0843
 2348TIP3    H128603   4.940   1.487   7.659 -0.2313 -0.3393 -0.0158
 2348TIP3    H228604   5.022   1.549   7.770  0.5677 -1.0704 -0.1905
 2349TIP3   OH228605   1.298   2.189   1.610 -0.2005  0.5761  0.5854
 2349TIP3    H128606   1.264   2.106   1.578  2.0449 -0.4699  0.6819
 2349TIP3    H228607   1.315   2.174   1.703 -0.6277  1.4659  0.8186
 2350TIP3   OH228608   5.623   5.224   2.254 -0.5948  0.4183 -0.0285
 2350TIP3    H128609   5.670   5.268   2.325 -0.0202 -0.4689  0.1600
 2350TIP3    H228610   5.560   5.168   2.299 -0.3410 -0.0229 -0.2194
 2351TIP3   OH228611   4.762   3.414   1.072 -0.8972  0.2352  0.3968
 2351TIP3    H128612   4.801   3.452   0.994 -0.9077 -0.8200 -0.1341
 2351TIP3    H228613   4.832   3.364   1.113 -1.4972 -1.1794 -0.2419
 2352TIP3   OH228614   5.183   6.509   1.577 -0.3876 -0.1853  0.0023
 2352TIP3    H128615   5.173   6.414   1.576 -0.3098 -0.2470 -2.6302
 2352TIP3    H228616   5.253   6.527   1.515 -0.8805  1.6307 -0.0933
 2353TIP3   OH228617   0.717   2.459   8.483 -0.4462 -0.3320  0.1327
 2353TIP3    H128618   0.787   2.514   8.517 -0.7406 -0.0731  0.3180
 2353TIP3    H228619   0.682   2.414   8.560  0.7972 -1.9686 -0.1831
 2354TIP3   OH228620   6.673   3.958   7.848  0.0633 -0.3669 -0.0481
 2354TIP3    H128621   6.645   3.989   7.762  1.6974  3.0074  0.4752
 2354TIP3    H228622   6.606   3.991   7.908  0.5118 -0.0134  0.2649
 2355TIP3   OH228623   1.396   2.769   1.768 -0.1137  0.0649  0.3088
 2355TIP3    H128624   1.374   2.677   1.754  0.7852 -0.5740  2.5416
 2355TIP3    H228625   1.340   2.796   1.842  1.0483  0.6773  0.9998
 2356TIP3   OH228626   3.442   5.519   8.532 -0.4718 -0.3123  0.3694
 2356TIP3    H128627   3.459   5.603   8.488 -2.5192 -0.3859 -0.7199
 2356TIP3    H228628   3.503   5.458   8.491 -1.1042  0.0199 -1.1503
 2357TIP3   OH228629   5.848   2.554   7.388 -0.6318  0.2184 -0.0733
 2357TIP3    H128630   5.818   2.500   7.315 -0.2349  1.7382 -1.4203
 2357TIP3    H228631   5.889   2.630   7.346  0.9664  0.4255  1.7136
 2358TIP3   OH228632   5.442   0.301   1.200  0.5545 -0.3159  0.0072
 2358TIP3    H128633   5.406   0.250   1.273 -0.3799 -1.1929 -1.0252
 2358TIP3    H228634   5.407   0.258   1.122 -0.7743  2.2417 -0.9386
 2359TIP3   OH228635   4.837   1.349   1.309  0.6559 -0.1651 -0.4299
 2359TIP3    H128636   4.823   1.435   1.350  0.8628  0.3498 -1.4028
 2359TIP3    H228637   4.753   1.304   1.319  0.1245  0.6565 -1.0506
 2360TIP3   OH228638   6.225   1.206   2.845 -0.0566  0.4162  0.5126
 2360TIP3    H128639   6.212   1.301   2.850 -1.9335  0.2424 -0.2902
 2360TIP3    H228640   6.184   1.181   2.762  2.2385 -0.8493 -0.3462
 2361TIP3   OH228641   3.668   6.324   8.208  0.1744 -1.0836 -0.0683
 2361TIP3    H128642   3.635   6.339   8.119  0.5604  0.0286 -0.0369
 2361TIP3    H228643   3.606   6.261   8.246  0.0287 -1.6076 -1.1285
 2362TIP3   OH228644   3.245   6.580   7.227 -0.3522  0.1281  0.4117
 2362TIP3    H128645   3.242   6.538   7.141 -0.9271 -1.5547  1.2155
 2362TIP3    H228646   3.176   6.646   7.223 -0.5111 -0.0678 -0.3468
 2363TIP3   OH228647   6.333   1.151   0.809  0.2007  0.4757 -0.0488
 2363TIP3    H128648   6.282   1.079   0.845  0.1771  0.0881 -0.8225
 2363TIP3    H228649   6.377   1.113   0.733 -2.4158  2.0201 -2.5277
 2364TIP3   OH228650   5.674   3.489   7.253 -1.0978  0.4570  0.6500
 2364TIP3    H128651   5.581   3.469   7.255 -0.8508 -0.8596  0.0443
 2364TIP3    H228652   5.679   3.579   7.221 -2.0894 -0.1250 -1.2749
 2365TIP3   OH228653   0.824   4.583   1.198  0.6440 -0.4671  0.1214
 2365TIP3    H128654   0.880   4.647   1.154 -2.0929  1.1834 -1.2264
 2365TIP3    H228655   0.765   4.551   1.130 -1.6014 -0.3193  1.8802
 2366TIP3   OH228656   0.293   2.049   1.196  0.3615 -0.2372 -1.0766
 2366TIP3    H128657   0.322   2.103   1.123 -0.4578  0.7128 -0.7187
 2366TIP3    H228658   0.247   2.110   1.254  0.6554 -1.0418  0.0407
 2367TIP3   OH228659   5.698   5.019   1.222  0.7358 -0.8055  0.2483
 2367TIP3    H128660   5.699   5.031   1.317 -0.8539 -0.2044  0.2158
 2367TIP3    H228661   5.706   4.925   1.209  0.3148 -0.9501  0.9983
 2368TIP3   OH228662   1.390   4.002   0.910 -0.0949 -0.2516  0.0402
 2368TIP3    H128663   1.348   3.934   0.857  0.2605  0.9208 -1.8120
 2368TIP3    H228664   1.338   4.081   0.895  1.1273  0.5542 -0.0772
 2369TIP3   OH228665   0.581   0.880   0.882  0.1951  0.7139  0.8916
 2369TIP3    H128666   0.676   0.880   0.891  0.2000  0.6933  0.8384
 2369TIP3    H228667   0.554   0.793   0.913  0.3203  0.1653 -0.4732
 2370TIP3   OH228668   4.176   3.671   1.343 -0.3786  0.0620 -0.2440
 2370TIP3    H128669   4.258   3.708   1.374  0.0078 -1.1944  0.3081
 2370TIP3    H228670   4.166   3.705   1.254  0.8619  0.0451 -0.4083
 2371TIP3   OH228671   6.625   6.455   2.403  0.0004 -0.0274 -0.0848
 2371TIP3    H128672   6.571   6.454   2.482 -0.6391 -0.3055 -0.5186
 2371TIP3    H228673   6.663   6.368   2.399 -0.4253 -0.2072 -0.3819
 2372TIP3   OH228674   3.702   0.473   1.625  0.7733  0.2454  0.1708
 2372TIP3    H128675   3.649   0.536   1.674 -1.2004 -0.6158 -0.7276
 2372TIP3    H228676   3.746   0.526   1.558  1.7808  1.0967  1.4350
 2373TIP3   OH228677   3.761   2.360   1.508 -0.0653  0.3814  0.4635
 2373TIP3    H128678   3.685   2.408   1.476 -0.2400  0.1537  0.5304
 2373TIP3    H228679   3.758   2.372   1.603 -1.8874 -2.2543  0.8701
 2374TIP3   OH228680   5.197   6.104   0.931  0.1574 -0.2656  0.4391
 2374TIP3    H128681   5.172   6.092   0.840 -0.4736 -0.3194  0.6160
 2374TIP3    H228682   5.289   6.078   0.934  0.1409 -0.4052 -0.1509
 2375TIP3   OH228683   0.498   3.688   1.989  0.9216 -0.2017  0.5812
 2375TIP3    H128684   0.492   3.643   2.073  1.3243 -0.4220  0.4935
 2375TIP3    H228685   0.535   3.774   2.011 -0.5994  0.4171  0.8583
 2376TIP3   OH228686   3.686   0.591   8.374 -0.1396 -0.6143  0.1097
 2376TIP3    H128687   3.738   0.568   8.297  1.2637 -0.2203  0.9031
 2376TIP3    H228688   3.725   0.673   8.406 -1.0248 -0.5005  0.9351
 2377TIP3   OH228689   0.077   1.873   8.328  0.1814 -0.4599 -0.0199
 2377TIP3    H128690   0.056   1.872   8.235 -1.3579  0.2337  0.2874
 2377TIP3    H228691   0.073   1.781   8.354 -0.5096 -0.5476 -0.4113
 2378TIP3   OH228692   5.160   1.162   2.226 -0.0898  0.1848 -0.1380
 2378TIP3    H128693   5.160   1.250   2.189  0.5165  0.0956 -0.3778
 2378TIP3    H228694   5.203   1.108   2.159  4.8532  0.6986  2.1684
 2379TIP3   OH228695   6.747   1.488   7.616  0.0884 -0.4274 -0.2240
 2379TIP3    H128696   6.840   1.463   7.611  0.0624 -0.2993 -2.5150
 2379TIP3    H228697   6.706   1.441   7.544 -1.7157 -0.6974  0.9363
 2380TIP3   OH228698   2.731   3.824   0.360  0.1902  0.0098 -0.0419
 2380TIP3    H128699   2.644   3.783   0.366  0.0616  0.4697  1.7927
 2380TIP3    H228700   2.735   3.858   0.271 -1.8501  0.6627  0.0588
 2381TIP3   OH228701   1.325   6.627   1.828 -0.3158 -0.3171  0.2637
 2381TIP3    H128702   1.357   6.717   1.821  1.6486 -0.8779  1.3770
 2381TIP3    H228703   1.269   6.628   1.906  0.6762 -0.3029  0.9902
 2382TIP3   OH228704   0.177   5.550   2.246 -0.6106 -0.0856  0.4455
 2382TIP3    H128705   0.236   5.494   2.297  0.6661 -1.5073 -2.3017
 2382TIP3    H228706   0.123   5.488   2.196  0.4544  1.0142 -2.2853
 2383TIP3   OH228707   3.105   4.508   8.593  0.3269  0.4193 -0.2286
 2383TIP3    H128708   3.133   4.459   8.670 -2.0325  2.3298  2.0317
 2383TIP3    H228709   3.167   4.580   8.587  0.6251  0.1641 -0.2241
 2384TIP3   OH228710   5.325   4.910   1.755  0.1193 -0.5309 -0.3743
 2384TIP3    H128711   5.265   4.887   1.826 -1.4085 -0.9617 -1.7350
 2384TIP3    H228712   5.396   4.846   1.761  0.0854 -0.4783  0.8112
 2385TIP3   OH228713   4.546   2.225   8.025  0.5512  0.0388 -0.4537
 2385TIP3    H128714   4.469   2.280   8.018  0.1249 -0.5801 -0.7092
 2385TIP3    H228715   4.512   2.136   8.020  1.3117 -0.2342 -0.8698
 2386TIP3   OH228716   0.148   4.314   7.023 -0.2607  0.0403  0.0797
 2386TIP3    H128717   0.203   4.336   6.948 -0.2822  1.4572  0.4527
 2386TIP3    H228718   0.135   4.220   7.016  1.6239 -0.2158 -0.3994
 2387TIP3   OH228719   1.601   4.234   2.331 -0.2543  0.3826  0.1053
 2387TIP3    H128720   1.672   4.215   2.392 -0.6085  0.3876  0.5316
 2387TIP3    H228721   1.642   4.236   2.245  0.2292  0.2246  0.3301
 2388TIP3   OH228722   0.241   0.152   8.760 -0.1743 -0.0390  0.9498
 2388TIP3    H128723   0.267   0.244   8.767 -1.2478  0.2788  0.9698
 2388TIP3    H228724   0.301   0.116   8.695  0.9762  0.3881  1.7353
 2389TIP3   OH228725   0.251   2.929   1.869 -0.5706  0.1227 -0.6039
 2389TIP3    H128726   0.248   2.836   1.889 -2.0368  0.0528 -1.0763
 2389TIP3    H228727   0.229   2.972   1.952  1.1074  0.1140 -0.1171
 2390TIP3   OH228728   5.033   3.512   7.995 -0.1478  0.3049  0.1757
 2390TIP3    H128729   4.947   3.488   7.960  0.5896 -2.4770  0.1047
 2390TIP3    H228730   5.067   3.577   7.933 -1.3935  0.0109 -0.8469
 2391TIP3   OH228731   2.225   6.357   1.036  0.3925 -0.2081  0.4511
 2391TIP3    H128732   2.206   6.346   0.943  3.0403  1.0051 -0.3224
 2391TIP3    H228733   2.283   6.433   1.041  1.1186 -0.8075  2.9910
 2392TIP3   OH228734   5.598   3.894   8.715  0.0582  0.0980 -0.0976
 2392TIP3    H128735   5.576   3.832   8.645 -1.6372 -0.6189  1.0123
 2392TIP3    H228736   5.653   3.960   8.671  0.9971 -1.5429 -1.5634
 2393TIP3   OH228737   0.624   3.598   0.652 -0.0888  0.3278 -0.2464
 2393TIP3    H128738   0.710   3.639   0.654  0.2558 -0.3906  0.5142
 2393TIP3    H228739   0.598   3.594   0.744 -0.4860 -0.3693 -0.3846
 2394TIP3   OH228740   5.087   6.423   3.073 -0.6671  0.6192 -0.4347
 2394TIP3    H128741   5.180   6.430   3.097 -0.9441  1.8721  0.3266
 2394TIP3    H228742   5.088   6.391   2.983  0.5590  2.2641 -1.0461
 2395TIP3   OH228743   5.984   3.826   2.049  0.1673 -0.2563 -0.4606
 2395TIP3    H128744   5.889   3.812   2.055 -0.2229  2.0729 -0.0339
 2395TIP3    H228745   6.009   3.787   1.965 -1.1252 -1.0599 -0.5013
 2396TIP3   OH228746   1.648   2.700   7.123 -0.1212 -0.2328 -0.2070
 2396TIP3    H128747   1.620   2.788   7.095 -0.0862 -0.2124 -0.1777
 2396TIP3    H228748   1.704   2.716   7.199  0.1398 -0.2610 -0.3926
 2397TIP3   OH228749   0.180   4.981   2.827  0.1541 -0.2893  0.8762
 2397TIP3    H128750   0.244   4.920   2.862 -0.1948 -1.0320  0.2764
 2397TIP3    H228751   0.159   5.039   2.899  1.0597 -0.4063  1.2437
 2398TIP3   OH228752   3.576   0.296   0.525 -0.6907  0.1763 -0.0430
 2398TIP3    H128753   3.559   0.358   0.597 -0.5354  0.0086  0.1387
 2398TIP3    H228754   3.500   0.307   0.467 -1.1497 -0.1584  0.4815
 2399TIP3   OH228755   0.572   5.726   8.557  0.1473 -0.5255 -0.3894
 2399TIP3    H128756   0.555   5.798   8.496  0.3461  1.0780  1.3653
 2399TIP3    H228757   0.666   5.708   8.547 -0.2211 -1.7707 -2.0533
 2400TIP3   OH228758   5.220   6.362   8.266  0.0109 -0.4819  0.0245
 2400TIP3    H128759   5.131   6.328   8.274 -0.0549  0.1038  2.4677
 2400TIP3    H228760   5.234   6.411   8.347  1.8207  1.2280 -1.2458
 2401TIP3   OH228761   0.144   0.451   6.794 -0.0813  0.3816 -0.0043
 2401TIP3    H128762   0.061   0.491   6.770  0.0417  0.3368 -0.5227
 2401TIP3    H228763   0.121   0.384   6.858 -0.4548  0.3051 -0.2140
 2402TIP3   OH228764   1.086   0.730   7.354 -0.6807  0.1981  0.2618
 2402TIP3    H128765   1.131   0.759   7.434 -1.1905  0.0393  0.6091
 2402TIP3    H228766   1.111   0.795   7.288 -0.6403  0.6000  0.6673
 2403TIP3   OH228767   4.089   2.999   0.948 -0.2678  0.1528 -0.2251
 2403TIP3    H128768   4.073   2.966   1.036 -0.9263 -0.8097 -0.6907
 2403TIP3    H228769   4.014   2.968   0.897 -0.0520  0.9660 -1.0552
 2404TIP3   OH228770   5.697   5.306   0.355 -0.6175  0.3535  0.7934
 2404TIP3    H128771   5.759   5.248   0.312  0.2188  1.4536  0.4623
 2404TIP3    H228772   5.611   5.267   0.337 -0.0100 -1.5682  1.8574
 2405TIP3   OH228773   5.807   1.054   1.849 -0.2761  0.0747 -0.4250
 2405TIP3    H128774   5.714   1.038   1.832 -0.6217  2.1235 -0.7181
 2405TIP3    H228775   5.836   1.108   1.776  1.1835 -0.5600 -0.3593
 2406TIP3   OH228776   3.242   5.370   2.229 -0.2618 -0.0839 -0.2934
 2406TIP3    H128777   3.152   5.359   2.201 -0.7024 -0.2247  1.1000
 2406TIP3    H228778   3.256   5.465   2.228 -0.9263  0.0508  0.8930
 2407TIP3   OH228779   1.979   5.053   7.923  0.3906 -0.1406 -0.2765
 2407TIP3    H128780   1.896   5.010   7.944 -0.0408 -0.0201 -1.6269
 2407TIP3    H228781   2.019   5.071   8.008 -1.0538 -0.0234  0.4136
 2408TIP3   OH228782   6.795   0.581   8.726  0.0211 -0.4830 -0.1204
 2408TIP3    H128783   6.890   0.591   8.725 -0.0341  0.0199 -0.3624
 2408TIP3    H228784   6.778   0.508   8.667  0.3826 -1.7218  1.2397
 2409TIP3   OH228785   6.146   5.675   0.007  0.1034  0.0652 -0.2765
 2409TIP3    H128786   6.092   5.723  -0.055  0.3827  1.0173  0.1850
 2409TIP3    H228787   6.137   5.584  -0.018 -0.6863  0.3303 -1.0015
 2410TIP3   OH228788   4.374   5.325   8.683 -0.1570  0.2460 -0.4694
 2410TIP3    H128789   4.466   5.313   8.705 -0.6676  0.6421  2.2199
 2410TIP3    H228790   4.341   5.236   8.669  0.6582  0.1198 -1.6627
 2411TIP3   OH228791   6.601   0.898   8.730 -0.1120  0.4251 -0.3251
 2411TIP3    H128792   6.670   0.922   8.668 -1.0561 -0.0846 -1.6171
 2411TIP3    H228793   6.572   0.982   8.766  1.2497  0.6425  0.3541
 2412TIP3   OH228794   4.202   4.903   8.260 -0.7570  0.5266  0.1006
 2412TIP3    H128795   4.166   4.934   8.343  1.8391  1.4454  0.9846
 2412TIP3    H228796   4.130   4.855   8.219 -2.2865  0.4593  2.6371
 2413TIP3   OH228797   4.540   5.980   8.390  0.1502  0.0976  0.4497
 2413TIP3    H128798   4.514   5.910   8.451  0.4241  0.3755  0.8962
 2413TIP3    H228799   4.587   5.935   8.320  1.3373 -0.0565  1.3178
 2414TIP3   OH228800   2.050   4.321   7.561 -0.7889  0.3569  0.0148
 2414TIP3    H128801   2.069   4.403   7.516 -1.1742  0.6332  0.3500
 2414TIP3    H228802   2.033   4.258   7.491  0.9607  0.1903 -0.2886
 2415TIP3   OH228803   2.594   3.405   1.002 -0.0495 -0.0499  0.2817
 2415TIP3    H128804   2.674   3.390   1.052  0.0428  1.9689  0.8579
 2415TIP3    H228805   2.580   3.500   1.008 -0.5792  0.1788 -2.7376
 2416TIP3   OH228806   6.803   3.770   0.533 -0.3394 -0.4503  0.2940
 2416TIP3    H128807   6.833   3.753   0.443  0.6875 -0.6349  0.6562
 2416TIP3    H228808   6.813   3.686   0.578  0.5524 -0.0164  0.9473
 2417TIP3   OH228809   1.527   2.020   8.095  0.6970 -0.1750  0.3915
 2417TIP3    H128810   1.493   1.932   8.083  1.4006 -0.3232 -0.6083
 2417TIP3    H228811   1.453   2.077   8.075  0.7892 -0.5074 -0.9551
 2418TIP3   OH228812   0.963   5.493   8.450  0.3763 -0.2283 -0.2947
 2418TIP3    H128813   0.909   5.569   8.470 -2.0699 -1.8943 -0.0696
 2418TIP3    H228814   0.989   5.458   8.536 -1.1858 -1.3739 -0.2446
 2419TIP3   OH228815   5.972   0.273   2.426 -0.0601 -0.3750 -0.1718
 2419TIP3    H128816   5.929   0.359   2.432 -0.1917 -0.3816 -0.8537
 2419TIP3    H228817   5.920   0.226   2.361  0.4898 -0.6847 -0.3923
 2420TIP3   OH228818   0.195   2.889   0.971  0.1162 -0.5365  0.0020
 2420TIP3    H128819   0.172   2.957   1.034  1.1310 -0.4157  0.2536
 2420TIP3    H228820   0.127   2.822   0.983 -1.3763  0.7642 -0.8277
 2421TIP3   OH228821   6.764   4.760   0.784 -0.1333 -0.5063  0.5103
 2421TIP3    H128822   6.852   4.767   0.748  0.2254  0.8571  1.5852
 2421TIP3    H228823   6.718   4.702   0.724  1.2073 -0.4409 -0.6143
 2422TIP3   OH228824   1.337   6.547   7.959 -0.2364  0.1016 -0.2709
 2422TIP3    H128825   1.308   6.456   7.960  0.6442 -0.2029 -0.7089
 2422TIP3    H228826   1.428   6.543   7.927  0.5289  0.9434  1.6158
 2423TIP3   OH228827   0.041   3.144   8.299 -0.1474  0.1098 -0.0360
 2423TIP3    H128828   0.045   3.215   8.234  0.7060 -0.8869 -1.1189
 2423TIP3    H228829   0.058   3.064   8.248  1.3795 -0.6365  1.5344
 2424TIP3   OH228830   4.029   0.926   8.244 -0.2449 -0.6024 -0.5395
 2424TIP3    H128831   4.002   0.988   8.311 -0.1953  0.8576 -1.8164
 2424TIP3    H228832   3.953   0.869   8.232 -0.6677 -0.1409 -0.0929
 2425TIP3   OH228833   6.533   0.661   2.874 -0.0947  0.1654  0.3144
 2425TIP3    H128834   6.543   0.739   2.928 -0.9685  1.2340 -0.9888
 2425TIP3    H228835   6.518   0.590   2.935  0.0305  1.1360  1.5022
 2426TIP3   OH228836   5.848   4.394   2.637 -0.0095 -0.3805  0.0986
 2426TIP3    H128837   5.753   4.390   2.651 -0.1066  0.4793 -0.2277
 2426TIP3    H228838   5.877   4.465   2.694  0.1995  0.3936 -0.9500
 2427TIP3   OH228839   3.880   0.696   7.951 -0.3553 -0.2272  0.1257
 2427TIP3    H128840   3.941   0.639   7.998 -1.0944 -0.5689  0.6861
 2427TIP3    H228841   3.919   0.705   7.864 -1.1001 -3.1195 -0.6295
 2428TIP3   OH228842   2.959   6.127   7.971  0.4118  0.4943 -0.2305
 2428TIP3    H128843   2.999   6.060   8.027 -0.7607  0.1596  0.2254
 2428TIP3    H228844   3.013   6.127   7.893  0.3433 -1.1213 -0.3138
 2429TIP3   OH228845   1.460   0.211   7.861 -0.1763  0.0560 -0.2753
 2429TIP3    H128846   1.523   0.261   7.810  2.4322 -2.1005  0.6143
 2429TIP3    H228847   1.477   0.120   7.837 -2.9144 -0.6552  0.1324
 2430TIP3   OH228848   6.321   6.062   0.076  0.7674 -0.5934  0.2641
 2430TIP3    H128849   6.379   6.005   0.026  2.4780  1.1017  0.1967
 2430TIP3    H228850   6.375   6.094   0.148 -1.0545 -1.3865  2.0904
 2431TIP3   OH228851   4.073   0.487   1.943 -0.3444 -0.1269  0.6597
 2431TIP3    H128852   4.021   0.440   1.878  1.1556 -1.5102  0.3712
 2431TIP3    H228853   4.133   0.421   1.977  1.7804  1.5285  0.3502
 2432TIP3   OH228854   3.548   1.548   2.763 -0.1546  0.0608  0.0062
 2432TIP3    H128855   3.474   1.582   2.814  1.2051 -0.5533  2.5473
 2432TIP3    H228856   3.624   1.565   2.818  1.1368 -2.8468 -0.7018
 2433TIP3   OH228857   1.477   5.934   6.676  0.9249  0.2824  0.3178
 2433TIP3    H128858   1.526   5.918   6.757 -0.2176 -0.5980  0.8723
 2433TIP3    H228859   1.475   5.849   6.632 -0.2047  0.2610  0.3785
 2434TIP3   OH228860   4.715   2.206   7.176 -0.1513 -0.0790  0.6447
 2434TIP3    H128861   4.656   2.226   7.249 -1.8173 -2.5329  0.1241
 2434TIP3    H228862   4.674   2.247   7.100  0.1832  0.3065  0.6698
 2435TIP3   OH228863   6.438   0.872   8.260  0.5824 -0.7421  0.0022
 2435TIP3    H128864   6.359   0.826   8.230  1.0536 -0.1016 -2.4630
 2435TIP3    H228865   6.405   0.955   8.295  0.0637 -1.0439  0.2471
 2436TIP3   OH228866   1.996   3.015   1.185 -0.0694 -0.2058  0.2559
 2436TIP3    H128867   2.023   3.091   1.237 -0.6596 -0.3664  0.8056
 2436TIP3    H228868   2.069   3.001   1.124  0.4837  0.1961  0.8135
 2437TIP3   OH228869   5.549   6.293   1.378 -0.0404 -0.3134  0.3961
 2437TIP3    H128870   5.599   6.228   1.330 -0.7668 -1.3184  0.9686
 2437TIP3    H228871   5.550   6.263   1.469  0.7665  1.2107  0.9354
 2438TIP3   OH228872   3.967   5.971   0.216  0.0108  0.6346  0.6759
 2438TIP3    H128873   3.878   5.938   0.211 -0.1233  1.0626  0.1004
 2438TIP3    H228874   4.019   5.895   0.243 -0.5703  0.4733  1.3658
 2439TIP3   OH228875   5.593   4.211   0.958 -0.2522 -0.0936 -0.7201
 2439TIP3    H128876   5.520   4.238   1.012 -0.6718 -2.4711  0.0228
 2439TIP3    H228877   5.554   4.189   0.873 -0.4232 -1.2294 -0.3662
 2440TIP3   OH228878   5.526   4.911   0.401  0.2899 -0.2658  0.1127
 2440TIP3    H128879   5.579   4.840   0.436  1.2962  0.6783  0.5736
 2440TIP3    H228880   5.558   4.924   0.312  0.1479 -0.3427  0.0494
 2441TIP3   OH228881   4.937   3.859   2.600 -0.2629  0.8130 -0.5902
 2441TIP3    H128882   4.991   3.925   2.557  0.9061  0.5096  0.3695
 2441TIP3    H228883   4.935   3.885   2.692  0.1650 -0.4430 -0.2116
 2442TIP3   OH228884   1.995   6.001   7.673  0.6834 -0.1182  0.0455
 2442TIP3    H128885   2.044   6.039   7.747  1.7241 -2.4471  0.6530
 2442TIP3    H228886   1.903   6.009   7.699  0.7063  3.0393 -0.4649
 2443TIP3   OH228887   3.207   3.716   0.809 -0.5017 -0.0027  0.3643
 2443TIP3    H128888   3.233   3.756   0.892  0.5074  0.8879 -0.3608
 2443TIP3    H228889   3.265   3.756   0.744 -0.0798 -1.9591 -0.5351
 2444TIP3   OH228890   5.636   1.677   0.906  0.5302  0.0915 -0.7669
 2444TIP3    H128891   5.721   1.720   0.902 -0.1363  2.2385  3.2291
 2444TIP3    H228892   5.652   1.595   0.953  0.2632  1.4797  1.9466
 2445TIP3   OH228893   5.243   4.119   2.896  0.0926 -0.2666 -0.4291
 2445TIP3    H128894   5.325   4.071   2.882  0.5840  0.4889 -0.2177
 2445TIP3    H228895   5.258   4.168   2.977 -0.7595 -0.4984 -0.1265
 2446TIP3   OH228896   5.633   1.343   7.684 -0.5873 -0.2858 -0.3090
 2446TIP3    H128897   5.550   1.349   7.637 -0.6348  0.7536 -0.1271
 2446TIP3    H228898   5.620   1.398   7.761 -0.3981 -1.7066  0.7744
 2447TIP3   OH228899   1.835   1.667   8.212 -0.1296  0.3404  0.3469
 2447TIP3    H128900   1.910   1.608   8.203 -0.5364 -0.3762  1.4324
 2447TIP3    H228901   1.782   1.628   8.282  0.0026  2.4031  1.6882
 2448TIP3   OH228902   6.574   3.092   1.699 -0.1396 -0.2725  0.7362
 2448TIP3    H128903   6.608   3.110   1.612 -1.9437  0.9840  0.2263
 2448TIP3    H228904   6.651   3.088   1.755  1.1241 -1.8444 -0.9948
 2449TIP3   OH228905   4.668   1.069   1.800 -0.2212 -0.4283 -0.1782
 2449TIP3    H128906   4.627   1.020   1.872  0.4081 -1.5492 -0.5644
 2449TIP3    H228907   4.595   1.091   1.742 -0.7318  0.4516  0.7490
 2450TIP3   OH228908   0.648   0.288   8.367  0.5389 -0.1436 -0.4063
 2450TIP3    H128909   0.605   0.287   8.282 -1.0779 -0.3610  0.3787
 2450TIP3    H228910   0.690   0.203   8.375  1.1939  0.0951 -1.2107
 2451TIP3   OH228911   3.999   1.341   8.165  0.0420  0.0088 -0.3164
 2451TIP3    H128912   4.083   1.323   8.121  0.8449  0.6677  0.8857
 2451TIP3    H228913   4.022   1.400   8.237 -1.4962  0.3321 -0.0611
 2452TIP3   OH228914   2.012   4.106   6.820 -0.6440 -0.3815  0.0414
 2452TIP3    H128915   2.082   4.094   6.756 -1.4564 -0.8361 -0.7976
 2452TIP3    H228916   2.019   4.030   6.878  0.7585  0.5655  1.1891
 2453TIP3   OH228917   2.251   6.148   8.139  0.2392  0.8455  0.0319
 2453TIP3    H128918   2.346   6.153   8.134  0.4951 -2.0367  0.2652
 2453TIP3    H228919   2.231   6.171   8.230  0.7760  0.8362  0.1584
 2454TIP3   OH228920   5.964   5.601   0.759 -0.3901  0.4076  0.3452
 2454TIP3    H128921   5.914   5.529   0.721 -0.7167  1.0905 -0.5595
 2454TIP3    H228922   5.920   5.680   0.726  0.1928  1.0160  1.0065
 2455TIP3   OH228923   1.558   5.456   8.118  0.7161 -1.0276 -0.1110
 2455TIP3    H128924   1.516   5.402   8.051  2.1242 -0.6195 -1.3879
 2455TIP3    H228925   1.627   5.503   8.070  1.3590 -0.2513  1.5217
 2456TIP3   OH228926   2.629   3.351   1.358 -0.5055  0.5480  0.5147
 2456TIP3    H128927   2.713   3.368   1.401 -0.8403  3.1932  0.3247
 2456TIP3    H228928   2.647   3.281   1.296  1.4903  0.8453  0.6921
 2457TIP3   OH228929   5.412   5.341   2.529  0.0613  0.2051  0.3600
 2457TIP3    H128930   5.412   5.261   2.477  1.0393  0.9584 -0.8640
 2457TIP3    H228931   5.432   5.312   2.618 -0.9196 -1.0344  0.2076
 2458TIP3   OH228932   6.784   0.608   1.660 -0.0110  0.1414  0.7174
 2458TIP3    H128933   6.722   0.655   1.604 -2.6820 -1.8243  1.7725
 2458TIP3    H228934   6.802   0.668   1.732 -0.8340  0.7386  0.4365
 2459TIP3   OH228935   0.149   6.549   1.581  0.1070 -0.2151  0.1390
 2459TIP3    H128936   0.235   6.589   1.599  0.1957 -0.5984  0.5938
 2459TIP3    H228937   0.107   6.609   1.520  0.9404 -0.3260 -0.5686
 2460TIP3   OH228938   2.365   5.452   2.359 -1.0443 -0.2919  0.8377
 2460TIP3    H128939   2.418   5.462   2.437  0.8150  1.0163 -0.5002
 2460TIP3    H228940   2.300   5.522   2.365  0.1078  0.8455  0.4891
 2461TIP3   OH228941   5.507   4.685   1.725 -0.2172 -0.1519  0.9919
 2461TIP3    H128942   5.457   4.603   1.728  0.7142 -0.7412  0.8037
 2461TIP3    H228943   5.580   4.666   1.667  1.4650 -0.0419  2.9597
 2462TIP3   OH228944   3.810   2.959   8.557  0.4731  0.2245  0.0444
 2462TIP3    H128945   3.766   2.881   8.592 -0.1563  0.1464 -0.8938
 2462TIP3    H228946   3.893   2.926   8.524 -0.4942 -0.4153 -1.9214
 2463TIP3   OH228947   3.863   0.359   1.821  0.4770 -0.7723  0.3189
 2463TIP3    H128948   3.861   0.284   1.762  1.3285  0.1568 -0.9399
 2463TIP3    H228949   3.781   0.406   1.801  0.3209 -0.9448  0.5473
 2464TIP3   OH228950   1.076   0.018   0.101 -0.5029  0.4679 -0.0144
 2464TIP3    H128951   1.089  -0.005   0.193 -3.7998  1.2769  0.8068
 2464TIP3    H228952   1.008  -0.042   0.071 -2.4992  2.8221 -0.5913
 2465TIP3   OH228953   1.155   5.289   0.717 -0.4756  0.1449 -0.2388
 2465TIP3    H128954   1.137   5.380   0.741 -0.1565  0.6062 -1.7084
 2465TIP3    H228955   1.209   5.294   0.639  0.3380 -1.3116  0.1807
 2466TIP3   OH228956   4.585   2.783   0.454  0.0207 -0.1143  0.0554
 2466TIP3    H128957   4.576   2.689   0.443  1.3539 -0.1734 -0.7944
 2466TIP3    H228958   4.543   2.802   0.539 -2.8754 -0.9863 -1.0620
 2467TIP3   OH228959   1.476   5.142   0.734  0.1647 -0.4996  0.1782
 2467TIP3    H128960   1.549   5.142   0.796  0.3257 -0.4002 -0.0096
 2467TIP3    H228961   1.406   5.190   0.779  0.8987  1.2241 -0.4340
 2468TIP3   OH228962   4.353   4.169   7.964  0.0508 -0.1337  0.2444
 2468TIP3    H128963   4.309   4.145   7.882  1.2947 -0.3249 -0.3972
 2468TIP3    H228964   4.282   4.197   8.022 -0.8012  0.7145 -1.1369
 2469TIP3   OH228965   1.006   2.697   7.882  0.0794 -0.0758 -0.3058
 2469TIP3    H128966   0.996   2.778   7.832  0.3805 -0.2877 -0.7140
 2469TIP3    H228967   1.042   2.634   7.819  2.4624  0.2099  0.6684
 2470TIP3   OH228968   1.766   5.901   8.337 -0.5998 -0.5571  0.4539
 2470TIP3    H128969   1.677   5.888   8.304 -0.3756 -2.6158  0.5213
 2470TIP3    H228970   1.820   5.909   8.259 -0.6534 -0.9474  0.3722
 2471TIP3   OH228971   1.979   2.498   2.934 -0.0854  0.2895 -0.5367
 2471TIP3    H128972   1.951   2.409   2.916 -1.1181  0.7258 -1.1689
 2471TIP3    H228973   1.899   2.551   2.926  0.4228  1.2125  0.2479
 2472TIP3   OH228974   5.809   4.797   8.543  0.4240 -0.4448 -0.0551
 2472TIP3    H128975   5.904   4.783   8.543  0.6335  0.6616  1.6084
 2472TIP3    H228976   5.777   4.746   8.618 -0.1889 -0.1453 -0.1060
 2473TIP3   OH228977   6.311   5.094   8.354 -0.3096 -0.0533  0.0744
 2473TIP3    H128978   6.393   5.087   8.306 -0.2397  1.7749 -0.1228
 2473TIP3    H228979   6.337   5.100   8.446 -0.2539  0.0525  0.0516
 2474TIP3   OH228980   2.060   3.836   2.799  0.0166  0.4785 -0.0568
 2474TIP3    H128981   2.106   3.765   2.843 -1.2039  0.5438  1.4431
 2474TIP3    H228982   2.101   3.916   2.833 -0.4998  0.5180  0.4940
 2475TIP3   OH228983   1.142   5.932   1.959 -0.4653 -0.0740  0.3016
 2475TIP3    H128984   1.119   5.909   2.049 -0.1746 -0.4220  0.2944
 2475TIP3    H228985   1.216   5.993   1.967 -0.3709 -0.1865  0.2995
 2476TIP3   OH228986   3.993   2.382   0.349  0.0920  0.1557 -0.3352
 2476TIP3    H128987   4.049   2.375   0.427 -0.6445  0.6036  0.2493
 2476TIP3    H228988   3.911   2.340   0.375  0.0610 -0.2739 -1.1020
 2477TIP3   OH228989   2.140   3.967   0.640 -0.5943 -0.1205  0.5447
 2477TIP3    H128990   2.176   3.879   0.635  2.7199  1.1311 -0.7632
 2477TIP3    H228991   2.189   4.008   0.711 -0.7653  1.1595 -0.0489
 2478TIP3   OH228992   1.831   6.303   7.932  0.3676 -0.1749 -0.5090
 2478TIP3    H128993   1.852   6.218   7.894 -0.5660 -0.5054 -0.2990
 2478TIP3    H228994   1.848   6.366   7.862 -0.3977 -0.6842 -1.1622
 2479TIP3   OH228995   3.953   3.894   0.047 -0.7940  0.0223  0.5328
 2479TIP3    H128996   3.872   3.909  -0.001  0.0213 -0.9911 -1.2923
 2479TIP3    H228997   3.960   3.798   0.053  1.5556 -0.0941 -1.9099
 2480TIP3   OH228998   0.222   1.021   0.853 -0.4262  0.2479  0.0558
 2480TIP3    H128999   0.243   1.109   0.822 -2.9947  0.5452 -1.1208
 2480TIP3    H229000   0.253   1.020   0.944 -0.3502  2.3783  0.1135
 2481TIP3   OH229001   5.789   5.416   7.455 -0.2645  0.0131  0.1844
 2481TIP3    H129002   5.839   5.349   7.408  0.0738  0.3947 -0.0088
 2481TIP3    H229003   5.737   5.459   7.387  1.4505  1.6790 -0.1877
 2482TIP3   OH229004   1.105   4.107   0.435 -0.1842  0.0398 -0.8200
 2482TIP3    H129005   1.173   4.041   0.448 -0.3331 -0.4564 -2.3567
 2482TIP3    H229006   1.148   4.190   0.452  0.8273 -0.2612 -1.8362
 2483TIP3   OH229007   3.712   5.997   0.031  0.3846 -0.3373 -0.1905
 2483TIP3    H129008   3.771   6.023  -0.040 -0.5382 -1.4083 -1.4078
 2483TIP3    H229009   3.680   5.910   0.005 -1.2243 -0.0690  0.7447
 2484TIP3   OH229010   3.513   3.035   7.448 -0.1753  0.3494 -0.0786
 2484TIP3    H129011   3.590   2.979   7.449 -0.2958  0.1278  2.2806
 2484TIP3    H229012   3.440   2.976   7.432 -0.2551 -0.1641  1.9572
 2485TIP3   OH229013   6.295   1.446   7.953 -0.2693  0.9713  0.0135
 2485TIP3    H129014   6.247   1.469   7.874  0.9592  0.5215 -0.9068
 2485TIP3    H229015   6.229   1.411   8.013 -0.8877 -1.2029 -1.8258
 2486TIP3   OH229016   6.461   6.165   7.096 -0.2744  0.8376  0.2726
 2486TIP3    H129017   6.460   6.184   7.002  0.9313 -0.0891  0.0465
 2486TIP3    H229018   6.375   6.127   7.113  0.5636 -1.9188 -1.1373
 2487TIP3   OH229019   4.925   1.773   1.978  0.2279 -0.4878 -0.3079
 2487TIP3    H129020   4.972   1.711   2.034  0.1191 -0.9102 -0.6727
 2487TIP3    H229021   4.894   1.841   2.038  0.1984 -0.8786  0.1328
 2488TIP3   OH229022   4.267   3.217   1.817 -0.3532  0.0263 -0.4480
 2488TIP3    H129023   4.255   3.128   1.851 -0.2756  0.1791 -0.0199
 2488TIP3    H229024   4.312   3.264   1.887 -0.5360  0.4483 -0.6088
 2489TIP3   OH229025   2.968   6.621   1.281  0.1672  0.3553 -0.4294
 2489TIP3    H129026   3.027   6.609   1.355  1.5360  2.0039 -1.1910
 2489TIP3    H229027   3.021   6.601   1.204 -0.9937 -0.5245 -1.0282
 2490TIP3   OH229028   2.705   6.019   2.001  0.1527 -0.6705  0.0397
 2490TIP3    H129029   2.704   6.089   1.935  1.2133 -0.9712 -0.3273
 2490TIP3    H229030   2.635   6.042   2.062 -1.5650 -0.9559 -1.7590
 2491TIP3   OH229031   5.685   6.557   2.307 -0.0566 -0.7621 -0.2626
 2491TIP3    H129032   5.658   6.634   2.358  1.2749 -1.5886  1.8440
 2491TIP3    H229033   5.645   6.570   2.221 -0.9082  1.6446  0.4031
 2492TIP3   OH229034   6.552   3.281   7.978 -0.3085  0.5879  0.1403
 2492TIP3    H129035   6.554   3.344   7.906 -0.8134  0.7873  0.2962
 2492TIP3    H229036   6.527   3.334   8.054  2.5240  0.9085  0.9950
 2493TIP3   OH229037   4.739   0.865   1.601  0.2138  0.0675 -0.0438
 2493TIP3    H129038   4.817   0.845   1.653  0.4925 -0.1360 -0.5339
 2493TIP3    H229039   4.711   0.951   1.632  1.5323  0.8502 -0.9140
 2494TIP3   OH229040   1.248   1.450   1.550  0.3992  0.2505 -0.0257
 2494TIP3    H129041   1.334   1.433   1.588  0.7075 -1.0754 -1.2261
 2494TIP3    H229042   1.259   1.534   1.505  0.9701  0.2450  0.0937
 2495TIP3   OH229043   4.455   3.475   8.763  0.5998  0.7636  0.3004
 2495TIP3    H129044   4.532   3.524   8.790  0.9999  1.3875 -1.7699
 2495TIP3    H229045   4.486   3.419   8.692 -0.9399  1.5113 -1.0303
 2496TIP3   OH229046   4.459   1.305   7.423  0.1078  0.1541  0.2816
 2496TIP3    H129047   4.368   1.334   7.418  0.1847  0.3686  0.1080
 2496TIP3    H229048   4.496   1.329   7.339  0.5049  0.6828  0.5987
 2497TIP3   OH229049   0.620   3.600   1.327 -0.0717 -0.8966  0.1180
 2497TIP3    H129050   0.645   3.594   1.419  0.2519 -0.9294  0.0284
 2497TIP3    H229051   0.539   3.652   1.328 -0.3016 -1.2586  0.4547
 2498TIP3   OH229052   1.879   4.104   1.739 -0.4760  0.2597  0.4826
 2498TIP3    H129053   1.943   4.129   1.805  0.7031 -0.1176 -0.4811
 2498TIP3    H229054   1.931   4.085   1.660 -1.8661  1.2458 -0.7339
 2499TIP3   OH229055   2.228   4.434   1.148  0.3423 -0.1327 -0.2212
 2499TIP3    H129056   2.156   4.489   1.177 -0.7449 -1.8881  0.5780
 2499TIP3    H229057   2.233   4.447   1.054 -0.8023  0.2789 -0.2294
 2500TIP3   OH229058   0.207   3.967   1.490 -0.1258 -0.0980 -0.6103
 2500TIP3    H129059   0.117   3.986   1.519  0.0918 -0.3166  0.2117
 2500TIP3    H229060   0.205   3.874   1.468 -0.3917  0.1498 -1.7103
 2501TIP3   OH229061   4.454   1.204   2.905  0.1725 -0.3498  0.0827
 2501TIP3    H129062   4.542   1.241   2.893  0.3083 -0.9465 -0.8530
 2501TIP3    H229063   4.469   1.112   2.925 -0.2526 -1.1386 -2.7587
 2502TIP3   OH229064   0.989   3.114   2.231 -0.5712  0.6421  0.0660
 2502TIP3    H129065   0.971   3.178   2.299 -0.3639 -1.5909  2.3676
 2502TIP3    H229066   1.084   3.115   2.221 -0.6751  1.7720 -1.1027
 2503TIP3   OH229067   3.138   0.417   1.035  0.2510 -0.5827 -0.0053
 2503TIP3    H129068   3.130   0.321   1.032  2.9465 -1.0231  2.4979
 2503TIP3    H229069   3.186   0.434   1.116 -0.0616  2.9275 -0.4286
 2504TIP3   OH229070   2.592   5.695   7.648  0.5928  0.7462  0.0089
 2504TIP3    H129071   2.659   5.758   7.623  0.6285  0.0039 -1.9698
 2504TIP3    H229072   2.619   5.663   7.734  3.5306 -0.4675 -1.2469
 2505TIP3   OH229073   0.573   4.722   1.316  0.1148  0.0717 -0.6469
 2505TIP3    H129074   0.514   4.785   1.273 -0.1585 -0.6775 -1.3966
 2505TIP3    H229075   0.637   4.700   1.248  0.3076 -0.3342 -0.3304
 2506TIP3   OH229076   1.297   1.139   7.356  0.2396  0.1813  0.3519
 2506TIP3    H129077   1.205   1.146   7.381 -0.5520  3.2885 -2.5692
 2506TIP3    H229078   1.324   1.230   7.339  4.6257 -0.2781  3.1398
 2507TIP3   OH229079   3.015   6.419   2.916 -0.4108 -0.5540  0.2379
 2507TIP3    H129080   2.999   6.506   2.954 -0.4169 -0.3339 -0.2583
 2507TIP3    H229081   2.929   6.388   2.891 -0.7166 -1.6785  2.4391
 2508TIP3   OH229082   0.929   5.396   0.533  0.1429  0.0671  0.1745
 2508TIP3    H129083   0.975   5.406   0.616  0.7171  1.1857 -0.2544
 2508TIP3    H229084   0.836   5.394   0.557  0.3316 -0.4021  0.8964
 2509TIP3   OH229085   1.979   3.031   3.013  0.0077 -0.3624  0.1330
 2509TIP3    H129086   1.966   3.110   3.066 -0.2403  0.9716 -1.8213
 2509TIP3    H229087   2.071   3.036   2.985  0.2388 -1.2478  0.6881
 2510TIP3   OH229088   4.530   0.976   8.032 -0.3461 -0.2541  0.4581
 2510TIP3    H129089   4.539   1.066   7.999  1.2168 -1.0885 -1.6052
 2510TIP3    H229090   4.437   0.968   8.055 -0.4310  2.0042  1.1319
 2511TIP3   OH229091   1.754   3.066   8.506  0.4511 -0.6424 -0.5063
 2511TIP3    H129092   1.696   3.049   8.432 -2.7243 -0.6329  1.8283
 2511TIP3    H229093   1.770   2.981   8.545 -3.1569 -0.2000  2.3787
 2512TIP3   OH229094   4.788   5.878   2.599 -0.2723 -0.0380  0.0072
 2512TIP3    H129095   4.875   5.906   2.627 -1.0277  0.7609  1.7024
 2512TIP3    H229096   4.771   5.799   2.650 -0.5338 -0.1952 -0.3210
 2513TIP3   OH229097   4.586   0.637   0.102 -0.2155  0.5585  0.2756
 2513TIP3    H129098   4.550   0.571   0.161  2.6233 -2.7902 -1.3415
 2513TIP3    H229099   4.675   0.653   0.134 -0.0707  1.8900 -0.6910
 2514TIP3   OH229100   0.706   3.031   0.932  0.0091  0.5241 -0.2473
 2514TIP3    H129101   0.620   3.058   0.964 -0.3968 -1.9869  1.0567
 2514TIP3    H229102   0.751   2.999   1.010  1.1553 -0.5737 -1.3132
 2515TIP3   OH229103   3.078   1.338   2.563 -0.3179  0.1663 -0.1048
 2515TIP3    H129104   3.099   1.431   2.572  3.1662 -0.3409 -1.2392
 2515TIP3    H229105   3.143   1.294   2.616 -3.4288 -1.7197  2.4556
 2516TIP3   OH229106   3.077   1.025   8.161 -0.6026 -0.1034  0.1221
 2516TIP3    H129107   3.132   0.967   8.214 -0.6446  0.0189  0.3050
 2516TIP3    H229108   2.989   0.989   8.169 -0.9108  0.8732  1.5437
 2517TIP3   OH229109   3.958   3.523   1.420  0.1241 -0.7757 -0.7707
 2517TIP3    H129110   4.037   3.569   1.396  0.4174 -0.9916 -0.2382
 2517TIP3    H229111   3.970   3.500   1.513 -2.1507  2.5441  0.5465
 2518TIP3   OH229112   6.653   4.830   0.172 -0.1768  0.3880  0.7062
 2518TIP3    H129113   6.678   4.849   0.262 -0.5464  2.1645  0.4847
 2518TIP3    H229114   6.693   4.901   0.121 -0.2003 -0.4298 -0.4983
 2519TIP3   OH229115   2.027   4.198   2.782 -0.0267 -0.0081 -0.6121
 2519TIP3    H129116   1.979   4.203   2.865  0.1208  0.9265 -0.5729
 2519TIP3    H229117   2.091   4.128   2.796 -1.1086 -1.0114 -0.5304
 2520TIP3   OH229118   0.574   6.708   8.223  0.1870  0.2354  0.1362
 2520TIP3    H129119   0.535   6.787   8.186 -1.2396 -0.2252  0.6025
 2520TIP3    H229120   0.549   6.638   8.163  0.0327 -0.1143  0.5997
 2521TIP3   OH229121   5.641   5.635   0.708  0.0875 -0.5531 -0.1336
 2521TIP3    H129122   5.571   5.592   0.758  1.0416 -0.3765  1.4214
 2521TIP3    H229123   5.699   5.563   0.682  0.4931 -0.4764  0.5257
 2522TIP3   OH229124   0.369   2.395   2.346  0.0351 -0.1830 -0.2171
 2522TIP3    H129125   0.440   2.459   2.342  0.8353 -1.0752 -0.8867
 2522TIP3    H229126   0.371   2.363   2.436 -1.1946  1.6016  0.4809
 2523TIP3   OH229127   1.339   5.815   1.299 -0.2064  0.2406 -0.3796
 2523TIP3    H129128   1.403   5.884   1.278  0.5537 -0.4172 -0.2869
 2523TIP3    H229129   1.378   5.768   1.373 -0.9002 -0.0482 -0.1935
 2524TIP3   OH229130   1.178   1.674   0.306 -0.3618 -0.5756  0.1034
 2524TIP3    H129131   1.252   1.644   0.358 -0.0056  0.2930  0.1024
 2524TIP3    H229132   1.204   1.659   0.215  0.8816  2.0478 -0.0350
 2525TIP3   OH229133   2.076   1.554   8.429 -0.2590  0.3655  0.6232
 2525TIP3    H129134   2.041   1.626   8.482 -1.0640  0.1101  0.4621
 2525TIP3    H229135   2.087   1.482   8.491  2.4953  1.1797  1.2152
 2526TIP3   OH229136   5.636   6.162   2.176 -0.4537 -0.2733 -0.0072
 2526TIP3    H129137   5.699   6.209   2.231 -1.1744  0.4756  0.2011
 2526TIP3    H229138   5.686   6.089   2.139  0.2636 -0.3122  0.9890
 2527TIP3   OH229139   2.840   3.507   0.395  0.7284  0.3590  0.7461
 2527TIP3    H129140   2.931   3.535   0.395  1.6280 -2.2665 -0.6809
 2527TIP3    H229141   2.818   3.494   0.303 -0.6415 -0.3516  1.1382
 2528TIP3   OH229142   4.223   1.653   1.770 -0.2281  0.3951 -0.2191
 2528TIP3    H129143   4.291   1.720   1.763  1.9870 -1.8270 -2.2347
 2528TIP3    H229144   4.226   1.627   1.862  3.2298 -0.9346 -0.5297
 2529TIP3   OH229145   2.998   3.985   2.398  0.6053 -0.4641 -0.1708
 2529TIP3    H129146   3.063   3.915   2.409 -0.6574 -1.7702 -0.6509
 2529TIP3    H229147   2.964   4.001   2.486 -0.9421 -2.3655 -0.3477
 2530TIP3   OH229148   0.125   5.127   0.305  0.0637 -0.5986  0.3351
 2530TIP3    H129149   0.060   5.059   0.323  0.0417 -1.0729 -1.3998
 2530TIP3    H229150   0.187   5.087   0.245  0.5217  0.6567 -0.0700
 2531TIP3   OH229151   6.030   5.317   0.290 -0.3140  0.0695 -0.8870
 2531TIP3    H129152   5.968   5.288   0.223  2.7532 -0.8675 -3.6148
 2531TIP3    H229153   6.038   5.411   0.277 -2.0614  0.4388  0.4128
 2532TIP3   OH229154   4.287   6.067   8.696 -0.1686  0.1348  0.0339
 2532TIP3    H129155   4.214   6.123   8.668  0.3503 -0.1426 -2.0572
 2532TIP3    H229156   4.365   6.110   8.659  0.4492 -0.8465  0.1790
 2533TIP3   OH229157   0.656   5.983   0.000  0.1706  0.4819  0.1166
 2533TIP3    H129158   0.726   5.987  -0.064 -0.4477  0.7181 -0.5591
 2533TIP3    H229159   0.698   6.002   0.084  1.5865 -2.7930  0.2845
 2534TIP3   OH229160   4.993   5.396   0.356  0.3173  0.0616  0.1794
 2534TIP3    H129161   4.935   5.471   0.342  1.7532  1.0102 -1.0017
 2534TIP3    H229162   5.051   5.423   0.427  0.8044  0.0555 -0.2117
 2535TIP3   OH229163   3.943   2.483   7.222  0.2157  0.3718 -0.1397
 2535TIP3    H129164   3.993   2.534   7.158 -0.8351 -0.2959 -1.5491
 2535TIP3    H229165   3.852   2.493   7.194 -0.4949  1.4229  2.2661
 2536TIP3   OH229166   2.449   2.170   7.020  0.3462 -0.1365 -0.3025
 2536TIP3    H129167   2.524   2.222   7.047  0.5362 -0.0237 -1.0276
 2536TIP3    H229168   2.374   2.228   7.032  0.4277 -0.0862 -0.0298
 2537TIP3   OH229169   4.691   0.413   7.689  0.1099  0.4355 -0.1741
 2537TIP3    H129170   4.746   0.490   7.700  0.1674  0.4918 -0.8240
 2537TIP3    H229171   4.701   0.389   7.597  0.2160 -0.4419  0.0528
 2538TIP3   OH229172   4.281   0.179   6.841  0.4484 -0.1900  0.5673
 2538TIP3    H129173   4.236   0.099   6.868  0.1917 -0.6314 -1.0576
 2538TIP3    H229174   4.242   0.201   6.757  1.1051  1.1915  0.6022
 2539TIP3   OH229175   6.192   4.771   7.136 -0.0301 -0.2418 -0.0337
 2539TIP3    H129176   6.237   4.686   7.141  1.0746  0.1415 -2.3207
 2539TIP3    H229177   6.249   4.831   7.184  1.7229  0.1071 -2.3691
 2540TIP3   OH229178   3.119   6.387   0.836 -0.0724 -0.0398  0.2455
 2540TIP3    H129179   3.041   6.409   0.785 -0.3053 -3.3177 -1.0435
 2540TIP3    H229180   3.180   6.458   0.819 -1.0121  0.1747 -2.7935
 2541TIP3   OH229181   5.061   0.171   0.761 -0.1884 -0.4486  0.2799
 2541TIP3    H129182   5.096   0.234   0.823  0.2813 -1.6270  1.2565
 2541TIP3    H229183   4.969   0.163   0.784 -0.1792 -0.3525  0.3510
 2542TIP3   OH229184   0.083   4.443   1.647  0.8388 -0.6082  0.7705
 2542TIP3    H129185   0.108   4.397   1.727 -0.9601 -1.2300  1.0280
 2542TIP3    H229186   0.121   4.391   1.576 -0.5927 -2.1834  1.0912
 2543TIP3   OH229187   2.096   5.231   0.158 -0.0623 -0.1407  0.5131
 2543TIP3    H129188   2.069   5.154   0.208 -1.5478  0.1592  0.2099
 2543TIP3    H229189   2.018   5.257   0.109  0.4143  1.5495  0.5810
 2544TIP3   OH229190   3.067   0.704   0.349 -0.2922  0.6459 -0.5083
 2544TIP3    H129191   3.000   0.750   0.400  1.5651  1.0036  1.7750
 2544TIP3    H229192   3.060   0.613   0.376 -0.2831  0.5659 -0.7710
 2545TIP3   OH229193   2.219   4.376   0.887  0.5076 -0.6618  0.1431
 2545TIP3    H129194   2.246   4.289   0.859  0.2077 -0.9246  0.6435
 2545TIP3    H229195   2.163   4.408   0.817  2.0600 -0.1226 -0.8918
 2546TIP3   OH229196   1.347   3.812   1.276  0.6165 -0.0743 -0.3965
 2546TIP3    H129197   1.378   3.770   1.357  2.6304 -1.2465 -1.6804
 2546TIP3    H229198   1.419   3.870   1.251 -0.4997  1.1994 -0.7392
 2547TIP3   OH229199   6.219   0.346   1.313 -0.3589 -0.1456 -0.2312
 2547TIP3    H129200   6.129   0.332   1.284 -1.1862  2.6014  0.6994
 2547TIP3    H229201   6.215   0.424   1.369  2.1682 -1.5006  2.0901
 2548TIP3   OH229202   3.931   2.188   6.956  0.1067  0.3300 -0.2590
 2548TIP3    H129203   3.872   2.261   6.934 -0.2830  0.5326  1.3730
 2548TIP3    H229204   3.884   2.139   7.023  1.5759  0.1840  0.6996
 2549TIP3   OH229205   3.477   2.565   0.854 -0.2421  0.1466 -0.2065
 2549TIP3    H129206   3.478   2.564   0.949  0.6907 -0.0788 -0.2094
 2549TIP3    H229207   3.565   2.538   0.828  0.2418  2.3614 -1.1030
 2550TIP3   OH229208   3.845   1.842   1.560  0.0118 -0.2083  0.5362
 2550TIP3    H129209   3.887   1.879   1.483  0.4293 -0.3934  0.6764
 2550TIP3    H229210   3.896   1.874   1.634 -0.9676  0.7663  0.8066
 2551TIP3   OH229211   2.961   5.367   2.193 -0.4022 -0.3714  0.4992
 2551TIP3    H129212   2.957   5.459   2.220  1.5361  0.1988 -0.9460
 2551TIP3    H229213   2.921   5.366   2.107  0.8543 -0.5869 -0.1007
 2552TIP3   OH229214   5.481   5.464   8.086 -0.0284  0.5251 -0.7894
 2552TIP3    H129215   5.547   5.443   8.152  1.0279  0.4302 -1.8466
 2552TIP3    H229216   5.510   5.417   8.008 -1.6354  0.0700 -1.1353
 2553TIP3   OH229217   2.951   5.635   2.206  0.3374  0.1603  0.0764
 2553TIP3    H129218   2.981   5.639   2.297 -0.4330  1.2971  0.3012
 2553TIP3    H229219   2.870   5.685   2.205 -0.6638 -1.4159 -0.8773
 2554TIP3   OH229220   6.752   1.793   6.911  0.3488 -0.4101 -0.2562
 2554TIP3    H129221   6.786   1.878   6.940 -0.8984 -0.4429  1.4171
 2554TIP3    H229222   6.689   1.815   6.843  0.8906 -0.0884 -0.6673
 2555TIP3   OH229223   5.294   3.408   1.506  0.0322 -0.0354 -0.1189
 2555TIP3    H129224   5.343   3.428   1.426 -0.4880  2.4242  0.0792
 2555TIP3    H229225   5.203   3.405   1.479 -0.0458 -0.5091  0.1831
 2556TIP3   OH229226   1.849   0.345   1.403  0.0577  0.4195 -0.1111
 2556TIP3    H129227   1.849   0.362   1.309  0.0498  0.1785 -0.1556
 2556TIP3    H229228   1.793   0.268   1.413  0.6414  0.0070  0.0081
 2557TIP3   OH229229   5.238   0.991   6.719 -0.5794  0.5786 -0.1325
 2557TIP3    H129230   5.146   0.965   6.727 -0.4913  0.3129  0.0261
 2557TIP3    H229231   5.285   0.909   6.700 -0.7732  1.0966 -3.6336
 2558TIP3   OH229232   1.222   4.051   8.332  0.4601 -0.1430 -0.3049
 2558TIP3    H129233   1.127   4.060   8.324  0.3349 -0.5100  0.6359
 2558TIP3    H229234   1.243   3.971   8.284  0.2053 -0.3932 -0.0062
 2559TIP3   OH229235   4.087   2.885   2.621 -0.6378 -0.5188 -0.0460
 2559TIP3    H129236   4.117   2.921   2.705 -0.2206 -2.4600  0.6986
 2559TIP3    H229237   4.142   2.807   2.607  0.7947  0.8805 -3.2102
 2560TIP3   OH229238   2.496   1.071   2.695 -0.2310 -0.4828  0.0591
 2560TIP3    H129239   2.431   1.136   2.670 -1.5191 -1.6117  0.3094
 2560TIP3    H229240   2.568   1.083   2.633  0.0438  1.8178  0.7233
 2561TIP3   OH229241   4.831   0.111   1.858 -0.4988 -0.0800 -0.7980
 2561TIP3    H129242   4.871   0.194   1.885 -0.4133 -0.1523 -0.7026
 2561TIP3    H229243   4.791   0.077   1.938 -0.3037 -0.2623 -0.7776
 2562TIP3   OH229244   4.963   5.361   2.248 -0.1102  0.4770  1.0418
 2562TIP3    H129245   4.875   5.334   2.278 -0.4817  0.7906  0.2509
 2562TIP3    H229246   4.948   5.442   2.200  0.3980 -0.2506 -0.3917
 2563TIP3   OH229247   1.822   1.884   2.434  0.0592  0.2374  0.6948
 2563TIP3    H129248   1.903   1.836   2.449  0.5715  0.5405 -0.8811
 2563TIP3    H229249   1.760   1.848   2.498  1.3766 -0.1048  1.8185
 2564TIP3   OH229250   2.117   4.745   7.565 -0.5645  0.1499 -0.5339
 2564TIP3    H129251   2.023   4.731   7.580 -0.9887  3.3568  0.8327
 2564TIP3    H229252   2.143   4.805   7.636  2.1224  0.6784 -1.8438
 2565TIP3   OH229253   2.330   5.164   2.297 -0.2434  0.4332  0.2822
 2565TIP3    H129254   2.324   5.258   2.313  0.0537  0.6643 -0.9119
 2565TIP3    H229255   2.372   5.156   2.212 -1.9682 -0.7317 -0.5314
 2566TIP3   OH229256   3.978   4.723   7.617  0.1719 -0.4924  0.2146
 2566TIP3    H129257   3.914   4.737   7.687 -0.2774 -0.3635 -0.2221
 2566TIP3    H229258   4.016   4.810   7.603  0.3741 -0.5488  0.4026
 2567TIP3   OH229259   3.702   2.462   0.379 -0.0024 -0.2761 -0.0617
 2567TIP3    H129260   3.718   2.373   0.346 -0.6012 -0.0270 -1.0379
 2567TIP3    H229261   3.608   2.475   0.370  0.1576  0.6720 -0.4784
 2568TIP3   OH229262   3.089   4.950   7.914 -0.2728 -0.0285  0.2112
 2568TIP3    H129263   3.057   5.028   7.958 -1.5091  0.8303 -2.0295
 2568TIP3    H229264   3.011   4.893   7.908 -0.2204  0.0008 -1.0312
 2569TIP3   OH229265   5.274   6.639   2.433  0.1194  0.2711 -0.1111
 2569TIP3    H129266   5.227   6.721   2.446  2.4031  1.6319  0.1730
 2569TIP3    H229267   5.250   6.585   2.507 -2.6561 -0.0081 -1.1086
 2570TIP3   OH229268   2.307   6.464   1.384  0.3998  0.1919 -0.6529
 2570TIP3    H129269   2.302   6.557   1.363 -2.0317 -0.1530 -2.0209
 2570TIP3    H229270   2.286   6.458   1.477 -1.3593  0.9098 -0.9764
 2571TIP3   OH229271   1.277   2.489   7.750 -0.4396 -0.7023  0.1751
 2571TIP3    H129272   1.261   2.425   7.820  1.3056  0.2358  1.5140
 2571TIP3    H229273   1.193   2.495   7.704 -1.3142 -2.2254  1.4504
 2572TIP3   OH229274   0.306   0.292   7.601 -0.1623 -0.9237  0.2069
 2572TIP3    H129275   0.261   0.252   7.527 -1.1120 -1.3666  0.9926
 2572TIP3    H229276   0.264   0.254   7.678  1.2959 -1.0305  0.9860
 2573TIP3   OH229277   4.001   2.821   7.146  0.0271 -0.0264 -0.1550
 2573TIP3    H129278   4.085   2.776   7.151  0.0385  0.0821  0.8614
 2573TIP3    H229279   4.022   2.913   7.157 -0.3845 -0.1647  2.2448
 2574TIP3   OH229280   0.958   4.004   8.304  0.2939  0.1644  0.4414
 2574TIP3    H129281   0.895   4.050   8.249  2.3571  1.8044 -0.6891
 2574TIP3    H229282   0.938   3.911   8.291 -0.6392  0.5795 -1.4321
 2575TIP3   OH229283   1.719   2.669   1.867  0.4187  0.0163  0.2336
 2575TIP3    H129284   1.700   2.612   1.793  2.4645 -0.9074  0.3570
 2575TIP3    H229285   1.742   2.610   1.938 -1.9436  0.8584  1.8255
 2576TIP3   OH229286   4.063   6.374   0.060 -0.1299 -0.1924  0.2692
 2576TIP3    H129287   4.148   6.333   0.074 -0.3264 -0.5739  0.3280
 2576TIP3    H229288   4.074   6.463   0.093  0.5984  0.1181 -0.7578
 2577TIP3   OH229289   1.922   0.032   1.249  0.0070  0.3831  0.0052
 2577TIP3    H129290   1.967   0.116   1.252 -0.7165  0.8079 -0.4604
 2577TIP3    H229291   1.918   0.004   1.340  0.9718  0.4561  0.0768
 2578TIP3   OH229292   0.262   4.796   2.601 -0.5138  0.0997 -0.5306
 2578TIP3    H129293   0.256   4.862   2.670 -0.8891  0.4379 -0.8817
 2578TIP3    H229294   0.355   4.791   2.580 -0.4306  0.1813 -0.1807
 2579TIP3   OH229295   3.139   4.876   8.725 -0.5514  0.1049  0.4992
 2579TIP3    H129296   3.116   4.929   8.648  1.7406 -0.3608 -0.6097
 2579TIP3    H229297   3.056   4.865   8.772 -2.3908 -0.7776 -2.6249
 2580TIP3   OH229298   2.672   2.301   1.507  0.0189  0.8608 -0.2621
 2580TIP3    H129299   2.748   2.353   1.482 -0.2105  0.8609 -0.9804
 2580TIP3    H229300   2.699   2.257   1.588  1.3311 -0.2903 -1.2644
 2581TIP3   OH229301   5.528   5.470   8.556  0.3232 -0.2852 -0.0733
 2581TIP3    H129302   5.538   5.377   8.533  0.4346 -0.0613 -0.9869
 2581TIP3    H229303   5.557   5.517   8.477 -0.6950  0.5066  0.0067
 2582TIP3   OH229304   3.243   4.414   8.305  0.2531  0.0087  0.5241
 2582TIP3    H129305   3.277   4.325   8.307 -0.2880 -0.2127  0.0365
 2582TIP3    H229306   3.168   4.414   8.365 -0.0143  0.0209  0.1931
 2583TIP3   OH229307   0.255   5.089   2.011 -0.1955  0.3567 -0.3664
 2583TIP3    H129308   0.250   4.994   2.025  0.5041  0.7222  3.5679
 2583TIP3    H229309   0.252   5.100   1.916 -1.8383 -3.4728 -0.9278
 2584TIP3   OH229310   6.320   0.517   8.202  0.6578  0.4034  0.3927
 2584TIP3    H129311   6.409   0.551   8.195  0.6212  0.3074 -0.9784
 2584TIP3    H229312   6.264   0.592   8.182  0.3903  0.5961  1.7723
 2585TIP3   OH229313   2.676   1.952   1.986  0.3532  0.2616 -0.4311
 2585TIP3    H129314   2.752   1.974   2.040  0.1322 -1.5568  0.6932
 2585TIP3    H229315   2.707   1.885   1.926 -0.3144 -0.4272 -0.0246
 2586TIP3   OH229316   3.157   1.325   2.309  0.3575 -0.0734  0.0397
 2586TIP3    H129317   3.136   1.332   2.402  0.5419 -0.7790  0.1348
 2586TIP3    H229318   3.072   1.313   2.266  0.0328  2.2186 -0.1083
 2587TIP3   OH229319   0.997   5.938   1.459  0.2068 -0.3165  0.1493
 2587TIP3    H129320   1.040   6.023   1.464  0.4451 -0.4012 -0.4265
 2587TIP3    H229321   0.955   5.927   1.545 -0.1519  0.5456  0.0877
 2588TIP3   OH229322   3.984   4.283   1.878  0.1520  0.3516  0.2267
 2588TIP3    H129323   4.004   4.359   1.932 -1.0111  0.8827 -0.0669
 2588TIP3    H229324   3.892   4.293   1.855  0.6839  0.3176 -2.1381
 2589TIP3   OH229325   1.454   3.598   0.469 -0.0855  0.2441  0.1068
 2589TIP3    H129326   1.470   3.691   0.486 -0.9476  0.2981  0.7139
 2589TIP3    H229327   1.359   3.588   0.479 -0.0574 -0.6167 -0.3953
 2590TIP3   OH229328   0.586   5.574   2.264 -0.2294 -0.5913  0.2929
 2590TIP3    H129329   0.549   5.546   2.180 -0.1645 -0.0023  0.0655
 2590TIP3    H229330   0.628   5.658   2.245 -3.1445  1.3287  1.6164
 2591TIP3   OH229331   0.738   5.203   1.704  0.1396 -0.5726 -0.0396
 2591TIP3    H129332   0.657   5.195   1.753 -0.5615  0.0971 -1.0520
 2591TIP3    H229333   0.729   5.285   1.655  0.9257 -1.0614 -1.0534
 2592TIP3   OH229334   2.212   0.583   0.191  0.2114  0.0431  0.3269
 2592TIP3    H129335   2.213   0.490   0.215  1.5620  0.1985  0.9891
 2592TIP3    H229336   2.252   0.585   0.104  0.4386  0.0322  0.4310
 2593TIP3   OH229337   4.972   3.122   8.627  0.4685 -0.0777 -0.3222
 2593TIP3    H129338   4.916   3.189   8.666  2.2897  1.1149  0.3533
 2593TIP3    H229339   5.009   3.075   8.701  1.2031 -0.1418 -0.7240
 2594TIP3   OH229340   4.318   2.392   8.050  0.1684  0.4910 -0.2201
 2594TIP3    H129341   4.249   2.363   8.109  0.1204  1.8749  0.4423
 2594TIP3    H229342   4.272   2.414   7.969  0.2195 -1.2761 -0.7875
 2595TIP3   OH229343   2.858   2.586   8.225  0.3156  0.1108 -0.0382
 2595TIP3    H129344   2.945   2.547   8.228  1.2245  2.0043 -0.0051
 2595TIP3    H229345   2.802   2.524   8.271  2.3610  0.5516  3.3951
 2596TIP3   OH229346   2.386   0.078   0.539  0.0161  0.2769 -0.0940
 2596TIP3    H129347   2.300   0.043   0.561 -0.3442  1.4840  0.4895
 2596TIP3    H229348   2.442   0.050   0.612 -0.6245  2.1815  1.1877
 2597TIP3   OH229349   4.287   2.147   0.786  0.4491 -0.1780  0.6320
 2597TIP3    H129350   4.276   2.058   0.751 -0.6074 -0.0532  0.6056
 2597TIP3    H229351   4.297   2.135   0.880  1.2369 -0.3783  0.5307
 2598TIP3   OH229352   5.457   4.609   1.294 -0.0711  0.1054  0.1566
 2598TIP3    H129353   5.377   4.571   1.330  0.1885  0.8848  1.6507
 2598TIP3    H229354   5.527   4.576   1.351  1.0126 -2.1226 -2.2354
 2599TIP3   OH229355   1.882   1.947   7.713  0.4472  0.6077 -0.1475
 2599TIP3    H129356   1.819   1.981   7.777  0.6360  2.0260 -0.6706
 2599TIP3    H229357   1.839   1.871   7.675 -0.3531  0.7153  0.5084
 2600TIP3   OH229358   1.648   4.287   2.857 -0.1581  0.3100  0.7729
 2600TIP3    H129359   1.558   4.314   2.876  0.1853  0.4117  2.3819
 2600TIP3    H229360   1.642   4.245   2.771 -1.0978  3.3961 -0.8354
 2601TIP3   OH229361   3.470   5.909   2.184  0.0347 -0.5659 -0.5939
 2601TIP3    H129362   3.434   5.998   2.190  2.2309  0.4596 -1.1905
 2601TIP3    H229363   3.516   5.897   2.268  1.5499 -0.2073 -1.3259
 2602TIP3   OH229364   5.754   5.950   8.195  0.9817 -0.6220 -0.8525
 2602TIP3    H129365   5.794   5.914   8.116  1.1773 -0.3665 -0.8712
 2602TIP3    H229366   5.822   6.007   8.232  0.8613 -0.6826 -0.5445
 2603TIP3   OH229367   5.018   5.007   7.492  0.1381  0.4423  0.0142
 2603TIP3    H129368   5.044   4.915   7.483 -0.1404  0.2731  0.8674
 2603TIP3    H229369   4.950   5.018   7.425 -0.3219 -0.1690  0.3621
 2604TIP3   OH229370   0.156   5.498   0.869 -0.1822  0.9353  0.3508
 2604TIP3    H129371   0.175   5.513   0.962  0.7213  0.6842  0.2114
 2604TIP3    H229372   0.081   5.555   0.852  1.5831  3.5040  0.4698
 2605TIP3   OH229373   2.791   4.301   7.805  0.0729 -0.8025 -0.9698
 2605TIP3    H129374   2.754   4.213   7.798 -1.2343 -0.4840  1.0119
 2605TIP3    H229375   2.717   4.360   7.791  0.3621 -0.0940  0.3012
 2606TIP3   OH229376   5.202   1.070   7.457  0.0948  0.5407  0.3283
 2606TIP3    H129377   5.157   1.154   7.464 -0.6123  0.0358  2.3819
 2606TIP3    H229378   5.133   1.004   7.459  0.5600 -0.1545 -2.1327
 2607TIP3   OH229379   4.737   1.912   8.061  0.1183  0.1034  0.1987
 2607TIP3    H129380   4.822   1.917   8.017 -0.7366  0.2577 -1.5388
 2607TIP3    H229381   4.744   1.972   8.134  1.4596  0.2049  0.0118
 2608TIP3   OH229382   1.155   6.271   0.453 -0.1230  0.5150 -0.5939
 2608TIP3    H129383   1.235   6.237   0.412 -0.2907  0.8101 -1.1787
 2608TIP3    H229384   1.089   6.205   0.433  0.5372 -1.1606  2.2757
 2609TIP3   OH229385   2.085   3.897   3.387  0.3174  0.5068  0.5898
 2609TIP3    H129386   1.997   3.863   3.401  0.8649 -1.2622  0.0536
 2609TIP3    H229387   2.079   3.952   3.309 -0.0906 -0.6771 -0.2454
 2610TIP3   OH229388   3.659   1.748   7.240 -0.0604 -0.3709  0.0698
 2610TIP3    H129389   3.688   1.682   7.177 -0.9560 -0.2424 -0.5019
 2610TIP3    H229390   3.594   1.799   7.193  1.3820  1.6354  0.1562
 2611TIP3   OH229391   2.542   3.819   7.602 -0.3638 -0.3122 -0.1441
 2611TIP3    H129392   2.593   3.754   7.553 -0.1524 -0.2481 -0.0122
 2611TIP3    H229393   2.587   3.902   7.585 -1.7913  0.1541 -1.9689
 2612TIP3   OH229394   3.537   3.303   7.295 -0.2759  0.5863  0.5510
 2612TIP3    H129395   3.545   3.232   7.359 -1.3998  0.6695  0.8085
 2612TIP3    H229396   3.594   3.277   7.223 -0.5536 -0.5099  0.7111
 2613TIP3   OH229397   6.405   6.584   7.319  0.1125  0.3502 -0.0269
 2613TIP3    H129398   6.360   6.551   7.396  0.7776 -0.6811 -0.0657
 2613TIP3    H229399   6.439   6.506   7.275 -1.5420  0.7642 -2.2058
 2614TIP3   OH229400   1.949   4.036   8.136  0.0368  0.3940  0.4951
 2614TIP3    H129401   1.872   4.003   8.181  1.7742 -0.2081  3.3034
 2614TIP3    H229402   2.018   4.033   8.202  2.1554  2.2366 -1.4636
 2615TIP3   OH229403   5.269   2.781   1.611 -0.7252 -0.0615 -0.3900
 2615TIP3    H129404   5.334   2.711   1.620  0.1451  0.5284 -1.7423
 2615TIP3    H229405   5.218   2.757   1.534 -0.3728  0.8006 -0.9115
 2616TIP3   OH229406   1.011   0.892   2.301 -0.0560  0.0499  0.2238
 2616TIP3    H129407   1.063   0.850   2.370 -0.4388  1.0141  1.1108
 2616TIP3    H229408   0.980   0.973   2.339 -1.0950  0.1472 -0.7600
 2617TIP3   OH229409   6.450   0.167   0.649 -0.0962 -0.0273 -0.0339
 2617TIP3    H129410   6.454   0.075   0.673  1.3844  0.1469  0.4551
 2617TIP3    H229411   6.445   0.214   0.732 -1.8866  0.3339 -0.2918
 2618TIP3   OH229412   3.117   3.427   0.164  0.1347  0.0680  0.0048
 2618TIP3    H129413   3.088   3.404   0.252 -0.7720  2.1300  0.3157
 2618TIP3    H229414   3.037   3.452   0.118  0.6948 -0.2139 -1.1669
 2619TIP3   OH229415   2.610   5.683   1.518  0.4772  0.2183  0.0134
 2619TIP3    H129416   2.672   5.613   1.538 -0.0140  0.2724  1.9482
 2619TIP3    H229417   2.619   5.744   1.591 -2.5452 -0.2788  0.9493
 2620TIP3   OH229418   5.266   6.202   7.773  0.0955 -0.7124 -0.2237
 2620TIP3    H129419   5.340   6.247   7.733 -1.1589  1.6315 -0.1057
 2620TIP3    H229420   5.201   6.196   7.702 -1.0992  1.0134  0.6324
 2621TIP3   OH229421   3.259   6.382   2.295  0.1298  0.0460 -0.0966
 2621TIP3    H129422   3.311   6.398   2.373 -0.3226  0.6266  0.0969
 2621TIP3    H229423   3.172   6.359   2.328  0.2595 -0.9511 -0.4153
 2622TIP3   OH229424   6.575   3.357   2.816 -0.0559 -0.0430 -0.7729
 2622TIP3    H129425   6.622   3.440   2.822 -0.0514  0.0834 -2.2192
 2622TIP3    H229426   6.632   3.301   2.763 -1.6522  0.2693 -3.0000
 2623TIP3   OH229427   4.330   5.621   2.128  0.2873 -0.5105  0.0702
 2623TIP3    H129428   4.379   5.640   2.048  1.3561  2.8287  1.3371
 2623TIP3    H229429   4.251   5.674   2.120  0.4819 -0.0168  1.2359
 2624TIP3   OH229430   1.030   6.418   8.205  0.3379 -0.4047 -0.3604
 2624TIP3    H129431   1.113   6.397   8.163  0.4685 -0.6776  0.0229
 2624TIP3    H229432   0.963   6.389   8.143  0.5253 -1.2962 -0.1604
 2625TIP3   OH229433   3.856   0.252   0.585 -0.0556 -0.0623 -0.1837
 2625TIP3    H129434   3.845   0.159   0.562 -2.2268  0.1051 -0.0067
 2625TIP3    H229435   3.771   0.291   0.566  1.1560  2.1705 -1.3587
 2626TIP3   OH229436   5.210   1.776   0.079 -0.3325 -0.2659  0.5624
 2626TIP3    H129437   5.213   1.791  -0.015 -2.1126  1.2348  0.6810
 2626TIP3    H229438   5.168   1.691   0.089 -1.2657  0.1190 -0.0009
 2627TIP3   OH229439   2.131   1.031   2.743  0.1444 -0.4534 -0.0694
 2627TIP3    H129440   2.198   1.095   2.718  0.2002 -0.7540 -0.7182
 2627TIP3    H229441   2.093   1.066   2.823  0.5429  0.1205 -0.1257
 2628TIP3   OH229442   5.804   4.737   0.022 -0.5936 -0.4078 -0.5659
 2628TIP3    H129443   5.894   4.756   0.050  0.0671  0.7085 -3.1736
 2628TIP3    H229444   5.750   4.794   0.077  0.5788  1.2618 -1.0630
 2629TIP3   OH229445   4.392   0.520   8.332  0.5913  0.2354 -0.2123
 2629TIP3    H129446   4.371   0.449   8.271 -0.0435  0.6533 -0.4756
 2629TIP3    H229447   4.343   0.499   8.412 -1.0406  1.3276 -0.9007
 2630TIP3   OH229448   2.566   5.552   8.748  0.6024 -0.3526  0.0008
 2630TIP3    H129449   2.479   5.513   8.750  1.0386 -1.3762  0.0521
 2630TIP3    H229450   2.555   5.639   8.784 -0.4499 -0.3635 -0.2686
 2631TIP3   OH229451   6.713   6.453   7.093  0.1598 -0.0489  0.0443
 2631TIP3    H129452   6.755   6.446   7.007  0.8262  3.5204 -0.0995
 2631TIP3    H229453   6.620   6.445   7.075  0.2990  0.5405 -1.0294
 2632TIP3   OH229454   4.253   3.086   8.045  0.1094 -0.3488  0.0161
 2632TIP3    H129455   4.158   3.099   8.052  0.1141 -0.1561 -0.2576
 2632TIP3    H229456   4.266   3.055   7.956  0.5162  1.7584 -0.7352
 2633TIP3   OH229457   2.260   5.322   7.036  0.2672  0.3431 -0.1186
 2633TIP3    H129458   2.176   5.347   6.996 -0.2738  0.0946  0.8228
 2633TIP3    H229459   2.235   5.264   7.109  1.2911 -0.1314 -0.1335
 2634TIP3   OH229460   6.770   2.462   8.129 -0.4635  0.3690 -0.0281
 2634TIP3    H129461   6.850   2.442   8.177 -0.1141 -1.3162 -1.2642
 2634TIP3    H229462   6.764   2.558   8.132  0.5282  0.4103  1.7439
 2635TIP3   OH229463   0.959   1.399   8.586  0.4882  0.2445 -0.0604
 2635TIP3    H129464   1.016   1.462   8.542  0.1229  0.3117 -0.4408
 2635TIP3    H229465   0.894   1.453   8.631  0.4391  0.1557 -0.0254
 2636TIP3   OH229466   1.421   1.133   2.438  0.2869 -0.4190  1.0827
 2636TIP3    H129467   1.451   1.192   2.507  0.0916  0.8975  0.0608
 2636TIP3    H229468   1.497   1.119   2.383 -0.1348  0.3621  0.2887
 2637TIP3   OH229469   4.531   1.573   7.634 -0.0143 -0.2445 -0.1896
 2637TIP3    H129470   4.588   1.551   7.707 -0.6389 -1.2990  0.0040
 2637TIP3    H229471   4.461   1.507   7.637 -1.1499  0.8940 -0.5285
 2638TIP3   OH229472   4.044   3.497   2.538  0.1661  0.0148  0.5916
 2638TIP3    H129473   4.138   3.514   2.548  0.2358 -0.4351  0.7032
 2638TIP3    H229474   4.036   3.455   2.453  0.3331 -1.8403  1.4325
 2639TIP3   OH229475   1.114   1.845   0.990 -0.2963  0.5248 -0.2918
 2639TIP3    H129476   1.130   1.900   1.067 -1.3361  0.4908 -0.0392
 2639TIP3    H229477   1.030   1.875   0.956  0.4602  1.0059 -1.8349
 2640TIP3   OH229478   1.594   1.625   0.685 -0.0575  0.5558 -0.6009
 2640TIP3    H129479   1.614   1.702   0.739 -0.4396 -0.2838  0.7814
 2640TIP3    H229480   1.581   1.555   0.748 -0.7530 -0.4131 -1.7971
 2641TIP3   OH229481   6.241   4.258   2.581 -0.2999 -0.1199 -0.2279
 2641TIP3    H129482   6.177   4.228   2.645 -0.8593  2.3939  0.4639
 2641TIP3    H229483   6.295   4.322   2.628  0.3571  0.5495 -1.8077
 2642TIP3   OH229484   4.035   4.027   8.301  0.4781 -0.4005 -0.4351
 2642TIP3    H129485   4.015   4.102   8.356 -0.0285 -1.8992  1.5505
 2642TIP3    H229486   4.085   4.063   8.228 -0.6673  1.9882 -0.1450
 2643TIP3   OH229487   4.526   4.464   0.962  0.0827  0.2424  0.7498
 2643TIP3    H129488   4.439   4.462   1.001 -0.4826  2.1586 -0.2573
 2643TIP3    H229489   4.564   4.546   0.993  1.0079  0.0658  0.1236
 2644TIP3   OH229490   6.093   3.090   1.573  0.3839 -0.4111 -0.0361
 2644TIP3    H129491   6.132   3.173   1.546 -0.6932  0.2152  0.2844
 2644TIP3    H229492   6.167   3.038   1.605  0.8819  0.9593  1.1119
 2645TIP3   OH229493   6.389   4.875   0.157 -0.1230 -0.4779 -0.2110
 2645TIP3    H129494   6.363   4.788   0.186 -0.1990 -0.7708 -1.1378
 2645TIP3    H229495   6.485   4.873   0.157 -0.1259 -0.6744 -0.5512
 2646TIP3   OH229496   4.230   5.357   2.088  0.8767 -0.0123 -0.3402
 2646TIP3    H129497   4.263   5.444   2.112  0.0165  0.8568 -2.0756
 2646TIP3    H229498   4.277   5.336   2.007  0.9987 -1.1342  0.0108
 2647TIP3   OH229499   4.000   1.161   1.995  0.5304  0.4240  0.3483
 2647TIP3    H129500   3.968   1.168   2.085 -2.4588  0.8494 -0.6397
 2647TIP3    H229501   3.967   1.076   1.965  1.5236  0.2718 -0.3377
 2648TIP3   OH229502   6.365   5.557   8.578 -0.2214  0.7162  0.2509
 2648TIP3    H129503   6.411   5.573   8.496  1.8292 -1.1758  0.9400
 2648TIP3    H229504   6.431   5.568   8.646 -0.8656 -1.4237  1.3443
 2649TIP3   OH229505   6.154   6.615   2.742 -0.1449  0.3381 -0.3180
 2649TIP3    H129506   6.087   6.614   2.811 -1.6948 -0.8867 -1.7726
 2649TIP3    H229507   6.220   6.677   2.774 -1.3041  0.5814  1.7778
 2650TIP3   OH229508   0.966   4.009   0.739  0.0602 -0.0519 -0.0771
 2650TIP3    H129509   0.922   4.071   0.680  1.8800  1.7929  0.4119
 2650TIP3    H229510   0.989   4.061   0.816  1.8757 -1.2587  0.2578
 2651TIP3   OH229511   6.554   4.312   1.099 -0.4536 -0.0065 -0.3565
 2651TIP3    H129512   6.576   4.229   1.057  1.9752  0.9290 -1.0804
 2651TIP3    H229513   6.586   4.379   1.039 -1.7239  1.4880  0.5309
 2652TIP3   OH229514   6.194   4.275   2.964  0.3514  0.0265 -0.2035
 2652TIP3    H129515   6.197   4.200   2.904  0.9285 -0.1409  0.0230
 2652TIP3    H229516   6.147   4.241   3.040  1.2115 -0.3311  0.1844
 2653TIP3   OH229517   1.124   3.417   1.183 -0.4629 -0.0684 -0.1548
 2653TIP3    H129518   1.028   3.421   1.180 -0.4864 -0.3106  0.2179
 2653TIP3    H229519   1.152   3.477   1.115 -0.8521  2.1764  1.5502
 2654TIP3   OH229520   1.709   0.669   2.826 -0.3312 -0.3053 -0.4474
 2654TIP3    H129521   1.776   0.601   2.833  0.3594  0.4282  0.2059
 2654TIP3    H229522   1.686   0.690   2.917 -0.3040  0.5612 -0.6351
 2655TIP3   OH229523   1.207   4.432   8.723  0.3760 -0.0124  0.1097
 2655TIP3    H129524   1.167   4.370   8.785  1.2066  0.1320  0.8036
 2655TIP3    H229525   1.231   4.378   8.647 -1.1151 -0.1041 -0.3326
 2656TIP3   OH229526   2.153   1.696   1.560 -0.5786 -0.5138  0.1837
 2656TIP3    H129527   2.157   1.786   1.528 -0.4231 -0.6367 -0.1529
 2656TIP3    H229528   2.102   1.701   1.641 -1.2058 -0.2253 -0.2153
 2657TIP3   OH229529   0.719   6.291   0.697  0.1418 -0.3854 -0.1561
 2657TIP3    H129530   0.721   6.369   0.754  0.6384 -1.4872  1.3954
 2657TIP3    H229531   0.794   6.302   0.639 -0.2992  0.7024 -0.5454
 2658TIP3   OH229532   2.834   3.096   3.155 -0.2490 -0.5288 -0.9535
 2658TIP3    H129533   2.817   3.055   3.070  0.3038 -0.4852 -1.0919
 2658TIP3    H229534   2.749   3.127   3.185 -0.2990  0.3385 -1.9449
 2659TIP3   OH229535   2.562   3.003   1.289  0.1180  0.5086  0.2976
 2659TIP3    H129536   2.549   2.909   1.279 -0.4754  0.7069 -1.0014
 2659TIP3    H229537   2.573   3.016   1.383 -0.9046 -0.7125  0.6085
 2660TIP3   OH229538   2.591   0.446   2.956 -0.5338  0.4284 -0.2986
 2660TIP3    H129539   2.519   0.504   2.931 -1.4488  1.0216  3.1954
 2660TIP3    H229540   2.555   0.393   3.027  1.5428 -1.6268 -0.6657
 2661TIP3   OH229541   1.808   4.342   7.758 -0.5510 -0.7455  0.1883
 2661TIP3    H129542   1.865   4.331   7.682 -0.5102 -0.6608  0.2065
 2661TIP3    H229543   1.751   4.265   7.757 -0.8047 -0.5572 -0.1483
 2662TIP3   OH229544   3.101   6.306   1.435 -0.0362 -0.3089  0.2905
 2662TIP3    H129545   3.155   6.229   1.452 -0.5244 -0.8184 -0.3847
 2662TIP3    H229546   3.013   6.279   1.460 -0.4556 -0.4709 -1.2287
 2663TIP3   OH229547   2.747   0.203   8.485  0.5339  0.3414  0.2027
 2663TIP3    H129548   2.783   0.219   8.398 -0.4898 -0.6708 -0.4449
 2663TIP3    H229549   2.802   0.254   8.544  1.6070  0.5904 -0.9718
 2664TIP3   OH229550   0.859   5.267   0.855  0.0895  0.6290 -0.5439
 2664TIP3    H129551   0.890   5.176   0.848  1.7345  1.1508 -0.6083
 2664TIP3    H229552   0.805   5.280   0.777  0.5060 -0.0621 -0.9557
 2665TIP3   OH229553   5.358   2.667   0.213  0.8319  0.0134 -0.8322
 2665TIP3    H129554   5.322   2.583   0.186 -0.2647  0.5175 -0.9685
 2665TIP3    H229555   5.369   2.660   0.307 -1.2068  0.4302 -0.5391
 2666TIP3   OH229556   6.792   4.415   0.057 -0.3448 -0.3091 -0.0009
 2666TIP3    H129557   6.769   4.458   0.139  0.1024  0.3643 -0.2212
 2666TIP3    H229558   6.775   4.481  -0.011 -0.0192 -0.6046 -0.3783
 2667TIP3   OH229559   5.472   5.623   0.465  0.3404  0.0878 -0.1937
 2667TIP3    H129560   5.517   5.646   0.547  2.2429  0.0694 -1.1881
 2667TIP3    H229561   5.542   5.618   0.400 -0.6477 -3.1959 -1.1894
 2668TIP3   OH229562   5.344   1.676   8.652  0.0802 -0.2454 -0.2025
 2668TIP3    H129563   5.286   1.616   8.605  0.4624 -0.8150  0.0305
 2668TIP3    H229564   5.392   1.722   8.584 -0.5528  0.1507 -0.3957
 2669TIP3   OH229565   6.019   4.869   2.191  0.5849 -0.2516 -0.3432
 2669TIP3    H129566   5.992   4.778   2.181 -0.3265 -0.0770  0.3996
 2669TIP3    H229567   6.104   4.874   2.147  1.8636 -2.0296  1.7569
 2670TIP3   OH229568   3.282   5.068   7.731 -0.1771 -0.1443  0.0462
 2670TIP3    H129569   3.218   5.026   7.789 -0.1390 -0.0613  0.1484
 2670TIP3    H229570   3.309   4.998   7.671  1.7882 -1.0093  1.7938
 2671TIP3   OH229571   3.773   1.476   0.886 -0.4797  0.6816  0.0440
 2671TIP3    H129572   3.690   1.524   0.883 -2.0784 -1.9158 -1.0015
 2671TIP3    H229573   3.790   1.463   0.979  0.9455  4.5198  0.5096
 2672TIP3   OH229574   1.841   0.862   0.755 -0.0956  0.2153 -0.1330
 2672TIP3    H129575   1.893   0.889   0.832  2.0038 -0.3876 -1.2536
 2672TIP3    H229576   1.871   0.920   0.685 -1.7709  0.5569 -0.6084
 2673TIP3   OH229577   5.802   4.260   7.911  0.1308  0.1449  0.4173
 2673TIP3    H129578   5.820   4.233   7.821  0.4001 -0.0802  0.5349
 2673TIP3    H229579   5.888   4.260   7.953  0.0903  0.8555  0.5116
 2674TIP3   OH229580   1.150   4.678   1.658 -0.0900  0.4369 -0.1895
 2674TIP3    H129581   1.106   4.610   1.607 -0.0340  0.5310 -0.3654
 2674TIP3    H229582   1.081   4.714   1.715 -0.4551  1.1483 -1.0463
 2675TIP3   OH229583   1.735   0.585   0.211  0.0235 -0.0325  0.0288
 2675TIP3    H129584   1.707   0.654   0.151  0.4443  0.6640  0.6073
 2675TIP3    H229585   1.787   0.525   0.157  2.3454  1.7899  0.0894
 2676TIP3   OH229586   0.452   3.450   2.278 -0.7598 -0.1068  0.3293
 2676TIP3    H129587   0.434   3.421   2.368  1.5207  0.0515  0.8852
 2676TIP3    H229588   0.413   3.382   2.223  0.2103 -1.6970  1.5244
 2677TIP3   OH229589   6.002   0.640   0.684 -0.2847  0.1691  0.3201
 2677TIP3    H129590   5.962   0.724   0.708  0.8473  0.6354  0.6081
 2677TIP3    H229591   5.944   0.574   0.724 -0.3304  0.8548  1.4449
 2678TIP3   OH229592   4.911   5.452   0.671  0.1007 -0.0602 -0.1655
 2678TIP3    H129593   4.847   5.513   0.635  0.8073 -0.2294 -1.7782
 2678TIP3    H229594   4.890   5.368   0.629 -0.0888 -0.6636  1.0968
 2679TIP3   OH229595   0.751   0.392   3.387  0.2530  0.4626 -0.3021
 2679TIP3    H129596   0.764   0.297   3.388 -0.9875  0.2709  0.9583
 2679TIP3    H229597   0.704   0.409   3.305  0.3004 -0.0366 -0.4350
 2680TIP3   OH229598   0.621   2.024   0.423 -0.2614  0.1416 -1.0371
 2680TIP3    H129599   0.577   1.941   0.445 -0.5533  0.3166 -0.9513
 2680TIP3    H229600   0.549   2.083   0.401 -0.2488  1.0973  1.2777
 2681TIP3   OH229601   1.844   4.063   0.816 -0.1163  0.3816  0.1045
 2681TIP3    H129602   1.892   4.084   0.736 -0.1470  0.6592  0.1556
 2681TIP3    H229603   1.813   3.974   0.804  1.3930 -0.2349  0.5501
 2682TIP3   OH229604   2.901   0.163   0.448 -0.5378 -0.5360 -0.1299
 2682TIP3    H129605   2.882   0.153   0.354 -1.0776  1.0985 -0.2172
 2682TIP3    H229606   2.930   0.076   0.475  1.3365 -0.6372 -2.1922
 2683TIP3   OH229607   2.866   3.371   7.706 -0.5621 -0.0952  0.5685
 2683TIP3    H129608   2.896   3.442   7.649  0.3176 -0.4490  0.5685
 2683TIP3    H229609   2.806   3.413   7.768 -1.8822  0.2150 -0.8682
 2684TIP3   OH229610   4.438   5.630   7.761  0.0037  0.3682 -0.0624
 2684TIP3    H129611   4.417   5.721   7.779  0.4933  0.6551 -0.9021
 2684TIP3    H229612   4.459   5.628   7.668 -1.3521 -0.8536 -0.3759
 2685TIP3   OH229613   0.331   5.454   2.441  0.3425  0.4277 -0.1273
 2685TIP3    H129614   0.403   5.408   2.397  0.2417 -0.3793  0.5378
 2685TIP3    H229615   0.340   5.430   2.533 -0.4518  0.7613  0.0381
 2686TIP3   OH229616   1.416   0.839   8.537 -0.1372  0.6249  0.3586
 2686TIP3    H129617   1.495   0.787   8.522 -1.2121 -0.6223 -1.4910
 2686TIP3    H229618   1.350   0.774   8.563 -0.9306  1.4074  0.3552
 2687TIP3   OH229619   0.789   5.540   7.283  0.8231 -0.1490  0.0481
 2687TIP3    H129620   0.859   5.500   7.232  0.0454 -0.4573 -0.8065
 2687TIP3    H229621   0.796   5.633   7.264  0.5156 -0.2663 -0.6621
 2688TIP3   OH229622   3.760   3.245   2.698 -0.2415 -0.8335 -0.0041
 2688TIP3    H129623   3.817   3.179   2.659  0.7047 -0.0056 -0.0879
 2688TIP3    H229624   3.676   3.201   2.711 -0.4650 -1.2776 -2.5154
 2689TIP3   OH229625   4.525   6.697   8.692  0.3023  0.0485  1.0960
 2689TIP3    H129626   4.478   6.669   8.769  1.4331  0.6738  2.0510
 2689TIP3    H229627   4.524   6.793   8.696 -1.5597  0.1899 -0.8940
 2690TIP3   OH229628   3.867   6.497   1.994 -0.6317 -0.1053  0.5727
 2690TIP3    H129629   3.782   6.496   2.038 -1.5608 -1.3326 -1.0796
 2690TIP3    H229630   3.931   6.502   2.064 -2.0583  0.8577  1.8708
 2691TIP3   OH229631   0.184   6.164   1.593  0.0798  0.1337 -0.4120
 2691TIP3    H129632   0.113   6.222   1.618 -1.5690 -2.2252  0.8153
 2691TIP3    H229633   0.263   6.205   1.629 -1.0683  1.3393  0.8274
 2692TIP3   OH229634   2.316   0.326   3.041 -0.3994  0.6303  0.5454
 2692TIP3    H129635   2.229   0.349   3.008 -0.1875 -1.5622 -1.8385
 2692TIP3    H229636   2.302   0.248   3.094  0.0966  0.4312  0.3831
 2693TIP3   OH229637   2.552   4.002   1.325  0.7121  0.3691 -0.2304
 2693TIP3    H129638   2.597   3.961   1.252 -0.5827  2.1937 -2.1727
 2693TIP3    H229639   2.460   4.003   1.299  0.1829  0.8700  1.5364
 2694TIP3   OH229640   0.329   6.125   1.030 -0.0898 -0.5850  0.1490
 2694TIP3    H129641   0.423   6.108   1.032 -0.0885 -0.5292  0.8813
 2694TIP3    H229642   0.305   6.122   0.938  0.5993 -0.7800 -0.0219
 2695TIP3   OH229643   5.555   1.667   2.275  0.1849  0.3818  0.3496
 2695TIP3    H129644   5.649   1.650   2.268  0.1014 -0.2906  0.8305
 2695TIP3    H229645   5.550   1.747   2.327  0.4807  0.2512  0.5814
 2696TIP3   OH229646   1.310   1.356   1.899 -0.2335 -0.2552  0.4215
 2696TIP3    H129647   1.323   1.390   1.988  0.4307 -0.5331  0.4360
 2696TIP3    H229648   1.244   1.287   1.909  0.5646 -0.9728  0.8700
 2697TIP3   OH229649   3.166   6.572   1.488 -0.0644  0.7233 -0.1765
 2697TIP3    H129650   3.157   6.477   1.483  1.5591  0.5891 -1.1876
 2697TIP3    H229651   3.242   6.586   1.545  0.5938  1.3465 -1.1779
 2698TIP3   OH229652   5.557   2.140   0.937  0.0378  0.2677  0.1219
 2698TIP3    H129653   5.631   2.124   0.995 -0.5820  0.9534  1.1524
 2698TIP3    H229654   5.546   2.059   0.888  0.2625 -0.5251  1.3401
 2699TIP3   OH229655   5.490   3.966   1.880  0.0623  0.0259  0.1162
 2699TIP3    H129656   5.444   3.952   1.962 -2.1007  0.0078 -1.0289
 2699TIP3    H229657   5.440   4.033   1.834  0.0928 -1.2438 -1.9512
 2700TIP3   OH229658   6.379   3.806   8.131 -0.3948  0.6966  0.4809
 2700TIP3    H129659   6.285   3.802   8.115 -0.7152  1.3611  2.0453
 2700TIP3    H229660   6.406   3.890   8.092 -0.0889 -0.2858 -1.5286
 2701TIP3   OH229661   1.669   6.033   2.749  0.0614 -0.3437  0.3578
 2701TIP3    H129662   1.663   5.942   2.780  1.3534 -1.0951 -1.4116
 2701TIP3    H229663   1.749   6.035   2.696 -0.5703  1.5354 -0.6122
 2702TIP3   OH229664   2.212   3.236   1.534  0.1712 -0.0138  0.3705
 2702TIP3    H129665   2.296   3.203   1.566  1.0508  0.9517 -0.8607
 2702TIP3    H229666   2.201   3.320   1.579  1.2881  1.2252 -1.5537
 2703TIP3   OH229667   1.067   4.132   2.287 -0.5842 -0.2504  0.0609
 2703TIP3    H129668   1.154   4.113   2.322  0.0629  0.1503 -1.2526
 2703TIP3    H229669   1.059   4.227   2.293  0.1212 -0.0071 -2.0722
 2704TIP3   OH229670   4.803   5.406   1.615 -0.5668  0.0491  0.1217
 2704TIP3    H129671   4.887   5.372   1.585  0.2871  2.0210  0.1417
 2704TIP3    H229672   4.754   5.423   1.535 -0.8105 -0.6919  0.0993
 2705TIP3   OH229673   2.224   3.841   7.367  0.4104 -0.2801  0.3740
 2705TIP3    H129674   2.184   3.823   7.282 -0.9556 -1.2780  1.1829
 2705TIP3    H229675   2.319   3.835   7.351  0.1487 -1.7731 -0.8103
 2706TIP3   OH229676   5.417   1.216   7.501 -0.0887 -0.1342 -0.0176
 2706TIP3    H129677   5.462   1.262   7.431 -0.2240 -0.3262 -0.2292
 2706TIP3    H229678   5.340   1.178   7.460  0.3420 -1.0764  0.0173
 2707TIP3   OH229679   1.523   3.207   2.493 -0.6486 -0.0916  0.2747
 2707TIP3    H129680   1.561   3.294   2.486  0.4210 -0.5927 -0.5222
 2707TIP3    H229681   1.462   3.213   2.567 -1.1126  1.5000 -0.1960
 2708TIP3   OH229682   6.090   4.774   8.596 -0.4631 -0.3673  0.3851
 2708TIP3    H129683   6.136   4.852   8.626 -0.0389 -0.3167 -0.3736
 2708TIP3    H229684   6.157   4.706   8.592 -0.7038 -0.6107  0.4466
 2709TIP3   OH229685   6.611   2.484   0.983  0.3154  0.1627 -0.6552
 2709TIP3    H129686   6.645   2.503   0.896 -3.1129  3.9873 -1.4469
 2709TIP3    H229687   6.644   2.554   1.039 -2.6946  1.7024 -0.5875
 2710TIP3   OH229688   4.125   4.313   0.551  0.2391 -0.3125  0.0112
 2710TIP3    H129689   4.032   4.292   0.543  0.1578 -0.0417  0.2468
 2710TIP3    H229690   4.150   4.344   0.464 -0.5516  2.2740  0.6140
 2711TIP3   OH229691   2.198   6.241   7.649  0.1946  0.1025 -0.3883
 2711TIP3    H129692   2.117   6.215   7.605 -0.8304  0.7157  1.0246
 2711TIP3    H229693   2.247   6.290   7.584 -0.5501 -0.3265 -1.2859
 2712TIP3   OH229694   2.274   3.955   8.333 -0.1095 -0.1431 -0.2743
 2712TIP3    H129695   2.276   3.886   8.400 -2.4405 -0.9416 -0.9427
 2712TIP3    H229696   2.313   4.031   8.376  0.5913 -1.2832  1.1951
 2713TIP3   OH229697   3.538   2.256   1.141  0.0591  0.1618 -0.3446
 2713TIP3    H129698   3.459   2.237   1.091 -1.5377 -0.4327  2.2051
 2713TIP3    H229699   3.577   2.170   1.158  1.7973  0.4977 -2.2806
 2714TIP3   OH229700   0.631   0.504   0.226 -0.7575  0.6215 -0.5112
 2714TIP3    H129701   0.661   0.595   0.230 -0.0475  0.3422  0.9140
 2714TIP3    H229702   0.682   0.459   0.293 -0.9419 -0.8883 -1.3490
 2715TIP3   OH229703   4.110   1.250   6.932  0.3765  0.0339 -0.4426
 2715TIP3    H129704   4.185   1.301   6.962 -0.8274  1.5889  0.0517
 2715TIP3    H229705   4.132   1.160   6.954  2.5336  0.2982 -1.2503
 2716TIP3   OH229706   6.337   2.719   0.890 -0.1310 -0.4957 -0.0255
 2716TIP3    H129707   6.405   2.778   0.922 -0.9226  1.1260 -1.2242
 2716TIP3    H229708   6.375   2.681   0.811  0.2395 -1.3752  0.5537
 2717TIP3   OH229709   3.498   5.025   2.151 -0.4347  0.1613 -0.4214
 2717TIP3    H129710   3.510   4.999   2.242  0.0883  0.4333 -0.4055
 2717TIP3    H229711   3.555   4.965   2.102 -0.8821 -0.1277 -0.5930
 2718TIP3   OH229712   1.602   2.506   8.551  0.9613  0.1180  0.2037
 2718TIP3    H129713   1.611   2.417   8.584 -0.2976 -0.2953 -0.4904
 2718TIP3    H229714   1.563   2.555   8.624 -0.7142 -0.5218 -0.2007
 2719TIP3   OH229715   2.780   4.583   0.142  0.3860 -0.0293 -0.5889
 2719TIP3    H129716   2.740   4.620   0.064  0.3291  2.1782  0.4233
 2719TIP3    H229717   2.706   4.564   0.200  0.5366  0.0946 -0.3550
 2720TIP3   OH229718   4.126   2.752   0.329  0.2902 -0.4730  0.0322
 2720TIP3    H129719   4.170   2.695   0.392 -1.1116 -0.8271  0.7323
 2720TIP3    H229720   4.040   2.713   0.317  1.0459 -1.3785 -3.4527
 2721TIP3   OH229721   0.232   0.718   8.642  0.6020 -0.0919  0.1864
 2721TIP3    H129722   0.201   0.742   8.554  0.8214  0.2189  0.1954
 2721TIP3    H229723   0.242   0.801   8.688 -1.2074 -0.3118  1.0944
 2722TIP3   OH229724   4.509   2.725   1.127  0.1670 -0.2710 -0.1640
 2722TIP3    H129725   4.513   2.783   1.203  1.3265  0.2965 -0.6269
 2722TIP3    H229726   4.423   2.683   1.133 -2.4511  4.1489 -1.7028
 2723TIP3   OH229727   2.950   5.324   0.860  0.0458  0.0968  0.3968
 2723TIP3    H129728   2.920   5.279   0.780  1.6451 -1.2740  0.5084
 2723TIP3    H229729   2.876   5.380   0.885 -1.1612 -0.7578 -1.0570
 2724TIP3   OH229730   3.144   3.333   0.570  0.4039 -0.0532  0.4432
 2724TIP3    H129731   3.167   3.358   0.660  2.5178  0.3910 -0.1643
 2724TIP3    H229732   3.224   3.348   0.520 -0.6117 -0.6747 -1.4575
 2725TIP3   OH229733   1.478   5.012   8.438  0.0959  0.0517  0.0648
 2725TIP3    H129734   1.433   5.059   8.368  0.1401  1.3327  0.8559
 2725TIP3    H229735   1.412   5.006   8.508  0.4944  0.0479  0.4411
 2726TIP3   OH229736   3.660   6.357   0.515  0.5109 -0.2361 -0.2956
 2726TIP3    H129737   3.751   6.328   0.502  0.5206  0.5979 -2.7083
 2726TIP3    H229738   3.612   6.314   0.444 -0.6793  0.5933 -0.0167
 2727TIP3   OH229739   0.230   4.905   0.081 -0.2695 -0.2737 -0.3593
 2727TIP3    H129740   0.145   4.934   0.048 -0.6880 -0.7212  0.3116
 2727TIP3    H229741   0.229   4.810   0.069 -2.0194 -1.1017  4.3114
 2728TIP3   OH229742   0.724   1.251   1.095  0.8151  0.3046 -0.3437
 2728TIP3    H129743   0.795   1.190   1.115  2.0493  1.9781  0.8016
 2728TIP3    H229744   0.765   1.317   1.039  0.0363  1.0168 -0.0906
 2729TIP3   OH229745   5.219   0.682   1.698  0.4943  0.0020  0.7837
 2729TIP3    H129746   5.264   0.615   1.749 -2.5654 -1.0031  2.4672
 2729TIP3    H229747   5.237   0.764   1.743 -0.6313 -0.6240  2.5155
 2730TIP3   OH229748   5.399   2.081   2.661 -0.1260  0.3250  0.6095
 2730TIP3    H129749   5.311   2.055   2.690 -0.8736  2.6243  0.6409
 2730TIP3    H229750   5.421   2.156   2.715  0.9569  1.0929 -0.8243
 2731TIP3   OH229751   6.335   3.705   0.683  0.0966  0.3747 -0.2283
 2731TIP3    H129752   6.254   3.666   0.714  0.3628 -1.4809 -1.6716
 2731TIP3    H229753   6.323   3.714   0.589  1.4901  0.2272 -0.4484
 2732TIP3   OH229754   6.459   2.471   0.230 -0.1153  0.3661 -0.1261
 2732TIP3    H129755   6.406   2.419   0.290  1.4224 -1.9415 -0.6193
 2732TIP3    H229756   6.505   2.533   0.286  0.9993 -1.4880  1.1057
 2733TIP3   OH229757   2.192   2.622   7.927  0.1889 -0.4016  0.0148
 2733TIP3    H129758   2.169   2.577   8.007 -1.2731  3.1079  1.7866
 2733TIP3    H229759   2.146   2.575   7.858 -0.9419 -1.7688  1.6429
 2734TIP3   OH229760   6.010   2.337   7.460 -0.7364 -0.0399 -0.3115
 2734TIP3    H129761   6.063   2.378   7.391 -1.1715  0.1877 -0.5142
 2734TIP3    H229762   5.932   2.391   7.465 -0.8717 -0.2749  0.1100
 2735TIP3   OH229763   2.622   3.068   2.634 -0.1357 -0.9973 -0.3505
 2735TIP3    H129764   2.569   3.145   2.616  1.8712  0.5350 -0.0953
 2735TIP3    H229765   2.579   3.026   2.708 -1.3728 -0.2354 -0.6132
 2736TIP3   OH229766   1.852   6.228   1.768 -0.1587  0.8883  0.1978
 2736TIP3    H129767   1.828   6.210   1.859 -0.7500 -0.4771 -0.1986
 2736TIP3    H229768   1.783   6.186   1.717  1.2510 -0.1736 -0.9208
 2737TIP3   OH229769   0.862   6.091   7.641 -0.4702 -0.4949 -0.1231
 2737TIP3    H129770   0.918   6.042   7.701 -0.3143 -0.1156  0.0389
 2737TIP3    H229771   0.841   6.172   7.687  0.3258  0.1669 -0.9024
 2738TIP3   OH229772   2.425   5.831   0.099 -0.1222  0.1390 -0.0519
 2738TIP3    H129773   2.474   5.777   0.161  0.0558 -0.1782 -0.4601
 2738TIP3    H229774   2.458   5.920   0.112  0.6488 -0.0905 -0.4070
 2739TIP3   OH229775   4.086   2.014   2.294 -0.0377  0.4489 -0.1826
 2739TIP3    H129776   4.009   2.070   2.280 -0.3688  0.0971  0.1809
 2739TIP3    H229777   4.052   1.925   2.282 -0.0934  0.1809  1.6868
 2740TIP3   OH229778   1.278   3.886   0.465  0.6306 -0.1338  0.7326
 2740TIP3    H129779   1.236   3.849   0.542  1.5899 -1.0196  0.8589
 2740TIP3    H229780   1.363   3.917   0.497  0.9731 -0.3689  0.0820
 2741TIP3   OH229781   2.833   3.315   1.102 -0.5476 -0.5467  0.3281
 2741TIP3    H129782   2.873   3.392   1.141 -2.4473 -0.4776  2.3219
 2741TIP3    H229783   2.900   3.281   1.042  0.7419  1.9887  0.1937
 2742TIP3   OH229784   4.910   0.832   2.010 -0.3296 -0.3985  0.0318
 2742TIP3    H129785   4.920   0.845   2.105 -0.9720  2.2064 -0.1694
 2742TIP3    H229786   4.822   0.864   1.991  0.1042 -0.0503 -1.5430
 2743TIP3   OH229787   0.291   6.382   0.794 -0.5166  0.0630  0.2492
 2743TIP3    H129788   0.221   6.358   0.734 -1.4908 -1.3781  1.8569
 2743TIP3    H229789   0.273   6.473   0.817 -0.0638  0.6707 -1.6534
 2744TIP3   OH229790   0.560   1.036   8.771 -0.1075  0.0155  0.0937
 2744TIP3    H129791   0.542   0.949   8.808  1.1752 -0.3958 -0.1969
 2744TIP3    H229792   0.550   1.096   8.845  0.3588 -0.5468  0.6249
 2745TIP3   OH229793   3.518   3.879   7.122 -0.5645 -0.6608  0.7124
 2745TIP3    H129794   3.577   3.856   7.051  0.3840  1.2794  0.8030
 2745TIP3    H229795   3.436   3.904   7.078  0.0855  0.7405  0.2486
 2746TIP3   OH229796   2.673   6.625   7.736  0.6338 -0.4185 -0.1262
 2746TIP3    H129797   2.751   6.656   7.690 -1.6281  1.7146 -2.9687
 2746TIP3    H229798   2.679   6.663   7.823  2.3616  0.4088 -0.5615
 2747TIP3   OH229799   3.100   5.562   2.428 -0.3349  0.0142  0.0374
 2747TIP3    H129800   3.194   5.580   2.425 -0.1819 -0.3797  1.5410
 2747TIP3    H229801   3.090   5.499   2.499 -1.7141 -0.1642 -0.2826
 2748TIP3   OH229802   5.030   1.992   0.157 -0.2651 -0.1052  0.4411
 2748TIP3    H129803   4.948   1.946   0.172  0.7414 -1.2652  3.0493
 2748TIP3    H229804   5.092   1.924   0.131  0.1697  0.5499 -0.2741
 2749TIP3   OH229805   3.419   3.806   0.354  0.8708  0.0003 -0.5433
 2749TIP3    H129806   3.459   3.725   0.324  1.6146 -0.1480  0.7454
 2749TIP3    H229807   3.418   3.863   0.277  1.5640 -0.7744 -1.1406
 2750TIP3   OH229808   2.517   1.991   1.154 -0.0227  0.0921 -0.0984
 2750TIP3    H129809   2.492   2.056   1.219  0.6621  0.8763 -0.6014
 2750TIP3    H229810   2.547   1.916   1.206 -0.3602  0.3477  0.4806
 2751TIP3   OH229811   5.861   1.380   0.557 -0.4529 -0.2694 -0.3618
 2751TIP3    H129812   5.904   1.445   0.613  0.1119 -0.4361 -0.5946
 2751TIP3    H229813   5.799   1.336   0.615 -2.7476  2.1854 -0.7786
 2752TIP3   OH229814   2.376   0.752   7.158  0.1757 -0.7594 -0.2744
 2752TIP3    H129815   2.462   0.793   7.149 -0.2013  0.1773  0.2046
 2752TIP3    H229816   2.358   0.715   7.071  0.4435  0.3110 -0.8107
 2753TIP3   OH229817   0.282   4.130   8.597 -0.2087 -0.2128 -0.2903
 2753TIP3    H129818   0.193   4.147   8.567 -0.0896 -1.1243 -1.2268
 2753TIP3    H229819   0.338   4.162   8.526  0.4608  3.4607  1.6279
 2754TIP3   OH229820   0.939   4.969   2.565 -0.1829  0.1969 -0.2859
 2754TIP3    H129821   1.022   5.016   2.560  0.2475 -0.6257 -1.5084
 2754TIP3    H229822   0.948   4.912   2.641 -0.6626  1.9103  1.1390
 2755TIP3   OH229823   1.350   2.438   8.015 -0.6003 -0.6091  0.1141
 2755TIP3    H129824   1.257   2.420   8.028 -0.6321 -1.0517 -0.6138
 2755TIP3    H229825   1.357   2.533   8.010 -1.4310 -0.6023 -2.3990
 2756TIP3   OH229826   1.427   5.995   0.707 -0.3618 -0.1387 -0.2025
 2756TIP3    H129827   1.429   6.069   0.768  0.4285 -1.1137  1.0226
 2756TIP3    H229828   1.426   5.918   0.764 -0.9610 -1.0801 -1.4456
 2757TIP3   OH229829   4.366   4.931   1.635  0.3730 -0.1906  0.1384
 2757TIP3    H129830   4.275   4.919   1.608 -0.3366  0.3093  2.1242
 2757TIP3    H229831   4.367   4.906   1.727  2.3165 -0.4064  0.0915
 2758TIP3   OH229832   2.959   3.573   0.816 -0.1244 -0.1394 -0.3059
 2758TIP3    H129833   3.054   3.561   0.810 -0.3728 -1.9095 -1.3532
 2758TIP3    H229834   2.923   3.484   0.811 -1.8164  0.4058  1.0261
 2759TIP3   OH229835   5.619   5.291   1.333 -0.3077  0.3797  0.0988
 2759TIP3    H129836   5.689   5.287   1.398 -1.8142 -0.5757  1.7654
 2759TIP3    H229837   5.663   5.311   1.250  1.9252 -0.4071  1.0413
 2760TIP3   OH229838   2.570   3.894   8.249  0.3658 -0.5967  0.0200
 2760TIP3    H129839   2.530   3.838   8.183 -3.3822  2.2272 -0.4400
 2760TIP3    H229840   2.501   3.909   8.314  1.1423  3.1842  0.2091
 2761TIP3   OH229841   0.799   3.323   7.783 -0.1248 -1.1512  0.1331
 2761TIP3    H129842   0.718   3.298   7.739 -1.0528 -0.3131  1.3080
 2761TIP3    H229843   0.810   3.416   7.762  0.6733 -1.3111 -0.2059
 2762TIP3   OH229844   2.773   1.710   7.657 -0.1073 -0.2442  0.2950
 2762TIP3    H129845   2.787   1.685   7.566  2.1545  1.2344  0.1556
 2762TIP3    H229846   2.861   1.727   7.691 -1.0632  2.1126  1.8898
 2763TIP3   OH229847   2.880   0.397   1.939  0.5293 -0.2978  0.6502
 2763TIP3    H129848   2.807   0.335   1.935  1.1366 -0.9731 -1.2775
 2763TIP3    H229849   2.957   0.343   1.957  1.3029 -0.4601 -2.4914
 2764TIP3   OH229850   1.548   5.188   8.670  0.2448 -0.3380 -0.3927
 2764TIP3    H129851   1.566   5.119   8.606 -1.5569 -0.6532 -0.6200
 2764TIP3    H229852   1.464   5.163   8.709  0.7099  0.4820  1.2534
 2765TIP3   OH229853   4.534   5.083   0.392  0.4824  0.0855  0.2000
 2765TIP3    H129854   4.567   5.078   0.303 -1.1004 -1.8471 -0.3570
 2765TIP3    H229855   4.594   5.029   0.444 -0.1487 -1.0661 -0.2500
 2766TIP3   OH229856   6.370   4.027   2.491  0.1408  0.5961  0.6601
 2766TIP3    H129857   6.326   4.110   2.507  3.0648  2.0014  2.0747
 2766TIP3    H229858   6.338   3.969   2.560 -2.0176  0.3915 -0.4209
 2767TIP3   OH229859   3.752   5.793   0.260 -0.1703  0.6949  0.1218
 2767TIP3    H129860   3.704   5.797   0.178  0.9791 -0.0131 -0.6243
 2767TIP3    H229861   3.686   5.774   0.326 -1.2685  2.2847 -0.4579
 2768TIP3   OH229862   1.934   1.897   8.050  0.4078  0.3751  0.2030
 2768TIP3    H129863   1.871   1.949   8.000  0.3768  1.2614  1.1311
 2768TIP3    H229864   1.907   1.807   8.036  0.4922  0.5825 -1.4869
 2769TIP3   OH229865   3.662   0.208   0.861 -0.2253 -0.2271  0.0609
 2769TIP3    H129866   3.668   0.164   0.946 -1.6692 -1.5548 -0.4717
 2769TIP3    H229867   3.576   0.183   0.828  0.6178 -0.3746 -2.1375
 2770TIP3   OH229868   4.706   3.630   6.950 -0.1591 -0.0679 -0.1381
 2770TIP3    H129869   4.799   3.653   6.960 -0.4281  1.7211 -1.2950
 2770TIP3    H229870   4.706   3.534   6.950  1.5977 -0.1152  0.6255
 2771TIP3   OH229871   2.564   4.745   2.437  0.0225  0.4687 -0.0718
 2771TIP3    H129872   2.496   4.776   2.496 -0.0808  0.8314 -0.3821
 2771TIP3    H229873   2.517   4.716   2.359  0.0992 -0.6036  0.2587
 2772TIP3   OH229874   1.774   4.676   1.232  0.2772  0.2485  0.3900
 2772TIP3    H129875   1.765   4.581   1.238  0.6391  0.0458 -1.5289
 2772TIP3    H229876   1.696   4.705   1.184  0.6215  0.7987  0.1507
 2773TIP3   OH229877   2.696   4.282   8.452 -0.2308  0.0577  0.0023
 2773TIP3    H129878   2.712   4.327   8.535  1.7464  0.5072 -0.5820
 2773TIP3    H229879   2.782   4.276   8.410 -0.7163 -2.5535 -0.8356
 2774TIP3   OH229880   4.180   1.175   7.625  0.1259  0.5354  0.1024
 2774TIP3    H129881   4.156   1.129   7.545  1.7228  0.4996 -0.3775
 2774TIP3    H229882   4.204   1.105   7.686 -0.8443  0.5768  0.5549
 2775TIP3   OH229883   3.578   4.523   0.695 -0.4053 -0.0337 -0.6821
 2775TIP3    H129884   3.597   4.609   0.732 -2.2160 -0.0372  0.3410
 2775TIP3    H229885   3.510   4.539   0.631  0.5989 -0.4727 -1.9062
 2776TIP3   OH229886   5.587   3.209   0.446 -0.1202 -0.7814  0.5772
 2776TIP3    H129887   5.497   3.232   0.423  0.1776  0.1258  0.2719
 2776TIP3    H229888   5.579   3.156   0.526 -1.0527 -2.7063 -0.7316
 2777TIP3   OH229889   0.764   2.642   2.432  0.1802 -0.1210 -0.1227
 2777TIP3    H129890   0.855   2.621   2.456  1.3452  1.6068 -2.6390
 2777TIP3    H229891   0.716   2.634   2.514  2.2452 -2.7530  0.9968
 2778TIP3   OH229892   3.902   4.921   2.099 -0.4679 -0.2349  0.4858
 2778TIP3    H129893   3.894   4.992   2.163 -2.0843 -0.3900  0.4989
 2778TIP3    H229894   3.996   4.901   2.097  0.0194  1.8175  0.5631
 2779TIP3   OH229895   0.993   3.889   2.178 -0.1009 -0.2145 -0.1311
 2779TIP3    H129896   1.010   3.973   2.220  1.6100 -1.4816  1.9162
 2779TIP3    H229897   0.898   3.880   2.179 -0.2337  1.0961  0.8533
 2780TIP3   OH229898   2.793   5.527   7.410 -0.7571  0.0907  1.2689
 2780TIP3    H129899   2.848   5.589   7.457  0.1001  0.9649 -0.7723
 2780TIP3    H229900   2.829   5.441   7.432 -0.8652  0.4003  2.7538
 2781TIP3   OH229901   2.809   1.509   8.432 -0.6320 -0.1849 -0.1241
 2781TIP3    H129902   2.741   1.577   8.432  1.1541  1.6913 -1.0049
 2781TIP3    H229903   2.888   1.553   8.462  1.1204 -1.2577 -2.7661
 2782TIP3   OH229904   3.312   2.702   7.868 -0.7384  0.0276  0.4929
 2782TIP3    H129905   3.309   2.754   7.788  0.7556 -0.6117 -0.0074
 2782TIP3    H229906   3.398   2.661   7.867 -1.2489 -1.1500  1.7050
 2783TIP3   OH229907   5.525   3.638   2.160  0.1631  0.3384 -0.0568
 2783TIP3    H129908   5.465   3.642   2.085 -1.9843 -2.6100  1.2724
 2783TIP3    H229909   5.590   3.572   2.135 -0.3934 -0.4436  0.5250
 2784TIP3   OH229910   6.413   2.307   1.034  1.0849  0.1251 -0.1480
 2784TIP3    H129911   6.335   2.354   1.003  1.0050  0.3957  0.4375
 2784TIP3    H229912   6.481   2.374   1.037  0.7582  0.4399  1.5027
 2785TIP3   OH229913   4.924   6.152   0.484 -0.6067  0.2619  0.3341
 2785TIP3    H129914   4.870   6.210   0.430  0.2804 -0.2182 -1.1429
 2785TIP3    H229915   4.872   6.138   0.564 -2.0842  0.8233 -0.4778
 2786TIP3   OH229916   6.286   0.511   2.433 -0.1342 -0.3039  0.2395
 2786TIP3    H129917   6.215   0.572   2.415 -0.3876 -0.9435 -1.0796
 2786TIP3    H229918   6.258   0.464   2.512 -1.1695 -0.5267 -0.2504
 2787TIP3   OH229919   0.361   0.558   8.097 -0.0449 -0.1066 -0.1158
 2787TIP3    H129920   0.366   0.652   8.080 -1.4079 -0.2529 -1.4985
 2787TIP3    H229921   0.350   0.518   8.011  0.7089 -1.5700  0.4237
 2788TIP3   OH229922   1.158   3.431   7.269 -0.8883 -0.8006  0.0593
 2788TIP3    H129923   1.206   3.492   7.325 -0.2628 -0.3928 -0.8821
 2788TIP3    H229924   1.217   3.356   7.259 -1.8567 -1.8137  1.6100
 2789TIP3   OH229925   5.957   0.024   0.846 -0.3243  0.3291 -0.0101
 2789TIP3    H129926   5.867   0.040   0.873 -0.6914  0.5271 -1.2781
 2789TIP3    H229927   5.993   0.111   0.829  0.1637  0.2599  0.6641
 2790TIP3   OH229928   0.322   1.063   1.102 -0.0593 -0.5731  0.3697
 2790TIP3    H129929   0.321   1.156   1.079  2.2720  0.0631  2.4948
 2790TIP3    H229930   0.305   1.061   1.196  0.7101 -2.2237  0.5125
 2791TIP3   OH229931   0.101   6.173   7.508  0.0006  0.0425 -0.1005
 2791TIP3    H129932   0.079   6.093   7.556 -0.4271  0.2667  0.0863
 2791TIP3    H229933   0.193   6.189   7.529 -0.1464  0.0667  0.5526
 2792TIP3   OH229934   2.436   4.399   2.723 -0.5985 -0.1256  0.3383
 2792TIP3    H129935   2.399   4.486   2.735  0.0491  0.7159 -2.7137
 2792TIP3    H229936   2.528   4.408   2.747 -0.3227  0.3301 -0.8132
 2793TIP3   OH229937   6.072   3.896   8.336 -0.2366  0.1560 -0.1642
 2793TIP3    H129938   6.110   3.889   8.423  1.3289  2.1560 -0.6100
 2793TIP3    H229939   5.991   3.845   8.340 -0.9936  1.3990  2.9047
 2794TIP3   OH229940   6.756   2.574   1.460 -1.0706  0.5435  0.2582
 2794TIP3    H129941   6.850   2.554   1.457 -1.6431 -2.4177 -0.8929
 2794TIP3    H229942   6.727   2.537   1.543 -1.5300 -0.2544 -0.2491
 2795TIP3   OH229943   2.451   6.743   7.506 -0.1624  0.1150  0.5189
 2795TIP3    H129944   2.435   6.743   7.412 -1.2041 -0.4518  0.6803
 2795TIP3    H229945   2.379   6.795   7.543  0.0974  0.1292  1.0173
 2796TIP3   OH229946   2.782   6.440   1.386 -0.3898  0.0334 -0.1360
 2796TIP3    H129947   2.716   6.406   1.325 -0.6694  0.1741  0.0856
 2796TIP3    H229948   2.829   6.507   1.336  0.3621 -0.8772 -0.6742
 2797TIP3   OH229949   3.831   5.127   0.946 -0.5655 -0.5939 -0.0993
 2797TIP3    H129950   3.737   5.131   0.928 -0.5175 -0.2322 -0.2862
 2797TIP3    H229951   3.872   5.154   0.863 -0.2571 -2.2180 -0.5169
 2798TIP3   OH229952   2.900   6.657   0.868 -0.4127  0.1134 -0.1395
 2798TIP3    H129953   2.886   6.680   0.776 -1.3523 -1.6286 -0.4820
 2798TIP3    H229954   2.856   6.572   0.878  0.3165 -0.0850  1.7352
 2799TIP3   OH229955   1.755   0.661   1.090  0.4982  0.1602 -0.3116
 2799TIP3    H129956   1.779   0.747   1.054 -0.8426 -0.1124 -1.9678
 2799TIP3    H229957   1.721   0.613   1.015 -2.5153 -0.4468  1.3182
 2800TIP3   OH229958   0.949   0.325   1.872 -0.0848  0.6263  0.6610
 2800TIP3    H129959   0.996   0.243   1.860  1.5566  1.6790 -0.5353
 2800TIP3    H229960   0.984   0.362   1.954 -0.5373  0.3392  0.9902
 2801TIP3   OH229961   5.997   2.064   6.734  0.3930 -0.6321  0.1433
 2801TIP3    H129962   6.006   2.010   6.656  2.7133  0.6513 -0.5871
 2801TIP3    H229963   6.069   2.127   6.728 -2.2331  2.7285  0.7792
 2802TIP3   OH229964   5.027   0.559   0.708 -0.3840 -0.5337  0.2133
 2802TIP3    H129965   5.056   0.550   0.617 -1.7460  0.1138 -0.3178
 2802TIP3    H229966   5.103   0.593   0.755  0.6964 -1.9758 -0.4248
 2803TIP3   OH229967   6.804   0.977   8.530  0.0788  0.0156  0.3895
 2803TIP3    H129968   6.885   0.925   8.533  0.4443  0.6137  1.3732
 2803TIP3    H229969   6.831   1.062   8.495  0.0584  0.4923  1.4755
 2804TIP3   OH229970   5.309   1.658   8.286 -0.3824  0.0473 -0.0776
 2804TIP3    H129971   5.301   1.563   8.300  0.3276  0.0803  0.6396
 2804TIP3    H229972   5.220   1.688   8.272 -0.4207 -1.0692 -2.7401
 2805TIP3   OH229973   5.837   2.228   0.627  0.4728  0.2924 -0.5308
 2805TIP3    H129974   5.901   2.201   0.562  1.1749  0.2361  0.1587
 2805TIP3    H229975   5.796   2.306   0.590  1.3797  0.6922 -0.7256
 2806TIP3   OH229976   2.451   0.550   2.087 -0.2835  0.3649  0.3622
 2806TIP3    H129977   2.421   0.459   2.087 -0.5905  0.4390 -0.9191
 2806TIP3    H229978   2.383   0.597   2.039  0.7591  0.9414 -0.6054
 2807TIP3   OH229979   5.103   5.992   1.601 -0.2719 -0.5675 -0.3019
 2807TIP3    H129980   5.162   5.946   1.659 -0.7723 -3.4549 -1.9066
 2807TIP3    H229981   5.117   5.951   1.515 -1.8901  1.2671 -1.5314
 2808TIP3   OH229982   3.430   3.979   0.142  0.2048 -0.4003 -0.0724
 2808TIP3    H129983   3.481   3.930   0.078  2.7811 -0.6334  2.0075
 2808TIP3    H229984   3.474   4.064   0.147 -0.6306  0.0081  0.5993
 2809TIP3   OH229985   4.987   4.236   8.718 -0.2697 -0.9912 -0.1978
 2809TIP3    H129986   5.006   4.328   8.739 -0.1589 -0.7048 -1.4988
 2809TIP3    H229987   4.903   4.219   8.761  0.4725 -0.7968  1.4313
 2810TIP3   OH229988   0.937   4.759   2.039 -0.4962 -0.7351  0.4521
 2810TIP3    H129989   0.867   4.694   2.042 -0.5638 -0.6725  0.2730
 2810TIP3    H229990   0.942   4.784   1.947  0.6094 -1.6595  0.2358
 2811TIP3   OH229991   6.747   4.652   2.326 -0.0386 -0.1919  0.6290
 2811TIP3    H129992   6.720   4.575   2.377 -0.4125 -0.7009 -0.3084
 2811TIP3    H229993   6.831   4.627   2.288 -1.9445 -1.7880 -2.9381
 2812TIP3   OH229994   2.317   6.417   7.486  0.2084 -0.1311 -0.3631
 2812TIP3    H129995   2.347   6.403   7.396  2.3988  1.5874  0.0094
 2812TIP3    H229996   2.246   6.480   7.478  1.1291  0.8688 -0.8463
 2813TIP3   OH229997   0.001   0.524   7.621  0.0075 -0.3762 -0.2818
 2813TIP3    H129998  -0.093   0.535   7.637  0.2857  1.5460  0.2513
 2813TIP3    H229999   0.044   0.556   7.700  1.1590  0.5450 -1.2423
 2814TIP3   OH230000   4.342   2.895   8.709  0.2094  0.4612  1.1054
 2814TIP3    H130001   4.309   2.813   8.747  1.9039  0.5459  2.8778
 2814TIP3    H230002   4.413   2.922   8.767  1.2787  1.9529 -0.7790
 2815TIP3   OH230003   4.390   4.070   0.895  0.2372  0.2585  0.8603
 2815TIP3    H130004   4.343   4.125   0.958  1.1477  1.1552  0.7931
 2815TIP3    H230005   4.325   4.007   0.865 -0.8046  1.2011  1.0559
 2816TIP3   OH230006   1.742   4.501   7.460 -0.1922 -0.2174  0.1848
 2816TIP3    H130007   1.797   4.450   7.400  1.4070  1.5578  0.0607
 2816TIP3    H230008   1.710   4.574   7.407 -1.4472 -0.3710  0.6838
 2817TIP3   OH230009   3.622   2.959   0.144  0.3312  0.0963  0.6056
 2817TIP3    H130010   3.581   3.046   0.146  0.3572  0.2013 -1.4159
 2817TIP3    H230011   3.654   2.946   0.234  2.1772  3.0583  0.5291
 2818TIP3   OH230012   1.556   4.652   2.241  0.9077 -0.6543  0.5250
 2818TIP3    H130013   1.632   4.596   2.258  0.6656 -0.1631  3.7592
 2818TIP3    H230014   1.489   4.621   2.301 -0.4729  0.7925 -0.1958
 2819TIP3   OH230015   5.977   0.391   7.667 -0.0332  0.3642  0.1409
 2819TIP3    H130016   5.891   0.424   7.640  0.9363  1.2077 -2.1819
 2819TIP3    H230017   5.983   0.412   7.760 -2.0283  0.9389  0.1868
 2820TIP3   OH230018   4.375   1.533   0.520 -0.3686 -0.1461 -0.2581
 2820TIP3    H130019   4.323   1.596   0.471 -0.0761  0.8724  0.6939
 2820TIP3    H230020   4.332   1.449   0.504  0.6031 -0.1481 -3.4513
 2821TIP3   OH230021   2.356   3.321   8.024 -0.1655  0.6863  0.4121
 2821TIP3    H130022   2.416   3.395   8.015  0.6277 -0.1303 -1.4620
 2821TIP3    H230023   2.271   3.361   8.042  0.4229  1.9981  0.3724
 2822TIP3   OH230024   3.208   2.593   1.195 -0.4399 -0.4274 -0.2731
 2822TIP3    H130025   3.192   2.668   1.252  0.2541 -0.1064 -0.4867
 2822TIP3    H230026   3.224   2.520   1.256 -0.0521 -0.1630 -0.0501
 2823TIP3   OH230027   0.741   2.446   0.826  0.7163  0.3299  0.0852
 2823TIP3    H130028   0.772   2.382   0.761 -0.6007  0.2797 -0.5139
 2823TIP3    H230029   0.796   2.523   0.810  0.0171  0.5411 -1.5355
 2824TIP3   OH230030   3.250   3.389   7.658  0.5787 -0.3523  0.0703
 2824TIP3    H130031   3.245   3.465   7.715  0.7255 -0.2762 -0.0169
 2824TIP3    H230032   3.301   3.325   7.707  0.0410 -0.5754  0.3433
 2825TIP3   OH230033   5.009   2.327   0.122  0.2825  0.1410 -0.2818
 2825TIP3    H130034   5.027   2.421   0.126 -1.2637  0.4075  1.7003
 2825TIP3    H230035   5.025   2.296   0.211 -2.7499 -0.7157  0.0753
 2826TIP3   OH230036   6.344   1.982   7.930 -0.0099 -0.2048 -0.1511
 2826TIP3    H130037   6.356   2.028   7.847  2.3870  1.3388  0.9254
 2826TIP3    H230038   6.382   1.895   7.915 -3.2349 -1.4801 -1.7611
 2827TIP3   OH230039   5.091   1.538   0.107  0.1918  0.4783 -0.5593
 2827TIP3    H130040   4.996   1.529   0.093  0.3175 -0.1179 -1.0452
 2827TIP3    H230041   5.128   1.459   0.069  0.7812  0.1180  0.7384
 2828TIP3   OH230042   1.447   1.094   7.941  0.0722  0.4386 -0.0247
 2828TIP3    H130043   1.404   1.013   7.914 -0.3133  0.5225  0.3263
 2828TIP3    H230044   1.433   1.155   7.869  2.7347 -0.6025 -1.5710
 2829TIP3   OH230045   1.652   6.326   0.031 -0.0147 -0.3335 -0.0050
 2829TIP3    H130046   1.634   6.413  -0.004 -0.5835 -0.1445  0.7355
 2829TIP3    H230047   1.723   6.340   0.094 -2.4837  0.3086  2.9091
 2830TIP3   OH230048   2.319   4.172   1.225 -0.2448  0.2863 -0.5092
 2830TIP3    H130049   2.333   4.186   1.319  0.8135  0.0377 -0.6197
 2830TIP3    H230050   2.287   4.257   1.193 -4.4574 -0.5814  0.6984
 2831TIP3   OH230051   6.600   4.462   1.927  0.3057 -0.3387 -0.0209
 2831TIP3    H130052   6.681   4.512   1.920  1.1865 -1.8745 -2.1583
 2831TIP3    H230053   6.619   4.393   1.991  0.5759 -0.4644 -0.2345
 2832TIP3   OH230054   2.240   5.171   8.570 -0.0669 -0.8785  0.2111
 2832TIP3    H130055   2.151   5.143   8.592  0.0895 -2.8933 -1.3632
 2832TIP3    H230056   2.293   5.092   8.582  1.7864  0.5231  2.1458
 2833TIP3   OH230057   1.708   4.510   0.054  0.7390 -0.2734  0.1083
 2833TIP3    H130058   1.721   4.483  -0.037  2.2310  0.9924 -0.0871
 2833TIP3    H230059   1.625   4.558   0.054  1.9606  1.9863 -1.1715
 2834TIP3   OH230060   0.328   0.832   7.872 -0.5533 -0.0281 -0.1560
 2834TIP3    H130061   0.293   0.836   7.783 -0.5389 -3.2772 -0.4291
 2834TIP3    H230062   0.270   0.889   7.924 -2.6732 -0.7194 -1.6440
 2835TIP3   OH230063   1.292   2.840   2.445  0.0487 -0.0535 -0.2070
 2835TIP3    H130064   1.235   2.904   2.487 -0.9676 -1.5483  0.7998
 2835TIP3    H230065   1.319   2.882   2.363  0.6862  2.2598  1.0893
 2836TIP3   OH230066   4.826   4.732   1.910 -0.1775 -0.1054 -0.4806
 2836TIP3    H130067   4.872   4.771   1.836  0.5766 -2.2905 -1.2550
 2836TIP3    H230068   4.879   4.656   1.934 -2.1406 -1.3789  0.1193
 2837TIP3   OH230069   0.932   1.078   7.987  0.0862 -0.4378  0.1102
 2837TIP3    H130070   0.915   1.028   8.067  0.5068 -1.7252 -0.5722
 2837TIP3    H230071   0.918   1.015   7.917 -2.6429  1.2463 -1.0165
 2838TIP3   OH230072   5.750   4.738   1.914  0.6874 -0.0542  0.4683
 2838TIP3    H130073   5.705   4.810   1.869  2.4466  0.9817  0.2425
 2838TIP3    H230074   5.754   4.767   2.006  4.4963  2.0210 -0.1324
 2839TIP3   OH230075   2.218   5.864   8.461  0.0023  0.0276  0.8800
 2839TIP3    H130076   2.178   5.815   8.389  0.3886  0.9575 -0.0016
 2839TIP3    H230077   2.252   5.797   8.520 -0.2062 -0.7585  0.1211
 2840TIP3   OH230078   5.350   0.208   7.765 -0.3269  0.2531 -0.1239
 2840TIP3    H130079   5.284   0.254   7.817 -0.3655 -0.1812  0.2284
 2840TIP3    H230080   5.312   0.121   7.752 -0.2409  0.3087 -0.7446
 2841TIP3   OH230081   6.329   1.432   8.745  0.1986 -0.1259 -0.2879
 2841TIP3    H130082   6.257   1.460   8.800 -0.7395  1.4673 -2.1945
 2841TIP3    H230083   6.407   1.471   8.785 -0.4175  0.7567  0.0758
 2842TIP3   OH230084   2.750   3.304   2.307  0.2386  0.5337 -0.2074
 2842TIP3    H130085   2.665   3.262   2.297 -0.5009  2.0851 -0.9796
 2842TIP3    H230086   2.795   3.253   2.374 -1.7490  0.3457  1.0805
 2843TIP3   OH230087   1.794   6.095   0.835  0.2771  0.2224  0.0672
 2843TIP3    H130088   1.795   6.029   0.766 -1.7986 -1.0905  1.1956
 2843TIP3    H230089   1.839   6.054   0.909 -2.0873 -0.5523  1.1903
 2844TIP3   OH230090   3.919   2.503   7.514 -0.1884  0.1084 -0.2055
 2844TIP3    H130091   3.915   2.597   7.499 -2.9321 -0.3286 -3.4724
 2844TIP3    H230092   3.931   2.465   7.427 -3.7800 -2.5670  0.2158
 2845TIP3   OH230093   2.605   2.882   8.789 -0.9179  0.2504 -0.3485
 2845TIP3    H130094   2.698   2.901   8.803 -0.2219 -1.8066 -1.8088
 2845TIP3    H230095   2.596   2.789   8.812 -3.1166  0.8784  1.8139
 2846TIP3   OH230096   0.138   0.211   1.240  0.4533 -0.3580 -0.1315
 2846TIP3    H130097   0.052   0.230   1.202  0.1447  1.8099  1.4605
 2846TIP3    H230098   0.186   0.167   1.169 -1.7757 -1.1987 -1.2087
 2847TIP3   OH230099   2.863   2.418   2.876  0.2173  0.4104 -0.2416
 2847TIP3    H130100   2.958   2.406   2.875  0.1035 -0.5128 -0.6619
 2847TIP3    H230101   2.827   2.329   2.885 -0.6287  0.5923 -1.5265
 2848TIP3   OH230102   3.562   2.030   2.197  0.7246 -0.3957 -0.1144
 2848TIP3    H130103   3.605   1.978   2.131 -0.6065 -0.7499 -0.7396
 2848TIP3    H230104   3.468   2.021   2.178  0.3728  0.5509  1.0132
 2849TIP3   OH230105   6.277   0.765   6.471  0.6488  0.1294 -0.0466
 2849TIP3    H130106   6.198   0.711   6.477 -0.0543  1.1386 -0.0296
 2849TIP3    H230107   6.269   0.827   6.543  1.2219  0.5543 -0.3405
 2850TIP3   OH230108   4.221   5.412   7.970  0.2507 -0.0742  0.1328
 2850TIP3    H130109   4.202   5.488   7.916  0.4740  0.4964  0.8513
 2850TIP3    H230110   4.248   5.448   8.055  0.4755 -0.9450  0.4423
 2851TIP3   OH230111   6.344   1.792   0.023 -0.1237  0.0064 -0.3715
 2851TIP3    H130112   6.308   1.880   0.039 -3.0559 -1.1663  0.1926
 2851TIP3    H230113   6.296   1.736   0.084  1.6093 -2.0365 -0.7899
 2852TIP3   OH230114   4.801   1.023   0.060  0.0966  0.2871  0.0788
 2852TIP3    H130115   4.869   0.956   0.072 -0.7989 -0.4405  1.3188
 2852TIP3    H230116   4.736   0.981   0.004  0.2713  0.7032 -0.4467
 2853TIP3   OH230117   5.682   4.490   7.373 -1.0194 -0.2595 -0.2288
 2853TIP3    H130118   5.624   4.541   7.317 -1.6145 -1.5829 -0.8657
 2853TIP3    H230119   5.624   4.435   7.425 -0.3805 -1.3151 -0.5861
 2854TIP3   OH230120   4.085   2.081   1.923 -0.0997 -0.3902 -0.5858
 2854TIP3    H130121   4.015   2.018   1.940 -1.3898  1.0705 -0.2619
 2854TIP3    H230122   4.064   2.118   1.837  0.6629 -0.4238 -0.7936
 2855TIP3   OH230123   2.467   5.777   0.478  0.4532  0.0791  0.2346
 2855TIP3    H130124   2.489   5.726   0.400  0.5957 -0.1993  0.4587
 2855TIP3    H230125   2.508   5.862   0.463  0.3262  0.0872 -0.0787
 2856TIP3   OH230126   0.381   0.378   6.659  0.7235  0.0273  0.1981
 2856TIP3    H130127   0.379   0.424   6.575 -0.1767 -0.0062  0.1918
 2856TIP3    H230128   0.297   0.399   6.700  0.4091 -1.3663  0.3253
 2857TIP3   OH230129   4.799   3.561   8.503 -0.1354  0.0862 -0.6101
 2857TIP3    H130130   4.876   3.507   8.514 -1.3340 -1.4032  1.0150
 2857TIP3    H230131   4.818   3.641   8.553  0.6114  0.0583 -0.8371
 2858TIP3   OH230132   6.544   4.278   1.398 -0.2611  1.0431 -0.8218
 2858TIP3    H130133   6.616   4.220   1.371 -0.8648  0.0577 -0.3733
 2858TIP3    H230134   6.531   4.336   1.323  1.6760  1.9535 -0.5333
 2859TIP3   OH230135   0.643   5.433   0.234 -0.1603  0.0909  0.1490
 2859TIP3    H130136   0.646   5.337   0.227  1.3443  0.1182  0.1955
 2859TIP3    H230137   0.631   5.463   0.144  2.8409 -0.0780 -0.4087
 2860TIP3   OH230138   0.870   5.784   7.489  0.2859 -0.4980 -0.6501
 2860TIP3    H130139   0.937   5.847   7.516 -0.1983  0.2293 -1.0849
 2860TIP3    H230140   0.868   5.791   7.394  0.0856 -1.0364 -0.6866
 2861TIP3   OH230141   1.472   3.511   3.411  0.3220 -0.4522  0.1054
 2861TIP3    H130142   1.448   3.591   3.364 -0.5085 -0.2391  0.8562
 2861TIP3    H230143   1.567   3.515   3.418  0.2486  0.8234  0.7195
 2862TIP3   OH230144   6.591   3.931   0.620  0.5708  0.1666 -0.0477
 2862TIP3    H130145   6.523   3.940   0.553 -0.9842  1.8055  1.6527
 2862TIP3    H230146   6.657   3.874   0.579 -1.8010 -1.5666 -1.7398
 2863TIP3   OH230147   3.504   2.062   7.284 -0.3571 -0.1038  0.0755
 2863TIP3    H130148   3.516   2.155   7.267 -2.3099  0.5372  1.8419
 2863TIP3    H230149   3.488   2.024   7.198  1.7092  0.9183 -0.8337
 2864TIP3   OH230150   4.933   4.372   1.411 -0.2877 -0.0451  0.0705
 2864TIP3    H130151   4.911   4.464   1.393  1.0571  0.4172  0.7032
 2864TIP3    H230152   4.896   4.356   1.498 -0.4940 -0.1020 -0.0262
 2865TIP3   OH230153   4.132   5.484   7.041 -0.0439 -0.4458  0.4582
 2865TIP3    H130154   4.094   5.476   6.953  1.4655 -1.4797 -0.1399
 2865TIP3    H230155   4.168   5.573   7.043  0.9603 -0.8132 -0.4359
 2866TIP3   OH230156   2.848   4.728   8.164  0.2160 -0.3530 -0.3002
 2866TIP3    H130157   2.858   4.674   8.087 -0.5039  1.6384 -1.8826
 2866TIP3    H230158   2.756   4.757   8.161 -0.0908 -0.9291  1.8146
 2867TIP3   OH230159   2.992   1.524   1.659 -0.4381 -0.2679 -0.0994
 2867TIP3    H130160   2.956   1.435   1.661 -0.3362 -0.2998  0.4614
 2867TIP3    H230161   2.932   1.572   1.602 -0.1505 -0.8383 -0.9033
 2868TIP3   OH230162   4.931   5.920   1.869 -0.1075 -0.1148 -0.1879
 2868TIP3    H130163   4.841   5.890   1.883  0.1670 -0.3273  1.2503
 2868TIP3    H230164   4.940   5.923   1.774 -1.2056 -1.4219 -0.3734
 2869TIP3   OH230165   0.206   3.943   0.217 -0.5406 -0.1844 -0.1558
 2869TIP3    H130166   0.255   3.941   0.134  1.0379  1.2536  0.6561
 2869TIP3    H230167   0.173   3.854   0.228 -0.8953 -0.3909 -2.3660
 2870TIP3   OH230168   4.496   0.191   1.695  0.5569  0.1428  0.6652
 2870TIP3    H130169   4.587   0.199   1.667  1.1456 -1.3179  2.0104
 2870TIP3    H230170   4.445   0.226   1.622  2.2263  2.9387  0.6777
 2871TIP3   OH230171   5.716   5.587   0.358 -0.5488  0.3388 -0.6950
 2871TIP3    H130172   5.715   5.491   0.353  0.8041  0.2282  0.4463
 2871TIP3    H230173   5.787   5.613   0.299 -0.5281  0.5998 -0.5558
 2872TIP3   OH230174   4.840   4.592   0.677 -0.0133  0.0937  0.4385
 2872TIP3    H130175   4.869   4.681   0.656 -0.2995 -0.3491 -2.1517
 2872TIP3    H230176   4.746   4.592   0.659  0.0594 -0.8374  0.0309
 2873TIP3   OH230177   1.704   6.576   1.289 -0.4411 -0.0618  0.8909
 2873TIP3    H130178   1.640   6.553   1.356 -1.6582 -2.4130 -0.9162
 2873TIP3    H230179   1.788   6.552   1.327 -1.0093 -0.5015  1.8979
 2874TIP3   OH230180   3.819   5.884   1.625 -0.0461  0.1465  0.0048
 2874TIP3    H130181   3.821   5.816   1.692 -2.9121 -1.6195 -1.4791
 2874TIP3    H230182   3.746   5.941   1.652 -0.3408  0.1993 -0.8662
 2875TIP3   OH230183   2.659   6.786   7.960 -0.1773  0.0420 -0.1637
 2875TIP3    H130184   2.649   6.767   8.053  0.2216  2.0698  0.3323
 2875TIP3    H230185   2.690   6.876   7.957 -0.2108  0.0277 -2.2746
 2876TIP3   OH230186   0.748   2.442   2.850  0.4254  0.3414 -0.0198
 2876TIP3    H130187   0.700   2.466   2.770 -0.8491  0.6455  0.8133
 2876TIP3    H230188   0.769   2.350   2.839  1.8803  0.7990 -1.5042
 2877TIP3   OH230189   3.189   2.060   1.792  0.1761 -0.1405  0.1127
 2877TIP3    H130190   3.132   2.038   1.866  0.8678  0.6442  0.9046
 2877TIP3    H230191   3.219   1.976   1.759 -0.6805 -0.5290  0.2911
 2878TIP3   OH230192   3.360   2.650   0.620 -0.4448  0.1984  0.0109
 2878TIP3    H130193   3.390   2.575   0.670 -1.4767 -0.3836 -0.2044
 2878TIP3    H230194   3.378   2.628   0.529 -0.1986  0.4799 -0.0110
 2879TIP3   OH230195   3.272   6.445   0.373  0.1352 -0.3924 -0.4517
 2879TIP3    H130196   3.310   6.507   0.435  1.4309 -0.2594 -1.3362
 2879TIP3    H230197   3.270   6.362   0.419  2.1056 -0.5385 -0.5570
 2880TIP3   OH230198   5.492   1.396   7.286 -0.4346 -0.3785 -0.0698
 2880TIP3    H130199   5.422   1.401   7.220 -0.8051 -1.5010  0.2225
 2880TIP3    H230200   5.562   1.346   7.244 -0.1555 -0.0184 -0.0441
 2881TIP3   OH230201   6.365   0.851   2.698  0.0277  0.4800  0.7371
 2881TIP3    H130202   6.375   0.763   2.734 -1.7222  0.4760  1.2840
 2881TIP3    H230203   6.300   0.893   2.753 -0.4285  1.5359 -0.5422
 2882TIP3   OH230204   5.477   3.008   7.943 -0.2853 -0.0377 -0.8515
 2882TIP3    H130205   5.523   3.055   7.873 -2.0374  1.1530 -1.2487
 2882TIP3    H230206   5.423   2.944   7.898 -0.2033 -0.3770 -0.4768
 2883TIP3   OH230207   0.915   2.630   8.548  0.3226  0.0101 -0.0170
 2883TIP3    H130208   0.918   2.699   8.615 -1.1719 -0.7032  0.8388
 2883TIP3    H230209   0.984   2.654   8.487  1.4171  0.9829  1.5069
 2884TIP3   OH230210   2.608   1.764   1.293 -0.4885  0.2865 -0.7020
 2884TIP3    H130211   2.538   1.699   1.300 -0.1786 -0.1123 -1.2115
 2884TIP3    H230212   2.630   1.787   1.383 -0.7875 -0.1162 -0.5280
 2885TIP3   OH230213   2.009   5.628   1.405 -0.1772 -1.0232  0.3185
 2885TIP3    H130214   2.073   5.678   1.354  0.1805 -0.9417  0.8332
 2885TIP3    H230215   1.929   5.680   1.400  0.2675 -0.2137  1.0966
 2886TIP3   OH230216   0.767   4.945   0.248 -0.0361 -0.0339 -0.3705
 2886TIP3    H130217   0.702   4.887   0.206  0.3750 -2.2139  1.7564
 2886TIP3    H230218   0.764   5.025   0.196 -0.7572 -1.8747 -3.4715
 2887TIP3   OH230219   6.476   6.663   0.696 -0.4897 -0.9671  0.6401
 2887TIP3    H130220   6.388   6.637   0.722 -0.2629 -1.7082  0.6966
 2887TIP3    H230221   6.516   6.695   0.777 -1.7813  2.6685  0.0224
 2888TIP3   OH230222   2.106   4.964   8.266  0.2927  0.0966  0.4071
 2888TIP3    H130223   2.192   4.957   8.223  0.1544 -1.5580  0.3399
 2888TIP3    H230224   2.078   5.053   8.248  1.4725  0.2962 -0.5992
 2889TIP3   OH230225   5.712   1.064   2.698 -0.7547  0.2203 -0.0060
 2889TIP3    H130226   5.694   1.080   2.605  0.5327  1.8890 -0.0117
 2889TIP3    H230227   5.634   1.019   2.730 -1.5456  0.2807 -1.7168
 2890TIP3   OH230228   5.939   5.793   2.332 -0.2109  0.7118 -0.2918
 2890TIP3    H130229   5.988   5.864   2.373 -0.8876  1.7084 -1.1716
 2890TIP3    H230230   5.991   5.769   2.256 -0.9222  1.5848 -1.0728
 2891TIP3   OH230231   1.029   5.313   1.449  1.1004 -0.0767  0.6095
 2891TIP3    H130232   1.044   5.406   1.434  1.9592 -0.2582  0.2783
 2891TIP3    H230233   0.936   5.300   1.427  0.8839  0.7578  0.9940
 2892TIP3   OH230234   4.161   4.841   8.763  0.1442  0.3685  0.3153
 2892TIP3    H130235   4.242   4.878   8.727 -1.0051  2.1209 -0.6476
 2892TIP3    H230236   4.114   4.807   8.687 -0.0066 -0.7411  0.8791
 2893TIP3   OH230237   1.485   3.746   8.280 -0.0981 -0.0846 -0.5732
 2893TIP3    H130238   1.395   3.775   8.268 -0.4362 -0.9152 -0.0798
 2893TIP3    H230239   1.501   3.755   8.374 -0.3048 -1.7175 -0.3497
 2894TIP3   OH230240   1.553   5.428   0.833  0.3684  0.6509 -0.1684
 2894TIP3    H130241   1.489   5.467   0.892  1.1559 -0.3198  1.4086
 2894TIP3    H230242   1.615   5.382   0.891  1.8951  0.6758 -1.6805
 2895TIP3   OH230243   3.496   2.972   1.573 -0.3428 -0.1932 -0.0503
 2895TIP3    H130244   3.422   3.021   1.609  0.5062  0.4104  0.9096
 2895TIP3    H230245   3.458   2.921   1.501 -1.4550  1.0490 -0.3841
 2896TIP3   OH230246   6.804   2.906   0.444  0.3199 -0.1257 -0.2310
 2896TIP3    H130247   6.750   2.978   0.478  1.9476  0.7409  0.6662
 2896TIP3    H230248   6.864   2.949   0.382  0.4432 -0.9508 -0.6971
 2897TIP3   OH230249   1.734   3.210   2.077  0.6001  0.3600 -0.6279
 2897TIP3    H130250   1.726   3.188   1.985  0.6899  1.0049 -0.7965
 2897TIP3    H230251   1.807   3.157   2.108  1.7071  1.3949 -1.3556
 2898TIP3   OH230252   6.185   0.267   0.218  0.2035  0.6072  0.5015
 2898TIP3    H130253   6.253   0.257   0.152  0.3867  1.8529  0.4875
 2898TIP3    H230254   6.231   0.255   0.302  0.4786  1.5075  0.4956
 2899TIP3   OH230255   2.118   6.428   1.833 -0.4596  0.0708 -0.0977
 2899TIP3    H130256   2.091   6.342   1.802  0.3741 -0.0678 -0.4625
 2899TIP3    H230257   2.132   6.416   1.927  1.4277 -0.6815 -0.4328
 2900TIP3   OH230258   4.261   5.771   7.021  0.0326 -0.4005  0.5933
 2900TIP3    H130259   4.233   5.820   6.943  1.6468  0.7363  0.6698
 2900TIP3    H230260   4.238   5.828   7.094 -1.5064 -1.4821  0.9908
 2901TIP3   OH230261   3.025   2.975   7.682  0.1320 -0.5861 -0.0019
 2901TIP3    H130262   2.936   2.989   7.651  0.6195  0.6931 -0.9348
 2901TIP3    H230263   3.040   3.047   7.743  0.4747 -0.9001  0.2883
 2902TIP3   OH230264   3.918   2.684   7.883  0.0625 -0.0885 -0.0076
 2902TIP3    H130265   3.942   2.600   7.924  0.5924  0.2748  0.4441
 2902TIP3    H230266   3.897   2.741   7.957  1.8801  0.8456 -0.1675
 2903TIP3   OH230267   6.688   1.530   0.968  0.1697 -0.0775 -0.1740
 2903TIP3    H130268   6.688   1.613   0.920  0.7683 -0.9191 -1.7263
 2903TIP3    H230269   6.617   1.480   0.928 -1.5873  0.3724  2.1510
 2904TIP3   OH230270   6.350   2.783   7.246 -0.5034 -0.5059  0.1688
 2904TIP3    H130271   6.390   2.710   7.198  1.8151 -0.5795  2.0358
 2904TIP3    H230272   6.387   2.861   7.206 -2.3141 -0.2937 -1.2455
 2905TIP3   OH230273   6.145   0.748   8.647  0.0066 -0.5209 -0.4569
 2905TIP3    H130274   6.107   0.670   8.688  0.3360 -0.5624 -0.2303
 2905TIP3    H230275   6.235   0.724   8.626  0.1634 -0.1451 -0.2299
 2906TIP3   OH230276   1.750   6.283   7.334 -0.3316 -0.0118 -0.8599
 2906TIP3    H130277   1.671   6.322   7.372 -0.1637 -1.2306  0.8899
 2906TIP3    H230278   1.822   6.328   7.377 -0.0737  0.3069 -1.6090
 2907TIP3   OH230279   2.734   6.449   1.040  0.3610 -0.8747  0.3301
 2907TIP3    H130280   2.709   6.457   0.948  4.0874  1.9788 -0.6828
 2907TIP3    H230281   2.651   6.454   1.088 -1.5315  0.7457 -2.7687
 2908TIP3   OH230282   2.224   5.774   1.259  0.3870  0.5815 -0.4752
 2908TIP3    H130283   2.185   5.861   1.253 -1.8981 -0.1624  1.6185
 2908TIP3    H230284   2.290   5.781   1.327  0.7895  0.8485 -0.8901
 2909TIP3   OH230285   1.575   1.716   1.148  0.3084  0.2547 -0.2569
 2909TIP3    H130286   1.626   1.766   1.085 -1.6786 -0.8454 -2.9541
 2909TIP3    H230287   1.639   1.668   1.199  2.0187  0.1748 -2.3552
 2910TIP3   OH230288   4.290   6.291   2.404  0.1190 -0.2526  0.3288
 2910TIP3    H130289   4.351   6.240   2.457  0.7633  1.1958  1.0456
 2910TIP3    H230290   4.223   6.229   2.378  0.0366 -1.1318  2.4562
 2911TIP3   OH230291   2.422   0.641   1.058  0.2979 -0.1531  0.4282
 2911TIP3    H130292   2.340   0.598   1.036 -0.5651  0.6741  1.8595
 2911TIP3    H230293   2.489   0.573   1.047 -0.6364 -0.9948 -0.2214
 2912TIP3   OH230294   3.131   2.392   1.803 -0.0436  0.3965 -0.0309
 2912TIP3    H130295   3.058   2.331   1.788  0.5928 -0.2425 -0.6104
 2912TIP3    H230296   3.164   2.368   1.890 -0.1255  0.2661 -0.0344
 2913TIP3   OH230297   2.759   1.794   0.444 -0.1793  0.3961  0.1309
 2913TIP3    H130298   2.805   1.808   0.361 -1.7006  0.2907 -0.7872
 2913TIP3    H230299   2.674   1.758   0.417 -0.3301 -0.5834  1.8043
 2914TIP3   OH230300   5.319   1.263   1.848 -0.6134  0.1076 -0.1360
 2914TIP3    H130301   5.243   1.228   1.894  0.0031 -1.3290 -0.1439
 2914TIP3    H230302   5.321   1.356   1.872 -0.4257 -0.5120  2.6771
 2915TIP3   OH230303   4.786   4.400   7.753 -0.5380  0.0971 -0.3872
 2915TIP3    H130304   4.710   4.356   7.792 -0.0665 -0.7714 -0.4279
 2915TIP3    H230305   4.779   4.491   7.783 -1.1087 -0.1738  0.3334
 2916TIP3   OH230306   0.032   3.854   8.787  0.2334  0.4470 -0.0560
 2916TIP3    H130307  -0.059   3.842   8.758  0.2369  0.4195 -0.0559
 2916TIP3    H230308   0.081   3.870   8.706  0.1970  0.6532 -0.0375
 2917TIP3   OH230309   5.274   0.230   0.205 -0.4660  0.0445 -0.2140
 2917TIP3    H130310   5.252   0.319   0.178  0.7845  0.2377 -0.6917
 2917TIP3    H230311   5.191   0.191   0.229 -0.8656  1.8974  1.7383
 2918TIP3   OH230312   1.492   3.027   8.652  0.0757  0.8532 -0.1655
 2918TIP3    H130313   1.448   3.108   8.623 -0.3334 -0.0943 -2.4608
 2918TIP3    H230314   1.585   3.046   8.643 -0.0335  0.7773 -1.7502
 2919TIP3   OH230315   1.488   0.762   1.898  0.3734 -0.0402 -0.1002
 2919TIP3    H130316   1.415   0.825   1.898  0.9356  0.7324  2.7357
 2919TIP3    H230317   1.557   0.806   1.849 -0.1425  0.4146 -0.4301
 2920TIP3   OH230318   4.808   1.197   2.004  0.3661 -0.0252 -0.2066
 2920TIP3    H130319   4.787   1.172   2.093 -1.2685  2.1540  0.1001
 2920TIP3    H230320   4.759   1.136   1.949  0.0641 -0.3303  0.3959
 2921TIP3   OH230321   0.776   0.377   7.961 -0.0343 -0.6289  0.7867
 2921TIP3    H130322   0.829   0.448   7.925 -0.8344 -0.2962  0.2398
 2921TIP3    H230323   0.802   0.300   7.911  0.2529 -0.5632  0.8315
 2922TIP3   OH230324   0.154   6.293   8.704 -0.0548 -0.4249  0.1391
 2922TIP3    H130325   0.095   6.367   8.718  1.3034  0.5799  0.8561
 2922TIP3    H230326   0.238   6.323   8.740  1.0965 -1.5007 -1.5199
 2923TIP3   OH230327   3.778   4.601   1.465  0.1887 -0.2087  0.2181
 2923TIP3    H130328   3.759   4.561   1.550 -1.7673 -0.2039 -0.1545
 2923TIP3    H230329   3.703   4.659   1.450  0.0698 -0.8398 -1.8626
 2924TIP3   OH230330   0.163   2.571   2.444  0.2514 -0.0750 -0.4496
 2924TIP3    H130331   0.205   2.506   2.387  2.5410  0.7351  0.1805
 2924TIP3    H230332   0.223   2.578   2.519 -2.3801 -0.7307  1.8466
 2925TIP3   OH230333   1.893   4.468   2.732  0.3651  0.0896 -0.2242
 2925TIP3    H130334   1.883   4.392   2.790 -0.5897  1.2562  1.2096
 2925TIP3    H230335   1.809   4.474   2.687  0.5077  0.2003 -0.4763
 2926TIP3   OH230336   5.397   2.240   7.678  0.3107  0.3540 -0.0227
 2926TIP3    H130337   5.362   2.308   7.736  0.0931 -0.5571  0.9449
 2926TIP3    H230338   5.353   2.254   7.595 -0.2049  1.0061  0.3513
 2927TIP3   OH230339   0.019   5.640   0.489 -0.1634 -0.4648  0.1158
 2927TIP3    H130340   0.097   5.589   0.464  1.1971  1.0481  1.0277
 2927TIP3    H230341   0.007   5.702   0.418 -0.8699 -1.0215 -0.2611
 2928TIP3   OH230342   5.807   4.703   1.363 -0.0599  0.5478 -0.4665
 2928TIP3    H130343   5.766   4.636   1.418 -0.0889 -0.6742 -1.9115
 2928TIP3    H230344   5.897   4.707   1.394  0.0554 -0.4797 -0.6500
 2929TIP3   OH230345   4.862   6.634   1.944  0.3622  0.0333 -0.1978
 2929TIP3    H130346   4.847   6.697   2.014 -1.0109  0.5373 -0.9192
 2929TIP3    H230347   4.846   6.549   1.985  0.3315  0.2731  0.2962
 2930TIP3   OH230348   0.954   3.743   8.204 -0.2721  0.3019  0.0623
 2930TIP3    H130349   0.899   3.756   8.126  0.6881 -3.2877 -1.4296
 2930TIP3    H230350   0.927   3.658   8.238  2.2035 -0.1182  1.1677
 2931TIP3   OH230351   4.832   2.593   1.841 -0.1108 -0.5432  0.1663
 2931TIP3    H130352   4.778   2.544   1.903 -0.5120 -1.5638 -0.9551
 2931TIP3    H230353   4.922   2.574   1.868 -0.2640 -1.8533 -0.1965
 2932TIP3   OH230354   0.289   2.481   0.945 -0.7492 -0.8094 -0.2052
 2932TIP3    H130355   0.365   2.537   0.929 -2.4405  1.4253 -0.9295
 2932TIP3    H230356   0.260   2.505   1.033 -1.9789  0.1485 -0.8388
 2933TIP3   OH230357   2.529   4.630   7.602  0.3473  0.1406  0.2602
 2933TIP3    H130358   2.456   4.569   7.599 -1.3126  1.9392  1.4234
 2933TIP3    H230359   2.541   4.658   7.511  0.1182 -0.7460 -0.0498
 2934TIP3   OH230360   4.036   5.547   0.492  0.5399 -0.2171  0.8199
 2934TIP3    H130361   3.942   5.564   0.487  0.5590  0.1845  1.8106
 2934TIP3    H230362   4.059   5.561   0.583  1.6341  0.0080  0.5239
 2935TIP3   OH230363   1.351   6.175   6.786 -0.3760  0.1888  0.0006
 2935TIP3    H130364   1.337   6.236   6.713  0.3679 -0.3288 -0.5990
 2935TIP3    H230365   1.388   6.097   6.745  1.6947  0.5127  1.1078
 2936TIP3   OH230366   6.568   5.403   7.821  0.1607  0.1415  0.4166
 2936TIP3    H130367   6.534   5.415   7.732 -1.7170 -1.5861  0.8061
 2936TIP3    H230368   6.496   5.430   7.878  0.2322 -1.4661  1.3329
 2937TIP3   OH230369   3.771   3.705   1.016 -0.0863  0.0339  0.7966
 2937TIP3    H130370   3.836   3.641   1.046  1.4964  1.5708  0.7797
 2937TIP3    H230371   3.710   3.654   0.962 -1.1932 -2.2210  3.8825
 2938TIP3   OH230372   3.362   5.069   8.735 -0.4415 -0.5424 -0.0080
 2938TIP3    H130373   3.329   5.153   8.765  1.5112  0.9014 -1.6776
 2938TIP3    H230374   3.285   5.022   8.704 -1.4889  0.8118  0.4881
 2939TIP3   OH230375   2.039   4.093   1.511  0.3194  0.1226 -0.0831
 2939TIP3    H130376   2.134   4.100   1.504  0.4403  2.1910  2.1695
 2939TIP3    H230377   2.008   4.085   1.421  2.3819  3.5913 -1.2686
 2940TIP3   OH230378   6.533   5.487   0.419  0.0814  0.0825  0.1495
 2940TIP3    H130379   6.502   5.457   0.333 -2.5105  2.1843  0.2290
 2940TIP3    H230380   6.620   5.524   0.401  0.4615 -1.3281 -1.1354
 2941TIP3   OH230381   2.857   2.732   0.930 -0.1046  0.2856 -0.1509
 2941TIP3    H130382   2.946   2.718   0.961  1.0840  1.4231 -2.7413
 2941TIP3    H230383   2.801   2.703   1.002  2.3149 -1.4941  1.1446
 2942TIP3   OH230384   5.885   4.464   8.545  0.2797  0.3194  0.0354
 2942TIP3    H130385   5.937   4.512   8.479 -2.7683  1.2153 -1.9433
 2942TIP3    H230386   5.864   4.381   8.503 -0.0346  0.0385  0.7364
 2943TIP3   OH230387   0.963   3.632   7.106  0.3867  0.4607 -0.4092
 2943TIP3    H130388   0.871   3.654   7.096  0.4388  1.2437  0.7142
 2943TIP3    H230389   0.965   3.537   7.120 -0.2943  0.5422  0.2354
 2944TIP3   OH230390   3.070   5.301   8.080 -0.2305 -0.9704  0.1526
 2944TIP3    H130391   3.085   5.304   7.985  0.1058  1.4969  0.2197
 2944TIP3    H230392   2.987   5.345   8.092 -0.3824 -1.4785  1.0136
 2945TIP3   OH230393   2.569   3.734   0.117 -0.0470 -0.0523  0.5017
 2945TIP3    H130394   2.499   3.683   0.157 -0.1693 -0.4557 -0.2185
 2945TIP3    H230395   2.538   3.825   0.123 -0.5170 -0.2053  0.4049
 2946TIP3   OH230396   4.398   0.304   1.454  0.0380  0.6220  0.4552
 2946TIP3    H130397   4.305   0.304   1.475 -0.3083 -0.8139 -0.8735
 2946TIP3    H230398   4.401   0.316   1.359  1.3112  2.5794  0.7010
 2947TIP3   OH230399   2.205   6.080   7.344  0.7192  0.4352  0.6560
 2947TIP3    H130400   2.163   6.166   7.335 -4.0298 -1.5794  0.8967
 2947TIP3    H230401   2.210   6.046   7.255 -1.7993 -0.7572  0.9001
 2948TIP3   OH230402   4.507   3.607   2.842  0.7899 -0.1810 -0.3097
 2948TIP3    H130403   4.512   3.586   2.936  0.0791  0.1163 -0.1990
 2948TIP3    H230404   4.474   3.526   2.802 -0.7130  0.2687 -0.0483
 2949TIP3   OH230405   1.869   5.188   1.314  0.5974 -0.5981  0.1125
 2949TIP3    H130406   1.819   5.214   1.392  0.5924 -2.0643  0.6224
 2949TIP3    H230407   1.868   5.092   1.315  1.8440 -0.6511 -0.8963
 2950TIP3   OH230408   1.196   2.028   8.757  0.3593 -0.7081 -0.1665
 2950TIP3    H130409   1.168   2.117   8.778 -0.9321 -0.5508 -2.2556
 2950TIP3    H230410   1.277   2.016   8.807  0.6184  1.6685  0.1164
 2951TIP3   OH230411   4.026   4.905   1.050 -0.1390 -0.2766  0.1284
 2951TIP3    H130412   3.972   4.867   1.119 -0.6111 -0.4032 -0.3010
 2951TIP3    H230413   3.975   4.980   1.018  0.0160 -0.2991 -0.1746
 2952TIP3   OH230414   3.531   1.360   8.225  0.1825 -0.0980  0.2358
 2952TIP3    H130415   3.521   1.451   8.255 -1.6449  0.1504 -0.9298
 2952TIP3    H230416   3.443   1.323   8.234  0.3493 -1.0156 -1.4980
 2953TIP3   OH230417   1.276   2.330   8.784 -0.1076  0.0699  0.1680
 2953TIP3    H130418   1.335   2.382   8.731 -0.5367 -0.2841 -0.6867
 2953TIP3    H230419   1.193   2.329   8.735 -0.6054 -0.0275  0.9835
 2954TIP3   OH230420   5.611   4.290   0.302  0.2687 -0.0539 -0.6696
 2954TIP3    H130421   5.597   4.373   0.255  1.3967  0.6172  0.1107
 2954TIP3    H230422   5.694   4.257   0.267 -0.0397 -0.7286 -0.7774
 2955TIP3   OH230423   0.167   5.297   0.628  0.1533 -0.0683  0.1736
 2955TIP3    H130424   0.131   5.217   0.666  2.1873 -0.7379  0.8513
 2955TIP3    H230425   0.182   5.354   0.703  0.0499  0.3911 -0.1498
 2956TIP3   OH230426   1.227   6.278   7.957 -0.7736 -0.1865  0.3276
 2956TIP3    H130427   1.138   6.267   7.925 -1.0715  0.3410  0.9636
 2956TIP3    H230428   1.236   6.211   8.026 -0.7010 -0.1879  0.3172
 2957TIP3   OH230429   0.557   1.416   1.253  0.7235 -0.3035 -0.0311
 2957TIP3    H130430   0.593   1.504   1.266 -2.0064  1.0529 -0.8819
 2957TIP3    H230431   0.616   1.376   1.189  2.3762  0.6326  0.8364
 2958TIP3   OH230432   1.543   1.201   2.095  0.6000  0.6537  0.1621
 2958TIP3    H130433   1.592   1.154   2.028 -0.8354 -0.7915  0.0580
 2958TIP3    H230434   1.571   1.292   2.087  0.9804  0.3909 -1.9197
 2959TIP3   OH230435   5.495   2.202   2.154  0.0926 -0.2128  0.5157
 2959TIP3    H130436   5.515   2.293   2.129  1.9386 -0.8587 -0.6041
 2959TIP3    H230437   5.451   2.166   2.077  0.1198 -0.4982  0.6348
 2960TIP3   OH230438   1.396   0.534   1.273  0.2787  0.4103  0.3384
 2960TIP3    H130439   1.476   0.585   1.286  1.7993 -1.8930  0.6032
 2960TIP3    H230440   1.400   0.465   1.339 -1.1617 -0.6655 -0.6313
 2961TIP3   OH230441   0.084   0.190   8.186  0.2728  0.3916 -0.2957
 2961TIP3    H130442  -0.011   0.193   8.186  0.2802  0.7372 -0.6933
 2961TIP3    H230443   0.109   0.184   8.094  0.6372  0.4717 -0.2078
 2962TIP3   OH230444   6.407   6.116   1.084  0.3098 -0.2383  0.1195
 2962TIP3    H130445   6.483   6.083   1.131  1.7011  2.2339 -0.2348
 2962TIP3    H230446   6.373   6.187   1.140 -0.6135 -0.0793 -0.6111
 2963TIP3   OH230447   2.426   3.069   1.575 -0.0920 -0.1646  0.0814
 2963TIP3    H130448   2.515   3.092   1.604  1.1047 -3.1018 -0.8966
 2963TIP3    H230449   2.386   3.028   1.652  0.1446 -0.6265 -0.0363
 2964TIP3   OH230450   3.543   5.091   0.891  0.1746  0.3735 -0.1908
 2964TIP3    H130451   3.520   4.999   0.905  1.3974  0.0155 -0.3966
 2964TIP3    H230452   3.500   5.113   0.808 -1.1065  0.3640  0.4408
 2965TIP3   OH230453   1.232   2.616   1.091 -0.0252  0.2756  0.2999
 2965TIP3    H130454   1.261   2.641   1.004  2.2717 -0.0402  0.9029
 2965TIP3    H230455   1.169   2.545   1.077 -0.8351  1.2362 -1.1135
 2966TIP3   OH230456   1.331   0.885   0.326  0.0006 -0.2348  0.7328
 2966TIP3    H130457   1.326   0.932   0.243  2.3955  1.3022  1.3419
 2966TIP3    H230458   1.395   0.816   0.311 -0.7230 -0.9399  0.8749
 2967TIP3   OH230459   2.901   3.583   1.111 -0.3505  0.2760  0.2173
 2967TIP3    H130460   2.961   3.650   1.144  2.0039 -1.5954  0.0181
 2967TIP3    H230461   2.922   3.575   1.018 -0.6332 -0.6405  0.2143
 2968TIP3   OH230462   2.659   0.945   1.892 -0.4031  1.0068  0.2138
 2968TIP3    H130463   2.650   0.980   1.804  0.7919  2.1120  0.4938
 2968TIP3    H230464   2.687   0.855   1.880 -1.5673  0.7235 -0.5207
 2969TIP3   OH230465   1.858   5.971   8.082 -0.4448  0.3524  0.0469
 2969TIP3    H130466   1.916   5.925   8.022 -0.6578  0.2804 -0.1044
 2969TIP3    H230467   1.878   6.063   8.070 -0.7442  0.3602 -0.3999
 2970TIP3   OH230468   6.342   4.381   1.955  0.2239 -0.7770 -1.1988
 2970TIP3    H130469   6.316   4.321   1.886  1.8839 -1.0809 -1.6109
 2970TIP3    H230470   6.414   4.431   1.916  0.8135 -0.5716  0.1256
 2971TIP3   OH230471   2.928   0.230   0.775  0.3073 -0.2241 -0.5040
 2971TIP3    H130472   2.910   0.243   0.868  2.1663 -1.6433  0.1265
 2971TIP3    H230473   2.983   0.305   0.752  1.1114 -0.6475 -0.0263
 2972TIP3   OH230474   0.564   3.484   8.757  0.3795  0.2371  0.7377
 2972TIP3    H130475   0.533   3.503   8.846 -1.5147  0.6304  0.0409
 2972TIP3    H230476   0.561   3.568   8.712  0.7734 -0.0656  0.1386
 2973TIP3   OH230477   5.371   4.618   7.536 -0.4970  0.2566 -0.2201
 2973TIP3    H130478   5.436   4.632   7.605 -1.1589 -0.8824  0.6749
 2973TIP3    H230479   5.396   4.534   7.496 -0.4882  0.6020 -0.9662
 2974TIP3   OH230480   3.178   4.844   2.802 -0.1098 -0.1360  0.5198
 2974TIP3    H130481   3.259   4.792   2.806 -0.0153 -0.0035  0.3525
 2974TIP3    H230482   3.128   4.803   2.731  0.9797  1.4318 -1.2369
 2975TIP3   OH230483   2.242   3.041   8.166 -0.1278 -0.9801 -0.4985
 2975TIP3    H130484   2.192   2.979   8.112  0.0336 -2.0259  0.4931
 2975TIP3    H230485   2.222   3.127   8.130 -1.7392 -1.4720 -0.8522
 2976TIP3   OH230486   4.587   4.005   8.702 -0.1770 -0.1168  0.4861
 2976TIP3    H130487   4.497   3.973   8.696 -0.7243  1.5374 -0.8590
 2976TIP3    H230488   4.605   4.009   8.796 -1.8962  0.5200  0.8180
 2977TIP3   OH230489   0.227   3.109   0.775 -0.1743  0.3475 -0.3365
 2977TIP3    H130490   0.219   3.042   0.842  1.2338  2.2148  1.8516
 2977TIP3    H230491   0.141   3.151   0.772  0.0058  0.8877  1.1060
 2978TIP3   OH230492   5.167   5.449   6.969 -0.9597 -0.5801  0.0279
 2978TIP3    H130493   5.244   5.399   6.994 -0.7410 -0.3534 -0.1903
 2978TIP3    H230494   5.109   5.386   6.926 -1.5468 -1.0888  1.5017
 2979TIP3   OH230495   5.480   6.395   8.729  0.5880 -0.2593  0.4440
 2979TIP3    H130496   5.533   6.469   8.758  1.6757 -0.9916  0.3757
 2979TIP3    H230497   5.398   6.434   8.699  0.8848  0.8465  1.0411
 2980TIP3   OH230498   6.773   1.983   2.203  0.1595 -0.0541  0.4295
 2980TIP3    H130499   6.740   2.056   2.150  0.0070 -0.1634  0.3716
 2980TIP3    H230500   6.797   2.023   2.287  0.3062  0.1023  0.3129
 2981TIP3   OH230501   4.556   4.605   0.709 -0.2634  0.0970 -0.1371
 2981TIP3    H130502   4.569   4.644   0.796  1.6424 -1.1908  0.2329
 2981TIP3    H230503   4.495   4.532   0.725 -1.2992  0.9284 -0.2319
 2982TIP3   OH230504   0.486   0.509   1.018 -0.3682  0.3329  0.3701
 2982TIP3    H130505   0.574   0.504   0.979  1.3988  0.8815  3.8663
 2982TIP3    H230506   0.466   0.418   1.043 -1.0382  0.1361 -0.8444
 2983TIP3   OH230507   5.344   1.153   1.583  0.0189  0.3696  0.1219
 2983TIP3    H130508   5.276   1.087   1.596 -0.2315  0.6737  0.3884
 2983TIP3    H230509   5.357   1.191   1.670  1.7622 -0.8557  0.4476
 2984TIP3   OH230510   1.670   4.226   8.183 -0.2016 -0.3366  0.0666
 2984TIP3    H130511   1.624   4.279   8.247  0.9505  0.3118  0.3793
 2984TIP3    H230512   1.740   4.282   8.151  1.0503 -1.6552  0.3953
 2985TIP3   OH230513   3.427   6.375   0.133 -0.3136  0.4277 -0.2745
 2985TIP3    H130514   3.393   6.461   0.107 -0.2508  0.8509  1.0102
 2985TIP3    H230515   3.384   6.355   0.216  1.1569  0.1328  0.4579
 2986TIP3   OH230516   2.080   6.453   8.435  0.5705  0.2681  0.3454
 2986TIP3    H130517   2.117   6.511   8.502  2.8676 -0.2755 -0.3807
 2986TIP3    H230518   2.137   6.464   8.359 -1.7695  0.6294 -1.4977
 2987TIP3   OH230519   2.158   2.439   2.537  0.0365 -0.0174 -0.0787
 2987TIP3    H130520   2.078   2.398   2.570  0.4530 -0.7970 -0.0202
 2987TIP3    H230521   2.206   2.368   2.495  0.9322  0.3335  0.3343
 2988TIP3   OH230522   6.074   1.670   8.581 -0.1915 -0.2092  0.0311
 2988TIP3    H130523   6.033   1.751   8.550  0.1778 -0.5257 -1.3560
 2988TIP3    H230524   6.002   1.617   8.614 -0.5678  0.2901  0.0125
 2989TIP3   OH230525   0.988   5.980   7.955  0.1833 -0.6290 -0.0452
 2989TIP3    H130526   1.027   5.953   8.038 -2.5221 -4.1599  0.3560
 2989TIP3    H230527   1.034   5.928   7.888 -0.1298 -0.6496 -0.2489
 2990TIP3   OH230528   4.748   0.015   2.111 -0.5129 -0.3997  0.1165
 2990TIP3    H130529   4.799   0.068   2.172 -0.5464  1.7265 -1.6074
 2990TIP3    H230530   4.659   0.015   2.147 -0.1545 -0.8164  1.0449
 2991TIP3   OH230531   5.995   0.474   7.921  0.5512  0.2781  0.4255
 2991TIP3    H130532   6.031   0.427   7.996  0.9657 -1.0776 -0.5950
 2991TIP3    H230533   5.911   0.508   7.952  0.0337 -1.5052  1.0863
 2992TIP3   OH230534   0.602   2.373   1.820 -0.1816 -0.0355 -0.5119
 2992TIP3    H130535   0.653   2.294   1.800  0.4584  0.1527  0.3015
 2992TIP3    H230536   0.610   2.382   1.915 -0.2818  0.9849 -0.5970
 2993TIP3   OH230537   0.140   5.330   2.645  0.7701  0.1791 -0.4038
 2993TIP3    H130538   0.077   5.315   2.574  1.4389  2.1744 -1.4943
 2993TIP3    H230539   0.085   5.349   2.721  0.0516 -1.1291 -0.5593
 2994TIP3   OH230540   2.474   5.397   0.208 -0.5989  0.2196 -0.3835
 2994TIP3    H130541   2.419   5.387   0.130 -1.4151  0.4119  0.1480
 2994TIP3    H230542   2.417   5.372   0.281  0.4185 -0.7854  0.0918
 2995TIP3   OH230543   4.504   5.675   0.125 -0.1825 -0.2450  0.1483
 2995TIP3    H130544   4.593   5.674   0.088  0.8044  2.6725  2.0943
 2995TIP3    H230545   4.471   5.762   0.103 -2.3393 -1.0377  0.0645
 2996TIP3   OH230546   6.310   6.360   0.232  0.0906 -0.4901 -0.4357
 2996TIP3    H130547   6.378   6.298   0.257  0.8509  1.3228  2.4120
 2996TIP3    H230548   6.338   6.443   0.270 -2.4219  0.9350 -1.4491
 2997TIP3   OH230549   0.593   6.013   0.609  0.0918  0.4133 -0.0908
 2997TIP3    H130550   0.522   6.052   0.661 -0.3381 -2.7660  1.9461
 2997TIP3    H230551   0.673   6.047   0.648 -0.2768  0.4101  0.6754
 2998TIP3   OH230552   0.868   0.604   2.617 -0.2480  0.3307 -0.0997
 2998TIP3    H130553   0.856   0.675   2.680  0.8315 -0.2125  0.7481
 2998TIP3    H230554   0.811   0.627   2.544 -1.8621  0.7764  1.2350
 2999TIP3   OH230555   3.457   3.233   7.812 -0.0597  0.2859 -0.1464
 2999TIP3    H130556   3.478   3.149   7.772 -1.2423 -0.6653  1.1033
 2999TIP3    H230557   3.502   3.231   7.897  1.3978  1.7271 -0.8270
 3000TIP3   OH230558   1.087   2.911   2.799 -0.0240  0.3237 -0.4378
 3000TIP3    H130559   1.057   2.829   2.759 -3.5445  0.7394  1.0085
 3000TIP3    H230560   1.097   2.891   2.892  1.3828  1.0343 -0.4040
 3001TIP3   OH230561   0.999   0.368   1.276  0.1846  0.4433 -0.0982
 3001TIP3    H130562   1.079   0.325   1.248  0.7092  0.9068  0.6749
 3001TIP3    H230563   0.938   0.296   1.293  0.0575  0.1189 -1.7400
 3002TIP3   OH230564   0.385   3.280   0.645  0.0781  0.6177 -0.0063
 3002TIP3    H130565   0.467   3.283   0.695  0.0526  0.1157  0.0735
 3002TIP3    H230566   0.319   3.254   0.709  0.4735 -2.7074 -0.7586
 3003TIP3   OH230567   5.592   2.543   1.057 -0.3048 -0.3518 -0.8215
 3003TIP3    H130568   5.506   2.565   1.094  0.2522  0.8575 -0.2032
 3003TIP3    H230569   5.618   2.464   1.104  0.2868  1.0230  1.3289
 3004TIP3   OH230570   5.813   0.832   0.295  0.9325 -0.1254 -0.3801
 3004TIP3    H130571   5.786   0.825   0.204 -0.6879 -1.1550  0.1478
 3004TIP3    H230572   5.734   0.859   0.342  1.2028 -1.5675  0.9834
 3005TIP3   OH230573   5.689   5.160   7.242  0.5571  0.2328  0.1734
 3005TIP3    H130574   5.697   5.106   7.321  0.9942 -2.0373 -1.2970
 3005TIP3    H230575   5.749   5.119   7.180  0.9406  2.5214 -1.0661
 3006TIP3   OH230576   4.237   2.595   0.520  0.6642  0.4211  0.3404
 3006TIP3    H130577   4.195   2.519   0.560 -0.5333  1.8390  1.9071
 3006TIP3    H230578   4.325   2.565   0.498  0.0574 -1.5568  0.4207
 3007TIP3   OH230579   3.241   3.332   8.728 -0.2256 -0.1940 -0.0346
 3007TIP3    H130580   3.313   3.390   8.704 -1.2171  0.5282 -1.3671
 3007TIP3    H230581   3.192   3.380   8.794 -1.7104  1.0642 -1.9622
 3008TIP3   OH230582   2.680   0.102   2.998  0.6184  0.0372 -0.2747
 3008TIP3    H130583   2.700   0.112   2.905  0.6710 -1.0527 -0.3996
 3008TIP3    H230584   2.646   0.012   3.006 -1.1877  0.7264  0.4522
 3009TIP3   OH230585   0.459   4.466   7.281 -0.2151 -0.2871 -0.6001
 3009TIP3    H130586   0.376   4.505   7.256 -0.4326 -1.1304 -1.2741
 3009TIP3    H230587   0.525   4.519   7.236 -0.5149 -0.7709 -1.6541
 3010TIP3   OH230588   3.197   4.498   7.848  0.5558  0.2516  0.8645
 3010TIP3    H130589   3.272   4.523   7.793  0.7027  1.0500  1.4110
 3010TIP3    H230590   3.172   4.411   7.816  0.2087  0.9518 -0.9326
 3011TIP3   OH230591   6.462   5.451   0.706  0.2236 -0.0411 -0.0263
 3011TIP3    H130592   6.490   5.476   0.618 -1.5949  0.8036 -0.4136
 3011TIP3    H230593   6.385   5.505   0.723  1.4043  0.9776  2.7314
 3012TIP3   OH230594   2.563   5.516   1.238  0.0283  0.2197 -0.3904
 3012TIP3    H130595   2.600   5.443   1.287  0.5960  0.0598 -1.0512
 3012TIP3    H230596   2.472   5.492   1.223  0.2816 -0.4667 -0.8339
 3013TIP3   OH230597   3.772   1.993   7.070 -0.1374  0.0258  0.2670
 3013TIP3    H130598   3.789   1.955   6.984 -0.9601  0.8198 -0.2542
 3013TIP3    H230599   3.735   1.920   7.121  0.2728 -0.4212 -0.0654
 3014TIP3   OH230600   0.675   6.794   1.908  0.1825  0.1713 -0.0483
 3014TIP3    H130601   0.649   6.752   1.990 -1.9926  1.7480  0.1391
 3014TIP3    H230602   0.697   6.721   1.850 -0.1974 -1.0581  1.2975
 3015TIP3   OH230603   4.879   1.169   2.469 -0.3229  0.3003 -0.2653
 3015TIP3    H130604   4.970   1.172   2.499 -0.1536  1.1401 -0.8223
 3015TIP3    H230605   4.856   1.260   2.454 -2.0265  0.3393  2.0650
 3016TIP3   OH230606   4.849   2.010   1.583  0.1330 -0.2104  0.1303
 3016TIP3    H130607   4.796   1.952   1.637  0.9674 -0.4098  0.7550
 3016TIP3    H230608   4.926   1.958   1.559 -0.2959 -0.1746 -1.3956
 3017TIP3   OH230609   0.827   3.806   0.634 -0.1450 -0.2652 -0.3543
 3017TIP3    H130610   0.894   3.865   0.668  1.3764 -1.9089 -0.3820
 3017TIP3    H230611   0.744   3.848   0.658  0.8689  1.6571 -0.0283
 3018TIP3   OH230612   0.483   5.838   0.190  0.0525 -0.0499  0.0202
 3018TIP3    H130613   0.491   5.858   0.097 -1.3508 -1.6947 -0.5105
 3018TIP3    H230614   0.447   5.918   0.229  1.2430  0.8701 -0.7025
 3019TIP3   OH230615   6.107   0.097   6.709  0.2204  0.0148 -0.2006
 3019TIP3    H130616   6.029   0.088   6.763  0.9142  1.3868  1.1123
 3019TIP3    H230617   6.095   0.034   6.638 -1.6257 -0.4597  0.4823
 3020TIP3   OH230618   6.353   5.307   1.022 -0.0533 -0.1017 -0.1222
 3020TIP3    H130619   6.331   5.229   0.972 -0.0347 -0.0759 -0.1718
 3020TIP3    H230620   6.275   5.362   1.017  0.4525  0.5491 -1.3878
 3021TIP3   OH230621   6.559   3.316   0.916  0.0671 -0.4592  0.2738
 3021TIP3    H130622   6.547   3.405   0.881 -1.4291 -0.1654  1.4237
 3021TIP3    H230623   6.530   3.322   1.007 -0.8126 -2.2997  0.1617
 3022TIP3   OH230624   4.017   1.387   1.825 -0.2424  0.1842 -0.0253
 3022TIP3    H130625   4.030   1.303   1.869  2.7371  0.5498 -0.0229
 3022TIP3    H230626   3.946   1.429   1.874 -0.3772 -1.4542  1.2848
 3023TIP3   OH230627   1.535   4.151   8.678 -0.1729 -0.0348 -0.7935
 3023TIP3    H130628   1.612   4.094   8.671 -0.9942 -1.1180 -1.2541
 3023TIP3    H230629   1.503   4.137   8.767 -0.2133 -0.0816 -0.8154
 3024TIP3   OH230630   6.721   1.403   7.341  0.5553  0.2017  0.6636
 3024TIP3    H130631   6.714   1.311   7.316  2.2949  0.4723 -1.0720
 3024TIP3    H230632   6.770   1.444   7.269 -1.3167  2.7748  0.7126
 3025TIP3   OH230633   0.635   2.105   7.227 -0.1272  0.0839  0.3128
 3025TIP3    H130634   0.585   2.178   7.193  0.3551  0.6048  0.7039
 3025TIP3    H230635   0.571   2.051   7.274 -0.8895 -0.8649 -1.6972
 3026TIP3   OH230636   4.181   5.817   1.940 -0.2088 -0.2289  0.2309
 3026TIP3    H130637   4.150   5.774   1.860 -0.2063  0.9500 -0.4225
 3026TIP3    H230638   4.101   5.832   1.991 -0.3652  0.1061 -0.1052
 3027TIP3   OH230639   3.031   4.980   8.493 -0.1457  0.3287  0.5932
 3027TIP3    H130640   3.075   5.052   8.447  1.3512 -1.0847 -0.3267
 3027TIP3    H230641   3.002   4.921   8.423 -1.5700  0.1355  1.3162
 3028TIP3   OH230642   6.146   0.138   2.599  0.4352 -0.2744  0.1395
 3028TIP3    H130643   6.202   0.064   2.576 -0.0384 -0.0417 -1.9917
 3028TIP3    H230644   6.094   0.154   2.520 -0.5322  1.3928  1.0541
 3029TIP3   OH230645   1.955   3.648   0.586 -0.2279  0.2111  0.0859
 3029TIP3    H130646   1.974   3.577   0.647 -0.3296  0.7890  0.8109
 3029TIP3    H230647   1.918   3.605   0.509 -2.7988 -0.3398  1.5192
 3030TIP3   OH230648   1.776   5.497   0.369  0.4586 -0.0446  0.6429
 3030TIP3    H130649   1.775   5.454   0.455  2.3373  2.2947  1.9576
 3030TIP3    H230650   1.697   5.551   0.369  0.2859 -0.2936  0.7535
 3031TIP3   OH230651   5.815   2.613   1.402  0.5421  0.0526 -0.7277
 3031TIP3    H130652   5.887   2.652   1.451 -1.1106  0.8108  1.2213
 3031TIP3    H230653   5.786   2.682   1.342  1.3970 -0.2465 -1.4973
 3032TIP3   OH230654   4.440   3.763   1.393  0.3315  0.3962 -0.6243
 3032TIP3    H130655   4.509   3.718   1.344  0.6422  0.2433 -0.0525
 3032TIP3    H230656   4.406   3.828   1.332  0.8893  0.3807 -0.9586
 3033TIP3   OH230657   0.048   5.421   7.788 -0.1913  0.0076 -0.3453
 3033TIP3    H130658  -0.047   5.415   7.797 -0.3532  1.9998 -0.1269
 3033TIP3    H230659   0.065   5.515   7.775  1.4977 -0.6193 -3.6195
 3034TIP3   OH230660   1.963   5.716   8.377  0.3090  0.4776 -0.4373
 3034TIP3    H130661   1.975   5.759   8.461  0.4257  1.2836 -0.8564
 3034TIP3    H230662   1.901   5.772   8.330  1.3921  0.8641 -1.4539
 3035TIP3   OH230663   5.814   0.792   7.570 -0.0441 -0.0439  0.1366
 3035TIP3    H130664   5.792   0.858   7.637 -1.1933 -0.7113  0.4390
 3035TIP3    H230665   5.867   0.840   7.506 -1.8977  1.5205 -0.3031
 3036TIP3   OH230666   0.351   1.187   8.546 -0.9262  0.1457  0.1876
 3036TIP3    H130667   0.323   1.268   8.504  0.3751  0.4582 -0.1245
 3036TIP3    H230668   0.380   1.214   8.634 -0.8254 -0.0301  0.2093
 3037TIP3   OH230669   2.432   5.679   2.824  0.0460  0.2093 -0.1082
 3037TIP3    H130670   2.504   5.639   2.774 -1.1237  1.1160 -2.7083
 3037TIP3    H230671   2.362   5.614   2.821 -0.2806  0.5643 -0.3234
 3038TIP3   OH230672   2.338   1.075   2.427 -0.2504 -0.2943 -0.1573
 3038TIP3    H130673   2.392   0.996   2.440  0.7446  0.2177 -1.0678
 3038TIP3    H230674   2.392   1.132   2.373 -0.9678  1.0258  0.4878
 3039TIP3   OH230675   1.684   1.812   0.858 -0.5256 -0.5120  0.3847
 3039TIP3    H130676   1.765   1.790   0.905 -0.3068  1.1411  0.8539
 3039TIP3    H230677   1.678   1.907   0.865 -0.5630 -0.1857 -2.7975
 3040TIP3   OH230678   1.927   4.361   1.569 -0.3253  0.0047 -0.3558
 3040TIP3    H130679   2.014   4.382   1.603 -0.5413 -0.2290  0.3654
 3040TIP3    H230680   1.916   4.268   1.589 -0.3548 -0.2105 -1.3194
 3041TIP3   OH230681   3.513   3.090   1.831 -0.2341  0.0729 -0.5434
 3041TIP3    H130682   3.420   3.069   1.839 -0.1443 -1.0886 -2.1599
 3041TIP3    H230683   3.540   3.052   1.748  1.4664  1.2842 -0.6075
 3042TIP3   OH230684   4.266   0.757   0.792  0.5650 -0.1020 -0.3539
 3042TIP3    H130685   4.241   0.745   0.700 -0.0276 -2.0980  0.0331
 3042TIP3    H230686   4.327   0.830   0.790 -0.1726  0.5412 -2.2088
 3043TIP3   OH230687   4.048   3.307   7.993 -0.0794  0.4572  0.6428
 3043TIP3    H130688   4.022   3.260   7.914  0.1697  0.8498  0.3223
 3043TIP3    H230689   3.967   3.317   8.043 -0.4448  1.1318 -0.0621
 3044TIP3   OH230690   3.456   5.974   0.724 -0.3227  0.4740 -0.1538
 3044TIP3    H130691   3.401   6.052   0.732 -0.3742  0.6126 -1.5682
 3044TIP3    H230692   3.481   5.953   0.814 -2.2560  0.7044  0.4731
 3045TIP3   OH230693   3.277   2.863   7.624  0.2544  0.0079  0.4644
 3045TIP3    H130694   3.263   2.837   7.533  1.0780 -0.6987  0.5368
 3045TIP3    H230695   3.193   2.900   7.651 -0.0104  0.1909 -0.5680
 3046TIP3   OH230696   2.863   4.181   1.852 -0.2544 -0.8226  0.4764
 3046TIP3    H130697   2.861   4.222   1.766  0.4546 -0.4179  0.6423
 3046TIP3    H230698   2.776   4.197   1.889 -0.5887 -1.0752 -0.1914
 3047TIP3   OH230699   1.721   0.062   8.006 -0.0069 -0.3059 -0.4067
 3047TIP3    H130700   1.676  -0.018   8.031 -1.5310  0.6113 -0.0817
 3047TIP3    H230701   1.653   0.130   8.010  1.3318  1.0762 -0.2525
 3048TIP3   OH230702   6.767   1.789   1.501 -0.2941  0.3997 -0.4930
 3048TIP3    H130703   6.717   1.868   1.477 -0.1493  0.9201  0.8260
 3048TIP3    H230704   6.810   1.763   1.419  1.1007  2.7419 -0.6167
 3049TIP3   OH230705   3.965   3.718   8.573 -0.0247  0.0279  0.0426
 3049TIP3    H130706   3.985   3.771   8.650 -0.0617 -0.1196  0.1541
 3049TIP3    H230707   4.051   3.684   8.545 -0.0785 -0.3809  0.3587
 3050TIP3   OH230708   1.689   6.042   1.647  0.1856  0.1979  0.4243
 3050TIP3    H130709   1.640   6.046   1.565 -0.9908  0.0924  1.1055
 3050TIP3    H230710   1.735   5.958   1.643  1.2217  0.7797 -0.7010
 3051TIP3   OH230711   0.495   4.972   8.673  0.0842 -0.6527 -0.3838
 3051TIP3    H130712   0.475   5.009   8.759  0.7057 -2.6917  0.7018
 3051TIP3    H230713   0.498   5.048   8.615  1.1754  1.0011  1.6699
 3052TIP3   OH230714   0.695   1.808   0.051 -0.4918  0.0275 -0.0847
 3052TIP3    H130715   0.623   1.851   0.006 -0.4182  0.2808  0.0367
 3052TIP3    H230716   0.768   1.870   0.045 -0.1584 -0.4002 -0.5656
 3053TIP3   OH230717   1.109   6.603   0.561 -0.2781  0.2356  0.1310
 3053TIP3    H130718   1.024   6.646   0.554 -0.5165 -0.2337  0.1634
 3053TIP3    H230719   1.166   6.670   0.600 -0.0032  1.4163 -2.1447
 3054TIP3   OH230720   5.929   1.344   7.911  0.0848  0.2910  0.2950
 3054TIP3    H130721   5.857   1.401   7.884 -1.0149 -1.1324  0.0506
 3054TIP3    H230722   5.975   1.393   7.980  0.4428  2.2823 -1.2595
 3055TIP3   OH230723   4.201   2.119   7.571 -0.5697  0.4458  0.0113
 3055TIP3    H130724   4.177   2.051   7.634  0.6367 -0.5003 -0.5022
 3055TIP3    H230725   4.182   2.081   7.486 -0.1232  0.8469 -0.2713
 3056TIP3   OH230726   4.663   5.731   1.274 -0.0601 -0.1911 -0.8175
 3056TIP3    H130727   4.733   5.721   1.209  0.6133  1.3924 -0.4059
 3056TIP3    H230728   4.686   5.812   1.320 -0.4732 -1.2982  1.4678
 3057TIP3   OH230729   1.831   4.385   8.035  0.2436  0.0812  0.1251
 3057TIP3    H130730   1.833   4.404   7.942  1.8316 -1.5240 -0.2309
 3057TIP3    H230731   1.799   4.465   8.076  0.1712  1.0417 -1.7260
 3058TIP3   OH230732   6.662   5.471   8.160  0.7683 -0.5346 -0.0688
 3058TIP3    H130733   6.651   5.530   8.085  2.3847  0.9113  0.7721
 3058TIP3    H230734   6.746   5.428   8.145  0.2853 -1.5761  0.0736
 3059TIP3   OH230735   4.236   4.617   8.525 -0.1553  0.4191 -0.3066
 3059TIP3    H130736   4.277   4.702   8.514 -1.0911  1.0186  0.5890
 3059TIP3    H230737   4.145   4.637   8.546 -0.3323 -0.7935  0.1655
 3060TIP3   OH230738   3.871   1.138   0.024  0.4283 -0.0159 -0.0686
 3060TIP3    H130739   3.908   1.070  -0.032 -0.7375 -0.0125 -0.8857
 3060TIP3    H230740   3.863   1.097   0.110  2.1832 -0.0415  0.1295
 3061TIP3   OH230741   5.160   5.429   1.569  0.1317 -0.4069  0.1893
 3061TIP3    H130742   5.161   5.350   1.516  1.0348  0.5074 -1.2145
 3061TIP3    H230743   5.150   5.397   1.659 -1.8048 -1.9713 -0.5234
 3062TIP3   OH230744   2.775   0.265   8.230 -0.2766  0.3042 -0.4312
 3062TIP3    H130745   2.845   0.322   8.261 -0.4941  1.7496 -2.4100
 3062TIP3    H230746   2.789   0.259   8.135 -3.9607  2.3633 -1.2957
 3063TIP3   OH230747   1.180   6.541   0.290 -0.2917  0.0576 -0.3911
 3063TIP3    H130748   1.173   6.488   0.369 -4.6818  0.6759 -0.1357
 3063TIP3    H230749   1.217   6.624   0.320  1.7468 -0.9985  0.1726
 3064TIP3   OH230750   5.483   0.014   0.194 -0.1728 -0.2788 -0.3024
 3064TIP3    H130751   5.402   0.064   0.190  0.6805  1.1811 -0.2406
 3064TIP3    H230752   5.548   0.071   0.153  1.1252 -0.7629  1.0085
 3065TIP3   OH230753   3.916   4.009   1.931  0.3862 -0.1935  0.5089
 3065TIP3    H130754   3.882   4.028   2.019 -0.0994  1.0797  0.0790
 3065TIP3    H230755   3.976   4.082   1.913  0.3717 -0.3618 -0.2582
 3066TIP3   OH230756   1.176   1.457   7.822 -0.9930  0.1018 -0.1948
 3066TIP3    H130757   1.174   1.366   7.790  0.5197 -0.0748  0.1502
 3066TIP3    H230758   1.230   1.503   7.758  0.4062  0.1747  0.9828
 3067TIP3   OH230759   3.326   0.553   8.476  0.5616  0.1915 -0.2960
 3067TIP3    H130760   3.395   0.615   8.500 -0.3019  1.7018 -1.4819
 3067TIP3    H230761   3.246   0.592   8.510  0.1726 -1.1486  0.3902
 3068TIP3   OH230762   0.352   2.256   8.120 -0.2781 -0.0691 -0.8954
 3068TIP3    H130763   0.302   2.195   8.175 -0.1794 -1.9730 -2.7550
 3068TIP3    H230764   0.443   2.232   8.135 -0.1791  0.2871 -0.9195
 3069TIP3   OH230765   6.764   0.081   8.419  0.0385 -0.0433  0.6128
 3069TIP3    H130766   6.718   0.022   8.361 -0.5098 -0.5035  1.4982
 3069TIP3    H230767   6.824   0.130   8.362 -0.7890 -0.1776 -0.3832
 3070TIP3   OH230768   3.891   2.758   7.411  0.6037  0.0880 -0.6659
 3070TIP3    H130769   3.898   2.729   7.321 -0.5622  0.1386 -0.7922
 3070TIP3    H230770   3.917   2.850   7.409  0.7938  0.0276 -0.9137
 3071TIP3   OH230771   2.420   2.180   0.075 -0.0165 -0.2805  0.0198
 3071TIP3    H130772   2.505   2.222   0.061 -0.4954  0.8772  0.5089
 3071TIP3    H230773   2.409   2.123  -0.001  1.0062 -0.1411 -0.2518
 3072TIP3   OH230774   4.622   3.836   1.037  0.3823  0.5461  0.2613
 3072TIP3    H130775   4.551   3.863   0.978  0.4100  0.8798  0.3745
 3072TIP3    H230776   4.687   3.907   1.029  1.0484 -0.1120 -0.4127
 3073TIP3   OH230777   0.072   4.732   7.999  0.0911 -0.0297 -0.6527
 3073TIP3    H130778  -0.004   4.674   7.998  0.8151 -1.6836  4.8658
 3073TIP3    H230779   0.147   4.674   7.988  0.6817  0.1903  1.5731
 3074TIP3   OH230780   4.319   4.030   1.846 -0.2604 -0.5154 -0.0904
 3074TIP3    H130781   4.284   4.021   1.935 -1.1054  0.2052 -0.3280
 3074TIP3    H230782   4.275   3.961   1.796 -0.5349 -0.3006 -0.1516
 3075TIP3   OH230783   1.447   4.213   7.112  0.2015  0.1437  0.6204
 3075TIP3    H130784   1.464   4.284   7.050 -0.4100 -0.1173  0.1402
 3075TIP3    H230785   1.360   4.181   7.088  0.5460 -0.8854  0.7030
 3076TIP3   OH230786   2.895   1.836   7.870 -0.1489  0.4639 -0.6621
 3076TIP3    H130787   2.803   1.810   7.865 -0.0172 -0.2574  0.2555
 3076TIP3    H230788   2.905   1.904   7.804 -1.1329 -0.0627 -1.3747
 3077TIP3   OH230789   0.943   4.613   0.470 -0.0825  0.0686 -0.2573
 3077TIP3    H130790   0.872   4.614   0.405 -1.0675  0.2499  0.7754
 3077TIP3    H230791   0.899   4.589   0.552  0.4945  2.9222  1.0180
 3078TIP3   OH230792   4.696   4.452   8.538  0.2666  0.2555  0.4490
 3078TIP3    H130793   4.648   4.384   8.490  1.7534  0.0242 -0.7957
 3078TIP3    H230794   4.719   4.410   8.621 -1.7283  0.4179  1.1295
 3079TIP3   OH230795   5.871   6.482   2.021  0.1389  0.0338 -0.5258
 3079TIP3    H130796   5.776   6.486   2.016  0.2245  1.4302 -1.8171
 3079TIP3    H230797   5.900   6.572   2.007  1.6924 -0.5993 -1.6728
 3080TIP3   OH230798   3.044   4.660   7.491 -0.1342  0.4402  0.5730
 3080TIP3    H130799   3.086   4.578   7.519 -1.6690 -1.2560 -1.6876
 3080TIP3    H230800   2.956   4.656   7.528  0.0414  1.5252  1.1410
 3081TIP3   OH230801   3.616   5.289   7.578  0.1876 -0.1749  0.3076
 3081TIP3    H130802   3.639   5.380   7.563 -0.7257 -0.0620 -0.5490
 3081TIP3    H230803   3.689   5.253   7.628 -0.3421  1.5271  2.4201
 3082TIP3   OH230804   2.982   0.184   8.083  0.1876  0.0223  0.1571
 3082TIP3    H130805   2.957   0.233   8.004 -1.0184  0.3029  0.7001
 3082TIP3    H230806   3.076   0.199   8.091  0.1395  0.8620 -0.6428
 3083TIP3   OH230807   2.418   4.577   8.490  0.0104  0.1668 -0.3221
 3083TIP3    H130808   2.345   4.627   8.455 -1.1971 -1.9744 -1.0537
 3083TIP3    H230809   2.487   4.585   8.424  0.4083  1.9812  0.2540
 3084TIP3   OH230810   2.820   6.140   8.346 -0.4213  0.4477 -0.0618
 3084TIP3    H130811   2.828   6.209   8.280 -0.4713 -1.0597 -1.7269
 3084TIP3    H230812   2.734   6.154   8.385 -1.9641 -0.6498 -2.8218
 3085TIP3   OH230813   1.403   0.530   0.067  0.4445  0.6212  0.4585
 3085TIP3    H130814   1.497   0.515   0.063  0.3405  0.0132  0.0261
 3085TIP3    H230815   1.369   0.456   0.117  0.0510  0.0637 -0.6023
 3086TIP3   OH230816   4.948   2.107   7.916  0.2082  0.8387 -0.2347
 3086TIP3    H130817   4.858   2.084   7.894  0.3382 -0.0864  0.1376
 3086TIP3    H230818   4.987   2.134   7.833  0.2028 -0.9243 -0.8466
 3087TIP3   OH230819   0.892   5.758   0.518 -0.6467  0.1109 -0.4485
 3087TIP3    H130820   0.842   5.705   0.456 -0.7990 -1.1749  0.7168
 3087TIP3    H230821   0.984   5.737   0.498 -0.6420  0.6663 -1.0435
 3088TIP3   OH230822   6.082   5.113   1.977  0.0131  0.0896  0.2960
 3088TIP3    H130823   6.168   5.128   1.940 -0.7800 -0.3269 -1.8890
 3088TIP3    H230824   6.065   5.189   2.032  2.7213 -0.9484  2.8781
 3089TIP3   OH230825   2.516   5.385   8.501 -0.3662  0.1313 -0.0400
 3089TIP3    H130826   2.465   5.332   8.562  0.3125  0.9082  1.2182
 3089TIP3    H230827   2.575   5.436   8.555 -0.3686  1.5264 -1.2672
 3090TIP3   OH230828   2.134   6.583   0.833 -0.0791  0.1987 -0.5029
 3090TIP3    H130829   2.101   6.618   0.915  0.5969 -3.3954  1.5015
 3090TIP3    H230830   2.067   6.521   0.804  1.3895 -1.4953 -0.4537
 3091TIP3   OH230831   4.379   2.251   8.659  0.1903  0.3770 -0.0972
 3091TIP3    H130832   4.385   2.302   8.739 -0.2770 -0.0419  0.2098
 3091TIP3    H230833   4.467   2.217   8.645  0.3403  0.6909  0.0748
 3092TIP3   OH230834   4.726   5.086   1.094  0.4575 -0.0179  0.3171
 3092TIP3    H130835   4.647   5.131   1.063  0.6395 -0.3230 -0.6133
 3092TIP3    H230836   4.761   5.144   1.162 -1.1359 -0.3928  1.5161
 3093TIP3   OH230837   0.746   2.084   8.564  0.3298 -0.1902 -0.0390
 3093TIP3    H130838   0.812   2.099   8.497  1.9363  0.1674  1.5488
 3093TIP3    H230839   0.762   1.994   8.594  0.6260  0.1522  0.8771
 3094TIP3   OH230840   6.678   3.378   6.665  0.0827 -0.1493 -0.7867
 3094TIP3    H130841   6.739   3.391   6.737 -0.7406 -0.1983 -0.0610
 3094TIP3    H230842   6.677   3.283   6.651  0.1017 -0.1572 -0.7330
 3095TIP3   OH230843   5.037   4.624   0.956  0.3541 -0.7807 -0.3408
 3095TIP3    H130844   4.947   4.644   0.981  1.0822  0.9780  1.1583
 3095TIP3    H230845   5.043   4.529   0.961 -1.4693 -0.9557 -0.7013
 3096TIP3   OH230846   6.313   6.493   1.475 -0.2177 -0.5768 -0.1086
 3096TIP3    H130847   6.306   6.588   1.482 -2.2364 -0.6148 -0.9631
 3096TIP3    H230848   6.250   6.459   1.539  2.3003 -1.4832  2.1157
 3097TIP3   OH230849   1.793   3.826   0.726  0.2221 -0.4286  0.3631
 3097TIP3    H130850   1.855   3.790   0.662  0.0854 -0.3081  0.1614
 3097TIP3    H230851   1.759   3.750   0.773  1.0851 -0.4374  0.9893
 3098TIP3   OH230852   4.996   0.863   7.432  0.5537  0.0527 -0.0498
 3098TIP3    H130853   4.961   0.774   7.438  0.2939  0.1016 -0.8033
 3098TIP3    H230854   4.957   0.899   7.353  0.9213  0.7255  0.0718
 3099TIP3   OH230855   6.294   5.399   8.236  0.3257  0.0152 -0.2017
 3099TIP3    H130856   6.357   5.362   8.174  0.4133 -0.3028  0.0696
 3099TIP3    H230857   6.208   5.376   8.201  0.3479  0.8263 -0.8033
 3100TIP3   OH230858   6.571   2.988   8.047  0.2238 -0.0813 -0.2564
 3100TIP3    H130859   6.531   2.985   8.135  0.7684 -0.0473 -0.0024
 3100TIP3    H230860   6.549   3.074   8.013 -1.3219 -0.6521 -0.7987
 3101TIP3   OH230861   5.685   0.841   6.779  0.3703 -0.2526  0.4234
 3101TIP3    H130862   5.598   0.834   6.817  0.3761  0.1816  0.5224
 3101TIP3    H230863   5.734   0.769   6.818 -0.1534 -0.9935 -0.2280
 3102TIP3   OH230864   4.469   0.643   7.254  0.3166  0.2420 -0.2451
 3102TIP3    H130865   4.512   0.728   7.250  1.5526 -0.2524  1.2855
 3102TIP3    H230866   4.518   0.588   7.193 -1.1135  0.8218 -2.0110
 3103TIP3   OH230867   1.887   0.983   8.217 -0.4615  0.0832  0.0591
 3103TIP3    H130868   1.836   0.996   8.297 -0.5415 -0.5728  0.1212
 3103TIP3    H230869   1.838   1.031   8.150 -0.9033 -0.1444  0.2152
 3104TIP3   OH230870   4.094   1.924   7.767  0.5145 -0.2097  0.3081
 3104TIP3    H130871   4.161   1.859   7.789  1.9951  1.2702  0.3916
 3104TIP3    H230872   4.040   1.931   7.846  0.5172 -1.1200  0.3951
 3105TIP3   OH230873   2.803   2.070   0.539  0.1164 -0.5544  0.5672
 3105TIP3    H130874   2.776   1.996   0.485 -0.7808  0.1971 -0.0225
 3105TIP3    H230875   2.759   2.056   0.623 -1.5051  0.2353 -0.1239
 3106TIP3   OH230876   4.507   4.316   0.456 -0.4938  0.0951  0.6436
 3106TIP3    H130877   4.459   4.365   0.389 -0.0133 -0.0009  0.2261
 3106TIP3    H230878   4.454   4.326   0.535 -1.7228 -0.8467 -0.0399
 3107TIP3   OH230879   3.778   0.532   0.461  0.3239 -0.1005  0.3737
 3107TIP3    H130880   3.782   0.551   0.555  1.2434  0.9514  0.1363
 3107TIP3    H230881   3.870   0.529   0.433  0.0495  0.1385 -0.5922
 3108TIP3   OH230882   3.626   2.602   1.690  0.7599 -0.3723 -0.5835
 3108TIP3    H130883   3.720   2.586   1.689  0.7762 -0.4384  0.6772
 3108TIP3    H230884   3.590   2.528   1.738  0.1076 -0.1688 -0.7549
 3109TIP3   OH230885   4.562   5.565   2.280 -0.0138 -0.1293 -0.3200
 3109TIP3    H130886   4.471   5.592   2.279 -0.0864 -0.2897  0.9186
 3109TIP3    H230887   4.612   5.646   2.270 -0.2479  0.4432  2.4115
 3110TIP3   OH230888   0.412   0.473   1.391  0.0965  0.1196  0.6644
 3110TIP3    H130889   0.479   0.431   1.444 -0.0668 -1.6295 -0.4378
 3110TIP3    H230890   0.339   0.486   1.451 -0.0779 -1.7843  0.9182
 3111TIP3   OH230891   3.004   6.374   7.783 -0.3178  0.3399  0.1131
 3111TIP3    H130892   3.026   6.281   7.780 -1.0364  0.1217  1.0722
 3111TIP3    H230893   2.914   6.376   7.815 -0.3914  1.3664 -0.1209
 3112TIP3   OH230894   0.257   2.220   3.224 -0.0940  0.1559  0.3818
 3112TIP3    H130895   0.338   2.207   3.275  1.3890 -1.0826 -2.1044
 3112TIP3    H230896   0.215   2.296   3.266  0.4860 -1.2660  3.9525
 3113TIP3   OH230897   1.288   0.352   0.228  0.0560  0.2750 -0.0672
 3113TIP3    H130898   1.292   0.342   0.323 -0.3139 -1.7210 -0.2165
 3113TIP3    H230899   1.198   0.377   0.210  0.3854  1.6948  0.1560
 3114TIP3   OH230900   1.273   3.453   1.745 -0.1844 -0.5273  0.2520
 3114TIP3    H130901   1.285   3.540   1.783  3.6429 -0.3438 -0.9182
 3114TIP3    H230902   1.215   3.467   1.671  0.2667  1.0303  0.1584
 3115TIP3   OH230903   4.065   0.780   1.581  0.2880 -0.2986  0.2414
 3115TIP3    H130904   4.101   0.779   1.493  0.8154 -1.1676  0.4527
 3115TIP3    H230905   3.980   0.736   1.573  0.4357 -0.5783  0.2036
 3116TIP3   OH230906   2.655   4.599   1.404 -0.4835  0.1648 -0.0393
 3116TIP3    H130907   2.725   4.562   1.457 -1.3369 -1.6051 -0.0483
 3116TIP3    H230908   2.640   4.534   1.335 -3.6254 -0.7127  1.2772
 3117TIP3   OH230909   6.301   1.432   8.453  0.1047 -0.1256 -0.3220
 3117TIP3    H130910   6.278   1.389   8.536  1.1171  1.4081  0.7921
 3117TIP3    H230911   6.358   1.504   8.478  1.7300 -0.5499 -2.5055
 3118TIP3   OH230912   0.668   5.469   1.595  0.2702  0.2171  0.0598
 3118TIP3    H130913   0.663   5.564   1.584 -0.1126  0.1902 -0.0335
 3118TIP3    H230914   0.598   5.436   1.539 -0.7763 -0.0093  1.4405
 3119TIP3   OH230915   1.164   1.202   1.124 -0.1161  0.2416 -0.6503
 3119TIP3    H130916   1.187   1.182   1.215  1.8944  2.6894 -0.5226
 3119TIP3    H230917   1.225   1.271   1.098 -2.0850  1.2151 -3.1465
 3120TIP3   OH230918   3.174   3.780   8.673  0.0208  0.3713  0.0483
 3120TIP3    H130919   3.136   3.866   8.656 -1.3452  0.1112  1.5528
 3120TIP3    H230920   3.099   3.723   8.689  0.8717 -1.2468 -1.4094
 3121TIP3   OH230921   2.665   0.852   0.256  0.1983 -0.1645 -0.1905
 3121TIP3    H130922   2.665   0.778   0.316 -1.2746 -0.8725 -1.0142
 3121TIP3    H230923   2.638   0.816   0.172  0.7833  1.0734 -0.9571
 3122TIP3   OH230924   2.769   5.386   1.998  0.1816 -0.2554  0.2381
 3122TIP3    H130925   2.750   5.293   1.985 -0.0418 -0.1975  0.1370
 3122TIP3    H230926   2.702   5.415   2.060 -0.7388  0.1968 -0.9363
 3123TIP3   OH230927   1.631   4.857   7.538  0.2755  0.0212 -0.1944
 3123TIP3    H130928   1.595   4.779   7.495  0.1926  0.1632 -0.3867
 3123TIP3    H230929   1.567   4.926   7.519  1.4219  0.6742 -1.9367
 3124TIP3   OH230930   5.941   0.282   8.715 -0.0210 -0.1828 -0.2503
 3124TIP3    H130931   6.005   0.327   8.661 -0.6940  0.3997 -0.5843
 3124TIP3    H230932   5.993   0.236   8.780  0.8418 -1.1467 -1.5515
 3125TIP3   OH230933   5.678   2.693   7.932  0.3194 -0.2299  0.2819
 3125TIP3    H130934   5.755   2.649   7.895  0.0835  1.0504 -1.9031
 3125TIP3    H230935   5.670   2.773   7.881 -3.0186 -0.7508 -0.1968
 3126TIP3   OH230936   1.276   4.353   0.333  0.5204  0.4844 -0.1970
 3126TIP3    H130937   1.357   4.405   0.336  0.8565 -0.0805  1.3271
 3126TIP3    H230938   1.221   4.398   0.268  1.8850  1.1109 -0.9702
 3127TIP3   OH230939   0.767   1.528   2.605 -0.5691 -0.0241 -0.2800
 3127TIP3    H130940   0.718   1.596   2.651  0.9980  0.2712  1.0166
 3127TIP3    H230941   0.735   1.446   2.644  0.2028  0.1881  0.8573
 3128TIP3   OH230942   5.077   0.823   0.146 -0.5590 -0.1198  0.0767
 3128TIP3    H130943   5.148   0.773   0.186  1.2715  1.2983 -1.2322
 3128TIP3    H230944   5.067   0.899   0.203 -0.5463  0.0113 -0.0943
 3129TIP3   OH230945   1.169   2.172   8.232 -0.6423 -0.2173  0.3750
 3129TIP3    H130946   1.206   2.239   8.291 -0.5953  0.8795 -0.8574
 3129TIP3    H230947   1.128   2.223   8.162 -2.2680 -1.4650  0.3776
 3130TIP3   OH230948   4.136   5.473   2.514  0.2922 -0.1807  0.2055
 3130TIP3    H130949   4.221   5.430   2.506 -0.0774 -0.7647 -0.7066
 3130TIP3    H230950   4.075   5.400   2.527 -0.2315  0.1386 -0.4608
 3131TIP3   OH230951   5.860   4.085   7.417 -0.4467  0.1660  0.0310
 3131TIP3    H130952   5.935   4.026   7.415 -0.9990 -0.5330 -1.8594
 3131TIP3    H230953   5.803   4.055   7.346 -2.7696  0.3774  1.6756
 3132TIP3   OH230954   5.838   1.671   2.246  0.9527  0.1321 -0.0384
 3132TIP3    H130955   5.925   1.632   2.260  1.1942  0.9507  0.8877
 3132TIP3    H230956   5.833   1.684   2.152  1.8772  0.1424 -0.0957
 3133TIP3   OH230957   1.092   6.614   2.489 -0.3815  0.4399  0.0930
 3133TIP3    H130958   1.069   6.706   2.473 -0.1806  0.5356  0.3406
 3133TIP3    H230959   1.055   6.595   2.575 -1.2865 -0.0086 -0.3830
 3134TIP3   OH230960   3.958   2.646   2.232 -0.7172  0.2296  0.1972
 3134TIP3    H130961   4.003   2.621   2.312  0.0271  1.5356  0.2074
 3134TIP3    H230962   3.916   2.729   2.252  0.3434  1.1205 -1.0398
 3135TIP3   OH230963   1.793   4.502   2.280 -0.8306  0.4709  0.2457
 3135TIP3    H130964   1.799   4.462   2.194 -1.0117  0.5653  0.1892
 3135TIP3    H230965   1.873   4.554   2.288 -1.9409  2.4350 -0.8652
 3136TIP3   OH230966   4.234   0.540   1.595  0.4987 -0.2328  0.5328
 3136TIP3    H130967   4.154   0.554   1.645  0.5800 -1.0715  0.9061
 3136TIP3    H230968   4.304   0.568   1.654  0.6825 -2.3103  1.3860
 3137TIP3   OH230969   4.372   2.983   0.918  0.8245 -0.5140  0.2034
 3137TIP3    H130970   4.279   3.000   0.933  1.1445  0.3039  1.4162
 3137TIP3    H230971   4.374   2.910   0.856 -0.6233  0.3014 -0.8608
 3138TIP3   OH230972   2.877   2.366   2.258 -1.0380  0.4861  0.1194
 3138TIP3    H130973   2.919   2.333   2.337  1.4026 -2.0080 -2.0327
 3138TIP3    H230974   2.878   2.462   2.269  2.3730  0.4069  1.6424
 3139TIP3   OH230975   0.989   5.709   2.825  0.0164  0.3623  0.3506
 3139TIP3    H130976   0.960   5.618   2.832 -0.2688  0.3057 -1.1322
 3139TIP3    H230977   1.029   5.728   2.909 -1.0924 -0.7159  1.1666
 3140TIP3   OH230978   2.899   1.268   1.615 -0.4675  0.4639 -0.4572
 3140TIP3    H130979   2.812   1.247   1.584  0.2572 -0.3381 -2.0455
 3140TIP3    H230980   2.943   1.183   1.622  0.3441  0.8973 -0.1391
 3141TIP3   OH230981   6.004   5.995   1.785  0.1642  0.0292  0.2770
 3141TIP3    H130982   6.094   5.977   1.757  0.7648  1.4186  1.2414
 3141TIP3    H230983   5.950   5.940   1.727  1.7012 -3.1002  1.5532
 3142TIP3   OH230984   0.399   3.505   1.557 -0.3097  0.3230  0.2501
 3142TIP3    H130985   0.343   3.435   1.590  0.5740  0.5001  2.2368
 3142TIP3    H230986   0.476   3.504   1.613  0.3463  2.0153 -0.5290
 3143TIP3   OH230987   5.902   1.605   1.910  0.0043 -0.0765 -0.4652
 3143TIP3    H130988   5.864   1.543   1.849 -0.5188 -0.0285 -0.1922
 3143TIP3    H230989   5.848   1.683   1.903  1.2431  0.7281 -1.5287
 3144TIP3   OH230990   1.136   4.123   7.088  0.0383  0.3015 -0.2864
 3144TIP3    H130991   1.120   4.167   7.004 -3.2086  0.7535  0.4170
 3144TIP3    H230992   1.128   4.030   7.067 -1.9721  0.4467 -0.3628
 3145TIP3   OH230993   1.797   5.569   8.006 -0.4330 -0.6361 -0.3065
 3145TIP3    H130994   1.841   5.637   7.955  2.1252 -0.1071  2.3437
 3145TIP3    H230995   1.765   5.507   7.940 -0.9502  1.9617 -2.7023
 3146TIP3   OH230996   4.196   1.489   8.736  0.4550  0.3629  0.0688
 3146TIP3    H130997   4.270   1.531   8.781 -0.2140 -0.7006  2.3448
 3146TIP3    H230998   4.134   1.559   8.720  0.4372  0.6987  1.4828
 3147TIP3   OH230999   3.582   5.770   2.416  0.1008  0.0279  0.4842
 3147TIP3    H131000   3.606   5.844   2.471  1.3816  0.5254 -0.6841
 3147TIP3    H231001   3.643   5.701   2.441 -0.0591 -0.1159  0.4774
 3148TIP3   OH231002   2.456   0.874   1.205 -0.0876 -0.0969  0.7575
 3148TIP3    H131003   2.518   0.841   1.270 -0.6806  0.2354  1.5028
 3148TIP3    H231004   2.429   0.796   1.157  0.1631 -0.3818  1.0694
 3149TIP3   OH231005   4.594   1.225   0.854  0.1132  0.2882  0.3990
 3149TIP3    H131006   4.676   1.228   0.904  0.2056  1.1538  0.2178
 3149TIP3    H231007   4.565   1.316   0.852  0.5231  0.4329 -1.8099
 3150TIP3   OH231008   4.327   6.718   1.486 -0.1318 -0.5098  0.3419
 3150TIP3    H131009   4.297   6.707   1.576 -1.2805 -2.1118 -0.1942
 3150TIP3    H231010   4.251   6.696   1.432  0.2911  1.1713 -1.0429
 3151TIP3   OH231011   0.381   2.058   0.158  0.1490  0.3703 -0.4565
 3151TIP3    H131012   0.302   2.006   0.142  1.3631 -1.7183 -0.0191
 3151TIP3    H231013   0.424   2.063   0.073  0.7620 -0.6633 -0.2272
 3152TIP3   OH231014   5.661   3.971   0.171  0.1546  0.6417 -0.1289
 3152TIP3    H131015   5.738   4.017   0.137  0.0853  0.3671 -0.6638
 3152TIP3    H231016   5.631   3.917   0.098  0.9032 -1.1424  0.8240
 3153TIP3   OH231017   2.348   5.240   0.418  0.0317 -0.3006  0.5019
 3153TIP3    H131018   2.343   5.157   0.371  0.8753 -0.4803  0.7191
 3153TIP3    H231019   2.422   5.231   0.477  0.2631  0.6789  0.3880
 3154TIP3   OH231020   1.380   3.207   7.883 -0.5348  0.0255 -0.3858
 3154TIP3    H131021   1.438   3.131   7.884 -1.1925 -0.4800 -0.4715
 3154TIP3    H231022   1.309   3.183   7.824 -0.2959  1.0554 -1.1227
 3155TIP3   OH231023   6.454   6.794   0.092 -0.0162 -0.4174 -0.2904
 3155TIP3    H131024   6.401   6.762   0.165  1.3372 -0.5512  0.6875
 3155TIP3    H231025   6.425   6.884   0.079 -0.5936 -0.5379  0.1139
 3156TIP3   OH231026   0.821   5.490   1.238  0.0796 -0.1318  0.5082
 3156TIP3    H131027   0.798   5.582   1.249 -0.4149 -0.2782  0.7861
 3156TIP3    H231028   0.736   5.445   1.238 -0.0384 -0.2611 -3.4618
 3157TIP3   OH231029   6.012   0.926   7.431 -0.4199 -0.2770  0.2952
 3157TIP3    H131030   6.076   0.980   7.385 -0.1869 -2.2591 -1.9155
 3157TIP3    H231031   6.059   0.893   7.508  0.5456 -0.0889 -0.2004
 3158TIP3   OH231032   4.924   4.653   1.419 -0.4045 -0.3446  0.1451
 3158TIP3    H131033   4.961   4.736   1.390  0.8954 -1.1639 -0.6391
 3158TIP3    H231034   4.934   4.654   1.515  0.3124  0.0764  0.0701
 3159TIP3   OH231035   5.777   6.284   8.500  0.2734  0.1813 -0.0523
 3159TIP3    H131036   5.828   6.216   8.457 -0.7200 -1.0610  0.6555
 3159TIP3    H231037   5.694   6.241   8.522 -0.9726  2.0330 -0.8889
 3160TIP3   OH231038   5.825   5.081   8.088 -0.1475  0.0286 -0.0518
 3160TIP3    H131039   5.751   5.067   8.029 -0.0676  0.4507 -0.2507
 3160TIP3    H231040   5.790   5.061   8.175 -0.4690  0.1213 -0.1589
 3161TIP3   OH231041   4.994   6.355   0.765 -0.1680  0.1576  0.3260
 3161TIP3    H131042   5.082   6.386   0.786 -0.4838  0.2927  1.5305
 3161TIP3    H231043   5.006   6.265   0.736  0.2458 -0.2989  1.8241
 3162TIP3   OH231044   2.245   6.380   0.537 -0.3264 -0.1015 -0.9239
 3162TIP3    H131045   2.215   6.380   0.446 -1.0183 -0.2493 -0.7017
 3162TIP3    H231046   2.187   6.318   0.581 -0.1104  0.1039 -0.3451
 3163TIP3   OH231047   2.473   1.931   8.386  0.0182  0.1474 -0.4977
 3163TIP3    H131048   2.475   2.002   8.322 -1.3073  0.6554 -0.0182
 3163TIP3    H231049   2.403   1.873   8.354  1.3190 -1.1654 -1.0820
 3164TIP3   OH231050   3.132   5.161   8.320 -0.7269  0.3846 -0.6301
 3164TIP3    H131051   3.124   5.206   8.236  0.6025  0.7969 -0.5730
 3164TIP3    H231052   3.194   5.215   8.370 -0.5490 -0.5072  0.1525
 3165TIP3   OH231053   1.812   6.167   2.455 -0.1226 -0.2190  0.0719
 3165TIP3    H131054   1.763   6.112   2.394 -0.4030  0.5923 -0.4563
 3165TIP3    H231055   1.835   6.109   2.526 -0.1612 -1.0896 -0.6090
 3166TIP3   OH231056   3.183   1.550   7.685 -0.3366 -0.0513 -0.2880
 3166TIP3    H131057   3.151   1.462   7.665 -0.5722 -0.2689  0.9618
 3166TIP3    H231058   3.104   1.601   7.702 -0.1579  0.1483 -0.0392
 3167TIP3   OH231059   3.038   2.693   1.722 -0.0931  0.5344  0.0301
 3167TIP3    H131060   3.061   2.606   1.756 -0.5415  1.3188  2.5881
 3167TIP3    H231061   3.122   2.740   1.718  0.2708 -0.1980 -2.1438
 3168TIP3   OH231062   2.659   4.618   2.167 -0.1247  0.6208  0.0885
 3168TIP3    H131063   2.699   4.694   2.125  0.2956  0.0737 -0.5092
 3168TIP3    H231064   2.730   4.576   2.215 -0.4092  0.7289  0.6258
 3169TIP3   OH231065   0.725   0.034   8.654  0.3338  0.3968 -0.0963
 3169TIP3    H131066   0.731  -0.020   8.732 -2.7361 -0.7871 -0.5077
 3169TIP3    H231067   0.697   0.120   8.686  0.3493  0.2861  0.2164
 3170TIP3   OH231068   0.748   0.617   1.959 -0.1360  0.1695 -0.2201
 3170TIP3    H131069   0.671   0.664   1.991  0.3245 -0.3007  1.6930
 3170TIP3    H231070   0.767   0.657   1.874 -2.0963  0.7184 -0.4437
 3171TIP3   OH231071   3.866   0.242   8.310  0.1531  0.3033  0.6593
 3171TIP3    H131072   3.939   0.182   8.295  0.9291  1.5394 -0.7727
 3171TIP3    H231073   3.851   0.238   8.405  1.9998 -0.0659  0.9793
 3172TIP3   OH231074   5.669   3.229   7.465 -0.1971  0.3938 -0.1077
 3172TIP3    H131075   5.651   3.319   7.491 -0.3718  0.3628 -0.1186
 3172TIP3    H231076   5.720   3.236   7.385  1.8240  0.5260  1.1088
 3173TIP3   OH231077   5.485   2.084   1.612 -0.4989  0.0157 -0.0121
 3173TIP3    H131078   5.445   2.008   1.654  0.0395 -0.0167  0.4413
 3173TIP3    H231079   5.561   2.049   1.566  1.8757  0.7339  3.0928
 3174TIP3   OH231080   6.693   0.053   0.246  0.3341 -0.1088 -0.0043
 3174TIP3    H131081   6.618   0.030   0.191  0.0436  0.8110  0.0036
 3174TIP3    H231082   6.722   0.138   0.214 -2.1928  2.3996  3.5474
 3175TIP3   OH231083   0.896   6.609   0.040 -0.3130 -0.0492  0.0936
 3175TIP3    H131084   0.980   6.569   0.064 -0.3808 -0.2276  0.0317
 3175TIP3    H231085   0.831   6.540   0.053 -0.6456  0.4949  1.5073
 3176TIP3   OH231086   0.542   3.463   1.818 -0.1901  0.0225  0.4888
 3176TIP3    H131087   0.549   3.525   1.891 -0.9326  0.7227 -0.0137
 3176TIP3    H231088   0.474   3.401   1.846 -1.2070  0.8863 -0.0081
 3177TIP3   OH231089   6.245   3.661   0.274 -0.0827 -0.2950  0.1495
 3177TIP3    H131090   6.257   3.569   0.250 -1.3599 -0.3874 -0.2093
 3177TIP3    H231091   6.221   3.704   0.191 -1.0834  0.0383  0.5958
 3178TIP3   OH231092   4.948   4.927   1.270 -0.3070 -0.7730  0.6429
 3178TIP3    H131093   4.862   4.958   1.296 -0.8814 -0.6360 -1.2491
 3178TIP3    H231094   5.003   5.006   1.270 -1.0642 -0.1765 -1.4034
 3179TIP3   OH231095   1.137   5.846   8.153  0.2321  0.8281  0.1465
 3179TIP3    H131096   1.180   5.827   8.069 -0.8146  0.0710 -0.2471
 3179TIP3    H231097   1.178   5.784   8.215  0.4674  0.8612  0.0265
 3180TIP3   OH231098   0.748   1.250   2.616 -0.6219  0.1824 -0.0506
 3180TIP3    H131099   0.665   1.219   2.651 -0.1314 -1.2685 -0.1174
 3180TIP3    H231100   0.807   1.250   2.691 -0.6379  1.0929 -0.0278
 3181TIP3   OH231101   0.549   4.788   0.058 -0.2623 -0.2288  1.0638
 3181TIP3    H131102   0.523   4.818  -0.029 -0.6747 -0.5112  1.0816
 3181TIP3    H231103   0.552   4.692   0.050  1.0957 -0.1967  0.9855
 3182TIP3   OH231104   2.137   0.162   7.013  0.3374 -0.0560  0.5643
 3182TIP3    H131105   2.141   0.069   7.035 -0.7645 -0.6100 -1.3319
 3182TIP3    H231106   2.126   0.207   7.097  0.6531 -1.6436  1.4864
 3183TIP3   OH231107   6.360   3.222   1.845 -0.0770 -0.3329  0.5092
 3183TIP3    H131108   6.399   3.292   1.898 -0.5285 -0.5244  1.1068
 3183TIP3    H231109   6.432   3.192   1.789 -0.2473  1.6050 -0.8330
 3184TIP3   OH231110   3.546   0.997   8.715  0.5017 -0.1101 -0.4689
 3184TIP3    H131111   3.567   1.000   8.622  2.1161 -0.0321 -0.1468
 3184TIP3    H231112   3.451   1.001   8.719  0.3965 -0.2872 -2.1153
 3185TIP3   OH231113   5.365   1.089   2.689 -0.5525  0.0626  0.7357
 3185TIP3    H131114   5.372   1.100   2.594 -1.1261 -0.8406  0.5714
 3185TIP3    H231115   5.406   1.167   2.726 -1.4238  1.0205 -0.2630
 3186TIP3   OH231116   4.493   3.845   7.933 -0.0366 -0.4820 -0.3927
 3186TIP3    H131117   4.463   3.935   7.945 -0.7567 -0.5839 -1.3748
 3186TIP3    H231118   4.421   3.801   7.888  1.6444 -0.6724 -3.1275
 3187TIP3   OH231119   6.432   5.359   0.172  0.2430  0.3567  0.7547
 3187TIP3    H131120   6.510   5.321   0.131 -0.5280 -0.2053 -0.2489
 3187TIP3    H231121   6.384   5.284   0.208 -1.7376  0.1255 -2.0100
 3188TIP3   OH231122   6.065   6.017   2.771 -0.8361  0.4128  0.2260
 3188TIP3    H131123   6.062   6.011   2.676 -0.7411 -1.2523  0.2868
 3188TIP3    H231124   6.108   6.100   2.790  1.9913 -0.6119 -1.2221
 3189TIP3   OH231125   1.867   0.931   8.753  0.4594  0.1749 -0.1089
 3189TIP3    H131126   1.907   0.876   8.820  1.4922 -0.7426 -1.4295
 3189TIP3    H231127   1.866   1.019   8.792  0.5149 -0.4206  1.2974
 3190TIP3   OH231128   0.317   4.013   2.058 -0.1233 -0.5180  0.0822
 3190TIP3    H131129   0.313   4.108   2.065 -1.5345 -0.4929 -0.6859
 3190TIP3    H231130   0.255   3.981   2.124  1.8265 -1.0103  1.7562
 3191TIP3   OH231131   2.820   5.996   2.797  0.0782  0.3971 -0.1037
 3191TIP3    H131132   2.760   6.041   2.856 -0.0383 -0.4763  0.4681
 3191TIP3    H231133   2.865   6.066   2.750  2.1448  1.2678  2.8860
 3192TIP3   OH231134   1.999   0.718   2.021 -0.0413  0.0309  0.3221
 3192TIP3    H131135   1.921   0.752   2.066 -1.3973 -0.2331 -1.7224
 3192TIP3    H231136   2.000   0.625   2.044  0.0483  0.1589  0.8607
 3193TIP3   OH231137   1.958   2.081   0.267 -0.4165 -0.2152 -0.0258
 3193TIP3    H131138   1.916   2.167   0.273  0.3996  0.3735 -1.8706
 3193TIP3    H231139   2.045   2.100   0.230 -0.3929 -1.8714 -0.9150
 3194TIP3   OH231140   0.740   4.120   1.146 -0.1959 -0.8601  0.1680
 3194TIP3    H131141   0.741   4.031   1.181  2.6021 -1.2265 -0.6092
 3194TIP3    H231142   0.718   4.109   1.054  3.8271 -1.3347 -0.9070
 3195TIP3   OH231143   1.525   6.292   1.701  0.0218  0.2806 -0.3496
 3195TIP3    H131144   1.547   6.224   1.638 -1.3613 -0.0026 -0.5525
 3195TIP3    H231145   1.557   6.258   1.785 -1.3519 -1.0131 -0.3107
 3196TIP3   OH231146   5.249   0.399   2.083  0.6358 -0.1216 -0.1040
 3196TIP3    H131147   5.307   0.474   2.065 -3.2348  3.2559 -0.0110
 3196TIP3    H231148   5.247   0.394   2.178 -0.3255  0.8338 -0.0528
 3197TIP3   OH231149   0.426   6.080   7.152 -0.4213  0.4859 -0.1844
 3197TIP3    H131150   0.340   6.039   7.137 -0.4930 -0.4012  2.2032
 3197TIP3    H231151   0.489   6.014   7.127 -0.4542  0.6842 -0.7938
 3198TIP3   OH231152   1.567   5.462   8.682 -0.3021 -0.3205 -0.1096
 3198TIP3    H131153   1.640   5.495   8.630 -1.1789  1.4371 -0.3236
 3198TIP3    H231154   1.579   5.368   8.685  0.6173 -0.3133 -2.2214
 3199TIP3   OH231155   1.760   1.116   0.127  0.2337 -0.2953 -0.0582
 3199TIP3    H131156   1.694   1.060   0.085 -0.4748 -0.4244  1.1550
 3199TIP3    H231157   1.774   1.075   0.213  0.2951  0.9439  0.5396
 3200TIP3   OH231158   0.027   6.062   0.391 -0.1238 -0.1772  0.3108
 3200TIP3    H131159   0.121   6.060   0.408 -0.1787 -0.3351  0.5957
 3200TIP3    H231160   0.018   6.017   0.307 -0.0599 -1.2289  0.8416
 3201TIP3   OH231161   5.237   0.522   8.698  0.4235 -0.0791  0.2479
 3201TIP3    H131162   5.220   0.612   8.671 -0.4282 -0.1700  0.4665
 3201TIP3    H231163   5.222   0.470   8.618  0.6701 -0.0560  0.1852
 3202TIP3   OH231164   5.725   0.041   7.518 -0.6270 -0.8473 -0.3404
 3202TIP3    H131165   5.706   0.110   7.582  0.6730 -0.0874 -0.7478
 3202TIP3    H231166   5.688   0.074   7.436 -2.2870 -1.8173 -0.0289
 3203TIP3   OH231167   2.223   1.099   0.524 -0.7860  0.6015  0.1217
 3203TIP3    H131168   2.296   1.158   0.507 -0.2788  0.5026  1.7700
 3203TIP3    H231169   2.263   1.022   0.564 -1.8189  0.7165  1.4285
 3204TIP3   OH231170   2.807   3.922   0.128 -0.0683 -0.3871  0.5731
 3204TIP3    H131171   2.866   3.934   0.054 -1.9116  0.9084 -0.8080
 3204TIP3    H231172   2.844   3.976   0.197  1.3743 -1.1432  0.4161
 3205TIP3   OH231173   3.448   3.278   8.468 -0.2248  0.5583  0.3396
 3205TIP3    H131174   3.429   3.355   8.522  0.2137  1.3228 -0.5744
 3205TIP3    H231175   3.436   3.309   8.378  0.9815 -0.1545 -0.0770
 3206TIP3   OH231176   0.710   3.398   8.530  0.0896  0.1203 -0.3733
 3206TIP3    H131177   0.725   3.304   8.538 -0.2304 -0.0686 -1.7782
 3206TIP3    H231178   0.672   3.423   8.615  1.0719 -0.8154  0.3741
 3207TIP3   OH231179   4.373   6.699   7.543  0.1665 -0.0172 -0.0469
 3207TIP3    H131180   4.400   6.644   7.469 -1.5018 -0.1055 -0.6332
 3207TIP3    H231181   4.432   6.775   7.539  0.8970 -0.6080 -0.7162
 3208TIP3   OH231182   0.051   1.410   1.731  0.0032 -0.3240 -0.4578
 3208TIP3    H131183   0.127   1.433   1.784  0.5185 -0.9284 -0.9133
 3208TIP3    H231184  -0.016   1.473   1.756  0.5118 -0.0628  0.2753
 3209TIP3   OH231185   4.391   6.618   0.135  0.4331  0.4092  0.1481
 3209TIP3    H131186   4.446   6.659   0.202  0.0637  1.3611 -0.1071
 3209TIP3    H231187   4.301   6.638   0.161  0.1811 -1.1447  0.5627
 3210TIP3   OH231188   3.980   5.321   2.244  0.6001  0.0962 -0.3703
 3210TIP3    H131189   4.060   5.332   2.192  1.0423 -0.6587  0.1298
 3210TIP3    H231190   3.986   5.389   2.311 -0.3209  1.5369 -1.7036
 3211TIP3   OH231191   2.924   3.747   8.192  0.5827  0.0480  0.3131
 3211TIP3    H131192   3.008   3.757   8.149  0.2481  2.3746  0.0757
 3211TIP3    H231193   2.870   3.700   8.129  1.5221 -0.9842  0.2581
 3212TIP3   OH231194   6.361   1.371   0.408  0.0026  0.1049 -0.3146
 3212TIP3    H131195   6.357   1.326   0.492  0.9892 -0.6779 -0.6774
 3212TIP3    H231196   6.286   1.336   0.359  0.6849 -1.0697 -0.5457
 3213TIP3   OH231197   6.342   3.867   8.614  0.3322 -0.0748 -0.3916
 3213TIP3    H131198   6.384   3.856   8.699 -0.7510 -0.2683  0.1353
 3213TIP3    H231199   6.413   3.896   8.556  1.2665 -0.7731  0.3593
 3214TIP3   OH231200   6.401   1.736   7.618 -0.3385 -0.1328  0.4736
 3214TIP3    H131201   6.483   1.783   7.610  0.1700 -1.3066 -2.8482
 3214TIP3    H231202   6.426   1.643   7.620 -1.5012 -0.5055  3.0023
 3215TIP3   OH231203   6.570   1.679   0.011 -0.3542  0.2973 -0.1648
 3215TIP3    H131204   6.482   1.715  -0.001 -0.1779  0.6817 -0.3076
 3215TIP3    H231205   6.606   1.729   0.084 -1.1079 -1.4451  1.4749
 3216TIP3   OH231206   0.984   4.650   7.642 -0.1985  0.1399 -0.0217
 3216TIP3    H131207   0.918   4.585   7.615  0.5148 -0.6798  0.1546
 3216TIP3    H231208   0.946   4.692   7.719  0.1867 -1.5529  1.1588
 3217TIP3   OH231209   2.352   1.552   1.315 -0.1453  0.4199 -0.5426
 3217TIP3    H131210   2.337   1.485   1.248 -1.9611 -1.0947  1.2400
 3217TIP3    H231211   2.265   1.584   1.337  0.4923  1.5829  0.4061
 3218TIP3   OH231212   2.740   3.590   8.557 -0.6964 -0.0554  0.7108
 3218TIP3    H131213   2.744   3.674   8.603  0.4641 -0.9239  2.3097
 3218TIP3    H231214   2.662   3.597   8.502 -1.1882  1.6931  1.5412
 3219TIP3   OH231215   3.906   5.337   1.097  0.4294  0.0244  0.5525
 3219TIP3    H131216   3.881   5.308   1.185  0.3154 -0.6491  0.3032
 3219TIP3    H231217   3.896   5.259   1.042  1.2791  0.2275  0.0934
 3220TIP3   OH231218   4.989   0.313   8.336  0.2837  0.1283 -0.3722
 3220TIP3    H131219   4.941   0.301   8.418 -0.0042  0.7062 -0.4544
 3220TIP3    H231220   5.043   0.234   8.328 -0.5624 -0.4766 -0.2123
 3221TIP3   OH231221   3.354   5.851   7.857  0.4646  0.1678 -0.1818
 3221TIP3    H131222   3.333   5.808   7.940  1.8697  1.3027  0.8106
 3221TIP3    H231223   3.334   5.786   7.791 -2.3004 -0.2085  0.8797
 3222TIP3   OH231224   5.105   6.230   7.558 -0.5997 -0.2076 -0.6272
 3222TIP3    H131225   5.011   6.223   7.541 -0.6832  0.5601 -0.5297
 3222TIP3    H231226   5.134   6.303   7.504 -0.2147  0.0560 -0.0796
 3223TIP3   OH231227   6.494   1.983   8.655  0.2361 -0.0708 -0.4006
 3223TIP3    H131228   6.561   2.006   8.590  0.4883  1.7762  0.4512
 3223TIP3    H231229   6.535   2.002   8.739 -0.4788 -1.3696  0.2624
 3224TIP3   OH231230   4.906   2.461   7.132  0.2187 -0.0999 -0.0940
 3224TIP3    H131231   4.954   2.436   7.211 -2.4954  1.2537  2.1284
 3224TIP3    H231232   4.860   2.382   7.105  1.1145 -0.5543 -0.3352
 3225TIP3   OH231233   3.593   4.177   0.158 -0.7730  0.7630  0.6112
 3225TIP3    H131234   3.609   4.253   0.214  0.0505  1.6527 -0.7594
 3225TIP3    H231235   3.671   4.122   0.169 -2.3918 -1.1536  3.4344
 3226TIP3   OH231236   0.886   4.400   8.529  0.0066 -0.3105 -0.1790
 3226TIP3    H131237   0.956   4.464   8.512 -0.4716 -0.1284 -1.5661
 3226TIP3    H231238   0.810   4.435   8.483 -1.6319  0.5091  2.8593
 3227TIP3   OH231239   4.287   0.919   7.021 -0.3056 -0.0634 -0.4003
 3227TIP3    H131240   4.371   0.882   7.046 -0.3108 -0.3204 -0.7613
 3227TIP3    H231241   4.286   1.006   7.061  0.4535  0.2392 -1.0243
 3228TIP3   OH231242   1.878   3.577   0.349  0.2752  0.9116  0.1772
 3228TIP3    H131243   1.901   3.505   0.289 -1.2598  1.6989 -1.4595
 3228TIP3    H231244   1.783   3.574   0.354  0.3615  0.4964  3.1874
 3229TIP3   OH231245   0.847   0.939   0.043  0.2281 -0.0883  0.0828
 3229TIP3    H131246   0.900   1.009   0.004 -0.0596 -0.5296 -1.1396
 3229TIP3    H231247   0.771   0.932  -0.014  0.2587 -1.4072  0.1763
 3230TIP3   OH231248   5.326   0.102   8.738 -0.2889 -0.3736  0.3649
 3230TIP3    H131249   5.337   0.194   8.761 -1.9763  0.1282 -0.6495
 3230TIP3    H231250   5.373   0.054   8.807  3.1607  1.2423 -0.6504
 3231TIP3   OH231251   4.091   1.569   0.177  0.1859 -0.1078 -0.1944
 3231TIP3    H131252   4.053   1.637   0.121 -1.1737 -0.9850 -0.4023
 3231TIP3    H231253   4.041   1.490   0.155  2.2495 -1.3955 -0.5717
 3232TIP3   OH231254   3.961   5.131   0.676  0.3112 -0.4227  0.3196
 3232TIP3    H131255   3.978   5.037   0.672  1.1103 -0.2666 -0.4149
 3232TIP3    H231256   4.040   5.167   0.716  1.1931  0.1848 -1.8046
 3233TIP3   OH231257   0.525   1.336   0.416 -0.3682 -0.5292 -0.1937
 3233TIP3    H131258   0.439   1.346   0.457 -0.4564 -1.0502 -0.2391
 3233TIP3    H231259   0.555   1.425   0.399 -0.7602 -0.3395  0.1155
 3234TIP3   OH231260   0.152   0.574   7.374 -0.6891 -0.8904  0.2504
 3234TIP3    H131261   0.085   0.560   7.442  0.7203 -2.3903  1.4134
 3234TIP3    H231262   0.186   0.661   7.393  1.1955 -2.0794  3.0016
 3235TIP3   OH231263   2.916   1.204   2.228  0.4963  0.6224 -0.3589
 3235TIP3    H131264   2.897   1.166   2.142  0.7548  0.9838 -0.5784
 3235TIP3    H231265   2.856   1.279   2.235  0.2853  0.4324 -0.1075
 3236TIP3   OH231266   5.241   1.926   0.875  0.0366 -0.3686 -0.4425
 3236TIP3    H131267   5.237   2.022   0.872 -0.9921 -0.2831  1.4981
 3236TIP3    H231268   5.212   1.905   0.964 -0.0048 -2.5044 -0.9277
 3237TIP3   OH231269   2.403   6.261   8.691 -0.0810  0.3144  0.8441
 3237TIP3    H131270   2.430   6.306   8.771  0.1169 -0.2708  1.1097
 3237TIP3    H231271   2.308   6.272   8.687 -0.1440 -0.0160  1.3824
 3238TIP3   OH231272   4.213   4.365   1.447 -0.7170  0.1794 -0.0694
 3238TIP3    H131273   4.246   4.328   1.528 -0.9996  0.6977  0.2898
 3238TIP3    H231274   4.118   4.370   1.459 -1.0024 -1.5597 -1.1979
 3239TIP3   OH231275   0.681   5.516   1.969  0.3208 -0.5268 -0.0003
 3239TIP3    H131276   0.599   5.497   1.924  0.9255 -0.9367 -0.9654
 3239TIP3    H231277   0.704   5.604   1.941  1.6806 -1.4681 -2.1358
 3240TIP3   OH231278   1.533   3.350   8.642  0.1896  0.2446 -0.0602
 3240TIP3    H131279   1.554   3.375   8.552  0.0114  1.3343  0.1928
 3240TIP3    H231280   1.443   3.380   8.655 -0.3516 -1.2969 -0.0094
 3241TIP3   OH231281   0.074   5.597   8.672  0.5180 -0.4428 -0.1965
 3241TIP3    H131282   0.092   5.683   8.634  0.8711  1.0362  2.9895
 3241TIP3    H231283   0.161   5.561   8.693  0.3099 -0.3309  0.9238
 3242TIP3   OH231284   6.789   4.760   7.602 -0.5273 -0.2829  0.1987
 3242TIP3    H131285   6.874   4.757   7.558  0.0178 -0.3017  1.2181
 3242TIP3    H231286   6.801   4.825   7.671 -1.3684 -0.2463  0.3124
 3243TIP3   OH231287   2.859   2.736   0.652 -0.1074 -0.0278 -0.6171
 3243TIP3    H131288   2.852   2.752   0.747  0.3224  3.2363 -1.0339
 3243TIP3    H231289   2.772   2.705   0.627 -0.6137  0.3035  0.6498
 3244TIP3   OH231290   4.566   2.531   1.351 -0.5486  0.5861  0.1540
 3244TIP3    H131291   4.496   2.582   1.309 -1.0231 -0.4335 -0.3293
 3244TIP3    H231292   4.570   2.450   1.301  2.1142  1.2445 -0.8711
 3245TIP3   OH231293   6.039   2.187   0.168  0.8255  0.0659 -0.3155
 3245TIP3    H131294   6.075   2.275   0.172 -0.0462  0.3866  2.0275
 3245TIP3    H231295   5.952   2.198   0.131 -0.2276  0.6275  2.1149
 3246TIP3   OH231296   1.156   4.424   1.025 -0.5433 -0.4651  0.3003
 3246TIP3    H131297   1.246   4.421   0.995 -0.6996 -1.7201 -0.1182
 3246TIP3    H231298   1.116   4.343   0.991 -1.5377 -0.4551  1.3489
 3247TIP3   OH231299   1.242   6.751   8.683 -0.2992  1.1474  0.3349
 3247TIP3    H131300   1.226   6.774   8.775  1.9928  0.8271  0.8665
 3247TIP3    H231301   1.330   6.784   8.665 -0.0719 -0.2339 -1.2716
 3248TIP3   OH231302   6.505   0.569   2.243 -0.4211 -0.9231 -0.1489
 3248TIP3    H131303   6.424   0.555   2.292  0.2750 -0.7783  1.0844
 3248TIP3    H231304   6.478   0.618   2.166 -1.3945  0.0021  0.7382
 3249TIP3   OH231305   4.577   3.501   1.364 -0.4017 -0.2350 -0.2205
 3249TIP3    H131306   4.645   3.460   1.417 -0.3643  0.4502  0.2789
 3249TIP3    H231307   4.502   3.509   1.423 -1.0498 -1.2962 -0.8651
 3250TIP3   OH231308   3.805   1.024   7.509 -0.2018 -0.0224 -0.6024
 3250TIP3    H131309   3.801   1.106   7.459  0.2388  0.3960  0.0261
 3250TIP3    H231310   3.816   0.956   7.443 -1.1319  0.3583 -1.1861
 3251TIP3   OH231311   5.036   4.022   1.071  0.1333  0.0573 -0.1071
 3251TIP3    H131312   5.099   4.027   0.999 -0.9981 -0.6414 -1.1957
 3251TIP3    H231313   5.053   4.099   1.124  2.3231 -0.4497  0.0023
 3252TIP3   OH231314   3.046   4.748   8.326  0.3305  0.1707 -0.0196
 3252TIP3    H131315   2.973   4.742   8.263 -0.9518 -2.6821  1.5206
 3252TIP3    H231316   3.088   4.662   8.321  1.7115  0.7402  1.2855
 3253TIP3   OH231317   4.320   0.369   8.003 -0.0637 -0.1831 -0.1905
 3253TIP3    H131318   4.335   0.317   7.925  0.7103  0.0356 -0.1933
 3253TIP3    H231319   4.267   0.314   8.060  0.1934 -0.7136 -0.4657
 3254TIP3   OH231320   5.533   6.747   7.841 -0.0048  0.6403 -0.1473
 3254TIP3    H131321   5.585   6.825   7.859 -0.8199  1.5038 -1.4094
 3254TIP3    H231322   5.448   6.780   7.812 -1.0119 -0.7292  1.0287
 3255TIP3   OH231323   4.723   5.075   2.001 -0.2510  0.4814  0.2864
 3255TIP3    H131324   4.711   5.168   1.986 -0.9079  0.3081 -0.3073
 3255TIP3    H231325   4.725   5.036   1.913 -1.9722 -0.2986  0.5560
 3256TIP3   OH231326   0.181   5.647   8.055 -0.9174  0.4355  0.1480
 3256TIP3    H131327   0.250   5.616   7.997 -1.4337  0.2559 -0.3824
 3256TIP3    H231328   0.145   5.723   8.010  0.2169  1.7415  1.3532
 3257TIP3   OH231329   2.678   1.711   1.577 -0.0745  0.1928  0.3228
 3257TIP3    H131330   2.690   1.617   1.588 -0.2358  0.0683 -0.4973
 3257TIP3    H231331   2.585   1.725   1.594 -0.0130  0.2325  0.6276
 3258TIP3   OH231332   1.545   1.524   8.184  0.0178  0.2486  0.5307
 3258TIP3    H131333   1.560   1.432   8.163  0.6022  0.0646  1.6751
 3258TIP3    H231334   1.564   1.570   8.102  0.3268 -0.5882  0.1109
 3259TIP3   OH231335   2.492   5.120   2.087  0.7977  0.2172  0.1907
 3259TIP3    H131336   2.459   5.131   1.997  1.9077  1.0637 -0.1386
 3259TIP3    H231337   2.529   5.032   2.089  0.2627 -0.0169 -0.0108
 3260TIP3   OH231338   6.811   2.100   1.155  0.1684  0.7202  0.0571
 3260TIP3    H131339   6.855   2.145   1.083 -0.0774 -1.0113 -1.2331
 3260TIP3    H231340   6.856   2.017   1.163 -0.6577  0.3473  1.0381
 3261TIP3   OH231341   3.220   4.294   1.099  0.1649 -0.0507  0.1044
 3261TIP3    H131342   3.250   4.226   1.039 -2.0176 -0.1246 -1.0031
 3261TIP3    H231343   3.199   4.368   1.042  1.6198  1.2763  1.1989
 3262TIP3   OH231344   1.683   5.186   2.435  0.2624 -0.0617 -0.2806
 3262TIP3    H131345   1.741   5.211   2.363 -0.0755 -2.4516 -1.5016
 3262TIP3    H231346   1.735   5.199   2.514  2.0733 -0.9513 -1.2573
 3263TIP3   OH231347   2.646   4.298   6.943 -0.0600  0.4025 -0.3942
 3263TIP3    H131348   2.645   4.393   6.931  2.1990  0.7954  1.7831
 3263TIP3    H231349   2.732   4.279   6.980 -1.3349 -2.1629  1.5723
 3264TIP3   OH231350   1.755   1.020   7.418 -0.6566  0.0945 -0.2045
 3264TIP3    H131351   1.846   1.013   7.389 -0.5005 -0.1809  0.3461
 3264TIP3    H231352   1.760   1.014   7.514 -1.3053 -0.4831 -0.2048
 3265TIP3   OH231353   6.042   1.635   1.533  0.1951 -0.3449  0.3169
 3265TIP3    H131354   6.069   1.707   1.591  0.7248  0.8282 -1.3164
 3265TIP3    H231355   5.953   1.615   1.560  0.2344  0.5507  1.1835
 3266TIP3   OH231356   2.351   0.473   8.770  0.4176  0.4583  0.0118
 3266TIP3    H131357   2.362   0.389   8.814  1.4347  0.2215 -0.6526
 3266TIP3    H231358   2.373   0.455   8.678 -1.5083  0.9614 -0.6026
 3267TIP3   OH231359   2.923   4.829   0.121  0.4650  0.6040  0.0977
 3267TIP3    H131360   2.866   4.753   0.133 -0.2257  0.8941 -1.1206
 3267TIP3    H231361   2.946   4.856   0.210 -0.1116 -0.4098  0.5766
 3268TIP3   OH231362   5.879   1.358   7.521  1.0837 -0.4402 -0.2045
 3268TIP3    H131363   5.799   1.319   7.487 -0.4091  1.8908  0.4134
 3268TIP3    H231364   5.849   1.421   7.587  3.5024 -0.2624  0.8348
 3269TIP3   OH231365   1.030   5.535   2.334 -0.1260 -0.3883 -0.1035
 3269TIP3    H131366   0.982   5.493   2.405 -1.2830 -1.4809 -1.4609
 3269TIP3    H231367   1.082   5.603   2.376 -1.3191 -0.5328  1.6801
 3270TIP3   OH231368   1.103   4.118   0.010 -0.4676 -0.4771  0.5107
 3270TIP3    H131369   1.045   4.061   0.061 -0.3959 -0.9356  0.0939
 3270TIP3    H231370   1.132   4.063  -0.062  1.6370 -0.7495  1.4795
 3271TIP3   OH231371   6.573   2.071   0.455  0.3400 -0.0573 -0.1958
 3271TIP3    H131372   6.633   2.052   0.383 -0.0605 -1.5989 -0.1685
 3271TIP3    H231373   6.487   2.045   0.422  0.0993 -0.4410  0.6987
 3272TIP3   OH231374   4.335   3.931   8.635 -0.1380  0.1098 -0.4377
 3272TIP3    H131375   4.292   3.849   8.660 -2.3012  1.4797  0.6588
 3272TIP3    H231376   4.318   3.939   8.542  2.2490 -1.8030 -1.1598
 3273TIP3   OH231377   3.019   4.832   0.725 -0.8301  0.0837 -0.0643
 3273TIP3    H131378   3.061   4.761   0.774  1.6171  0.4607 -1.4558
 3273TIP3    H231379   3.026   4.908   0.782  1.8070  0.4758 -0.7916
 3274TIP3   OH231380   2.618   3.338   7.880  0.3054 -0.0568 -0.1463
 3274TIP3    H131381   2.547   3.375   7.827 -0.0593  0.6457  0.8140
 3274TIP3    H231382   2.575   3.273   7.936  0.5222 -0.0750 -0.0011
 3275TIP3   OH231383   0.186   1.417   7.214 -0.3838 -0.8778 -0.1882
 3275TIP3    H131384   0.196   1.339   7.161  0.8149 -0.7649 -0.1421
 3275TIP3    H231385   0.208   1.489   7.155  0.5673 -0.7245  0.3475
 3276TIP3   OH231386   3.516   3.922   1.220 -0.2362 -0.5363  0.1815
 3276TIP3    H131387   3.510   3.832   1.249 -0.5193 -0.4340  0.4435
 3276TIP3    H231388   3.577   3.964   1.281  0.6893 -0.7906 -0.5462
 3277TIP3   OH231389   3.969   2.063   0.189 -0.4360 -0.4832  0.2423
 3277TIP3    H131390   3.947   2.023   0.274  1.3290 -2.4869 -0.1467
 3277TIP3    H231391   4.010   2.147   0.212 -2.1645  0.1449  1.2090
 3278TIP3   OH231392   2.563   4.028   2.526 -0.0316 -0.4076 -0.4210
 3278TIP3    H131393   2.542   3.952   2.580 -1.1798  1.3909  1.8316
 3278TIP3    H231394   2.617   4.083   2.581 -2.1450  2.0122 -0.5704
 3279TIP3   OH231395   1.473   6.538   7.673 -0.0494  0.3221  0.9008
 3279TIP3    H131396   1.404   6.481   7.638 -0.6924  0.5106  1.8252
 3279TIP3    H231397   1.536   6.546   7.602 -0.3814 -0.8454  0.4531
 3280TIP3   OH231398   1.149   3.777   6.895  0.3010  0.2275  0.2951
 3280TIP3    H131399   1.116   3.739   6.976 -0.9928  0.0325 -0.2987
 3280TIP3    H231400   1.086   3.846   6.873  1.5305  1.4017  0.3093
 3281TIP3   OH231401   0.139   2.321   2.078 -0.5205 -0.9284 -0.8239
 3281TIP3    H131402   0.052   2.356   2.058 -0.6022 -0.3583  0.4168
 3281TIP3    H231403   0.195   2.399   2.083 -0.6691 -0.9099  1.8269
 3282TIP3   OH231404   5.818   0.291   0.362 -0.0767  1.0660 -0.2464
 3282TIP3    H131405   5.863   0.226   0.307  0.4610 -0.1267  1.5226
 3282TIP3    H231406   5.737   0.310   0.315 -0.3241 -1.0075 -0.7568
 3283TIP3   OH231407   5.049   5.698   8.714  0.2587  0.1357 -0.5528
 3283TIP3    H131408   5.129   5.658   8.681  0.2139 -0.5241  0.1194
 3283TIP3    H231409   5.033   5.772   8.655 -0.6059 -1.8137 -2.9314
 3284TIP3   OH231410   1.935   5.818   8.633  0.0515  0.7076  0.4237
 3284TIP3    H131411   2.021   5.848   8.663 -0.0484 -0.7448  2.3941
 3284TIP3    H231412   1.875   5.888   8.657  0.6009  1.5757 -0.6408
 3285TIP3   OH231413   0.677   5.476   0.964  0.0052  0.0053  0.2367
 3285TIP3    H131414   0.699   5.458   0.873  1.0412  1.0988  0.2523
 3285TIP3    H231415   0.585   5.505   0.961  0.4429  1.3969 -0.6694
 3286TIP3   OH231416   3.996   0.988   0.563 -0.1463 -0.3298 -0.1437
 3286TIP3    H131417   4.050   1.059   0.597 -0.9236  0.4233 -0.4299
 3286TIP3    H231418   4.054   0.912   0.561  1.7539  1.0328 -3.0526
 3287TIP3   OH231419   4.557   3.187   0.524 -0.2020 -0.4317  0.0571
 3287TIP3    H131420   4.575   3.110   0.578 -0.9507  0.3296  1.4325
 3287TIP3    H231421   4.638   3.200   0.474 -0.0893 -2.1469 -0.2900
 3288TIP3   OH231422   4.058   6.400   0.536  0.2602 -0.3585  0.0482
 3288TIP3    H131423   4.035   6.330   0.597 -0.6022  1.3198  1.7551
 3288TIP3    H231424   3.977   6.420   0.490  0.8870 -1.5698 -1.7405
 3289TIP3   OH231425   2.982   0.559   7.658 -0.4415  0.4689 -0.4050
 3289TIP3    H131426   3.068   0.600   7.651 -0.2099  0.7135  2.4557
 3289TIP3    H231427   2.934   0.590   7.582  2.1886 -0.2628 -2.5153
 3290TIP3   OH231428   2.480   4.845   2.019  0.0538 -0.4048  0.1127
 3290TIP3    H131429   2.426   4.792   2.079  0.2070 -0.2396  0.3983
 3290TIP3    H231430   2.468   4.803   1.934  0.3817 -1.0691  0.3824
 3291TIP3   OH231431   5.988   0.851   1.848 -0.2967 -0.7280 -0.0080
 3291TIP3    H131432   5.931   0.776   1.865 -0.7827 -0.1051  1.2864
 3291TIP3    H231433   5.930   0.927   1.849  0.4933 -0.0866  1.2517
 3292TIP3   OH231434   0.438   4.190   3.078 -0.0832  0.1251  0.1140
 3292TIP3    H131435   0.436   4.209   3.172  1.1270  0.7565  0.0301
 3292TIP3    H231436   0.531   4.194   3.055 -0.1965 -1.6230 -0.8012
 3293TIP3   OH231437   2.026   6.755   1.755  0.2451 -0.0068  0.1666
 3293TIP3    H131438   2.060   6.766   1.843  1.9392 -2.0883 -0.1334
 3293TIP3    H231439   1.957   6.689   1.764  1.4723 -1.4030 -0.2010
 3294TIP3   OH231440   0.713   4.289   8.342  0.4960  0.3108  0.2483
 3294TIP3    H131441   0.805   4.265   8.353  0.4554  0.3973  0.8067
 3294TIP3    H231442   0.716   4.378   8.306  0.6356  0.9753  1.8418
 3295TIP3   OH231443   3.130   5.955   8.104  0.3566 -0.0519 -0.5084
 3295TIP3    H131444   3.169   5.879   8.062  0.6791 -0.3548  0.3173
 3295TIP3    H231445   3.182   5.969   8.184 -0.8956 -0.1666  0.3634
 3296TIP3   OH231446   6.371   6.178   7.376 -0.1404  0.3617 -0.0858
 3296TIP3    H131447   6.459   6.170   7.340 -0.4750  2.7785 -1.6481
 3296TIP3    H231448   6.313   6.174   7.300 -1.2413  0.7258  0.7108
 3297TIP3   OH231449   1.930   2.215   2.786  0.0910 -0.9372  0.0357
 3297TIP3    H131450   2.008   2.164   2.766 -0.0100 -1.0845  0.0113
 3297TIP3    H231451   1.909   2.261   2.704  0.2290 -0.7921  0.0817
 3298TIP3   OH231452   2.063   5.612   1.779  0.2783 -0.3257 -0.9951
 3298TIP3    H131453   2.153   5.594   1.751  0.1111  0.4269 -2.0840
 3298TIP3    H231454   2.053   5.562   1.860  1.2079 -1.5757 -1.6120
 3299TIP3   OH231455   6.731   0.374   0.632 -0.1369  0.6874 -0.5815
 3299TIP3    H131456   6.776   0.457   0.653 -0.4951  0.8415 -0.4154
 3299TIP3    H231457   6.659   0.400   0.575 -1.0142  0.6522  0.4852
 3300TIP3   OH231458   2.239   6.010   0.898 -0.1068 -0.5302  0.2007
 3300TIP3    H131459   2.312   5.979   0.844 -0.0161 -0.5800  0.3518
 3300TIP3    H231460   2.279   6.032   0.982  0.2732  2.2837 -0.6087
 3301TIP3   OH231461   0.365   2.539   2.034  0.7250  0.4446 -0.3451
 3301TIP3    H131462   0.387   2.601   2.103  1.4861  0.8677 -0.9497
 3301TIP3    H231463   0.423   2.464   2.050  0.6595  0.3964 -0.3307
 3302TIP3   OH231464   1.015   4.739   1.061 -0.6483 -0.0417 -0.0648
 3302TIP3    H131465   1.003   4.831   1.037 -0.7736  0.1701  0.7870
 3302TIP3    H231466   1.106   4.720   1.037 -0.6061  0.3125 -0.1996
 3303TIP3   OH231467   3.697   1.979   3.122 -0.4020 -0.6327 -0.5490
 3303TIP3    H131468   3.693   2.050   3.059  1.9815 -0.0975 -0.1868
 3303TIP3    H231469   3.791   1.962   3.134 -0.7148 -0.7075  2.8268
 3304TIP3   OH231470   0.205   5.330   8.418 -0.9788 -0.5231  0.0580
 3304TIP3    H131471   0.264   5.388   8.466 -0.5520 -2.1277  1.5655
 3304TIP3    H231472   0.209   5.361   8.328 -0.0475  1.1740  0.6471
 3305TIP3   OH231473   6.166   1.270   0.203 -0.2906  0.5769  0.1414
 3305TIP3    H131474   6.122   1.345   0.244 -1.0469 -0.5967  1.6172
 3305TIP3    H231475   6.101   1.235   0.142  0.4200  1.6645 -1.2674
 3306TIP3   OH231476   4.341   3.692   0.962  0.0850 -0.6638 -0.1337
 3306TIP3    H131477   4.331   3.613   1.014  1.3835  0.5401  2.0693
 3306TIP3    H231478   4.277   3.753   0.997 -1.3128 -0.8238 -2.1977
 3307TIP3   OH231479   5.856   2.532   8.533 -0.1829 -0.2071 -0.3642
 3307TIP3    H131480   5.947   2.508   8.515 -0.1380 -0.3473  0.0350
 3307TIP3    H231481   5.861   2.621   8.567 -0.1226 -0.4724  0.3322
 3308TIP3   OH231482   4.922   3.366   8.221  0.0203 -0.1053  0.1669
 3308TIP3    H131483   4.873   3.293   8.185 -0.4783 -0.3731  1.3250
 3308TIP3    H231484   4.974   3.400   8.148  0.2531 -1.5991 -0.3881
 3309TIP3   OH231485   4.526   6.122   1.745 -0.3083 -0.0905  0.2246
 3309TIP3    H131486   4.508   6.083   1.831  1.0943  1.3498  1.2391
 3309TIP3    H231487   4.615   6.157   1.753 -0.4449  0.7758 -1.5748
 3310TIP3   OH231488   6.770   5.003   8.780  0.3773 -0.6646 -0.0782
 3310TIP3    H131489   6.769   5.004   8.684  0.2261  3.6819 -0.1964
 3310TIP3    H231490   6.732   5.087   8.806 -0.7576 -2.1613  3.9011
 3311TIP3   OH231491   0.292   3.520   7.465  0.5199  0.0703 -0.3036
 3311TIP3    H131492   0.377   3.509   7.423  0.6579 -0.2321  0.0460
 3311TIP3    H231493   0.234   3.551   7.396  0.9399  0.3760 -0.5177
 3312TIP3   OH231494   3.386   0.574   6.660 -0.3882 -0.5881  0.6912
 3312TIP3    H131495   3.409   0.497   6.711 -0.5158  0.6231  2.6688
 3312TIP3    H231496   3.461   0.632   6.668 -0.0381 -0.6787 -1.2767
 3313TIP3   OH231497   3.121   1.625   0.448 -0.2231 -0.2451 -0.2215
 3313TIP3    H131498   3.105   1.583   0.364 -1.7772  1.0120 -0.6249
 3313TIP3    H231499   3.154   1.556   0.505  1.3953 -1.0026 -1.9955
 3314TIP3   OH231500   4.586   3.158   7.478 -0.2938 -0.0204 -0.0981
 3314TIP3    H131501   4.676   3.131   7.458 -0.8981 -0.5592 -2.4877
 3314TIP3    H231502   4.547   3.082   7.522 -0.4104 -1.0578 -1.8758
 3315TIP3   OH231503   0.694   0.678   2.420 -0.3187  0.6917 -0.2778
 3315TIP3    H131504   0.607   0.661   2.385  0.0724  0.8553 -1.3474
 3315TIP3    H231505   0.693   0.772   2.442 -0.8580  0.3980  1.0251
 3316TIP3   OH231506   1.584   5.985   7.983 -0.6793 -0.4833  0.3351
 3316TIP3    H131507   1.570   6.064   8.036  1.9917  0.5380 -0.3110
 3316TIP3    H231508   1.647   5.934   8.034  2.0231  0.5652 -1.7104
 3317TIP3   OH231509   1.564   1.253   7.301 -0.6743 -0.1529  0.3897
 3317TIP3    H131510   1.546   1.298   7.384 -2.1407  1.1074 -0.5589
 3317TIP3    H231511   1.619   1.313   7.251  0.4138 -1.0150  0.5151
 3318TIP3   OH231512   5.954   2.804   8.317  0.1358  0.1885  0.3475
 3318TIP3    H131513   5.944   2.709   8.309 -1.5958  0.4119 -0.7488
 3318TIP3    H231514   6.024   2.826   8.256  1.2196 -0.4833  1.3364
 3319TIP3   OH231515   4.170   2.970   2.865  0.0966 -0.4189  0.0279
 3319TIP3    H131516   4.257   2.930   2.869  1.0119  1.5656  1.2056
 3319TIP3    H231517   4.147   2.985   2.956 -0.4296  1.2204 -0.3577
 3320TIP3   OH231518   4.164   2.098   0.447  0.1325  0.3467  0.4722
 3320TIP3    H131519   4.084   2.046   0.438 -1.8242  1.7246  5.7143
 3320TIP3    H231520   4.231   2.035   0.474  0.5493 -0.5702 -2.3605
 3321TIP3   OH231521   6.409   0.280   8.800 -0.3174  0.0404  0.2694
 3321TIP3    H131522   6.463   0.242   8.730  1.2206 -0.1508  1.5175
 3321TIP3    H231523   6.409   0.374   8.782  2.3163  0.3283  1.4522
 3322TIP3   OH231524   0.940   1.994   1.920  0.2274 -0.0582  0.3834
 3322TIP3    H131525   0.976   1.932   1.984 -1.2348  0.0930  1.3980
 3322TIP3    H231526   0.978   1.966   1.837  1.6918 -0.6459  1.2159
 3323TIP3   OH231527   3.468   1.494   0.198  0.2261  0.5659 -0.1801
 3323TIP3    H131528   3.385   1.494   0.148 -0.9703  1.8130  1.6736
 3323TIP3    H231529   3.503   1.406   0.186 -1.9388 -0.3670 -0.1378
 3324TIP3   OH231530   0.560   4.661   8.488 -0.7370 -0.6039 -0.1562
 3324TIP3    H131531   0.608   4.626   8.413 -0.2641  0.0850 -0.1893
 3324TIP3    H231532   0.510   4.587   8.522 -0.1115 -1.1842 -0.4897
 3325TIP3   OH231533   5.945   1.102   0.086 -0.2517  0.2797 -0.1331
 3325TIP3    H131534   6.024   1.053   0.060 -0.4761  0.5270 -1.3346
 3325TIP3    H231535   5.881   1.081   0.018 -0.5294  1.8018 -0.3677
 3326TIP3   OH231536   5.845   3.849   1.680  0.4425 -0.3201 -0.5254
 3326TIP3    H131537   5.921   3.818   1.731 -0.1849 -1.1484 -0.0676
 3326TIP3    H231538   5.771   3.804   1.719 -0.7084  2.5915  0.9234
 3327TIP3   OH231539   0.887   6.556   7.645 -0.2844 -0.0816 -0.2034
 3327TIP3    H131540   0.871   6.597   7.730  1.1068  0.5766 -0.2358
 3327TIP3    H231541   0.860   6.621   7.581  1.7743  0.7908 -0.2533
 3328TIP3   OH231542   4.272   4.393   2.279 -0.6156  0.1379 -0.0891
 3328TIP3    H131543   4.361   4.359   2.285 -0.7675 -0.0849  1.5017
 3328TIP3    H231544   4.282   4.488   2.273 -0.2666  0.1364  0.4288
 3329TIP3   OH231545   3.710   6.457   0.166 -0.0333  0.0170  0.6342
 3329TIP3    H131546   3.736   6.417   0.083 -1.7859  1.7494 -0.8639
 3329TIP3    H231547   3.619   6.429   0.179 -0.9552  2.4384  0.0773
 3330TIP3   OH231548   2.804   1.462   0.478  0.3804  0.4581 -0.2060
 3330TIP3    H131549   2.785   1.482   0.386  0.1787 -1.5482 -0.6421
 3330TIP3    H231550   2.885   1.411   0.475  0.6904  0.8608  0.8019
 3331TIP3   OH231551   5.360   6.392   0.309  0.1229 -0.1158 -0.4852
 3331TIP3    H131552   5.294   6.355   0.369 -0.0606  0.6305 -0.2211
 3331TIP3    H231553   5.390   6.471   0.353  2.8779 -1.5928  0.4964
 3332TIP3   OH231554   6.364   5.961   8.043  0.1377  0.6467 -0.5655
 3332TIP3    H131555   6.351   5.883   7.989 -0.0899  0.6586 -0.5307
 3332TIP3    H231556   6.417   6.019   7.989  0.9208  0.1808 -0.3079
 3333TIP3   OH231557   5.200   4.507   7.729  0.0234  0.5554 -0.0527
 3333TIP3    H131558   5.269   4.497   7.794  0.7730  0.5855 -0.8366
 3333TIP3    H231559   5.231   4.576   7.671  0.0374 -0.4715 -1.3094
 3334TIP3   OH231560   0.463   4.471   0.363  0.4433 -0.5332 -0.1217
 3334TIP3    H131561   0.536   4.524   0.331  0.4073  0.9725  2.0365
 3334TIP3    H231562   0.502   4.417   0.432 -0.5408  0.8271  1.5725
 3335TIP3   OH231563   3.237   6.662   1.817  0.0516 -0.2167 -0.2403
 3335TIP3    H131564   3.267   6.578   1.782 -0.2954 -0.0421 -0.9816
 3335TIP3    H231565   3.142   6.651   1.825  0.0150  0.0812 -0.2833
 3336TIP3   OH231566   6.271   3.457   1.709  0.8945  0.2980 -0.3508
 3336TIP3    H131567   6.366   3.450   1.701  0.8466  0.7472 -1.7174
 3336TIP3    H231568   6.247   3.391   1.774  2.1500  0.2844  0.1271
 3337TIP3   OH231569   3.478   6.660   0.319  0.5232 -0.0011  0.4282
 3337TIP3    H131570   3.572   6.659   0.302  0.6609 -2.6540  0.9757
 3337TIP3    H231571   3.468   6.711   0.399  1.4642  0.2965  0.3631
 3338TIP3   OH231572   4.754   0.026   0.161 -0.4440 -0.2209 -0.3071
 3338TIP3    H131573   4.670  -0.005   0.125 -0.8728  0.1928  0.3141
 3338TIP3    H231574   4.732   0.054   0.250  0.1030  1.0584 -0.5652
 3339TIP3   OH231575   1.466   4.531   2.684 -0.0028  0.3491  0.0009
 3339TIP3    H131576   1.422   4.487   2.757 -0.9963  1.4069  0.0720
 3339TIP3    H231577   1.537   4.472   2.660  2.5720  1.4155  4.0409
 3340TIP3   OH231578   6.635   6.112   7.306 -0.0696  0.5219  0.2593
 3340TIP3    H131579   6.719   6.159   7.312 -0.3777  1.4675 -1.9383
 3340TIP3    H231580   6.592   6.150   7.229 -1.9862 -0.8168  0.6110
 3341TIP3   OH231581   0.884   2.015   7.218 -0.7010  0.0752 -0.7907
 3341TIP3    H131582   0.869   1.921   7.202 -0.4220 -0.1027 -0.0456
 3341TIP3    H231583   0.796   2.053   7.217 -0.8283 -0.2159 -0.9430
 3342TIP3   OH231584   3.242   5.286   0.764 -0.1989  0.0281 -0.4887
 3342TIP3    H131585   3.244   5.191   0.756 -0.4866 -0.0428  0.1698
 3342TIP3    H231586   3.176   5.315   0.701 -0.9015 -0.3066  0.0829
 3343TIP3   OH231587   6.520   0.420   0.414 -0.4288 -0.0382  0.0580
 3343TIP3    H131588   6.452   0.352   0.422  0.1224 -0.4680  1.4580
 3343TIP3    H231589   6.551   0.412   0.324 -0.8188 -1.2295  0.0006
 3344TIP3   OH231590   4.386   5.313   2.494  0.1072 -0.1243 -0.0995
 3344TIP3    H131591   4.400   5.236   2.439  0.8863  1.2797 -1.9513
 3344TIP3    H231592   4.408   5.283   2.582  0.0355 -2.1119 -0.7094
 3345TIP3   OH231593   2.968   1.579   7.883  0.1886  0.4681 -0.2300
 3345TIP3    H131594   3.054   1.567   7.924  0.6213  1.2244 -0.8843
 3345TIP3    H231595   2.949   1.672   7.895  0.0543  0.5809 -1.2182
 3346TIP3   OH231596   4.820   6.069   1.618  0.2549 -0.5299 -0.1911
 3346TIP3    H131597   4.810   6.134   1.688  2.0006 -0.0894 -0.2953
 3346TIP3    H231598   4.910   6.037   1.628  0.6254 -0.3139 -2.3439
 3347TIP3   OH231599   2.261   4.655   2.406 -0.6179  0.2383  0.1398
 3347TIP3    H131600   2.236   4.585   2.466 -0.7284  0.8971  0.8869
 3347TIP3    H231601   2.292   4.725   2.463 -0.7555  0.8964 -0.5740
 3348TIP3   OH231602   3.589   5.249   1.138 -0.7979  0.4103 -0.6067
 3348TIP3    H131603   3.526   5.191   1.180  0.7586 -1.1388 -0.2957
 3348TIP3    H231604   3.591   5.221   1.046  1.4366 -1.5438 -0.0613
 3349TIP3   OH231605   2.891   4.901   1.521 -0.3340 -0.7782 -0.2665
 3349TIP3    H131606   2.854   4.863   1.600  2.0017  1.4470  2.1086
 3349TIP3    H231607   2.849   4.853   1.449 -2.9720 -2.5668  2.2348
 3350TIP3   OH231608   1.811   2.824   8.631  0.7897 -0.0631  0.1325
 3350TIP3    H131609   1.825   2.811   8.725 -1.5461 -1.0078  0.4151
 3350TIP3    H231610   1.877   2.769   8.589  0.9923 -0.6940  1.2254
 3351TIP3   OH231611   2.910   5.495   1.200 -0.1945 -0.5838 -0.7066
 3351TIP3    H131612   2.825   5.497   1.157 -0.8306 -0.6608  0.5026
 3351TIP3    H231613   2.926   5.402   1.217 -1.2003 -0.4107  1.5419
 3352TIP3   OH231614   0.583   3.122   2.189  0.0287 -0.4764 -0.2213
 3352TIP3    H131615   0.640   3.198   2.198 -0.9170  0.4267 -1.5378
 3352TIP3    H231616   0.622   3.071   2.118 -0.5590 -0.0546 -0.8610
 3353TIP3   OH231617   4.144   4.493   8.288 -0.3604 -0.1363 -0.1627
 3353TIP3    H131618   4.054   4.485   8.320 -1.0856 -0.0133 -2.0467
 3353TIP3    H231619   4.179   4.568   8.335 -1.5933  0.4618 -0.1612
 3354TIP3   OH231620   4.082   6.671   0.592 -0.4459  0.0915  0.2772
 3354TIP3    H131621   4.139   6.596   0.576 -0.8918 -0.0002 -0.9955
 3354TIP3    H231622   4.020   6.640   0.659  0.1728 -0.2363  0.7083
 3355TIP3   OH231623   4.863   3.236   2.205 -0.3780  0.0018 -0.3668
 3355TIP3    H131624   4.903   3.231   2.119 -0.0547 -0.0970 -0.2111
 3355TIP3    H231625   4.900   3.163   2.254 -0.8420 -0.1679 -0.2566
 3356TIP3   OH231626   6.793   0.031   2.890  0.2955 -0.4063  0.0336
 3356TIP3    H131627   6.708   0.001   2.857 -0.5423  0.1393  1.6050
 3356TIP3    H231628   6.838  -0.049   2.918 -0.3467 -0.5713  0.6136
 3357TIP3   OH231629   3.258   0.546   7.664  0.4800  0.2355 -0.2595
 3357TIP3    H131630   3.322   0.540   7.593  1.2778  0.8400  0.3737
 3357TIP3    H231631   3.294   0.614   7.722 -0.0795 -0.3310  0.7788
 3358TIP3   OH231632   6.771   2.019   8.569 -0.4642  0.6270  0.0815
 3358TIP3    H131633   6.788   1.955   8.500 -0.3587  0.0335  0.6451
 3358TIP3    H231634   6.774   2.104   8.525 -0.2824  0.2628 -0.6168
 3359TIP3   OH231635   3.403   5.506   0.698  0.2289  0.1696 -0.0657
 3359TIP3    H131636   3.348   5.440   0.740 -0.1700  0.8206  0.4517
 3359TIP3    H231637   3.432   5.563   0.770  1.7475 -0.2668 -0.2855
 3360TIP3   OH231638   1.146   1.986   2.244  0.4206  0.4427  0.2231
 3360TIP3    H131639   1.108   1.916   2.192 -1.9087  0.3754  1.8537
 3360TIP3    H231640   1.161   1.947   2.330 -1.9622  2.0629  1.5153
 3361TIP3   OH231641   2.676   1.950   7.562 -0.1374  0.5164  0.3379
 3361TIP3    H131642   2.680   1.856   7.579 -1.3668  0.3867 -0.0018
 3361TIP3    H231643   2.687   1.990   7.648  2.4009  0.1632  0.2562
 3362TIP3   OH231644   4.753   2.526   8.665  0.1600 -0.3963 -0.0001
 3362TIP3    H131645   4.756   2.619   8.685  1.4444 -0.3234 -0.3879
 3362TIP3    H231646   4.798   2.518   8.580 -1.6130 -1.1544 -0.9315
 3363TIP3   OH231647   2.085   3.583   1.937  0.3493  0.0983 -0.3718
 3363TIP3    H131648   2.032   3.662   1.928  0.6285  0.5612  1.5828
 3363TIP3    H231649   2.155   3.595   1.873  0.9042  1.9219  0.4924
 3364TIP3   OH231650   0.794   6.407   7.386  0.0894  0.6288 -0.1667
 3364TIP3    H131651   0.841   6.324   7.384 -0.5143  0.2918 -1.7591
 3364TIP3    H231652   0.847   6.463   7.443  0.7741 -0.6719  0.5184
 3365TIP3   OH231653   2.505   4.388   2.150 -0.0752 -0.8110 -0.0583
 3365TIP3    H131654   2.462   4.382   2.235 -0.1200  2.1014  0.2228
 3365TIP3    H231655   2.558   4.468   2.155  1.4766 -1.6094 -2.1118
 3366TIP3   OH231656   4.276   2.025   7.163 -0.7177 -0.2646 -0.2236
 3366TIP3    H131657   4.289   2.117   7.182 -0.0695 -0.1911 -0.9887
 3366TIP3    H231658   4.251   2.023   7.071  0.8332 -0.9727 -0.6465
 3367TIP3   OH231659   3.765   5.630   0.485  0.4823 -0.0051 -0.6243
 3367TIP3    H131660   3.769   5.691   0.559 -0.1546 -0.0286 -0.5627
 3367TIP3    H231661   3.671   5.611   0.475  0.4865  0.5700 -1.8988
 3368TIP3   OH231662   4.275   5.123   7.954  0.4209 -0.1777 -0.3774
 3368TIP3    H131663   4.244   5.209   7.983 -0.0524 -0.6379  0.5312
 3368TIP3    H231664   4.195   5.074   7.933  0.3837 -1.4985  2.3511
 3369TIP3   OH231665   3.348   6.677   0.068 -0.1932 -0.3157  0.2787
 3369TIP3    H131666   3.384   6.755   0.025 -0.1072  0.9714  2.4902
 3369TIP3    H231667   3.376   6.686   0.159 -1.6186 -2.1013  0.9483
 3370TIP3   OH231668   3.560   6.589   8.061  0.1184 -0.3025 -0.4022
 3370TIP3    H131669   3.556   6.535   8.140  0.2084  0.4762  0.1444
 3370TIP3    H231670   3.558   6.679   8.093  0.3893  0.0268 -1.2772
 3371TIP3   OH231671   4.601   5.527   0.954  0.2007  0.0137 -0.2458
 3371TIP3    H131672   4.650   5.586   0.896  0.0772  0.0518 -0.3111
 3371TIP3    H231673   4.669   5.473   0.995  0.3181  0.2293 -0.1527
 3372TIP3   OH231674   3.645   4.057   1.480 -0.0821  0.4088 -0.4086
 3372TIP3    H131675   3.605   3.974   1.509  3.2119 -1.4603 -0.6866
 3372TIP3    H231676   3.707   4.078   1.549 -1.1950  3.0551 -0.1076
 3373TIP3   OH231677   5.311   5.733   7.796 -0.0353  0.0900 -0.5221
 3373TIP3    H131678   5.294   5.827   7.796  2.3795  0.6249  0.9828
 3373TIP3    H231679   5.282   5.703   7.710 -3.4255  1.6081 -0.0718
 3374TIP3   OH231680   4.105   4.852   1.569 -0.4985 -0.1559 -0.2811
 3374TIP3    H131681   4.090   4.767   1.610  0.4289 -0.3181 -0.2613
 3374TIP3    H231682   4.101   4.834   1.475  0.1275 -0.3077 -0.2815
 3375TIP3   OH231683   5.285   2.134   0.278  0.1378 -0.1247 -0.3443
 3375TIP3    H131684   5.199   2.105   0.247  0.1046 -2.5926  1.6743
 3375TIP3    H231685   5.347   2.073   0.236  0.5919 -0.1458  0.3433
 3376TIP3   OH231686   3.972   0.115   0.886 -0.0147  0.2170 -0.2721
 3376TIP3    H131687   4.056   0.070   0.874  0.2781 -0.3792  3.0631
 3376TIP3    H231688   3.924   0.060   0.947 -2.0626  1.5735 -0.5613
 3377TIP3   OH231689   4.789   4.332   0.861 -0.0478 -0.3518 -0.1112
 3377TIP3    H131690   4.796   4.368   0.773 -2.0056 -1.9173 -0.9921
 3377TIP3    H231691   4.741   4.399   0.910 -0.9650 -0.4149 -0.8873
 3378TIP3   OH231692   4.156   2.334   0.593  0.7416  0.2937 -0.1437
 3378TIP3    H131693   4.166   2.275   0.519 -1.6633 -0.6056  0.1905
 3378TIP3    H231694   4.182   2.282   0.669  0.9226  0.4595 -0.0893
 3379TIP3   OH231695   5.359   2.670   0.504 -0.1074 -0.5274 -0.0418
 3379TIP3    H131696   5.432   2.705   0.553 -0.8017 -1.4475  1.7397
 3379TIP3    H231697   5.311   2.616   0.567 -2.1053 -0.2552 -1.2353
 3380TIP3   OH231698   0.297   3.442   2.725  0.6600 -0.5602 -0.4865
 3380TIP3    H131699   0.262   3.356   2.749  0.9985 -0.8255 -0.9192
 3380TIP3    H231700   0.225   3.503   2.741  1.1399 -0.5685  2.0267
 3381TIP3   OH231701   0.723   4.597   0.287  0.2553 -0.0248  0.1948
 3381TIP3    H131702   0.742   4.591   0.193 -0.3752 -1.3061  0.1210
 3381TIP3    H231703   0.704   4.690   0.302  1.3647  0.3693 -0.7282
 3382TIP3   OH231704   2.562   5.331   7.961 -0.0650  0.2845 -0.6226
 3382TIP3    H131705   2.547   5.238   7.971  0.4012  0.1688 -0.9352
 3382TIP3    H231706   2.488   5.362   7.909 -1.7040  0.6225  1.7472
 3383TIP3   OH231707   4.894   4.298   0.224 -0.6255 -0.6101  0.2089
 3383TIP3    H131708   4.918   4.342   0.142 -0.4916  0.4866  0.8110
 3383TIP3    H231709   4.966   4.237   0.241 -0.8813 -1.1918 -0.7181
 3384TIP3   OH231710   0.128   5.408   8.161 -0.4134  0.6215 -0.1770
 3384TIP3    H131711   0.157   5.498   8.143  1.7543  0.1731  0.7111
 3384TIP3    H231712   0.170   5.356   8.093 -1.8350  0.2507 -0.8138
 3385TIP3   OH231713   0.209   1.633   7.042 -0.1775 -0.1895  0.1599
 3385TIP3    H131714   0.246   1.717   7.069 -2.4014  0.5111  1.2640
 3385TIP3    H231715   0.208   1.637   6.947  0.5502  0.6424  0.1682
 3386TIP3   OH231716   5.888   3.251   2.227 -0.4137 -0.4866 -0.4017
 3386TIP3    H131717   5.983   3.242   2.236 -0.3421 -0.6160 -1.2850
 3386TIP3    H231718   5.866   3.325   2.285  0.3257  0.0201 -0.7508
 3387TIP3   OH231719   2.297   2.147   0.655  0.1504  0.5045 -0.2983
 3387TIP3    H131720   2.371   2.159   0.595  0.1909  0.1952 -0.3091
 3387TIP3    H231721   2.336   2.114   0.736  0.2954  2.3332  0.4288
 3388TIP3   OH231722   0.027   3.489   8.331 -0.5041 -0.7964 -0.2875
 3388TIP3    H131723  -0.020   3.554   8.384  1.8885  0.7703  0.0849
 3388TIP3    H231724   0.030   3.528   8.243  0.8797 -0.3743 -0.0778
 3389TIP3   OH231725   4.949   0.201   0.017  0.3377  0.0084  0.0258
 3389TIP3    H131726   5.026   0.146   0.002  0.2772  0.2428 -1.2893
 3389TIP3    H231727   4.885   0.143   0.058 -0.2836 -1.3971 -2.6897
 3390TIP3   OH231728   5.177   4.049   0.859  0.3308  0.0699  0.5469
 3390TIP3    H131729   5.132   3.979   0.812  1.5442 -1.1455  1.1038
 3390TIP3    H231730   5.250   4.072   0.802  1.8605 -1.4708  1.7645
 3391TIP3   OH231731   5.867   2.972   1.445 -0.1458  0.0728 -0.7720
 3391TIP3    H131732   5.909   3.023   1.514 -1.5800  0.2187  0.0258
 3391TIP3    H231733   5.928   2.899   1.429 -0.0399 -0.2945  1.0669
 3392TIP3   OH231734   1.519   5.563   7.823 -0.0017 -0.1098  0.3871
 3392TIP3    H131735   1.530   5.587   7.731  0.6605 -1.9348 -0.0502
 3392TIP3    H231736   1.556   5.475   7.830 -3.2669 -1.5468  1.5985
 3393TIP3   OH231737   5.715   3.507   7.596  0.1012 -0.0009  0.0830
 3393TIP3    H131738   5.789   3.512   7.535 -1.1590  0.1072 -1.5069
 3393TIP3    H231739   5.651   3.568   7.561 -0.6076  0.2013  1.6543
 3394TIP3   OH231740   3.114   1.182   0.047 -0.1557 -0.4891 -0.5334
 3394TIP3    H131741   3.086   1.223  -0.035 -1.9087 -0.2020  0.1721
 3394TIP3    H231742   3.174   1.246   0.086 -1.4415  0.6359 -0.3238
 3395TIP3   OH231743   3.300   6.207   7.987  0.3481  0.5469  0.0159
 3395TIP3    H131744   3.265   6.142   8.048  1.3423  0.5059  0.5709
 3395TIP3    H231745   3.284   6.170   7.901 -0.7582  0.4378  0.2573
 3396TIP3   OH231746   0.432   5.271   2.165 -0.0381 -0.5229 -0.5430
 3396TIP3    H131747   0.377   5.204   2.126  3.0509 -1.9163 -2.9075
 3396TIP3    H231748   0.493   5.296   2.096  0.9701  2.4798  1.2278
 3397TIP3   OH231749   2.639   3.343   7.029 -0.3319 -0.2586 -0.0588
 3397TIP3    H131750   2.557   3.392   7.036  0.3110  0.8191  0.1944
 3397TIP3    H231751   2.613   3.259   6.991 -1.6782 -0.2850  0.8319
 3398TIP3   OH231752   0.927   1.511   0.221  0.0219 -0.3481  0.1597
 3398TIP3    H131753   0.918   1.416   0.225  0.8503 -0.3753  2.2655
 3398TIP3    H231754   0.966   1.536   0.305  2.3204  1.5976 -1.3439
 3399TIP3   OH231755   2.434   6.115   0.172  0.2268  0.2210  0.6318
 3399TIP3    H131756   2.491   6.164   0.232  0.1827 -0.3669  1.1505
 3399TIP3    H231757   2.354   6.100   0.221 -0.9382  2.1665 -0.5218
 3400TIP3   OH231758   1.435   1.162   8.666 -0.7870 -0.1970  0.1447
 3400TIP3    H131759   1.375   1.164   8.741 -0.7780 -0.6766  0.1714
 3400TIP3    H231760   1.449   1.068   8.650 -1.9096 -0.1544 -1.3423
 3401TIP3   OH231761   3.761   5.751   1.851  0.1045 -0.1348 -0.2934
 3401TIP3    H131762   3.722   5.665   1.869  1.0681 -0.8153 -1.2962
 3401TIP3    H231763   3.750   5.800   1.932 -3.1207 -0.1484 -0.6159
 3402TIP3   OH231764   1.838   3.648   1.562 -0.6940 -0.4027  0.2394
 3402TIP3    H131765   1.820   3.654   1.468  0.1679 -3.2940 -0.2198
 3402TIP3    H231766   1.914   3.705   1.576 -0.4699 -0.3899 -0.9516
 3403TIP3   OH231767   2.897   1.262   7.055 -0.4234  0.2084 -0.4254
 3403TIP3    H131768   2.834   1.206   7.008 -0.1280  0.2521 -0.8805
 3403TIP3    H231769   2.849   1.344   7.069 -1.5530 -0.7737  1.9612
 3404TIP3   OH231770   3.048   5.650   7.754  0.1000 -0.2654  0.1244
 3404TIP3    H131771   3.117   5.685   7.697  0.9119 -0.0624  1.2114
 3404TIP3    H231772   2.971   5.702   7.732  0.7010  0.6128  0.0456
 3405TIP3   OH231773   6.331   2.957   1.656  0.0411 -0.1975 -0.0396
 3405TIP3    H131774   6.301   2.922   1.739 -0.9918  1.0525  0.1523
 3405TIP3    H231775   6.410   3.007   1.679 -1.4079  1.9528  0.6451
 3406TIP3   OH231776   0.165   1.820   8.719 -0.0739 -0.2755 -0.4442
 3406TIP3    H131777   0.154   1.862   8.634  0.1217 -0.4523 -0.5611
 3406TIP3    H231778   0.248   1.772   8.710  0.2423  0.1782  0.0412
 3407TIP3   OH231779   5.811   6.463   0.269  0.2614 -0.0106 -0.2632
 3407TIP3    H131780   5.882   6.455   0.333 -0.5722  2.7612  1.1783
 3407TIP3    H231781   5.837   6.406   0.197  1.5251 -2.8808  2.2558
 3408TIP3   OH231782   5.529   2.489   7.556  0.2230 -0.2477 -0.3260
 3408TIP3    H131783   5.550   2.400   7.584  0.7959  0.1071  0.4023
 3408TIP3    H231784   5.482   2.527   7.630  1.8145  0.7256  0.2296
 3409TIP3   OH231785   4.092   2.007   1.137  0.2317  0.5930  0.5308
 3409TIP3    H131786   4.145   1.928   1.138  0.6949  0.7384 -2.3752
 3409TIP3    H231787   4.146   2.071   1.090 -2.2622  0.8098 -2.3875
 3410TIP3   OH231788   1.750   6.443   2.421  0.7966 -0.2366 -0.2950
 3410TIP3    H131789   1.777   6.352   2.433  0.2579 -0.2472  1.0787
 3410TIP3    H231790   1.746   6.478   2.510  1.1418  1.1802 -0.8139
 3411TIP3   OH231791   3.443   3.211   0.105  0.3392 -0.3100 -0.2784
 3411TIP3    H131792   3.388   3.150   0.155  0.1950 -1.1966 -1.4709
 3411TIP3    H231793   3.382   3.258   0.050  0.5854  0.0566 -0.2401
 3412TIP3   OH231794   1.086   1.607   0.767  0.2300 -0.3085  0.1134
 3412TIP3    H131795   1.115   1.677   0.825  1.0355 -1.0395  0.6023
 3412TIP3    H231796   1.166   1.567   0.735 -0.1992 -0.0630 -1.3569
 3413TIP3   OH231797   4.941   0.362   6.834 -0.1949 -0.5266  0.0239
 3413TIP3    H131798   4.870   0.357   6.770 -1.3198  0.5659  1.1301
 3413TIP3    H231799   4.913   0.430   6.896  1.1447 -1.0927  1.3122
 3414TIP3   OH231800   2.696   5.923   0.556 -0.8434  0.0318  0.3338
 3414TIP3    H131801   2.777   5.875   0.572 -0.9220  0.1093  0.9892
 3414TIP3    H231802   2.691   5.986   0.628 -0.9886  0.6886 -0.2444
 3415TIP3   OH231803   3.247   1.444   0.019  0.3416 -0.1717  0.5747
 3415TIP3    H131804   3.324   1.395  -0.010 -0.4717 -0.7942 -0.5628
 3415TIP3    H231805   3.249   1.524  -0.033  1.2257  0.6996  1.8720
 3416TIP3   OH231806   1.559   0.128   2.441 -0.1672 -0.2004  0.3318
 3416TIP3    H131807   1.590   0.199   2.498 -0.9108  0.9253 -0.6285
 3416TIP3    H231808   1.638   0.091   2.403  0.1914  0.4833  0.4058
 3417TIP3   OH231809   4.083   3.320   1.186  0.4481  0.2204 -0.1510
 3417TIP3    H131810   4.136   3.327   1.107  2.0935 -1.6239  0.7018
 3417TIP3    H231811   4.128   3.255   1.240 -1.6760 -0.0358  1.4746
 3418TIP3   OH231812   5.796   6.590   7.552 -0.3101  0.2371  0.2104
 3418TIP3    H131813   5.796   6.685   7.550 -1.7551  0.2583  0.5376
 3418TIP3    H231814   5.879   6.565   7.511 -0.5416  1.6060 -1.1584
 3419TIP3   OH231815   1.709   0.557   1.872 -0.2134  0.3807  0.0368
 3419TIP3    H131816   1.733   0.559   1.780 -0.6368 -1.2483 -0.1392
 3419TIP3    H231817   1.616   0.580   1.873 -0.4526 -0.5727 -0.0493
 3420TIP3   OH231818   6.328   0.256   8.361 -0.5800  0.8023  0.2920
 3420TIP3    H131819   6.364   0.167   8.356 -0.6635  0.7780  0.0744
 3420TIP3    H231820   6.392   0.310   8.316 -1.2322  0.6202 -0.9281
 3421TIP3   OH231821   0.240   6.654   0.810 -0.0658 -0.7916  0.2469
 3421TIP3    H131822   0.266   6.701   0.890  0.1424 -1.9832  0.8971
 3421TIP3    H231823   0.146   6.669   0.804  0.3454  1.9432 -1.0658
 3422TIP3   OH231824   5.839   5.320   7.887  0.4014  0.2186 -0.1403
 3422TIP3    H131825   5.759   5.300   7.936  0.1942 -0.6789 -0.8036
 3422TIP3    H231826   5.908   5.320   7.953  0.2872 -1.9623  0.0740
 3423TIP3   OH231827   3.825   1.401   1.169 -0.2748 -0.2727 -0.1621
 3423TIP3    H131828   3.885   1.457   1.219 -0.5418  0.5727 -0.7545
 3423TIP3    H231829   3.834   1.315   1.208  0.6791  0.0313  0.3277
 3424TIP3   OH231830   4.504   6.223   1.144  0.2015  0.0651 -0.4563
 3424TIP3    H131831   4.529   6.131   1.141  0.0637 -0.0415  1.0412
 3424TIP3    H231832   4.573   6.266   1.195 -1.5075  0.1112  2.0151
 3425TIP3   OH231833   0.719   6.339   7.803 -0.0476 -0.3464 -0.2123
 3425TIP3    H131834   0.711   6.429   7.773  0.8097 -0.5341 -1.0591
 3425TIP3    H231835   0.633   6.319   7.841 -0.4709  0.5994 -0.6337
 3426TIP3   OH231836   5.235   0.453   7.107 -0.2927 -0.9835 -0.1392
 3426TIP3    H131837   5.152   0.491   7.079  0.0164 -1.4582 -1.8463
 3426TIP3    H231838   5.292   0.461   7.030  1.4066 -0.2419  1.1330
 3427TIP3   OH231839   0.891   6.424   7.111  0.4818  0.3852 -0.1120
 3427TIP3    H131840   0.911   6.518   7.114  1.6627  0.1194  1.6964
 3427TIP3    H231841   0.866   6.402   7.200  0.6015 -1.1027 -0.4196
 3428TIP3   OH231842   5.812   2.148   8.790  0.5570 -0.1781 -0.2210
 3428TIP3    H131843   5.801   2.239   8.818  1.8353 -0.0589 -0.0593
 3428TIP3    H231844   5.786   2.147   8.698  2.4170  0.8001 -0.8052
 3429TIP3   OH231845   0.704   3.080   8.127  0.3122  0.1007  0.2485
 3429TIP3    H131846   0.629   3.140   8.127  0.1782 -0.0478 -0.7141
 3429TIP3    H231847   0.764   3.116   8.193 -1.0875 -0.4299  1.8873
 3430TIP3   OH231848   4.120   2.316   2.156  0.0502 -1.1924  0.2399
 3430TIP3    H131849   4.091   2.352   2.240  0.6225 -0.6428  0.2105
 3430TIP3    H231850   4.202   2.271   2.176  1.9315  1.5984 -0.4902
 3431TIP3   OH231851   1.428   1.949   0.097 -0.2932  0.3488 -0.8429
 3431TIP3    H131852   1.484   1.881   0.061  0.0116  1.3030 -2.2760
 3431TIP3    H231853   1.453   1.956   0.189  1.0764 -0.0894 -1.1684
 3432TIP3   OH231854   4.687   2.816   1.504  0.1757 -0.2567  0.6463
 3432TIP3    H131855   4.779   2.843   1.496 -0.3829  1.5391 -0.2885
 3432TIP3    H231856   4.691   2.720   1.508  2.0426 -0.2581  0.0247
 3433TIP3   OH231857   4.537   4.263   8.433 -0.5023  0.7523  0.3732
 3433TIP3    H131858   4.493   4.315   8.366  1.5236  0.9050 -0.9398
 3433TIP3    H231859   4.508   4.173   8.416  0.6548  0.6509 -1.3746
 3434TIP3   OH231860   1.246   0.654   2.514 -0.1179 -0.6762  1.0252
 3434TIP3    H131861   1.297   0.735   2.510 -1.0634 -0.0542  1.0435
 3434TIP3    H231862   1.304   0.591   2.557  1.5581 -0.7566 -1.2096
 3435TIP3   OH231863   5.813   0.081   2.326 -0.6381  0.4046 -0.0318
 3435TIP3    H131864   5.895   0.033   2.315  0.4933  1.8347  1.5375
 3435TIP3    H231865   5.762   0.028   2.386  0.1688  0.6415  0.8867
 3436TIP3   OH231866   3.291   1.969   1.145  0.4755  0.3157  0.4799
 3436TIP3    H131867   3.235   2.047   1.144  0.1285  0.1085  1.7884
 3436TIP3    H231868   3.323   1.961   1.056  1.4254  2.6200  0.5478
 3437TIP3   OH231869   1.746   4.064   7.716 -0.0435 -0.0885 -0.1869
 3437TIP3    H131870   1.692   4.027   7.647 -1.8258 -0.0889  1.1596
 3437TIP3    H231871   1.785   3.989   7.760 -1.1090 -0.2419  0.5225
 3438TIP3   OH231872   2.054   3.471   1.625 -0.4880 -0.0282  0.1943
 3438TIP3    H131873   1.998   3.455   1.549 -0.7259  1.3868  0.0400
 3438TIP3    H231874   2.023   3.411   1.692 -1.6769  0.1865 -0.1527
 3439TIP3   OH231875   2.736   3.455   2.620 -0.2504  0.1400 -0.5021
 3439TIP3    H131876   2.692   3.487   2.699 -0.5175 -0.4892 -0.3857
 3439TIP3    H231877   2.815   3.509   2.613 -0.8646  1.0572 -0.5217
 3440TIP3   OH231878   6.025   0.111   1.801  0.3581 -0.1205  0.3326
 3440TIP3    H131879   6.083   0.035   1.807 -0.1451 -0.5371  0.0630
 3440TIP3    H231880   6.049   0.153   1.719 -0.8190 -1.2528 -0.6565
 3441TIP3   OH231881   4.341   3.340   2.026  0.3420 -0.3673  0.2967
 3441TIP3    H131882   4.277   3.373   2.088 -0.4485 -0.3007 -0.5456
 3441TIP3    H231883   4.425   3.370   2.060 -0.1019 -0.1214  1.1948
 3442TIP3   OH231884   5.609   2.788   2.629  0.1396 -0.2603  0.4305
 3442TIP3    H131885   5.538   2.844   2.660 -0.1159 -1.0927  1.4094
 3442TIP3    H231886   5.685   2.846   2.623  0.1528  0.0004  2.4829
 3443TIP3   OH231887   0.916   1.058   1.156 -0.0569 -0.0484 -0.9028
 3443TIP3    H131888   0.995   1.110   1.146  1.0116 -1.7080 -1.6283
 3443TIP3    H231889   0.914   1.034   1.249 -0.0973  0.5771 -0.7412
 3444TIP3   OH231890   4.841   5.399   8.375 -0.2318 -0.1989  0.2519
 3444TIP3    H131891   4.911   5.372   8.316 -0.2911  0.3463 -0.0827
 3444TIP3    H231892   4.874   5.380   8.462  1.0882  1.6464  0.2153
 3445TIP3   OH231893   0.445   4.820   0.315  0.5375  0.2056 -0.7043
 3445TIP3    H131894   0.468   4.806   0.223 -0.5887 -0.7108 -0.8725
 3445TIP3    H231895   0.365   4.769   0.328  1.4896 -0.9622  1.1716
 3446TIP3   OH231896   0.451   3.388   7.891  0.3626  0.4165  0.0974
 3446TIP3    H131897   0.509   3.462   7.878  0.3753  0.8454  2.2235
 3446TIP3    H231898   0.363   3.424   7.881  0.2985  1.1667  2.6562
 3447TIP3   OH231899   6.363   5.116   2.019  0.3946  0.7268  0.4213
 3447TIP3    H131900   6.341   5.027   2.047  0.0741  0.5701 -0.3051
 3447TIP3    H231901   6.456   5.112   1.997  0.0758  0.2214 -0.9025
 3448TIP3   OH231902   2.792   2.975   2.190 -0.2926 -0.1136 -0.5575
 3448TIP3    H131903   2.877   2.997   2.228 -0.8255  1.5505 -0.2526
 3448TIP3    H231904   2.737   2.950   2.265 -0.6881  0.9814 -0.4559
 3449TIP3   OH231905   5.458   3.693   0.922  0.2920 -0.1397  0.1752
 3449TIP3    H131906   5.393   3.643   0.972  1.1114  0.2040  1.6358
 3449TIP3    H231907   5.421   3.697   0.833 -0.7606 -1.5766  0.4942
 3450TIP3   OH231908   5.792   6.544   8.419  0.1367 -0.5952  0.0577
 3450TIP3    H131909   5.844   6.582   8.491  1.4189 -0.5523 -0.8572
 3450TIP3    H231910   5.799   6.449   8.433  1.9103 -0.6585 -0.9944
 3451TIP3   OH231911   2.503   1.574   8.457  0.4170  0.1466  0.2280
 3451TIP3    H131912   2.543   1.524   8.385 -0.4255  0.3907 -0.4254
 3451TIP3    H231913   2.424   1.612   8.419 -0.5092 -0.4115  1.5231
 3452TIP3   OH231914   2.784   6.524   7.253  0.0021  0.2780  0.4863
 3452TIP3    H131915   2.834   6.559   7.180  0.2433 -1.5458 -0.2750
 3452TIP3    H231916   2.723   6.461   7.214  2.0511 -2.9250  1.9755
 3453TIP3   OH231917   1.590   2.268   8.735  0.4367  0.3544  0.1424
 3453TIP3    H131918   1.635   2.320   8.802 -2.1706  1.3263  1.2847
 3453TIP3    H231919   1.529   2.213   8.784 -0.8774  0.3931 -1.3624
 3454TIP3   OH231920   4.259   5.100   1.174 -0.3275 -0.9302 -0.1808
 3454TIP3    H131921   4.167   5.081   1.159 -0.7501  1.0794 -0.3614
 3454TIP3    H231922   4.295   5.114   1.086 -0.8212  2.2359  0.0265
 3455TIP3   OH231923   3.818   3.373   1.650  0.0025  0.3001 -0.0097
 3455TIP3    H131924   3.802   3.287   1.688  1.6092  1.1031  2.7185
 3455TIP3    H231925   3.732   3.402   1.619 -1.3711 -0.6571  2.6189
 3456TIP3   OH231926   2.907   5.853   1.912  0.0015 -0.0212  0.2041
 3456TIP3    H131927   2.844   5.910   1.957  0.0200  0.0452  0.1453
 3456TIP3    H231928   2.916   5.891   1.825  0.3150  0.1174  0.2979
 3457TIP3   OH231929   3.976   4.538   8.009  0.1947 -0.1527  0.2443
 3457TIP3    H131930   3.943   4.561   7.923  1.4421 -1.6761 -0.6896
 3457TIP3    H231931   3.911   4.477   8.045  0.7519 -1.2763 -0.5891
 3458TIP3   OH231932   4.244   4.896   7.201 -0.2846 -0.3732  0.7431
 3458TIP3    H131933   4.284   4.871   7.118  0.9763  0.1693  1.1621
 3458TIP3    H231934   4.181   4.827   7.219  1.5957 -2.1592  0.8303
 3459TIP3   OH231935   2.524   2.195   0.488 -0.5154 -0.9913 -0.2953
 3459TIP3    H131936   2.594   2.256   0.509 -1.0368 -0.2897 -0.5695
 3459TIP3    H231937   2.555   2.149   0.410 -0.0488 -1.2094  0.0121
 3460TIP3   OH231938   4.663   4.430   2.080  0.4410 -0.8751  0.2335
 3460TIP3    H131939   4.681   4.353   2.026 -2.2374 -1.9360  0.6948
 3460TIP3    H231940   4.639   4.394   2.166 -0.5916  0.4915  0.5541
 3461TIP3   OH231941   5.012   3.746   1.098 -0.0294 -0.0166  0.1315
 3461TIP3    H131942   5.010   3.836   1.128  2.1403 -0.4408  1.7475
 3461TIP3    H231943   4.967   3.696   1.167  0.2631 -0.3823  0.0610
 3462TIP3   OH231944   6.211   5.888   0.397  0.4047  0.2394 -0.0899
 3462TIP3    H131945   6.301   5.862   0.380  1.0101  1.1309  1.5054
 3462TIP3    H231946   6.170   5.810   0.435  0.0050 -0.6574 -2.1921
 3463TIP3   OH231947   5.554   1.965   2.373  0.5021 -0.3963 -0.2703
 3463TIP3    H131948   5.477   1.990   2.424  0.6855  0.5567 -0.4436
 3463TIP3    H231949   5.625   1.965   2.436  0.5189 -0.3594 -0.2890
 3464TIP3   OH231950   1.131   3.469   1.442 -0.2752  0.0964 -0.3586
 3464TIP3    H131951   1.145   3.442   1.351  0.8397  1.3141 -0.5723
 3464TIP3    H231952   1.074   3.401   1.478 -0.4336 -0.6107 -1.8530
 3465TIP3   OH231953   4.153   6.524   0.949  0.8377 -0.5314  0.2037
 3465TIP3    H131954   4.202   6.605   0.940  0.9755 -0.6582 -0.2128
 3465TIP3    H231955   4.215   6.456   0.923 -0.1595 -0.5470 -2.4385
 3466TIP3   OH231956   0.957   1.514   1.943  0.4590  0.1388 -0.4524
 3466TIP3    H131957   1.002   1.454   1.882  0.2692  0.0701 -0.5261
 3466TIP3    H231958   0.972   1.475   2.029  2.5202  1.3395 -0.1965
 3467TIP3   OH231959   5.978   1.922   2.333 -0.3385  1.0191  0.0958
 3467TIP3    H131960   5.984   1.956   2.422 -0.4627  2.0987 -0.2985
 3467TIP3    H231961   5.948   1.832   2.344 -0.7762  1.2772  1.1292
 3468TIP3   OH231962   6.160   6.441   8.376  0.1862 -0.3818 -0.4332
 3468TIP3    H131963   6.117   6.417   8.458 -1.1385  0.6877 -0.7813
 3468TIP3    H231964   6.093   6.430   8.310  0.9437 -0.2438 -1.2443
 3469TIP3   OH231965   2.783   3.093   7.670  0.6910  0.1372  0.2928
 3469TIP3    H131966   2.725   3.098   7.594  0.3049 -2.8524  0.2839
 3469TIP3    H231967   2.794   3.184   7.697 -1.2723  1.0816 -1.7413
 3470TIP3   OH231968   0.405   2.138   1.539 -0.0178 -0.1444  0.2937
 3470TIP3    H131969   0.423   2.046   1.555 -0.5299 -0.5480 -1.2637
 3470TIP3    H231970   0.313   2.150   1.563  0.3004  0.2019  1.3897
 3471TIP3   OH231971   0.070   3.049   1.146  0.0568 -0.5075  0.2403
 3471TIP3    H131972   0.129   3.086   1.212 -0.3325  0.7160 -0.0834
 3471TIP3    H231973  -0.012   3.033   1.194  0.8377 -2.9829  0.8966
 3472TIP3   OH231974   2.157   4.491   2.861 -0.1101  0.2442  0.0265
 3472TIP3    H131975   2.181   4.399   2.848 -1.2314  0.0112 -0.5364
 3472TIP3    H231976   2.230   4.540   2.825  0.4983 -0.4257  0.3161
 3473TIP3   OH231977   2.875   5.224   1.289  0.0911  0.8216 -0.4689
 3473TIP3    H131978   2.851   5.237   1.381  1.8814  2.1121 -0.1295
 3473TIP3    H231979   2.791   5.216   1.243 -0.8758  1.5108  1.0860
 3474TIP3   OH231980   4.763   0.606   2.683  0.0649  0.4858 -0.2776
 3474TIP3    H131981   4.814   0.531   2.716  1.1480  0.8839 -0.9740
 3474TIP3    H231982   4.824   0.679   2.687 -0.6859  1.1311 -0.5083
 3475TIP3   OH231983   1.013   3.260   1.579  0.0289 -0.0101 -0.1670
 3475TIP3    H131984   0.928   3.299   1.594 -0.5880 -1.7138  1.1258
 3475TIP3    H231985   1.056   3.260   1.665  0.1900 -1.6302 -0.2025
 3476TIP3   OH231986   1.573   1.871   7.285 -0.4324  0.3503 -0.3735
 3476TIP3    H131987   1.514   1.827   7.348 -0.2496  0.7913  0.1098
 3476TIP3    H231988   1.657   1.827   7.297 -0.3812  0.4787 -0.2637
 3477TIP3   OH231989   1.973   4.210   2.406  0.6857  0.5414 -0.5202
 3477TIP3    H131990   1.949   4.289   2.454 -1.5988 -0.1979 -0.2911
 3477TIP3    H231991   1.910   4.144   2.436  1.9738 -1.1463 -1.3218
 3478TIP3   OH231992   3.859   3.494   7.570  0.1304 -0.7912  0.6341
 3478TIP3    H131993   3.895   3.510   7.483 -0.0114 -0.5518  0.6194
 3478TIP3    H231994   3.810   3.412   7.560 -2.5951  0.8403 -0.3569
 3479TIP3   OH231995   6.159   1.322   1.337  0.1648 -0.5977 -0.0633
 3479TIP3    H131996   6.087   1.283   1.385  1.3650 -1.6845  0.9288
 3479TIP3    H231997   6.222   1.251   1.327  1.5956  0.5993  0.1118
 3480TIP3   OH231998   6.174   0.731   1.072 -0.5937  0.2531 -0.2892
 3480TIP3    H131999   6.216   0.806   1.114  0.9435  0.1909 -1.6099
 3480TIP3    H232000   6.087   0.725   1.113 -0.1287  1.7347  0.9858
 3481TIP3   OH232001   5.365   1.682   0.335 -0.4984 -0.6799  0.1923
 3481TIP3    H132002   5.284   1.728   0.355 -0.1735 -0.6907  1.5805
 3481TIP3    H232003   5.398   1.652   0.419  0.8300 -0.8814 -0.3696
 3482TIP3   OH232004   4.429   6.002   2.266  0.2738  0.4281  0.0550
 3482TIP3    H132005   4.513   5.971   2.299 -1.3670 -2.3502  2.0084
 3482TIP3    H232006   4.378   6.024   2.344 -1.3962  0.4424 -0.9641
 3483TIP3   OH232007   6.206   2.451   0.902  0.2420  0.3305  0.6767
 3483TIP3    H132008   6.177   2.424   0.815 -1.1418 -0.0816  1.2293
 3483TIP3    H232009   6.232   2.542   0.891  0.8667  0.0491 -0.3283
 3484TIP3   OH232010   4.830   1.492   8.224  0.0868 -0.8878  0.2100
 3484TIP3    H132011   4.797   1.406   8.199 -1.8422 -0.6894  1.8148
 3484TIP3    H232012   4.754   1.538   8.260  1.1378  1.3785 -0.2743
 3485TIP3   OH232013   2.681   5.377   0.842 -0.3655  0.2822 -0.2756
 3485TIP3    H132014   2.614   5.353   0.778 -0.3474  0.0956 -0.2242
 3485TIP3    H232015   2.707   5.466   0.817  0.1690 -0.0660 -0.9731
 3486TIP3   OH232016   3.456   4.131   0.562  0.5341  0.3016 -0.2606
 3486TIP3    H132017   3.501   4.137   0.646 -0.6166  2.1348  0.2739
 3486TIP3    H232018   3.526   4.113   0.499  1.2870 -2.1746  1.1625
 3487TIP3   OH232019   0.810   0.137   7.764 -0.5429  0.1958  0.3019
 3487TIP3    H132020   0.849   0.145   7.677 -2.5420 -3.0796 -1.0943
 3487TIP3    H232021   0.728   0.185   7.757 -0.4609  0.3765  0.5802
 3488TIP3   OH232022   0.802   5.256   7.892 -0.1479 -0.3117  0.0780
 3488TIP3    H132023   0.828   5.346   7.872  0.5059 -0.2532  1.1138
 3488TIP3    H232024   0.885   5.211   7.909 -0.4956 -1.0391 -0.1149
 3489TIP3   OH232025   6.588   1.355   8.461  0.0421  0.1689 -0.2098
 3489TIP3    H132026   6.584   1.445   8.491 -1.8343 -0.3310  1.1772
 3489TIP3    H232027   6.540   1.355   8.378 -1.3252  0.1704  0.5686
 3490TIP3   OH232028   1.718   5.358   1.850 -0.7065 -0.1755  0.1015
 3490TIP3    H132029   1.749   5.282   1.800  0.5340 -0.5678  1.3668
 3490TIP3    H232030   1.728   5.331   1.942 -3.0221  0.4572  0.6005
 3491TIP3   OH232031   2.122   3.703   0.183 -0.2390 -0.2636  0.0536
 3491TIP3    H132032   2.086   3.780   0.227  0.3294 -0.2765  0.5422
 3491TIP3    H232033   2.116   3.633   0.248  1.5096 -0.0543  0.4878
 3492TIP3   OH232034   6.277   5.101   0.852  0.3165  0.3964  0.4504
 3492TIP3    H132035   6.313   5.141   0.772  1.7560 -0.1526  0.7909
 3492TIP3    H232036   6.205   5.047   0.821  1.1765 -0.2173 -0.5776
 3493TIP3   OH232037   2.135   4.388   2.598  0.5049  0.2176 -0.5718
 3493TIP3    H132038   2.129   4.304   2.645 -1.0368 -0.2418 -1.5116
 3493TIP3    H232039   2.084   4.449   2.651 -2.1225 -0.5500 -2.0553
 3494TIP3   OH232040   3.185   4.705   0.217  0.9761  0.2006  0.0694
 3494TIP3    H132041   3.118   4.731   0.154  0.5504 -1.0587 -0.0166
 3494TIP3    H232042   3.174   4.766   0.290 -1.8894 -1.3999  1.1424
 3495TIP3   OH232043   2.364   2.386   7.172 -0.4938 -0.4101  0.2193
 3495TIP3    H132044   2.344   2.474   7.140 -2.1656 -1.8221 -3.0325
 3495TIP3    H232045   2.315   2.380   7.254 -1.1266  1.3589  0.0242
 3496TIP3   OH232046   1.851   5.109   2.949  0.4895 -0.1026  0.7019
 3496TIP3    H132047   1.833   5.186   3.002  2.1924  0.8847 -0.0742
 3496TIP3    H232048   1.808   5.126   2.865  0.5903 -0.1466  0.6403
 3497TIP3   OH232049   4.105   4.382   0.270 -0.3297  0.0074  0.1572
 3497TIP3    H132050   4.031   4.322   0.258  1.2920 -1.6233 -3.0416
 3497TIP3    H232051   4.097   4.445   0.198  0.2500  1.1597  1.0654
 3498TIP3   OH232052   0.535   5.228   7.538  0.1504 -0.0245  0.3449
 3498TIP3    H132053   0.463   5.227   7.601 -0.9012 -0.2585 -0.8337
 3498TIP3    H232054   0.497   5.263   7.458  1.1866 -0.7746 -0.5018
 3499TIP3   OH232055   0.810   0.854   8.503  0.3247  0.5375 -0.3362
 3499TIP3    H132056   0.726   0.826   8.541 -0.3174  2.6865 -0.0729
 3499TIP3    H232057   0.876   0.818   8.562 -0.3726 -1.0576 -0.4582
 3500TIP3   OH232058   6.789   6.066   7.866 -0.4966  0.0459  0.0694
 3500TIP3    H132059   6.817   6.021   7.786  1.0791 -1.6366  1.5033
 3500TIP3    H232060   6.693   6.060   7.864 -0.4014 -2.2235 -0.4845
 3501TIP3   OH232061   3.862   2.436   1.797 -0.1649 -0.6399  0.0299
 3501TIP3    H132062   3.843   2.516   1.845 -1.0476 -0.4773 -0.5720
 3501TIP3    H232063   3.957   2.427   1.802 -0.2821 -1.2631  2.8030
 3502TIP3   OH232064   4.970   5.143   1.553  0.2122 -0.8504 -0.0250
 3502TIP3    H132065   5.049   5.142   1.500  0.7056  1.7472  0.4958
 3502TIP3    H232066   4.997   5.105   1.637  0.1312 -2.4734 -0.6905
 3503TIP3   OH232067   3.567   4.277   8.043  0.2864 -0.2301 -0.2114
 3503TIP3    H132068   3.523   4.360   8.059 -2.2031 -1.6239  0.8920
 3503TIP3    H232069   3.581   4.274   7.949  0.5402  1.4707 -0.2456
 3504TIP3   OH232070   3.161   6.174   1.172 -0.3709 -0.0411  0.1046
 3504TIP3    H132071   3.146   6.235   1.244 -1.2603 -1.5411  1.2374
 3504TIP3    H232072   3.074   6.162   1.133 -0.9911 -3.2818  2.1777
 3505TIP3   OH232073   6.570   4.321   7.330 -0.2988 -0.3803  0.1095
 3505TIP3    H132074   6.606   4.391   7.275 -0.1781 -0.6668 -0.1803
 3505TIP3    H232075   6.579   4.242   7.277 -0.3125 -0.6379  0.4902
 3506TIP3   OH232076   3.508   0.357   6.786 -1.1512 -0.3943  0.2522
 3506TIP3    H132077   3.515   0.262   6.793  0.2513 -0.2423  1.4947
 3506TIP3    H232078   3.581   0.382   6.730 -0.4643  0.0695  1.3210
 3507TIP3   OH232079   5.864   0.611   8.606 -0.4122  0.5611 -0.3318
 3507TIP3    H132080   5.885   0.675   8.538  1.7302 -1.4007 -1.6481
 3507TIP3    H232081   5.884   0.526   8.566 -2.5277 -0.9403  1.5577
 3508TIP3   OH232082   0.087   0.668   2.966  0.4017 -0.4029  0.2146
 3508TIP3    H132083   0.065   0.666   3.059 -1.1882 -2.0173 -0.1514
 3508TIP3    H232084   0.111   0.759   2.949 -0.8499  0.2793  1.8615
 3509TIP3   OH232085   2.569   4.464   7.797  0.6671 -0.5471 -0.2470
 3509TIP3    H132086   2.511   4.401   7.753  0.6353 -0.1932 -0.7239
 3509TIP3    H232087   2.538   4.549   7.767  1.4243 -0.3506 -0.4928
 3510TIP3   OH232088   0.178   1.444   7.503 -0.3111 -0.1924 -0.0413
 3510TIP3    H132089   0.120   1.430   7.428  1.8786 -2.8921 -1.4316
 3510TIP3    H232090   0.263   1.466   7.464  0.1130  1.7872  1.8317
 3511TIP3   OH232091   5.469   4.743   0.827  0.1276 -0.1112 -0.2212
 3511TIP3    H132092   5.506   4.658   0.805 -0.2338 -0.2963 -0.1130
 3511TIP3    H232093   5.421   4.729   0.908  0.6127  0.3483  0.1603
 3512TIP3   OH232094   2.146   3.209   6.528 -0.0168  0.0638 -0.0335
 3512TIP3    H132095   2.190   3.290   6.554 -0.8841  0.8295 -0.8538
 3512TIP3    H232096   2.089   3.187   6.602 -0.5092  0.7663 -0.1849
 3513TIP3   OH232097   2.952   6.715   1.607 -0.3216 -0.2066  0.2151
 3513TIP3    H132098   2.922   6.662   1.681 -0.6501 -1.6435 -0.9046
 3513TIP3    H232099   3.041   6.685   1.589  0.1168  0.8136  0.6142
 3514TIP3   OH232100   5.201   2.552   8.748  0.0693 -0.2522  0.2048
 3514TIP3    H132101   5.276   2.594   8.705 -0.6599 -1.6030 -2.6303
 3514TIP3    H232102   5.234   2.465   8.773 -0.2114 -0.3806  0.1251
 3515TIP3   OH232103   0.168   1.206   2.341 -0.0853 -0.3061 -0.6199
 3515TIP3    H132104   0.075   1.224   2.336 -0.1735 -0.6957 -0.3941
 3515TIP3    H232105   0.205   1.248   2.264 -0.4893 -0.4332 -0.8834
 3516TIP3   OH232106   1.399   0.495   2.291 -0.1132 -0.6727  0.5181
 3516TIP3    H132107   1.311   0.502   2.255 -0.1035  0.1887  0.6398
 3516TIP3    H232108   1.443   0.576   2.264  0.4745 -0.8494  0.9067
 3517TIP3   OH232109   2.490   3.612   8.379 -0.8628  0.0707  0.2189
 3517TIP3    H132110   2.523   3.522   8.369 -1.5276  0.0336 -2.1041
 3517TIP3    H232111   2.439   3.628   8.300 -1.2986  2.2964  0.8870
 3518TIP3   OH232112   4.771   3.690   2.404  0.3534  0.2504  0.4251
 3518TIP3    H132113   4.691   3.739   2.418 -0.4464 -1.3131  1.7096
 3518TIP3    H232114   4.829   3.719   2.475  1.3046  2.0094 -1.0007
 3519TIP3   OH232115   4.304   1.152   8.522  0.3679 -0.0162  0.2154
 3519TIP3    H132116   4.253   1.136   8.443  0.8150  1.5488 -0.4129
 3519TIP3    H232117   4.388   1.185   8.491  0.6167  0.4450  1.3260
 3520TIP3   OH232118   1.708   1.480   8.387 -0.0424 -0.2931  0.1029
 3520TIP3    H132119   1.736   1.398   8.345 -0.9218 -0.8863  0.6517
 3520TIP3    H232120   1.631   1.507   8.337  1.0140  0.9437 -0.9373
 3521TIP3   OH232121   0.219   1.186   0.578 -0.3147 -0.2802 -0.1216
 3521TIP3    H132122   0.145   1.160   0.525  0.8681 -1.4395 -1.2601
 3521TIP3    H232123   0.294   1.141   0.540  1.0411  1.0746  0.8079
 3522TIP3   OH232124   1.392   5.736   7.989 -0.0810 -0.5451 -0.2284
 3522TIP3    H132125   1.409   5.793   7.914  1.1885 -0.5281  0.0531
 3522TIP3    H232126   1.454   5.664   7.978  1.7793  0.5906  1.9752
 3523TIP3   OH232127   6.134   2.165   8.086 -0.4743  0.8801 -0.0895
 3523TIP3    H132128   6.194   2.194   8.018  1.2843 -0.1312  0.9467
 3523TIP3    H232129   6.086   2.092   8.047  0.7014  0.1425 -0.1708
 3524TIP3   OH232130   0.288   0.405   2.122  0.3369  0.0147 -0.1592
 3524TIP3    H132131   0.362   0.356   2.086 -0.2575 -1.8882  1.0661
 3524TIP3    H232132   0.259   0.354   2.198 -2.0253  0.8569 -0.3937
 3525TIP3   OH232133   4.974   3.316   0.211 -0.2761  0.3183  0.5276
 3525TIP3    H132134   4.917   3.307   0.135  0.5535 -2.8647  0.1359
 3525TIP3    H232135   5.063   3.309   0.176  0.1678  0.1944  1.6220
 3526TIP3   OH232136   3.180   2.422   2.329  0.0064 -0.4894 -0.5879
 3526TIP3    H132137   3.177   2.444   2.423  2.3705  0.8977 -0.7572
 3526TIP3    H232138   3.225   2.496   2.289 -0.5186 -1.2970 -2.7852
 3527TIP3   OH232139   4.845   5.439   7.121 -0.2475 -0.4602 -0.6533
 3527TIP3    H132140   4.820   5.361   7.171  1.7327 -0.0409  1.1778
 3527TIP3    H232141   4.899   5.405   7.050 -1.0453 -0.8969 -1.0579
 3528TIP3   OH232142   1.143   5.419   0.150 -0.1103  0.3654  0.1431
 3528TIP3    H132143   1.081   5.377   0.209  0.2404  1.0450  1.0270
 3528TIP3    H232144   1.225   5.422   0.199 -0.6209  4.0014  1.0841
 3529TIP3   OH232145   3.047   6.144   2.141 -0.0633 -0.5269 -0.5376
 3529TIP3    H132146   3.102   6.079   2.098  0.6914 -0.8306  0.8195
 3529TIP3    H232147   3.096   6.226   2.135 -0.0616 -0.5228 -0.4757
 3530TIP3   OH232148   6.367   5.569   7.140  0.3173 -0.1725 -0.2246
 3530TIP3    H132149   6.289   5.609   7.178  0.6588  0.9829 -0.6978
 3530TIP3    H232150   6.334   5.491   7.095 -0.1330 -1.4209  2.0993
 3531TIP3   OH232151   3.484   0.457   0.734 -0.1057  0.2587  0.0079
 3531TIP3    H132152   3.398   0.416   0.734 -0.1086  0.2583  0.8580
 3531TIP3    H232153   3.474   0.535   0.788  1.1060 -1.2444  2.6125
 3532TIP3   OH232154   1.332   4.119   2.342 -0.4174  0.1952 -0.2601
 3532TIP3    H132155   1.393   4.193   2.336 -0.6258  0.3051 -1.1673
 3532TIP3    H232156   1.288   4.131   2.426  0.8537  0.0706  0.4600
 3533TIP3   OH232157   0.792   1.187   2.347  0.0279 -0.0590  0.2493
 3533TIP3    H132158   0.711   1.235   2.329 -1.0836 -1.6121  0.9489
 3533TIP3    H232159   0.802   1.193   2.442  0.2884 -0.5624  0.2568
 3534TIP3   OH232160   2.474   2.095   1.426 -0.0351  0.3624  0.3671
 3534TIP3    H132161   2.397   2.152   1.426  0.4846  1.0779  1.1374
 3534TIP3    H232162   2.539   2.143   1.477  0.2857 -1.1008  1.3797
 3535TIP3   OH232163   3.611   5.925   7.907 -0.1977  0.3416 -0.2818
 3535TIP3    H132164   3.648   5.876   7.833 -0.1245  0.5993 -0.4178
 3535TIP3    H232165   3.519   5.898   7.909  0.3411 -1.6002  1.1063
 3536TIP3   OH232166   6.333   3.676   1.349 -0.0949  0.3969 -0.0237
 3536TIP3    H132167   6.270   3.657   1.280  0.6611  1.5729 -1.0961
 3536TIP3    H232168   6.399   3.607   1.342 -0.1060  0.4220 -0.3730
 3537TIP3   OH232169   1.589   6.506   1.542 -0.3901  0.3524  0.1900
 3537TIP3    H132170   1.526   6.462   1.599  1.4294 -0.1735  1.8751
 3537TIP3    H232171   1.562   6.598   1.543  0.3423  0.6107  3.0412
 3538TIP3   OH232172   5.299   1.425   7.671 -0.0880 -0.0318  0.0549
 3538TIP3    H132173   5.279   1.332   7.679  0.7226 -0.2302 -0.2180
 3538TIP3    H232174   5.263   1.464   7.751  0.3184 -0.7056  0.5732
 3539TIP3   OH232175   1.776   4.963   0.007  0.5253 -0.3959  0.5661
 3539TIP3    H132176   1.709   4.912  -0.039  1.9071 -3.2918  1.5707
 3539TIP3    H232177   1.738   4.981   0.093 -0.9342  2.5916 -0.5614
 3540TIP3   OH232178   2.272   3.908   7.718 -0.9434 -0.2706  0.3313
 3540TIP3    H132179   2.365   3.886   7.707 -0.9901 -0.0688 -0.5122
 3540TIP3    H232180   2.225   3.831   7.686 -1.0942  0.6841 -1.9342
 3541TIP3   OH232181   6.230   5.086   8.048  0.2004  0.1248  0.0607
 3541TIP3    H132182   6.281   5.088   8.129 -0.9133 -0.2158  0.7890
 3541TIP3    H232183   6.141   5.110   8.074 -0.7948 -2.4971 -0.5460
 3542TIP3   OH232184   2.251   0.035   8.696 -0.0244 -0.2817  0.0842
 3542TIP3    H132185   2.339   0.027   8.659 -0.4052 -1.2363 -0.6674
 3542TIP3    H232186   2.220   0.121   8.668  0.0966 -0.5665 -0.9512
 3543TIP3   OH232187   0.299   2.849   7.826 -0.8337 -0.0772 -0.6826
 3543TIP3    H132188   0.291   2.944   7.829 -0.3834 -0.0636  1.2663
 3543TIP3    H232189   0.348   2.826   7.905  0.5350 -1.8084 -1.9420
 3544TIP3   OH232190   0.431   3.961   2.939  0.2506  0.4800 -0.0473
 3544TIP3    H132191   0.403   4.044   2.979  1.0953  1.1000 -0.7065
 3544TIP3    H232192   0.521   3.950   2.969 -0.0976 -0.6070  0.6501
 3545TIP3   OH232193   1.218   3.819   8.189  0.3233  0.1202  0.4284
 3545TIP3    H132194   1.244   3.798   8.099  0.5392 -0.3342  0.5968
 3545TIP3    H232195   1.129   3.784   8.196  0.1071  0.6211  0.2281
 3546TIP3   OH232196   4.744   5.373   7.363 -0.1032 -0.0588  0.8335
 3546TIP3    H132197   4.717   5.303   7.423  0.2329 -0.3598  0.6357
 3546TIP3    H232198   4.837   5.358   7.349 -0.2793 -0.2878 -0.1456
 3547TIP3   OH232199   3.959   6.476   8.548  0.0995  0.2000  0.3249
 3547TIP3    H132200   3.908   6.505   8.473  0.2895 -0.0542  0.0924
 3547TIP3    H232201   3.894   6.456   8.616 -0.0920  0.1428  0.1258
 3548TIP3   OH232202   1.851   3.733   8.450  0.0481  0.4945  0.0863
 3548TIP3    H132203   1.880   3.680   8.376  2.8667  1.9473 -0.0024
 3548TIP3    H232204   1.797   3.802   8.410  0.8117  0.7535 -0.5319
 3549TIP3   OH232205   4.354   0.984   1.819 -0.0876 -0.6128  0.1669
 3549TIP3    H132206   4.347   1.051   1.887 -1.7575  0.1958 -0.7202
 3549TIP3    H232207   4.294   0.915   1.847 -0.8233 -0.2529 -0.4657
 3550TIP3   OH232208   4.896   5.341   2.550  0.0450  0.9263 -0.5894
 3550TIP3    H132209   4.887   5.305   2.639 -2.3478  1.3617 -0.5924
 3550TIP3    H232210   4.933   5.269   2.499 -2.4133 -0.8490 -0.0690
 3551TIP3   OH232211   2.339   5.814   1.483  0.3120 -0.0237 -0.9169
 3551TIP3    H132212   2.355   5.906   1.502 -0.5249 -0.1229  0.4199
 3551TIP3    H232213   2.426   5.776   1.472  0.6953  0.7627 -0.6643
 3552TIP3   OH232214   1.142   4.680   0.018  0.5787 -0.5366 -0.5734
 3552TIP3    H132215   1.101   4.612   0.072  2.0080 -1.3647 -0.4650
 3552TIP3    H232216   1.177   4.632  -0.057  0.3471  0.3162 -1.2417
 3553TIP3   OH232217   3.558   0.782   7.136  1.0508 -0.4085 -0.1602
 3553TIP3    H132218   3.583   0.700   7.093 -0.5180 -0.0684 -1.8679
 3553TIP3    H232219   3.463   0.776   7.145  1.0683  0.6406  0.9750
 3554TIP3   OH232220   3.138   1.364   7.978 -0.4592  0.0756 -0.3767
 3554TIP3    H132221   3.108   1.280   7.943 -1.0157 -0.6763  1.7572
 3554TIP3    H232222   3.076   1.386   8.048  1.0508  1.0174  0.7512
 3555TIP3   OH232223   5.485   1.576   7.495 -0.1271  0.1243  0.3617
 3555TIP3    H132224   5.512   1.520   7.422 -0.4881 -2.8865  2.3365
 3555TIP3    H232225   5.417   1.526   7.540  0.5348  1.4601  3.1290
 3556TIP3   OH232226   2.062   4.201   8.518 -0.4414 -0.6930 -0.2472
 3556TIP3    H132227   2.044   4.108   8.511 -0.8478 -0.5875 -0.6810
 3556TIP3    H232228   2.062   4.233   8.428 -1.5044 -0.0558 -0.0378
 3557TIP3   OH232229   4.801   2.228   2.156 -0.4387 -0.1144  0.8134
 3557TIP3    H132230   4.859   2.186   2.093 -1.6635  0.7187 -0.9536
 3557TIP3    H232231   4.730   2.166   2.168 -0.2934 -0.1976  1.2428
 3558TIP3   OH232232   6.587   5.089   7.894 -0.7006  0.1747  0.1136
 3558TIP3    H132233   6.551   5.002   7.916  0.3273 -0.4875 -0.7233
 3558TIP3    H232234   6.678   5.071   7.869 -0.2775  1.5926  0.5627
 3559TIP3   OH232235   0.839   3.458   1.143  0.1740  0.3892  1.1420
 3559TIP3    H132236   0.772   3.484   1.205  0.2563 -0.3829  1.5652
 3559TIP3    H232237   0.858   3.366   1.164 -0.0222  0.0091 -0.2195
 3560TIP3   OH232238   3.156   4.366   1.794 -0.1724  0.1583 -0.1975
 3560TIP3    H132239   3.108   4.284   1.785 -1.1850  0.6771  0.2325
 3560TIP3    H232240   3.112   4.411   1.867  2.0490 -0.0767  1.3818
 3561TIP3   OH232241   3.411   0.432   2.199 -0.0175  0.0910 -0.2088
 3561TIP3    H132242   3.456   0.349   2.184  1.9743  1.1684 -0.5726
 3561TIP3    H232243   3.375   0.424   2.287 -0.2947 -1.3326 -0.4327
 3562TIP3   OH232244   0.579   1.282   2.211  0.5766 -0.5654  0.1798
 3562TIP3    H132245   0.490   1.247   2.204  0.6120 -0.7324  0.5314
 3562TIP3    H232246   0.636   1.211   2.182  0.5489 -0.1082 -1.0405
 3563TIP3   OH232247   1.797   2.691   7.795  0.3204  0.0741  0.6475
 3563TIP3    H132248   1.727   2.669   7.733  0.4271  1.0725  0.1428
 3563TIP3    H232249   1.753   2.746   7.861  0.3532 -0.4247  1.0954
 3564TIP3   OH232250   5.042   2.329   1.918 -0.2399  0.0733 -0.1141
 3564TIP3    H132251   5.025   2.395   1.985 -1.9563  0.5879 -1.0129
 3564TIP3    H232252   4.956   2.293   1.897  0.7856 -4.1844  1.9616
 3565TIP3   OH232253   5.939   0.281   0.596 -0.5390 -0.1297  0.0804
 3565TIP3    H132254   5.885   0.349   0.637  1.0017  0.4544  1.2363
 3565TIP3    H232255   5.897   0.265   0.512 -2.1650  0.7181  0.6868
 3566TIP3   OH232256   2.678   6.654   0.269 -0.3483  0.5124  0.3860
 3566TIP3    H132257   2.737   6.630   0.197 -0.5643  0.7061  0.1441
 3566TIP3    H232258   2.659   6.570   0.312  0.7666  0.5467  0.9882
 3567TIP3   OH232259   0.875   6.704   7.876  0.1090  0.4278 -0.1029
 3567TIP3    H132260   0.779   6.698   7.877  0.1407 -0.4057 -0.5596
 3567TIP3    H232261   0.893   6.796   7.855 -0.5604  1.1874  2.3822
 3568TIP3   OH232262   4.763   0.333   2.868  0.0464 -0.0889  0.0582
 3568TIP3    H132263   4.810   0.316   2.786 -1.4993  0.4053 -0.9802
 3568TIP3    H232264   4.776   0.253   2.919 -2.4784 -2.3323 -2.4506
 3569TIP3   OH232265   3.799   0.801   1.217 -0.4784  0.1040 -0.4657
 3569TIP3    H132266   3.725   0.805   1.157 -0.7955  1.3824 -0.0342
 3569TIP3    H232267   3.823   0.893   1.231  1.6896 -0.3095 -1.1899
 3570TIP3   OH232268   5.931   3.427   8.451  0.4480  0.2216  0.4429
 3570TIP3    H132269   5.979   3.436   8.368  0.8734  0.9999  0.7632
 3570TIP3    H232270   5.896   3.515   8.468 -0.0445 -0.0505  0.8393
 3571TIP3   OH232271   0.489   6.116   1.750 -0.2071 -0.7903 -0.7126
 3571TIP3    H132272   0.484   6.023   1.728 -1.6499 -0.5654 -1.4764
 3571TIP3    H232273   0.419   6.128   1.815 -0.0235 -0.2463 -0.6128
 3572TIP3   OH232274   3.126   1.479   1.195 -0.1891 -0.0636 -0.0722
 3572TIP3    H132275   3.144   1.572   1.201  2.8267 -0.5583  0.5116
 3572TIP3    H232276   3.067   1.470   1.121  0.4519  2.2095 -0.9331
 3573TIP3   OH232277   1.173   3.784   8.763 -1.0351  0.0996 -0.1915
 3573TIP3    H132278   1.235   3.830   8.707  0.1690 -0.7192  0.4229
 3573TIP3    H232279   1.207   3.796   8.852  0.1545 -3.0187 -0.0778
 3574TIP3   OH232280   0.399   4.590   2.060 -0.4036  0.2886 -0.1180
 3574TIP3    H132281   0.380   4.566   1.969 -1.6453  1.1708 -0.1175
 3574TIP3    H232282   0.493   4.573   2.070 -0.4939 -1.0059 -1.1801
 3575TIP3   OH232283   3.330   5.426   7.716  0.0207 -0.1730  0.1462
 3575TIP3    H132284   3.416   5.458   7.690 -0.3832 -0.6864 -1.9531
 3575TIP3    H232285   3.346   5.380   7.799  1.0925  2.8952  1.8064
 3576TIP3   OH232286   3.306   6.055   0.175  0.6550  0.4282  0.2308
 3576TIP3    H132287   3.357   6.105   0.113  1.7034 -0.4975  0.3196
 3576TIP3    H232288   3.355   6.060   0.257  2.0436 -2.5424 -0.2844
 3577TIP3   OH232289   2.537   6.723   8.765 -0.3898  0.0426  0.1772
 3577TIP3    H132290   2.626   6.736   8.732 -0.3792 -0.5723 -0.0483
 3577TIP3    H232291   2.548   6.669   8.843 -0.2734  2.6476  2.1136
 3578TIP3   OH232292   5.455   3.371   1.870  0.1908  0.1428  0.1747
 3578TIP3    H132293   5.521   3.391   1.937 -0.1202  0.4401  0.3957
 3578TIP3    H232294   5.505   3.371   1.788  1.0255 -2.4900  0.5945
 3579TIP3   OH232295   6.155   2.949   2.184  0.0810 -0.3847  0.2508
 3579TIP3    H132296   6.205   2.871   2.206 -0.9495 -0.7990  1.1789
 3579TIP3    H232297   6.075   2.942   2.235 -0.9915  0.2044 -1.2810
 3580TIP3   OH232298   4.966   6.262   8.273  0.1887 -0.0007 -0.1757
 3580TIP3    H132299   4.911   6.234   8.199 -0.8484 -0.3914  0.7081
 3580TIP3    H232300   4.923   6.341   8.306 -1.2978 -1.5789  1.9746
 3581TIP3   OH232301   2.511   0.276   1.203  0.6073 -0.4858  0.0031
 3581TIP3    H132302   2.585   0.320   1.245  0.5327  0.8315 -1.1581
 3581TIP3    H232303   2.434   0.322   1.237  0.4010 -1.0212  0.2638
 3582TIP3   OH232304   3.200   5.690   2.085  0.1656 -0.3803  0.2062
 3582TIP3    H132305   3.192   5.650   1.999  0.4878 -1.2853  0.5800
 3582TIP3    H232306   3.110   5.701   2.116  0.0607 -0.4224 -0.0871
 3583TIP3   OH232307   6.584   4.232   0.023 -0.2165 -0.5966  0.0612
 3583TIP3    H132308   6.651   4.300   0.036  0.3739 -0.8281 -1.5920
 3583TIP3    H232309   6.600   4.199  -0.065 -1.6161 -1.6763  0.1830
 3584TIP3   OH232310   3.813   6.551   0.386  0.0976  0.1208 -0.0013
 3584TIP3    H132311   3.730   6.523   0.424  0.7348 -1.8395  0.0433
 3584TIP3    H232312   3.802   6.536   0.292 -0.4116  2.1396 -0.3117
 3585TIP3   OH232313   1.326   3.697   7.102 -0.5188  0.4197  0.0635
 3585TIP3    H132314   1.304   3.723   7.012  1.2363  1.2227 -0.1668
 3585TIP3    H232315   1.385   3.622   7.091 -0.1715  0.6199  0.5318
 3586TIP3   OH232316   1.137   4.501   8.391  0.6011  0.4813  0.1858
 3586TIP3    H132317   1.190   4.421   8.391  1.5973  1.1110  1.2338
 3586TIP3    H232318   1.137   4.529   8.300  0.1891 -0.7348 -0.2080
 3587TIP3   OH232319   0.693   2.072   1.750  0.0833  0.1498 -0.3027
 3587TIP3    H132320   0.693   1.976   1.752 -1.8446  0.0358 -2.2970
 3587TIP3    H232321   0.691   2.094   1.657 -0.1985  2.1427  0.1341
 3588TIP3   OH232322   1.605   4.370   1.501  0.5650  0.3910  0.4917
 3588TIP3    H132323   1.604   4.285   1.546 -0.3400  0.4602  0.6082
 3588TIP3    H232324   1.697   4.381   1.474  1.5167  1.0476  3.6422
 3589TIP3   OH232325   2.635   4.002   7.838  0.4980 -0.1109  0.9451
 3589TIP3    H132326   2.697   3.950   7.786 -1.0259 -0.8198 -0.2403
 3589TIP3    H232327   2.570   3.938   7.867 -0.6735  0.8980  0.6043
 3590TIP3   OH232328   6.010   6.212   1.970 -0.0662 -0.2269  0.1175
 3590TIP3    H132329   6.016   6.134   1.914  1.2805  0.2526 -0.4336
 3590TIP3    H232330   5.923   6.248   1.951 -0.2220 -0.9173 -0.5240
 3591TIP3   OH232331   4.779   3.213   0.379 -0.0378  0.1120 -0.5656
 3591TIP3    H132332   4.858   3.164   0.401  0.1177  1.0688  1.1604
 3591TIP3    H232333   4.811   3.296   0.344 -0.2742  0.1621 -0.6660
 3592TIP3   OH232334   2.866   2.629   1.515  0.2650  0.1332  0.1386
 3592TIP3    H132335   2.920   2.638   1.594  1.3113  1.9769 -0.7156
 3592TIP3    H232336   2.902   2.552   1.470  0.6392 -0.0434  0.7226
 3593TIP3   OH232337   2.899   5.978   1.127 -0.4075 -0.2160  0.0275
 3593TIP3    H132338   2.876   6.059   1.081 -0.6374 -0.5734 -0.4991
 3593TIP3    H232339   2.818   5.952   1.171 -0.6889 -0.8184 -0.8228
 3594TIP3   OH232340   0.384   6.252   8.155  0.3900 -0.3213  0.1957
 3594TIP3    H132341   0.303   6.215   8.119 -0.1434 -0.1380  1.1682
 3594TIP3    H232342   0.372   6.248   8.250  1.6777 -0.6172  0.3661
 3595TIP3   OH232343   6.187   3.442   7.939 -0.9689 -0.1890 -0.3602
 3595TIP3    H132344   6.274   3.424   7.905 -1.0651 -1.3746 -0.0226
 3595TIP3    H232345   6.173   3.535   7.920  0.6508  0.2139  0.2306
 3596TIP3   OH232346   3.834   5.844   0.711 -0.3016 -0.2303 -0.1979
 3596TIP3    H132347   3.813   5.844   0.804  1.9642 -2.0488  0.4115
 3596TIP3    H232348   3.888   5.922   0.698 -0.5807 -0.0010  0.0112
 3597TIP3   OH232349   2.937   2.829   0.164  0.4766 -0.6415  0.3987
 3597TIP3    H132350   2.985   2.801   0.242  2.0026 -0.7760 -0.5439
 3597TIP3    H232351   2.981   2.910   0.137 -0.0759 -0.5582 -0.2724
 3598TIP3   OH232352   6.517   0.757   0.148 -0.5100  0.4227 -0.0547
 3598TIP3    H132353   6.557   0.815   0.083 -0.1576  1.3268  0.9483
 3598TIP3    H232354   6.505   0.674   0.101  0.1148  0.9294 -1.1518
 3599TIP3   OH232355   6.455   3.349   2.519 -0.4727  0.2193  0.1406
 3599TIP3    H132356   6.427   3.261   2.497 -1.0015  0.2044  0.8210
 3599TIP3    H232357   6.425   3.362   2.609  1.0459  0.4921  0.6405
 3600TIP3   OH232358   3.487   1.836   8.702  0.1687 -0.7024 -0.3049
 3600TIP3    H132359   3.538   1.914   8.725 -0.6351  0.0876 -1.0979
 3600TIP3    H232360   3.396   1.867   8.700 -0.2128 -1.7805 -0.1714
 3601TIP3   OH232361   6.065   0.813   0.399  0.0362  1.0663 -0.4152
 3601TIP3    H132362   6.103   0.901   0.403 -0.3064  1.1760  0.6804
 3601TIP3    H232363   5.975   0.828   0.370  0.4662  0.9009 -1.9418
 3602TIP3   OH232364   4.450   5.668   1.852 -0.2339  0.3704 -0.3591
 3602TIP3    H132365   4.491   5.645   1.769  0.2348  1.7221 -0.5378
 3602TIP3    H232366   4.409   5.753   1.836  0.1457  0.8130  0.8777
 3603TIP3   OH232367   3.095   5.833   0.884 -0.2021 -0.6754 -0.4730
 3603TIP3    H132368   3.065   5.801   0.969  3.7186 -1.5928  0.7682
 3603TIP3    H232369   3.169   5.890   0.905  0.5905 -0.5300 -3.2659
 3604TIP3   OH232370   0.146   6.106   8.199 -0.1633  0.3040  0.3099
 3604TIP3    H132371   0.154   6.072   8.288 -1.2077  2.2885  1.2143
 3604TIP3    H232372   0.117   6.196   8.210 -1.1083  0.3638 -2.0824
 3605TIP3   OH232373   1.463   2.548   0.529 -0.2613 -0.2427  0.2604
 3605TIP3    H132374   1.549   2.527   0.492 -0.0808 -2.3728  1.7367
 3605TIP3    H232375   1.482   2.594   0.611 -0.5676  0.3351  0.0131
 3606TIP3   OH232376   4.528   3.838   2.462 -0.2148 -0.4508  0.0058
 3606TIP3    H132377   4.518   3.846   2.557  1.1524  0.2889  0.1135
 3606TIP3    H232378   4.464   3.901   2.426 -2.0562 -2.0311  0.3284
 3607TIP3   OH232379   4.007   2.993   1.495  0.3050 -0.6527 -0.2516
 3607TIP3    H132380   4.089   3.024   1.456 -0.8900  0.6545 -1.9250
 3607TIP3    H232381   3.946   3.066   1.481 -1.5796 -2.2415 -0.6112
 3608TIP3   OH232382   2.875   5.817   7.651  0.3152 -0.3030  0.6142
 3608TIP3    H132383   2.941   5.865   7.601  0.1877 -0.9801 -0.2153
 3608TIP3    H232384   2.835   5.884   7.707 -0.6580  0.8436 -1.3289
 3609TIP3   OH232385   3.228   1.796   1.998  0.1675  0.0897 -0.0906
 3609TIP3    H132386   3.143   1.759   2.020 -0.9832  1.8255 -1.4152
 3609TIP3    H232387   3.246   1.765   1.909 -0.0616  1.3785 -0.6001
 3610TIP3   OH232388   3.337   2.752   1.487  0.2844 -0.1375 -0.4095
 3610TIP3    H132389   3.353   2.661   1.512  2.7012  0.0782 -0.9430
 3610TIP3    H232390   3.299   2.792   1.566 -0.6672 -1.5311 -0.1159
 3611TIP3   OH232391   4.410   6.364   2.157 -0.1374 -0.6925  0.4312
 3611TIP3    H132392   4.498   6.327   2.146  0.4338  0.3635  1.2086
 3611TIP3    H232393   4.378   6.325   2.238  0.1917 -0.0213  0.8918
 3612TIP3   OH232394   2.733   0.541   0.798  0.7009 -0.2147 -0.7628
 3612TIP3    H132395   2.817   0.558   0.842  0.5333 -0.1375 -0.4749
 3612TIP3    H232396   2.670   0.531   0.869 -0.3295  3.5070 -0.9784
 3613TIP3   OH232397   6.261   6.814   0.832 -0.0748  1.1686 -0.0842
 3613TIP3    H132398   6.212   6.736   0.805 -1.7636  1.9271  0.6742
 3613TIP3    H232399   6.332   6.780   0.887 -0.2008  0.0967 -0.5626
 3614TIP3   OH232400   4.830   4.757   2.287 -0.0982  0.3652  0.0170
 3614TIP3    H132401   4.749   4.746   2.236 -0.1631  1.5508 -0.1657
 3614TIP3    H232402   4.803   4.743   2.378 -0.5930  1.0936 -0.0101
 3615TIP3   OH232403   0.394   4.300   2.726 -0.4444  0.0140  0.4248
 3615TIP3    H132404   0.467   4.335   2.777 -2.0131  0.8214  2.2276
 3615TIP3    H232405   0.319   4.354   2.750 -1.4801 -0.1371 -2.1340
 3616TIP3   OH232406   3.813   0.026   0.454  0.4090  0.4601  0.1848
 3616TIP3    H132407   3.811   0.037   0.359 -1.2643 -0.6980  0.0597
 3616TIP3    H232408   3.803  -0.068   0.468  0.5270  0.6268  1.5240
 3617TIP3   OH232409   1.481   3.707   8.557  0.4511  0.1403  0.3715
 3617TIP3    H132410   1.403   3.719   8.612  0.7378 -0.2499  0.8674
 3617TIP3    H232411   1.552   3.747   8.607  0.5209  0.7833 -0.2265
 3618TIP3   OH232412   1.188   1.190   7.743  0.1973  0.6713  0.6819
 3618TIP3    H132413   1.156   1.187   7.652  0.5750  1.4186  0.5140
 3618TIP3    H232414   1.190   1.099   7.770 -0.7264  0.4953  0.2257
 3619TIP3   OH232415   2.037   3.909   8.539  0.5593 -0.4108 -0.2867
 3619TIP3    H132416   1.974   3.846   8.504 -1.2587  0.4500  1.2183
 3619TIP3    H232417   2.077   3.865   8.614  0.7142 -0.4750 -0.4087
 3620TIP3   OH232418   3.232   3.046   1.939  0.1745 -0.7003  0.3960
 3620TIP3    H132419   3.246   3.131   1.981  0.8162 -0.6459  0.0877
 3620TIP3    H232420   3.209   2.987   2.011 -0.8182 -0.1524  0.5458
 3621TIP3   OH232421   5.062   3.762   0.812 -0.1899  0.1478  0.5060
 3621TIP3    H132422   4.972   3.762   0.779 -0.6443  2.6372  1.5639
 3621TIP3    H232423   5.052   3.760   0.907  0.7072  2.9940  0.7448
 3622TIP3   OH232424   0.464   5.001   1.149  0.1731 -0.1272  0.1073
 3622TIP3    H132425   0.422   5.084   1.172  1.2226  0.5671 -0.4045
 3622TIP3    H232426   0.556   5.024   1.136  0.1233 -0.9660 -2.0628
 3623TIP3   OH232427   1.100   2.686   2.258 -0.4238 -0.2579  0.6664
 3623TIP3    H132428   1.105   2.596   2.290  2.6256  0.0521  1.2749
 3623TIP3    H232429   1.150   2.737   2.321 -2.1472  1.9266  0.3658
 3624TIP3   OH232430   1.984   5.357   8.516 -0.0547  0.9054  0.0684
 3624TIP3    H132431   1.968   5.373   8.423 -0.2557  1.8118  0.2432
 3624TIP3    H232432   2.077   5.337   8.521  0.2837  2.2786 -0.1769
 3625TIP3   OH232433   2.327   1.151   1.814 -0.0372 -0.2618 -0.6285
 3625TIP3    H132434   2.415   1.112   1.813  0.4917  0.8684 -1.5771
 3625TIP3    H232435   2.306   1.163   1.722  0.2594  2.5232 -0.4308
 3626TIP3   OH232436   3.270   2.745   7.383 -0.2648  0.9175 -0.1108
 3626TIP3    H132437   3.347   2.701   7.345 -0.5556  2.2380 -2.4450
 3626TIP3    H232438   3.196   2.707   7.335 -0.6625  2.6081 -0.8896
 3627TIP3   OH232439   6.779   3.192   0.810  0.6224 -0.0099  0.3771
 3627TIP3    H132440   6.805   3.251   0.740 -1.5388 -0.5741 -1.0080
 3627TIP3    H232441   6.712   3.240   0.859  0.3465 -0.5399  0.5282
 3628TIP3   OH232442   6.164   0.892   0.860  0.4356  0.1106 -0.0953
 3628TIP3    H132443   6.074   0.887   0.829  0.9517  0.3102 -1.7103
 3628TIP3    H232444   6.168   0.831   0.934 -0.8614 -0.3466 -0.3850
 3629TIP3   OH232445   0.110   1.040   2.033 -0.2478 -0.0850  0.4451
 3629TIP3    H132446   0.042   1.106   2.017 -0.4594 -0.8592 -2.2982
 3629TIP3    H232447   0.078   0.990   2.108 -0.2764  2.5808  2.3436
 3630TIP3   OH232448   0.758   6.225   6.989 -0.2576 -0.3052 -0.3259
 3630TIP3    H132449   0.800   6.304   7.024 -1.5154  0.3767 -0.3084
 3630TIP3    H232450   0.797   6.153   7.040  0.6866  0.3122 -0.1440
 3631TIP3   OH232451   1.828   4.410   1.333 -0.0436  0.0313 -0.7056
 3631TIP3    H132452   1.879   4.375   1.260  1.7897 -0.2147  0.6159
 3631TIP3    H232453   1.879   4.387   1.411 -2.1634 -0.1585  0.7129
 3632TIP3   OH232454   0.885   4.405   6.960 -0.1364 -0.0853  0.0641
 3632TIP3    H132455   0.933   4.455   6.893 -0.4279 -1.2152 -1.0327
 3632TIP3    H232456   0.894   4.457   7.040 -0.1542  1.5355 -0.9430
 3633TIP3   OH232457   6.461   1.705   7.969  0.2775  0.3430 -0.3989
 3633TIP3    H132458   6.533   1.679   7.910 -0.3236 -0.2685 -0.8772
 3633TIP3    H232459   6.405   1.628   7.973 -0.9698  1.1933 -0.9590
 3634TIP3   OH232460   3.683   5.972   8.400  0.4390  0.1996  0.5763
 3634TIP3    H132461   3.744   6.008   8.464 -1.0400  1.9383  1.1140
 3634TIP3    H232462   3.733   5.967   8.318  0.8870  3.2451  0.5661
 3635TIP3   OH232463   6.453   3.889   1.473 -0.2841 -0.1286  0.2258
 3635TIP3    H132464   6.544   3.860   1.461 -0.1256  0.4439 -0.0340
 3635TIP3    H232465   6.401   3.824   1.427  0.1793  0.8485 -1.8321
 3636TIP3   OH232466   6.678   5.004   1.202  0.0241 -0.0862  0.1258
 3636TIP3    H132467   6.742   4.965   1.142 -1.2882  1.0843 -2.1856
 3636TIP3    H232468   6.721   5.081   1.238  1.6957 -2.0529  2.7230
 3637TIP3   OH232469   6.665   6.202   8.328 -0.3441  0.0891 -0.3130
 3637TIP3    H132470   6.655   6.115   8.290 -0.3653 -0.7682  1.5031
 3637TIP3    H232471   6.720   6.250   8.267 -0.7187 -1.0476 -1.5774
 3638TIP3   OH232472   2.230   0.828   1.417  0.4773 -0.5355 -0.0698
 3638TIP3    H132473   2.280   0.834   1.499  0.1762  0.6798  0.0516
 3638TIP3    H232474   2.293   0.849   1.348  0.1170  1.3158  0.1081
 3639TIP3   OH232475   6.524   6.193   8.569  0.2894  0.1564  0.1125
 3639TIP3    H132476   6.505   6.278   8.609 -0.8105 -0.6380  1.3590
 3639TIP3    H232477   6.595   6.211   8.507  0.5527  1.8522  0.8471
 3640TIP3   OH232478   4.514   5.139   3.182  0.1746 -1.0532  0.5206
 3640TIP3    H132479   4.448   5.195   3.141  0.7389 -1.5564 -1.1769
 3640TIP3    H232480   4.465   5.088   3.247 -0.7896 -0.2914  0.4225
 3641TIP3   OH232481   1.672   2.679   0.703 -0.5155 -0.3009  0.3694
 3641TIP3    H132482   1.641   2.693   0.792  1.2399 -1.0334  1.1465
 3641TIP3    H232483   1.717   2.760   0.680 -2.5748  0.6246 -0.6204
 3642TIP3   OH232484   2.285   1.362   1.103  0.2640 -0.2559  0.4462
 3642TIP3    H132485   2.338   1.340   1.026  0.5614 -0.2434  0.6464
 3642TIP3    H232486   2.272   1.278   1.147  0.8570 -0.1362  0.8650
 3643TIP3   OH232487   2.823   3.243   0.573 -0.3041 -0.3399 -0.2765
 3643TIP3    H132488   2.789   3.274   0.657  3.4952 -0.1667  1.3972
 3643TIP3    H232489   2.851   3.323   0.528  2.4863 -0.6526  0.7155
 3644TIP3   OH232490   1.546   4.790   2.691  0.3289 -0.1665  0.2779
 3644TIP3    H132491   1.470   4.836   2.727 -1.3093 -0.0846 -2.8894
 3644TIP3    H232492   1.514   4.702   2.674  1.4380 -0.5782  0.2704
 3645TIP3   OH232493   0.126   2.233   2.330 -0.1209  0.9750 -0.0747
 3645TIP3    H132494   0.206   2.284   2.339 -1.2186  2.7698 -0.0994
 3645TIP3    H232495   0.093   2.254   2.242 -0.5499  0.1519 -0.1236
 3646TIP3   OH232496   2.044   4.693   7.192  0.1874 -0.1424 -0.0638
 3646TIP3    H132497   2.025   4.694   7.098  2.6391  1.1808 -0.6547
 3646TIP3    H232498   2.012   4.777   7.224 -0.1269 -0.3469  0.1548
 3647TIP3   OH232499   4.524   5.242   7.878  0.1363 -0.1710  0.2564
 3647TIP3    H132500   4.460   5.187   7.923  1.1636 -1.2879  0.3706
 3647TIP3    H232501   4.512   5.221   7.785  0.2236 -0.2451  0.2623
 3648TIP3   OH232502   1.311   0.434   0.887 -0.0266 -0.0560 -0.1654
 3648TIP3    H132503   1.356   0.353   0.912  1.1650 -0.1445 -2.3181
 3648TIP3    H232504   1.218   0.415   0.901  0.3700 -0.9930  1.4421
 3649TIP3   OH232505   2.761   1.271   8.331  0.0644  0.3686 -0.0181
 3649TIP3    H132506   2.773   1.361   8.363  2.1314  0.3753 -0.6362
 3649TIP3    H232507   2.801   1.272   8.243 -1.6497 -0.6886 -0.8536
 3650TIP3   OH232508   3.891   5.309   8.461  0.1551  0.2333 -0.0859
 3650TIP3    H132509   3.961   5.368   8.488  0.1316  0.4578 -0.5016
 3650TIP3    H232510   3.925   5.266   8.382  0.5439 -1.0044  0.7365
 3651TIP3   OH232511   3.006   4.062   7.738  0.1066 -0.0502 -0.3110
 3651TIP3    H132512   3.062   4.003   7.688  0.1090 -0.5961  0.3235
 3651TIP3    H232513   3.062   4.137   7.758  0.3447 -0.1961 -0.4294
 3652TIP3   OH232514   2.070   6.312   2.110  0.0425  0.4700  0.9130
 3652TIP3    H132515   2.006   6.249   2.076  0.0160  1.3828 -0.8482
 3652TIP3    H232516   2.092   6.279   2.197  0.0090 -1.9584  0.0860
 3653TIP3   OH232517   6.083   6.056   7.949  0.1937  0.2101  0.5335
 3653TIP3    H132518   6.167   6.040   7.993  0.6090  1.6738  0.3124
 3653TIP3    H232519   6.042   5.969   7.945  2.9967 -1.1763 -2.1204
 3654TIP3   OH232520   2.242   4.855   0.467  0.1877  0.0702  0.2839
 3654TIP3    H132521   2.292   4.934   0.489 -1.1652  1.8526 -2.4099
 3654TIP3    H232522   2.287   4.819   0.391 -0.3419 -0.6511  0.3066
 3655TIP3   OH232523   3.238   3.363   0.816  0.1405  0.6384  0.0100
 3655TIP3    H132524   3.325   3.328   0.794  0.1435 -0.4256  1.5234
 3655TIP3    H232525   3.254   3.416   0.895 -0.6013  0.2324  0.4420
 3656TIP3   OH232526   2.005   2.447   2.249 -0.3112  0.1633  0.3059
 3656TIP3    H132527   1.928   2.484   2.291  1.4017  2.6067  1.5484
 3656TIP3    H232528   2.073   2.452   2.316  1.2522 -0.6860 -1.1404
 3657TIP3   OH232529   2.768   4.194   2.652  0.4857 -0.3336  0.2662
 3657TIP3    H132530   2.813   4.267   2.609 -0.9902 -0.1582 -1.1011
 3657TIP3    H232531   2.834   4.125   2.658  1.7548  0.9082  1.0843
 3658TIP3   OH232532   3.614   0.947   1.503 -0.3611 -0.0442  0.0328
 3658TIP3    H132533   3.633   0.966   1.595 -1.6565 -0.4724  0.4028
 3658TIP3    H232534   3.681   0.995   1.455  0.4679  0.0189  1.2012
 3659TIP3   OH232535   5.100   1.101   0.792  0.2792  0.2190  0.1657
 3659TIP3    H132536   5.043   1.144   0.728  1.4511  1.2020 -0.2606
 3659TIP3    H232537   5.047   1.030   0.827 -0.2396 -0.6888 -2.2683
 3660TIP3   OH232538   6.406   0.770   8.592 -0.2496  0.2317 -0.2737
 3660TIP3    H132539   6.405   0.789   8.498 -1.7170  1.9590  0.0421
 3660TIP3    H232540   6.483   0.817   8.625 -0.7835  1.1779 -0.3452
 3661TIP3   OH232541   0.267   6.585   8.658 -0.1706 -0.0268  0.0057
 3661TIP3    H132542   0.189   6.609   8.709  0.3627  0.4422  0.6327
 3661TIP3    H232543   0.233   6.557   8.573 -1.0760 -0.6430  0.5545
 3662TIP3   OH232544   1.731   0.540   3.267  0.7507  0.1687  0.4148
 3662TIP3    H132545   1.781   0.535   3.185  1.5220 -1.5337  0.9342
 3662TIP3    H232546   1.793   0.574   3.331  0.3853  0.7389  0.4696
 3663TIP3   OH232547   5.892   6.084   2.482  0.4274  0.2977  0.3163
 3663TIP3    H132548   5.987   6.081   2.497  0.5999  0.0822 -0.8078
 3663TIP3    H232549   5.882   6.133   2.401 -0.4212  0.2079  0.3615
 3664TIP3   OH232550   3.112   5.170   1.598 -0.0353 -0.1727  0.1677
 3664TIP3    H132551   3.071   5.238   1.545  1.1523 -0.7074 -1.4968
 3664TIP3    H232552   3.152   5.217   1.671  2.6065  1.2750 -2.0454
 3665TIP3   OH232553   5.995   6.183   7.483  0.4460 -0.3182  0.2132
 3665TIP3    H132554   5.995   6.238   7.404  2.6418 -0.1533  0.2816
 3665TIP3    H232555   5.944   6.233   7.546 -1.3408 -0.4395 -1.0350
 3666TIP3   OH232556   3.014   4.340   2.498  0.5960 -0.1497  0.1270
 3666TIP3    H132557   3.073   4.300   2.562  0.5847  1.1953  1.0087
 3666TIP3    H232558   3.060   4.331   2.414  1.1700 -0.8414  0.5043
 3667TIP3   OH232559   5.117   0.445   0.159  0.1398 -0.1893 -0.2086
 3667TIP3    H132560   5.130   0.531   0.198  0.8073 -0.0408 -0.7445
 3667TIP3    H232561   5.134   0.459   0.065 -1.0120 -0.6237 -0.4999
 3668TIP3   OH232562   4.226   2.656   7.422  0.2427  0.2290  0.5075
 3668TIP3    H132563   4.305   2.610   7.451 -0.8492 -1.5551  0.7770
 3668TIP3    H232564   4.235   2.663   7.327  0.8659  0.3482  0.5726
 3669TIP3   OH232565   4.334   2.829   0.670  0.1068  0.2858  0.3614
 3669TIP3    H132566   4.287   2.885   0.608 -0.6974 -1.5366 -0.7403
 3669TIP3    H232567   4.308   2.740   0.648  0.4445 -0.5036  2.8114
 3670TIP3   OH232568   6.751   1.593   7.075  0.1621  0.8218  0.4585
 3670TIP3    H132569   6.716   1.672   7.034  0.1153  0.5237 -0.0785
 3670TIP3    H232570   6.845   1.610   7.084  0.0802  1.1294  0.7913
 3671TIP3   OH232571   1.178   3.868   0.711  0.2009  0.2073 -0.0905
 3671TIP3    H132572   1.172   3.779   0.748  0.0521 -0.5006 -1.7342
 3671TIP3    H232573   1.094   3.909   0.734  0.8300  0.4741  1.9318
 3672TIP3   OH232574   6.185   0.546   1.501  0.0062 -0.4445  0.1262
 3672TIP3    H132575   6.212   0.529   1.592  1.0536  0.1012 -0.0694
 3672TIP3    H232576   6.095   0.514   1.497  0.0604 -0.8007  1.2646
 3673TIP3   OH232577   2.236   1.111   1.202 -0.1106  0.0749 -0.0191
 3673TIP3    H132578   2.186   1.057   1.141 -1.7964  1.3446  0.1386
 3673TIP3    H232579   2.313   1.059   1.223 -0.1308 -0.9495 -2.2004
 3674TIP3   OH232580   4.610   2.021   8.785  0.0600  0.4225  0.2396
 3674TIP3    H132581   4.683   2.082   8.792 -0.1413  0.8600 -1.2736
 3674TIP3    H232582   4.626   1.973   8.704 -1.3510  0.5657 -0.1468
 3675TIP3   OH232583   5.627   1.259   1.584  0.7287  0.2380  0.9258
 3675TIP3    H132584   5.600   1.168   1.593 -1.3789  0.8503  1.3741
 3675TIP3    H232585   5.654   1.267   1.493  0.2927 -0.6939  0.7019
 3676TIP3   OH232586   5.324   6.098   1.240 -0.1549 -0.2326  0.0021
 3676TIP3    H132587   5.400   6.156   1.232 -0.4000 -0.0394 -1.2365
 3676TIP3    H232588   5.332   6.038   1.165 -0.8866 -0.6147  0.2221
 3677TIP3   OH232589   3.801   6.508   7.908  0.0555 -0.6140 -0.3089
 3677TIP3    H132590   3.824   6.419   7.936  0.9842 -0.8219 -1.6480
 3677TIP3    H232591   3.880   6.559   7.925  0.0906 -0.4104 -1.0574
 3678TIP3   OH232592   5.574   0.726   2.403  0.5973 -0.0248  0.0349
 3678TIP3    H132593   5.540   0.745   2.491  0.0747  1.7123 -0.5108
 3678TIP3    H232594   5.666   0.704   2.417  0.5091  0.1959  1.0275
 3679TIP3   OH232595   5.062   6.435   8.721 -0.6722 -0.0155 -0.4810
 3679TIP3    H132596   4.980   6.386   8.731 -0.6097 -0.1295 -0.5355
 3679TIP3    H232597   5.122   6.394   8.784 -1.0546  0.9161  0.5351
 3680TIP3   OH232598   6.805   3.585   1.349  0.0927  0.7163  0.3433
 3680TIP3    H132599   6.884   3.635   1.369  0.6636 -0.0135 -0.0342
 3680TIP3    H232600   6.796   3.591   1.254  0.2672 -0.0208  0.2729
 3681TIP3   OH232601   4.617   5.797   8.212 -0.5347 -0.3642  0.1104
 3681TIP3    H132602   4.560   5.787   8.135 -0.9233 -0.6255  0.4311
 3681TIP3    H232603   4.698   5.752   8.187 -1.5940 -2.8267  0.8444
 3682TIP3   OH232604   4.634   1.484   0.455  0.4997  0.0688 -0.2396
 3682TIP3    H132605   4.546   1.493   0.493  0.2119 -1.1763 -0.5623
 3682TIP3    H232606   4.629   1.532   0.372 -0.0614 -0.4615 -0.5254
 3683TIP3   OH232607   3.830   6.188   2.755  0.3173 -0.1632 -0.5261
 3683TIP3    H132608   3.774   6.205   2.830 -0.0041 -0.5595 -0.6709
 3683TIP3    H232609   3.903   6.250   2.764  0.6712 -0.7029  0.5100
 3684TIP3   OH232610   5.985   1.503   1.118  0.5726  0.0231  0.0877
 3684TIP3    H132611   6.068   1.516   1.071  0.2684 -1.1616 -0.8616
 3684TIP3    H232612   6.011   1.467   1.203  1.1745  2.8286  1.1833
 3685TIP3   OH232613   2.231   3.473   2.128 -0.0027  0.1024 -0.0858
 3685TIP3    H132614   2.197   3.491   2.040  1.4574 -0.5330 -0.8033
 3685TIP3    H232615   2.214   3.380   2.142  0.4816  0.0206 -0.0261
 3686TIP3   OH232616   3.392   6.607   0.957  0.5950  0.0258 -0.4521
 3686TIP3    H132617   3.350   6.560   1.029 -1.0165  0.9869 -0.7134
 3686TIP3    H232618   3.337   6.588   0.880 -0.8286  3.0975 -0.3641
 3687TIP3   OH232619   6.334   2.708   8.408 -0.3070  0.1828 -0.5076
 3687TIP3    H132620   6.368   2.657   8.482 -3.1798 -3.0541 -1.1830
 3687TIP3    H232621   6.255   2.750   8.441 -0.3410  0.6454 -1.1509
 3688TIP3   OH232622   4.952   1.949   1.139 -0.3859 -0.3553 -0.0402
 3688TIP3    H132623   5.036   1.950   1.186 -0.2326 -2.3754 -0.1663
 3688TIP3    H232624   4.941   1.858   1.113 -2.3872 -0.0268 -0.4940
 3689TIP3   OH232625   5.451   1.105   7.117  0.4310 -0.2675 -0.3668
 3689TIP3    H132626   5.402   1.170   7.067 -1.5599 -1.5570 -0.2055
 3689TIP3    H232627   5.530   1.150   7.145 -0.2359  1.6427 -1.4100
 3690TIP3   OH232628   2.092   5.561   2.561 -0.5876 -0.2850 -0.0143
 3690TIP3    H132629   2.098   5.609   2.479 -3.1465  0.4723  0.1519
 3690TIP3    H232630   2.104   5.627   2.629 -0.4907 -0.5416  0.2226
 3691TIP3   OH232631   3.550   2.732   8.504 -0.6220  0.3820  0.0444
 3691TIP3    H132632   3.569   2.775   8.587  1.0367  2.4593 -1.3014
 3691TIP3    H232633   3.542   2.804   8.441 -1.0076 -1.1552 -1.7374
 3692TIP3   OH232634   6.532   1.338   7.843 -0.7228  0.7566 -0.2010
 3692TIP3    H132635   6.516   1.350   7.749 -1.3628  1.6587  0.0094
 3692TIP3    H232636   6.456   1.377   7.886 -2.0783 -2.4957  0.6628
 3693TIP3   OH232637   3.784   5.132   2.258  0.5375 -0.1989 -0.2939
 3693TIP3    H132638   3.708   5.179   2.226 -0.0725 -0.5817  0.5470
 3693TIP3    H232639   3.854   5.198   2.260  0.3965  0.0121 -1.6154
 3694TIP3   OH232640   4.563   3.061   1.119  0.4213  0.2558 -0.2078
 3694TIP3    H132641   4.523   3.148   1.117 -2.4573 -0.8256  2.4930
 3694TIP3    H232642   4.498   3.004   1.077  1.2834 -0.9519  0.0272
 3695TIP3   OH232643   5.599   2.057   1.872 -0.6815 -0.0807 -0.2120
 3695TIP3    H132644   5.569   2.148   1.868 -2.4743 -0.6665 -1.1791
 3695TIP3    H232645   5.659   2.049   1.798 -0.1862  0.4136  0.1263
 3696TIP3   OH232646   2.209   2.396   1.743  0.1840 -0.7129  0.2789
 3696TIP3    H132647   2.192   2.457   1.814  0.7462  0.2261 -0.3723
 3696TIP3    H232648   2.304   2.396   1.733  0.0295  1.9589 -2.7565
 3697TIP3   OH232649   4.221   0.219   0.370  0.3181  0.3593  0.2643
 3697TIP3    H132650   4.204   0.127   0.349  0.8408  0.2578  0.2597
 3697TIP3    H232651   4.221   0.222   0.466  2.7492 -0.1614  0.3519
 3698TIP3   OH232652   1.971   0.466   7.838 -0.0179 -0.0208  0.0871
 3698TIP3    H132653   1.950   0.497   7.749  0.2204 -0.2249 -0.0418
 3698TIP3    H232654   1.948   0.373   7.836  0.6357 -0.1834  0.0287
 3699TIP3   OH232655   2.319   3.843   2.072  0.0185  0.1816 -0.2093
 3699TIP3    H132656   2.290   3.775   2.011 -0.1988  0.7430 -0.7427
 3699TIP3    H232657   2.401   3.875   2.036 -0.9217  1.6705 -1.1611
 3700TIP3   OH232658   4.864   6.094   8.504  0.0554  0.1160 -0.3155
 3700TIP3    H132659   4.854   6.100   8.409 -0.5368 -0.4480 -0.2937
 3700TIP3    H232660   4.846   6.183   8.535 -1.8300 -0.1359 -0.5576
 3701TIP3   OH232661   5.208   1.025   8.224 -0.1090 -0.3486 -0.3063
 3701TIP3    H132662   5.295   1.051   8.195  0.8123 -2.4263  0.3799
 3701TIP3    H232663   5.204   1.052   8.316 -0.5504  0.4828 -0.5520
 3702TIP3   OH232664   4.565   1.018   2.041 -0.4560  0.4217 -0.0539
 3702TIP3    H132665   4.518   0.937   2.057  1.4554 -1.0262 -1.2660
 3702TIP3    H232666   4.616   1.033   2.121 -1.8117  1.2120  0.6949
 3703TIP3   OH232667   0.848   4.947   8.261 -0.4883 -0.5918 -0.3996
 3703TIP3    H132668   0.807   4.956   8.347  1.0451  0.4147  0.2654
 3703TIP3    H232669   0.805   5.012   8.206  1.7031  2.1981  0.9332
 3704TIP3   OH232670   3.885   1.390   0.127 -0.4596 -0.3091  0.2966
 3704TIP3    H132671   3.862   1.298   0.112 -0.2125 -0.1721 -1.0622
 3704TIP3    H232672   3.809   1.428   0.170 -1.0865 -0.8476 -0.3283
 3705TIP3   OH232673   3.733   2.967   0.983 -0.4960  0.3199  0.0032
 3705TIP3    H132674   3.738   3.019   1.063  0.7444 -1.0417  0.8509
 3705TIP3    H232675   3.735   3.032   0.912  3.3791  1.4522  0.9277
 3706TIP3   OH232676   2.064   1.495   0.999  0.7850 -0.3594 -0.0555
 3706TIP3    H132677   2.106   1.529   0.920  2.3253 -0.8086  0.5383
 3706TIP3    H232678   2.137   1.464   1.053 -0.2899 -0.6777  1.2481
 3707TIP3   OH232679   5.321   4.259   0.507  0.1825  0.1923  0.2779
 3707TIP3    H132680   5.278   4.292   0.587  1.3052 -1.8840  1.8313
 3707TIP3    H232681   5.390   4.322   0.490 -0.2482  0.8206  0.7660
 3708TIP3   OH232682   1.992   2.539   0.231 -0.1811  0.2349  0.2728
 3708TIP3    H132683   2.067   2.501   0.277  1.3676  0.2091 -2.1068
 3708TIP3    H232684   1.922   2.476   0.243  0.9077 -0.9676  0.5221
 3709TIP3   OH232685   3.229   5.339   8.507 -0.4438 -0.1612 -0.0991
 3709TIP3    H132686   3.172   5.323   8.582  0.5333 -2.1298  0.3027
 3709TIP3    H232687   3.300   5.392   8.541 -0.5782 -0.0978  0.0834
 3710TIP3   OH232688   5.076   0.027   8.085 -0.9930 -0.0834 -0.3662
 3710TIP3    H132689   5.094  -0.052   8.136  1.3424  0.5108 -0.1447
 3710TIP3    H232690   4.985   0.049   8.105 -1.6020 -2.5248 -0.2143
 3711TIP3   OH232691   2.883   3.836   7.518  0.1317 -0.9821  0.1135
 3711TIP3    H132692   2.830   3.916   7.514 -1.0978 -1.7646  0.3393
 3711TIP3    H232693   2.972   3.867   7.534 -0.4465  0.3085  0.9928
 3712TIP3   OH232694   6.600   1.755   2.201  0.0621 -0.1995 -0.1085
 3712TIP3    H132695   6.676   1.801   2.237 -0.7884  1.4653 -0.3500
 3712TIP3    H232696   6.590   1.792   2.113  0.2312 -1.9505 -0.9001
 3713TIP3   OH232697   0.030   3.120   1.810 -0.0266  0.3589  0.2701
 3713TIP3    H132698  -0.002   3.070   1.885 -0.9669  0.3225 -0.1296
 3713TIP3    H232699   0.077   3.055   1.757  0.2948  0.2970  0.6330
 3714TIP3   OH232700   6.741   1.257   2.240  0.9663  0.1496  1.3200
 3714TIP3    H132701   6.721   1.346   2.269 -0.1400 -0.4397  2.4906
 3714TIP3    H232702   6.682   1.242   2.167  2.4636  0.9951 -0.1214
 3715TIP3   OH232703   2.545   2.618   1.966  0.4410  0.1603 -0.1504
 3715TIP3    H132704   2.583   2.547   1.914 -0.7884 -0.4745 -0.2071
 3715TIP3    H232705   2.607   2.690   1.955  1.0006 -0.4477 -1.2376
 3716TIP3   OH232706   0.094   3.379   0.676 -0.1494 -0.0852 -0.3748
 3716TIP3    H132707   0.109   3.466   0.711 -0.4277 -0.2142  0.0787
 3716TIP3    H232708   0.111   3.387   0.582  0.8253  0.2150 -0.1785
 3717TIP3   OH232709   4.061   6.652   1.446  0.1483  0.2062  0.8251
 3717TIP3    H132710   4.004   6.595   1.396  1.5033 -1.2411  0.8438
 3717TIP3    H232711   4.067   6.610   1.533  2.1873 -0.4206  0.4404
 3718TIP3   OH232712   0.771   0.944   0.463  0.2498 -0.0845 -0.6578
 3718TIP3    H132713   0.793   0.883   0.533 -2.1647 -0.7770 -0.4202
 3718TIP3    H232714   0.758   1.028   0.507 -0.1505 -0.2577 -0.4480
 3719TIP3   OH232715   4.799   5.689   1.592 -0.4236  0.6066 -0.2935
 3719TIP3    H132716   4.893   5.709   1.594  0.0742 -1.5441 -0.1143
 3719TIP3    H232717   4.794   5.594   1.599 -2.6937  0.7542  1.2933
 3720TIP3   OH232718   1.743   5.346   0.598 -0.1681  0.4451  0.1241
 3720TIP3    H132719   1.676   5.340   0.666 -1.5085  0.1896 -1.1829
 3720TIP3    H232720   1.819   5.300   0.635 -1.3738 -1.0304  0.8493
 3721TIP3   OH232721   5.203   6.537   7.047 -0.8148 -0.1378 -0.4317
 3721TIP3    H132722   5.245   6.509   6.966  0.2905  0.3784 -0.0606
 3721TIP3    H232723   5.153   6.615   7.021  0.0330  0.3932 -0.5098
 3722TIP3   OH232724   5.810   2.025   0.295 -0.0789  0.0295 -0.1382
 3722TIP3    H132725   5.749   2.089   0.257  0.7632  0.4890 -0.7434
 3722TIP3    H232726   5.879   2.016   0.229  0.3154 -0.7804  0.3725
 3723TIP3   OH232727   1.355   0.743   1.590 -0.2922  0.2713  0.4492
 3723TIP3    H132728   1.398   0.784   1.515  0.1877  1.6984  1.4658
 3723TIP3    H232729   1.376   0.800   1.664  0.0108 -1.5736  1.8584
 3724TIP3   OH232730   4.783   5.635   8.794  0.5964 -0.1408  0.4611
 3724TIP3    H132731   4.878   5.637   8.790  0.8241  1.9732  3.4444
 3724TIP3    H232732   4.755   5.689   8.720  1.7935  0.3004  0.3114
 3725TIP3   OH232733   3.101   2.911   7.973  0.3384 -0.2893  0.5505
 3725TIP3    H132734   3.053   2.859   7.908  1.0141 -0.6656  0.3400
 3725TIP3    H232735   3.087   3.001   7.947 -0.6178 -0.3612  0.7521
 3726TIP3   OH232736   3.473   1.210   0.498 -0.4059  0.1874  0.2639
 3726TIP3    H132737   3.498   1.150   0.428 -2.8749  1.3945 -1.8076
 3726TIP3    H232738   3.555   1.232   0.541  1.4207  0.0854 -2.8696
 3727TIP3   OH232739   1.719   3.168   1.806 -0.2230 -0.9411  0.0098
 3727TIP3    H132740   1.758   3.102   1.749 -0.2531 -0.6010 -0.4058
 3727TIP3    H232741   1.718   3.248   1.754 -3.0756 -1.3037 -0.6986
 3728TIP3   OH232742   4.792   5.182   0.282 -0.4592 -0.3441  0.5587
 3728TIP3    H132743   4.850   5.258   0.294 -1.3848  0.2986  1.1237
 3728TIP3    H232744   4.851   5.109   0.264  0.4854  0.4110  0.5072
 3729TIP3   OH232745   6.674   5.259   0.562 -0.4025 -0.4580 -0.2779
 3729TIP3    H132746   6.763   5.290   0.545  0.0825  0.3832  3.0282
 3729TIP3    H232747   6.617   5.326   0.523  0.5653  1.3608  1.2299
 3730TIP3   OH232748   4.057   5.868   8.588 -0.4827 -0.2770 -0.1116
 3730TIP3    H132749   4.124   5.890   8.523 -1.5472 -0.7464 -1.4159
 3730TIP3    H232750   4.102   5.873   8.672  0.6918  1.3581 -0.7930
 3731TIP3   OH232751   6.727   4.084   1.313 -0.0972 -0.3094 -0.1946
 3731TIP3    H132752   6.723   4.038   1.397  0.3339 -0.3303 -0.1825
 3731TIP3    H232753   6.817   4.117   1.308 -0.4084  0.5563 -0.1920
 3732TIP3   OH232754   0.191   2.410   1.555 -0.0879 -0.0745 -0.0107
 3732TIP3    H132755   0.142   2.329   1.569  1.7910 -1.5390 -1.2976
 3732TIP3    H232756   0.261   2.407   1.621 -0.0575  0.5526 -0.0086
 3733TIP3   OH232757   1.116   0.890   1.541 -0.3734 -0.3579  0.3040
 3733TIP3    H132758   1.168   0.969   1.527  0.2182 -0.2151  2.8508
 3733TIP3    H232759   1.180   0.819   1.542 -0.6373 -0.6004  0.1473
 3734TIP3   OH232760   0.298   3.125   2.089  0.6883  0.1320  0.5094
 3734TIP3    H132761   0.254   3.049   2.127 -0.0821  0.2608 -0.1143
 3734TIP3    H232762   0.385   3.124   2.129  0.6599 -1.0223  0.5874
 3735TIP3   OH232763   5.899   3.458   2.781  0.5263  0.1060  0.6473
 3735TIP3    H132764   5.871   3.370   2.753  0.9012 -0.2627  1.3997
 3735TIP3    H232765   5.846   3.518   2.728 -0.3483 -0.5728  0.7297
 3736TIP3   OH232766   4.740   4.087   0.995 -0.2941  0.3120  0.0847
 3736TIP3    H132767   4.835   4.080   1.009 -0.3938 -1.8405 -0.0169
 3736TIP3    H232768   4.728   4.172   0.952  1.8987 -0.4701 -2.2948
 3737TIP3   OH232769   4.246   1.657   7.815  0.2120  0.5144 -0.4930
 3737TIP3    H132770   4.304   1.714   7.763  0.0380 -0.4788 -1.8230
 3737TIP3    H232771   4.292   1.573   7.818 -0.2832  0.2590  0.0825
 3738TIP3   OH232772   3.372   5.963   8.550 -0.2733 -0.3547  0.2589
 3738TIP3    H132773   3.322   5.906   8.609 -0.5907  1.6094  1.9993
 3738TIP3    H232774   3.416   6.025   8.608 -0.5033  1.6194 -1.5748
 3739TIP3   OH232775   0.845   4.210   8.736 -0.1847  0.1276  0.4445
 3739TIP3    H132776   0.932   4.177   8.756 -0.0130 -1.9459 -2.9936
 3739TIP3    H232777   0.857   4.268   8.661 -1.4399  2.6896  2.0492
 3740TIP3   OH232778   0.162   6.423   2.110  0.2220 -0.0554  0.0712
 3740TIP3    H132779   0.222   6.419   2.185 -0.5362  2.4096  0.9072
 3740TIP3    H232780   0.192   6.499   2.059 -1.0843  0.1256 -0.4609
 3741TIP3   OH232781   1.737   0.036   2.670  0.2442  0.5617  0.0133
 3741TIP3    H132782   1.756  -0.054   2.694 -0.8617  0.6954  1.5521
 3741TIP3    H232783   1.689   0.071   2.745 -1.5242  1.6892 -1.5514
 3742TIP3   OH232784   0.383   1.886   3.003 -0.1381  0.2154  0.4061
 3742TIP3    H132785   0.361   1.978   3.020 -0.0373  0.8182 -2.2517
 3742TIP3    H232786   0.470   1.888   2.964 -0.8171 -0.7851 -1.2883
 3743TIP3   OH232787   4.185   0.306   2.091  0.3507  0.0312  0.1055
 3743TIP3    H132788   4.250   0.252   2.137  0.4302 -1.0056 -1.1664
 3743TIP3    H232789   4.151   0.365   2.159  1.2688 -0.6681  1.2247
 3744TIP3   OH232790   4.189   6.764   8.135 -0.3121  0.0362 -0.4866
 3744TIP3    H132791   4.168   6.752   8.043 -2.0460 -0.1048 -0.1038
 3744TIP3    H232792   4.271   6.814   8.135 -0.6100  0.5682 -2.0968
 3745TIP3   OH232793   3.640   0.826   2.202  0.2370 -1.0329 -0.6069
 3745TIP3    H132794   3.629   0.919   2.185 -0.6908 -0.8595  0.7145
 3745TIP3    H232795   3.733   0.815   2.219  0.2387 -0.1735  0.0249
 3746TIP3   OH232796   4.596   4.094   0.721  0.2771  0.9983 -0.4051
 3746TIP3    H132797   4.641   4.170   0.758  2.4760 -0.5569  0.3466
 3746TIP3    H232798   4.517   4.084   0.775  0.6905  1.9002  0.3927
 3747TIP3   OH232799   0.254   0.068   7.729 -0.1431  0.7484  0.1690
 3747TIP3    H132800   0.180   0.028   7.776 -0.5463  1.2161 -0.0644
 3747TIP3    H232801   0.271   0.007   7.656 -0.2426  0.5963  0.2720
 3748TIP3   OH232802   6.319   1.743   2.242 -0.0377  0.5579 -0.2976
 3748TIP3    H132803   6.316   1.693   2.323 -1.2652  1.5533  0.3066
 3748TIP3    H232804   6.412   1.750   2.221  0.3567  0.9231  1.4364
 3749TIP3   OH232805   5.833   3.888   0.871  0.2543  0.1729 -0.4878
 3749TIP3    H132806   5.924   3.878   0.841  0.1453 -0.4897 -0.6086
 3749TIP3    H232807   5.797   3.799   0.867 -0.2192  0.3330  0.1337
 3750TIP3   OH232808   4.449   5.004   8.140 -0.0494  0.3091  0.6207
 3750TIP3    H132809   4.393   4.991   8.217 -1.0743  1.4787  0.1071
 3750TIP3    H232810   4.388   5.022   8.069  0.9093 -0.2960 -0.3866
 3751TIP3   OH232811   1.220   5.693   0.187 -0.1960 -0.4752  0.1340
 3751TIP3    H132812   1.180   5.608   0.171  1.0356 -0.8936 -0.8348
 3751TIP3    H232813   1.311   5.683   0.158 -0.6862  1.9541 -2.6895
 3752TIP3   OH232814   1.320   4.943   2.778  0.5619  0.2526 -0.2951
 3752TIP3    H132815   1.293   4.898   2.859  0.0266  0.5950 -0.2728
 3752TIP3    H232816   1.276   5.029   2.783 -0.5286 -0.1926 -1.5411
 3753TIP3   OH232817   5.529   5.043   1.965  0.0478  0.9331  0.3957
 3753TIP3    H132818   5.563   5.028   1.877 -0.2855  1.0303  0.2493
 3753TIP3    H232819   5.437   5.018   1.960 -0.5767  3.1423  0.1149
 3754TIP3   OH232820   0.036   3.970   2.495  0.0937 -0.1940  0.4068
 3754TIP3    H132821  -0.016   3.902   2.538  1.1173 -1.4367 -0.2574
 3754TIP3    H232822   0.118   3.973   2.545  0.6271 -0.4949 -0.4177
 3755TIP3   OH232823   2.819   1.169   1.961 -0.7053 -0.5047  0.0052
 3755TIP3    H132824   2.769   1.089   1.945  0.9891 -1.5638 -0.2350
 3755TIP3    H232825   2.877   1.176   1.885 -0.7127  0.8785  0.1051
 3756TIP3   OH232826   5.060   2.266   8.361 -0.0875 -0.6945  0.2697
 3756TIP3    H132827   5.064   2.200   8.292 -2.5424  0.0948 -0.7004
 3756TIP3    H232828   5.015   2.222   8.433  0.2423 -0.7383  0.4526
 3757TIP3   OH232829   2.017   3.054   0.357 -0.2502  0.0707 -0.0830
 3757TIP3    H132830   2.102   3.042   0.315  0.7754  1.2560  1.5525
 3757TIP3    H232831   1.998   2.971   0.399  0.7181  0.1723  0.5801
 3758TIP3   OH232832   3.130   1.446   7.090 -0.3151 -0.1029  0.2801
 3758TIP3    H132833   3.091   1.359   7.106 -1.3038  0.5802  1.8989
 3758TIP3    H232834   3.224   1.431   7.091 -0.4695 -1.3100 -0.5360
 3759TIP3   OH232835   5.082   4.327   1.891 -0.2009  0.3828  0.1869
 3759TIP3    H132836   5.051   4.280   1.968 -0.3956 -0.0111 -0.1293
 3759TIP3    H232837   5.096   4.417   1.922 -0.2296  0.2169  0.6895
 3760TIP3   OH232838   2.107   3.738   7.975  0.1815 -0.0992 -0.4515
 3760TIP3    H132839   2.051   3.735   8.053  0.0726  0.6844 -0.4980
 3760TIP3    H232840   2.181   3.680   7.997 -1.1954 -2.1170 -0.8529
 3761TIP3   OH232841   3.968   1.331   0.744 -1.0681 -0.6601  0.9757
 3761TIP3    H132842   3.949   1.333   0.650 -0.4240 -0.3050  0.8519
 3761TIP3    H232843   3.920   1.405   0.780 -1.8794 -1.1966  1.0464
 3762TIP3   OH232844   5.460   5.220   0.282  0.8438  0.2349 -0.2304
 3762TIP3    H132845   5.406   5.143   0.261  1.4874 -0.2502 -0.1280
 3762TIP3    H232846   5.423   5.290   0.228 -0.3557  0.0953  0.3803
 3763TIP3   OH232847   1.849   4.241   7.307  0.0972 -0.4032 -0.4281
 3763TIP3    H132848   1.770   4.205   7.346 -1.0664 -1.0185 -3.1595
 3763TIP3    H232849   1.919   4.183   7.336 -0.2726  0.3970  2.3735
 3764TIP3   OH232850   3.308   1.160   8.222 -0.2625  0.0278 -0.6893
 3764TIP3    H132851   3.221   1.159   8.183 -0.5234 -1.4003 -0.1385
 3764TIP3    H232852   3.362   1.109   8.162 -0.3206 -0.8999  0.0189
 3765TIP3   OH232853   4.746   1.022   1.111  0.1377  0.3287  0.4084
 3765TIP3    H132854   4.757   0.962   1.185  0.9529 -0.9037 -0.6670
 3765TIP3    H232855   4.734   1.108   1.151  0.3762 -0.3350  1.9683
 3766TIP3   OH232856   4.693   4.371   1.566  0.5914  0.5636 -0.0598
 3766TIP3    H132857   4.674   4.277   1.569  0.5587  0.4428 -2.2208
 3766TIP3    H232858   4.617   4.412   1.607  0.3732 -0.3214  0.4577
 3767TIP3   OH232859   6.690   6.686   1.570 -0.6760  0.0911 -0.3261
 3767TIP3    H132860   6.669   6.779   1.570  1.4966  0.6423  0.7449
 3767TIP3    H232861   6.649   6.652   1.649 -0.8934  0.2812 -0.3559
 3768TIP3   OH232862   1.729   3.890   6.799  0.3509 -0.2071 -0.6988
 3768TIP3    H132863   1.760   3.937   6.876 -1.5788  2.8630 -1.6373
 3768TIP3    H232864   1.676   3.818   6.834  0.2586  0.5764  0.8321
 3769TIP3   OH232865   3.393   0.037   2.369  0.2791  0.1216 -0.1986
 3769TIP3    H132866   3.352   0.117   2.338 -0.0611 -1.1502 -3.3865
 3769TIP3    H232867   3.338   0.008   2.442 -0.0508  2.2875  0.4848
 3770TIP3   OH232868   1.687   6.763   7.501 -0.0539  0.2912 -0.5095
 3770TIP3    H132869   1.712   6.726   7.585 -0.6169  0.1983 -0.3801
 3770TIP3    H232870   1.759   6.821   7.477 -0.2577  0.9366  0.4104
 3771TIP3   OH232871   3.376   2.210   3.135 -0.3550 -0.2795  0.1201
 3771TIP3    H132872   3.393   2.116   3.135 -2.8006 -0.7881 -0.5856
 3771TIP3    H232873   3.377   2.235   3.228  3.2098 -0.3161  0.2180
 3772TIP3   OH232874   5.862   2.778   8.659 -0.0781 -0.2801  0.0914
 3772TIP3    H132875   5.770   2.802   8.643  0.3070  0.4939 -1.0512
 3772TIP3    H232876   5.896   2.849   8.713  0.8550  1.5210 -2.6671
 3773TIP3   OH232877   2.066   4.662   0.987 -0.2172  0.3811 -1.3947
 3773TIP3    H132878   2.089   4.681   0.896  1.6668 -1.6683 -1.4338
 3773TIP3    H232879   2.025   4.575   0.984 -0.0709  0.2548 -0.3046
 3774TIP3   OH232880   6.202   1.604   1.318  0.2291  0.4093 -1.0254
 3774TIP3    H132881   6.202   1.509   1.324 -1.3313  0.4682  0.6899
 3774TIP3    H232882   6.152   1.634   1.394  2.9830  2.7396  0.0821
 3775TIP3   OH232883   3.326   6.180   0.835  0.4993 -0.0013 -0.2860
 3775TIP3    H132884   3.278   6.263   0.828  1.9287  0.8407 -0.4880
 3775TIP3    H232885   3.301   6.146   0.920  0.7666  1.2110  0.2995
 3776TIP3   OH232886   2.528   0.970   8.233  0.3096  0.0113  0.1837
 3776TIP3    H132887   2.537   0.881   8.198 -0.7191 -0.1763  0.3521
 3776TIP3    H232888   2.473   1.015   8.169 -1.7949 -0.4073  1.5982
 3777TIP3   OH232889   4.862   2.934   7.569  0.5017 -0.2780  0.1306
 3777TIP3    H132890   4.819   2.860   7.526 -0.4894 -0.0244  0.6396
 3777TIP3    H232891   4.850   3.007   7.508  0.0412 -0.1685  0.3454
 3778TIP3   OH232892   5.166   3.726   8.446  0.1170  0.6355 -0.0759
 3778TIP3    H132893   5.128   3.808   8.413 -0.5503 -0.9591 -3.8626
 3778TIP3    H232894   5.178   3.673   8.367  2.3941 -2.1869  1.9786
 3779TIP3   OH232895   5.730   1.655   0.488  0.2447 -0.5908  0.6672
 3779TIP3    H132896   5.645   1.631   0.524  0.0354 -1.1533 -0.1807
 3779TIP3    H232897   5.734   1.611   0.403  0.6009  0.9484 -0.1513
 3780TIP3   OH232898   0.233   0.230   2.344 -0.0580 -0.7069  0.3434
 3780TIP3    H132899   0.169   0.189   2.286  2.6917 -4.1164 -0.6282
 3780TIP3    H232900   0.231   0.176   2.423  0.6768 -0.0213  0.8397
 3781TIP3   OH232901   0.998   1.069   2.565 -0.7136  0.5671  0.8045
 3781TIP3    H132902   1.050   1.121   2.504 -2.1325  0.2404 -0.7769
 3781TIP3    H232903   0.982   1.126   2.639  0.2947  1.3111  0.4645
 3782TIP3   OH232904   2.404   6.508   0.125 -0.3945 -0.4271 -0.0521
 3782TIP3    H132905   2.458   6.482   0.200 -0.3227 -1.0101 -0.3003
 3782TIP3    H232906   2.318   6.526   0.163 -0.1398  0.0941  0.2868
 3783TIP3   OH232907   4.269   1.430   2.281 -0.7918  0.0383 -0.3146
 3783TIP3    H132908   4.234   1.490   2.346  1.2763 -0.1031  1.0066
 3783TIP3    H232909   4.241   1.343   2.310  0.2013 -0.0329  0.4933
 3784TIP3   OH232910   3.193   0.946   0.388  0.0482 -0.2586  0.0429
 3784TIP3    H132911   3.213   0.981   0.475 -0.0155 -1.2437  0.4592
 3784TIP3    H232912   3.173   0.854   0.402 -1.1333 -0.1700 -0.8554
 3785TIP3   OH232913   1.055   1.314   0.483 -1.0573  0.0580  0.2605
 3785TIP3    H132914   0.975   1.265   0.499 -0.4965 -0.5907  1.2001
 3785TIP3    H232915   1.037   1.402   0.516 -1.3125 -0.1490  0.6790
 3786TIP3   OH232916   2.417   2.226   7.811 -0.0557  0.2205  0.1819
 3786TIP3    H132917   2.356   2.291   7.775 -0.2447  0.8481  1.5480
 3786TIP3    H232918   2.364   2.147   7.822  0.1272 -0.1366 -1.3176
 3787TIP3   OH232919   3.154   5.926   1.999  0.1202  0.3532 -0.0967
 3787TIP3    H132920   3.071   5.896   1.964 -0.4854  0.2525  1.3538
 3787TIP3    H232921   3.196   5.846   2.034 -0.1262  0.6897  1.0224
 3788TIP3   OH232922   2.179   6.092   1.198  0.3893  0.3375  0.0273
 3788TIP3    H132923   2.193   6.169   1.142  0.6324 -0.5086 -1.1062
 3788TIP3    H232924   2.264   6.074   1.236  0.0460  1.4185  1.3721
 3789TIP3   OH232925   2.121   3.273   0.607  0.2294  0.2599  0.5036
 3789TIP3    H132926   2.027   3.292   0.603  0.0943 -0.3488  0.7251
 3789TIP3    H232927   2.137   3.211   0.536  0.3285 -0.1817  0.9070
 3790TIP3   OH232928   2.654   3.125   7.431  0.5026  0.8619 -0.0339
 3790TIP3    H132929   2.638   3.080   7.348  0.4953  0.9054 -0.0567
 3790TIP3    H232930   2.617   3.213   7.417 -1.4571  0.2071  0.7472
 3791TIP3   OH232931   4.420   2.592   8.415  0.1213  0.2486 -0.0642
 3791TIP3    H132932   4.492   2.584   8.477 -0.0704  2.5495  0.5505
 3791TIP3    H232933   4.463   2.592   8.329  1.1207  3.0451  0.3319
 3792TIP3   OH232934   5.905   2.437   0.829 -0.4749  0.2880 -0.5624
 3792TIP3    H132935   5.984   2.458   0.779 -1.0401  1.3953 -1.0169
 3792TIP3    H232936   5.854   2.379   0.772  0.1497 -0.7440 -0.1177
 3793TIP3   OH232937   5.009   0.461   1.353  0.4351  0.1460  0.3888
 3793TIP3    H132938   5.100   0.462   1.325  0.2457 -0.5248 -0.3040
 3793TIP3    H232939   5.012   0.479   1.447  1.2839  0.0151  0.3925
 3794TIP3   OH232940   4.250   2.966   0.205  0.1806  0.0561  0.0488
 3794TIP3    H132941   4.199   2.979   0.126 -0.1561  0.0734  0.2681
 3794TIP3    H232942   4.201   2.901   0.255  0.0047  0.5843  0.5767
 3795TIP3   OH232943   3.969   5.806   2.118 -0.0895  0.0930 -0.2366
 3795TIP3    H132944   3.985   5.738   2.184  0.8930  2.1212  1.7485
 3795TIP3    H232945   3.877   5.829   2.130 -0.0254  0.1628  0.1391
 3796TIP3   OH232946   6.141   0.416   8.519 -0.0133 -0.6734 -0.1603
 3796TIP3    H132947   6.219   0.367   8.492  0.5728 -0.0499  0.3787
 3796TIP3    H232948   6.115   0.465   8.441 -1.5177 -2.9296 -1.2132
 3797TIP3   OH232949   1.947   4.906   1.691  0.1040 -0.0034  0.6098
 3797TIP3    H132950   2.036   4.886   1.664  0.3665 -0.2140  1.6024
 3797TIP3    H232951   1.893   4.840   1.647  0.3399  0.5471 -0.5490
 3798TIP3   OH232952   6.182   3.972   8.084 -0.3918 -0.2374  0.0590
 3798TIP3    H132953   6.131   3.958   8.163  0.2168  1.5577  0.8197
 3798TIP3    H232954   6.116   3.988   8.016 -0.9109 -1.6048  0.2057
 3799TIP3   OH232955   4.049   3.569   1.681 -0.8298  0.8848  0.1490
 3799TIP3    H132956   4.108   3.571   1.757 -1.1533  0.0889  0.4344
 3799TIP3    H232957   3.962   3.574   1.719 -0.9695  1.2126 -0.2173
 3800TIP3   OH232958   6.025   6.390   8.611 -0.3201  0.5758 -0.0580
 3800TIP3    H132959   5.947   6.335   8.616 -0.0734  0.2324 -0.0070
 3800TIP3    H232960   5.993   6.478   8.632 -0.4785  0.2508  1.1504
 3801TIP3   OH232961   5.793   3.114   8.794  0.7177  0.3543  0.2772
 3801TIP3    H132962   5.716   3.062   8.771  1.3607 -0.9368  0.8993
 3801TIP3    H232963   5.812   3.165   8.716  0.8473 -1.3632 -0.8688
 3802TIP3   OH232964   2.153   5.639   7.841 -0.0999 -0.1206 -0.1381
 3802TIP3    H132965   2.150   5.554   7.884  4.0161 -1.2743 -1.7111
 3802TIP3    H232966   2.217   5.690   7.891  0.7798  0.4113 -1.7283
 3803TIP3   OH232967   4.855   3.694   8.195 -0.1324  0.2402  0.0885
 3803TIP3    H132968   4.861   3.719   8.102 -0.3141 -0.3728 -0.0930
 3803TIP3    H232969   4.913   3.755   8.240  1.4208 -0.6002 -0.6688
 3804TIP3   OH232970   1.601   2.366   1.329  0.3331 -0.2450 -0.0510
 3804TIP3    H132971   1.506   2.373   1.338  0.2472 -0.5702 -0.6745
 3804TIP3    H232972   1.634   2.375   1.419 -0.2588  0.2117  0.1280
 3805TIP3   OH232973   2.267   2.971   2.571  0.1284 -0.7233  0.4712
 3805TIP3    H132974   2.346   2.988   2.622 -0.6365 -0.6197  1.6379
 3805TIP3    H232975   2.227   2.894   2.612 -1.3974  0.3819  1.1267
 3806TIP3   OH232976   2.859   6.184   0.071 -0.0510  0.4738  0.4529
 3806TIP3    H132977   2.840   6.204   0.163  2.0765 -1.5931  1.4342
 3806TIP3    H232978   2.784   6.132   0.042  0.7500 -1.7350  2.1090
 3807TIP3   OH232979   2.590   2.454   0.962 -0.3749  0.0629 -0.3834
 3807TIP3    H132980   2.633   2.539   0.972 -0.5107  0.0540  0.3762
 3807TIP3    H232981   2.662   2.391   0.954 -0.2501  0.1430  0.0546
 3808TIP3   OH232982   1.768   1.650   1.984 -0.8111  0.1616 -0.4040
 3808TIP3    H132983   1.817   1.629   2.063 -1.2021  1.2932  0.1655
 3808TIP3    H232984   1.749   1.744   1.992 -0.3491  0.4338 -2.1265
 3809TIP3   OH232985   6.280   1.235   1.622 -0.0529  0.5440 -0.1805
 3809TIP3    H132986   6.312   1.318   1.586  0.5861  0.4448  0.1472
 3809TIP3    H232987   6.354   1.176   1.616 -0.6535 -0.1540 -0.8576
 3810TIP3   OH232988   5.955   3.513   7.069 -0.8884 -0.0876 -0.4924
 3810TIP3    H132989   5.913   3.572   7.133  0.7237  0.3417  0.2181
 3810TIP3    H232990   5.884   3.489   7.009 -2.1949  0.4258  0.7742
 3811TIP3   OH232991   4.555   1.862   0.441 -0.4357  0.1919 -0.3373
 3811TIP3    H132992   4.532   1.906   0.359 -2.1925 -1.8763 -1.0299
 3811TIP3    H232993   4.472   1.828   0.474  0.7377 -2.1072  0.4308
 3812TIP3   OH232994   4.388   6.195   0.398  0.2155  0.8026 -0.1037
 3812TIP3    H132995   4.330   6.189   0.322 -1.2098 -0.2770  1.0119
 3812TIP3    H232996   4.426   6.107   0.407 -0.7624  0.4823  1.2547
 3813TIP3   OH232997   1.872   0.151   0.261 -0.4837 -0.0706  0.3772
 3813TIP3    H132998   1.806   0.128   0.325 -0.9886 -0.0802 -0.1417
 3813TIP3    H232999   1.834   0.223   0.211 -0.2555 -0.3224 -0.1643
 3814TIP3   OH233000   4.184   0.139   0.011  0.2046 -0.4280  0.5049
 3814TIP3    H133001   4.246   0.129  -0.061 -0.3177 -1.6100  0.2051
 3814TIP3    H233002   4.103   0.098  -0.021 -0.5408  0.4975  1.1382
 3815TIP3   OH233003   1.122   3.066   1.037  0.0929  0.6137 -0.3021
 3815TIP3    H133004   1.124   3.035   0.946  1.0683  0.1420 -0.1422
 3815TIP3    H233005   1.053   3.014   1.078  1.1370 -0.8114 -0.2516
 3816TIP3   OH233006   4.179   1.027   0.189  0.0697 -0.2682  0.1222
 3816TIP3    H133007   4.198   1.028   0.095 -2.5748 -0.2760 -0.4945
 3816TIP3    H233008   4.262   1.048   0.230  1.5768 -1.3042 -2.1603
 3817TIP3   OH233009   0.263   4.848   2.143 -0.6321  0.6864 -0.1214
 3817TIP3    H133010   0.305   4.871   2.226 -2.5510  2.6681  0.3906
 3817TIP3    H233011   0.298   4.762   2.121  0.8273  0.6430  2.1211
 3818TIP3   OH233012   1.596   3.853   1.034  0.4168  0.3421 -0.0658
 3818TIP3    H133013   1.590   3.901   1.116  2.3585  1.5049 -0.5366
 3818TIP3    H233014   1.524   3.888   0.980  0.5651  1.2641  0.3209
 3819TIP3   OH233015   5.317   2.612   1.134  0.2176  0.4487 -0.0210
 3819TIP3    H133016   5.285   2.667   1.206 -0.2457  0.8606 -0.5289
 3819TIP3    H233017   5.258   2.632   1.062  0.5742 -0.0934 -0.4629
 3820TIP3   OH233018   0.839   3.967   7.724 -0.4699  0.0672  0.0961
 3820TIP3    H133019   0.881   3.969   7.638  0.0390  0.8586  0.3547
 3820TIP3    H233020   0.870   4.045   7.769 -0.0882 -0.7445  1.3097
 3821TIP3   OH233021   4.959   1.305   0.284  0.0777  0.1404  0.0216
 3821TIP3    H133022   5.005   1.388   0.294 -0.1283  0.2794 -0.1686
 3821TIP3    H233023   4.936   1.301   0.191 -1.7363  0.8640  0.3753
 3822TIP3   OH233024   6.491   2.979   8.289 -0.0753  0.1105  0.8310
 3822TIP3    H133025   6.551   3.054   8.296 -0.0584  0.1858  0.0334
 3822TIP3    H233026   6.450   2.973   8.375 -3.3359  3.7532 -0.1771
 3823TIP3   OH233027   5.972   1.088   7.813 -0.4342 -0.0318  0.1526
 3823TIP3    H133028   5.966   1.180   7.838 -0.5100  0.0037  0.0058
 3823TIP3    H233029   5.899   1.075   7.753  0.1698  0.0651 -0.6099
 3824TIP3   OH233030   5.569   5.843   7.861 -0.0756 -0.0411 -1.0020
 3824TIP3    H133031   5.516   5.823   7.938 -1.6725 -0.7323 -2.2223
 3824TIP3    H233032   5.565   5.939   7.854 -0.3106 -0.0118 -0.5064
 3825TIP3   OH233033   5.620   2.514   8.426 -0.0480 -0.1601 -0.6212
 3825TIP3    H133034   5.684   2.497   8.495 -0.5020  0.0271 -0.1492
 3825TIP3    H233035   5.673   2.534   8.348  0.4665  0.4530 -0.1204
 3826TIP3   OH233036   6.212   2.123   2.480 -0.4467 -0.5877  0.3147
 3826TIP3    H133037   6.121   2.105   2.503 -1.3275  0.7226 -1.7899
 3826TIP3    H233038   6.234   2.202   2.529 -0.6816 -0.5419  0.3493
 3827TIP3   OH233039   0.448   4.605   0.616  0.1001 -0.2209 -0.1085
 3827TIP3    H133040   0.362   4.638   0.643 -0.0486  1.0473 -1.9626
 3827TIP3    H233041   0.432   4.557   0.535  0.8284 -2.1569  0.8222
 3828TIP3   OH233042   3.566   3.803   8.315  0.1815  0.1636 -0.0409
 3828TIP3    H133043   3.601   3.889   8.293 -2.2105  1.0025 -0.9189
 3828TIP3    H233044   3.473   3.818   8.333 -0.0529 -2.0608  0.9995
 3829TIP3   OH233045   2.955   2.413   1.372  0.4976  0.5585  0.1610
 3829TIP3    H133046   3.011   2.342   1.405 -2.7970 -2.0332  0.6865
 3829TIP3    H233047   2.921   2.379   1.289  0.8875  2.7663 -0.9825
 3830TIP3   OH233048   3.688   0.965   2.453 -0.0060 -0.2661  0.3025
 3830TIP3    H133049   3.676   0.877   2.487  0.1361 -0.8729 -1.1710
 3830TIP3    H233050   3.767   0.997   2.497 -0.4656 -0.5729  1.3882
 3831TIP3   OH233051   5.508   5.967   0.712 -0.0036 -0.5059 -0.0568
 3831TIP3    H133052   5.551   5.882   0.713  3.4979  0.9900 -2.3988
 3831TIP3    H233053   5.484   5.981   0.620  1.1155  1.6842 -0.0770
 3832TIP3   OH233054   0.812   4.118   8.090  0.2015 -0.1710  0.7712
 3832TIP3    H133055   0.812   4.203   8.046 -0.5139  0.6294  2.2515
 3832TIP3    H233056   0.869   4.063   8.036  0.1483  1.0391 -0.5858
 3833TIP3   OH233057   4.204   0.467   8.560  0.6670 -0.5381 -0.2500
 3833TIP3    H133058   4.231   0.421   8.640 -1.3160 -0.7508  0.3416
 3833TIP3    H233059   4.194   0.558   8.588 -0.6028 -0.7161 -0.0905
 3834TIP3   OH233060   2.460   4.014   7.312  0.3261 -0.0737  0.2760
 3834TIP3    H133061   2.483   4.081   7.247 -2.7492  0.9355  0.0605
 3834TIP3    H233062   2.493   3.932   7.276  1.3502  0.8910 -1.0547
 3835TIP3   OH233063   4.389   1.814   7.633 -0.1770  0.0262  0.1571
 3835TIP3    H133064   4.459   1.753   7.609  1.4848  1.2886  1.5015
 3835TIP3    H233065   4.342   1.829   7.551  0.1429 -2.0410 -0.4668
 3836TIP3   OH233066   3.980   0.889   7.672  0.0176  0.2512  0.1392
 3836TIP3    H133067   3.934   0.945   7.609 -0.7433 -0.1891  0.2784
 3836TIP3    H233068   3.963   0.930   7.757 -1.1765 -0.5518  0.3295
 3837TIP3   OH233069   3.881   4.747   0.165  0.2827  0.1472 -0.3283
 3837TIP3    H133070   3.900   4.840   0.174 -1.1202  0.3836  0.4001
 3837TIP3    H233071   3.810   4.744   0.100  0.8656 -0.4950 -0.9588
 3838TIP3   OH233072   3.922   2.967   0.329  0.0771  0.4914  0.0391
 3838TIP3    H133073   3.942   3.053   0.368  0.2772  0.6909 -0.4929
 3838TIP3    H233074   3.952   2.974   0.239  0.9127 -0.4544  0.2338
 3839TIP3   OH233075   4.338   0.463   0.672  0.0542 -0.3165 -0.0262
 3839TIP3    H133076   4.375   0.551   0.666 -0.8278  0.1632  1.1637
 3839TIP3    H233077   4.413   0.404   0.663  1.0427  0.5992  1.7759
 3840TIP3   OH233078   3.325   1.272   2.081 -0.3945 -0.4437 -0.0173
 3840TIP3    H133079   3.273   1.293   2.159  0.7185  0.9196  0.4079
 3840TIP3    H233080   3.261   1.245   2.016 -1.5054 -0.1155  0.9045
 3841TIP3   OH233081   4.378   6.468   8.368  0.1573  0.1511 -0.3489
 3841TIP3    H133082   4.332   6.517   8.436 -0.1750  0.8369 -1.0547
 3841TIP3    H233083   4.360   6.376   8.389  1.5351  0.2479  1.5116
 3842TIP3   OH233084   5.745   3.436   0.114  0.4040  0.1132 -0.0857
 3842TIP3    H133085   5.731   3.356   0.165  0.2946  0.5045  0.5022
 3842TIP3    H233086   5.791   3.495   0.174  2.9223 -0.4421 -1.3260
 3843TIP3   OH233087   5.817   0.646   1.583  0.3444  0.4618 -0.0698
 3843TIP3    H133088   5.762   0.578   1.622 -1.0477  2.0959  0.9408
 3843TIP3    H233089   5.878   0.598   1.527  1.3636 -1.9019  2.7946
 3844TIP3   OH233090   6.242   0.916   1.931 -0.1482  0.1744  0.3715
 3844TIP3    H133091   6.238   1.012   1.939 -0.6366  0.0113  3.0916
 3844TIP3    H233092   6.157   0.892   1.893  0.5273  0.8389 -1.7171
 3845TIP3   OH233093   2.256   3.517   0.446  0.2925 -0.2340  0.3279
 3845TIP3    H133094   2.309   3.437   0.444  0.0577 -0.4215 -2.3144
 3845TIP3    H233095   2.166   3.486   0.457  0.3306 -0.2063  0.7456
 3846TIP3   OH233096   3.003   3.926   0.901  0.2638  0.7519 -0.4051
 3846TIP3    H133097   3.049   3.848   0.870 -2.1015 -0.2678 -1.6365
 3846TIP3    H233098   2.915   3.917   0.865 -1.8205  1.1482  3.9613
 3847TIP3   OH233099   1.353   0.025   2.597 -0.2552 -0.3182  0.7209
 3847TIP3    H133100   1.379  -0.062   2.628 -0.1390 -0.0455  1.4125
 3847TIP3    H233101   1.412   0.043   2.524  0.1896 -0.5199  1.0295
 3848TIP3   OH233102   2.894   2.053   3.074 -0.2977  0.2469 -0.0221
 3848TIP3    H133103   2.982   2.081   3.050  0.3472  0.2470  2.1986
 3848TIP3    H233104   2.906   1.971   3.121 -1.7175 -0.9529 -1.6016
 3849TIP3   OH233105   3.175   0.569   8.227  0.5989  0.3543 -0.3764
 3849TIP3    H133106   3.231   0.517   8.169  0.7982 -1.3779  1.2967
 3849TIP3    H233107   3.232   0.592   8.300 -0.4713 -0.2353  0.6720
 3850TIP3   OH233108   1.298   3.958   3.349  0.3825 -0.3280  0.5897
 3850TIP3    H133109   1.230   3.966   3.282  1.5980 -2.8770 -1.1110
 3850TIP3    H233110   1.362   4.025   3.327 -0.3993  0.4757  0.7299
 3851TIP3   OH233111   6.124   2.707   7.415 -0.2287 -0.2475  0.3986
 3851TIP3    H133112   6.131   2.626   7.365 -1.7819  0.1196 -0.5081
 3851TIP3    H233113   6.192   2.764   7.380 -1.3784  0.0504 -1.4704
 3852TIP3   OH233114   0.047   5.371   0.177  0.1263 -0.1530  0.4717
 3852TIP3    H133115   0.138   5.399   0.162  0.5786 -1.7482  0.0965
 3852TIP3    H233116   0.054   5.278   0.197 -1.2295  0.1430  2.6611
 3853TIP3   OH233117   1.492   6.104   1.116  0.5783 -0.2402 -0.1970
 3853TIP3    H133118   1.429   6.145   1.057 -0.6030  0.0349  1.1952
 3853TIP3    H233119   1.567   6.164   1.118  0.3009  0.1309 -0.8074
 3854TIP3   OH233120   4.354   0.153   7.792 -0.5731 -0.2410  0.2244
 3854TIP3    H133121   4.443   0.125   7.815 -0.6697  0.0884  1.0429
 3854TIP3    H233122   4.298   0.081   7.822 -0.5892 -0.4312 -0.2569
 3855TIP3   OH233123   3.372   5.613   2.258  0.2347 -0.5429 -0.1355
 3855TIP3    H133124   3.309   5.673   2.219  0.1456 -1.2493 -1.1243
 3855TIP3    H233125   3.457   5.644   2.227  0.2698 -0.3243  0.1822
 3856TIP3   OH233126   1.094   3.257   1.868 -0.4496  0.5045 -0.5467
 3856TIP3    H133127   1.025   3.226   1.926 -1.0393  0.9469 -1.0073
 3856TIP3    H233128   1.081   3.351   1.863 -0.0389  0.5424 -0.9402
 3857TIP3   OH233129   0.237   5.525   1.610  0.1043  0.3959  0.2494
 3857TIP3    H133130   0.190   5.607   1.624 -1.1678 -0.1767 -0.4811
 3857TIP3    H233131   0.277   5.534   1.524 -1.5694 -0.3999 -0.6714
 3858TIP3   OH233132   3.812   1.344   7.122  0.0267  0.0165 -0.2202
 3858TIP3    H133133   3.895   1.368   7.164 -0.0696 -1.1332  0.6932
 3858TIP3    H233134   3.766   1.294   7.189 -0.6513 -0.8738 -1.3271
 3859TIP3   OH233135   2.588   4.461   0.889  0.0072  0.5981 -0.3381
 3859TIP3    H133136   2.650   4.401   0.847  2.0240  3.1197 -1.2451
 3859TIP3    H233137   2.567   4.525   0.821  0.3868  2.6604  1.3901
 3860TIP3   OH233138   5.595   1.639   1.341  0.2024  0.2724  1.0428
 3860TIP3    H133139   5.524   1.701   1.322  1.7601  1.5840 -0.8079
 3860TIP3    H233140   5.581   1.567   1.280  0.5651  0.6115  0.5612
 3861TIP3   OH233141   3.456   4.493   1.477 -0.0134  0.0984 -0.2406
 3861TIP3    H133142   3.389   4.536   1.424 -0.2433  1.7575  1.2677
 3861TIP3    H233143   3.536   4.542   1.459 -0.1694  0.9148  1.1426
 3862TIP3   OH233144   0.703   6.804   6.944  0.5097  0.2512 -0.4316
 3862TIP3    H133145   0.616   6.843   6.932  0.1001 -1.0177 -1.8898
 3862TIP3    H233146   0.764   6.875   6.924 -0.1341  1.4421  1.5503
 3863TIP3   OH233147   6.333   2.596   7.700 -0.4418 -0.6514 -0.3608
 3863TIP3    H133148   6.385   2.559   7.628 -0.3949 -0.3548 -0.4814
 3863TIP3    H233149   6.388   2.666   7.735 -0.9625  0.0024 -0.8143
 3864TIP3   OH233150   6.326   3.632   2.378  0.1191 -0.5603 -0.2154
 3864TIP3    H133151   6.385   3.586   2.318 -0.8221 -1.3138 -0.5787
 3864TIP3    H233152   6.239   3.597   2.358 -0.6935  1.5574 -0.6959
 3865TIP3   OH233153   5.379   4.428   2.920  0.1837 -0.3742  0.1114
 3865TIP3    H133154   5.437   4.411   2.847  1.2842  0.1276  0.8421
 3865TIP3    H233155   5.404   4.515   2.951  1.4240 -1.5105  2.5711
 3866TIP3   OH233156   5.417   2.031   0.555 -0.3180  0.4079  0.8795
 3866TIP3    H133157   5.477   1.999   0.488 -0.5616 -0.5363  1.0942
 3866TIP3    H233158   5.403   1.956   0.613 -1.6231  0.6335  0.8932
 3867TIP3   OH233159   2.279   2.725   0.374 -0.1796  0.4705  0.0793
 3867TIP3    H133160   2.271   2.768   0.459  2.8166  1.6063 -0.1011
 3867TIP3    H233161   2.266   2.795   0.310 -1.1838 -0.1291 -0.3964
 3868TIP3   OH233162   3.259   5.707   7.581 -0.0376 -0.3394  0.2963
 3868TIP3    H133163   3.301   5.766   7.520  0.5518 -1.4723 -0.4305
 3868TIP3    H233164   3.246   5.626   7.531 -0.4975 -0.9423  1.3581
 3869TIP3   OH233165   2.043   0.922   2.243 -0.1865 -0.4174  0.3719
 3869TIP3    H133166   2.065   0.997   2.298  1.9826 -1.8857  1.6274
 3869TIP3    H233167   2.055   0.954   2.154 -0.7325  1.1289  0.8199
 3870TIP3   OH233168   5.023   1.273   1.618  0.4951 -0.2412 -0.6013
 3870TIP3    H133169   4.937   1.312   1.634 -1.1725 -3.7212 -0.0347
 3870TIP3    H233170   5.086   1.340   1.645 -2.0751  1.2268  2.3461
 3871TIP3   OH233171   4.920   3.208   1.628 -0.0528 -0.4543  0.3272
 3871TIP3    H133172   4.937   3.229   1.720 -0.4524  0.4908  0.1955
 3871TIP3    H233173   4.967   3.126   1.613 -0.3736 -0.8705  1.5000
 3872TIP3   OH233174   6.406   1.022   2.248 -0.4542 -0.4965 -0.0818
 3872TIP3    H133175   6.488   0.977   2.229 -1.1699 -1.1808 -1.8050
 3872TIP3    H233176   6.357   0.962   2.304  0.4013  0.1331  1.3697
 3873TIP3   OH233177   3.668   4.276   0.778 -0.2334  0.1065 -0.4984
 3873TIP3    H133178   3.663   4.368   0.755 -2.4166 -0.1466 -1.2488
 3873TIP3    H233179   3.672   4.275   0.874  0.3451  0.9799 -0.5106
 3874TIP3   OH233180   1.371   5.122   1.732 -0.1295 -0.2975  0.0088
 3874TIP3    H133181   1.303   5.110   1.666  0.8768 -0.5408 -1.0142
 3874TIP3    H233182   1.342   5.198   1.783 -1.6112 -0.9667  0.2045
 3875TIP3   OH233183   5.417   5.828   1.948 -0.2682 -0.2948  0.1151
 3875TIP3    H133184   5.350   5.777   1.902 -0.3765  0.6381 -0.7977
 3875TIP3    H233185   5.497   5.812   1.899 -0.0027 -0.7005  0.6737
 3876TIP3   OH233186   2.717   3.135   1.973  0.1544 -0.3707 -0.0663
 3876TIP3    H133187   2.725   3.069   2.041 -1.3711  1.0006  1.5253
 3876TIP3    H233188   2.623   3.148   1.962  0.3961  1.4623 -0.3858
 3877TIP3   OH233189   5.487   3.880   0.372 -0.4223 -0.1349  0.2809
 3877TIP3    H133190   5.399   3.914   0.387 -0.6591 -0.4995 -0.2669
 3877TIP3    H233191   5.512   3.915   0.287 -0.0987 -0.1647  0.3625
 3878TIP3   OH233192   6.294   1.146   8.120 -0.8635  0.2635 -0.2665
 3878TIP3    H133193   6.219   1.200   8.145 -1.4104 -1.3608  1.8617
 3878TIP3    H233194   6.260   1.089   8.051 -0.9207  1.0370 -0.8961
 3879TIP3   OH233195   4.249   5.327   0.557  0.2522 -0.6085  0.0208
 3879TIP3    H133196   4.216   5.289   0.639  0.6544 -0.8887  0.0542
 3879TIP3    H233197   4.171   5.336   0.502  0.1077 -1.1635  0.1334
 3880TIP3   OH233198   3.731   2.263   8.093  0.1608  0.2082 -0.3053
 3880TIP3    H133199   3.678   2.245   8.016  1.6341 -1.5657 -0.9694
 3880TIP3    H233200   3.732   2.181   8.142  1.0104  0.6657  0.4920
 3881TIP3   OH233201   6.687   4.889   7.108  0.6806 -0.6579  0.4464
 3881TIP3    H133202   6.757   4.898   7.045  1.4029 -1.5416  1.0888
 3881TIP3    H233203   6.673   4.795   7.115  0.2769 -0.5544  1.2219
 3882TIP3   OH233204   6.064   5.581   8.024 -0.3065 -0.0649 -0.5491
 3882TIP3    H133205   6.102   5.594   8.111  1.2709 -0.6376 -1.1026
 3882TIP3    H233206   5.983   5.632   8.025 -1.5262 -1.8178  2.0005
 3883TIP3   OH233207   4.353   3.664   0.311  0.4622 -0.2032  0.0285
 3883TIP3    H133208   4.282   3.722   0.285  0.0799 -0.0338  1.3788
 3883TIP3    H233209   4.325   3.628   0.395  1.5473 -0.8693  0.1205
 3884TIP3   OH233210   0.080   6.110   8.523  0.5574  0.3088  0.4893
 3884TIP3    H133211   0.070   6.160   8.604  0.2157  0.7960  0.1495
 3884TIP3    H233212   0.006   6.136   8.469  1.3018  0.7021 -0.3627
 3885TIP3   OH233213   6.117   3.430   2.984  0.4038 -0.3405 -0.6618
 3885TIP3    H133214   6.053   3.433   2.913  1.5639  0.0399 -1.7333
 3885TIP3    H233215   6.065   3.422   3.063 -0.8995 -1.9660 -1.6191
 3886TIP3   OH233216   5.279   0.877   7.955 -0.0533 -0.0287 -0.0617
 3886TIP3    H133217   5.275   0.964   7.915 -0.8794 -0.3084 -0.6268
 3886TIP3    H233218   5.194   0.866   7.998  0.1001 -0.4957  0.1333
 3887TIP3   OH233219   4.135   2.384   7.623  0.1153  0.4753 -0.2074
 3887TIP3    H133220   4.126   2.298   7.581 -0.3987  0.2834  0.2915
 3887TIP3    H233221   4.087   2.443   7.565 -0.0279  0.3274 -0.2418
 3888TIP3   OH233222   5.425   5.034   8.445 -0.3720  0.1389 -0.0441
 3888TIP3    H133223   5.422   5.065   8.355 -0.9585  1.5036  0.4207
 3888TIP3    H233224   5.363   5.089   8.492  1.5180  0.9899  1.6258
 3889TIP3   OH233225   0.573   2.970   0.278  0.1821  0.2550 -0.0228
 3889TIP3    H133226   0.608   3.058   0.295  1.5531 -0.7238  2.8897
 3889TIP3    H233227   0.501   2.961   0.339 -1.1811 -0.0459 -1.6117
 3890TIP3   OH233228   3.082   6.544   2.675 -0.5278  0.7872 -0.5272
 3890TIP3    H133229   2.990   6.563   2.660 -1.5454 -1.6582  1.6682
 3890TIP3    H233230   3.086   6.515   2.766  1.3368 -4.2146 -1.8315
 3891TIP3   OH233231   5.874   6.651   8.649 -0.1209  0.8595  0.2485
 3891TIP3    H133232   5.891   6.685   8.737 -1.5723  0.5144  0.6958
 3891TIP3    H233233   5.858   6.729   8.596  0.0102  1.0311  0.4588
 3892TIP3   OH233234   1.983   0.177   7.975 -0.1498 -0.1258 -0.7366
 3892TIP3    H133235   1.984   0.235   8.052 -0.2053 -1.7404  0.5392
 3892TIP3    H233236   1.891   0.168   7.953 -0.3619 -1.4896  0.5161
 3893TIP3   OH233237   1.330   6.449   0.654 -1.1947  0.5880 -0.0543
 3893TIP3    H133238   1.250   6.481   0.610 -1.9566 -1.5103 -0.3008
 3893TIP3    H233239   1.394   6.440   0.583 -1.6696 -0.4649 -0.3769
 3894TIP3   OH233240   1.225   6.102   8.566  0.3072 -0.5216 -0.0657
 3894TIP3    H133241   1.170   6.176   8.538  1.3430 -0.8116 -3.3305
 3894TIP3    H233242   1.172   6.057   8.632 -1.7780  1.2911 -0.3688
 3895TIP3   OH233243   2.725   6.770   1.305 -0.4055 -0.1868  0.1152
 3895TIP3    H133244   2.807   6.720   1.313 -0.2536  0.1508  0.6655
 3895TIP3    H233245   2.745   6.855   1.342 -1.2061 -0.3145  0.8632
 3896TIP3   OH233246   1.091   1.177   1.890  0.0006 -0.0582 -0.3162
 3896TIP3    H133247   1.051   1.219   1.814  0.0032 -0.4448 -0.5379
 3896TIP3    H233248   1.017   1.159   1.949 -0.0170  0.1387 -0.2787
 3897TIP3   OH233249   3.477   4.094   7.342 -0.5193  0.2500  0.1169
 3897TIP3    H133250   3.408   4.033   7.369  0.2702 -1.2583 -1.1572
 3897TIP3    H233251   3.515   4.055   7.263  1.5927  1.1973  0.5921
 3898TIP3   OH233252   0.805   1.766   7.184 -0.2178  0.2383 -0.2756
 3898TIP3    H133253   0.818   1.671   7.177  1.5383  0.3832  0.4417
 3898TIP3    H233254   0.720   1.781   7.144 -0.4057 -1.6012 -0.6894
 3899TIP3   OH233255   3.617   1.089   0.305  0.3113  0.0940  0.5179
 3899TIP3    H133256   3.598   1.134   0.222 -0.3217 -2.1297 -0.6160
 3899TIP3    H233257   3.712   1.073   0.301  0.6147  1.5424  1.1007
 3900TIP3   OH233258   3.123   5.098   1.251  0.1589  0.4054  0.3564
 3900TIP3    H133259   3.143   5.073   1.341  0.0678 -0.5908  0.1149
 3900TIP3    H233260   3.034   5.134   1.255  0.3089  0.7366  0.7257
 3901TIP3   OH233261   5.571   4.575   2.334 -0.0673 -0.2353 -0.3704
 3901TIP3    H133262   5.516   4.569   2.412 -1.7026 -1.4391 -1.5380
 3901TIP3    H233263   5.645   4.516   2.352  0.7227  1.1378  1.0792
 3902TIP3   OH233264   5.452   4.684   2.996 -0.0561  0.1235  0.0595
 3902TIP3    H133265   5.421   4.774   2.986 -1.8488 -0.2453  1.7185
 3902TIP3    H233266   5.539   4.693   3.035 -0.3285  1.1313  0.4651
 3903TIP3   OH233267   2.562   1.945   7.089 -0.4095 -0.9301 -0.5304
 3903TIP3    H133268   2.534   2.023   7.040  0.6517 -0.9164 -1.1514
 3903TIP3    H233269   2.603   1.979   7.168 -2.2830 -0.9564  0.5032
 3904TIP3   OH233270   1.661   3.765   8.761 -0.6770  0.7181  0.2336
 3904TIP3    H133271   1.680   3.784   8.853 -0.4725 -2.3629  0.9330
 3904TIP3    H233272   1.687   3.674   8.750  0.9962  1.4634 -3.3927
 3905TIP3   OH233273   1.591   4.621   1.666  0.5289 -0.2421 -0.0252
 3905TIP3    H133274   1.666   4.623   1.725  0.1650 -2.6468  0.6229
 3905TIP3    H233275   1.515   4.629   1.724  0.2005  2.3811 -0.6873
 3906TIP3   OH233276   2.798   1.389   7.799  0.3132  0.0886  0.1686
 3906TIP3    H133277   2.873   1.448   7.809  1.1232 -0.9809  0.6364
 3906TIP3    H233278   2.774   1.396   7.707  0.4491  1.0809  0.2024
 3907TIP3   OH233279   5.232   6.773   7.842  0.1003  0.0769 -0.0704
 3907TIP3    H133280   5.270   6.688   7.863 -0.9107 -0.6746 -1.1162
 3907TIP3    H233281   5.155   6.779   7.899 -0.0821  0.0916 -0.3187
 3908TIP3   OH233282   2.360   0.296   2.169 -0.2669  0.3895  0.5862
 3908TIP3    H133283   2.409   0.233   2.117 -0.5983  1.1526 -0.7083
 3908TIP3    H233284   2.408   0.303   2.251 -0.5940 -2.0172  1.0572
 3909TIP3   OH233285   0.345   3.006   0.467 -0.5323 -0.5126  0.0267
 3909TIP3    H133286   0.327   3.092   0.505  1.5499  0.2013 -0.4613
 3909TIP3    H233287   0.350   2.947   0.542 -1.8207 -0.2088  0.3798
 3910TIP3   OH233288   5.378   1.539   6.875 -0.3272 -0.0071  0.1288
 3910TIP3    H133289   5.351   1.516   6.964 -0.1282 -0.6360  0.0373
 3910TIP3    H233290   5.351   1.464   6.822  0.0733  0.1044 -0.2440
 3911TIP3   OH233291   2.086   6.457   0.022 -0.1611  0.4705 -0.5188
 3911TIP3    H133292   1.995   6.439   0.046 -0.5658  0.7706 -1.7470
 3911TIP3    H233293   2.080   6.515  -0.054  1.0758  2.1136  0.5685
 3912TIP3   OH233294   0.694   5.745   1.635 -0.4746  0.2628 -0.2410
 3912TIP3    H133295   0.698   5.796   1.554  0.4848  0.0362 -0.3486
 3912TIP3    H233296   0.617   5.779   1.681 -0.9024  0.5449 -1.1415
 3913TIP3   OH233297   6.544   6.529   2.896 -0.7820 -0.4816 -0.5376
 3913TIP3    H133298   6.544   6.539   2.992  1.3515 -0.3557 -0.5159
 3913TIP3    H233299   6.546   6.618   2.863 -1.0845 -0.5338 -0.6965
 3914TIP3   OH233300   5.720   4.688   0.434  0.0860 -0.4696 -0.1595
 3914TIP3    H133301   5.690   4.651   0.517 -0.0755  1.8026  0.8557
 3914TIP3    H233302   5.807   4.649   0.421  0.7781  0.2709  1.8917
 3915TIP3   OH233303   6.012   2.453   7.065 -0.3524  0.3837  0.1650
 3915TIP3    H133304   5.933   2.400   7.074 -2.1968  2.6705 -1.1679
 3915TIP3    H233305   6.070   2.422   7.134 -2.2509 -1.6456  0.9851
 3916TIP3   OH233306   4.476   5.958   0.097  0.4851 -0.0669 -0.1624
 3916TIP3    H133307   4.469   6.026   0.030  0.0459  2.1891  2.0599
 3916TIP3    H233308   4.551   5.983   0.151 -0.9546 -0.0976  1.9709
 3917TIP3   OH233309   2.684   0.665   1.932 -0.0085  0.5930 -0.2569
 3917TIP3    H133310   2.668   0.643   2.024 -0.9993 -0.2633 -0.6121
 3917TIP3    H233311   2.621   0.611   1.883  1.1097  0.3499 -1.4938
 3918TIP3   OH233312   5.527   2.643   8.794  0.1564  0.1202 -0.6216
 3918TIP3    H133313   5.473   2.672   8.721  0.4742  0.5764 -0.6787
 3918TIP3    H233314   5.485   2.680   8.871 -0.0355 -0.1518 -0.5928
 3919TIP3   OH233315   5.023   2.169   7.653  0.4200 -0.3656  0.4780
 3919TIP3    H133316   4.971   2.180   7.574  1.8188 -0.5521 -0.5011
 3919TIP3    H233317   5.104   2.217   7.636  0.7792 -0.4713  1.7712
 3920TIP3   OH233318   2.532   0.478   7.933  0.3501 -0.4358  0.2029
 3920TIP3    H133319   2.608   0.535   7.922  0.2387 -0.5719 -1.6304
 3920TIP3    H233320   2.463   0.518   7.880 -0.5626 -0.8620  1.0203
 3921TIP3   OH233321   3.411   1.073   1.366 -0.0084  0.0650 -0.0436
 3921TIP3    H133322   3.478   1.016   1.403  1.7636  2.9250  1.5308
 3921TIP3    H233323   3.453   1.112   1.289 -0.4722  0.6633 -0.0012
 3922TIP3   OH233324   3.161   2.898   0.721  0.1109 -0.0635 -0.2433
 3922TIP3    H133325   3.067   2.915   0.732  0.4290  1.1785  0.8239
 3922TIP3    H233326   3.180   2.923   0.630 -0.3599  0.9434 -0.0799
 3923TIP3   OH233327   3.194   1.882   7.086  0.1105  0.0183 -0.4932
 3923TIP3    H133328   3.147   1.817   7.034 -1.6300  0.9399 -0.1612
 3923TIP3    H233329   3.128   1.917   7.146  1.0556  1.8805 -0.4559
 3924TIP3   OH233330   5.847   5.204   1.710  0.7173 -0.6055  0.5186
 3924TIP3    H133331   5.930   5.183   1.754  0.6666 -1.1000  0.3829
 3924TIP3    H233332   5.872   5.267   1.642  1.3377 -2.2586 -0.8569
 3925TIP3   OH233333   5.593   5.298   1.777 -0.6906 -0.3234 -0.2240
 3925TIP3    H133334   5.677   5.260   1.751 -0.3972  0.8822 -1.1610
 3925TIP3    H233335   5.551   5.324   1.695 -1.8428 -0.5991  0.2524
 3926TIP3   OH233336   5.789   1.036   8.615 -0.2015 -0.9231 -0.1322
 3926TIP3    H133337   5.798   1.124   8.577 -1.1347 -0.3420  0.9433
 3926TIP3    H233338   5.710   1.001   8.573 -1.0170 -0.4257  0.9381
 3927TIP3   OH233339   5.411   3.426   8.026 -0.2886  0.1082 -0.1832
 3927TIP3    H133340   5.441   3.466   7.944 -0.3528 -0.7252 -0.6248
 3927TIP3    H233341   5.334   3.375   8.001 -0.7748  0.4711  0.5445
 3928TIP3   OH233342   3.452   1.566   8.704  0.5899 -0.4204  0.2961
 3928TIP3    H133343   3.546   1.554   8.690  0.5069 -1.2227  0.3584
 3928TIP3    H233344   3.442   1.657   8.728  1.2863 -0.1710 -0.3189
 3929TIP3   OH233345   6.233   0.154   7.348 -0.4840 -0.4546 -0.0018
 3929TIP3    H133346   6.255   0.241   7.314  0.1801 -0.3162  0.7475
 3929TIP3    H233347   6.141   0.161   7.374 -1.0693 -0.6185 -1.8861
 3930TIP3   OH233348   3.890   6.073   8.590 -0.0782 -0.0263 -0.6542
 3930TIP3    H133349   3.953   6.144   8.580 -0.6593  1.0707  2.2623
 3930TIP3    H233350   3.942   5.993   8.583  1.0577  0.7681 -1.4359
 3931TIP3   OH233351   6.588   3.442   0.457 -0.2232  0.0643 -0.2586
 3931TIP3    H133352   6.541   3.449   0.374 -0.4480 -0.3838 -0.1732
 3931TIP3    H233353   6.672   3.402   0.434 -0.2453  0.0324 -0.2852
 3932TIP3   OH233354   4.975   2.777   2.103  1.0690 -0.1137 -0.4268
 3932TIP3    H133355   4.934   2.708   2.155  0.6907 -0.1988 -0.8366
 3932TIP3    H233356   5.003   2.733   2.023  2.8630 -0.2868  0.2435
 3933TIP3   OH233357   0.651   3.251   0.326  0.1228 -0.7001 -0.2251
 3933TIP3    H133358   0.698   3.285   0.250  1.3763 -0.2078  0.7235
 3933TIP3    H233359   0.560   3.277   0.312  0.0561 -1.7941 -2.1818
 3934TIP3   OH233360   0.816   1.891   2.225  0.2641 -0.0971 -0.1997
 3934TIP3    H133361   0.878   1.911   2.295  1.9004 -0.2868 -1.5240
 3934TIP3    H233362   0.849   1.810   2.186 -0.7325 -0.1191 -1.0372
 3935TIP3   OH233363   2.092   5.275   1.976  0.7164 -0.2515  0.5203
 3935TIP3    H133364   2.073   5.183   1.993 -0.7024 -0.3913 -1.4445
 3935TIP3    H233365   2.056   5.322   2.051  0.5472 -1.2124  1.0623
 3936TIP3   OH233366   5.479   0.549   8.360 -0.3512  0.2476 -0.4090
 3936TIP3    H133367   5.412   0.614   8.339 -2.0318 -1.4515 -0.5585
 3936TIP3    H233368   5.430   0.476   8.397  1.5998 -0.4905  0.8454
 3937TIP3   OH233369   0.948   2.131   2.667  0.1563  0.0895 -0.1547
 3937TIP3    H133370   0.979   2.058   2.614  0.2077  0.1029 -0.1431
 3937TIP3    H233371   1.027   2.177   2.693  0.0329  1.7030 -2.3715
 3938TIP3   OH233372   3.366   5.218   7.925  0.2799  0.6375  0.4585
 3938TIP3    H133373   3.335   5.185   7.841 -1.0054 -0.0194  1.1631
 3938TIP3    H233374   3.433   5.156   7.952  0.4386  0.6440  0.0802
 3939TIP3   OH233375   0.910   4.696   8.617  0.2042  0.3089 -0.3824
 3939TIP3    H133376   0.987   4.720   8.669 -0.1195  0.6245 -0.0458
 3939TIP3    H233377   0.878   4.779   8.581 -1.5389  0.5815  1.6351
 3940TIP3   OH233378   3.566   3.776   0.763 -0.1282  0.1876  0.4834
 3940TIP3    H133379   3.615   3.837   0.707  0.1963  0.4740  1.0665
 3940TIP3    H233380   3.535   3.830   0.835  0.8168 -0.4803  1.4159
 3941TIP3   OH233381   0.954   5.634   1.622  0.0983  0.2959 -0.4216
 3941TIP3    H133382   0.861   5.652   1.608  0.1517  1.1189  0.1720
 3941TIP3    H233383   0.956   5.573   1.695  0.0735  3.0640  2.1196
 3942TIP3   OH233384   5.100   4.698   8.463  0.5031 -0.1116  0.2683
 3942TIP3    H133385   5.136   4.756   8.529  0.2455 -0.4919  0.7532
 3942TIP3    H233386   5.136   4.611   8.486  0.1122 -0.3091  0.1355
 3943TIP3   OH233387   4.139   2.216   7.844  0.0845  0.3663 -0.2548
 3943TIP3    H133388   4.112   2.305   7.819  1.3128  0.7380 -0.3263
 3943TIP3    H233389   4.124   2.163   7.765 -2.0311  0.1665  0.2242
 3944TIP3   OH233390   1.849   1.752   0.171 -0.3237  0.1206  0.0354
 3944TIP3    H133391   1.820   1.815   0.106 -0.5677  0.9895  0.9736
 3944TIP3    H233392   1.794   1.768   0.248  1.2985  0.5121  1.1859
 3945TIP3   OH233393   6.191   5.203   3.088 -0.2748 -0.2955  0.0845
 3945TIP3    H133394   6.190   5.181   2.995  0.2634  0.4058 -0.0964
 3945TIP3    H233395   6.207   5.120   3.132 -1.4773 -0.8014 -0.3814
 3946TIP3   OH233396   2.802   3.814   2.167  0.1002  0.3063 -0.1459
 3946TIP3    H133397   2.845   3.754   2.229 -0.3885  2.3577  2.3353
 3946TIP3    H233398   2.872   3.870   2.135 -0.0338  0.9232  0.6151
 3947TIP3   OH233399   1.479   6.726   1.476  1.0172 -0.8056 -0.1751
 3947TIP3    H133400   1.434   6.696   1.397 -0.1827 -1.7510  0.8233
 3947TIP3    H233401   1.409   6.756   1.534  1.8900  0.0449  0.4819
 3948TIP3   OH233402   1.544   2.648   0.962 -0.4474  0.2526 -0.3975
 3948TIP3    H133403   1.514   2.694   1.040  1.0141 -0.1917  0.4524
 3948TIP3    H233404   1.570   2.561   0.994 -0.7566 -0.2865 -1.5558
 3949TIP3   OH233405   0.009   1.126   8.092 -0.4092 -0.3620 -0.0388
 3949TIP3    H133406   0.037   1.204   8.046  1.5819 -0.4580  0.9080
 3949TIP3    H233407  -0.086   1.124   8.081 -0.5528  2.3387  0.1521
 3950TIP3   OH233408   0.227   4.070   2.717 -0.1152  0.1893 -0.5287
 3950TIP3    H133409   0.190   4.041   2.800 -1.3556  0.6981 -0.8716
 3950TIP3    H233410   0.281   4.146   2.740 -0.9986  0.7504 -0.2522
 3951TIP3   OH233411   2.191   3.201   0.935 -0.7569 -0.1112 -0.1004
 3951TIP3    H133412   2.151   3.114   0.939 -0.3977 -0.3724 -1.4499
 3951TIP3    H233413   2.278   3.189   0.974 -0.7589 -0.3261 -0.1570
 3952TIP3   OH233414   5.251   1.272   7.955 -0.0775 -0.2283 -0.2858
 3952TIP3    H133415   5.167   1.229   7.939 -0.0180 -0.7778  0.7865
 3952TIP3    H233416   5.317   1.208   7.927  0.0152 -0.9664  1.4691
 3953TIP3   OH233417   3.292   6.370   1.780 -0.4022 -0.4451 -0.1296
 3953TIP3    H133418   3.273   6.286   1.821  1.0568 -0.6465  0.1950
 3953TIP3    H233419   3.291   6.352   1.686  1.2831 -1.1820 -0.0413
 3954TIP3   OH233420   2.680   6.467   8.591  0.5337 -0.5927 -0.0390
 3954TIP3    H133421   2.659   6.542   8.646  1.3898 -0.2786 -0.1325
 3954TIP3    H233422   2.770   6.482   8.563  0.5467 -1.4086 -0.4579
 3955TIP3   OH233423   6.238   4.268   7.999  0.1941  0.2093 -0.2993
 3955TIP3    H133424   6.297   4.341   8.020 -0.6564  1.2460 -1.4223
 3955TIP3    H233425   6.166   4.277   8.062  0.1807  0.2246 -0.3170
 3956TIP3   OH233426   0.360   2.683   1.549  0.3118  0.4324  0.1494
 3956TIP3    H133427   0.295   2.613   1.561 -0.2363  0.9439  0.2044
 3956TIP3    H233428   0.444   2.641   1.567 -0.1184  0.1027  1.4648
 3957TIP3   OH233429   1.733   3.645   7.831 -0.0977 -0.3386 -0.2244
 3957TIP3    H133430   1.650   3.643   7.784 -0.2216 -3.2882 -0.0571
 3957TIP3    H233431   1.767   3.556   7.823  2.5948  0.5241  0.5531
 3958TIP3   OH233432   2.463   2.377   8.365  0.1398  0.0422 -0.0778
 3958TIP3    H133433   2.493   2.290   8.338  1.4016  0.3563  0.2081
 3958TIP3    H233434   2.539   2.415   8.409 -0.3379  1.3519 -0.3441
 3959TIP3   OH233435   4.338   0.038   8.519 -0.3613 -0.1603  0.0999
 3959TIP3    H133436   4.426   0.003   8.535 -0.1762 -0.9997 -2.3053
 3959TIP3    H233437   4.279  -0.035   8.538 -0.5428  0.2775  1.3142
 3960TIP3   OH233438   2.624   6.552   0.803 -0.0545 -0.0419  0.0006
 3960TIP3    H133439   2.544   6.499   0.810 -0.3433  0.4016  0.0741
 3960TIP3    H233440   2.620   6.588   0.714 -0.1038  0.2490  0.1212
 3961TIP3   OH233441   6.324   4.113   1.461 -0.0485 -0.1964 -0.1293
 3961TIP3    H133442   6.375   4.038   1.492 -0.2142 -0.1267  0.3255
 3961TIP3    H233443   6.389   4.175   1.429  0.1449 -0.2017  0.2414
 3962TIP3   OH233444   1.431   2.781   7.527  0.8544  0.1227  0.1817
 3962TIP3    H133445   1.481   2.701   7.512  1.1018  0.4539 -0.8785
 3962TIP3    H233446   1.447   2.834   7.448 -0.9411  0.3536 -0.0555
 3963TIP3   OH233447   3.769   1.561   1.840 -0.0742  0.0923  0.1957
 3963TIP3    H133448   3.768   1.473   1.800  0.9012 -0.1352  0.6345
 3963TIP3    H233449   3.712   1.553   1.916 -2.1533  0.5975 -1.2180
 3964TIP3   OH233450   0.722   5.870   8.006  0.2054  0.5079 -0.7238
 3964TIP3    H133451   0.791   5.925   7.969 -0.1020  1.2881 -0.1602
 3964TIP3    H233452   0.728   5.788   7.957 -0.1396  1.4639 -2.4541
 3965TIP3   OH233453   3.865   4.490   8.381  0.1563 -0.0291 -0.0760
 3965TIP3    H133454   3.807   4.478   8.305 -1.2417  0.7148  0.8238
 3965TIP3    H233455   3.843   4.578   8.413  1.4499  0.0638  0.5901
 3966TIP3   OH233456   5.955   0.844   8.471  0.4426 -0.1642  0.0202
 3966TIP3    H133457   5.912   0.918   8.514  0.7718  0.8855 -1.4047
 3966TIP3    H233458   6.036   0.831   8.521 -0.4137 -0.7168  1.3357
 3967TIP3   OH233459   6.309   6.422   2.190 -0.5485 -0.0319  0.0528
 3967TIP3    H133460   6.353   6.338   2.173 -0.2061 -0.2088  1.6549
 3967TIP3    H233461   6.377   6.488   2.174 -0.2005 -0.2005  0.7757
 3968TIP3   OH233462   3.653   2.102   1.736  0.2567  0.0453  0.1219
 3968TIP3    H133463   3.746   2.094   1.713  0.9018 -0.1658  2.5197
 3968TIP3    H233464   3.627   2.014   1.762 -0.4275  0.2457  0.1354
 3969TIP3   OH233465   3.805   0.250   8.604 -0.2927 -0.5479 -1.3050
 3969TIP3    H133466   3.834   0.315   8.668  1.5943 -1.8082 -0.8150
 3969TIP3    H233467   3.729   0.291   8.562 -0.6744  0.9473  0.6649
 3970TIP3   OH233468   6.543   2.555   7.917  0.3876 -0.3668 -0.1363
 3970TIP3    H133469   6.527   2.513   8.001 -1.1306 -1.0277 -0.7233
 3970TIP3    H233470   6.626   2.516   7.887  1.9250  1.1873  1.7842
 3971TIP3   OH233471   4.954   0.542   1.630  0.3151 -0.2038 -0.7110
 3971TIP3    H133472   4.889   0.601   1.670 -0.9031  0.0050 -2.8664
 3971TIP3    H233473   5.038   0.571   1.668 -0.4798  1.5863 -0.1814
 3972TIP3   OH233474   2.448   4.513   1.777  0.1765 -0.4053 -0.4390
 3972TIP3    H133475   2.480   4.449   1.714  3.7032  0.1532  0.5518
 3972TIP3    H233476   2.435   4.593   1.725  0.3849 -0.6639 -0.8970
 3973TIP3   OH233477   5.707   5.260   2.499  0.1832 -0.0362 -0.2087
 3973TIP3    H133478   5.667   5.272   2.585 -1.3927 -0.9442 -0.7662
 3973TIP3    H233479   5.727   5.167   2.494  0.2524  0.0056 -0.8123
 3974TIP3   OH233480   1.181   0.285   0.471  0.4117  0.1565  0.4961
 3974TIP3    H133481   1.220   0.326   0.549 -1.4239  0.8828  1.0858
 3974TIP3    H233482   1.102   0.242   0.504  1.5219 -2.7298 -0.3572
 3975TIP3   OH233483   4.986   3.659   6.929 -0.1787  0.2990  0.5242
 3975TIP3    H133484   5.073   3.699   6.935  0.8264 -1.6828  0.2034
 3975TIP3    H233485   4.977   3.634   6.837 -0.7230 -0.2671  0.7190
 3976TIP3   OH233486   6.537   3.492   1.325 -0.5103 -0.6193  0.5438
 3976TIP3    H133487   6.542   3.419   1.264  1.3113 -0.4980  0.4769
 3976TIP3    H233488   6.624   3.532   1.322  0.4620 -1.8942  4.7511
 3977TIP3   OH233489   1.740   2.512   2.087 -0.7266  0.1308 -0.1739
 3977TIP3    H133490   1.657   2.464   2.086 -0.4719 -0.4152  1.3873
 3977TIP3    H233491   1.736   2.565   2.166  0.7429 -0.5603  0.4059
 3978TIP3   OH233492   4.586   2.475   1.623 -0.0944 -0.2461 -0.1511
 3978TIP3    H133493   4.494   2.458   1.641 -0.0889  0.8409  1.0390
 3978TIP3    H233494   4.594   2.465   1.528 -1.1204 -1.7091 -0.1217
 3979TIP3   OH233495   6.457   2.212   6.876 -0.3978 -0.0798  0.0947
 3979TIP3    H133496   6.528   2.273   6.859 -0.2859 -0.5548 -1.3050
 3979TIP3    H233497   6.441   2.218   6.970  0.5395  1.0635  0.1982
 3980TIP3   OH233498   0.378   0.405   7.330 -0.4025  0.3707 -0.5635
 3980TIP3    H133499   0.364   0.311   7.338  0.7892  0.2539  0.5345
 3980TIP3    H233500   0.334   0.442   7.407  1.4821  0.4033  0.5568
 3981TIP3   OH233501   5.939   1.832   6.871  0.1253 -0.3470  0.2092
 3981TIP3    H133502   6.026   1.793   6.868 -0.1480 -0.9411 -0.2515
 3981TIP3    H233503   5.945   1.908   6.813  0.0738 -0.9552 -0.6160
 3982TIP3   OH233504   6.182   5.224   1.301 -0.0570  0.4422 -0.6686
 3982TIP3    H133505   6.273   5.246   1.322 -0.1096  0.0053  0.0324
 3982TIP3    H233506   6.188   5.166   1.225  0.2002  1.0210 -1.1008
 3983TIP3   OH233507   0.831   5.999   2.100 -0.1891 -0.3993  0.3451
 3983TIP3    H133508   0.759   6.053   2.068  0.8656  0.2977 -0.9241
 3983TIP3    H233509   0.906   6.058   2.105  1.2472 -1.8294 -1.9880
 3984TIP3   OH233510   0.147   0.588   0.532  0.0595 -0.2193 -0.4639
 3984TIP3    H133511   0.152   0.642   0.611 -0.7361 -0.5190 -0.1991
 3984TIP3    H233512   0.238   0.579   0.503  0.2819  0.5055  0.0006
 3985TIP3   OH233513   2.243   6.575   1.637 -0.1552  0.1845 -0.0391
 3985TIP3    H133514   2.189   6.535   1.705  0.1403  0.5077  0.3927
 3985TIP3    H233515   2.210   6.665   1.629 -0.6958 -0.0793 -0.8758
 3986TIP3   OH233516   5.860   1.642   8.011  0.0056  0.4988 -0.1660
 3986TIP3    H133517   5.770   1.669   8.029 -0.5189 -0.9766 -0.4230
 3986TIP3    H233518   5.903   1.642   8.097 -0.1999  1.3309 -0.0600
 3987TIP3   OH233519   2.246   2.697   2.281  0.1672  0.3139  0.0581
 3987TIP3    H133520   2.298   2.630   2.236 -1.3768 -1.0050  0.1232
 3987TIP3    H233521   2.271   2.690   2.372  0.8055  0.5767 -0.0979
 3988TIP3   OH233522   3.499   0.688   8.623  0.2568  0.3285 -0.3643
 3988TIP3    H133523   3.594   0.695   8.631  0.3174 -0.2420 -0.5372
 3988TIP3    H233524   3.464   0.753   8.684  0.7445 -0.3956  0.7087
 3989TIP3   OH233525   4.813   0.650   7.699  0.4952 -0.2565 -0.2610
 3989TIP3    H133526   4.907   0.654   7.684  0.5033  1.6439  0.0652
 3989TIP3    H233527   4.799   0.696   7.781 -0.8124  0.4349 -0.8229
 3990TIP3   OH233528   2.834   2.314   1.162 -0.9232  0.3347  0.9989
 3990TIP3    H133529   2.745   2.287   1.137 -0.7150  0.4530  0.1009
 3990TIP3    H233530   2.890   2.278   1.093 -0.4916  1.9521  0.4627
 3991TIP3   OH233531   3.861   0.360   1.042  0.3884 -0.6069 -0.1126
 3991TIP3    H133532   3.905   0.404   1.115  1.0915 -1.8473  0.2263
 3991TIP3    H233533   3.768   0.366   1.065  0.6320 -1.7095  1.3533
 3992TIP3   OH233534   6.756   0.405   7.195  0.2643  0.0422  0.2105
 3992TIP3    H133535   6.830   0.456   7.226  1.1245 -0.8527 -0.3085
 3992TIP3    H233536   6.747   0.428   7.102  1.1719 -1.2864 -0.2455
 3993TIP3   OH233537   3.054   0.771   2.006 -0.1782  0.1935  0.6469
 3993TIP3    H133538   3.078   0.682   2.034  0.6645  0.5909  1.2473
 3993TIP3    H233539   2.968   0.786   2.046 -0.1451 -0.2046  0.8791
 3994TIP3   OH233540   1.120   3.064   0.144  0.5441  0.0257  0.0716
 3994TIP3    H133541   1.044   3.040   0.198 -1.3424  2.7418 -1.1371
 3994TIP3    H233542   1.188   3.087   0.208 -0.2909 -0.5980  1.2246
 3995TIP3   OH233543   3.075   3.673   0.437 -0.2637 -0.3970 -0.5409
 3995TIP3    H133544   3.108   3.747   0.386 -0.1111 -1.2127 -1.6590
 3995TIP3    H233545   3.152   3.637   0.481 -0.4200  0.4049  0.4421
 3996TIP3   OH233546   1.352   5.575   0.954 -1.1393  0.4740  0.6077
 3996TIP3    H133547   1.396   5.659   0.964 -1.8088  0.8221  0.6244
 3996TIP3    H233548   1.270   5.595   0.909 -0.6992 -0.3472 -0.5960
 3997TIP3   OH233549   4.861   0.740   8.245 -0.0995  0.4149 -0.1939
 3997TIP3    H133550   4.874   0.718   8.337  2.0088  0.9192 -0.3169
 3997TIP3    H233551   4.860   0.656   8.199  0.6446  0.2382  0.1047
 3998TIP3   OH233552   1.480   4.896   7.782  0.3444  0.1756 -0.1483
 3998TIP3    H133553   1.530   4.866   7.707  0.4972 -1.4955  0.5894
 3998TIP3    H233554   1.535   4.874   7.858  0.3418  2.0958  0.4781
 3999TIP3   OH233555   5.716   0.114   1.248  0.1973  0.4763  0.1644
 3999TIP3    H133556   5.762   0.059   1.185  0.8657 -0.1147  1.1546
 3999TIP3    H233557   5.761   0.198   1.243  1.8392 -0.2693  1.5666
 4000TIP3   OH233558   1.879   4.188   0.282 -0.1405  0.5358  0.5407
 4000TIP3    H133559   1.883   4.281   0.259 -0.1793  0.3705 -0.1673
 4000TIP3    H233560   1.896   4.142   0.199 -0.7436 -0.0898  0.7539
 4001TIP3   OH233561   4.030   1.708   8.741 -0.8433 -0.0188 -0.3289
 4001TIP3    H133562   4.042   1.801   8.727 -1.1176 -0.2748 -2.6408
 4001TIP3    H233563   3.937   1.692   8.724 -1.1030 -0.5460  1.3549
 4002TIP3   OH233564   5.759   3.072   1.980 -0.2902  0.2100 -0.3323
 4002TIP3    H133565   5.844   3.101   2.011 -0.2655  0.4123 -0.5823
 4002TIP3    H233566   5.775   3.045   1.889 -0.3819 -0.2635 -0.2115
 4003TIP3   OH233567   1.282   0.556   1.950  0.3582  0.3811  0.8470
 4003TIP3    H133568   1.252   0.624   2.010  0.7152  0.3823  1.0274
 4003TIP3    H233569   1.367   0.587   1.920  0.3770  0.1667  0.6795
 4004TIP3   OH233570   3.168   5.657   1.549  1.2066  0.4398  0.3324
 4004TIP3    H133571   3.104   5.711   1.503  1.3339  0.0141 -0.3514
 4004TIP3    H233572   3.250   5.671   1.502  1.7785  1.4392  1.5534
 4005TIP3   OH233573   0.949   4.668   1.455  0.3952  0.2837 -0.1883
 4005TIP3    H133574   0.900   4.649   1.374 -1.6144  1.6598  0.6160
 4005TIP3    H233575   0.927   4.595   1.513 -0.1558  0.5245 -0.0826
 4006TIP3   OH233576   3.418   4.574   2.345 -0.3989  0.1489  0.2516
 4006TIP3    H133577   3.355   4.550   2.413 -0.9789  0.7777 -0.0575
 4006TIP3    H233578   3.439   4.666   2.363 -0.7978  0.4140 -0.6055
 4007TIP3   OH233579   6.203   0.831   1.473 -0.6850 -0.0360 -0.0107
 4007TIP3    H133580   6.278   0.864   1.524 -0.0154  0.9677 -1.5696
 4007TIP3    H233581   6.220   0.737   1.464  1.4350  0.4490 -1.8986
 4008TIP3   OH233582   5.428   0.507   0.869 -0.8601 -0.1610 -0.6863
 4008TIP3    H133583   5.349   0.542   0.909  0.3097  1.8928  0.0062
 4008TIP3    H233584   5.446   0.565   0.796  0.5293  0.0703 -0.2110
 4009TIP3   OH233585   0.287   1.140   7.769  0.1428  0.5495 -0.1099
 4009TIP3    H133586   0.367   1.191   7.781  0.2431  0.5344 -0.6984
 4009TIP3    H233587   0.312   1.072   7.706 -0.1139  0.0543  0.3190
 4010TIP3   OH233588   3.201   0.020   7.441 -0.3352 -0.3890  0.3989
 4010TIP3    H133589   3.178  -0.005   7.352  0.1785 -1.0588  0.4473
 4010TIP3    H233590   3.260   0.094   7.431 -1.2575  0.3408  0.2299
 4011TIP3   OH233591   0.284   3.495   8.694  0.6249 -0.2966 -0.0669
 4011TIP3    H133592   0.348   3.425   8.700 -0.6560 -1.4230  1.1324
 4011TIP3    H233593   0.200   3.450   8.679  0.0210  1.0943 -1.1808
 4012TIP3   OH233594   3.111   4.014   0.520  0.3583  0.1837 -0.2039
 4012TIP3    H133595   3.034   3.962   0.543  1.5069 -1.0866  0.9740
 4012TIP3    H233596   3.141   3.977   0.437 -0.9214  1.4656 -1.2947
 4013TIP3   OH233597   1.410   4.007   6.880 -0.1584  0.5173 -0.5880
 4013TIP3    H133598   1.499   4.033   6.859 -0.9712  1.4982 -3.3405
 4013TIP3    H233599   1.393   3.931   6.824 -0.6165 -0.5717  0.9688
 4014TIP3   OH233600   5.830   0.411   1.168 -0.4415  0.0417  0.0429
 4014TIP3    H133601   5.760   0.422   1.104 -1.6440 -1.9736  0.8832
 4014TIP3    H233602   5.903   0.375   1.118 -0.9423 -0.3360 -0.4351
 4015TIP3   OH233603   1.317   5.255   7.729 -0.1080  0.0850 -0.2418
 4015TIP3    H133604   1.298   5.338   7.686 -1.1779  0.7371  1.3950
 4015TIP3    H233605   1.325   5.192   7.657 -3.2408  0.8347 -1.4211
 4016TIP3   OH233606   5.508   4.705   7.781  0.1264  0.2637 -0.0754
 4016TIP3    H133607   5.545   4.631   7.829 -0.5552 -1.0961 -1.5827
 4016TIP3    H233608   5.568   4.777   7.799 -0.0526 -0.1472  2.7615
 4017TIP3   OH233609   0.553   0.668   6.707 -0.0164 -0.0101  0.1049
 4017TIP3    H133610   0.579   0.576   6.715 -0.4752 -0.0535  1.3666
 4017TIP3    H233611   0.458   0.667   6.722 -0.2921  0.4949 -1.4224
 4018TIP3   OH233612   0.291   5.505   0.514 -0.0787 -0.1191  0.3835
 4018TIP3    H133613   0.223   5.449   0.550 -0.4171  1.6862  2.8483
 4018TIP3    H233614   0.368   5.449   0.509 -1.7470 -2.3971 -3.1231
 4019TIP3   OH233615   5.833   5.168   0.168 -0.6744 -0.3433  0.6790
 4019TIP3    H133616   5.800   5.079   0.183 -0.2898 -0.4179  1.1246
 4019TIP3    H233617   5.832   5.178   0.073 -2.0615 -0.2996  0.6766
 4020TIP3   OH233618   1.200   2.002   1.205  0.7179 -0.4418  0.5317
 4020TIP3    H133619   1.181   1.962   1.290  1.3721  0.5386  1.1598
 4020TIP3    H233620   1.267   2.067   1.224 -0.3924  1.0379 -0.4349
 4021TIP3   OH233621   2.376   0.085   1.054  0.3749 -0.1727 -0.0619
 4021TIP3    H133622   2.415   0.152   1.110 -0.3051  1.4905 -1.4955
 4021TIP3    H233623   2.299   0.126   1.016 -1.0199 -2.3243  0.2196
 4022TIP3   OH233624   4.852   1.050   7.612 -0.1711  0.5662 -0.1256
 4022TIP3    H133625   4.859   1.104   7.533 -0.5952  0.1947 -0.4276
 4022TIP3    H233626   4.912   0.978   7.597 -1.4340 -0.3754 -0.8495
 4023TIP3   OH233627   3.768   2.781   0.583  0.1379 -0.3408 -0.3558
 4023TIP3    H133628   3.811   2.699   0.606  0.6967 -0.2976 -1.1983
 4023TIP3    H233629   3.839   2.845   0.577 -0.3910  0.4909  1.3633
 4024TIP3   OH233630   3.635   5.991   7.548 -0.2467 -0.0921 -0.0389
 4024TIP3    H133631   3.668   5.919   7.603 -0.4883 -0.3980 -0.2956
 4024TIP3    H233632   3.541   5.976   7.543 -0.4349  0.7589  0.6561
 4025TIP3   OH233633   2.853   5.514   8.747 -0.8123 -0.0971  0.5049
 4025TIP3    H133634   2.835   5.500   8.840  0.4882  1.2578  0.9944
 4025TIP3    H233635   2.829   5.606   8.732 -0.7873 -0.2395 -0.4357
 4026TIP3   OH233636   1.513   0.078   8.618  0.8152 -0.3626  0.0162
 4026TIP3    H133637   1.582   0.081   8.684  1.2573  2.1236 -0.4588
 4026TIP3    H233638   1.552   0.032   8.543  0.0619 -3.9227  1.5688
 4027TIP3   OH233639   3.249   3.609   7.810 -0.2355  0.2913  0.1107
 4027TIP3    H133640   3.190   3.673   7.771 -2.1329 -1.3241  0.1546
 4027TIP3    H233641   3.261   3.639   7.900  1.5483  2.2858 -0.7226
 4028TIP3   OH233642   4.515   1.481   0.833 -0.1660  0.6019 -0.2991
 4028TIP3    H133643   4.509   1.552   0.896 -1.4259  0.2411  0.0131
 4028TIP3    H233644   4.481   1.517   0.751 -0.7698  0.3760 -0.1505
 4029TIP3   OH233645   4.216   3.609   8.503  0.0642  0.0756  0.0266
 4029TIP3    H133646   4.193   3.534   8.449  0.6827  1.7319 -2.7336
 4029TIP3    H233647   4.245   3.571   8.586 -0.9550 -2.6131 -0.7499
 4030TIP3   OH233648   4.951   5.560   2.064 -0.0414 -0.0564 -0.0864
 4030TIP3    H133649   4.994   5.642   2.091 -1.2329  0.5516  0.0579
 4030TIP3    H233650   4.864   5.588   2.036 -0.5015 -1.3055  0.0726
 4031TIP3   OH233651   1.075   6.638   1.978  0.3721 -0.0627  0.4896
 4031TIP3    H133652   1.007   6.571   1.977  0.5259 -0.2179  0.3808
 4031TIP3    H233653   1.128   6.617   2.055  0.0556  0.3048  0.8167
 4032TIP3   OH233654   2.842   0.260   1.060  0.0987  0.3304 -0.5583
 4032TIP3    H133655   2.782   0.297   1.125  0.2973 -0.5356  0.1322
 4032TIP3    H233656   2.802   0.177   1.035  1.4501 -0.6945  0.5794
 4033TIP3   OH233657   5.430   4.950   7.585  0.0469 -0.0719  0.2271
 4033TIP3    H133658   5.443   4.968   7.678  0.7922  0.4686  0.0269
 4033TIP3    H233659   5.383   4.867   7.583 -2.6491  1.3405  1.1617
 4034TIP3   OH233660   1.354   3.027   8.197 -0.3380 -0.7337  0.4332
 4034TIP3    H133661   1.377   3.027   8.104 -0.4757 -1.3186  0.3959
 4034TIP3    H233662   1.345   3.120   8.220  1.3487 -0.5030  0.2745
 4035TIP3   OH233663   5.431   2.651   7.780  0.1745  0.3812  0.0029
 4035TIP3    H133664   5.499   2.649   7.848  0.0232 -0.5019  0.1383
 4035TIP3    H233665   5.418   2.744   7.762 -0.8496  0.7397  2.2535
 4036TIP3   OH233666   1.865   5.321   2.282 -0.0277 -0.0786  0.4267
 4036TIP3    H133667   1.849   5.295   2.192 -1.8223  0.4626  0.5517
 4036TIP3    H233668   1.915   5.402   2.275  3.0496 -1.8495  0.0166
 4037TIP3   OH233669   3.566   4.813   2.408  0.2202  0.1553  0.4079
 4037TIP3    H133670   3.607   4.770   2.484  1.8715  2.0172  0.6528
 4037TIP3    H233671   3.615   4.780   2.333  0.5891  0.5915  0.4575
 4038TIP3   OH233672   1.905   2.981   7.255  0.3241  0.4159 -0.6272
 4038TIP3    H133673   1.855   3.044   7.308 -0.5495 -0.3792 -0.4769
 4038TIP3    H233674   1.944   3.033   7.186  0.3618  1.2651  0.0156
 4039TIP3   OH233675   1.232   1.134   8.296  0.1885 -0.4173  0.4765
 4039TIP3    H133676   1.248   1.171   8.210  0.5293 -0.1065  0.6701
 4039TIP3    H233677   1.158   1.183   8.330 -0.0539 -0.6553  0.2932
 4040TIP3   OH233678   6.548   3.640   7.961 -0.0829 -0.0971 -0.4294
 4040TIP3    H133679   6.526   3.658   7.870 -0.2718 -1.0505 -0.5803
 4040TIP3    H233680   6.489   3.697   8.011  0.5356  0.9792 -0.8984
 4041TIP3   OH233681   2.703   2.666   0.137 -0.0524  0.3491  0.3457
 4041TIP3    H133682   2.787   2.635   0.172 -0.4041  0.5615  1.4170
 4041TIP3    H233683   2.646   2.672   0.214 -2.0114 -2.7487 -0.6763
 4042TIP3   OH233684   6.607   2.185   0.862  0.0392  0.4546 -0.5400
 4042TIP3    H133685   6.687   2.225   0.896 -0.9223  0.2244  2.2438
 4042TIP3    H233686   6.537   2.223   0.914 -1.4432 -1.0997 -1.2983
 4043TIP3   OH233687   2.629   3.330   0.747  0.0367  0.5863 -0.3162
 4043TIP3    H133688   2.547   3.288   0.723  0.2374  1.4372 -2.6833
 4043TIP3    H233689   2.612   3.369   0.833 -2.1043  0.9371 -0.8647
 4044TIP3   OH233690   5.400   1.898   2.138 -0.3530  0.3347 -0.5323
 4044TIP3    H133691   5.420   1.832   2.205 -1.8931  0.1537 -0.2060
 4044TIP3    H233692   5.439   1.979   2.172  0.9131 -0.2333 -0.5733
 4045TIP3   OH233693   3.077   1.868   0.574  0.4373 -0.4056 -0.5869
 4045TIP3    H133694   3.075   1.949   0.522  0.7927 -0.3829 -0.5648
 4045TIP3    H233695   3.057   1.799   0.510  1.2173 -0.4145 -0.8308
 4046TIP3   OH233696   3.776   0.116   2.692 -0.3110 -0.2820 -0.0914
 4046TIP3    H133697   3.710   0.178   2.661  0.2036 -0.1291 -0.8940
 4046TIP3    H233698   3.831   0.168   2.752 -0.3011 -0.1446 -0.2196
 4047TIP3   OH233699   1.501   6.162   2.573  0.0617  0.4303 -0.4571
 4047TIP3    H133700   1.555   6.123   2.641 -1.4850 -1.0558 -0.0297
 4047TIP3    H233701   1.439   6.218   2.621 -3.1726 -3.0441 -0.1030
 4048TIP3   OH233702   4.390   3.955   7.442 -0.0164 -0.0789 -0.0710
 4048TIP3    H133703   4.360   3.906   7.519  0.9863 -0.1906  0.2755
 4048TIP3    H233704   4.359   4.044   7.456 -0.9570 -0.3826 -0.1845
 4049TIP3   OH233705   5.069   1.059   0.284  0.1797  0.1434  0.1627
 4049TIP3    H133706   5.162   1.057   0.263  0.1877  0.2424  0.1884
 4049TIP3    H233707   5.040   1.147   0.259 -0.3248 -0.4790 -1.6180
 4050TIP3   OH233708   0.980   5.970   1.126  0.1084  0.0549  0.1215
 4050TIP3    H133709   0.912   5.936   1.068 -0.9523  1.8930  0.2030
 4050TIP3    H233710   0.965   6.065   1.128  3.7390  0.8035 -1.1969
 4051TIP3   OH233711   0.856   2.694   2.762  0.1543 -0.0522  0.8258
 4051TIP3    H133712   0.924   2.633   2.735  0.7465  1.5217 -1.4856
 4051TIP3    H233713   0.778   2.640   2.775  0.1064 -1.1828 -3.1446
 4052TIP3   OH233714   2.465   0.007   0.285  0.0999 -0.5474  0.1464
 4052TIP3    H133715   2.441  -0.005   0.377  0.4141 -2.3322  0.0192
 4052TIP3    H233716   2.528  -0.062   0.268  0.5933  0.2190 -1.2326
 4053TIP3   OH233717   3.053   0.922   6.841 -0.8519  0.3720  0.6338
 4053TIP3    H133718   3.117   0.950   6.776 -1.1075  0.2176  0.3108
 4053TIP3    H233719   3.093   0.944   6.926  0.2943 -1.0934  0.5141
 4054TIP3   OH233720   0.148   2.300   7.131  0.4408 -0.4005  0.0884
 4054TIP3    H133721   0.168   2.242   7.204 -1.0171 -1.1257 -0.0634
 4054TIP3    H233722   0.194   2.262   7.057  0.3784 -0.7472  0.2247
 4055TIP3   OH233723   2.904   0.301   8.699  0.5295  0.4166 -0.0922
 4055TIP3    H133724   2.852   0.290   8.778  0.0493  0.6716 -0.3675
 4055TIP3    H233725   2.913   0.395   8.689 -3.1389  0.7117 -2.6731
 4056TIP3   OH233726   2.379   6.458   0.779  0.0278 -0.2856 -0.6401
 4056TIP3    H133727   2.348   6.544   0.807  0.5389 -0.2779 -0.0955
 4056TIP3    H233728   2.318   6.432   0.709  0.0464  0.6452 -1.0151
 4057TIP3   OH233729   2.288   3.236   2.459  0.2958  0.2454 -0.3550
 4057TIP3    H133730   2.330   3.269   2.538  0.9359 -0.5122 -0.3628
 4057TIP3    H233731   2.261   3.147   2.482  0.8925 -0.1470 -1.1183
 4058TIP3   OH233732   4.985   4.722   7.969 -0.2778 -0.2591 -0.0886
 4058TIP3    H133733   5.077   4.704   7.948 -0.1986  0.7140 -0.6562
 4058TIP3    H233734   4.989   4.799   8.025 -0.8557  2.0783 -2.9823
 4059TIP3   OH233735   2.219   5.581   8.190 -0.2793  0.2076  0.5238
 4059TIP3    H133736   2.294   5.596   8.248 -0.8511  0.8006  1.1321
 4059TIP3    H233737   2.174   5.666   8.187 -1.0685 -0.2086  0.3764
 4060TIP3   OH233738   2.957   5.551   1.868 -0.1980 -0.3554 -0.4854
 4060TIP3    H133739   2.933   5.642   1.888  2.2284 -0.0633  1.7367
 4060TIP3    H233740   2.899   5.498   1.922 -0.6824 -0.0592 -0.7103
 4061TIP3   OH233741   5.755   3.809   0.438  0.0920 -0.0678 -0.7516
 4061TIP3    H133742   5.697   3.825   0.512 -0.6576 -1.3912 -1.0289
 4061TIP3    H233743   5.711   3.850   0.364  0.4158  0.5060 -0.6296
 4062TIP3   OH233744   5.525   1.726   7.716 -0.0081 -0.7725  0.1637
 4062TIP3    H133745   5.502   1.666   7.645  0.4284 -1.0645  0.2651
 4062TIP3    H233746   5.557   1.804   7.671 -1.0237 -0.4219  0.0238
 4063TIP3   OH233747   6.361   4.435   2.250 -0.2031 -0.0203  0.3150
 4063TIP3    H133748   6.304   4.379   2.303 -0.5958 -0.2924 -0.3788
 4063TIP3    H233749   6.358   4.396   2.162 -2.6892  2.5550 -0.9204
 4064TIP3   OH233750   2.629   6.396   7.947 -0.6764 -0.2347  0.0054
 4064TIP3    H133751   2.714   6.439   7.958 -0.6144 -0.3119 -0.1562
 4064TIP3    H233752   2.593   6.391   8.035 -0.8179  0.4201 -0.0114
 4065TIP3   OH233753   3.065   4.753   2.571 -0.2669 -0.3197 -0.0284
 4065TIP3    H133754   3.103   4.800   2.497 -1.4098 -0.2225 -0.5689
 4065TIP3    H233755   2.971   4.756   2.556 -0.5378 -0.0716  1.5817
 4066TIP3   OH233756   0.477   3.801   2.304 -0.1983  0.1462 -0.1944
 4066TIP3    H133757   0.463   3.734   2.371 -0.8015 -0.3331 -0.7880
 4066TIP3    H233758   0.390   3.819   2.269  0.1138  0.3474 -0.8885
 4067TIP3   OH233759   3.069   5.030   0.921  0.4053 -0.0262  0.6980
 4067TIP3    H133760   3.111   5.035   1.006  3.4773  1.3179 -0.7285
 4067TIP3    H233761   3.040   5.119   0.902 -0.7923 -0.4282  0.5635
 4068TIP3   OH233762   1.146   2.927   0.793  0.1315 -0.0754  0.1757
 4068TIP3    H133763   1.089   2.852   0.809 -0.1024 -0.0987 -0.6932
 4068TIP3    H233764   1.101   2.976   0.724  0.3643  0.7728  0.6132
 4069TIP3   OH233765   0.074   1.765   2.551  0.5313  0.4270  0.1019
 4069TIP3    H133766  -0.000   1.704   2.548  0.8821 -0.0148  0.1987
 4069TIP3    H233767   0.040   1.846   2.514 -0.5033  0.7701  1.6865
 4070TIP3   OH233768   6.558   4.763   1.105 -0.1811 -0.4888  0.2290
 4070TIP3    H133769   6.571   4.784   1.012  0.5681 -0.8558  0.2468
 4070TIP3    H233770   6.596   4.837   1.152 -1.1978  0.0384  0.2435
 4071TIP3   OH233771   4.870   3.470   0.824  0.3051  0.0789  0.6705
 4071TIP3    H133772   4.901   3.560   0.811 -0.4254  0.5575  1.9741
 4071TIP3    H233773   4.926   3.416   0.769  0.5640  1.3652 -0.3780
 4072TIP3   OH233774   0.917   6.301   2.355  0.9261 -0.5787  0.3740
 4072TIP3    H133775   0.985   6.341   2.410  0.1171  2.7386 -0.7736
 4072TIP3    H233776   0.958   6.291   2.270  0.3217  0.5312 -0.0697
 4073TIP3   OH233777   5.237   3.522   0.307 -0.6047  0.0423  0.8937
 4073TIP3    H133778   5.198   3.600   0.268 -0.6661 -0.4599 -0.0771
 4073TIP3    H233779   5.327   3.548   0.327 -1.0959  0.8699  2.1404
 4074TIP3   OH233780   4.952   5.812   7.744 -0.5458 -0.1882 -0.4837
 4074TIP3    H133781   4.939   5.787   7.836  0.6267 -3.3367 -1.0651
 4074TIP3    H233782   4.984   5.732   7.702  0.0886  1.4902 -3.4108
 4075TIP3   OH233783   5.791   3.210   0.277 -0.3745 -0.1886 -0.0665
 4075TIP3    H133784   5.782   3.133   0.222  1.4602 -1.4301  1.2391
 4075TIP3    H233785   5.734   3.194   0.352  0.4069 -0.5763  0.4659
 4076TIP3   OH233786   0.707   0.259   1.266  0.6069  0.0444 -0.5294
 4076TIP3    H133787   0.729   0.166   1.273  3.1295  0.5891 -0.3979
 4076TIP3    H233788   0.714   0.279   1.173  0.3418  0.1761 -0.5235
 4077TIP3   OH233789   2.637   6.716   2.313  0.2715 -0.3362 -0.3379
 4077TIP3    H133790   2.712   6.670   2.275  0.4207 -1.3203  1.0580
 4077TIP3    H233791   2.674   6.770   2.382 -0.2330 -0.3744 -0.0273
 4078TIP3   OH233792   4.549   3.650   7.668  0.3332  0.5811 -0.1128
 4078TIP3    H133793   4.487   3.723   7.670 -1.5220 -0.9672  1.0309
 4078TIP3    H233794   4.497   3.573   7.689  2.1261 -1.1985 -1.7741
 4079TIP3   OH233795   6.320   6.720   1.640  0.0756 -0.0630  0.3742
 4079TIP3    H133796   6.231   6.695   1.666  0.3431 -0.7312  0.6944
 4079TIP3    H233797   6.364   6.741   1.723  0.0439  0.8574  0.1626
 4080TIP3   OH233798   1.253   0.911   1.854  0.0944 -0.4014 -0.0369
 4080TIP3    H133799   1.175   0.873   1.894  0.1140 -0.0407  0.3510
 4080TIP3    H233800   1.234   1.005   1.849  0.8353 -0.1836  0.8627
 4081TIP3   OH233801   2.031   4.873   1.310  0.1131 -0.1069  0.0040
 4081TIP3    H133802   2.076   4.851   1.392  1.1676 -1.4960 -0.8847
 4081TIP3    H233803   2.102   4.884   1.247 -0.5939  2.5659 -0.4118
 4082TIP3   OH233804   4.789   1.366   1.020 -0.4627 -0.1634 -0.6281
 4082TIP3    H133805   4.877   1.359   0.984 -1.1463  0.9963 -2.6930
 4082TIP3    H233806   4.800   1.353   1.115  1.8124 -0.5871 -0.9003
 4083TIP3   OH233807   4.971   3.525   7.611  0.6770 -0.1691 -0.0849
 4083TIP3    H133808   4.955   3.538   7.704  0.6486 -0.9675  0.0316
 4083TIP3    H233809   5.042   3.585   7.590 -0.3236  1.1235  0.0984
 4084TIP3   OH233810   2.101   4.087   7.135  0.1905  0.1238 -0.2589
 4084TIP3    H133811   2.173   4.036   7.173 -0.5685 -0.8623 -0.1188
 4084TIP3    H233812   2.131   4.178   7.141  0.4000 -0.0536  2.0475
 4085TIP3   OH233813   3.778   5.352   0.219 -0.2075  0.5225 -0.4775
 4085TIP3    H133814   3.766   5.301   0.299  3.7479  0.1550  0.0946
 4085TIP3    H233815   3.766   5.289   0.148  1.0564 -0.3777  0.0790
 4086TIP3   OH233816   1.792   4.263   2.086 -0.3539 -0.0969 -0.3619
 4086TIP3    H133817   1.806   4.173   2.114 -1.7653  0.0393  0.9273
 4086TIP3    H233818   1.872   4.309   2.112 -0.7785 -0.4137  1.7372
 4087TIP3   OH233819   1.613   4.195   0.892  0.0699 -0.0343  0.0854
 4087TIP3    H133820   1.696   4.169   0.852 -0.6659  0.1222 -1.6372
 4087TIP3    H233821   1.560   4.116   0.892 -0.5705  0.3690 -0.9691
 4088TIP3   OH233822   0.479   4.219   1.189  0.7298  0.1040 -0.3684
 4088TIP3    H133823   0.575   4.209   1.188  0.8230  0.3453  1.9212
 4088TIP3    H233824   0.454   4.199   1.279 -1.5176 -0.9303 -1.1650
 4089TIP3   OH233825   6.307   0.768   0.657  0.0720 -0.1761  0.1338
 4089TIP3    H133826   6.248   0.784   0.731 -1.4712  2.5763 -1.5366
 4089TIP3    H233827   6.355   0.849   0.646  1.7616 -1.2312 -0.6933
 4090TIP3   OH233828   5.233   1.912   1.164  0.1658 -0.4268 -0.1198
 4090TIP3    H133829   5.327   1.913   1.149  0.1394 -1.8389 -0.4982
 4090TIP3    H233830   5.221   1.962   1.245  1.0051  1.4941 -1.1262
 4091TIP3   OH233831   4.524   4.725   1.009 -0.6839 -0.4850 -0.2286
 4091TIP3    H133832   4.433   4.722   0.980 -0.1506  0.5642 -2.1930
 4091TIP3    H233833   4.560   4.804   0.968  1.3247 -1.3124 -0.1819
 4092TIP3   OH233834   2.618   1.660   2.005  0.7305 -0.0101 -0.2324
 4092TIP3    H133835   2.593   1.748   2.032  0.3393  0.3901 -1.7578
 4092TIP3    H233836   2.648   1.617   2.085 -2.3594  0.3507  1.2781
 4093TIP3   OH233837   6.402   0.902   1.683  0.5575 -0.1435 -0.2775
 4093TIP3    H133838   6.484   0.916   1.729  1.4875 -0.6293 -1.7173
 4093TIP3    H233839   6.336   0.899   1.752  1.8237 -0.4066  0.9721
 4094TIP3   OH233840   1.092   5.494   8.064 -0.3541 -0.5223  0.2237
 4094TIP3    H133841   1.155   5.525   8.000 -0.0046 -0.3807  0.6320
 4094TIP3    H233842   1.145   5.459   8.135 -0.7397 -0.8278  0.3620
 4095TIP3   OH233843   1.122   1.000   0.870 -0.5390  0.6653 -0.3860
 4095TIP3    H133844   1.138   1.093   0.885 -0.3556  0.6455 -0.4588
 4095TIP3    H233845   1.102   0.993   0.777  0.4322  0.5012 -0.5943
 4096TIP3   OH233846   1.454   6.769   7.109 -0.5271  0.0162  0.4585
 4096TIP3    H133847   1.521   6.827   7.146  0.4043 -0.2167 -0.8206
 4096TIP3    H233848   1.448   6.795   7.017  0.3219 -2.2715 -0.2938
 4097TIP3   OH233849   0.298   2.141   1.938  0.6346 -0.0576  0.1251
 4097TIP3    H133850   0.351   2.211   1.901 -0.3685 -0.1343 -1.5694
 4097TIP3    H233851   0.251   2.182   2.010  1.7059  0.4293  0.5611
 4098TIP3   OH233852   2.365   3.023   8.743  0.1891  0.3568  0.2018
 4098TIP3    H133853   2.284   2.999   8.697  0.3133  1.5344 -0.6664
 4098TIP3    H233854   2.429   2.957   8.715 -0.8437 -1.6421  2.2323
 4099TIP3   OH233855   4.363   6.179   8.357 -0.7467  0.6068 -0.1192
 4099TIP3    H133856   4.416   6.107   8.391 -0.3717  1.4604  1.1846
 4099TIP3    H233857   4.394   6.192   8.268 -0.2345 -0.2868 -0.0871
 4100TIP3   OH233858   5.677   2.258   0.237 -0.2528  0.3818 -0.1730
 4100TIP3    H133859   5.615   2.237   0.306 -0.6037 -2.3395 -1.1718
 4100TIP3    H233860   5.623   2.292   0.166  0.1056  3.1627  0.7918
 4101TIP3   OH233861   0.104   2.215   0.919 -0.4388 -0.0439  0.7565
 4101TIP3    H133862   0.187   2.257   0.941  1.0878 -2.0350 -0.8048
 4101TIP3    H233863   0.089   2.237   0.827 -2.9933  2.2479  1.5557
 4102TIP3   OH233864   3.809   0.986   1.827  0.0252  0.5202 -0.3356
 4102TIP3    H133865   3.850   0.903   1.852  0.8863  1.2432  0.7790
 4102TIP3    H233866   3.854   1.010   1.746  1.7314  1.1801  0.7385
 4103TIP3   OH233867   6.139   3.386   7.601 -0.4390 -0.2486  0.1945
 4103TIP3    H133868   6.118   3.370   7.509  1.3826 -1.1879 -0.1059
 4103TIP3    H233869   6.094   3.316   7.648 -1.0389 -0.0076 -0.0031
 4104TIP3   OH233870   2.709   1.613   7.416  0.1057  0.1474 -0.7914
 4104TIP3    H133871   2.646   1.643   7.351  0.3620  1.0448 -0.6440
 4104TIP3    H233872   2.787   1.591   7.364  0.3477  0.9648 -0.8036
 4105TIP3   OH233873   4.199   2.288   2.526  0.4438  0.3439  0.2811
 4105TIP3    H133874   4.281   2.319   2.564 -0.4036 -0.1625  2.7058
 4105TIP3    H233875   4.146   2.366   2.513  1.3964  0.7103 -1.6274
 4106TIP3   OH233876   2.445   0.447   8.517  0.2934  0.3450 -0.4875
 4106TIP3    H133877   2.434   0.352   8.512  1.6152  0.0900  0.7086
 4106TIP3    H233878   2.426   0.478   8.429 -1.8895 -0.7992 -0.4980
 4107TIP3   OH233879   0.691   3.505   7.519  0.3303 -0.1231  0.0822
 4107TIP3    H133880   0.634   3.480   7.447 -0.1378 -1.1481  0.7772
 4107TIP3    H233881   0.779   3.493   7.485  0.1173 -1.5120 -0.0425
 4108TIP3   OH233882   0.605   0.252   0.383 -0.2360  0.6538 -0.1698
 4108TIP3    H133883   0.631   0.166   0.350 -2.2249  0.0862 -0.3910
 4108TIP3    H233884   0.542   0.284   0.319  0.0870  2.0675  0.1864
 4109TIP3   OH233885   0.459   5.352   7.304  0.2504  0.0605  0.0447
 4109TIP3    H133886   0.439   5.287   7.236 -1.6606  0.4914  0.1338
 4109TIP3    H233887   0.467   5.435   7.256  1.7637 -0.0614  0.0424
 4110TIP3   OH233888   0.627   4.114   2.686 -0.2391 -0.4432 -0.6082
 4110TIP3    H133889   0.609   4.196   2.732  0.3643 -1.0492  0.7576
 4110TIP3    H233890   0.698   4.135   2.625  0.2958 -0.0712  0.1309
 4111TIP3   OH233891   5.666   5.637   3.104 -0.9286  0.5665 -0.6975
 4111TIP3    H133892   5.629   5.575   3.041 -0.8040  0.4021 -0.6117
 4111TIP3    H233893   5.709   5.581   3.170 -2.2447  0.6692  0.2939
 4112TIP3   OH233894   3.278   4.614   8.097 -0.4665  0.8597 -0.1569
 4112TIP3    H133895   3.257   4.584   8.008  0.4031 -0.3313  0.0200
 4112TIP3    H233896   3.256   4.539   8.153  1.8552  0.4514  0.2894
 4113TIP3   OH233897   4.683   2.861   1.800  0.3374 -0.0401 -0.3009
 4113TIP3    H133898   4.662   2.833   1.710  1.4421  0.7907 -0.8397
 4113TIP3    H233899   4.738   2.790   1.834  0.7469  0.1107 -0.6416
 4114TIP3   OH233900   5.525   6.005   7.544 -0.1757 -0.1503  0.1301
 4114TIP3    H133901   5.590   5.944   7.509  0.8269  0.7094  0.4129
 4114TIP3    H233902   5.566   6.039   7.624 -1.2590 -0.0555  0.6562
 4115TIP3   OH233903   3.737   2.681   1.036 -0.5607 -0.5007 -0.2768
 4115TIP3    H133904   3.661   2.644   1.081 -0.3944  1.4859  1.8755
 4115TIP3    H233905   3.717   2.775   1.029  1.3950 -0.0364 -0.2330
 4116TIP3   OH233906   1.972   1.018   0.589  0.3475  0.0418  0.6199
 4116TIP3    H133907   1.929   1.104   0.590 -0.3345 -0.2880  0.4408
 4116TIP3    H233908   2.062   1.036   0.561 -0.1723  0.5302 -0.8198
 4117TIP3   OH233909   2.110   6.163   1.739 -0.3106  0.6144 -0.2655
 4117TIP3    H133910   2.015   6.174   1.739 -0.2546  1.0820 -0.7679
 4117TIP3    H233911   2.130   6.132   1.651  0.2738  2.8807 -0.9809
 4118TIP3   OH233912   3.602   3.348   0.333  0.9368  0.0608 -0.0479
 4118TIP3    H133913   3.648   3.290   0.394 -2.0916 -1.1401  1.3160
 4118TIP3    H233914   3.578   3.292   0.259 -0.4641 -0.0303  0.4472
 4119TIP3   OH233915   3.028   2.337   8.279 -0.0868 -0.7175  0.1490
 4119TIP3    H133916   3.080   2.256   8.285 -0.5852 -1.0024  0.7847
 4119TIP3    H233917   3.023   2.368   8.370  1.8845  1.1947 -0.3204
 4120TIP3   OH233918   4.372   5.346   3.124 -0.7053  0.1102 -0.1511
 4120TIP3    H133919   4.440   5.399   3.084  0.1236 -0.7066  0.1587
 4120TIP3    H233920   4.343   5.397   3.200 -1.2209  0.9533 -0.8906
 4121TIP3   OH233921   2.712   2.858   7.766 -0.8917  0.1203 -0.5375
 4121TIP3    H133922   2.619   2.864   7.785 -0.4481  1.1166  1.5596
 4121TIP3    H233923   2.735   2.944   7.731 -0.7009 -0.0197 -0.7568
 4122TIP3   OH233924   4.990   0.721   1.183 -0.6248 -0.2063  0.4926
 4122TIP3    H133925   5.034   0.727   1.268 -0.3041  1.8326  0.2461
 4122TIP3    H233926   4.908   0.676   1.201 -0.1069 -0.7241  1.6773
 4123TIP3   OH233927   0.129   3.205   6.769  0.1381 -0.1169  0.7706
 4123TIP3    H133928   0.060   3.168   6.713 -0.0876 -2.1810  2.2866
 4123TIP3    H233929   0.082   3.235   6.847  0.6907  0.7106  0.7916
 4124TIP3   OH233930   3.638   0.160   1.502 -0.0980  0.1423 -0.1042
 4124TIP3    H133931   3.672   0.073   1.481 -0.2886 -0.0255  0.2678
 4124TIP3    H233932   3.715   0.217   1.500 -0.0407  0.0497 -0.7886
 4125TIP3   OH233933   1.539   1.854   1.735 -0.1943 -0.2610 -0.0768
 4125TIP3    H133934   1.618   1.843   1.683 -0.3547  0.5514 -0.5106
 4125TIP3    H233935   1.481   1.907   1.680 -0.8145 -0.3612  0.4651
 4126TIP3   OH233936   3.063   4.860   0.442  0.0548 -0.0758  0.1613
 4126TIP3    H133937   3.084   4.953   0.447  0.1091 -0.1179  0.9239
 4126TIP3    H233938   3.030   4.839   0.530 -1.5518 -0.3943 -0.4887
 4127TIP3   OH233939   4.919   3.698   8.705  0.3262 -0.2381  0.1752
 4127TIP3    H133940   5.004   3.656   8.692 -0.1214 -1.8688  2.1072
 4127TIP3    H233941   4.935   3.791   8.689  2.0379 -0.7339 -1.2495
 4128TIP3   OH233942   6.464   1.424   8.233  0.7187 -0.1144 -0.2902
 4128TIP3    H133943   6.416   1.436   8.152 -0.5450  2.0599  0.6862
 4128TIP3    H233944   6.397   1.423   8.302  1.7478 -1.8399  0.7775
 4129TIP3   OH233945   4.209   6.166   1.986 -0.1017  0.1789 -0.4218
 4129TIP3    H133946   4.294   6.152   2.028 -0.5172  0.3280  0.5052
 4129TIP3    H233947   4.170   6.078   1.981 -0.0471  0.1595 -0.4945
 4130TIP3   OH233948   2.431   6.623   8.506  0.8582 -0.3622 -0.2269
 4130TIP3    H133949   2.459   6.635   8.597  0.9987 -1.6114 -0.0841
 4130TIP3    H233950   2.408   6.530   8.500  0.1060 -0.1317 -1.2717
 4131TIP3   OH233951   1.605   2.554   7.471 -0.1774  0.0084 -0.7148
 4131TIP3    H133952   1.677   2.614   7.450  1.5441 -1.9279 -0.5531
 4131TIP3    H233953   1.575   2.521   7.386  1.4907 -1.7884 -0.6698
 4132TIP3   OH233954   1.783   5.354   1.020  0.6095 -0.5465 -0.1814
 4132TIP3    H133955   1.864   5.357   1.071  0.4898 -0.9612  0.0317
 4132TIP3    H233956   1.752   5.264   1.028 -0.6847 -0.0226  1.0101
 4133TIP3   OH233957   6.793   5.009   8.513  0.1033 -0.3153 -0.4775
 4133TIP3    H133958   6.832   5.086   8.554 -0.9751 -0.7834  1.5687
 4133TIP3    H233959   6.824   5.011   8.422  0.6182  2.1512 -0.3068
 4134TIP3   OH233960   4.794   3.532   2.772  0.1634 -0.4017 -0.1050
 4134TIP3    H133961   4.868   3.535   2.832  0.4250  2.7406 -0.4162
 4134TIP3    H233962   4.718   3.518   2.828  0.5966  0.6273  0.7732
 4135TIP3   OH233963   6.460   3.558   6.668  0.6296 -0.2060  0.1082
 4135TIP3    H133964   6.512   3.480   6.689  0.5424 -0.4712 -0.6306
 4135TIP3    H233965   6.484   3.622   6.736  0.5166 -0.9505  0.8644
 4136TIP3   OH233966   2.469   5.160   1.782 -0.4098 -0.6707  0.2103
 4136TIP3    H133967   2.459   5.080   1.730  1.9983 -0.7033 -0.3406
 4136TIP3    H233968   2.463   5.231   1.719 -0.5296 -0.5406  0.3680
 4137TIP3   OH233969   4.568   3.806   0.419 -0.0709 -0.5901  0.0296
 4137TIP3    H133970   4.517   3.755   0.356  0.2241 -0.2935 -0.4507
 4137TIP3    H233971   4.654   3.765   0.419 -0.2909 -1.0694  0.8166
 4138TIP3   OH233972   2.905   6.694   0.583 -0.1607  0.1609 -0.8275
 4138TIP3    H133973   2.970   6.659   0.522 -0.4768  1.3049 -1.8569
 4138TIP3    H233974   2.830   6.636   0.573  1.2471 -2.3605  1.7727
 4139TIP3   OH233975   0.847   3.310   0.503  0.0940 -0.2235 -0.0596
 4139TIP3    H133976   0.886   3.395   0.481 -0.5632  0.8858  2.6198
 4139TIP3    H233977   0.770   3.304   0.447 -0.2815  1.3604  0.2122
 4140TIP3   OH233978   1.548   3.849   0.536 -0.2711 -0.5459  0.1095
 4140TIP3    H133979   1.573   3.824   0.625 -1.9911 -0.3582  0.6825
 4140TIP3    H233980   1.603   3.924   0.515  0.0453 -0.4955  1.0832
 4141TIP3   OH233981   4.615   0.478   1.487 -0.8164 -0.5237 -0.2289
 4141TIP3    H133982   4.592   0.563   1.523  0.4215 -0.3129  0.1188
 4141TIP3    H233983   4.534   0.427   1.491 -1.0775 -0.0454  1.5505
 4142TIP3   OH233984   5.921   6.368   0.994  0.2677  0.3603 -0.6495
 4142TIP3    H133985   5.954   6.416   1.069  0.8230 -0.4029 -0.3967
 4142TIP3    H233986   5.891   6.436   0.934  1.0899  1.0298 -0.3278
 4143TIP3   OH233987   1.365   4.896   2.140 -0.2149  0.1472  0.1140
 4143TIP3    H133988   1.421   4.824   2.112  0.4189  0.4708  0.5260
 4143TIP3    H233989   1.410   4.935   2.214 -0.9821  0.4328  0.4431
 4144TIP3   OH233990   0.175   1.210   1.594 -0.4040 -0.0043 -0.3379
 4144TIP3    H133991   0.130   1.287   1.627  0.9853  0.4953  0.4613
 4144TIP3    H233992   0.267   1.225   1.615 -0.1170 -1.9584  0.0146
 4145TIP3   OH233993   2.761   1.352   8.058  0.1188 -0.3693 -0.7459
 4145TIP3    H133994   2.830   1.412   8.084 -2.4638  2.6261 -0.2813
 4145TIP3    H233995   2.758   1.359   7.962  1.5341 -1.8936 -0.9419
 4146TIP3   OH233996   5.317   6.240   2.120  0.4818 -0.1910  0.3029
 4146TIP3    H133997   5.246   6.201   2.170  0.2694  1.7784  1.6580
 4146TIP3    H233998   5.379   6.272   2.186  1.5803  0.0436 -0.7819
 4147TIP3   OH233999   1.411   2.786   0.336 -0.2187  0.5607 -0.4385
 4147TIP3    H134000   1.390   2.723   0.404 -0.9509  1.5770  0.3105
 4147TIP3    H234001   1.415   2.735   0.256 -2.7475 -0.1794 -0.1824
 4148TIP3   OH234002   6.197   1.374   0.913  0.0616 -0.2119 -0.4887
 4148TIP3    H134003   6.250   1.311   0.864  2.3028  0.0137  1.4284
 4148TIP3    H234004   6.256   1.405   0.982 -2.1717  1.1879  0.9066
 4149TIP3   OH234005   5.471   1.491   1.631  0.3240  0.6556  0.0335
 4149TIP3    H134006   5.536   1.526   1.692  0.2263 -0.7399  1.0010
 4149TIP3    H234007   5.500   1.402   1.614 -0.9795  0.2157 -0.0107
 4150TIP3   OH234008   2.967   1.276   7.379  0.1494 -0.0750  0.5042
 4150TIP3    H134009   2.895   1.337   7.366 -1.6930 -1.6125  2.7717
 4150TIP3    H234010   3.010   1.272   7.293 -1.2179  2.3475 -0.4097
 4151TIP3   OH234011   2.671   1.099   2.497 -0.0336 -0.0485  0.2276
 4151TIP3    H134012   2.638   1.067   2.413  1.6099 -0.3779 -0.3215
 4151TIP3    H234013   2.735   1.033   2.524 -0.5911  0.0112  1.7965
 4152TIP3   OH234014   5.995   6.670   0.095 -0.0058  0.2221  0.3091
 4152TIP3    H134015   6.055   6.598   0.075 -0.9966 -0.6149  0.2698
 4152TIP3    H234016   5.990   6.672   0.190 -0.3741 -0.0885  0.2944
 4153TIP3   OH234017   4.789   2.154   8.184 -0.2542  0.1422  0.2811
 4153TIP3    H134018   4.698   2.154   8.214 -0.8602 -0.1651 -1.4072
 4153TIP3    H234019   4.795   2.231   8.126  0.3031 -0.3188 -0.2898
 4154TIP3   OH234020   4.134   3.051   2.018 -0.0814  0.2417  0.0986
 4154TIP3    H134021   4.158   3.144   2.013 -1.1369  0.4736 -0.8921
 4154TIP3    H234022   4.113   3.026   1.928 -0.4322 -0.7968  0.4474
 4155TIP3   OH234023   4.118   1.494   1.593 -0.0242 -0.5072 -0.2771
 4155TIP3    H134024   4.085   1.420   1.644  1.4407 -0.3275  1.0057
 4155TIP3    H234025   4.156   1.553   1.658  0.4048  0.5497 -1.4367
 4156TIP3   OH234026   1.037   1.560   2.575  0.2753  0.7420 -0.1388
 4156TIP3    H134027   1.041   1.550   2.670 -0.6232  0.2645 -0.1385
 4156TIP3    H234028   0.948   1.533   2.552  0.4585  0.9260 -1.1095
 4157TIP3   OH234029   2.454   3.337   0.354  0.6607  0.1002 -0.2027
 4157TIP3    H134030   2.500   3.329   0.437 -1.1267 -0.3665  0.7895
 4157TIP3    H234031   2.459   3.250   0.315 -2.6938 -1.1901  1.8093
 4158TIP3   OH234032   1.197   4.426   6.912  0.4201  0.3250 -0.5874
 4158TIP3    H134033   1.134   4.466   6.853  0.1183  0.2984 -0.2858
 4158TIP3    H234034   1.282   4.440   6.870  0.2973  1.0953 -0.5838
 4159TIP3   OH234035   0.154   4.469   1.125  0.2722  0.4234 -0.3545
 4159TIP3    H134036   0.184   4.508   1.043 -0.4267 -1.1091 -1.3797
 4159TIP3    H234037   0.144   4.376   1.106 -0.2023  0.0755  1.3907
 4160TIP3   OH234038   1.143   6.699   7.696  0.1427  0.5677  0.0468
 4160TIP3    H134039   1.052   6.675   7.676  0.1926  0.0323  0.4434
 4160TIP3    H234040   1.137   6.745   7.780 -0.1290  3.2390 -1.3256
 4161TIP3   OH234041   2.376   2.488   2.169  0.4277 -0.4505 -0.4114
 4161TIP3    H134042   2.417   2.438   2.240  0.3110 -0.5469 -0.4121
 4161TIP3    H234043   2.448   2.539   2.131  0.2945  0.4296  0.4718
 4162TIP3   OH234044   5.830   4.582   8.173 -0.0297  0.6712  0.0675
 4162TIP3    H134045   5.763   4.615   8.234 -1.4979  0.0876 -1.1716
 4162TIP3    H234046   5.910   4.582   8.225 -0.8065  2.1475  1.3850
 4163TIP3   OH234047   2.258   4.958   1.816 -0.1802  0.4381  0.2582
 4163TIP3    H134048   2.320   5.014   1.861 -0.4995  1.5280 -0.5974
 4163TIP3    H234049   2.194   4.934   1.883 -0.2004  1.3597  0.5911
 4164TIP3   OH234050   4.501   0.740   2.674  0.5239 -0.2363 -0.0489
 4164TIP3    H134051   4.586   0.697   2.683  0.5260 -0.0133  1.0966
 4164TIP3    H234052   4.437   0.673   2.699  0.4689  0.0851  0.7140
 4165TIP3   OH234053   2.961   2.059   8.705 -0.1886 -0.5108  0.0582
 4165TIP3    H134054   3.035   2.001   8.721  0.3549  0.3736  0.8366
 4165TIP3    H234055   2.962   2.075   8.610  0.3018 -0.9134 -0.0048
 4166TIP3   OH234056   2.538   1.028   2.975  0.5725  0.0216 -0.1975
 4166TIP3    H134057   2.473   0.964   3.004  0.3250  0.5916  0.5294
 4166TIP3    H234058   2.513   1.048   2.884 -2.7114  3.1039  1.1372
 4167TIP3   OH234059   5.631   2.741   7.486  0.3841  0.1705 -0.2041
 4167TIP3    H134060   5.593   2.659   7.518  2.6544 -0.0947  2.1382
 4167TIP3    H234061   5.666   2.719   7.400  1.6022 -1.6057  0.6794
 4168TIP3   OH234062   3.896   1.982   0.450  0.3827  0.0266  0.4736
 4168TIP3    H134063   3.871   1.967   0.541  0.8890 -2.1533  0.3165
 4168TIP3    H234064   3.823   1.948   0.399 -0.2747  2.0022  0.0148
 4169TIP3   OH234065   2.467   3.552   8.718  0.2004 -0.0496 -0.0026
 4169TIP3    H134066   2.525   3.627   8.707 -1.0732  0.9337 -0.3788
 4169TIP3    H234067   2.418   3.572   8.798  0.5412 -0.9630  0.4329
 4170TIP3   OH234068   0.362   4.353   8.107 -0.0808  0.6448  0.5202
 4170TIP3    H134069   0.323   4.358   8.194 -0.9043  3.2472  0.0981
 4170TIP3    H234070   0.348   4.263   8.080  0.5065 -0.3497  3.1806
 4171TIP3   OH234071   1.047   1.759   2.087  0.4690 -0.0069 -0.2286
 4171TIP3    H134072   1.074   1.710   2.164 -1.3329 -0.8174 -0.0599
 4171TIP3    H234073   1.026   1.692   2.021 -2.2052  0.4327  0.0673
 4172TIP3   OH234074   5.898   1.884   8.249 -0.0601  0.1103  0.2305
 4172TIP3    H134075   5.963   1.875   8.179 -0.5086 -0.2057 -0.1532
 4172TIP3    H234076   5.816   1.854   8.209 -0.3104 -0.1120  0.9054
 4173TIP3   OH234077   4.502   3.777   6.872 -0.2861  0.7316  0.4852
 4173TIP3    H134078   4.524   3.865   6.842 -1.6188  0.2569 -2.1229
 4173TIP3    H234079   4.571   3.756   6.935  0.7579  3.1482  0.2757
 4174TIP3   OH234080   0.371   5.574   1.369 -0.2453 -0.5133  0.2773
 4174TIP3    H134081   0.361   5.620   1.285  0.6412 -0.6052  0.1147
 4174TIP3    H234082   0.366   5.643   1.435 -0.2163 -0.3506  0.1112
 4175TIP3   OH234083   1.715   1.192   2.362 -0.5869  0.4555 -1.1174
 4175TIP3    H134084   1.785   1.222   2.304 -0.6114 -0.5252 -1.6743
 4175TIP3    H234085   1.729   1.097   2.368 -2.4194  0.0992 -1.9849
 4176TIP3   OH234086   6.187   0.745   8.223 -0.4710  0.0385 -0.2783
 4176TIP3    H134087   6.099   0.717   8.245 -1.0742  1.1520 -1.1454
 4176TIP3    H234088   6.175   0.812   8.155  1.0713 -0.3929 -1.0408
 4177TIP3   OH234089   2.037   4.032   3.148 -0.3894  0.6212 -0.6372
 4177TIP3    H134090   2.110   4.045   3.088 -0.6178 -2.3315 -1.7288
 4177TIP3    H234091   1.967   4.089   3.115  0.0576  0.3151 -2.1656
 4178TIP3   OH234092   4.102   4.600   0.110  0.1659  0.3121 -0.1396
 4178TIP3    H134093   4.018   4.626   0.147  0.2744  1.3998 -0.6038
 4178TIP3    H234094   4.139   4.681   0.077  0.3154 -0.5053 -2.1252
 4179TIP3   OH234095   0.193   4.381   7.702  0.3138  0.0662  0.0493
 4179TIP3    H134096   0.235   4.444   7.644  0.7165 -1.3196 -1.2416
 4179TIP3    H234097   0.235   4.395   7.786  1.4295  0.5476 -0.5596
 4180TIP3   OH234098   3.926   3.802   1.460  0.0025  0.1471 -0.3870
 4180TIP3    H134099   3.947   3.723   1.410 -0.2975 -0.3010  0.1776
 4180TIP3    H234100   3.850   3.778   1.512  0.1515  0.6816  0.0905
 4181TIP3   OH234101   5.212   3.662   7.849  0.0799 -0.2370  0.2124
 4181TIP3    H134102   5.282   3.607   7.815  0.1438 -0.2223  0.3205
 4181TIP3    H234103   5.208   3.736   7.789  1.5421  0.8232  1.3574
 4182TIP3   OH234104   5.970   4.143   8.418 -0.1824  0.4067 -0.1078
 4182TIP3    H134105   5.985   4.048   8.410 -0.1775  0.3604  0.4024
 4182TIP3    H234106   6.056   4.182   8.402 -0.3936  0.3912 -1.3467
 4183TIP3   OH234107   2.640   0.234   1.748  0.7663  0.2883  0.3678
 4183TIP3    H134108   2.602   0.231   1.836 -0.8964 -0.8452 -0.3319
 4183TIP3    H234109   2.655   0.143   1.725 -0.1617  0.4669 -1.0533
 4184TIP3   OH234110   1.348   0.894   7.817  0.3385 -0.3244 -0.6121
 4184TIP3    H134111   1.430   0.861   7.782  0.0339 -1.8469  0.0158
 4184TIP3    H234112   1.283   0.827   7.796 -0.4232  0.0960  0.2823
 4185TIP3   OH234113   2.081   3.845   1.585 -0.0248 -0.4510  0.0103
 4185TIP3    H134114   2.065   3.918   1.525  0.7795 -1.3195 -1.3239
 4185TIP3    H234115   2.132   3.783   1.534 -0.2131 -1.7175  1.2870
 4186TIP3   OH234116   3.754   5.523   8.707 -0.2778 -0.1003 -0.0866
 4186TIP3    H134117   3.770   5.573   8.627  2.5720 -0.7055 -0.0035
 4186TIP3    H234118   3.838   5.523   8.753 -1.4041 -1.1206  2.1565
 4187TIP3   OH234119   3.609   3.745   1.939 -0.2900  0.5317 -0.3042
 4187TIP3    H134120   3.539   3.756   2.003 -0.0663 -2.0448  0.4869
 4187TIP3    H234121   3.574   3.683   1.875  0.4930  0.9171 -1.1340
 4188TIP3   OH234122   1.639   0.032   6.859  0.4319  0.0205  0.0830
 4188TIP3    H134123   1.665   0.115   6.900  2.0536 -0.1371 -0.5437
 4188TIP3    H234124   1.710  -0.028   6.881 -0.9408 -1.3663  0.9071
 4189TIP3   OH234125   2.042   2.092   7.121 -0.7221  0.3737 -0.3283
 4189TIP3    H134126   2.046   2.149   7.044 -0.7720 -0.1268 -0.7091
 4189TIP3    H234127   1.991   2.017   7.091  0.8430 -0.7001 -0.3697
 4190TIP3   OH234128   4.337   4.913   2.007 -0.7344  0.0099 -0.0269
 4190TIP3    H134129   4.376   4.866   2.082 -3.8852 -1.1916  1.0123
 4190TIP3    H234130   4.325   4.845   1.941  0.5810  0.7558 -1.0678
 4191TIP3   OH234131   1.726   3.322   7.834  0.3654 -0.7157 -0.5702
 4191TIP3    H134132   1.722   3.264   7.910  0.1068  0.4735  0.3521
 4191TIP3    H234133   1.636   3.348   7.817  0.6552  1.2748  0.5543
 4192TIP3   OH234134   3.519   3.667   7.571  0.3750  0.4554 -0.3106
 4192TIP3    H134135   3.558   3.672   7.483  0.6319 -0.4071 -0.2497
 4192TIP3    H234136   3.491   3.757   7.589  0.9628  0.7874 -0.9830
 4193TIP3   OH234137   3.607   2.766   7.358 -0.5428 -0.1024 -1.1702
 4193TIP3    H134138   3.577   2.697   7.298 -1.3746 -0.5940 -0.2130
 4193TIP3    H234139   3.702   2.768   7.346 -0.6070 -0.7898 -1.8658
 4194TIP3   OH234140   0.121   3.540   7.237 -0.6180 -0.6012 -0.4947
 4194TIP3    H134141   0.114   3.588   7.154  0.7817  0.9675  0.2531
 4194TIP3    H234142   0.124   3.448   7.210 -0.3806 -0.1433 -2.1835
 4195TIP3   OH234143   2.193   2.840   8.360 -0.2303  0.4944 -0.1069
 4195TIP3    H134144   2.141   2.871   8.285 -1.5686  0.7464  0.8888
 4195TIP3    H234145   2.173   2.902   8.430 -2.1223 -1.9277  1.6247
 4196TIP3   OH234146   0.750   1.153   1.757 -0.0298  0.2270  0.3773
 4196TIP3    H134147   0.801   1.199   1.690 -0.2769  2.5015  1.6466
 4196TIP3    H234148   0.661   1.187   1.746 -0.4527 -0.7516  0.6983
 4197TIP3   OH234149   0.039   4.165   8.484 -0.2872  0.3425 -0.7562
 4197TIP3    H134150   0.036   4.188   8.391 -0.6314 -1.2355 -1.1791
 4197TIP3    H234151  -0.049   4.186   8.517  0.1771  1.9687 -0.4786
 4198TIP3   OH234152   3.502   0.585   7.527  0.0052 -0.4741 -0.3638
 4198TIP3    H134153   3.478   0.566   7.437  0.8926 -0.5370 -0.5951
 4198TIP3    H234154   3.548   0.507   7.557 -1.0737 -0.8205  0.4510
 4199TIP3   OH234155   0.859   5.032   6.665  0.5510 -0.1346  0.3251
 4199TIP3    H134156   0.952   5.047   6.680  0.4537  0.7500  0.0732
 4199TIP3    H234157   0.825   5.117   6.637 -0.3011 -0.4884  0.2632
 4200TIP3   OH234158   1.580   6.643   8.129  0.6423  0.1656 -0.1501
 4200TIP3    H134159   1.491   6.657   8.160  0.0883 -1.9303 -0.6477
 4200TIP3    H234160   1.572   6.573   8.064  2.5736  0.3816 -0.6844
 4201TIP3   OH234161   5.208   4.907   0.925  0.6652  0.0136  0.5995
 4201TIP3    H134162   5.264   4.914   1.002  0.3033  1.0968  0.7837
 4201TIP3    H234163   5.120   4.897   0.960  0.4141  1.1971  0.3579
 4202TIP3   OH234164   5.741   4.458   1.825 -0.5631  0.1465  0.4847
 4202TIP3    H134165   5.739   4.551   1.847  1.1559  0.2281  0.4445
 4202TIP3    H234166   5.717   4.455   1.732 -0.6099  0.5484  0.4845
 4203TIP3   OH234167   1.118   4.949   0.228 -0.0211 -0.0552 -0.2109
 4203TIP3    H134168   1.186   4.903   0.180  1.2008 -0.4852  1.8369
 4203TIP3    H234169   1.036   4.919   0.188  0.8988  0.7061 -2.9300
 4204TIP3   OH234170   0.549   5.501   7.731 -0.3822  0.0828  0.3607
 4204TIP3    H134171   0.552   5.515   7.637 -0.0942  0.3067  0.4017
 4204TIP3    H234172   0.604   5.424   7.746  1.7014  1.5650  0.6225
 4205TIP3   OH234173   5.449   2.274   1.802  0.7892  0.9672  0.0911
 4205TIP3    H134174   5.375   2.329   1.775  1.1872  1.3693 -0.1792
 4205TIP3    H234175   5.453   2.205   1.735  1.8923  2.0683 -1.0291
 4206TIP3   OH234176   5.230   5.510   7.936  0.0539 -0.0826  0.1885
 4206TIP3    H134177   5.280   5.578   7.889 -0.0755 -1.3393 -1.8989
 4206TIP3    H234178   5.294   5.469   7.994  0.4544  0.9083  0.4769
 4207TIP3   OH234179   4.987   6.458   7.190  0.0918  0.3423  0.5787
 4207TIP3    H134180   5.055   6.480   7.126 -0.9355 -0.7795 -0.9662
 4207TIP3    H234181   5.015   6.374   7.226 -0.9809 -0.6907 -0.8895
 4208TIP3   OH234182   5.576   4.228   8.757  0.4020  0.3487  0.3163
 4208TIP3    H134183   5.645   4.204   8.695 -0.0412  1.2473 -0.5426
 4208TIP3    H234184   5.603   4.313   8.792  0.7300 -0.2162  1.5046
 4209TIP3   OH234185   1.557   4.902   1.716  0.4453  0.5439 -1.1157
 4209TIP3    H134186   1.482   4.957   1.738 -0.0405 -0.1416 -1.0011
 4209TIP3    H234187   1.523   4.843   1.648  0.8229  0.0954 -0.9139
 4210TIP3   OH234188   5.416   3.860   8.483 -0.1926 -0.0258 -0.2386
 4210TIP3    H134189   5.466   3.788   8.444  0.2274  1.9104 -3.7369
 4210TIP3    H234190   5.325   3.833   8.476 -0.0250 -0.3705 -1.2970
 4211TIP3   OH234191   5.599   5.505   2.042  0.9508 -0.0995  0.3325
 4211TIP3    H134192   5.565   5.545   2.122  1.6989  0.1277  0.5473
 4211TIP3    H234193   5.576   5.567   1.973 -1.5060 -1.2293  0.0077
 4212TIP3   OH234194   0.830   4.607   2.317 -0.0592 -0.2461 -0.2770
 4212TIP3    H134195   0.834   4.619   2.412  1.8650 -3.2615  0.1319
 4212TIP3    H234196   0.907   4.654   2.284  0.7311 -1.2930  0.0029
 4213TIP3   OH234197   5.776   5.601   8.730  0.1945 -0.0396 -0.0650
 4213TIP3    H134198   5.731   5.676   8.770 -0.8263  0.3017 -1.7158
 4213TIP3    H234199   5.817   5.637   8.651  1.4087 -0.8335  0.1857
 4214TIP3   OH234200   0.853   4.130   0.531 -0.0084  0.0008  0.1521
 4214TIP3    H134201   0.802   4.076   0.470  0.0890  2.2281 -2.0724
 4214TIP3    H234202   0.944   4.117   0.503  0.2991 -0.7413  1.4096
 4215TIP3   OH234203   5.015   1.128   7.883  0.1388  0.1718  0.0235
 4215TIP3    H134204   4.980   1.095   7.800 -0.2206  1.1731 -0.2346
 4215TIP3    H234205   4.951   1.101   7.948 -0.7892  1.3945 -0.3545
 4216TIP3   OH234206   5.193   1.700   0.729 -0.0068  0.1349  0.1335
 4216TIP3    H134207   5.223   1.779   0.775 -0.6950  0.4403  0.0827
 4216TIP3    H234208   5.172   1.731   0.641  1.8664 -0.5604 -0.6021
 4217TIP3   OH234209   5.430   5.741   8.397  0.1188 -0.1641 -0.7849
 4217TIP3    H134210   5.397   5.794   8.469  0.0910 -0.2457 -0.7365
 4217TIP3    H234211   5.523   5.728   8.417  0.2364  0.2615 -1.0410
 4218TIP3   OH234212   1.708   3.388   1.638  0.5586 -0.2593  0.7617
 4218TIP3    H134213   1.646   3.358   1.571 -2.0375  0.5300  2.6143
 4218TIP3    H234214   1.745   3.469   1.602  1.0528 -1.0691 -0.6499
 4219TIP3   OH234215   5.718   3.440   2.067 -0.2034 -0.1949  0.1992
 4219TIP3    H134216   5.765   3.381   2.125  1.5372  1.4245  0.5107
 4219TIP3    H234217   5.757   3.425   1.980 -0.4303 -0.1800  0.0933
 4220TIP3   OH234218   0.121   6.308   0.612 -0.2155 -0.3856 -0.2262
 4220TIP3    H134219   0.064   6.384   0.617  0.5862  0.2373 -0.3668
 4220TIP3    H234220   0.103   6.269   0.526  0.0471  0.1967 -0.5499
 4221TIP3   OH234221   3.119   5.405   0.184  0.0540  0.1884 -0.1892
 4221TIP3    H134222   3.116   5.500   0.188 -0.9702  0.1440  0.5966
 4221TIP3    H234223   3.183   5.385   0.116  1.8768  1.4055  1.0829
 4222TIP3   OH234224   2.237   4.856   1.127 -0.0344 -0.4927  0.1259
 4222TIP3    H134225   2.199   4.810   1.053  0.8080 -0.4743 -0.3372
 4222TIP3    H234226   2.332   4.842   1.118  0.0486 -1.2429  1.6857
 4223TIP3   OH234227   4.072   0.467   0.488 -0.0670 -0.0259  0.4207
 4223TIP3    H134228   4.163   0.447   0.464  0.3184  0.4934  1.3925
 4223TIP3    H234229   4.038   0.384   0.520  0.6821  0.1840  1.8620
 4224TIP3   OH234230   5.428   5.346   7.073  0.4452  0.3539  0.2753
 4224TIP3    H134231   5.452   5.260   7.037 -0.3978  0.5450 -0.7891
 4224TIP3    H234232   5.387   5.327   7.157 -1.0394 -0.4142 -0.5926
 4225TIP3   OH234233   6.138   3.955   1.788  0.5544 -0.4304 -0.0450
 4225TIP3    H134234   6.187   4.028   1.751 -0.4230  0.0770 -0.4045
 4225TIP3    H234235   6.172   3.877   1.744  0.9438 -0.0748 -0.3708
 4226TIP3   OH234236   3.366   3.298   1.455  0.0257 -0.4866  0.3137
 4226TIP3    H134237   3.342   3.248   1.534  0.8680 -0.1657  0.7793
 4226TIP3    H234238   3.365   3.233   1.385 -1.6085 -0.6083  0.4124
 4227TIP3   OH234239   0.227   4.543   2.589  0.3549 -0.1506  0.2754
 4227TIP3    H134240   0.299   4.532   2.527 -1.3389 -0.0373 -1.8313
 4227TIP3    H234241   0.216   4.638   2.596 -0.0416 -0.1696 -0.0167
 4228TIP3   OH234242   4.993   3.039   0.286 -0.0215  0.0145  0.0477
 4228TIP3    H134243   5.044   3.101   0.234 -0.9971  1.3182  0.5856
 4228TIP3    H234244   5.048   2.961   0.291  2.3773  1.6382  1.3791
 4229TIP3   OH234245   6.347   1.992   0.308 -0.1302 -0.0358  0.2184
 4229TIP3    H134246   6.275   1.929   0.309 -1.1241  0.9642 -1.7423
 4229TIP3    H234247   6.332   2.043   0.228  2.2977  0.7521  0.1997
 4230TIP3   OH234248   2.634   4.847   7.827  0.0168 -0.9833  0.6251
 4230TIP3    H134249   2.663   4.915   7.766 -0.6719  1.6266  2.9771
 4230TIP3    H234250   2.541   4.834   7.807  0.3802 -2.0670 -0.4903
 4231TIP3   OH234251   4.689   1.244   0.611 -0.3093 -0.1511 -0.2487
 4231TIP3    H134252   4.643   1.223   0.692  2.6431  2.2872  2.3469
 4231TIP3    H234253   4.664   1.335   0.593  0.6142 -0.0218 -0.9284
 4232TIP3   OH234254   0.413   6.340   7.210 -0.6289  0.0156 -0.6227
 4232TIP3    H134255   0.418   6.244   7.209  3.4763  0.0290 -0.5690
 4232TIP3    H234256   0.426   6.365   7.118 -0.1635  0.4727 -0.4401
 4233TIP3   OH234257   1.770   5.988   1.992  0.1753 -0.0304 -0.2817
 4233TIP3    H134258   1.847   5.952   1.948 -0.0201 -0.1739 -0.5108
 4233TIP3    H234259   1.697   5.968   1.933  0.3245  2.7461 -1.5553
 4234TIP3   OH234260   0.744   0.321   0.878 -0.1863  0.4514  0.3395
 4234TIP3    H134261   0.775   0.231   0.871 -0.5814  0.3950 -0.9806
 4234TIP3    H234262   0.815   0.368   0.921  0.0162 -0.4844  1.0620
 4235TIP3   OH234263   4.734   0.831   7.897 -0.5285 -0.4601  0.2519
 4235TIP3    H134264   4.656   0.849   7.948 -1.1299 -2.0285 -0.0448
 4235TIP3    H234265   4.736   0.898   7.829 -1.6949 -0.4858  0.1850
 4236TIP3   OH234266   4.469   4.800   0.187 -0.1499  0.3514 -0.7650
 4236TIP3    H134267   4.483   4.714   0.147  0.3824  0.4412 -0.7823
 4236TIP3    H234268   4.475   4.783   0.281  0.8324  0.5057 -0.7876
 4237TIP3   OH234269   6.069   3.023   1.043 -0.0634  0.1597 -0.5181
 4237TIP3    H134270   6.034   3.098   0.993 -0.1534 -0.3388 -1.2258
 4237TIP3    H234271   6.133   3.062   1.103 -0.9077  0.9333 -0.0939
 4238TIP3   OH234272   0.378   6.226   2.088 -0.3949  0.1829 -0.4033
 4238TIP3    H134273   0.295   6.180   2.077 -0.1063 -0.4520 -0.0184
 4238TIP3    H234274   0.358   6.300   2.144 -0.1616 -1.6812  2.3272
 4239TIP3   OH234275   2.725   1.165   8.691 -0.5984 -0.2743  0.3459
 4239TIP3    H134276   2.659   1.124   8.635  0.2940 -0.0896 -0.8933
 4239TIP3    H234277   2.808   1.135   8.655  0.0850  2.3445 -0.4051
 4240TIP3   OH234278   5.075   4.715   2.197 -0.0249 -0.0358 -0.3340
 4240TIP3    H134279   5.129   4.726   2.275  0.9639 -0.8476 -0.8699
 4240TIP3    H234280   4.985   4.721   2.228  0.3682  0.4921  0.7264
 4241TIP3   OH234281   5.336   2.199   1.096 -0.1630  0.0359 -0.3252
 4241TIP3    H134282   5.424   2.190   1.059  0.7284 -1.2152  1.8508
 4241TIP3    H234283   5.346   2.266   1.164 -0.7036 -0.5622  0.3603
 4242TIP3   OH234284   4.983   4.697   1.676  0.4612  0.5955  0.2139
 4242TIP3    H134285   5.047   4.661   1.737 -0.5780 -1.3768  0.2038
 4242TIP3    H234286   5.025   4.775   1.640  2.2538  0.1532  1.2625
 4243TIP3   OH234287   2.587   4.032   2.243 -0.0953 -0.9918  0.3801
 4243TIP3    H134288   2.502   4.062   2.209 -0.0947 -1.1318  0.2548
 4243TIP3    H234289   2.576   4.034   2.338  0.0553 -0.1642  0.3847
 4244TIP3   OH234290   3.362   4.514   2.068  0.6516 -0.4366 -0.3161
 4244TIP3    H134291   3.267   4.517   2.055  0.6967  0.0183 -0.5555
 4244TIP3    H234292   3.374   4.540   2.160  0.5492 -0.4115 -0.3094
 4245TIP3   OH234293   4.006   4.738   8.550  0.0312  0.0585 -0.0862
 4245TIP3    H134294   3.960   4.681   8.612  0.2335  0.8477  0.8057
 4245TIP3    H234295   3.961   4.822   8.556  2.2693  1.2258  1.7070
 4246TIP3   OH234296   5.032   5.699   8.029 -0.0601 -0.2617  0.3977
 4246TIP3    H134297   5.102   5.642   7.996  0.9197  1.3854 -0.5312
 4246TIP3    H234298   5.078   5.776   8.062 -1.4241  0.8527 -0.1898
 4247TIP3   OH234299   3.910   3.315   8.639  0.0633  0.4510  0.3389
 4247TIP3    H134300   3.995   3.296   8.678 -0.0792 -2.0296 -0.4323
 4247TIP3    H234301   3.927   3.322   8.545 -0.6147 -0.2888  0.1554
 4248TIP3   OH234302   3.218   1.150   1.871  0.3133  0.1710 -0.1966
 4248TIP3    H134303   3.160   1.083   1.836  1.2429 -0.4703 -0.5663
 4248TIP3    H234304   3.306   1.113   1.860  0.8347  1.3895 -0.2615
 4249TIP3   OH234305   2.300   1.581   8.080  0.2078 -0.7318  0.3768
 4249TIP3    H134306   2.323   1.573   7.987  0.6644 -3.2801  0.6518
 4249TIP3    H234307   2.383   1.566   8.126 -0.0643  0.2718  1.2495
 4250TIP3   OH234308   2.149   2.898   0.576 -0.1137 -0.6385 -0.5899
 4250TIP3    H134309   2.098   2.817   0.574 -1.1554 -0.0322  0.2638
 4250TIP3    H234310   2.105   2.952   0.642  0.6911  0.5417 -0.9947
 4251TIP3   OH234311   4.890   6.196   0.059  0.1098 -0.0403  0.2912
 4251TIP3    H134312   4.956   6.204   0.128  0.9563  0.8217 -0.5630
 4251TIP3    H234313   4.833   6.125   0.087  0.9776 -0.3186  1.4202
 4252TIP3   OH234314   6.650   6.480   0.840  0.0271 -0.5010 -0.0327
 4252TIP3    H134315   6.601   6.402   0.815 -0.1277 -0.2393 -0.5669
 4252TIP3    H234316   6.700   6.504   0.762  0.8740 -0.6542  0.4449
 4253TIP3   OH234317   2.220   1.961   1.470  0.4155  0.2894  0.3940
 4253TIP3    H134318   2.315   1.968   1.477  0.3663  1.8404 -0.1310
 4253TIP3    H234319   2.187   1.992   1.554  0.3293  2.4288 -0.3709
 4254TIP3   OH234320   4.595   5.153   0.753 -0.0308 -0.1927  0.0160
 4254TIP3    H134321   4.559   5.241   0.749 -1.1289 -0.5821  0.8625
 4254TIP3    H234322   4.682   5.160   0.713  1.7235  2.1685  3.7329
 4255TIP3   OH234323   5.858   1.478   8.663 -0.1275  0.0256 -0.6141
 4255TIP3    H134324   5.853   1.460   8.757  1.6296  0.3576 -0.4075
 4255TIP3    H234325   5.852   1.392   8.622 -3.1993  0.0379 -0.4044
 4256TIP3   OH234326   0.537   6.759   7.254  0.5936 -0.6989 -0.2374
 4256TIP3    H134327   0.569   6.718   7.174  0.4930  0.6113 -0.9716
 4256TIP3    H234328   0.583   6.843   7.258 -1.4146  0.4776 -0.4055
 4257TIP3   OH234329   6.208   3.852   2.298 -0.0360 -0.5203  0.2244
 4257TIP3    H134330   6.278   3.916   2.286  1.0130 -1.9003 -1.4991
 4257TIP3    H234331   6.253   3.771   2.323 -1.3862 -0.5078  3.0720
 4258TIP3   OH234332   4.626   0.400   0.999  0.1381 -0.4227 -0.3919
 4258TIP3    H134333   4.684   0.431   0.929  0.9423  0.1778  0.5273
 4258TIP3    H234334   4.569   0.474   1.018  1.6623  0.3846  1.3816
 4259TIP3   OH234335   6.153   5.516   0.507  0.1291  0.0139  0.5030
 4259TIP3    H134336   6.167   5.542   0.416  0.4940 -3.5537 -0.6001
 4259TIP3    H234337   6.061   5.488   0.510  0.4341 -0.9661  0.9061
 4260TIP3   OH234338   0.354   2.428   1.767 -0.2196 -0.8036  0.0051
 4260TIP3    H134339   0.449   2.419   1.771 -0.2662 -1.4358 -0.1537
 4260TIP3    H234340   0.332   2.482   1.842  0.5900  2.3144 -1.8385
 4261TIP3   OH234341   0.051   2.811   0.006  0.0297  0.8923 -0.6688
 4261TIP3    H134342   0.140   2.831  -0.021  1.1113 -2.2166  0.1902
 4261TIP3    H234343   0.055   2.811   0.102 -0.3809 -0.9607 -0.6122
 4262TIP3   OH234344   4.619   3.489   0.366 -0.8516 -0.2725  0.0565
 4262TIP3    H134345   4.556   3.543   0.318 -1.2049 -0.6122  0.1321
 4262TIP3    H234346   4.586   3.489   0.456  0.3194  1.1359  0.5254
 4263TIP3   OH234347   1.657   0.661   1.373 -0.1763 -0.3799  0.0534
 4263TIP3    H134348   1.592   0.730   1.381 -1.3324 -1.2165 -1.5426
 4263TIP3    H234349   1.701   0.680   1.289  1.4724 -0.0029  0.9493
 4264TIP3   OH234350   0.383   2.188   0.981 -0.2795 -0.1108  0.5615
 4264TIP3    H134351   0.364   2.177   0.888 -1.6372  2.1117  0.4977
 4264TIP3    H234352   0.455   2.251   0.984  1.1971 -1.7633  1.0135
 4265TIP3   OH234353   4.583   1.259   7.706  0.0763 -0.0099 -0.3874
 4265TIP3    H134354   4.535   1.265   7.623  0.1607 -0.3831 -0.4654
 4265TIP3    H234355   4.663   1.309   7.692  0.1521 -0.1824 -0.5770
 4266TIP3   OH234356   6.280   4.508   8.225  0.1351 -0.4045 -0.0797
 4266TIP3    H134357   6.308   4.599   8.214 -2.2495  0.3979 -0.0573
 4266TIP3    H234358   6.360   4.457   8.216  1.2400  1.5351 -2.1761
 4267TIP3   OH234359   4.057   2.252   7.320 -0.2243 -0.5036  0.1950
 4267TIP3    H134360   3.990   2.185   7.335  0.8395 -2.5915 -3.1790
 4267TIP3    H234361   4.009   2.323   7.277 -0.6775 -0.9681 -0.0903
 4268TIP3   OH234362   6.491   2.625   8.641 -0.2812 -0.3229  0.1738
 4268TIP3    H134363   6.507   2.718   8.625 -1.0739  0.0839  1.5862
 4268TIP3    H234364   6.424   2.624   8.710 -1.6525 -1.9302 -1.1018
 4269TIP3   OH234365   0.034   3.292   8.047  0.2588  0.2493  0.5237
 4269TIP3    H134366  -0.062   3.293   8.049  0.2079  0.1391 -0.8342
 4269TIP3    H234367   0.056   3.221   7.987  1.2155 -0.1188  1.2829
 4270TIP3   OH234368   4.380   1.707   0.044  0.2519  0.7487  0.5877
 4270TIP3    H134369   4.308   1.735   0.101 -2.1255 -1.6560 -0.9908
 4270TIP3    H234370   4.383   1.774  -0.025 -2.6714 -0.5098 -0.9792
 4271TIP3   OH234371   1.166   4.953   1.911 -0.0199  0.0747 -0.1326
 4271TIP3    H134372   1.127   4.995   1.835  0.2736 -0.6889 -0.7151
 4271TIP3    H234373   1.256   4.985   1.913  0.4872 -1.1917 -1.1231
 4272TIP3   OH234374   5.839   3.470   7.832  0.4925  0.1432 -0.0511
 4272TIP3    H134375   5.807   3.543   7.886 -1.0246 -1.0970  0.8291
 4272TIP3    H234376   5.801   3.486   7.745  2.6290  1.9461 -0.7283
 4273TIP3   OH234377   1.103   0.900   7.566 -0.1224 -0.6498 -0.4583
 4273TIP3    H134378   1.047   0.880   7.641 -1.6673 -0.2612 -1.4830
 4273TIP3    H234379   1.083   0.991   7.544  1.3694 -0.2893 -0.4896
 4274TIP3   OH234380   4.752   6.602   2.342 -0.3232 -0.6626 -0.5449
 4274TIP3    H134381   4.767   6.627   2.433 -2.8508  0.7992 -0.4335
 4274TIP3    H234382   4.829   6.633   2.295  1.1155 -1.6186  1.0869
 4275TIP3   OH234383   1.475   4.978   2.387  0.6355  0.2603  0.0108
 4275TIP3    H134384   1.533   5.054   2.382 -0.4356  1.1797  0.7830
 4275TIP3    H234385   1.516   4.920   2.451  0.1585  1.4429  1.4509
 4276TIP3   OH234386   3.385   1.799   2.211 -0.6473  0.4463  0.9669
 4276TIP3    H134387   3.362   1.806   2.118 -1.1373 -0.1055  1.0407
 4276TIP3    H234388   3.390   1.705   2.227  0.3410  0.5428  1.2870
 4277TIP3   OH234389   5.459   5.565   6.901 -0.0355 -0.0574  0.1582
 4277TIP3    H134390   5.461   5.486   6.955  1.2663  0.4243  0.8630
 4277TIP3    H234391   5.550   5.595   6.899 -0.5385  1.5792  0.1494
 4278TIP3   OH234392   1.797   4.486   1.806 -0.3183  0.3685  0.5618
 4278TIP3    H134393   1.728   4.419   1.808  0.1497 -0.1540 -0.2503
 4278TIP3    H234394   1.858   4.455   1.739  0.4092  1.1212  0.8692
 4279TIP3   OH234395   6.746   2.816   2.753 -0.1240  1.0282 -0.2236
 4279TIP3    H134396   6.703   2.871   2.819 -0.1673 -0.1472  0.7673
 4279TIP3    H234397   6.686   2.742   2.742 -0.5634  1.6349 -2.2919
 4280TIP3   OH234398   1.552   0.838   6.893  0.4220  1.1866 -0.0325
 4280TIP3    H134399   1.548   0.760   6.949 -0.0273  1.4491  0.3143
 4280TIP3    H234400   1.645   0.857   6.884  0.5881  0.0261 -0.9516
 4281TIP3   OH234401   3.601   0.172   7.293 -0.2966  0.7894  0.0397
 4281TIP3    H134402   3.613   0.252   7.242 -0.1421  1.3827  0.9721
 4281TIP3    H234403   3.585   0.104   7.228  1.7730  1.1433 -0.9386
 4282TIP3   OH234404   2.837   4.381   1.090 -0.0822 -0.2085  0.2411
 4282TIP3    H134405   2.868   4.291   1.101  1.3384  0.2852  0.5552
 4282TIP3    H234406   2.814   4.387   0.997  1.0551 -0.5378 -0.0791
 4283TIP3   OH234407   6.479   4.785   7.415 -0.3731  0.4237 -0.3496
 4283TIP3    H134408   6.444   4.849   7.478 -1.9365 -1.3431  0.6825
 4283TIP3    H234409   6.457   4.822   7.329 -0.4757  1.6644  0.1847
 4284TIP3   OH234410   4.022   3.066   0.072 -0.1739  0.3756 -0.1324
 4284TIP3    H134411   4.085   3.137   0.085 -0.2788  0.2605  1.1130
 4284TIP3    H234412   3.957   3.103   0.012  0.4971  0.8581 -0.5774
 4285TIP3   OH234413   3.083   3.157   8.237  0.7260 -0.0427 -0.0050
 4285TIP3    H134414   3.094   3.153   8.332 -1.9894 -1.8582  0.3614
 4285TIP3    H234415   3.114   3.071   8.206  0.2251 -0.0313 -0.5546
 4286TIP3   OH234416   5.906   0.887   6.622  0.1167 -0.5796  0.8434
 4286TIP3    H134417   5.886   0.842   6.540 -1.1112 -0.0570  0.8213
 4286TIP3    H234418   5.824   0.883   6.672 -0.2079  1.9364  0.6607
 4287TIP3   OH234419   4.978   6.663   0.707 -0.3625 -0.1968  0.3013
 4287TIP3    H134420   4.942   6.577   0.729 -1.4600  0.6165  1.8472
 4287TIP3    H234421   4.955   6.719   0.781  0.9678  1.2748 -0.3294
 4288TIP3   OH234422   4.545   0.706   0.649  0.0904 -0.0390 -0.0325
 4288TIP3    H134423   4.626   0.758   0.652 -0.6712  1.1498  0.4656
 4288TIP3    H234424   4.538   0.668   0.736 -0.1044  0.1996  0.0559
 4289TIP3   OH234425   4.907   0.185   2.253 -0.3683 -0.3368 -0.5554
 4289TIP3    H134426   4.826   0.233   2.267 -0.3290 -0.6023  0.7059
 4289TIP3    H234427   4.961   0.204   2.330 -0.2858 -2.2309 -0.0725
 4290TIP3   OH234428   5.154   3.250   7.953 -0.4587  0.5784 -0.0863
 4290TIP3    H134429   5.127   3.327   8.004 -0.2537  1.1710 -0.8605
 4290TIP3    H234430   5.072   3.213   7.920 -0.5681  0.3829  0.3944
 4291TIP3   OH234431   1.464   2.898   2.231 -0.7440  0.5801  0.0479
 4291TIP3    H134432   1.491   2.813   2.265  0.0167  1.8941  3.0243
 4291TIP3    H234433   1.509   2.905   2.146  2.4143 -0.3711  1.4996
 4292TIP3   OH234434   2.606   4.304   7.535 -0.5390  0.0279 -0.5925
 4292TIP3    H134435   2.513   4.318   7.516 -0.8111  0.0417  0.6685
 4292TIP3    H234436   2.643   4.392   7.540 -0.7451  0.0746  0.2203
 4293TIP3   OH234437   0.791   2.033   0.671 -0.5384 -0.1699 -0.4576
 4293TIP3    H134438   0.724   2.085   0.715 -0.7262 -0.5213 -0.3248
 4293TIP3    H234439   0.754   2.015   0.585  0.1498  1.1718 -1.0664
 4294TIP3   OH234440   4.288   5.841   1.287  0.3568  0.4235 -0.5284
 4294TIP3    H134441   4.376   5.847   1.251  0.5249 -0.8225 -0.3602
 4294TIP3    H234442   4.289   5.897   1.364  0.9870  0.4631 -0.5627
 4295TIP3   OH234443   0.051   6.765   2.536 -0.4711 -0.2661 -0.4348
 4295TIP3    H134444   0.127   6.822   2.541 -0.9513  0.2596  2.4452
 4295TIP3    H234445   0.067   6.698   2.603 -2.6192  0.0145  0.4214
 4296TIP3   OH234446   1.048   4.958   1.428  0.1103  0.7054 -0.1699
 4296TIP3    H134447   1.137   4.950   1.394  0.0008  2.1849 -0.8737
 4296TIP3    H234448   1.012   4.870   1.422  2.2659 -0.4607  2.3139
 4297TIP3   OH234449   2.165   5.771   7.601 -0.6463  0.0722 -0.1669
 4297TIP3    H134450   2.111   5.848   7.621  0.3467  1.0617 -1.1739
 4297TIP3    H234451   2.179   5.729   7.686  0.1944  1.9459  0.6839
 4298TIP3   OH234452   3.981   4.227   8.517 -0.0168 -0.1334 -0.0750
 4298TIP3    H134453   4.050   4.239   8.582 -1.5153  0.8466  1.4238
 4298TIP3    H234454   3.946   4.315   8.502 -1.0784 -0.6323 -0.6486
 4299TIP3   OH234455   1.856   1.814   1.459  0.3280  0.2633 -0.5973
 4299TIP3    H134456   1.853   1.728   1.417  0.3358  0.1404 -0.3468
 4299TIP3    H234457   1.794   1.867   1.410  0.2472  0.0854 -0.6868
 4300TIP3   OH234458   3.595   0.348   7.617  0.0783 -0.5128 -0.4510
 4300TIP3    H134459   3.611   0.370   7.709  0.0173  0.0801 -0.5781
 4300TIP3    H234460   3.550   0.263   7.620  0.6000 -0.7789  0.0366
 4301TIP3   OH234461   1.527   0.695   2.155  0.5054 -0.0847 -0.0010
 4301TIP3    H134462   1.511   0.741   2.073  1.8294 -1.1567 -0.9118
 4301TIP3    H234463   1.622   0.697   2.166  0.3800 -0.3261  1.2950
 4302TIP3   OH234464   2.038   4.313   8.262  0.2331 -0.1104 -0.0253
 4302TIP3    H134465   2.113   4.300   8.204  0.1503  1.3791 -0.5000
 4302TIP3    H234466   1.964   4.330   8.203 -0.0876  0.3060  0.4874
 4303TIP3   OH234467   2.682   0.297   2.307 -0.0667 -0.5177  0.6353
 4303TIP3    H134468   2.777   0.299   2.317 -0.1885  1.2387  1.7501
 4303TIP3    H234469   2.647   0.302   2.396 -1.2245 -1.4783  0.2672
 4304TIP3   OH234470   0.562   3.671   0.943  0.3883  1.0029 -0.1192
 4304TIP3    H134471   0.642   3.636   0.983 -0.9006 -0.8955  0.9623
 4304TIP3    H234472   0.516   3.714   1.014  1.3062  3.9229 -1.1628
 4305TIP3   OH234473   1.553   1.579   7.416 -0.3369 -0.1306  0.4758
 4305TIP3    H134474   1.609   1.557   7.342 -0.3620  0.7389  0.1890
 4305TIP3    H234475   1.465   1.582   7.379 -0.2866  0.8605  0.4049
 4306TIP3   OH234476   2.252   1.762   0.033 -0.1886 -0.1765 -0.6557
 4306TIP3    H134477   2.303   1.696  -0.014 -1.4633 -0.8349 -1.1791
 4306TIP3    H234478   2.291   1.846   0.007  0.7613 -0.6568 -0.8335
 4307TIP3   OH234479   3.147   0.259   2.036 -0.7537  0.2809  0.0334
 4307TIP3    H134480   3.134   0.204   2.114  0.6883 -0.1168  0.0306
 4307TIP3    H234481   3.200   0.204   1.977 -2.5272  0.2517 -1.6162
 4308TIP3   OH234482   6.045   1.141   1.682  0.2603 -0.1733 -0.7589
 4308TIP3    H134483   6.120   1.199   1.674  0.4540  0.4294  3.4570
 4308TIP3    H234484   6.080   1.059   1.718 -1.0497  0.3951  2.0732
 4309TIP3   OH234485   1.557   2.801   1.221  0.0986  0.1960 -0.3614
 4309TIP3    H134486   1.592   2.890   1.226  2.4975 -0.7515  2.5882
 4309TIP3    H234487   1.633   2.746   1.203 -0.9768 -1.4246 -0.1692
 4310TIP3   OH234488   5.577   5.755   1.014  0.4352 -0.1827 -0.8010
 4310TIP3    H134489   5.554   5.665   0.995  0.3757  0.1421 -2.3923
 4310TIP3    H234490   5.663   5.767   0.973  1.1115  0.0893  0.6336
 4311TIP3   OH234491   0.014   4.842   0.402 -0.3428  0.5021  0.1757
 4311TIP3    H134492   0.083   4.803   0.349 -0.0953  1.6041 -0.3407
 4311TIP3    H234493   0.053   4.850   0.489  0.4037  1.6324 -0.2415
 4312TIP3   OH234494   2.646   4.010   7.090  0.2926 -0.2871 -0.0726
 4312TIP3    H134495   2.736   3.981   7.075  0.0107 -0.5159 -1.5142
 4312TIP3    H234496   2.629   4.073   7.020 -0.4107  0.3562  0.6564
 4313TIP3   OH234497   6.770   4.964   2.004  0.1542  0.0925  0.2961
 4313TIP3    H134498   6.858   4.960   1.967  0.1927 -1.0136  0.4599
 4313TIP3    H234499   6.726   5.034   1.956  0.6286 -0.3973 -0.8746
 4314TIP3   OH234500   0.146   2.175   1.708 -0.5383  0.2732 -0.1973
 4314TIP3    H134501   0.126   2.082   1.698 -1.4285  0.5242 -0.8862
 4314TIP3    H234502   0.201   2.179   1.787 -0.6364 -0.8066 -0.0534
 4315TIP3   OH234503   2.083   1.555   0.355  0.0213  0.8283  0.0574
 4315TIP3    H134504   2.140   1.498   0.303 -1.2363 -0.8762  0.4579
 4315TIP3    H234505   2.100   1.529   0.446  1.0326  2.6709  0.4349
 4316TIP3   OH234506   1.187   4.442   1.505 -0.2295 -0.0138 -0.0555
 4316TIP3    H134507   1.247   4.495   1.558  0.8493 -0.7131 -0.5371
 4316TIP3    H234508   1.236   4.423   1.425 -0.9503 -0.9308 -0.3034
 4317TIP3   OH234509   4.874   4.911   2.565  0.0804 -0.3015 -0.9797
 4317TIP3    H134510   4.833   4.825   2.556  0.2234 -0.3288 -1.3885
 4317TIP3    H234511   4.889   4.921   2.659 -3.3980  0.8975 -0.3851
 4318TIP3   OH234512   4.725   6.346   1.236 -0.0896 -0.1265  0.1192
 4318TIP3    H134513   4.655   6.406   1.260 -1.1309 -0.8895 -0.9665
 4318TIP3    H234514   4.786   6.351   1.310 -0.7568  1.3110  0.6118
 4319TIP3   OH234515   0.473   1.686   7.720 -0.0569  0.5995  0.4127
 4319TIP3    H134516   0.523   1.749   7.667  1.0606 -0.2621  0.4046
 4319TIP3    H234517   0.383   1.696   7.689  0.6424 -0.3206 -2.1530
 4320TIP3   OH234518   0.002   3.656   7.014 -0.3887 -0.3180 -0.2550
 4320TIP3    H134519  -0.054   3.643   6.937 -1.3345 -0.7483  0.4872
 4320TIP3    H234520  -0.016   3.746   7.042  0.0029 -0.1402 -0.5699
 4321TIP3   OH234521   0.991   5.640   2.091 -0.0686  0.4431  0.5813
 4321TIP3    H134522   1.040   5.716   2.124  1.1022  0.0709 -0.2146
 4321TIP3    H234523   0.989   5.579   2.164  2.0084 -0.1492  0.2165
 4322TIP3   OH234524   1.196   5.323   1.832  0.3613  0.5384  0.3024
 4322TIP3    H134525   1.242   5.404   1.813 -1.8994  2.0685  0.9006
 4322TIP3    H234526   1.104   5.343   1.812 -0.9157 -0.4980  4.2515
 4323TIP3   OH234527   0.465   0.055   1.338 -0.1081 -0.0547  0.2163
 4323TIP3    H134528   0.429   0.037   1.252  1.8357  1.1147 -0.9277
 4323TIP3    H234529   0.390   0.078   1.392 -1.3925 -1.0697 -1.0665
 4324TIP3   OH234530   3.015   6.448   2.424  0.0596 -0.1517 -0.4185
 4324TIP3    H134531   2.923   6.426   2.434 -0.3086  1.1379 -0.8701
 4324TIP3    H234532   3.051   6.442   2.513 -0.7134  0.4478 -0.0618
 4325TIP3   OH234533   0.942   0.570   7.792 -0.0593 -0.5610 -0.6164
 4325TIP3    H134534   0.938   0.518   7.712  0.0789  1.2819 -1.8832
 4325TIP3    H234535   1.033   0.598   7.797  0.0310 -0.9956  0.4436
 4326TIP3   OH234536   0.316   2.158   8.610 -0.2853 -0.5259 -0.7222
 4326TIP3    H134537   0.252   2.228   8.625 -0.0645 -0.2946 -0.8481
 4326TIP3    H234538   0.365   2.188   8.534  0.3549 -0.4233 -0.2726
 4327TIP3   OH234539   2.207   2.408   0.347  0.0735  0.4929 -0.3953
 4327TIP3    H134540   2.247   2.486   0.308  0.6259 -0.5199 -1.9752
 4327TIP3    H234541   2.214   2.422   0.441  2.1053  1.4165 -0.6205
 4328TIP3   OH234542   6.174   0.248   0.783 -0.0376 -0.5655  0.7269
 4328TIP3    H134543   6.189   0.157   0.758  1.3446  0.4276 -2.4631
 4328TIP3    H234544   6.253   0.272   0.832  0.3096 -0.6648  0.2262
 4329TIP3   OH234545   5.480   3.416   0.028 -0.2796 -0.0160  0.4693
 4329TIP3    H134546   5.568   3.405   0.063 -0.1165 -0.5700 -0.1067
 4329TIP3    H234547   5.493   3.446  -0.062 -0.6966  1.9364  1.0069
 4330TIP3   OH234548   2.229   2.306   0.947 -0.5311 -0.2154  0.0986
 4330TIP3    H134549   2.196   2.394   0.933  1.2995  0.8327  1.8356
 4330TIP3    H234550   2.203   2.283   1.036  1.2013 -0.3119  0.6345
 4331TIP3   OH234551   3.758   5.583   1.002  0.6290 -0.0095 -0.7147
 4331TIP3    H134552   3.845   5.543   1.000  0.9376  0.6610 -0.6766
 4331TIP3    H234553   3.717   5.546   1.081  1.2745  0.4949 -0.1331
 4332TIP3   OH234554   0.915   4.484   0.792  0.5125  0.0253  0.2276
 4332TIP3    H134555   0.857   4.558   0.774  0.6853  0.0654 -0.1955
 4332TIP3    H234556   0.964   4.510   0.869 -0.6395 -0.3736  1.1300
 4333TIP3   OH234557   3.111   2.641   0.906  0.3629  0.4493  0.0015
 4333TIP3    H134558   3.102   2.565   0.849 -1.2817  0.0868  0.6994
 4333TIP3    H234559   3.110   2.605   0.995  1.3763  1.1380  0.3116
 4334TIP3   OH234560   3.276   3.141   1.652  0.8541 -0.0107  0.5148
 4334TIP3    H134561   3.196   3.095   1.629  0.9271  0.1999 -0.1827
 4334TIP3    H234562   3.246   3.217   1.702  0.6978 -0.5123  1.1900
 4335TIP3   OH234563   4.341   2.846   8.301 -0.4609  0.2022 -0.2039
 4335TIP3    H134564   4.425   2.860   8.256 -0.0554  1.9217  0.9897
 4335TIP3    H234565   4.362   2.783   8.371 -0.3989 -0.1194 -0.5087
 4336TIP3   OH234566   3.211   5.562   2.766  0.3684 -0.2353 -0.5874
 4336TIP3    H134567   3.275   5.545   2.697 -0.4992 -0.4737 -1.3620
 4336TIP3    H234568   3.226   5.653   2.790 -0.3767  0.3738 -2.2725
 4337TIP3   OH234569   1.076   0.453   0.687 -0.3653  0.2153  0.5646
 4337TIP3    H134570   1.017   0.434   0.614  0.1971  1.5927 -0.2858
 4337TIP3    H234571   1.064   0.380   0.747 -1.2567 -0.6748 -0.6454
 4338TIP3   OH234572   2.139   5.478   0.650  0.1512 -0.5737  0.3314
 4338TIP3    H134573   2.084   5.437   0.717 -1.6345  2.4750  0.9420
 4338TIP3    H234574   2.105   5.442   0.567 -2.8579  1.0863  0.6925
 4339TIP3   OH234575   1.909   1.627   7.906  0.2132 -0.0529  0.2237
 4339TIP3    H134576   1.836   1.598   7.852  0.0051  1.7998 -0.5819
 4339TIP3    H234577   1.898   1.581   7.989 -1.2205 -0.6442 -0.2694
 4340TIP3   OH234578   1.134   4.843   7.852  0.7630 -0.5827 -0.2705
 4340TIP3    H134579   1.118   4.838   7.758  0.6825 -0.8057 -0.2462
 4340TIP3    H234580   1.197   4.773   7.870  0.7095 -0.6002 -0.1459
 4341TIP3   OH234581   5.080   1.873   1.757  0.7436 -0.1267 -0.0009
 4341TIP3    H134582   5.033   1.839   1.834  0.1606 -1.9070 -1.0746
 4341TIP3    H234583   5.164   1.904   1.792  0.6318 -1.2120  1.3257
 4342TIP3   OH234584   0.251   0.230   1.714 -0.2434 -0.6529 -0.8310
 4342TIP3    H134585   0.319   0.196   1.655 -1.5733 -1.8077 -1.7413
 4342TIP3    H234586   0.175   0.174   1.699 -1.0634 -0.0970  0.9991
 4343TIP3   OH234587   6.326   6.741   0.313 -0.4697 -0.4459  0.4397
 4343TIP3    H134588   6.366   6.673   0.367  0.7235  1.1659  1.6956
 4343TIP3    H234589   6.234   6.741   0.339 -0.0233 -0.0385  2.2029
 4344TIP3   OH234590   6.071   3.789   8.629 -0.1657  0.2413  0.0086
 4344TIP3    H134591   6.087   3.705   8.672 -0.6447  0.0229 -0.2205
 4344TIP3    H234592   6.156   3.815   8.594  0.4846  0.9978  2.0593
 4345TIP3   OH234593   6.264   2.142   1.202  0.3265  0.4038  0.0145
 4345TIP3    H134594   6.276   2.190   1.283  1.5185  0.4132 -0.1440
 4345TIP3    H234595   6.337   2.169   1.147 -0.2218  0.0697 -0.9055
 4346TIP3   OH234596   4.156   5.874   0.559  0.8438  0.6243 -0.2782
 4346TIP3    H134597   4.095   5.941   0.527 -0.3934 -0.3206  0.0371
 4346TIP3    H234598   4.141   5.871   0.654  0.3746 -0.5662 -0.3710
 4347TIP3   OH234599   6.010   3.215   0.561  0.1403  0.1161 -0.0422
 4347TIP3    H134600   6.054   3.167   0.491  2.7160 -2.2880  2.9271
 4347TIP3    H234601   5.940   3.157   0.591  1.2055 -0.4279  1.4871
 4348TIP3   OH234602   3.432   1.548   7.153  0.3742  0.5821  0.5023
 4348TIP3    H134603   3.475   1.624   7.114 -1.2395  0.8957 -0.7540
 4348TIP3    H234604   3.443   1.478   7.089  1.3514 -0.1366  1.4016
 4349TIP3   OH234605   0.095   4.246   2.246 -0.3686 -0.0513 -0.4078
 4349TIP3    H134606   0.173   4.227   2.299 -0.3506  2.3238  0.5620
 4349TIP3    H234607   0.023   4.212   2.298 -0.2289  0.9875  0.5123
 4350TIP3   OH234608   1.283   4.104   2.920 -0.0069 -0.1259 -0.1256
 4350TIP3    H134609   1.327   4.019   2.911  0.1874 -0.0722  0.2912
 4350TIP3    H234610   1.196   4.082   2.953  0.1676 -0.1441  0.3380
 4351TIP3   OH234611   2.096   0.281   2.237 -0.3500  0.0980 -0.6753
 4351TIP3    H134612   2.189   0.301   2.222 -0.0897  0.5665  1.2529
 4351TIP3    H234613   2.093   0.186   2.246  0.4733  0.2270  1.9266
 4352TIP3   OH234614   6.396   0.286   0.906 -0.4832 -0.1988 -0.2546
 4352TIP3    H134615   6.427   0.241   0.984  0.4545 -0.9321 -1.0157
 4352TIP3    H234616   6.396   0.378   0.929  1.8082 -0.1975 -0.0237
 4353TIP3   OH234617   3.472   0.223   8.399 -0.0854 -0.2039  0.0964
 4353TIP3    H134618   3.508   0.277   8.468  1.9994 -1.0782 -0.2253
 4353TIP3    H234619   3.504   0.263   8.318  0.8890 -1.4557 -0.1701
 4354TIP3   OH234620   6.113   5.721   7.179 -0.8557 -0.2989  0.5965
 4354TIP3    H134621   6.095   5.815   7.174 -0.0938 -0.1593  0.3495
 4354TIP3    H234622   6.027   5.681   7.189 -1.0851  0.5639  2.8202
 4355TIP3   OH234623   3.181   5.166   2.409  0.7358 -0.6507 -0.4189
 4355TIP3    H134624   3.186   5.233   2.342  1.3448  0.4867  0.7243
 4355TIP3    H234625   3.164   5.214   2.490 -2.1196 -2.1294  0.0006
 4356TIP3   OH234626   6.794   0.740   7.122  0.1326  0.4391  0.3062
 4356TIP3    H134627   6.759   0.686   7.050  2.9347  0.2593 -1.0799
 4356TIP3    H234628   6.736   0.816   7.126 -2.6119 -1.5286  0.8011
 4357TIP3   OH234629   3.664   3.620   8.519  0.7381  0.3735 -0.6244
 4357TIP3    H134630   3.627   3.678   8.453  2.1969  0.0488 -1.7751
 4357TIP3    H234631   3.745   3.663   8.546 -0.8996  1.7381  2.8098
 4358TIP3   OH234632   2.661   2.333   1.863  0.0088 -0.5318 -0.1512
 4358TIP3    H134633   2.747   2.373   1.874  0.4289 -0.9071 -1.8236
 4358TIP3    H234634   2.622   2.335   1.950  1.6289 -0.1740  0.5939
 4359TIP3   OH234635   2.059   5.225   1.702 -0.0884  0.6981  0.0934
 4359TIP3    H134636   2.007   5.301   1.677  0.3073  0.9155 -0.0762
 4359TIP3    H234637   2.076   5.237   1.796  1.0711  1.4961 -0.2024
 4360TIP3   OH234638   5.341   1.935   6.944 -0.3297 -0.0853 -0.3421
 4360TIP3    H134639   5.281   1.861   6.953 -1.5189  0.6885 -1.5334
 4360TIP3    H234640   5.396   1.913   6.869  0.5250 -0.5303  0.3919
 4361TIP3   OH234641   2.601   2.676   1.604  0.0876 -0.7742  0.1290
 4361TIP3    H134642   2.601   2.759   1.652 -0.6056 -0.5022 -0.3210
 4361TIP3    H234643   2.678   2.682   1.546 -0.7501  0.1874 -0.9337
 4362TIP3   OH234644   4.347   2.288   7.277  0.2875  0.0982 -0.1088
 4362TIP3    H134645   4.340   2.346   7.202 -0.6065  0.2393  0.0785
 4362TIP3    H234646   4.257   2.270   7.302  0.5466 -1.3909 -0.1729
 4363TIP3   OH234647   2.745   1.974   0.010  0.2062  0.6793 -0.3040
 4363TIP3    H134648   2.681   2.015  -0.049 -0.5240 -1.0886 -0.8024
 4363TIP3    H234649   2.828   2.018  -0.011 -0.7088  2.7517  0.0829
 4364TIP3   OH234650   3.871   1.344   6.841 -0.0813  0.4368 -0.3920
 4364TIP3    H134651   3.838   1.322   6.928 -2.5026 -0.0603 -1.3630
 4364TIP3    H234652   3.965   1.325   6.846 -0.2887 -0.3524  1.8467
 4365TIP3   OH234653   5.412   4.560   2.544 -0.2586  0.0649  0.2105
 4365TIP3    H134654   5.374   4.488   2.595  0.3447  0.3780  1.1247
 4365TIP3    H234655   5.452   4.617   2.609 -0.0308  0.8192 -0.5726
 4366TIP3   OH234656   1.919   6.481   1.439  0.0491  0.3037 -0.4994
 4366TIP3    H134657   1.986   6.454   1.376 -0.6431  0.5031 -1.3329
 4366TIP3    H234658   1.928   6.418   1.510 -1.0820 -1.8014 -2.1076
 4367TIP3   OH234659   5.980   1.107   1.096  0.5103 -0.0189  0.0439
 4367TIP3    H134660   6.062   1.096   1.145  0.0782  0.5827  0.9327
 4367TIP3    H234661   5.964   1.021   1.056  1.1966 -0.3467  0.4632
 4368TIP3   OH234662   1.006   2.722   0.929  0.1545 -0.2647  0.0519
 4368TIP3    H134663   1.032   2.724   1.021 -3.0156  0.0723  1.0581
 4368TIP3    H234664   1.020   2.631   0.902 -0.9305 -0.9207  1.5747
 4369TIP3   OH234665   2.033   1.064   2.022 -0.0794 -0.4886  0.0442
 4369TIP3    H134666   1.945   1.065   1.985  0.1919  0.2747 -0.6116
 4369TIP3    H234667   2.085   1.117   1.962  0.4572  0.4902  1.3089
 4370TIP3   OH234668   1.538   3.370   8.053  0.4815  0.0268 -0.2751
 4370TIP3    H134669   1.472   3.317   8.008  0.5088  0.8310 -1.2900
 4370TIP3    H234670   1.498   3.457   8.060  0.9085  0.1815  0.3039
 4371TIP3   OH234671   4.730   6.284   1.791 -0.2839  0.5503  0.1821
 4371TIP3    H134672   4.768   6.358   1.743  1.3922 -0.1402  0.3717
 4371TIP3    H234673   4.729   6.313   1.882 -0.7136  0.7705  0.1070
 4372TIP3   OH234674   1.288   0.034   1.642 -0.0495 -0.0700  0.2035
 4372TIP3    H134675   1.250   0.080   1.566  1.4777  1.8144  0.4745
 4372TIP3    H234676   1.234   0.061   1.716  0.1348  0.3874  0.1792
 4373TIP3   OH234677   3.151   5.104   0.463  0.1654 -0.1255 -0.1037
 4373TIP3    H134678   3.234   5.088   0.418  0.0744 -0.5604 -0.1143
 4373TIP3    H234679   3.169   5.085   0.555  0.3022  0.5938  0.0298
 4374TIP3   OH234680   0.843   1.615   8.755  0.3773  0.1334 -0.1456
 4374TIP3    H134681   0.903   1.611   8.829  0.5283  1.1270 -0.1979
 4374TIP3    H234682   0.788   1.691   8.773 -0.7959 -0.6719 -0.1637
 4375TIP3   OH234683   0.075   2.239   0.343 -0.1741  0.9145  0.2713
 4375TIP3    H134684   0.027   2.302   0.288  0.3389  1.0163 -0.0677
 4375TIP3    H234685   0.023   2.159   0.338 -0.3327  1.0361 -0.0579
 4376TIP3   OH234686   1.523   6.149   0.162  0.2319  0.4493  0.9205
 4376TIP3    H134687   1.532   6.062   0.123 -0.3378  0.3499  1.0155
 4376TIP3    H234688   1.581   6.204   0.108 -1.5165  0.5887 -0.9287
 4377TIP3   OH234689   5.695   2.177   7.711 -0.0210  0.2832 -0.1098
 4377TIP3    H134690   5.607   2.193   7.678  0.6697  0.7903 -1.8071
 4377TIP3    H234691   5.688   2.192   7.805 -2.2304 -1.9278  0.1832
 4378TIP3   OH234692   5.035   3.980   1.553 -0.6154  0.2851 -0.4148
 4378TIP3    H134693   4.996   3.931   1.625  0.2843  1.2905  0.7902
 4378TIP3    H234694   4.983   3.954   1.476 -2.2691 -0.0435  0.7485
 4379TIP3   OH234695   1.490   0.195   8.163 -0.3704 -0.4347 -0.0643
 4379TIP3    H134696   1.444   0.223   8.083 -0.7984 -1.3854 -0.1695
 4379TIP3    H234697   1.498   0.275   8.215 -0.6353  0.0812 -0.7920
 4380TIP3   OH234698   5.169   2.941   1.923 -0.1675 -0.4063 -0.2957
 4380TIP3    H134699   5.076   2.960   1.913 -1.4577 -4.8217  1.2961
 4380TIP3    H234700   5.199   2.922   1.834 -1.0836 -0.0990 -0.6848
 4381TIP3   OH234701   0.559   3.394   2.763  0.6386 -0.2393 -0.3717
 4381TIP3    H134702   0.599   3.426   2.844  0.0228  0.8790 -0.4761
 4381TIP3    H234703   0.466   3.418   2.772  0.1499 -1.9662 -0.5119
 4382TIP3   OH234704   1.092   0.245   0.908 -0.2121 -0.5848  0.4657
 4382TIP3    H134705   1.184   0.222   0.921 -0.2789 -0.7178  0.7050
 4382TIP3    H234706   1.044   0.166   0.932 -0.3900 -0.4983  0.3908
 4383TIP3   OH234707   0.060   4.635   1.337  0.4465  0.1401 -0.0650
 4383TIP3    H134708   0.130   4.685   1.295  0.2759 -0.4098 -1.0441
 4383TIP3    H234709   0.055   4.554   1.287 -0.5882 -0.0258  0.2685
 4384TIP3   OH234710   2.447   4.712   1.596  0.8055 -0.0414  0.3406
 4384TIP3    H134711   2.451   4.800   1.559  0.8079  0.1896  0.8783
 4384TIP3    H234712   2.519   4.665   1.554 -0.2558 -0.3267 -1.2734
 4385TIP3   OH234713   0.311   2.806   8.665 -0.1921  0.6045  0.6527
 4385TIP3    H134714   0.340   2.830   8.577 -0.5138  0.4262  0.4962
 4385TIP3    H234715   0.391   2.784   8.711 -0.0597  0.2638  0.2693
 4386TIP3   OH234716   4.480   5.193   2.729 -0.3312 -0.0416 -0.1578
 4386TIP3    H134717   4.529   5.118   2.760 -0.1807  0.7938  1.7836
 4386TIP3    H234718   4.521   5.269   2.771 -1.7375  0.9238 -0.4185
 4387TIP3   OH234719   1.311   5.239   7.062 -0.0761 -0.2178  0.3897
 4387TIP3    H134720   1.230   5.263   7.018  0.9042  2.1482 -0.2923
 4387TIP3    H234721   1.360   5.320   7.068  2.1239 -1.5024  1.0805
 4388TIP3   OH234722   1.685   0.663   0.835  0.1498  0.3964  0.3182
 4388TIP3    H134723   1.631   0.633   0.761  2.3846  0.2935 -1.3794
 4388TIP3    H234724   1.726   0.744   0.803  2.3655 -0.4748  0.8193
 4389TIP3   OH234725   0.655   4.680   1.575  0.0591 -0.6200 -0.0775
 4389TIP3    H134726   0.643   4.672   1.480  0.5217 -1.1800 -0.0924
 4389TIP3    H234727   0.642   4.773   1.593 -2.0817 -0.8159 -0.3852
 4390TIP3   OH234728   4.147   1.036   7.349  0.5325 -0.1833 -0.1527
 4390TIP3    H134729   4.089   1.010   7.278 -0.2994  0.7654  0.1565
 4390TIP3    H234730   4.178   1.124   7.324 -1.4295  1.1007  1.5907
 4391TIP3   OH234731   0.737   3.767   7.455  0.6027  0.3368 -0.4600
 4391TIP3    H134732   0.662   3.787   7.398  0.4182  0.5403 -0.1456
 4391TIP3    H234733   0.718   3.681   7.492 -0.7299  1.4451  1.6261
 4392TIP3   OH234734   0.644   6.225   8.210 -0.1686 -0.0835  0.2882
 4392TIP3    H134735   0.685   6.296   8.160 -1.1840  0.7672  0.6301
 4392TIP3    H234736   0.552   6.227   8.183  0.1909 -2.8701 -1.5507
 4393TIP3   OH234737   3.470   0.371   1.488  0.0745 -0.9888 -0.0389
 4393TIP3    H134738   3.496   0.279   1.475  1.4963 -1.1739  3.1331
 4393TIP3    H234739   3.551   0.416   1.511 -0.9519  0.5721  0.6931
 4394TIP3   OH234740   0.477   2.570   0.276  0.0217 -1.4557  0.0347
 4394TIP3    H134741   0.561   2.583   0.234 -1.6144 -0.6406 -3.3098
 4394TIP3    H234742   0.446   2.486   0.243 -1.5402 -0.5498 -0.9524
 4395TIP3   OH234743   2.545   2.138   8.206 -0.0352 -0.5780 -0.3143
 4395TIP3    H134744   2.579   2.209   8.152 -2.2065  0.3024 -0.6218
 4395TIP3    H234745   2.451   2.136   8.187 -0.6297 -1.2612  2.2668
 4396TIP3   OH234746   4.850   1.345   7.641 -0.4691 -0.1359  0.0182
 4396TIP3    H134747   4.874   1.326   7.551  0.1781  1.8037 -0.2816
 4396TIP3    H234748   4.876   1.267   7.690  2.0155 -0.0800 -1.0334
 4397TIP3   OH234749   4.837   0.484   8.176 -0.0144  0.2407 -0.1257
 4397TIP3    H134750   4.875   0.429   8.244 -0.8627  0.8464  0.8630
 4397TIP3    H234751   4.882   0.457   8.096  0.7874 -0.6962  0.6128
 4398TIP3   OH234752   2.539   4.442   2.442 -0.6243 -0.3561  0.0029
 4398TIP3    H134753   2.539   4.472   2.533 -0.1460 -0.9822  0.2120
 4398TIP3    H234754   2.630   4.420   2.423  0.0635  3.2758 -1.8348
 4399TIP3   OH234755   3.674   4.854   1.947  0.1877  0.0900  0.4774
 4399TIP3    H134756   3.741   4.879   2.009  1.3619 -0.8617 -0.3602
 4399TIP3    H234757   3.714   4.867   1.861 -0.9383  0.1509 -0.0592
 4400TIP3   OH234758   2.015   3.366   0.263  0.0641  0.1042 -0.0318
 4400TIP3    H134759   2.051   3.328   0.183 -0.4699  1.3569 -0.9004
 4400TIP3    H234760   1.939   3.311   0.283 -1.0016  0.9278 -1.5570
 4401TIP3   OH234761   1.707   5.104   7.725  0.7153 -0.0999 -0.2953
 4401TIP3    H134762   1.636   5.046   7.755  0.4468  0.1543 -0.4347
 4401TIP3    H234763   1.734   5.067   7.641  2.0616 -1.3286  0.6357
 4402TIP3   OH234764   0.847   0.411   8.499  0.0148 -0.5459 -0.1668
 4402TIP3    H134765   0.756   0.393   8.475 -0.7720  0.6036  1.7802
 4402TIP3    H234766   0.887   0.324   8.506 -0.9764 -1.0771 -0.8006
 4403TIP3   OH234767   5.005   4.837   7.707 -1.1049 -0.4270  0.2823
 4403TIP3    H134768   5.042   4.782   7.777 -1.4331  3.3456  3.7715
 4403TIP3    H234769   5.063   4.912   7.702 -2.0999  0.2727 -2.3780
 4404TIP3   OH234770   2.596   5.456   2.192 -0.5331  0.2005 -0.0664
 4404TIP3    H134771   2.630   5.541   2.220 -2.1554  1.0217 -0.4992
 4404TIP3    H234772   2.512   5.448   2.236 -1.2296 -0.3432 -1.4192
 4405TIP3   OH234773   0.033   5.036   2.582 -0.1242 -0.5000  0.3176
 4405TIP3    H134774   0.081   4.994   2.653 -2.1392 -1.6657  1.0872
 4405TIP3    H234775   0.100   5.062   2.519  1.5420 -1.3591  1.6642
 4406TIP3   OH234776   1.894   1.281   0.578  0.5674  0.1009 -0.3581
 4406TIP3    H134777   1.807   1.266   0.540  1.8716  1.2014 -4.1777
 4406TIP3    H234778   1.901   1.376   0.583  1.8646  0.0511 -0.9924
 4407TIP3   OH234779   4.578   4.259   7.355 -0.3010 -0.4419  0.5649
 4407TIP3    H134780   4.664   4.250   7.395 -0.2793 -0.8670  0.4275
 4407TIP3    H234781   4.575   4.190   7.288 -0.3434  0.2350 -0.1482
 4408TIP3   OH234782   5.353   0.309   6.812 -0.0576  0.0128 -0.1582
 4408TIP3    H134783   5.422   0.274   6.756 -0.3695 -0.9981  0.0822
 4408TIP3    H234784   5.369   0.404   6.812  0.0977  0.0076 -1.7342
 4409TIP3   OH234785   0.026   1.266   8.479  0.4118  0.3524  0.1530
 4409TIP3    H134786  -0.063   1.298   8.464  0.6957  0.8185 -0.5819
 4409TIP3    H234787   0.064   1.261   8.392  0.6329 -1.2722  0.3200
 4410TIP3   OH234788   4.446   3.258   8.077 -0.0479 -0.9298  0.4916
 4410TIP3    H134789   4.448   3.315   8.001  0.2959  0.0157  1.1858
 4410TIP3    H234790   4.386   3.187   8.054  0.8320 -1.2079 -1.0304
 4411TIP3   OH234791   0.408   1.446   1.730 -0.4913  0.1384 -0.0663
 4411TIP3    H134792   0.497   1.418   1.749  0.0742  2.4640  1.0279
 4411TIP3    H234793   0.379   1.492   1.809 -1.3082  2.5280 -1.6144
 4412TIP3   OH234794   0.437   5.556   8.183 -0.0692 -0.1416 -0.3693
 4412TIP3    H134795   0.364   5.583   8.127  1.5006  0.6300 -2.1464
 4412TIP3    H234796   0.506   5.531   8.122  0.5960 -2.6157  1.2377
 4413TIP3   OH234797   5.753   2.826   1.230 -0.6828 -0.7697  0.0927
 4413TIP3    H134798   5.735   2.914   1.262  0.6783 -0.0846 -0.9340
 4413TIP3    H234799   5.703   2.819   1.148  1.7961  0.3438 -1.6173
 4414TIP3   OH234800   3.237   6.429   6.974 -0.4335 -0.3660  0.3846
 4414TIP3    H134801   3.214   6.337   6.990 -0.7657 -0.1746  1.0079
 4414TIP3    H234802   3.332   6.428   6.966 -0.5935 -1.2108 -2.5149
 4415TIP3   OH234803   3.755   4.431   1.250  0.1329  0.2324  0.3666
 4415TIP3    H134804   3.802   4.351   1.275 -0.4962  0.4661  2.4907
 4415TIP3    H234805   3.755   4.484   1.330 -1.5363  1.3269 -0.3134
 4416TIP3   OH234806   5.103   2.000   2.213  0.0673  0.5310  0.0361
 4416TIP3    H134807   5.027   2.000   2.155  0.4023 -0.2782 -0.4289
 4416TIP3    H234808   5.076   1.945   2.287 -0.0590  0.8593  0.2356
 4417TIP3   OH234809   0.491   5.315   0.511 -0.7324 -0.0553 -0.2570
 4417TIP3    H134810   0.451   5.258   0.446  0.8543  0.5515 -1.8701
 4417TIP3    H234811   0.572   5.271   0.535 -0.6837  0.3496  0.3443
 4418TIP3   OH234812   1.858   0.374   0.046  0.4944  0.0818  0.3819
 4418TIP3    H134813   1.947   0.389   0.015  0.7780 -0.8522  0.7241
 4418TIP3    H234814   1.802   0.391  -0.030  1.0309 -0.2428 -0.0838
 4419TIP3   OH234815   3.621   3.710   7.314  0.1445  0.0268 -0.3186
 4419TIP3    H134816   3.595   3.775   7.249  0.3475 -0.0536 -0.4813
 4419TIP3    H234817   3.716   3.701   7.303  0.3734  0.8490  0.7603
 4420TIP3   OH234818   5.629   2.682   7.204  0.3873 -0.8716  0.1581
 4420TIP3    H134819   5.701   2.731   7.166 -0.6970 -0.5991 -1.6325
 4420TIP3    H234820   5.640   2.592   7.172  0.9618 -1.2921  1.4297
 4421TIP3   OH234821   4.607   5.970   2.955  0.1324  0.1843  0.2385
 4421TIP3    H134822   4.539   5.929   2.901 -0.3305  0.3624  0.6731
 4421TIP3    H234823   4.676   5.904   2.961 -0.0956 -0.0825 -0.0339
 4422TIP3   OH234824   3.098   5.813   8.659  0.0717 -0.4762  0.0245
 4422TIP3    H134825   3.087   5.882   8.724  3.1135  0.6447 -0.4912
 4422TIP3    H234826   3.038   5.836   8.588 -1.1367 -0.1084  1.1186
 4423TIP3   OH234827   1.529   6.502   2.801 -0.1811 -0.2892  0.9395
 4423TIP3    H134828   1.550   6.414   2.833  2.3742  0.0880  0.5165
 4423TIP3    H234829   1.436   6.513   2.822 -1.0486 -3.6391 -0.3443
 4424TIP3   OH234830   1.649   0.945   0.508 -0.0828  0.4897  0.2645
 4424TIP3    H134831   1.681   0.905   0.588 -0.0723 -0.6949 -0.3106
 4424TIP3    H234832   1.580   0.886   0.478  0.5056  0.4527 -1.0612
 4425TIP3   OH234833   4.364   4.431   8.653  0.1839  0.1852  0.2462
 4425TIP3    H134834   4.329   4.482   8.580  0.2689  0.4156  0.3661
 4425TIP3    H234835   4.442   4.479   8.681 -0.7110  0.9543  1.4979
 4426TIP3   OH234836   5.923   2.620   2.366 -0.3659 -0.4653  0.1259
 4426TIP3    H134837   6.006   2.573   2.353  0.3437  0.5705  0.7270
 4426TIP3    H234838   5.905   2.612   2.459 -1.9324 -2.2245 -0.2732
 4427TIP3   OH234839   4.985   5.357   3.070  0.1853  0.2601 -0.9790
 4427TIP3    H134840   5.039   5.347   3.148 -1.2418  1.7806  0.2952
 4427TIP3    H234841   5.016   5.438   3.029 -0.9485  1.0811 -0.3008
 4428TIP3   OH234842   2.368   3.548   0.174  1.0380 -0.4142  0.2219
 4428TIP3    H134843   2.363   3.479   0.240  0.0411  1.6838  2.5109
 4428TIP3    H234844   2.279   3.584   0.170  1.5060  0.7017 -0.9473
 4429TIP3   OH234845   4.609   6.518   8.506  0.2081 -0.5893 -0.1482
 4429TIP3    H134846   4.540   6.492   8.446  0.8238  1.1706 -1.6949
 4429TIP3    H234847   4.567   6.576   8.569  0.0453 -0.4726 -0.3657
 4430TIP3   OH234848   3.739   3.101   1.616  0.0236  0.1085  0.1697
 4430TIP3    H134849   3.780   3.020   1.647  0.7276  0.6220  0.6315
 4430TIP3    H234850   3.657   3.073   1.577 -0.4404 -0.6911  1.6367
 4431TIP3   OH234851   6.595   1.780   0.394  0.2062  0.2425  0.3271
 4431TIP3    H134852   6.669   1.752   0.449 -0.4137  0.1938  1.1588
 4431TIP3    H234853   6.592   1.875   0.404  1.1667  0.4554 -1.0371
 4432TIP3   OH234854   5.959   2.232   7.785 -0.5000  0.0113 -0.2479
 4432TIP3    H134855   5.903   2.180   7.727 -2.3409  2.2608 -0.6501
 4432TIP3    H234856   5.899   2.267   7.851  0.5622  1.8187 -0.1642
 4433TIP3   OH234857   2.758   5.438   1.597  0.2518  0.2068 -0.3202
 4433TIP3    H134858   2.782   5.345   1.600  2.0886  0.6088 -1.2979
 4433TIP3    H234859   2.839   5.484   1.619 -0.2553  1.6106 -1.2769
 4434TIP3   OH234860   1.123   5.856   2.225 -0.5646  0.1319 -0.0405
 4434TIP3    H134861   1.202   5.855   2.279  0.5188  3.0643 -1.3822
 4434TIP3    H234862   1.062   5.913   2.272 -0.6389  0.5000 -0.5729
 4435TIP3   OH234863   1.512   3.754   1.504 -0.4553 -0.1501  0.4293
 4435TIP3    H134864   1.555   3.801   1.577  1.1904 -1.2893  0.2444
 4435TIP3    H234865   1.430   3.723   1.541 -1.0748  1.8673  0.8907
 4436TIP3   OH234866   0.140   2.339   8.674 -0.3722 -0.7159  0.1834
 4436TIP3    H134867   0.158   2.367   8.764  0.7285 -1.0117  0.0710
 4436TIP3    H234868   0.122   2.421   8.627 -0.3821 -0.5047  0.5527
 4437TIP3   OH234869   6.723   2.437   1.710 -0.1645  0.1305  0.3271
 4437TIP3    H134870   6.678   2.438   1.794 -1.8033 -4.9650 -0.1404
 4437TIP3    H234871   6.815   2.421   1.732 -0.4947 -0.6822  1.1574
 4438TIP3   OH234872   5.208   6.234   1.505  0.6293 -0.4156 -0.0692
 4438TIP3    H134873   5.184   6.153   1.550  1.1933 -0.9080 -0.6343
 4438TIP3    H234874   5.251   6.205   1.424  0.0873  0.4498 -0.6839
 4439TIP3   OH234875   2.704   6.126   0.327  0.0194  0.6152  0.0644
 4439TIP3    H134876   2.702   6.090   0.416  0.6561  1.6782  0.5324
 4439TIP3    H234877   2.708   6.050   0.270 -2.2249 -0.1769  0.8480
 4440TIP3   OH234878   6.127   6.581   2.486  0.2610  0.6671  0.5628
 4440TIP3    H134879   6.138   6.594   2.581  0.2014 -0.8041  0.8031
 4440TIP3    H234880   6.216   6.574   2.452  0.3206 -1.9944  1.0540
 4441TIP3   OH234881   3.902   0.237   0.278  0.4664 -0.5952 -0.3706
 4441TIP3    H134882   3.820   0.278   0.305  1.2781 -0.4149  2.0355
 4441TIP3    H234883   3.963   0.309   0.268  0.7639 -0.8632 -0.4915
 4442TIP3   OH234884   6.166   5.590   2.961 -0.1508 -0.6298 -0.4214
 4442TIP3    H134885   6.183   5.683   2.978 -1.1889 -0.2247 -1.4414
 4442TIP3    H234886   6.226   5.567   2.890  2.2045 -1.5749  1.7446
 4443TIP3   OH234887   3.489   1.004   2.751 -0.2384 -0.1224  0.0174
 4443TIP3    H134888   3.566   1.062   2.752 -1.0506  1.0941  3.0923
 4443TIP3    H234889   3.524   0.918   2.773  0.3934  0.2350  0.4508
 4444TIP3   OH234890   6.550   1.850   7.186  0.0576 -0.9528  0.3358
 4444TIP3    H134891   6.567   1.786   7.254  4.2645 -1.0420 -0.4973
 4444TIP3    H234892   6.500   1.803   7.120  0.3904 -2.4288  1.1041
 4445TIP3   OH234893   0.586   2.489   1.580 -0.0668 -0.5586  0.0561
 4445TIP3    H134894   0.615   2.446   1.661 -0.3472 -0.6127  0.1291
 4445TIP3    H234895   0.665   2.528   1.543  0.0201 -0.3442  0.4717
 4446TIP3   OH234896   0.425   4.198   1.464 -0.0551  0.3334  0.5737
 4446TIP3    H134897   0.442   4.200   1.559  0.0433  0.9567  0.5477
 4446TIP3    H234898   0.419   4.291   1.439  3.2087  0.3518 -0.6048
 4447TIP3   OH234899   3.316   0.729   1.867  0.0898 -0.3048  0.6016
 4447TIP3    H134900   3.232   0.720   1.913  0.3588 -0.0017  1.1686
 4447TIP3    H234901   3.379   0.684   1.923  0.4320  0.1173  0.5608
 4448TIP3   OH234902   2.402   6.064   7.719  0.2780 -0.4463  1.0367
 4448TIP3    H134903   2.325   6.096   7.671  1.2866  0.4327 -0.0598
 4448TIP3    H234904   2.460   6.140   7.724  3.2523 -2.1376 -2.5932
 4449TIP3   OH234905   4.563   1.578   0.204  0.1085  0.1319 -0.2057
 4449TIP3    H134906   4.478   1.613   0.175  0.7986  1.2545 -0.9614
 4449TIP3    H234907   4.586   1.512   0.139 -0.6857 -1.0154  0.6253
 4450TIP3   OH234908   0.499   6.602   6.968  0.0280  0.1991  0.3922
 4450TIP3    H134909   0.589   6.633   6.959  0.0021  0.1592 -0.0269
 4450TIP3    H234910   0.493   6.527   6.909 -0.2526  0.1472  0.4851
 4451TIP3   OH234911   6.580   2.112   2.497 -0.0715  0.4775  0.7654
 4451TIP3    H134912   6.524   2.124   2.420 -0.6509 -1.1663  0.8865
 4451TIP3    H234913   6.579   2.197   2.540  1.2994  1.8636 -1.6805
 4452TIP3   OH234914   5.321   6.156   8.110  0.1329  0.1554  0.5735
 4452TIP3    H134915   5.314   6.229   8.171  3.2480  1.3167 -0.2830
 4452TIP3    H234916   5.398   6.107   8.139  1.4040  0.4518 -2.0245
 4453TIP3   OH234917   3.191   1.746   1.233 -0.2174 -0.0925 -0.0656
 4453TIP3    H134918   3.241   1.822   1.202  2.1666 -1.0768  1.0761
 4453TIP3    H234919   3.107   1.781   1.262  0.3900  1.9128 -0.6265
 4454TIP3   OH234920   5.859   4.087   2.192 -0.7042  0.0683  0.2152
 4454TIP3    H134921   5.843   4.160   2.132 -0.0270 -0.3752 -0.5389
 4454TIP3    H234922   5.775   4.043   2.199 -0.8253  0.2049 -0.3236
 4455TIP3   OH234923   5.189   0.183   1.467 -0.2728 -0.0744  0.4835
 4455TIP3    H134924   5.202   0.120   1.396  0.5323  0.5167  0.0919
 4455TIP3    H234925   5.101   0.164   1.500 -0.9622  0.1224 -1.1565
 4456TIP3   OH234926   0.320   5.435   8.786  0.3517  0.2506  0.4126
 4456TIP3    H134927   0.404   5.481   8.788  1.3259 -1.0389 -2.8498
 4456TIP3    H234928   0.342   5.344   8.806 -0.5099  0.1235  0.8190
 4457TIP3   OH234929   1.373   5.868   2.621 -0.1611 -0.1587  0.4081
 4457TIP3    H134930   1.458   5.848   2.661  0.9612  3.0660 -0.0529
 4457TIP3    H234931   1.320   5.902   2.694 -0.9662 -1.6780  0.5890
 4458TIP3   OH234932   5.458   0.015   2.945  0.0434  0.2552  0.2313
 4458TIP3    H134933   5.539   0.023   2.895 -0.3561  1.8870 -0.1950
 4458TIP3    H234934   5.420  -0.068   2.915  1.2205 -0.2023 -0.0440
 4459TIP3   OH234935   3.986   5.054   8.029  0.0845 -0.1681  0.3074
 4459TIP3    H134936   3.975   4.997   8.105 -0.6756  0.6793  0.8521
 4459TIP3    H234937   3.900   5.055   7.986  0.4253 -0.3969 -0.3959
 4460TIP3   OH234938   0.403   0.476   0.432 -0.3812  0.0628 -0.4542
 4460TIP3    H134939   0.455   0.497   0.354 -1.4102  0.0187 -1.1665
 4460TIP3    H234940   0.466   0.482   0.505  1.1631 -2.1312 -1.4858
 4461TIP3   OH234941   6.306   5.244   0.604 -0.3165 -0.3129 -0.5848
 4461TIP3    H134942   6.334   5.325   0.647 -1.9251  0.0631 -0.1754
 4461TIP3    H234943   6.272   5.273   0.519 -0.9197 -0.5471 -0.4281
 4462TIP3   OH234944   5.027   4.482   0.414  0.7712 -0.1002  0.0700
 4462TIP3    H134945   5.055   4.450   0.500  0.8957 -0.8082 -0.2273
 4462TIP3    H234946   4.977   4.410   0.377  0.5294  0.2872 -0.3615
 4463TIP3   OH234947   3.477   2.789   2.410  0.5148  0.0284  0.5872
 4463TIP3    H134948   3.515   2.719   2.463 -0.2423 -0.4735  0.4870
 4463TIP3    H234949   3.459   2.859   2.473 -1.2862 -0.9309  1.2294
 4464TIP3   OH234950   6.131   3.663   7.651 -0.6233 -0.2602  0.0990
 4464TIP3    H134951   6.103   3.574   7.631  1.6779 -1.3579  1.4652
 4464TIP3    H234952   6.191   3.686   7.580 -0.1523 -0.3225  0.4760
 4465TIP3   OH234953   5.653   0.524   2.220  0.0724 -0.1518  0.3571
 4465TIP3    H134954   5.742   0.510   2.251  0.3715 -0.4480 -0.6222
 4465TIP3    H234955   5.617   0.589   2.281  0.5121 -1.0031  1.5552
 4466TIP3   OH234956   2.365   4.140   0.777 -0.3310  0.7376 -0.3878
 4466TIP3    H134957   2.417   4.147   0.857 -1.6508  0.4407  0.5123
 4466TIP3    H234958   2.414   4.077   0.723  0.9833  1.5326 -0.1843
 4467TIP3   OH234959   0.293   3.808   2.662 -0.1441  0.0123  0.4589
 4467TIP3    H134960   0.272   3.892   2.702 -0.5963 -0.9559  2.3569
 4467TIP3    H234961   0.229   3.747   2.699 -0.1135 -1.1097 -1.2164
 4468TIP3   OH234962   3.233   2.314   0.314 -0.3631  0.3654  0.1372
 4468TIP3    H134963   3.301   2.263   0.358 -0.8219 -1.3713 -1.0562
 4468TIP3    H234964   3.151   2.269   0.335 -1.0208  1.6700  0.4826
 4469TIP3   OH234965   5.158   0.698   2.230 -0.5850  0.3110  0.6406
 4469TIP3    H134966   5.150   0.613   2.272  1.1453 -0.4400 -0.4002
 4469TIP3    H234967   5.072   0.739   2.240 -0.8265 -0.6314  3.0622
 4470TIP3   OH234968   2.446   2.126   0.934  0.1273  0.3215  0.3808
 4470TIP3    H134969   2.473   2.090   1.018 -0.0780 -0.3884  0.1493
 4470TIP3    H234970   2.354   2.150   0.947 -1.1380 -3.2819 -0.6697
 4471TIP3   OH234971   1.122   4.001   3.132 -0.2122 -0.2388  0.2120
 4471TIP3    H134972   1.124   3.920   3.081 -1.0595  0.3545 -0.8073
 4471TIP3    H234973   1.031   4.008   3.162  0.0174 -0.0052  0.8773
 4472TIP3   OH234974   6.376   6.386   7.923  0.6473 -0.3051 -0.1566
 4472TIP3    H134975   6.294   6.366   7.879  0.3207  1.0468 -0.2088
 4472TIP3    H234976   6.354   6.391   8.016 -0.0737  3.0261 -0.3611
 4473TIP3   OH234977   1.525   5.847   8.216 -0.0085 -0.0167 -0.0685
 4473TIP3    H134978   1.479   5.803   8.144  0.4847 -1.2279  0.3315
 4473TIP3    H234979   1.456   5.898   8.260 -0.4028  0.3839 -1.1061
 4474TIP3   OH234980   1.457   0.886   3.252  0.5647  0.1527  0.2225
 4474TIP3    H134981   1.471   0.977   3.228 -1.1752  0.2443 -0.6268
 4474TIP3    H234982   1.375   0.886   3.300 -0.4261 -1.1450 -1.3377
 4475TIP3   OH234983   1.351   6.418   2.592 -0.1985  0.1775 -0.3569
 4475TIP3    H134984   1.287   6.457   2.651  1.0728  1.5854  0.1316
 4475TIP3    H234985   1.429   6.472   2.600  0.1273  0.3064 -3.1488
 4476TIP3   OH234986   6.158   6.477   1.953 -0.3993 -0.0183  0.6712
 4476TIP3    H134987   6.080   6.421   1.958 -0.7466  0.5349  2.0410
 4476TIP3    H234988   6.201   6.465   2.037 -0.5299  1.8090  1.0333
 4477TIP3   OH234989   2.964   4.577   1.224 -0.0696 -0.2081 -0.2382
 4477TIP3    H134990   2.970   4.565   1.319  0.0547  0.3694 -0.1675
 4477TIP3    H234991   2.913   4.503   1.193 -0.1209 -0.3924  0.2853
 4478TIP3   OH234992   6.463   1.257   1.296  0.2256  0.0779 -0.2322
 4478TIP3    H134993   6.494   1.213   1.217  0.0904  0.2482 -0.3816
 4478TIP3    H234994   6.495   1.203   1.368 -0.7253 -0.7656 -0.4372
 4479TIP3   OH234995   5.748   4.354   2.331 -0.5431  0.1417  0.0802
 4479TIP3    H134996   5.714   4.337   2.243 -1.4720  0.1844  0.4281
 4479TIP3    H234997   5.712   4.284   2.385 -0.5936  0.5496  0.5788
 4480TIP3   OH234998   0.856   3.100   2.896 -0.0937  0.0163 -0.3041
 4480TIP3    H134999   0.873   3.194   2.901 -0.7039  0.1529 -0.5823
 4480TIP3    H235000   0.929   3.065   2.845 -0.1513  0.4354 -0.6893
 4481TIP3   OH235001   4.546   1.369   2.199  0.3161 -0.1627 -0.0488
 4481TIP3    H135002   4.548   1.346   2.106 -1.6487 -3.2574  0.5356
 4481TIP3    H235003   4.456   1.395   2.216  0.1583 -1.4178  1.2960
 4482TIP3   OH235004   0.772   1.003   8.283 -0.0002 -0.7611  0.1541
 4482TIP3    H135005   0.749   0.987   8.375  0.4489 -2.5048 -0.0106
 4482TIP3    H235006   0.738   1.091   8.265 -0.1533 -0.4101  1.9622
 4483TIP3   OH235007   6.378   3.066   0.841  0.3746 -0.3227  0.5921
 4483TIP3    H135008   6.330   3.043   0.921 -3.0480  0.9696 -0.8987
 4483TIP3    H235009   6.386   3.161   0.844  0.9744 -0.3349 -0.2056
 4484TIP3   OH235010   4.766   5.565   2.457 -0.0461  0.0307  0.1549
 4484TIP3    H135011   4.678   5.533   2.438  0.0648 -0.2343  0.0913
 4484TIP3    H235012   4.807   5.494   2.505 -0.3826  0.7518  1.5591
 4485TIP3   OH235013   5.063   1.783   1.501 -0.6040  0.4894 -0.1853
 4485TIP3    H135014   5.120   1.845   1.455  0.1320  1.2132  1.6042
 4485TIP3    H235015   5.059   1.817   1.590 -3.5444  0.2471 -0.1316
 4486TIP3   OH235016   0.640   1.351   1.535 -0.4486  1.0316 -0.6751
 4486TIP3    H135017   0.631   1.256   1.533  1.4954  0.7765 -3.1346
 4486TIP3    H235018   0.564   1.384   1.488 -1.7203  0.8197  1.1625
 4487TIP3   OH235019   2.669   3.195   6.605 -0.2383  0.0322  0.4612
 4487TIP3    H135020   2.662   3.289   6.593  1.3180  0.2413  1.0010
 4487TIP3    H235021   2.606   3.175   6.674  2.9185  1.5746  4.1772
 4488TIP3   OH235022   6.245   4.750   0.343 -0.2450  0.3215 -0.6621
 4488TIP3    H135023   6.215   4.737   0.433  1.8587 -2.8197 -0.2736
 4488TIP3    H235024   6.320   4.809   0.350 -0.3196  0.3856 -0.4145
 4489TIP3   OH235025   6.016   1.609   2.624 -0.0570 -0.1353  0.1655
 4489TIP3    H135026   5.951   1.616   2.554  1.6640 -0.9066 -1.6182
 4489TIP3    H235027   5.978   1.548   2.687 -1.5232  0.3362 -0.2266
 4490TIP3   OH235028   5.228   5.264   1.099  0.6834  0.2843 -0.1789
 4490TIP3    H135029   5.145   5.279   1.054  0.3705 -0.2162  0.2146
 4490TIP3    H235030   5.282   5.216   1.036  0.3393 -0.1964 -0.1079
 4491TIP3   OH235031   4.421   3.397   0.657  0.0396  0.1242 -0.2328
 4491TIP3    H135032   4.481   3.353   0.596 -0.5240  0.6024 -1.1337
 4491TIP3    H235033   4.464   3.387   0.743  1.5777  0.7424 -0.9013
 4492TIP3   OH235034   1.365   5.047   7.504  0.0985  0.3103  0.0689
 4492TIP3    H135035   1.288   5.100   7.481  0.8039  0.7177 -1.4502
 4492TIP3    H235036   1.329   4.972   7.551 -1.0561  1.4028  0.9991
 4493TIP3   OH235037   2.292   4.681   2.141 -0.3348 -0.2986  0.0769
 4493TIP3    H135038   2.281   4.665   2.235  1.9673 -0.4419  0.3894
 4493TIP3    H235039   2.278   4.596   2.100 -3.4059  0.1366 -0.0255
 4494TIP3   OH235040   1.684   5.293   0.199 -0.2668  0.0036  0.0849
 4494TIP3    H135041   1.716   5.301   0.110 -1.9797 -0.5016 -0.6183
 4494TIP3    H235042   1.735   5.357   0.249  1.7866 -0.7689 -0.9167
 4495TIP3   OH235043   5.830   2.730   2.103  0.0198 -0.1104 -0.7453
 4495TIP3    H135044   5.829   2.737   2.199  0.1910 -0.0504 -0.7488
 4495TIP3    H235045   5.775   2.803   2.074  0.4352  0.2147 -0.7146
 4496TIP3   OH235046   4.884   6.441   1.435 -0.2713  0.2953 -0.1305
 4496TIP3    H135047   4.909   6.526   1.398 -0.4503  0.5932  0.4114
 4496TIP3    H235048   4.886   6.456   1.530  1.8474 -0.8928  0.0771
 4497TIP3   OH235049   5.514   1.639   6.644  0.6579  0.5387 -0.0206
 4497TIP3    H135050   5.478   1.557   6.678  2.3169 -0.3187 -0.2186
 4497TIP3    H235051   5.475   1.707   6.699 -1.6304 -0.2366 -0.5813
 4498TIP3   OH235052   6.514   5.034   8.530  0.2325  0.0684  0.0321
 4498TIP3    H135053   6.601   4.999   8.545  0.5086  1.1165  0.9983
 4498TIP3    H235054   6.523   5.128   8.544 -0.4644  0.5987 -2.5360
 4499TIP3   OH235055   0.854   4.508   1.948  0.5772  0.1740  0.3688
 4499TIP3    H135056   0.865   4.414   1.962  0.3667  0.0725 -0.1228
 4499TIP3    H235057   0.860   4.519   1.853 -2.0112  0.2752  0.1293
 4500TIP3   OH235058   4.018   0.742   0.197 -0.4981 -0.1210  0.1209
 4500TIP3    H135059   3.936   0.781   0.227 -0.9765 -0.5357 -0.6337
 4500TIP3    H235060   4.044   0.795   0.122 -0.9558 -1.0081 -0.6811
 4501TIP3   OH235061   2.446   6.090   1.220  0.3039  0.5061  0.2413
 4501TIP3    H135062   2.508   6.018   1.208 -0.9606 -0.5557 -0.1447
 4501TIP3    H235063   2.501   6.168   1.222  1.5607 -0.2505 -1.5293
 4502TIP3   OH235064   5.141   2.029   0.553  0.1673 -0.0094  0.0186
 4502TIP3    H135065   5.134   2.042   0.648 -0.3692  2.2873 -0.2806
 4502TIP3    H235066   5.234   2.043   0.534  0.1498  0.2425  0.1179
 4503TIP3   OH235067   5.471   6.015   0.966  0.6100  0.2287 -0.1170
 4503TIP3    H135068   5.483   6.003   0.872 -3.2605  0.1188 -0.7434
 4503TIP3    H235069   5.501   5.933   1.005 -2.5546 -2.0207 -1.9095
 4504TIP3   OH235070   0.190   1.735   6.795 -0.0946 -0.1180 -0.5791
 4504TIP3    H135071   0.123   1.785   6.843  0.0910 -0.2331 -0.1909
 4504TIP3    H235072   0.140   1.682   6.733 -0.3399  0.0746 -0.5475
 4505TIP3   OH235073   5.033   6.175   7.255 -0.1750  0.4561  0.0239
 4505TIP3    H135074   5.021   6.161   7.161  0.4256 -1.7070  0.2162
 4505TIP3    H235075   5.062   6.090   7.288 -1.6015  0.8067  2.3829
 4506TIP3   OH235076   4.867   2.466   8.433  0.9516  0.6035 -0.2380
 4506TIP3    H135077   4.879   2.561   8.426  1.6244  0.7608  2.2075
 4506TIP3    H235078   4.952   2.429   8.410  1.5869  0.8005  1.6719
 4507TIP3   OH235079   5.475   4.243   2.708  0.1740 -0.6753 -0.0668
 4507TIP3    H135080   5.451   4.151   2.718  1.0784 -0.7234  2.1118
 4507TIP3    H235081   5.546   4.257   2.771 -0.7508  1.8080  0.5369
 4508TIP3   OH235082   5.280   5.903   7.544  0.7697  0.0240  0.2677
 4508TIP3    H135083   5.314   5.821   7.510  1.1128 -0.0681  0.8336
 4508TIP3    H235084   5.356   5.961   7.550  0.3259  0.8428 -1.4175
 4509TIP3   OH235085   5.373   2.400   1.279  0.4093  0.8047 -0.0561
 4509TIP3    H135086   5.450   2.425   1.330 -1.1833  2.1622  1.8253
 4509TIP3    H235087   5.356   2.476   1.224 -0.3540  1.0650  0.5279
 4510TIP3   OH235088   6.500   1.497   0.696  0.3671 -0.3023  0.0480
 4510TIP3    H135089   6.593   1.492   0.678  0.2933  2.0322 -1.3713
 4510TIP3    H235090   6.469   1.570   0.643 -2.3840 -1.3458  0.0524
 4511TIP3   OH235091   0.971   0.646   1.292 -0.0765  0.0027  0.0004
 4511TIP3    H135092   0.973   0.552   1.312 -1.3050 -0.2554 -0.9843
 4511TIP3    H235093   1.055   0.663   1.249  0.1583 -0.6507  0.1975
 4512TIP3   OH235094   0.661   4.033   6.834 -0.2725  0.4611 -0.2400
 4512TIP3    H135095   0.589   4.042   6.772  0.4593  0.0763 -1.1769
 4512TIP3    H235096   0.619   4.016   6.918 -1.2614 -0.6200 -0.9227
 4513TIP3   OH235097   6.233   3.602   2.024  0.2176 -0.1362 -0.6838
 4513TIP3    H135098   6.294   3.543   2.067 -0.7920  0.3988  1.6138
 4513TIP3    H235099   6.285   3.679   2.000  0.8168 -0.4966 -0.5406
 4514TIP3   OH235100   6.298   3.065   8.530 -0.7254  0.2758  0.1732
 4514TIP3    H135101   6.303   2.992   8.591 -0.3873 -1.5850 -1.9404
 4514TIP3    H235102   6.374   3.120   8.552  0.7452 -1.5776 -0.0190
 4515TIP3   OH235103   4.258   0.110   1.163 -0.6200 -0.2300 -0.3238
 4515TIP3    H135104   4.323   0.177   1.142 -0.7669 -0.0980 -0.3514
 4515TIP3    H235105   4.305   0.047   1.218  0.0282 -1.0230 -1.7185
 4516TIP3   OH235106   2.809   4.152   8.205 -0.0571 -0.2803 -0.1063
 4516TIP3    H135107   2.723   4.111   8.197 -0.1914 -0.0416  0.0923
 4516TIP3    H235108   2.865   4.085   8.245  0.5475 -1.4015 -2.6285
 4517TIP3   OH235109   2.218   4.057   2.928  0.0142  0.1018  0.6405
 4517TIP3    H135110   2.263   4.079   2.846 -0.8565  1.2152  0.4335
 4517TIP3    H235111   2.266   3.982   2.963  0.0311 -0.8146 -1.2177
 4518TIP3   OH235112   4.507   6.127   8.102 -0.1062 -0.1630  0.5994
 4518TIP3    H135113   4.451   6.050   8.107 -0.1155 -0.1067  1.5916
 4518TIP3    H235114   4.596   6.092   8.105 -0.0580 -0.2500 -0.9468
 4519TIP3   OH235115   5.024   0.770   8.002 -0.6074 -0.0590 -0.8156
 4519TIP3    H135116   4.997   0.683   7.974  1.0836 -1.2580  1.0157
 4519TIP3    H235117   4.960   0.795   8.069 -1.3227  0.3365 -1.6156
 4520TIP3   OH235118   4.761   2.873   0.270 -0.0828 -0.0548  0.0426
 4520TIP3    H135119   4.804   2.955   0.295 -0.2246 -0.3063  1.1683
 4520TIP3    H235120   4.699   2.855   0.341 -1.0409 -0.4342 -0.8699
 4521TIP3   OH235121   2.580   0.904   8.752  0.2457 -0.3225  0.2514
 4521TIP3    H135122   2.588   0.810   8.739 -0.1981 -0.8601  3.2137
 4521TIP3    H235123   2.667   0.933   8.778  0.3374  0.0634 -0.4598
 4522TIP3   OH235124   4.899   3.828   7.694 -0.1419 -0.4871 -0.0214
 4522TIP3    H135125   4.961   3.899   7.710 -0.3459  0.0134 -1.2904
 4522TIP3    H235126   4.847   3.822   7.773  0.7779 -0.1464  0.6268
 4523TIP3   OH235127   6.428   1.244   2.098 -0.6629  0.2658 -0.3544
 4523TIP3    H135128   6.431   1.318   2.160  0.5768  1.0227 -1.2573
 4523TIP3    H235129   6.428   1.166   2.153  0.0704  0.9261  0.6183
 4524TIP3   OH235130   0.290   4.090   0.968  0.2662  0.3650  0.9842
 4524TIP3    H135131   0.207   4.060   1.004  0.4839 -1.0517  0.3691
 4524TIP3    H235132   0.335   4.131   1.043 -0.4989  0.1025  1.6010
 4525TIP3   OH235133   2.260   4.040   0.395  0.2601  0.0906  0.7485
 4525TIP3    H135134   2.223   4.026   0.483  0.4448  0.0563  0.8214
 4525TIP3    H235135   2.345   4.082   0.411 -0.5744  1.9566  0.5011
 4526TIP3   OH235136   3.251   4.234   7.752  0.3353  0.0094  0.5779
 4526TIP3    H135137   3.326   4.175   7.763 -0.2475 -1.3987 -2.1334
 4526TIP3    H235138   3.268   4.279   7.670 -2.7291 -2.0317 -1.3721
 4527TIP3   OH235139   5.671   4.909   7.892  0.3444  0.1861  0.0638
 4527TIP3    H135140   5.610   4.983   7.892  0.1149  0.0344 -1.7109
 4527TIP3    H235141   5.650   4.860   7.972  0.7222  2.1691  1.4654
 4528TIP3   OH235142   0.366   6.580   7.632  0.0130 -0.3432  0.3117
 4528TIP3    H135143   0.390   6.528   7.556  0.4051  0.5322 -0.1713
 4528TIP3    H235144   0.271   6.565   7.641 -0.0993 -0.2081 -0.5368
 4529TIP3   OH235145   0.621   4.898   1.987  0.0059 -0.1334 -0.0174
 4529TIP3    H135146   0.639   4.906   2.081 -3.4874  0.5093  0.7466
 4529TIP3    H235147   0.613   4.803   1.973 -3.0220 -0.2127  1.3135
 4530TIP3   OH235148   3.821   1.065   1.370  0.1637  0.0024 -0.4775
 4530TIP3    H135149   3.880   1.042   1.442  0.3219 -0.5472 -0.7802
 4530TIP3    H235150   3.877   1.068   1.293 -0.2384 -0.7996 -0.8158
 4531TIP3   OH235151   2.764   6.783   8.635 -0.0102  0.4796 -0.3965
 4531TIP3    H135152   2.850   6.768   8.596  0.0810 -0.6121  0.1770
 4531TIP3    H235153   2.727   6.856   8.585  0.8148  0.2732 -1.3432
 4532TIP3   OH235154   6.212   0.200   7.755 -0.2483  0.1927 -0.7747
 4532TIP3    H135155   6.165   0.257   7.694  2.0494  0.6991 -2.2378
 4532TIP3    H235156   6.273   0.152   7.699  0.7540 -0.6176  0.9511
 4533TIP3   OH235157   1.739   1.591   8.626 -0.2229 -0.2399  0.4103
 4533TIP3    H135158   1.729   1.523   8.559 -0.6084 -0.8408  1.0621
 4533TIP3    H235159   1.747   1.543   8.708  1.4033  0.4388  0.6906
 4534TIP3   OH235160   3.558   3.554   8.064  0.5270  0.0002 -0.0583
 4534TIP3    H135161   3.569   3.634   8.114 -1.9228 -0.2704  1.0950
 4534TIP3    H235162   3.604   3.569   7.982  0.5516  2.3786  0.3426
 4535TIP3   OH235163   0.307   2.265   0.715  0.6758  0.7322 -0.1204
 4535TIP3    H135164   0.265   2.266   0.629 -2.0114  1.4028  1.0870
 4535TIP3    H235165   0.290   2.352   0.751 -1.3102 -0.5778  2.3797
 4536TIP3   OH235166   3.074   3.982   1.722  0.3313 -0.3252 -0.8494
 4536TIP3    H135167   3.153   3.975   1.776  0.8709  0.2308 -1.5459
 4536TIP3    H235168   3.036   4.067   1.746  0.1251 -0.4442 -0.7540
 4537TIP3   OH235169   1.649   4.263   1.844 -0.2194  0.1502  0.6728
 4537TIP3    H135170   1.691   4.192   1.795  0.0590  0.1721  0.8753
 4537TIP3    H235171   1.683   4.253   1.933  0.6461  1.1746  0.4771
 4538TIP3   OH235172   1.394   1.745   1.942 -0.4037 -0.3150  0.0538
 4538TIP3    H135173   1.423   1.670   1.993  2.1998  1.2475  1.0496
 4538TIP3    H235174   1.467   1.765   1.883 -1.3735  0.9150 -0.8223
 4539TIP3   OH235175   3.754   2.351   6.836  0.6134 -0.2831 -0.1418
 4539TIP3    H135176   3.665   2.339   6.869  1.4228 -1.4976  1.7780
 4539TIP3    H235177   3.768   2.446   6.839  0.0016 -0.2219  1.2450
 4540TIP3   OH235178   2.317   3.972   8.058 -0.3450  1.1237  0.4965
 4540TIP3    H135179   2.313   3.988   8.152 -0.9007  0.7944  0.5336
 4540TIP3    H235180   2.374   3.896   8.048 -1.0335  0.5742  0.6475
 4541TIP3   OH235181   4.354   5.733   1.587 -0.0831  0.6193 -0.1769
 4541TIP3    H135182   4.434   5.773   1.555 -0.1075  0.2775 -0.6925
 4541TIP3    H235183   4.331   5.668   1.519  0.7234 -1.2755  1.2796
 4542TIP3   OH235184   0.157   0.508   8.274 -0.0664 -0.1696 -0.4403
 4542TIP3    H135185   0.195   0.576   8.331 -1.3263  1.1568 -1.0961
 4542TIP3    H235186   0.218   0.502   8.201  0.8850 -0.9380  0.3842
 4543TIP3   OH235187   0.845   0.281   3.057  0.2711 -0.1182  0.0896
 4543TIP3    H135188   0.830   0.361   3.008  1.0974 -0.2242 -0.3657
 4543TIP3    H235189   0.939   0.281   3.075  0.3423 -1.1338 -0.1993
 4544TIP3   OH235190   5.520   3.819   1.168  0.1506 -0.8373 -0.5643
 4544TIP3    H135191   5.520   3.797   1.075  1.9586  0.1724 -0.8554
 4544TIP3    H235192   5.579   3.894   1.175 -2.6249  1.3692  0.9255
 4545TIP3   OH235193   4.752   0.615   1.251  0.1043 -0.1423  0.3297
 4545TIP3    H135194   4.723   0.545   1.308  0.4416 -2.0501 -1.7015
 4545TIP3    H235195   4.720   0.591   1.164  1.3633  1.5370 -0.6749
 4546TIP3   OH235196   2.156   2.931   1.749 -0.7236  0.1414 -0.1924
 4546TIP3    H135197   2.188   2.867   1.812 -0.6921  0.9525  0.6538
 4546TIP3    H235198   2.144   2.882   1.668  1.0766 -0.5413 -0.0906
 4547TIP3   OH235199   6.071   6.692   1.691  0.5816 -0.2989 -0.1248
 4547TIP3    H135200   5.990   6.720   1.648  1.6470 -0.2454 -2.2296
 4547TIP3    H235201   6.047   6.613   1.739 -0.9871  0.4304  0.3443
 4548TIP3   OH235202   4.307   5.283   1.390 -0.2766  0.0560  0.1442
 4548TIP3    H135203   4.270   5.230   1.319 -1.0476  0.5790  0.1465
 4548TIP3    H235204   4.391   5.241   1.410 -1.2547 -1.6935  0.7572
 4549TIP3   OH235205   2.052   4.400   2.148 -0.0351 -0.3374  0.5980
 4549TIP3    H135206   2.128   4.413   2.090 -1.3350  0.3870 -1.0158
 4549TIP3    H235207   2.085   4.342   2.217  2.2386  0.7057  0.4775
 4550TIP3   OH235208   3.730   4.750   8.361  0.1663  0.4757 -0.6567
 4550TIP3    H135209   3.703   4.816   8.297 -1.1073 -0.8289 -1.5314
 4550TIP3    H235210   3.670   4.762   8.435  0.2228  0.5822 -0.6286
 4551TIP3   OH235211   6.578   4.205   0.620 -0.2017 -0.3619 -0.5369
 4551TIP3    H135212   6.565   4.112   0.636 -1.0285  0.0091  1.1877
 4551TIP3    H235213   6.568   4.215   0.525  1.1175 -2.1790 -0.9193
 4552TIP3   OH235214   2.304   1.241   2.641  0.0036 -0.3342  0.2491
 4552TIP3    H135215   2.349   1.325   2.633 -1.0728  0.1613 -0.9189
 4552TIP3    H235216   2.308   1.203   2.553 -0.4795 -0.9984  0.5089
 4553TIP3   OH235217   3.664   6.098   1.358  0.5522  0.0590 -0.1627
 4553TIP3    H135218   3.633   6.008   1.351  1.7050 -0.4441  0.7350
 4553TIP3    H235219   3.622   6.144   1.286  0.9962 -1.5086 -1.4812
 4554TIP3   OH235220   6.567   3.740   8.786 -0.3195 -0.2842 -0.2593
 4554TIP3    H135221   6.495   3.677   8.780 -0.5284 -0.0993  0.1839
 4554TIP3    H235222   6.576   3.757   8.880  0.0188  0.0185 -0.3428
 4555TIP3   OH235223   6.450   4.730   8.437  0.3616  0.1181 -0.6284
 4555TIP3    H135224   6.396   4.765   8.366  2.0728  2.5580 -0.8608
 4555TIP3    H235225   6.482   4.808   8.483  1.4395 -1.3186  1.2031
 4556TIP3   OH235226   4.527   0.138   8.794 -0.1043  0.3320  0.2988
 4556TIP3    H135227   4.576   0.197   8.737  0.3275  0.6366  0.9717
 4556TIP3    H235228   4.508   0.190   8.872  1.3141 -0.7303  1.4212
 4557TIP3   OH235229   5.157   2.691   7.931 -0.3848  0.4127  0.0265
 4557TIP3    H135230   5.217   2.765   7.938  0.4151 -0.2436  0.3094
 4557TIP3    H235231   5.190   2.628   7.994  0.4209 -1.1805 -1.8633
 4558TIP3   OH235232   2.647   2.468   3.054 -0.0491 -0.3078  0.3158
 4558TIP3    H135233   2.688   2.411   3.119 -1.6913 -1.8218  0.0701
 4558TIP3    H235234   2.717   2.487   2.992  0.4867 -2.2647  0.2708
 4559TIP3   OH235235   6.101   1.581   2.188 -0.1669  0.6461  0.4786
 4559TIP3    H135236   6.140   1.571   2.101  0.8677 -1.2228  1.0999
 4559TIP3    H235237   6.140   1.662   2.222  1.3518  0.0946  0.1385
 4560TIP3   OH235238   2.112   6.238   0.758  0.0112 -0.0139 -0.0628
 4560TIP3    H135239   2.019   6.224   0.740 -0.6582  0.5531  2.5738
 4560TIP3    H235240   2.141   6.156   0.799  0.7178 -0.1950 -0.8862
 4561TIP3   OH235241   1.532   1.143   3.111 -0.1001  0.6697  0.2628
 4561TIP3    H135242   1.607   1.202   3.107  0.2606  0.2244  0.3494
 4561TIP3    H235243   1.517   1.118   3.020 -1.5690  2.4986 -0.0575
 4562TIP3   OH235244   2.047   6.175   1.427 -0.4272  0.2198 -0.3661
 4562TIP3    H135245   2.108   6.193   1.355 -0.6601  3.1513  0.0338
 4562TIP3    H235246   1.965   6.150   1.384 -0.3068  1.0350 -1.0975
 4563TIP3   OH235247   5.763   0.387   0.763  0.4627 -0.3514 -0.0821
 4563TIP3    H135248   5.711   0.416   0.838  0.8726 -1.3751  0.6203
 4563TIP3    H235249   5.707   0.325   0.717  0.4509 -0.2103 -0.2575
 4564TIP3   OH235250   1.571   1.105   1.541  0.5408  0.5245 -0.0361
 4564TIP3    H135251   1.507   1.174   1.558  0.4506 -0.1135  2.6428
 4564TIP3    H235252   1.649   1.152   1.510 -0.5610  1.4720 -1.5074
 4565TIP3   OH235253   1.530   6.212   8.126  0.5480  0.2343  0.9831
 4565TIP3    H135254   1.566   6.289   8.170 -0.0622  1.0942  0.0106
 4565TIP3    H235255   1.439   6.207   8.155  1.4157 -2.1737  3.7567
 4566TIP3   OH235256   1.369   4.826   0.593 -0.4595  0.0480 -0.4286
 4566TIP3    H135257   1.301   4.891   0.575 -0.4721 -0.4600 -2.3348
 4566TIP3    H235258   1.447   4.878   0.614 -1.1210  0.6345  0.6942
 4567TIP3   OH235259   5.330   0.459   1.812 -0.8624  0.3362  0.5490
 4567TIP3    H135260   5.365   0.439   1.899 -0.8364  0.0775  0.4814
 4567TIP3    H235261   5.268   0.388   1.795  1.5515 -1.5732 -1.0273
 4568TIP3   OH235262   5.902   6.755   2.014  0.2658 -1.0118 -0.6857
 4568TIP3    H135263   5.923   6.759   2.108 -2.1332 -1.4341 -0.0671
 4568TIP3    H235264   5.942   6.833   1.977 -0.4669  0.2812  1.0940
 4569TIP3   OH235265   1.457   0.351   1.496  0.6483  0.0281  0.1092
 4569TIP3    H135266   1.529   0.408   1.521  1.1635 -0.6023  0.0828
 4569TIP3    H235267   1.399   0.351   1.572  2.4390 -2.2637  1.6004
 4570TIP3   OH235268   0.914   0.063   1.308 -0.6261 -0.3960 -0.4557
 4570TIP3    H135269   0.992   0.053   1.362 -0.6457  0.3734 -0.2704
 4570TIP3    H235270   0.849   0.005   1.348  0.3824 -2.5277 -1.7127
 4571TIP3   OH235271   0.888   0.909   7.797  0.2552  0.5399  0.4498
 4571TIP3    H135272   0.800   0.888   7.765  0.0667  2.1277 -0.1808
 4571TIP3    H235273   0.896   0.860   7.879 -1.3131  0.5610  0.6476
 4572TIP3   OH235274   3.754   4.888   1.685 -0.2079 -0.6855  0.1109
 4572TIP3    H135275   3.701   4.960   1.653  1.1475  0.3578  0.1242
 4572TIP3    H235276   3.837   4.896   1.638  0.1776 -1.8969  0.5311
 4573TIP3   OH235277   1.557   4.003   1.245  0.3874  0.7648  0.9796
 4573TIP3    H135278   1.555   4.037   1.334  0.8574  0.8446  0.9594
 4573TIP3    H235279   1.601   4.071   1.194 -1.0599  1.3418  0.4182
 4574TIP3   OH235280   4.735   1.225   8.181 -0.6710 -0.3362 -0.0956
 4574TIP3    H135281   4.813   1.170   8.175 -0.1507  0.3842 -0.0627
 4574TIP3    H235282   4.685   1.204   8.102  0.0421 -0.0682 -0.6280
 4575TIP3   OH235283   0.422   5.310   1.628 -0.3999 -0.5395  0.1777
 4575TIP3    H135284   0.433   5.376   1.697 -1.2888  1.5165 -1.5401
 4575TIP3    H235285   0.329   5.288   1.630 -0.1560 -1.5616  0.5651
 4576TIP3   OH235286   2.531   5.031   0.038 -0.3347  0.1850  0.8443
 4576TIP3    H135287   2.579   4.963  -0.010 -0.7585  1.4538 -1.5281
 4576TIP3    H235288   2.578   5.039   0.121  0.7444 -1.7822  0.4979
 4577TIP3   OH235289   0.373   2.525   0.525 -0.3145 -0.1303 -0.0224
 4577TIP3    H135290   0.453   2.476   0.544 -1.5501 -1.3063  2.5816
 4577TIP3    H235291   0.385   2.556   0.435  2.0518 -2.2067 -0.5284
 4578TIP3   OH235292   1.609   4.799   7.999 -0.1798  0.0023  0.5261
 4578TIP3    H135293   1.664   4.724   7.977 -1.9535 -1.1654 -0.1274
 4578TIP3    H235294   1.585   4.786   8.091 -0.3829 -0.1637  0.4493
 4579TIP3   OH235295   5.516   6.048   8.252  0.3028  0.0931 -0.3063
 4579TIP3    H135296   5.600   6.004   8.248 -0.0866 -0.7995  0.8070
 4579TIP3    H235297   5.517   6.096   8.335 -0.8208 -1.1331  0.4653
 4580TIP3   OH235298   5.164   0.248   1.757 -0.0769 -0.0898 -0.0067
 4580TIP3    H135299   5.088   0.219   1.706 -0.4981  2.0407 -0.6951
 4580TIP3    H235300   5.133   0.249   1.848  0.6934 -3.9599  0.4710
 4581TIP3   OH235301   4.113   1.805   8.245  0.3544 -0.1566  0.1490
 4581TIP3    H135302   4.193   1.825   8.294  0.3416  2.1392 -0.6537
 4581TIP3    H235303   4.143   1.783   8.157  0.1105  1.1148 -0.2673
 4582TIP3   OH235304   0.413   5.771   1.537 -0.2490 -0.2854 -0.6910
 4582TIP3    H135305   0.338   5.821   1.507 -0.2005  0.5283  0.5180
 4582TIP3    H235306   0.435   5.807   1.622  0.5839 -1.5190 -0.3459
 4583TIP3   OH235307   0.805   6.477   1.415 -0.2810 -0.0067  0.4577
 4583TIP3    H135308   0.853   6.541   1.467 -0.5128  0.8264 -0.3165
 4583TIP3    H235309   0.820   6.504   1.324  1.1931 -2.1756 -0.0252
 4584TIP3   OH235310   1.485   5.706   8.600  0.4375 -0.6050 -0.0827
 4584TIP3    H135311   1.390   5.698   8.596  0.3858 -0.1235  0.0952
 4584TIP3    H235312   1.516   5.618   8.625  0.1389 -1.1141 -1.4155
 4585TIP3   OH235313   2.534   2.664   2.505  0.3325  0.4635  0.1050
 4585TIP3    H135314   2.572   2.594   2.558  1.7063 -0.1442 -1.5615
 4585TIP3    H235315   2.609   2.702   2.458 -0.6795  1.5959 -0.6674
 4586TIP3   OH235316   4.411   5.759   0.661  0.0166 -0.0435  0.5336
 4586TIP3    H135317   4.392   5.826   0.727 -0.1996  2.4647 -1.8698
 4586TIP3    H235318   4.327   5.715   0.645 -0.4584  0.8912  0.3791
 4587TIP3   OH235319   0.487   5.892   0.864  0.3891  0.0548 -0.6412
 4587TIP3    H135320   0.473   5.976   0.822 -0.8890  2.2835  3.6139
 4587TIP3    H235321   0.459   5.827   0.799 -0.8771  3.0043 -3.2788
 4588TIP3   OH235322   2.063   2.795   2.711 -0.0131  0.0362 -0.0788
 4588TIP3    H135323   2.000   2.747   2.763  0.9171 -0.3549  0.7274
 4588TIP3    H235324   2.110   2.850   2.774 -1.0327  2.0189 -0.9679
 4589TIP3   OH235325   5.359   4.392   2.229 -0.2685  0.1866  0.1066
 4589TIP3    H135326   5.438   4.444   2.213 -0.5170  0.6561  0.3727
 4589TIP3    H235327   5.348   4.340   2.149  0.7510 -0.4871  0.3741
 4590TIP3   OH235328   6.200   2.860   1.918 -0.2955  0.3839 -0.5232
 4590TIP3    H135329   6.175   2.915   1.992  0.5274  0.7293 -0.4982
 4590TIP3    H235330   6.168   2.773   1.941  0.7941  0.2851  0.6903
 4591TIP3   OH235331   6.377   3.170   7.769  0.4799 -1.0627 -0.1075
 4591TIP3    H135332   6.375   3.265   7.763 -0.0755 -1.1476 -2.0685
 4591TIP3    H235333   6.456   3.151   7.820  1.4118  0.4278 -0.9193
 4592TIP3   OH235334   4.008   0.448   1.306  0.0745 -0.2539 -0.3693
 4592TIP3    H135335   3.999   0.540   1.330  0.7666  0.3515 -2.2568
 4592TIP3    H235336   3.957   0.400   1.371 -0.5063  1.4829  0.4850
 4593TIP3   OH235337   3.761   3.121   1.970 -0.3174 -0.0581 -0.1013
 4593TIP3    H135338   3.803   3.041   1.940  0.3613 -0.1963  1.1864
 4593TIP3    H235339   3.679   3.125   1.920  1.1848  0.2750 -2.7532
 4594TIP3   OH235340   3.006   4.206   0.684  0.1439  0.2802  0.2692
 4594TIP3    H135341   3.076   4.231   0.743  0.6000  0.3732 -0.3050
 4594TIP3    H235342   3.049   4.160   0.613 -0.3487  0.5070 -0.1886
 4595TIP3   OH235343   0.620   1.542   2.136  0.4603 -0.3589  0.5725
 4595TIP3    H135344   0.672   1.553   2.215  0.5418 -2.1262  0.8118
 4595TIP3    H235345   0.600   1.448   2.133 -0.6074 -0.1310 -0.8355
 4596TIP3   OH235346   0.605   0.819   7.733  0.2861  0.3665  0.2514
 4596TIP3    H135347   0.578   0.910   7.747  1.0103  0.4667  1.1021
 4596TIP3    H235348   0.531   0.767   7.763 -0.6801  0.6689 -1.4876
 4597TIP3   OH235349   3.277   1.377   7.426 -0.0121 -0.8378 -0.0874
 4597TIP3    H135350   3.246   1.322   7.353 -1.6307  1.1124 -0.9588
 4597TIP3    H235351   3.217   1.357   7.498  1.4020 -2.5371  0.7090
 4598TIP3   OH235352   1.279   3.930   2.632 -0.0326  0.6459 -0.2367
 4598TIP3    H135353   1.330   4.011   2.624  0.2523  0.4827 -0.0522
 4598TIP3    H235354   1.304   3.893   2.716 -1.5400  1.3183  0.5593
 4599TIP3   OH235355   4.072   3.240   0.835  0.6524  0.3088 -0.0224
 4599TIP3    H135356   4.073   3.155   0.879 -0.2942  0.6565  0.7119
 4599TIP3    H235357   4.144   3.289   0.875 -0.3530  0.7072  1.3704
 4600TIP3   OH235358   1.375   3.724   3.245  0.3503  0.2870 -0.0974
 4600TIP3    H135359   1.366   3.805   3.294 -0.3297  1.1091 -1.5202
 4600TIP3    H235360   1.432   3.746   3.171  0.2251 -0.5557 -0.4634
 4601TIP3   OH235361   0.381   4.461   8.523 -0.0744 -0.2155  0.1515
 4601TIP3    H135362   0.383   4.369   8.497 -3.8706 -0.5470  0.4281
 4601TIP3    H235363   0.379   4.459   8.619 -1.5465  0.0340  0.1418
 4602TIP3   OH235364   1.836   5.774   1.700  0.2020 -0.2061  0.4051
 4602TIP3    H135365   1.924   5.736   1.703 -0.5442 -2.1591 -0.4691
 4602TIP3    H235366   1.800   5.757   1.786  1.2068  2.1724  1.3950
 4603TIP3   OH235367   5.595   2.704   0.705  0.3858  0.3012 -0.5461
 4603TIP3    H135368   5.659   2.685   0.773  0.4490 -0.2414 -0.7451
 4603TIP3    H235369   5.535   2.767   0.744  0.8681  0.5812 -0.2538
 4604TIP3   OH235370   0.055   4.223   8.210  0.3618 -0.4870  0.8264
 4604TIP3    H135371   0.072   4.141   8.163 -2.1455 -1.4167  1.4045
 4604TIP3    H235372  -0.035   4.245   8.188  0.7935  1.8584  1.1467
 4605TIP3   OH235373   6.464   1.833   1.945 -0.3985 -0.2521  0.2480
 4605TIP3    H135374   6.379   1.790   1.938 -0.1555 -0.7824  0.5115
 4605TIP3    H235375   6.456   1.910   1.889 -1.2926  0.0967  0.8214
 4606TIP3   OH235376   3.678   0.346   7.890 -0.2155  0.0158  0.2477
 4606TIP3    H135377   3.701   0.405   7.962 -1.4985  0.9166 -0.0538
 4606TIP3    H235378   3.665   0.261   7.932  0.6943  0.1432  0.8259
 4607TIP3   OH235379   2.231   0.047   2.643 -0.4426  0.1959 -0.2847
 4607TIP3    H135380   2.200   0.021   2.556 -0.5989  2.6568 -1.0190
 4607TIP3    H235381   2.194  -0.019   2.701 -0.5589 -1.3646 -2.0298
 4608TIP3   OH235382   2.235   5.864   7.991 -0.1367  0.0993 -0.3805
 4608TIP3    H135383   2.189   5.937   7.950 -0.6462 -0.7375 -1.3468
 4608TIP3    H235384   2.279   5.903   8.067  0.8288  1.6859 -1.6850
 4609TIP3   OH235385   5.946   5.387   2.395  0.2204 -0.1429  0.0959
 4609TIP3    H135386   6.016   5.322   2.385  0.6402  0.3998 -0.6270
 4609TIP3    H235387   5.866   5.335   2.407  0.0058 -0.9745 -3.6401
 4610TIP3   OH235388   1.338   1.439   0.723  0.0557  0.2284  0.5034
 4610TIP3    H135389   1.369   1.362   0.676 -1.0549 -0.2974  0.6005
 4610TIP3    H235390   1.409   1.461   0.783  1.7733  1.2641 -1.7467
 4611TIP3   OH235391   6.476   3.462   1.947 -0.1136  0.1609 -0.2080
 4611TIP3    H135392   6.479   3.484   2.040  1.5041  0.7340 -0.3569
 4611TIP3    H235393   6.479   3.547   1.903  2.0092 -0.1625 -0.7740
 4612TIP3   OH235394   1.002   2.262   8.715 -0.3344 -0.2987 -0.3116
 4612TIP3    H135395   0.912   2.229   8.717 -0.2604 -0.5305 -0.5838
 4612TIP3    H235396   1.012   2.297   8.626 -0.2996  0.1383 -0.1324
 4613TIP3   OH235397   0.228   2.110   8.316 -0.3480 -0.3177  0.0981
 4613TIP3    H135398   0.203   2.019   8.305  0.2628 -0.6539  1.3031
 4613TIP3    H235399   0.211   2.129   8.408  3.4925 -0.5586  1.0470
 4614TIP3   OH235400   4.146   0.776   0.511  0.1603  0.6363 -0.2373
 4614TIP3    H135401   4.207   0.795   0.440 -0.2464 -0.7393 -0.9797
 4614TIP3    H235402   4.134   0.681   0.508  0.4240  0.4915  1.9127
 4615TIP3   OH235403   6.665   5.576   2.138  0.2806  0.0137 -0.1996
 4615TIP3    H135404   6.642   5.654   2.089 -0.1098 -0.1310 -0.2483
 4615TIP3    H235405   6.759   5.566   2.124  0.4136  0.7079  0.1543
 4616TIP3   OH235406   4.960   1.263   0.560 -0.7397  0.3737 -0.5296
 4616TIP3    H135407   4.872   1.232   0.582 -0.4961 -0.7317 -1.0327
 4616TIP3    H235408   4.957   1.277   0.465 -0.0841 -0.7111 -0.7255
 4617TIP3   OH235409   4.993   5.278   7.327  0.4493 -0.2206  0.2523
 4617TIP3    H135410   4.979   5.187   7.355 -0.0128  0.2049  1.4484
 4617TIP3    H235411   5.088   5.287   7.322  0.4959 -1.0995 -1.0369
 4618TIP3   OH235412   0.934   3.584   7.793  0.0596 -0.2789 -0.3852
 4618TIP3    H135413   1.027   3.564   7.801  0.4155  0.7030 -1.7617
 4618TIP3    H235414   0.926   3.633   7.712 -1.5989  0.1080 -0.0393
 4619TIP3   OH235415   4.191   4.892   7.624  0.5318  0.0427 -0.7572
 4619TIP3    H135416   4.262   4.873   7.686 -1.0138  1.3602  1.5556
 4619TIP3    H235417   4.211   4.980   7.591  1.2901 -0.6111 -2.1447
 4620TIP3   OH235418   5.460   0.408   7.559  0.3120  0.5607  0.4690
 4620TIP3    H135419   5.400   0.382   7.488 -0.1030  0.1309  0.9699
 4620TIP3    H235420   5.486   0.326   7.599  2.1707  0.6478 -0.4662
 4621TIP3   OH235421   1.820   3.993   2.154  0.3337 -0.3531 -0.5390
 4621TIP3    H135422   1.808   3.903   2.124 -0.8627 -0.7235  0.9018
 4621TIP3    H235423   1.787   3.992   2.244  2.0390  1.1075  0.1506
 4622TIP3   OH235424   2.987   0.992   1.821 -0.0305 -0.7933  0.0514
 4622TIP3    H135425   2.929   0.947   1.759 -1.2198 -0.5325  0.9392
 4622TIP3    H235426   3.009   0.925   1.886 -1.0762 -0.3618  0.8793
 4623TIP3   OH235427   4.006   0.719   7.112 -0.2777  0.0782  0.4549
 4623TIP3    H135428   4.088   0.702   7.159  2.2706 -1.9047 -3.9855
 4623TIP3    H235429   3.954   0.641   7.124 -0.3096  0.2037  1.1402
 4624TIP3   OH235430   0.512   3.483   7.304  1.0279  0.0543 -0.0900
 4624TIP3    H135431   0.527   3.543   7.231  0.6853  0.6245  0.3019
 4624TIP3    H235432   0.495   3.398   7.262 -1.6923  0.8624 -0.8394
 4625TIP3   OH235433   3.189   0.062   7.847  0.0907 -0.0699 -0.0784
 4625TIP3    H135434   3.131   0.127   7.808 -0.0594  0.1908  0.5746
 4625TIP3    H235435   3.205   0.093   7.936  0.4687 -0.6314  0.0582
 4626TIP3   OH235436   1.826   0.157   7.367  0.1919 -0.3845 -0.1874
 4626TIP3    H135437   1.907   0.108   7.376  0.2443 -0.0781  1.4753
 4626TIP3    H235438   1.829   0.220   7.439 -1.5826 -0.4718  0.0024
 4627TIP3   OH235439   4.582   2.280   7.412  0.8081 -0.0776 -0.3192
 4627TIP3    H135440   4.514   2.314   7.354  0.7961  1.0657  0.3321
 4627TIP3    H235441   4.539   2.273   7.497  1.6960  1.4746  0.3014
 4628TIP3   OH235442   6.311   1.110   7.651 -0.6422 -0.2138 -0.0852
 4628TIP3    H135443   6.270   1.030   7.617 -0.1964 -0.6061  0.3000
 4628TIP3    H235444   6.243   1.177   7.641 -0.6193 -0.3625 -1.5352
 4629TIP3   OH235445   4.015   5.658   1.766  0.4589 -0.1585 -0.8329
 4629TIP3    H135446   4.003   5.579   1.713  1.1651 -0.2335 -0.8974
 4629TIP3    H235447   3.931   5.672   1.808  1.0274 -2.5192  1.3478
 4630TIP3   OH235448   2.063   3.560   7.328  0.2139  0.3036 -0.1260
 4630TIP3    H135449   2.082   3.631   7.266 -1.3367  1.1286  0.2710
 4630TIP3    H235450   2.146   3.514   7.339  0.7151  0.6162 -2.1944
 4631TIP3   OH235451   1.145   5.655   0.484  0.3967 -0.1474  0.0497
 4631TIP3    H135452   1.139   5.609   0.400  0.3188  0.3461 -0.2189
 4631TIP3    H235453   1.211   5.722   0.470  0.2799  0.0294  0.3395
 4632TIP3   OH235454   6.004   5.563   8.357  0.4994  0.2952  0.4183
 4632TIP3    H135455   6.016   5.636   8.418  3.3950 -0.4413  0.8621
 4632TIP3    H235456   6.046   5.489   8.399 -2.2158 -1.7069 -0.0914
 4633TIP3   OH235457   3.366   1.670   1.806  0.0937  0.1270 -0.4728
 4633TIP3    H135458   3.309   1.683   1.730 -1.0051  0.9637  0.4557
 4633TIP3    H235459   3.396   1.580   1.798 -0.8724 -0.1456 -1.3301
 4634TIP3   OH235460   3.222   1.792   0.095 -0.3994  0.3726 -0.2814
 4634TIP3    H135461   3.182   1.707   0.080  1.8065 -0.2430 -3.6514
 4634TIP3    H235462   3.218   1.836   0.010  0.0753  2.9853  0.9280
 4635TIP3   OH235463   5.404   1.530   0.083 -0.4463 -0.5396  0.0838
 4635TIP3    H135464   5.387   1.597   0.149  0.4993 -0.4915  0.2867
 4635TIP3    H235465   5.380   1.572  -0.000  0.1957  0.0760  0.1992
 4636TIP3   OH235466   1.301   5.000   8.674  0.0672  0.7948 -0.8613
 4636TIP3    H135467   1.212   5.011   8.707  0.0863  0.9187 -0.8517
 4636TIP3    H235468   1.339   4.933   8.731  0.3864  1.6373 -0.0685
 4637TIP3   OH235469   3.102   2.341   2.752  0.1323 -0.2930 -0.1114
 4637TIP3    H135470   3.101   2.406   2.681 -0.6441 -0.2839 -0.0996
 4637TIP3    H235471   3.192   2.344   2.785  0.3636  0.0833 -0.7455
 4638TIP3   OH235472   2.943   1.697   8.193  0.1619  0.1814  0.5197
 4638TIP3    H135473   2.853   1.692   8.161  0.5090 -1.5534 -0.3525
 4638TIP3    H235474   2.937   1.745   8.276 -1.2579  1.7990 -0.4714
 4639TIP3   OH235475   6.042   6.767   2.279 -0.1427 -0.1088  0.3407
 4639TIP3    H135476   6.064   6.726   2.363 -1.7805 -1.1398  0.2974
 4639TIP3    H235477   6.122   6.815   2.255  0.7648 -0.7504  1.9015
 4640TIP3   OH235478   5.582   3.936   1.462  0.3159 -0.2974 -0.0021
 4640TIP3    H135479   5.489   3.923   1.444  0.3151 -0.7318  0.3048
 4640TIP3    H235480   5.606   3.863   1.519  0.1205  1.5165  2.5518
 4641TIP3   OH235481   1.555   6.027   1.417  0.1228  0.6000  0.5234
 4641TIP3    H135482   1.484   5.968   1.443  0.8452 -0.6061 -0.1635
 4641TIP3    H235483   1.512   6.112   1.406 -1.1558 -0.0237  0.4415
 4642TIP3   OH235484   0.188   2.895   7.483  0.3611  0.2156  0.5148
 4642TIP3    H135485   0.275   2.932   7.497  0.1809  0.7900  0.1347
 4642TIP3    H235486   0.128   2.959   7.521  0.0452  0.3425 -0.1802
 4643TIP3   OH235487   6.297   2.629   0.063  0.3540 -0.5967 -0.3701
 4643TIP3    H135488   6.238   2.571   0.014  0.2155 -0.6914 -0.0935
 4643TIP3    H235489   6.340   2.571   0.126 -0.3473 -0.2691  0.4262
 4644TIP3   OH235490   5.618   0.052   7.266 -0.1032 -0.4535  0.3123
 4644TIP3    H135491   5.640  -0.041   7.279 -0.3785 -0.6364 -0.4896
 4644TIP3    H235492   5.690   0.086   7.211  0.5609  0.0794  1.4775
 4645TIP3   OH235493   2.887   3.930   1.518  0.1851 -0.0386 -0.1395
 4645TIP3    H135494   2.954   3.942   1.585  1.3467 -0.3572 -1.2138
 4645TIP3    H235495   2.841   4.014   1.514  0.9965  0.4222  0.1095
 4646TIP3   OH235496   5.480   0.032   8.122 -0.6396 -0.1017 -0.1325
 4646TIP3    H135497   5.424  -0.039   8.151 -2.5428  0.8689 -1.2372
 4646TIP3    H235498   5.559  -0.011   8.089 -0.8647 -1.5317  1.1286
 4647TIP3   OH235499   1.570   3.264   0.180  0.2753 -0.3541 -0.1161
 4647TIP3    H135500   1.483   3.226   0.194  0.2974 -0.0759  0.8480
 4647TIP3    H235501   1.604   3.219   0.103  0.9848 -3.5720  1.8904
 4648TIP3   OH235502   0.833   4.025   7.415 -0.2663  0.3073  0.0039
 4648TIP3    H135503   0.856   4.001   7.325  3.6468 -0.1901  0.9549
 4648TIP3    H235504   0.796   3.944   7.452  2.1225 -0.9252 -0.0717
 4649TIP3   OH235505   3.957   4.394   0.943  0.2605  0.7676 -0.3604
 4649TIP3    H135506   3.876   4.427   0.982  0.7151  1.1021  0.3078
 4649TIP3    H235507   3.948   4.415   0.849  0.4863  2.7378  0.0071
 4650TIP3   OH235508   0.897   6.010   0.695 -0.1447  0.2935 -0.1021
 4650TIP3    H135509   0.885   5.979   0.785  1.2431  0.6641  0.2292
 4650TIP3    H235510   0.932   5.934   0.648 -2.8116 -0.5717 -0.9023
 4651TIP3   OH235511   0.813   3.347   7.108 -0.7575  0.1774  0.0021
 4651TIP3    H135512   0.754   3.273   7.092 -0.2397 -0.7834  2.1744
 4651TIP3    H235513   0.767   3.422   7.071 -2.8695 -0.7069  0.6627
 4652TIP3   OH235514   3.975   2.024   8.319 -0.6075  0.8324  0.2409
 4652TIP3    H135515   3.889   2.034   8.277  0.5119  1.3320 -2.0711
 4652TIP3    H235516   4.005   1.937   8.293  0.1801  1.2139 -0.1660
 4653TIP3   OH235517   5.799   1.876   1.421  0.0701 -0.0502  0.0269
 4653TIP3    H135518   5.774   1.852   1.332 -1.8096 -0.5661  0.6485
 4653TIP3    H235519   5.805   1.793   1.469  1.9710  0.1400  0.2176
 4654TIP3   OH235520   5.742   5.578   2.342  0.1434 -0.3615 -0.2752
 4654TIP3    H135521   5.777   5.667   2.332 -0.4383  0.0521  1.0813
 4654TIP3    H235522   5.818   5.525   2.367  0.2554  0.0311  0.2360
 4655TIP3   OH235523   4.110   2.519   1.444 -0.6876 -0.2588 -0.1682
 4655TIP3    H135524   4.076   2.473   1.367  1.8191  0.3120 -1.7398
 4655TIP3    H235525   4.199   2.546   1.418  0.2258  0.0374  2.9129
 4656TIP3   OH235526   5.309   0.507   7.766 -0.1737 -0.9425 -0.6779
 4656TIP3    H135527   5.252   0.543   7.699  0.2290 -1.6206 -1.4032
 4656TIP3    H235528   5.373   0.455   7.717  1.1491 -0.1023  0.0824
 4657TIP3   OH235529   2.769   6.135   7.588  0.7331 -0.2553 -0.1077
 4657TIP3    H135530   2.850   6.142   7.538 -0.1873  0.0175 -1.6261
 4657TIP3    H235531   2.700   6.149   7.524 -0.5149  0.0766  1.2517
 4658TIP3   OH235532   5.501   5.814   7.202 -0.1915  0.1312  0.5131
 4658TIP3    H135533   5.495   5.775   7.289 -0.4421 -0.3287  0.2940
 4658TIP3    H235534   5.595   5.812   7.182 -0.2190 -0.5001  0.4431
 4659TIP3   OH235535   1.244   5.154   1.511 -0.5343  0.3898  0.6856
 4659TIP3    H135536   1.160   5.197   1.498 -0.9994 -0.3983  1.0268
 4659TIP3    H235537   1.309   5.224   1.502 -1.0937  0.7117 -1.3628
 4660TIP3   OH235538   2.834   5.208   8.500 -0.3069 -0.2369  0.2982
 4660TIP3    H135539   2.885   5.288   8.505 -1.7279  0.6565  2.9550
 4660TIP3    H235540   2.895   5.139   8.527  0.1751  0.4308  0.9720
 4661TIP3   OH235541   4.572   0.012   1.389 -0.1290  0.2858  0.0511
 4661TIP3    H135542   4.607   0.101   1.389  0.6182  0.0221  1.6753
 4661TIP3    H235543   4.483   0.022   1.423 -0.5184  0.5432 -0.9885
 4662TIP3   OH235544   0.830   2.965   8.781  0.4905  0.0737  0.3840
 4662TIP3    H135545   0.917   2.951   8.744  0.9654  0.5090  1.2949
 4662TIP3    H235546   0.838   2.934   8.871 -0.1001  0.7548  0.6749
 4663TIP3   OH235547   3.937   0.010   8.716  0.3243 -0.4172 -0.3100
 4663TIP3    H135548   3.869  -0.052   8.742 -0.1022  0.1386 -0.0936
 4663TIP3    H235549   3.892   0.072   8.659  0.4660  0.4175  0.4753
 4664TIP3   OH235550   6.706   5.481   1.515  0.2310 -0.4543 -0.0381
 4664TIP3    H135551   6.778   5.430   1.478  0.4906 -0.3292  0.2875
 4664TIP3    H235552   6.748   5.556   1.555 -0.0533 -0.5545  0.4556
 4665TIP3   OH235553   4.735   4.288   2.834 -0.2058 -0.0331 -0.2562
 4665TIP3    H135554   4.782   4.366   2.802 -1.9458  0.8406 -0.8095
 4665TIP3    H235555   4.644   4.316   2.841 -0.4556 -1.2094  2.2997
 4666TIP3   OH235556   3.924   5.991   1.257  0.1898 -0.0016  0.3639
 4666TIP3    H135557   3.925   5.897   1.272  0.1126 -0.0108  0.3085
 4666TIP3    H235558   3.831   6.015   1.256  0.1444 -0.1587 -1.0659
 4667TIP3   OH235559   5.031   6.122   1.999  0.0573 -0.4431 -0.0318
 4667TIP3    H135560   5.081   6.075   2.066 -1.8833  0.6417  2.3000
 4667TIP3    H235561   4.990   6.053   1.947  1.6933 -1.3016 -0.2648
 4668TIP3   OH235562   0.704   0.834   6.882  0.2055 -0.8697 -0.0912
 4668TIP3    H135563   0.654   0.817   6.961  1.3136 -0.0153  0.8362
 4668TIP3    H235564   0.656   0.789   6.812 -1.1070 -1.1477  0.9596
 4669TIP3   OH235565   5.777   3.437   2.456 -0.4442 -0.6477  0.1629
 4669TIP3    H135566   5.715   3.479   2.515 -0.9053 -0.8804 -0.1482
 4669TIP3    H235567   5.785   3.347   2.488 -1.4873 -1.0785 -0.7133
 4670TIP3   OH235568   1.124   2.702   8.407 -0.2484  0.2095 -0.3275
 4670TIP3    H135569   1.108   2.714   8.313 -0.1924 -1.9948 -0.6725
 4670TIP3    H235570   1.204   2.752   8.424  0.2247 -0.0433 -1.6421
 4671TIP3   OH235571   5.781   5.413   0.658 -0.1888 -0.5044  0.0646
 4671TIP3    H135572   5.760   5.339   0.714  0.0591 -1.4842 -1.1013
 4671TIP3    H235573   5.759   5.384   0.570 -0.1652  0.8449 -0.4202
 4672TIP3   OH235574   2.242   2.140   0.279  0.4885 -0.0956 -0.3173
 4672TIP3    H135575   2.218   2.227   0.311 -0.7580  0.0451 -1.5242
 4672TIP3    H235576   2.290   2.157   0.198  1.1396 -0.5129 -0.0238
 4673TIP3   OH235577   5.360   5.804   6.963  0.2172  0.3032  0.1386
 4673TIP3    H135578   5.425   5.804   7.033  0.3603 -0.4897  0.0108
 4673TIP3    H235579   5.367   5.717   6.924  0.5727  0.9430 -1.2695
 4674TIP3   OH235580   6.008   5.922   0.750 -0.0837 -0.4045  0.1657
 4674TIP3    H135581   6.005   5.876   0.833  0.7166  0.7545  0.8729
 4674TIP3    H235582   6.001   6.015   0.773  0.1384 -0.0570 -1.0515
 4675TIP3   OH235583   3.152   2.290   8.527 -0.1685 -0.3273  0.0170
 4675TIP3    H135584   3.185   2.201   8.524  0.4816 -0.0890 -2.2928
 4675TIP3    H235585   3.227   2.345   8.505 -0.5624  0.8134  1.3645
 4676TIP3   OH235586   6.419   3.866   1.134 -0.4124 -0.2141  0.5565
 4676TIP3    H135587   6.329   3.881   1.162 -0.7193  0.1814 -0.5783
 4676TIP3    H235588   6.435   3.932   1.066  0.7790 -0.1907  0.8335
 4677TIP3   OH235589   6.219   3.350   0.811  0.1897 -0.3741 -0.4229
 4677TIP3    H135590   6.198   3.437   0.776  2.0884  0.1104 -0.4345
 4677TIP3    H235591   6.282   3.314   0.749  2.0822 -0.3232  1.3647
 4678TIP3   OH235592   4.956   4.993   2.150 -0.1773  0.0521  0.2694
 4678TIP3    H135593   4.876   5.016   2.102  0.8951 -0.5713 -1.9518
 4678TIP3    H235594   4.940   4.906   2.185 -0.5740  0.0513  0.0834
 4679TIP3   OH235595   6.101   2.519   6.802  0.1467 -0.2344 -0.0722
 4679TIP3    H135596   6.121   2.608   6.831  0.0928 -0.4667  0.6819
 4679TIP3    H235597   6.039   2.485   6.867 -0.6719 -0.4540 -0.9400
 4680TIP3   OH235598   1.797   2.956   2.844  0.4102 -0.3988 -0.2033
 4680TIP3    H135599   1.871   2.960   2.903  0.8843 -0.1615 -0.8042
 4680TIP3    H235600   1.788   2.862   2.823  2.7884 -0.1854 -2.8672
 4681TIP3   OH235601   2.986   2.191   1.580 -0.5603  0.5930 -0.0283
 4681TIP3    H135602   2.922   2.152   1.640  0.3060  0.6002  0.9226
 4681TIP3    H235603   3.069   2.151   1.605 -0.3030 -0.0173 -1.7859
 4682TIP3   OH235604   2.659   5.678   1.001  0.2113 -0.4314  0.5620
 4682TIP3    H135605   2.580   5.631   0.974 -1.3845  2.3969 -0.0306
 4682TIP3    H235606   2.665   5.663   1.095 -1.9931  0.5263  0.9185
 4683TIP3   OH235607   3.376   3.633   1.285 -0.5985 -0.0781  1.1660
 4683TIP3    H135608   3.308   3.580   1.327 -0.1913  0.0460  2.0006
 4683TIP3    H235609   3.441   3.569   1.255 -0.5847 -0.1188  1.2853
 4684TIP3   OH235610   5.747   1.083   7.676  0.3520 -0.4461  0.6356
 4684TIP3    H135611   5.712   1.054   7.592  1.5082  1.3361 -0.5125
 4684TIP3    H235612   5.711   1.170   7.689  1.6137  0.0320  1.0991
 4685TIP3   OH235613   0.205   1.791   0.935  0.5400  0.1945 -0.1161
 4685TIP3    H135614   0.249   1.844   0.869  0.0138 -1.0702 -1.5205
 4685TIP3    H235615   0.275   1.737   0.973  0.6247 -0.0595 -0.6253
 4686TIP3   OH235616   3.700   5.038   7.994 -0.2575 -0.1963 -0.3594
 4686TIP3    H135617   3.644   5.041   7.916 -1.0177 -0.4033  0.1620
 4686TIP3    H235618   3.663   4.967   8.047  1.1616 -1.0647 -0.4786
 4687TIP3   OH235619   3.545   6.763   0.550  0.1497 -0.4639 -0.0068
 4687TIP3    H135620   3.577   6.686   0.597  0.1901 -0.4103  0.0540
 4687TIP3    H235621   3.622   6.818   0.538  0.6446 -1.5570 -2.2825
 4688TIP3   OH235622   2.819   1.510   0.772 -0.8309 -0.2574  0.1129
 4688TIP3    H135623   2.764   1.557   0.835  0.2932  1.7259 -0.3019
 4688TIP3    H235624   2.789   1.542   0.686  0.6729  0.5936 -0.1329
 4689TIP3   OH235625   6.405   3.286   0.584  0.5370  0.3895 -0.3435
 4689TIP3    H135626   6.443   3.367   0.548  2.8793 -0.9446 -1.0987
 4689TIP3    H235627   6.477   3.223   0.581 -1.2305 -1.7580  0.1764
 4690TIP3   OH235628   3.706   6.590   0.664  0.0042  0.1757 -0.4723
 4690TIP3    H135629   3.784   6.612   0.715 -0.6540  0.7952  0.2969
 4690TIP3    H235630   3.715   6.497   0.646 -0.0375 -0.2177  1.3283
 4691TIP3   OH235631   4.874   5.218   1.306  0.2759  0.4843  0.2341
 4691TIP3    H135632   4.890   5.200   1.398  0.9879  0.1990  0.0664
 4691TIP3    H235633   4.908   5.307   1.292  0.1345  0.5415  0.2566
 4692TIP3   OH235634   4.691   5.086   8.666  0.0191  0.6007 -0.1154
 4692TIP3    H135635   4.739   5.167   8.682  0.8506  0.1625 -0.3686
 4692TIP3    H235636   4.635   5.077   8.743  0.4054  1.0734  0.2311
 4693TIP3   OH235637   2.685   5.556   7.858 -0.2281  0.6369 -0.1836
 4693TIP3    H135638   2.718   5.624   7.917  2.7987 -0.6581 -0.1890
 4693TIP3    H235639   2.667   5.482   7.916  0.4203  0.1522 -0.5905
 4694TIP3   OH235640   4.008   6.380   6.979 -0.0854  0.1209 -0.0068
 4694TIP3    H135641   4.011   6.455   7.038 -1.3731 -0.1509  0.4417
 4694TIP3    H235642   4.052   6.310   7.027 -1.2374 -0.1371  0.7326
 4695TIP3   OH235643   0.680   1.269   8.317  0.1800 -0.0630 -0.5832
 4695TIP3    H135644   0.705   1.361   8.303  2.1573 -0.0983  2.1032
 4695TIP3    H235645   0.653   1.265   8.408 -1.4735 -1.8917 -1.0891
 4696TIP3   OH235646   3.711   1.420   8.670  0.5443 -0.1876 -0.0902
 4696TIP3    H135647   3.803   1.419   8.695  0.5107 -2.3943  0.1016
 4696TIP3    H235648   3.710   1.401   8.577  0.2711  0.0636 -0.1443
 4697TIP3   OH235649   6.770   0.615   1.297 -0.5905 -0.1190  0.0982
 4697TIP3    H135650   6.849   0.571   1.267 -0.7183 -0.5233  0.3513
 4697TIP3    H235651   6.705   0.546   1.305 -0.8566  0.1497  0.2853
 4698TIP3   OH235652   3.697   1.730   0.545 -0.2020 -0.7934  0.2851
 4698TIP3    H135653   3.743   1.647   0.529  0.2557 -0.5076  0.0930
 4698TIP3    H235654   3.612   1.718   0.505  0.8778 -0.1171 -2.4050
 4699TIP3   OH235655   1.659   6.439   2.146 -0.1901  0.4212  0.1062
 4699TIP3    H135656   1.690   6.419   2.234 -0.1002  0.1478  0.0133
 4699TIP3    H235657   1.661   6.535   2.141  3.9341  0.4533 -1.0534
 4700TIP3   OH235658   0.069   5.780   2.134 -0.0838 -0.2760 -0.8586
 4700TIP3    H135659   0.136   5.848   2.129  0.3505 -0.5641  0.4856
 4700TIP3    H235660   0.109   5.710   2.185 -1.5339 -0.2753  0.3784
 4701TIP3   OH235661   4.427   1.724   0.948  0.3578  0.7648  0.1505
 4701TIP3    H135662   4.398   1.789   0.884  0.1505 -0.3939 -0.9654
 4701TIP3    H235663   4.515   1.752   0.973 -0.2330  2.1958  0.6968
 4702TIP3   OH235664   4.288   2.629   0.007 -0.5752 -0.1076  0.0036
 4702TIP3    H135665   4.354   2.622   0.076  0.7256 -2.8393 -1.3801
 4702TIP3    H235666   4.213   2.581   0.042 -1.4574  1.9057  1.0476
 4703TIP3   OH235667   6.196   3.088   7.236  0.0062  0.2550  0.1631
 4703TIP3    H135668   6.135   3.155   7.206  1.1222  0.4053 -1.9746
 4703TIP3    H235669   6.189   3.018   7.171  2.6892  0.6498 -0.6766
 4704TIP3   OH235670   1.130   6.532   7.338  0.1346 -0.6929 -0.2169
 4704TIP3    H135671   1.211   6.496   7.301 -0.7245 -2.8868 -0.1107
 4704TIP3    H235672   1.085   6.570   7.263  0.9001 -0.1431 -0.4112
 4705TIP3   OH235673   1.125   4.057   7.600  0.4222  0.4856  0.3789
 4705TIP3    H135674   1.065   4.132   7.606 -0.5278 -0.1852 -0.5028
 4705TIP3    H235675   1.162   4.062   7.512  0.6023  0.1064  0.4298
 4706TIP3   OH235676   5.658   2.484   0.578  0.2583  0.0902  0.2574
 4706TIP3    H135677   5.582   2.430   0.554  0.3489  0.0293  0.1055
 4706TIP3    H235678   5.621   2.555   0.631  0.2413 -0.5578  1.1408
 4707TIP3   OH235679   3.137   5.069   2.009  0.2838 -0.7311 -0.3384
 4707TIP3    H135680   3.140   5.019   1.928 -1.6365 -1.8367  0.2049
 4707TIP3    H235681   3.228   5.090   2.028  0.7664 -0.1526 -2.9256
 4708TIP3   OH235682   1.593   3.656   6.877 -0.3448  0.0819  0.4145
 4708TIP3    H135683   1.518   3.685   6.825 -0.8382  0.0771  1.1023
 4708TIP3    H235684   1.563   3.577   6.921 -0.5193  0.9439  1.9548
 4709TIP3   OH235685   6.251   0.403   2.673 -0.5206  0.0783 -0.2107
 4709TIP3    H135686   6.232   0.309   2.673 -1.1205  0.1895 -0.4015
 4709TIP3    H235687   6.243   0.429   2.765  1.9006 -0.4602  0.2147
 4710TIP3   OH235688   1.816   2.308   0.314  0.6413 -0.2513 -1.1137
 4710TIP3    H135689   1.756   2.237   0.339  1.0552 -0.1482  0.2314
 4710TIP3    H235690   1.797   2.378   0.375  1.9424 -0.1119 -0.8392
 4711TIP3   OH235691   6.596   0.331   8.384  0.3721  0.6100 -0.2933
 4711TIP3    H135692   6.645   0.413   8.383 -0.3670  1.0815  0.5798
 4711TIP3    H235693   6.651   0.271   8.436  2.1181 -0.2848 -2.9725
 4712TIP3   OH235694   5.115   1.336   7.456 -0.0571  0.2185  0.5976
 4712TIP3    H135695   5.128   1.408   7.518 -1.0280  1.7239 -0.8405
 4712TIP3    H235696   5.082   1.379   7.377  3.1769 -1.3161 -1.7883
 4713TIP3   OH235697   2.433   6.376   7.215 -0.9649 -0.0591  0.1242
 4713TIP3    H135698   2.373   6.325   7.161 -1.1790  0.1307  0.1837
 4713TIP3    H235699   2.452   6.454   7.162  1.2686 -1.2998 -1.0467
 4714TIP3   OH235700   0.608   3.913   7.870 -0.2623 -0.0378  0.2187
 4714TIP3    H135701   0.676   3.952   7.815 -0.3601 -1.9058 -1.3723
 4714TIP3    H235702   0.652   3.841   7.915 -1.1273 -1.3443 -0.9201
 4715TIP3   OH235703   0.086   1.301   7.900 -0.2351  0.1648 -0.4946
 4715TIP3    H135704   0.128   1.383   7.873  0.0342 -0.7072 -3.0177
 4715TIP3    H235705   0.122   1.235   7.841 -3.4711 -1.0246 -1.3657
 4716TIP3   OH235706   1.847   0.157   8.253 -0.1199  0.2112 -0.6462
 4716TIP3    H135707   1.834   0.120   8.166  3.0252 -0.6820 -0.8748
 4716TIP3    H235708   1.887   0.087   8.303  0.9702  1.6270  0.5748
 4717TIP3   OH235709   6.014   1.062   2.647  0.2604 -0.0293 -0.0205
 4717TIP3    H135710   5.924   1.043   2.671  0.4451  2.0101  2.8867
 4717TIP3    H235711   6.066   1.029   2.721  1.3532  2.9700  0.7156
 4718TIP3   OH235712   2.715   3.822   8.695  0.3099 -0.1136 -0.0446
 4718TIP3    H135713   2.681   3.906   8.664  1.4935  0.3425 -0.1297
 4718TIP3    H235714   2.701   3.823   8.789 -0.9087 -0.4054 -0.2031
 4719TIP3   OH235715   4.310   1.841   2.416  0.1973  0.1444  0.2477
 4719TIP3    H135716   4.368   1.839   2.491  2.0764 -0.8748 -1.1536
 4719TIP3    H235717   4.274   1.752   2.410  0.6593 -0.0036 -0.4808
 4720TIP3   OH235718   6.273   4.867   2.073  0.0064  0.3843 -0.2068
 4720TIP3    H135719   6.207   4.818   2.025 -1.4666  1.4137  0.6721
 4720TIP3    H235720   6.339   4.802   2.097 -2.0181 -1.2570  1.1935
 4721TIP3   OH235721   6.480   5.826   0.397 -0.4572 -0.6697  0.3162
 4721TIP3    H135722   6.542   5.826   0.324 -0.3039  0.8977  0.4086
 4721TIP3    H235723   6.520   5.769   0.462  0.1843 -0.8318 -0.2119
 4722TIP3   OH235724   4.273   2.401   1.641  0.4509  0.0361  0.3545
 4722TIP3    H135725   4.200   2.418   1.581 -0.0686 -0.6625  0.7683
 4722TIP3    H235726   4.239   2.425   1.727  0.3193 -1.3288  0.7013
 4723TIP3   OH235727   3.258   2.955   8.358  0.0536 -0.0431  0.1928
 4723TIP3    H135728   3.242   2.862   8.373  0.2666 -0.2516 -0.8096
 4723TIP3    H235729   3.353   2.963   8.351  0.0885  0.3788  1.0312
 4724TIP3   OH235730   2.940   0.087   2.341  0.1657  0.0892 -0.4229
 4724TIP3    H135731   2.862   0.087   2.397  1.0143 -0.2107  0.8070
 4724TIP3    H235732   2.957  -0.006   2.326  0.2807  0.1570 -0.7053
 4725TIP3   OH235733   1.178   3.400   7.666  0.7923  0.1131 -0.1112
 4725TIP3    H135734   1.212   3.325   7.617 -0.9750 -0.5685 -0.3635
 4725TIP3    H235735   1.157   3.465   7.599  0.7826  0.1904 -0.0336
 4726TIP3   OH235736   4.980   2.548   1.064 -0.3628 -0.2581  0.6652
 4726TIP3    H135737   4.911   2.605   1.098  1.3202  0.8001  2.4890
 4726TIP3    H235738   4.995   2.484   1.133 -0.9715 -1.8570 -0.6193
 4727TIP3   OH235739   3.787   6.540   8.343 -0.5698  0.2664 -0.3442
 4727TIP3    H135740   3.794   6.485   8.266  3.2235 -0.1578  0.1313
 4727TIP3    H235741   3.713   6.504   8.392 -1.5236 -0.9782 -2.5830
 4728TIP3   OH235742   3.987   0.042   1.947  0.2213  0.2790  0.2131
 4728TIP3    H135743   3.963   0.002   2.030 -0.9660  2.2343  0.8911
 4728TIP3    H235744   3.949  -0.015   1.880  0.5629 -0.9184  1.0232
 4729TIP3   OH235745   0.301   6.043   7.984 -0.9089  0.6408 -0.0619
 4729TIP3    H135746   0.381   6.035   8.035 -0.1557 -0.2746 -1.3294
 4729TIP3    H235747   0.232   6.056   8.049  0.0131 -0.4165  1.1765
 4730TIP3   OH235748   1.139   4.931   8.151 -0.3976 -0.1456  0.1323
 4730TIP3    H135749   1.139   4.946   8.057  0.6107  0.2317  0.1807
 4730TIP3    H235750   1.085   5.001   8.187 -1.7521 -0.9581 -0.2408
 4731TIP3   OH235751   0.543   5.596   0.031  1.0145  0.2932  0.6887
 4731TIP3    H135752   0.542   5.654  -0.046  0.7872  0.0361  0.4980
 4731TIP3    H235753   0.562   5.655   0.105 -2.0013  1.1368  0.9280
 4732TIP3   OH235754   3.382   2.238   2.397  0.3449  0.4816  0.2274
 4732TIP3    H135755   3.315   2.300   2.368 -0.4003  0.8097  2.4618
 4732TIP3    H235756   3.339   2.152   2.393 -0.1177  0.6482  1.2916
 4733TIP3   OH235757   3.576   1.231   0.816  0.3513 -0.1575 -0.1105
 4733TIP3    H135758   3.590   1.304   0.755  3.2519 -2.0704 -2.0198
 4733TIP3    H235759   3.483   1.235   0.837  0.4195  4.2748  0.2995
 4734TIP3   OH235760   2.828   5.593   0.244  0.2616  0.0152 -0.1731
 4734TIP3    H135761   2.909   5.616   0.199  0.1446 -0.0063 -0.4026
 4734TIP3    H235762   2.854   5.572   0.333  0.5018  0.0513 -0.2345
 4735TIP3   OH235763   6.457   3.655   2.981 -0.1489 -0.5910  0.1435
 4735TIP3    H135764   6.434   3.746   3.001  0.2730 -0.9730  2.8632
 4735TIP3    H235765   6.517   3.660   2.906 -2.1218  1.1049 -1.4206
 4736TIP3   OH235766   5.473   0.047   1.399 -0.0159 -0.2924 -0.2266
 4736TIP3    H135767   5.545   0.080   1.345  0.9716 -1.1520  0.5227
 4736TIP3    H235768   5.513  -0.021   1.453 -1.3367 -0.5793  0.4284
 4737TIP3   OH235769   1.760   4.467   8.590  0.3693  0.0273 -0.2239
 4737TIP3    H135770   1.843   4.471   8.543  0.3970 -1.1861 -0.2977
 4737TIP3    H235771   1.717   4.550   8.568  1.6718  0.8212  0.0584
 4738TIP3   OH235772   1.853   2.799   0.423  0.1023 -0.0503  0.3216
 4738TIP3    H135773   1.802   2.841   0.353  1.2337  1.6110  0.4199
 4738TIP3    H235774   1.854   2.706   0.400 -2.5139 -0.0887  0.0733
 4739TIP3   OH235775   0.946   6.180   7.371  0.3309 -0.4568 -0.2210
 4739TIP3    H135776   0.916   6.122   7.302  1.9101 -2.3643  0.5991
 4739TIP3    H235777   0.964   6.122   7.445 -1.6858  1.5345  2.0189
 4740TIP3   OH235778   3.799   0.709   1.484 -0.1214  0.2794 -0.5367
 4740TIP3    H135779   3.718   0.758   1.494  0.3843  1.1604 -0.6177
 4740TIP3    H235780   3.818   0.712   1.391  0.9023  1.6258 -0.3276
 4741TIP3   OH235781   3.407   2.550   8.180 -0.5356  0.1543 -0.1425
 4741TIP3    H135782   3.498   2.536   8.152 -0.3913 -1.1093  0.8486
 4741TIP3    H235783   3.393   2.644   8.169  1.3820  0.6512  1.0622
 4742TIP3   OH235784   2.183   0.548   0.952 -0.2160  0.5331 -0.1879
 4742TIP3    H135785   2.112   0.497   0.992 -0.5674  0.2316 -1.1574
 4742TIP3    H235786   2.140   0.624   0.915  0.0734  0.6969 -0.1931
 4743TIP3   OH235787   1.151   3.350   0.904 -0.2065 -0.2725 -0.7028
 4743TIP3    H135788   1.156   3.312   0.992 -1.6380  3.3959  1.1544
 4743TIP3    H235789   1.078   3.305   0.863 -2.0572  0.5206  1.5194
 4744TIP3   OH235790   1.721   2.036   7.903  0.8633  0.6487  0.3941
 4744TIP3    H135791   1.727   2.131   7.890 -0.1771  0.7208  0.3083
 4744TIP3    H235792   1.651   2.026   7.968 -0.1056 -0.1260 -0.7311
 4745TIP3   OH235793   3.682   4.015   0.427  0.2992  0.0522  0.1425
 4745TIP3    H135794   3.715   3.963   0.354 -1.3399 -1.2292  0.2462
 4745TIP3    H235795   3.731   3.982   0.503  0.6869  0.0706 -0.0957
 4746TIP3   OH235796   1.037   0.924   8.206 -0.4757 -0.6766 -0.2600
 4746TIP3    H135797   1.090   0.857   8.163  0.3976  0.1133 -0.4520
 4746TIP3    H235798   1.101   0.978   8.253 -1.2986 -0.9041  1.2013
 4747TIP3   OH235799   5.764   3.832   8.281  0.5254 -0.4004  0.2059
 4747TIP3    H135800   5.834   3.833   8.215  1.9298  1.5224  1.6422
 4747TIP3    H235801   5.686   3.860   8.233  1.1946 -0.4431 -0.9509
 4748TIP3   OH235802   0.391   5.733   0.646  0.0691 -0.1689  0.3555
 4748TIP3    H135803   0.470   5.748   0.594 -0.1534 -0.4017 -0.0592
 4748TIP3    H235804   0.340   5.671   0.593  0.0147 -0.7161  1.0379
 4749TIP3   OH235805   6.761   6.670   8.256 -0.4246 -0.0914 -0.1421
 4749TIP3    H135806   6.686   6.648   8.202 -0.3477 -2.1849  0.5269
 4749TIP3    H235807   6.834   6.680   8.194 -1.1809  2.0308 -0.7996
 4750TIP3   OH235808   4.288   5.334   7.239  0.4696  0.2894  0.3228
 4750TIP3    H135809   4.363   5.392   7.252  1.5661 -0.9087 -0.4754
 4750TIP3    H235810   4.237   5.377   7.170  0.2026  1.2899  1.1140
 4751TIP3   OH235811   5.342   5.805   1.570  0.0983  0.1763  0.4722
 4751TIP3    H135812   5.408   5.833   1.506  0.9608  2.1177  2.1169
 4751TIP3    H235813   5.392   5.758   1.636 -0.7464 -1.5380 -0.0465
 4752TIP3   OH235814   2.120   0.786   8.704  0.2420 -0.4496  0.1888
 4752TIP3    H135815   2.079   0.771   8.789  0.2859  0.7582  0.4396
 4752TIP3    H235816   2.114   0.881   8.690  0.8693 -0.5361 -0.8313
 4753TIP3   OH235817   2.042   5.357   1.149  0.0195 -0.3919  0.5027
 4753TIP3    H135818   2.011   5.295   1.215  0.8605  0.2852  1.5836
 4753TIP3    H235819   2.092   5.422   1.199 -1.1039  1.3552 -0.5111
 4754TIP3   OH235820   1.793   3.597   1.833 -0.0554  0.6942  0.0898
 4754TIP3    H135821   1.823   3.627   1.747 -0.9638  1.9059  0.1636
 4754TIP3    H235822   1.733   3.525   1.814 -0.6922  1.3272 -0.3410
 4755TIP3   OH235823   0.296   6.814   6.938  0.0028 -0.7146 -0.0614
 4755TIP3    H135824   0.356   6.858   6.878 -1.0944  0.0563 -0.6320
 4755TIP3    H235825   0.323   6.722   6.937  0.4988 -0.5681 -1.1097
 4756TIP3   OH235826   3.035   3.038   0.024 -0.2814 -0.3712 -0.6307
 4756TIP3    H135827   2.982   3.106  -0.017 -1.1761 -1.2479 -0.9820
 4756TIP3    H235828   3.116   3.036  -0.026 -0.2801  0.3788 -0.6640
 4757TIP3   OH235829   0.467   3.413   8.380  0.0949  0.2157  0.3939
 4757TIP3    H135830   0.500   3.360   8.308 -1.0120 -0.4974  0.3805
 4757TIP3    H235831   0.544   3.432   8.433  0.6939 -0.4740 -0.2047
 4758TIP3   OH235832   4.481   5.067   0.073  0.2834 -0.0049  0.7093
 4758TIP3    H135833   4.395   5.089   0.110  0.7342 -0.6445  2.2123
 4758TIP3    H235834   4.486   4.972   0.079  0.8589 -0.0257  0.0442
 4759TIP3   OH235835   2.385   6.595   0.473  0.3000  0.0560  0.7719
 4759TIP3    H135836   2.301   6.637   0.489 -0.1966 -1.2021  1.5905
 4759TIP3    H235837   2.371   6.503   0.493  2.5193  0.1565  3.5148
 4760TIP3   OH235838   1.370   4.778   7.324  0.4542  0.5614  0.5592
 4760TIP3    H135839   1.358   4.856   7.270 -0.4606 -0.5003 -0.8443
 4760TIP3    H235840   1.457   4.745   7.301 -0.3283 -0.4481 -1.0828
 4761TIP3   OH235841   0.107   5.627   1.167 -0.0438  0.2258 -0.1365
 4761TIP3    H135842   0.024   5.612   1.122  0.0263 -0.0556 -0.1763
 4761TIP3    H235843   0.109   5.721   1.182 -0.9170  0.0931  0.9373
 4762TIP3   OH235844   6.641   0.880   2.228  0.1074 -0.5407 -0.4008
 4762TIP3    H135845   6.625   0.790   2.201  1.9559 -0.0809 -3.5364
 4762TIP3    H235846   6.706   0.873   2.298 -1.4785 -1.6251  1.0649
 4763TIP3   OH235847   4.092   3.203   2.380 -0.2579  0.7224  0.7130
 4763TIP3    H135848   4.157   3.186   2.448  0.9322 -0.3229 -0.6152
 4763TIP3    H235849   4.133   3.269   2.324  0.3288 -0.9367 -0.9112
 4764TIP3   OH235850   5.340   3.197   7.711  0.1115  0.2563  0.0994
 4764TIP3    H135851   5.343   3.269   7.648 -0.4202  0.2307  0.0378
 4764TIP3    H235852   5.266   3.218   7.768  0.4941  0.2001  0.6192
 4765TIP3   OH235853   6.230   5.306   2.661 -0.1846  0.1409  0.0217
 4765TIP3    H135854   6.299   5.275   2.720  0.6947 -0.0345 -1.0609
 4765TIP3    H235855   6.256   5.395   2.639 -0.0245 -0.0907 -0.7704
 4766TIP3   OH235856   2.787   3.206   8.213  0.4516 -0.5700 -0.1358
 4766TIP3    H135857   2.742   3.267   8.272  1.4471  1.4844 -1.3750
 4766TIP3    H235858   2.879   3.212   8.238  0.5449 -1.8255 -0.1142
 4767TIP3   OH235859   0.975   0.616   8.370 -0.6327  0.6143 -0.7112
 4767TIP3    H135860   0.920   0.569   8.433  0.4847  2.0280  1.4329
 4767TIP3    H235861   1.022   0.546   8.324 -0.5041 -0.4749  0.9568
 4768TIP3   OH235862   1.303   3.027   1.896  0.0170 -0.8504  0.7671
 4768TIP3    H135863   1.261   3.004   1.979  0.7509  3.3055  2.5558
 4768TIP3    H235864   1.395   3.006   1.909  0.5487  1.8877  2.0851
 4769TIP3   OH235865   0.882   1.500   7.091 -0.4332 -0.0680 -0.3822
 4769TIP3    H135866   0.910   1.433   7.029  1.0310  1.7310 -1.8251
 4769TIP3    H235867   0.898   1.462   7.177  0.4234 -1.5191 -1.1441
 4770TIP3   OH235868   6.318   5.143   7.794 -0.8415  0.2146 -0.0800
 4770TIP3    H135869   6.402   5.163   7.833  0.3899 -4.1061 -0.0582
 4770TIP3    H235870   6.263   5.115   7.867 -1.1661 -0.2191 -0.4800
 4771TIP3   OH235871   1.394   1.673   1.490 -0.0105  0.3308 -0.5273
 4771TIP3    H135872   1.334   1.728   1.540  0.5580  0.9611 -0.5249
 4771TIP3    H235873   1.441   1.734   1.434  0.0615 -0.2544 -1.1153
 4772TIP3   OH235874   0.773   5.953   0.941  0.0651  0.3494  0.3297
 4772TIP3    H135875   0.693   5.911   0.971  0.2854  0.1090  0.5992
 4772TIP3    H235876   0.761   6.046   0.963 -0.3246  0.3878 -0.0490
 4773TIP3   OH235877   0.870   3.676   2.647 -0.0090 -0.2683 -0.1222
 4773TIP3    H135878   0.921   3.622   2.709  0.8985  0.2818 -0.3646
 4773TIP3    H235879   0.911   3.762   2.653  1.4511 -0.6558 -2.9510
 4774TIP3   OH235880   4.380   3.493   1.600  0.1126 -0.0050 -0.3796
 4774TIP3    H135881   4.383   3.509   1.695 -0.0897  0.0383 -0.3806
 4774TIP3    H235882   4.289   3.508   1.576  0.1171 -0.2305 -0.5450
 4775TIP3   OH235883   4.946   2.398   0.698 -0.1654 -0.0506 -0.3970
 4775TIP3    H135884   5.034   2.420   0.728 -0.6439 -0.6162  1.5413
 4775TIP3    H235885   4.894   2.476   0.719 -0.4549 -0.3528  0.0102
 4776TIP3   OH235886   4.968   4.156   0.566 -0.8104  0.2493  0.3412
 4776TIP3    H135887   4.888   4.209   0.564 -0.0817  1.4439  1.3733
 4776TIP3    H235888   4.936   4.066   0.572 -2.0815  0.6016 -0.6736
 4777TIP3   OH235889   0.879   5.913   8.291  0.1559  0.1651 -0.1558
 4777TIP3    H135890   0.962   5.908   8.243 -0.2013  0.8265 -0.8739
 4777TIP3    H235891   0.819   5.858   8.240  0.4614 -1.4270  1.0997
 4778TIP3   OH235892   0.762   2.607   3.116  0.2975 -0.3272 -0.3439
 4778TIP3    H135893   0.764   2.587   3.022  1.7787 -2.0864  0.0133
 4778TIP3    H235894   0.691   2.554   3.150 -0.3872  0.4809 -0.4719
 4779TIP3   OH235895   2.900   3.028   0.734 -0.2240  0.1812 -0.6429
 4779TIP3    H135896   2.882   3.080   0.656  0.2535 -0.4141 -1.1465
 4779TIP3    H235897   2.868   2.941   0.713  0.9671 -0.2752 -0.6157
 4780TIP3   OH235898   1.984   2.663   8.471 -0.0227  0.4819 -0.2046
 4780TIP3    H135899   1.955   2.734   8.413  2.1408  0.3115 -1.5924
 4780TIP3    H235900   2.062   2.627   8.429 -0.5315 -2.1869  0.8973
 4781TIP3   OH235901   1.247   6.129   8.166  0.2642 -0.4118  0.0849
 4781TIP3    H135902   1.285   6.051   8.208  0.3453 -0.8461 -0.7831
 4781TIP3    H235903   1.156   6.128   8.195  0.2607 -0.8375  0.0768
 4782TIP3   OH235904   2.632   2.924   8.310 -0.8285 -0.0819 -0.0176
 4782TIP3    H135905   2.561   2.979   8.343 -1.7964 -0.1509 -1.7967
 4782TIP3    H235906   2.702   2.985   8.288 -1.1964  0.2564 -0.2784
 4783TIP3   OH235907   3.724   3.154   0.497  0.0440  0.8605  0.0064
 4783TIP3    H135908   3.803   3.184   0.453  0.8089 -0.5579  0.3368
 4783TIP3    H235909   3.744   3.163   0.590  0.8049 -1.6997  0.1623
 4784TIP3   OH235910   0.422   0.587   0.775 -0.0940 -0.1438  0.4327
 4784TIP3    H135911   0.328   0.596   0.762  0.0055  1.3963  0.5895
 4784TIP3    H235912   0.432   0.581   0.870  0.0956  2.1161  0.6061
 4785TIP3   OH235913   1.046   1.246   0.212  0.0015 -0.6422 -0.2303
 4785TIP3    H135914   1.067   1.282   0.298 -1.8758 -0.9074  0.3800
 4785TIP3    H235915   1.037   1.152   0.227  0.6113 -0.8193 -0.9231
 4786TIP3   OH235916   0.905   2.564   0.509 -0.2396 -0.5017 -0.8769
 4786TIP3    H135917   0.957   2.493   0.547  1.1596  0.2906 -1.2210
 4786TIP3    H235918   0.968   2.616   0.460 -0.8586  1.9414  0.7074
 4787TIP3   OH235919   4.924   2.719   1.614 -0.3094  0.5204  0.1410
 4787TIP3    H135920   4.893   2.654   1.677 -2.1966  0.9368 -0.3083
 4787TIP3    H235921   4.938   2.669   1.533 -1.5740  0.6099 -0.1508
 4788TIP3   OH235922   5.395   5.453   1.186  0.1136  0.4360 -0.0053
 4788TIP3    H135923   5.449   5.397   1.240 -0.9488  0.6772  1.3572
 4788TIP3    H235924   5.328   5.394   1.149 -1.2256  0.7954  1.7185
 4789TIP3   OH235925   6.468   2.698   1.923  0.1664 -0.0737  0.3657
 4789TIP3    H135926   6.392   2.730   1.874  0.8931  2.8007  0.9153
 4789TIP3    H235927   6.543   2.723   1.869  0.8011 -2.6353 -0.0403
 4790TIP3   OH235928   1.100   3.049   2.552  0.4217  0.4603  0.5764
 4790TIP3    H135929   1.104   2.997   2.631 -2.1836  0.6623  0.9228
 4790TIP3    H235930   1.096   3.140   2.583 -0.6511  0.5395  0.2491
 4791TIP3   OH235931   1.858   4.012   7.062  0.5474 -0.2406  0.3383
 4791TIP3    H135932   1.943   4.053   7.077  0.0948  1.6351 -1.7193
 4791TIP3    H235933   1.820   4.003   7.150  2.0608  0.6935  1.1250
 4792TIP3   OH235934   4.659   3.556   0.636 -0.5105  0.3894 -0.4275
 4792TIP3    H135935   4.611   3.621   0.688 -0.6624  0.4353 -0.6240
 4792TIP3    H235936   4.739   3.539   0.686 -0.7904  0.2202 -0.0368
 4793TIP3   OH235937   4.875   2.756   8.462 -0.4681 -0.0087 -0.0232
 4793TIP3    H135938   4.843   2.773   8.551  1.2639  0.0460  0.6413
 4793TIP3    H235939   4.893   2.843   8.426  0.7794 -0.0914  0.3635
 4794TIP3   OH235940   0.777   3.320   0.050  0.1326 -0.4173  0.3350
 4794TIP3    H135941   0.688   3.332   0.015  0.9172  0.3304 -1.5495
 4794TIP3    H235942   0.816   3.408   0.046  0.7018 -0.5724  1.9519
 4795TIP3   OH235943   3.535   3.033   8.549 -0.0558  0.0594 -0.5365
 4795TIP3    H135944   3.528   3.128   8.559 -1.6028 -0.1660  0.9098
 4795TIP3    H235945   3.617   3.010   8.593 -0.0480  0.6320 -0.2350
 4796TIP3   OH235946   0.537   4.546   7.757  0.0714  0.0227 -0.0330
 4796TIP3    H135947   0.556   4.608   7.686  1.8999  0.2629  0.6089
 4796TIP3    H235948   0.562   4.593   7.837 -1.0230 -0.6021  0.6988
 4797TIP3   OH235949   0.472   5.480   8.482 -0.2183 -0.3606 -0.1812
 4797TIP3    H135950   0.479   5.481   8.387  0.1380  0.0934 -0.1572
 4797TIP3    H235951   0.499   5.568   8.509 -0.4897 -0.4260  0.3268
 4798TIP3   OH235952   1.069   2.075   7.014 -0.6142  0.2660  0.4733
 4798TIP3    H135953   0.996   2.061   7.075 -0.4998 -1.6830  0.2371
 4798TIP3    H235954   1.132   2.007   7.036 -0.2124  0.0254 -1.2793
 4799TIP3   OH235955   1.327   5.263   0.487  0.0168 -0.2533 -0.3196
 4799TIP3    H135956   1.362   5.318   0.416 -0.2172  2.7482  1.6716
 4799TIP3    H235957   1.396   5.263   0.553 -0.9954 -0.1427  0.7789
 4800TIP3   OH235958   5.138   5.639   0.249 -0.2528 -0.1263 -0.3402
 4800TIP3    H135959   5.142   5.562   0.305 -1.3834 -0.8537 -1.2119
 4800TIP3    H235960   5.198   5.619   0.177  0.3173  0.3127  0.0011
 4801TIP3   OH235961   1.353   2.309   8.397  0.3534 -0.5110 -0.1315
 4801TIP3    H135962   1.413   2.365   8.347  0.3760 -1.5436 -1.3135
 4801TIP3    H235963   1.410   2.243   8.436 -0.0640 -2.6805 -2.8326
 4802TIP3   OH235964   3.718   1.067   0.624  0.7860  0.2969 -0.7202
 4802TIP3    H135965   3.803   1.041   0.589  1.8276 -2.6895  3.2948
 4802TIP3    H235966   3.737   1.133   0.689 -0.0318 -0.0045 -0.1558
 4803TIP3   OH235967   1.481   6.734   0.549  0.3972  0.4928 -0.4171
 4803TIP3    H135968   1.483   6.742   0.644  0.9855  1.0707 -0.4704
 4803TIP3    H235969   1.396   6.770   0.523  0.0272 -0.1220 -0.0784
 4804TIP3   OH235970   2.227   2.928   7.241  0.1046  0.6461 -0.3197
 4804TIP3    H135971   2.216   3.023   7.237 -0.4826  0.5310 -1.8300
 4804TIP3    H235972   2.321   2.915   7.224  0.1013  0.9270 -0.5684
 4805TIP3   OH235973   4.903   2.116   0.747  0.0872  0.1720  0.1577
 4805TIP3    H135974   4.970   2.108   0.815 -0.5495  1.2952  0.9429
 4805TIP3    H235975   4.924   2.198   0.703 -0.6044  0.3736  0.2066
 4806TIP3   OH235976   6.432   3.984   1.759  0.1080  0.3013 -0.3209
 4806TIP3    H135977   6.450   3.958   1.668 -1.5356  0.4009 -0.7080
 4806TIP3    H235978   6.450   3.905   1.810 -1.3273 -0.5365 -1.0544
 4807TIP3   OH235979   0.629   4.878   0.562 -0.1140 -0.3203  0.6525
 4807TIP3    H135980   0.535   4.884   0.578 -0.6428  2.2189 -2.4448
 4807TIP3    H235981   0.637   4.855   0.470  2.2393  1.1212  0.3973
 4808TIP3   OH235982   6.036   0.476   0.363  0.5807 -0.4749  0.1679
 4808TIP3    H135983   5.965   0.424   0.402  0.8438 -1.0304 -0.0770
 4808TIP3    H235984   6.100   0.410   0.334  1.2932  0.0273  0.5764
 4809TIP3   OH235985   0.187   6.396   2.542 -0.0091  1.0609 -0.1513
 4809TIP3    H135986   0.148   6.479   2.571 -1.0057  0.4304  0.3559
 4809TIP3    H235987   0.115   6.333   2.545  0.6273  0.2681 -0.9836
 4810TIP3   OH235988   5.502   6.115   1.615 -0.2202  0.3642  0.1063
 4810TIP3    H135989   5.504   6.035   1.562 -3.0280  0.8179 -0.8798
 4810TIP3    H235990   5.455   6.090   1.695  0.2708  0.6673  0.4939
 4811TIP3   OH235991   2.115   3.064   8.524  0.5067 -0.2908 -0.0581
 4811TIP3    H135992   2.026   3.085   8.555  0.5134 -0.2063 -0.0952
 4811TIP3    H235993   2.143   3.143   8.477  0.2702 -0.6279 -0.7853
 4812TIP3   OH235994   4.031   3.515   2.104 -0.1851 -0.9411  0.1027
 4812TIP3    H135995   3.986   3.597   2.088 -0.2270 -0.8204  0.8149
 4812TIP3    H235996   4.016   3.463   2.025  0.7407  0.1280 -0.8126
 4813TIP3   OH235997   5.729   3.623   0.890  0.2840 -0.6694  0.6857
 4813TIP3    H135998   5.636   3.617   0.910  0.6329 -2.5278  2.0019
 4813TIP3    H235999   5.746   3.550   0.830  0.8557 -0.1472  0.1888
 4814TIP3   OH236000   1.893   5.013   7.501 -0.3516  0.0737  0.0071
 4814TIP3    H136001   1.916   4.928   7.538 -1.1876 -0.4464 -0.6373
 4814TIP3    H236002   1.908   5.003   7.407  1.1005  1.1676  0.0945
 4815TIP3   OH236003   4.321   0.263   7.541 -0.2718  0.1427 -0.1176
 4815TIP3    H136004   4.344   0.258   7.633 -1.5457  0.9104  0.2608
 4815TIP3    H236005   4.391   0.315   7.502 -0.2033  0.5841  0.5805
 4816TIP3   OH236006   1.487   5.423   1.143  0.2496  0.7969 -0.1448
 4816TIP3    H136007   1.525   5.503   1.180  0.6079  0.7190 -0.3478
 4816TIP3    H236008   1.411   5.454   1.094 -1.0865  0.7723  1.8096
 4817TIP3   OH236009   0.805   4.341   2.256 -0.1887  0.0209 -0.5721
 4817TIP3    H136010   0.810   4.432   2.283 -1.6805  0.1693 -0.7070
 4817TIP3    H236011   0.885   4.301   2.291  0.6284  1.4252 -0.7746
 4818TIP3   OH236012   1.733   5.471   2.826 -0.2057 -0.0510 -0.1215
 4818TIP3    H136013   1.683   5.390   2.826  1.7281 -1.3287  1.3937
 4818TIP3    H236014   1.671   5.537   2.857 -1.5857 -1.0548 -0.6194
 4819TIP3   OH236015   6.450   4.604   2.464  0.6989 -0.2742  0.3457
 4819TIP3    H136016   6.519   4.548   2.428  1.6642  1.3243 -0.3780
 4819TIP3    H236017   6.372   4.583   2.413  0.7870 -1.6220  0.7298
 4820TIP3   OH236018   4.605   0.760   2.395 -0.0379  0.0620 -0.0674
 4820TIP3    H136019   4.638   0.828   2.454 -0.2675 -0.0548  0.1953
 4820TIP3    H236020   4.518   0.740   2.428  1.0794 -2.4465  1.6367
 4821TIP3   OH236021   5.172   1.074   8.497 -0.0148  0.7733 -0.3208
 4821TIP3    H136022   5.211   1.095   8.582 -0.1793 -0.2265  0.0109
 4821TIP3    H236023   5.113   1.148   8.479 -0.0507  0.9491  0.4785
 4822TIP3   OH236024   2.127   4.523   7.399 -0.2067  0.0439 -0.1950
 4822TIP3    H136025   2.155   4.602   7.444 -3.2904  0.1963  1.7674
 4822TIP3    H236026   2.085   4.554   7.318 -1.3095  0.4799  0.5184
 4823TIP3   OH236027   0.287   4.587   8.289  0.4250  0.4454  0.2584
 4823TIP3    H136028   0.325   4.539   8.363 -0.5765  1.2192  1.3181
 4823TIP3    H236029   0.270   4.674   8.324 -0.0212  0.8503 -0.9202
 4824TIP3   OH236030   0.170   4.150   1.286 -0.1165  0.3415 -0.4502
 4824TIP3    H136031   0.196   4.074   1.338 -1.4759 -0.2412 -0.5805
 4824TIP3    H236032   0.240   4.214   1.299  0.6394 -0.6309  0.3190
 4825TIP3   OH236033   4.044   4.979   0.178  0.1489  0.1691  0.0627
 4825TIP3    H136034   4.093   4.916   0.126 -1.5243  0.0926 -1.5306
 4825TIP3    H236035   4.043   5.059   0.125  0.3605  0.8430  1.0422
 4826TIP3   OH236036   0.379   4.411   1.836  0.2185 -0.0373 -0.1354
 4826TIP3    H136037   0.421   4.332   1.802  0.3129 -0.0679  0.0552
 4826TIP3    H236038   0.293   4.380   1.866  0.8698 -0.3800  1.4304
 4827TIP3   OH236039   1.437   5.439   1.744 -0.7181 -0.2554  0.2478
 4827TIP3    H136040   1.503   5.418   1.811  0.0234  0.8104 -0.1250
 4827TIP3    H236041   1.467   5.391   1.666  0.3331  1.1728 -0.2718
 4828TIP3   OH236042   1.117   2.585   8.790 -0.4344 -0.2849 -0.7583
 4828TIP3    H136043   1.117   2.526   8.715  0.8326 -0.7525 -0.4015
 4828TIP3    H236044   1.027   2.580   8.824  0.0205 -3.3177  0.2646
 4829TIP3   OH236045   3.631   4.366   8.592 -0.0135  0.5547  0.3747
 4829TIP3    H136046   3.587   4.374   8.507 -0.6373 -0.7728  0.5367
 4829TIP3    H236047   3.701   4.302   8.576  0.8952  1.5030  0.4915
 4830TIP3   OH236048   5.205   0.174   7.207 -0.2233  0.3985 -0.6122
 4830TIP3    H136049   5.122   0.198   7.249  0.5408  1.9415  0.0921
 4830TIP3    H236050   5.197   0.209   7.118 -0.2176  0.8432 -0.4437
 4831TIP3   OH236051   6.357   3.935   0.441 -1.0806  0.1134 -0.0090
 4831TIP3    H136052   6.300   3.862   0.468 -0.3947 -0.1813  0.6980
 4831TIP3    H236053   6.316   3.970   0.362 -1.3005 -1.1908 -0.4988
 4832TIP3   OH236054   2.229   5.480   2.820  0.3513 -0.2525  0.0984
 4832TIP3    H136055   2.163   5.467   2.888 -1.8322  3.4633 -1.0127
 4832TIP3    H236056   2.191   5.441   2.742 -0.9266  2.2519 -0.6406
 4833TIP3   OH236057   3.355   5.662   1.303 -0.3303 -0.1473  0.2295
 4833TIP3    H136058   3.301   5.701   1.234 -0.4004 -1.7267 -0.6513
 4833TIP3    H236059   3.334   5.569   1.300  2.6066 -0.8804 -0.3259
 4834TIP3   OH236060   0.776   2.838   0.525  0.3894  0.2443  0.0206
 4834TIP3    H136061   0.719   2.842   0.602  0.3562  1.4653 -0.0521
 4834TIP3    H236062   0.814   2.750   0.528 -0.7314 -0.2387  0.6169
 4835TIP3   OH236063   1.904   3.636   8.191  0.2209  0.5728  0.2162
 4835TIP3    H136064   1.854   3.555   8.191  0.1455  0.6172  0.9852
 4835TIP3    H236065   1.849   3.698   8.142  0.8645 -0.1755 -1.5318
 4836TIP3   OH236066   6.481   0.432   1.252  0.5391 -0.1082 -0.0456
 4836TIP3    H136067   6.511   0.417   1.342  0.1859 -0.6463 -0.0156
 4836TIP3    H236068   6.387   0.416   1.255  0.4404  0.3620 -0.4081
 4837TIP3   OH236069   1.068   4.404   2.324 -0.0243 -0.2467  0.1861
 4837TIP3    H136070   1.140   4.413   2.386  1.3048 -1.0710 -1.1774
 4837TIP3    H236071   1.072   4.484   2.271  0.6972 -0.8541 -0.6927
 4838TIP3   OH236072   1.194   4.712   1.317  0.6463 -0.4624  0.3799
 4838TIP3    H136073   1.137   4.729   1.391  0.2116 -0.9548  0.1566
 4838TIP3    H236074   1.146   4.651   1.261  0.6932  0.3883 -0.6304
 4839TIP3   OH236075   2.934   2.287   2.515 -0.6941 -0.0543  0.1961
 4839TIP3    H136076   2.852   2.248   2.546 -0.4627  0.8339  2.0669
 4839TIP3    H236077   2.990   2.291   2.593  1.4172 -1.2154 -1.1465
 4840TIP3   OH236078   2.856   5.039   2.085 -0.2650 -0.0212  0.2923
 4840TIP3    H136079   2.802   5.071   2.013 -0.6785 -0.9325  0.1828
 4840TIP3    H236080   2.943   5.076   2.069 -0.7937  1.3024  0.3568
 4841TIP3   OH236081   1.089   2.866   8.713 -0.0139  0.1825 -0.4562
 4841TIP3    H136082   1.112   2.888   8.803 -1.1432 -0.0588 -0.0929
 4841TIP3    H236083   1.096   2.771   8.708  0.2305  0.2117 -0.6757
 4842TIP3   OH236084   1.136   1.964   7.913 -0.0462 -0.4757  0.0857
 4842TIP3    H136085   1.155   1.957   8.006 -0.2944  0.7926  0.2571
 4842TIP3    H236086   1.120   1.874   7.884  1.6038 -1.0641  0.9058
 4843TIP3   OH236087   2.551   4.339   1.603 -0.2479  0.1013 -0.0464
 4843TIP3    H136088   2.576   4.258   1.648 -0.6269  0.2390  0.4221
 4843TIP3    H236089   2.586   4.329   1.514 -0.4430 -0.6524 -0.0440
 4844TIP3   OH236090   3.711   6.770   0.180  0.3568 -0.6114  0.0720
 4844TIP3    H136091   3.711   6.710   0.106 -1.0955  0.2177 -0.6401
 4844TIP3    H236092   3.695   6.857   0.142 -1.7282 -0.3221  1.4072
 4845TIP3   OH236093   2.125   2.815   7.481 -0.1876  0.2753 -0.0468
 4845TIP3    H136094   2.075   2.734   7.473 -0.2240  0.3975 -1.1741
 4845TIP3    H236095   2.123   2.854   7.393  0.0064  1.3889  0.4222
 4846TIP3   OH236096   2.483   0.600   1.534  0.3717 -0.0031 -0.0483
 4846TIP3    H136097   2.435   0.547   1.471  1.3094 -1.9329  0.7507
 4846TIP3    H236098   2.522   0.536   1.594  2.5968  1.5212  0.2789
 4847TIP3   OH236099   0.408   5.101   8.015  0.2009  0.5643 -0.2739
 4847TIP3    H136100   0.349   5.169   7.984 -0.8925 -1.2529 -2.5366
 4847TIP3    H236101   0.358   5.054   8.082  0.6773  1.4974  0.7549
 4848TIP3   OH236102   4.792   1.607   1.774 -0.2839  0.0596 -0.8511
 4848TIP3    H136103   4.838   1.649   1.846 -1.1461 -0.2065 -0.1219
 4848TIP3    H236104   4.817   1.515   1.779 -0.8852 -0.0882 -0.4439
 4849TIP3   OH236105   6.372   3.403   8.151 -0.2841 -0.0344 -0.5500
 4849TIP3    H136106   6.327   3.344   8.212 -0.1123 -0.4530 -0.8306
 4849TIP3    H236107   6.308   3.472   8.133  0.3963  1.3373  1.8486
 4850TIP3   OH236108   4.594   4.724   1.305  0.0423  0.2179  0.1283
 4850TIP3    H136109   4.573   4.632   1.291  0.1287  0.1775  0.2715
 4850TIP3    H236110   4.514   4.770   1.281 -0.0557  0.0946  0.2176
 4851TIP3   OH236111   6.012   4.967   0.737  0.3740 -0.5792  0.1640
 4851TIP3    H136112   5.940   4.904   0.732  0.5947 -0.7396 -1.2089
 4851TIP3    H236113   6.017   5.006   0.650  1.5811 -0.1479  0.4029
 4852TIP3   OH236114   0.923   2.263   1.197  0.3702 -0.1328  0.2707
 4852TIP3    H136115   0.832   2.292   1.192  0.1559 -0.9319 -0.7909
 4852TIP3    H236116   0.930   2.220   1.283  0.4388  2.0576  1.4392
 4853TIP3   OH236117   6.294   2.626   8.045  0.2232 -0.3160 -0.0904
 4853TIP3    H136118   6.340   2.563   8.101 -0.0787 -1.9428 -1.5635
 4853TIP3    H236119   6.281   2.579   7.962  0.6726  1.9911 -1.5499
 4854TIP3   OH236120   0.498   6.341   6.876  0.0039  0.2917  0.2139
 4854TIP3    H136121   0.451   6.269   6.834  1.3471  0.2667 -1.3459
 4854TIP3    H236122   0.579   6.302   6.908  0.8764  1.1284 -0.9004
 4855TIP3   OH236123   3.787   2.126   7.634 -0.0565 -0.4995 -0.4678
 4855TIP3    H136124   3.838   2.152   7.557 -1.5095  0.6843 -1.0806
 4855TIP3    H236125   3.755   2.039   7.612  0.1610 -0.4848 -0.8738
 4856TIP3   OH236126   5.081   3.046   0.591 -0.1282  0.7032 -0.5099
 4856TIP3    H136127   5.031   2.992   0.651 -0.0031  0.4104 -0.6643
 4856TIP3    H236128   5.087   2.993   0.511  1.5531  0.1559 -0.0619
 4857TIP3   OH236129   1.388   0.406   0.607  0.2679 -0.0734 -0.2346
 4857TIP3    H136130   1.375   0.429   0.699  1.5501  2.1005 -0.5270
 4857TIP3    H236131   1.482   0.386   0.601  0.3160  0.4085 -1.1848
 4858TIP3   OH236132   5.420   3.304   8.486  0.3601 -0.1443  0.5046
 4858TIP3    H136133   5.422   3.364   8.412 -0.3795 -0.9936 -0.2357
 4858TIP3    H236134   5.512   3.281   8.501  0.4275 -1.0573 -1.0963
 4859TIP3   OH236135   2.284   1.878   0.963  0.0026  0.3477 -0.1532
 4859TIP3    H136136   2.329   1.960   0.942 -1.7488  1.1824 -0.8572
 4859TIP3    H236137   2.354   1.813   0.966  1.3064  1.6559 -0.7145
 4860TIP3   OH236138   0.550   5.162   1.920 -0.1873 -0.1064 -0.3025
 4860TIP3    H136139   0.579   5.078   1.954  0.1935 -0.1526 -0.7296
 4860TIP3    H236140   0.465   5.144   1.880 -0.1614 -0.2641 -0.2882
 4861TIP3   OH236141   2.483   6.408   2.286 -0.6198  0.2430 -0.4363
 4861TIP3    H136142   2.470   6.430   2.194  0.0890  2.3555 -0.0760
 4861TIP3    H236143   2.499   6.492   2.329 -1.0097 -0.6841  1.6407
 4862TIP3   OH236144   2.057   6.601   2.140  0.3992  0.4374  0.4391
 4862TIP3    H136145   2.055   6.508   2.117  0.4375  0.4032  0.5751
 4862TIP3    H236146   2.136   6.634   2.097  1.4895 -0.0175  1.9984
 4863TIP3   OH236147   0.625   4.297   7.439 -0.0907  0.2105 -0.1393
 4863TIP3    H136148   0.694   4.260   7.384  0.8586  1.8589 -0.1029
 4863TIP3    H236149   0.566   4.340   7.377 -1.4139 -1.5965 -0.2198
 4864TIP3   OH236150   5.303   5.580   8.666 -0.4043  0.0153 -0.9219
 4864TIP3    H136151   5.342   5.634   8.735  0.0921  0.8215 -1.8009
 4864TIP3    H236152   5.374   5.568   8.602 -0.8342 -0.7673 -1.2656
 4865TIP3   OH236153   0.572   3.946   8.453  0.0285  0.5767  0.5309
 4865TIP3    H136154   0.543   4.034   8.429  1.0068  0.7202 -0.1557
 4865TIP3    H236155   0.556   3.893   8.375 -3.3816 -0.6086  1.8371
 4866TIP3   OH236156   2.489   3.076   0.213  0.1931  0.1126 -0.7003
 4866TIP3    H136157   2.565   3.066   0.269 -0.5825 -0.8786  0.2252
 4866TIP3    H236158   2.514   3.035   0.130  0.7482  0.0194 -0.4881
 4867TIP3   OH236159   0.044   1.247   0.777  0.0092 -0.2943  0.2820
 4867TIP3    H136160   0.109   1.231   0.709 -0.8023  2.4547 -1.3143
 4867TIP3    H236161   0.006   1.332   0.754 -2.2521 -0.5317  2.6621
 4868TIP3   OH236162   3.623   1.815   1.817 -0.3738 -0.2350 -0.3774
 4868TIP3    H136163   3.669   1.732   1.805  1.3820  0.0718  2.9991
 4868TIP3    H236164   3.533   1.790   1.839 -0.0496 -1.2004 -0.1175
 4869TIP3   OH236165   4.862   0.648   0.099  0.3649 -0.1510 -0.2928
 4869TIP3    H136166   4.839   0.647   0.006  1.6194 -0.4590 -0.6208
 4869TIP3    H236167   4.942   0.701   0.102  0.6642 -0.6437  0.5288
 4870TIP3   OH236168   2.526   4.414   1.185  0.1986 -0.4853  0.1018
 4870TIP3    H136169   2.570   4.422   1.100  1.9452 -1.4479  0.8346
 4870TIP3    H236170   2.433   4.417   1.165  0.5708 -0.4203 -1.8169
 4871TIP3   OH236171   4.615   2.380   2.538 -0.1303 -0.0082  0.3363
 4871TIP3    H136172   4.616   2.449   2.472 -0.6487 -0.4956 -0.1904
 4871TIP3    H236173   4.526   2.381   2.573 -0.5824 -1.3173 -0.6729
 4872TIP3   OH236174   5.988   4.351   8.106 -0.1246  0.0508  0.6192
 4872TIP3    H136175   5.932   4.429   8.104 -0.5871 -0.2885 -1.3112
 4872TIP3    H236176   6.005   4.337   8.199 -0.4967  2.1085  1.0601
 4873TIP3   OH236177   2.065   6.415   8.021 -0.4710 -0.1367  0.2860
 4873TIP3    H136178   2.042   6.505   7.996  2.3062  1.4932  2.9354
 4873TIP3    H236179   1.983   6.377   8.054 -1.5292  1.7225 -0.0732
 4874TIP3   OH236180   1.656   1.527   3.239  0.2084 -0.5424 -0.7196
 4874TIP3    H136181   1.630   1.532   3.331  0.5260 -0.3898 -0.6367
 4874TIP3    H236182   1.751   1.518   3.241  0.4798  1.6249 -1.0492
 4875TIP3   OH236183   2.633   5.252   0.472 -0.5815  0.0047  0.0129
 4875TIP3    H136184   2.599   5.327   0.521 -0.1269 -0.7512  1.5666
 4875TIP3    H236185   2.725   5.273   0.456 -0.4571 -0.2001  0.4377
 4876TIP3   OH236186   0.736   4.529   8.780  0.1383  0.0380  0.0159
 4876TIP3    H136187   0.790   4.450   8.773  0.9847  0.6981 -1.6984
 4876TIP3    H236188   0.780   4.592   8.722 -0.5836  1.7296  1.2313
 4877TIP3   OH236189   6.799   3.670   0.859  0.3980 -0.3198  0.4419
 4877TIP3    H136190   6.743   3.641   0.787 -0.2935  0.6513  0.5752
 4877TIP3    H236191   6.833   3.755   0.831  0.0034  0.1355  1.3252
 4878TIP3   OH236192   1.725   0.055   8.790  0.3475  0.2553 -0.8705
 4878TIP3    H136193   1.728  -0.037   8.817 -2.1262  0.8484  2.1391
 4878TIP3    H236194   1.778   0.101   8.856 -1.8821  1.3023  0.3214
 4879TIP3   OH236195   2.617   5.194   8.323  0.0196  0.0994  0.3664
 4879TIP3    H136196   2.556   5.258   8.360 -1.0154 -0.9654  0.5752
 4879TIP3    H236197   2.681   5.180   8.391 -0.2553  0.2512  0.6615
 4880TIP3   OH236198   2.038   0.695   1.304  0.3023 -0.2184  0.0394
 4880TIP3    H136199   2.100   0.749   1.352  1.5720  0.0714 -1.8271
 4880TIP3    H236200   2.041   0.610   1.348 -0.1663  0.5947  1.7244
 4881TIP3   OH236201   1.475   0.882   1.356 -0.4080 -0.1325  0.3830
 4881TIP3    H136202   1.478   0.962   1.410  0.8953 -1.6215  2.6886
 4881TIP3    H236203   1.434   0.910   1.274 -0.7188  2.7162  1.3946
 4882TIP3   OH236204   6.728   4.634   1.560  0.0928 -0.3208  1.1616
 4882TIP3    H136205   6.776   4.659   1.481 -0.7066  0.4311  0.9061
 4882TIP3    H236206   6.791   4.581   1.610 -0.1321 -2.9484 -1.0812
 4883TIP3   OH236207   6.444   4.747   0.711  0.3176  0.1978  0.2576
 4883TIP3    H136208   6.506   4.710   0.648  2.1768  1.7545  1.0602
 4883TIP3    H236209   6.471   4.838   0.720 -1.5551  0.7003  1.3593
 4884TIP3   OH236210   2.237   6.220   8.417 -0.1122  0.1981  0.5635
 4884TIP3    H136211   2.286   6.175   8.486 -1.5621 -0.7780  0.9903
 4884TIP3    H236212   2.168   6.268   8.463  0.6032  1.8619 -0.0006
 4885TIP3   OH236213   1.265   5.764   7.414  0.2914  0.5152 -0.8176
 4885TIP3    H136214   1.346   5.738   7.458 -0.1896  1.2853  0.6091
 4885TIP3    H236215   1.221   5.681   7.393 -0.2002  0.0695  1.6637
 4886TIP3   OH236216   6.452   6.499   6.956 -0.5425 -0.2412  0.1172
 4886TIP3    H136217   6.482   6.586   6.930  1.2745 -1.2628 -1.4331
 4886TIP3    H236218   6.385   6.475   6.892 -0.8506 -0.1060  0.3849
 4887TIP3   OH236219   3.399   0.616   8.071  0.2891 -0.2835 -0.0171
 4887TIP3    H136220   3.418   0.683   8.137  2.3118 -0.1187 -0.7066
 4887TIP3    H236221   3.335   0.657   8.013 -0.7614 -0.0750  1.2402
 4888TIP3   OH236222   3.164   5.972   2.493 -0.6610  0.6945  0.1531
 4888TIP3    H136223   3.173   5.877   2.504 -1.2213  0.3434 -1.9599
 4888TIP3    H236224   3.075   5.991   2.523 -0.4757  0.6046  0.7774
 4889TIP3   OH236225   1.334   3.831   7.938  0.0757  0.0389  0.2857
 4889TIP3    H136226   1.393   3.762   7.908 -1.0114 -0.0906 -1.6945
 4889TIP3    H236227   1.269   3.839   7.869 -0.5520  2.1928  1.0446
 4890TIP3   OH236228   3.187   0.221   2.328 -0.4629 -0.2673 -0.1435
 4890TIP3    H136229   3.189   0.260   2.416  0.3260 -0.6431  0.0099
 4890TIP3    H236230   3.100   0.182   2.322 -1.2505  1.3962 -0.2575
 4891TIP3   OH236231   5.772   1.951   0.992 -0.3120 -0.1085  0.1722
 4891TIP3    H136232   5.796   1.991   0.909 -1.3394 -0.7603 -0.4675
 4891TIP3    H236233   5.851   1.905   1.021 -0.4864 -1.5890 -1.4927
 4892TIP3   OH236234   4.379   0.406   8.776  0.1803 -0.2553 -0.5608
 4892TIP3    H136235   4.387   0.500   8.758  0.6740 -0.4967 -1.7513
 4892TIP3    H236236   4.457   0.368   8.735  1.5263 -0.9027  2.4005
 4893TIP3   OH236237   0.579   1.732   0.314 -0.2813 -0.6036  0.1978
 4893TIP3    H136238   0.509   1.689   0.264  0.3763 -0.0990 -1.1929
 4893TIP3    H236239   0.627   1.783   0.250  0.0243  0.8488  1.5153
 4894TIP3   OH236240   3.008   3.989   8.587 -0.8026 -0.0305  0.3255
 4894TIP3    H136241   2.969   4.061   8.636 -3.0671 -1.0788  0.1928
 4894TIP3    H236242   2.936   3.953   8.536  0.8436 -0.7636 -1.6383
 4895TIP3   OH236243   2.412   1.712   1.614  0.0450 -0.0741 -0.0625
 4895TIP3    H136244   2.325   1.709   1.576 -0.8792  0.5287  1.8719
 4895TIP3    H236245   2.397   1.719   1.708  2.1691  0.7053  0.2846
 4896TIP3   OH236246   4.200   6.182   1.699  0.2485 -0.3446 -0.1086
 4896TIP3    H136247   4.104   6.177   1.693  0.3528 -1.7574 -1.3353
 4896TIP3    H236248   4.220   6.153   1.788 -0.4909  0.5752  0.3656
 4897TIP3   OH236249   6.071   2.596   1.573  0.3856  0.3294 -0.0410
 4897TIP3    H136250   6.159   2.563   1.593  0.4853  0.4638 -0.2430
 4897TIP3    H236251   6.087   2.674   1.519  0.1460  0.4794  0.1057
 4898TIP3   OH236252   4.613   2.190   0.839  0.0224 -0.7120  0.9656
 4898TIP3    H136253   4.699   2.226   0.862 -0.5971  1.1639  0.5103
 4898TIP3    H236254   4.583   2.244   0.766 -0.5218 -2.9157 -0.5415
 4899TIP3   OH236255   5.224   1.194   6.940 -0.1214  0.1966 -0.3107
 4899TIP3    H136256   5.244   1.122   6.879  1.9910 -1.1742  1.8175
 4899TIP3    H236257   5.136   1.174   6.972  0.6054 -1.8554  0.6261
 4900TIP3   OH236258   1.105   5.065   6.788 -0.8122  0.4219 -0.2526
 4900TIP3    H136259   1.182   5.026   6.829 -0.1076  0.5128 -1.4387
 4900TIP3    H236260   1.089   5.145   6.838 -1.9211 -1.0027  1.8422
 4901TIP3   OH236261   6.764   3.693   7.421  0.4093 -0.0267  0.1892
 4901TIP3    H136262   6.736   3.778   7.387  1.3371  0.1482 -0.1514
 4901TIP3    H236263   6.826   3.660   7.357 -1.7172 -2.0898 -0.9531
 4902TIP3   OH236264   2.753   0.628   7.518  0.1589  0.2863 -0.1792
 4902TIP3    H136265   2.735   0.721   7.531 -0.7345  0.1528 -0.4065
 4902TIP3    H236266   2.755   0.617   7.423 -0.4331 -0.0507 -0.1550
 4903TIP3   OH236267   5.000   6.171   1.331  0.2749  0.0843  0.0488
 4903TIP3    H136268   5.007   6.265   1.313 -1.7409  0.4496  0.9307
 4903TIP3    H236269   5.034   6.161   1.420 -1.1821  0.3053  0.6536
 4904TIP3   OH236270   2.337   5.345   7.821  0.2613  0.2376 -0.3477
 4904TIP3    H136271   2.242   5.330   7.822  0.6133 -2.4757  0.9287
 4904TIP3    H236272   2.355   5.374   7.731 -1.8123  1.4533 -0.4475
 4905TIP3   OH236273   4.804   3.165   8.119 -0.4402  0.2024 -0.2405
 4905TIP3    H136274   4.813   3.076   8.083 -0.0414 -0.3021  1.0598
 4905TIP3    H236275   4.741   3.208   8.060 -0.1366 -0.7225 -1.2727
 4906TIP3   OH236276   3.320   1.429   0.520  0.2418 -0.0461 -0.0090
 4906TIP3    H136277   3.269   1.415   0.600 -0.4198  0.6995 -0.2883
 4906TIP3    H236278   3.388   1.362   0.523 -0.5272 -0.8230  0.5582
 4907TIP3   OH236279   0.303   3.639   8.374 -0.0376 -0.1381 -0.2283
 4907TIP3    H136280   0.216   3.602   8.390  0.1909 -0.1487  1.1615
 4907TIP3    H236281   0.361   3.563   8.370 -0.2842 -0.2742 -2.9805
 4908TIP3   OH236282   1.819   5.312   8.768 -0.7166  0.3220  0.0461
 4908TIP3    H136283   1.755   5.262   8.716 -0.1731  0.1103 -0.4369
 4908TIP3    H236284   1.880   5.347   8.703  0.2677 -0.3674  0.5803
 4909TIP3   OH236285   1.483   5.611   0.098 -0.6379  0.5881 -0.2563
 4909TIP3    H136286   1.555   5.666   0.129 -1.0562  1.3410 -0.5847
 4909TIP3    H236287   1.513   5.577   0.014 -0.3405  0.2357 -0.0100
 4910TIP3   OH236288   3.989   3.620   0.049  1.0989 -0.4316 -0.1282
 4910TIP3    H136289   4.039   3.538   0.053  2.2486  0.2300 -0.5155
 4910TIP3    H236290   3.904   3.594   0.014  1.4431 -1.4664 -0.2419
 4911TIP3   OH236291   4.880   0.228   8.559  0.9256  0.6511  0.2793
 4911TIP3    H136292   4.910   0.236   8.650  1.5135 -0.4357  0.1981
 4911TIP3    H236293   4.863   0.134   8.547  0.0942  0.8876 -0.5032
 4912TIP3   OH236294   6.107   3.746   0.498 -0.1466 -0.5064  0.1057
 4912TIP3    H136295   6.147   3.703   0.423  1.1397 -0.5627  0.8000
 4912TIP3    H236296   6.051   3.679   0.537 -0.2341 -0.7104 -0.3640
 4913TIP3   OH236297   2.828   0.960   8.368 -0.4935 -0.2312  0.1211
 4913TIP3    H136298   2.767   1.034   8.370  1.4835  1.6654 -2.2630
 4913TIP3    H236299   2.830   0.934   8.276  1.5788 -0.8153  0.2858
 4914TIP3   OH236300   0.022   6.782   1.884  0.2382  0.2642  0.1172
 4914TIP3    H136301   0.089   6.724   1.920  0.1658  1.1847  1.7996
 4914TIP3    H236302   0.032   6.774   1.789  2.1109 -0.3208  0.3345
 4915TIP3   OH236303   6.371   6.697   2.348 -0.0658  0.0403 -0.5089
 4915TIP3    H136304   6.401   6.719   2.437 -0.3489  1.9374 -0.8302
 4915TIP3    H236305   6.438   6.638   2.314 -0.2799 -1.2573  1.1722
 4916TIP3   OH236306   1.991   1.456   1.488  0.6782  0.0595  0.3904
 4916TIP3    H136307   2.036   1.532   1.525  0.8957 -0.0199  0.2879
 4916TIP3    H236308   2.047   1.382   1.509  1.7740  0.2177 -1.6810
 4917TIP3   OH236309   5.105   2.645   1.916  0.6750  0.1231  0.3827
 4917TIP3    H136310   5.161   2.709   1.872  0.8100  0.8535  1.5687
 4917TIP3    H236311   5.148   2.561   1.902  1.1625  0.4563 -0.1389
 4918TIP3   OH236312   4.476   4.066   0.247  0.5852  0.0060  0.1799
 4918TIP3    H136313   4.388   4.076   0.210 -0.0968  1.6032  2.0522
 4918TIP3    H236314   4.521   4.147   0.223  1.2307 -0.3652  0.1053
 4919TIP3   OH236315   5.668   6.663   1.099 -0.5485 -0.2245 -0.1583
 4919TIP3    H136316   5.655   6.619   1.182  0.5953 -4.4973 -1.9946
 4919TIP3    H236317   5.583   6.656   1.055 -0.8019  0.9250  0.1119
 4920TIP3   OH236318   6.159   0.163   1.522  0.3282 -0.0318  0.2547
 4920TIP3    H136319   6.190   0.214   1.448  0.6534 -0.3115  0.1906
 4920TIP3    H236320   6.119   0.085   1.483  1.3408 -0.6447  0.3767
 4921TIP3   OH236321   5.867   5.621   7.159  0.2209 -0.1268 -0.4652
 4921TIP3    H136322   5.799   5.554   7.158  0.3130 -0.2190 -0.5978
 4921TIP3    H236323   5.820   5.704   7.164  0.1225 -0.2279  0.2729
 4922TIP3   OH236324   5.553   6.624   0.365 -0.7876 -0.2058  0.3514
 4922TIP3    H136325   5.628   6.583   0.323 -1.4158 -1.5089  0.4361
 4922TIP3    H236326   5.539   6.705   0.317 -0.4219 -0.8231 -0.8361
 4923TIP3   OH236327   6.109   4.092   7.299  0.2345  0.2458 -0.2719
 4923TIP3    H136328   6.057   4.037   7.240  0.7813  0.5673 -1.0551
 4923TIP3    H236329   6.163   4.146   7.242  0.4873  0.8489  0.5132
 4924TIP3   OH236330   3.477   1.858   7.071 -0.3320  0.5389 -0.3927
 4924TIP3    H136331   3.506   1.918   7.002 -0.6041  1.1891  0.0483
 4924TIP3    H236332   3.385   1.882   7.086  0.0406  1.2058  1.0059
 4925TIP3   OH236333   2.481   3.984   8.659  0.7807 -0.6640  0.4991
 4925TIP3    H136334   2.481   3.999   8.754 -0.5828  0.4639  0.3598
 4925TIP3    H236335   2.412   3.920   8.645 -0.9040  1.1403  0.0685
 4926TIP3   OH236336   3.644   1.188   7.819  0.1005 -0.1030  0.0120
 4926TIP3    H136337   3.702   1.233   7.879  1.0686  1.8242 -2.2075
 4926TIP3    H236338   3.571   1.248   7.806  0.0480 -0.3446 -0.9369
 4927TIP3   OH236339   1.130   6.529   1.164  0.6863  0.5556 -0.1332
 4927TIP3    H136340   1.102   6.551   1.075 -0.9569 -0.0476  0.1833
 4927TIP3    H236341   1.209   6.477   1.152 -0.1101 -0.4571 -1.3368
 4928TIP3   OH236342   5.387   4.186   0.171  0.0693  0.2603  0.0343
 4928TIP3    H136343   5.452   4.189   0.101  0.5824  0.8072  0.5291
 4928TIP3    H236344   5.437   4.192   0.252 -0.6367  1.4917  0.4072
 4929TIP3   OH236345   3.556   5.002   7.770  0.1941 -0.0350  0.0861
 4929TIP3    H136346   3.510   4.932   7.815  1.0767  1.5524  3.8773
 4929TIP3    H236347   3.487   5.056   7.731 -0.5448 -2.1326 -1.6883
 4930TIP3   OH236348   1.030   3.407   2.088 -0.0375 -0.9205  0.0672
 4930TIP3    H136349   1.004   3.475   2.025 -0.3588 -0.3528  0.8000
 4930TIP3    H236350   0.960   3.342   2.083 -0.4776 -0.4879  0.4021
 4931TIP3   OH236351   4.892   3.022   1.942 -0.3234  0.3364  0.9794
 4931TIP3    H136352   4.852   2.939   1.964 -0.1179  0.4169  1.6659
 4931TIP3    H236353   4.830   3.088   1.972 -1.0573  0.4424 -0.6434
 4932TIP3   OH236354   5.388   6.609   8.194 -0.0229  0.2788 -0.1896
 4932TIP3    H136355   5.436   6.619   8.276 -0.2666  1.1436 -0.1409
 4932TIP3    H236356   5.322   6.542   8.213  0.0496  0.3318  0.2625
 4933TIP3   OH236357   1.828   4.727   1.503  0.3101 -0.8973  0.1893
 4933TIP3    H136358   1.794   4.639   1.520  0.5819 -1.2331 -0.9602
 4933TIP3    H236359   1.864   4.723   1.415  0.4703  0.3318  0.1778
 4934TIP3   OH236360   3.757   6.419   7.057 -0.0620 -0.2907  0.1500
 4934TIP3    H136361   3.678   6.435   7.005  0.4989  2.0124 -0.0915
 4934TIP3    H236362   3.824   6.395   6.993  0.2460  1.0514 -0.0540
 4935TIP3   OH236363   4.554   2.138   8.364 -0.6267 -0.0763  0.2427
 4935TIP3    H136364   4.587   2.173   8.447  0.1872  0.3480 -0.2456
 4935TIP3    H236365   4.475   2.190   8.346 -0.9161 -0.3011  0.8374
 4936TIP3   OH236366   4.817   3.677   0.403 -0.1249 -0.4029 -0.9031
 4936TIP3    H136367   4.883   3.644   0.342  0.4568 -0.9092 -0.0177
 4936TIP3    H236368   4.757   3.604   0.417  0.1282 -0.5104 -0.3516
 4937TIP3   OH236369   6.767   6.367   0.321 -0.6084 -0.0270 -0.0232
 4937TIP3    H136370   6.728   6.386   0.236 -0.5678  1.3560  0.2407
 4937TIP3    H236371   6.749   6.274   0.336 -0.1797 -0.4169 -1.7493
 4938TIP3   OH236372   3.037   5.429   1.482  0.0774  0.6698  0.1071
 4938TIP3    H136373   3.059   5.439   1.390  0.4394 -0.0426  0.1146
 4938TIP3    H236374   3.093   5.491   1.528 -2.4269  3.5509 -0.3975
 4939TIP3   OH236375   0.911   3.498   8.409 -0.0758  0.2999 -0.2189
 4939TIP3    H136376   0.936   3.554   8.482  0.2344 -0.1299  0.0170
 4939TIP3    H236377   0.835   3.450   8.441  1.8269 -2.1547  1.0544
 4940TIP3   OH236378   0.446   6.111   0.266 -0.0386  0.0803 -0.6461
 4940TIP3    H136379   0.445   6.194   0.313 -0.1617  0.2084 -0.8723
 4940TIP3    H236380   0.454   6.136   0.174 -0.8391 -0.1358 -0.7768
 4941TIP3   OH236381   2.669   1.113   0.308 -0.3117 -0.0345 -0.6198
 4941TIP3    H136382   2.677   1.024   0.275  0.0093  0.5176 -2.1136
 4941TIP3    H236383   2.758   1.136   0.336 -0.2102  0.1020 -1.0417
 4942TIP3   OH236384   4.816   0.392   0.189 -0.7818  0.6896  0.4470
 4942TIP3    H136385   4.835   0.479   0.154  1.9241  0.8304  1.9540
 4942TIP3    H236386   4.889   0.338   0.157 -0.2989 -0.0471  2.6400
 4943TIP3   OH236387   3.113   0.297   1.433  0.9026 -0.2259 -0.4473
 4943TIP3    H136388   3.136   0.373   1.380  2.8431 -1.4084 -1.4316
 4943TIP3    H236389   3.191   0.281   1.486  0.0434 -0.7848  0.6878
 4944TIP3   OH236390   5.967   5.578   0.179 -0.6769  0.3591  0.4071
 4944TIP3    H136391   6.026   5.646   0.148 -0.6883  0.5409  0.7747
 4944TIP3    H236392   5.968   5.511   0.110 -0.2235  0.4659  0.3102
 4945TIP3   OH236393   4.686   5.126   2.498 -0.2592  0.0117 -0.3012
 4945TIP3    H136394   4.748   5.094   2.564 -1.3980 -0.3367  0.6326
 4945TIP3    H236395   4.650   5.046   2.459 -1.6420  0.1532  0.6305
 4946TIP3   OH236396   4.286   4.729   1.816  0.5744  0.2355 -0.0243
 4946TIP3    H136397   4.201   4.697   1.787  0.8389  0.1230 -0.6912
 4946TIP3    H236398   4.321   4.659   1.872  0.1879  0.3280  0.3358
 4947TIP3   OH236399   5.736   3.331   0.751 -0.3381  1.0724 -0.4209
 4947TIP3    H136400   5.726   3.239   0.726  1.1546  0.3510  1.3895
 4947TIP3    H236401   5.663   3.376   0.709 -0.4682 -0.7402 -2.2673
 4948TIP3   OH236402   2.897   4.584   1.562 -0.3132 -0.1524  0.3331
 4948TIP3    H136403   2.990   4.583   1.586 -0.4530 -0.9696  0.8562
 4948TIP3    H236404   2.855   4.632   1.634 -0.6042 -1.8079  1.3141
 4949TIP3   OH236405   3.788   6.661   2.421  0.2981  0.1317 -0.0093
 4949TIP3    H136406   3.751   6.574   2.407 -0.2218  0.3214  0.1634
 4949TIP3    H236407   3.738   6.697   2.494  2.3812 -0.5090  1.8885
 4950TIP3   OH236408   4.183   0.173   0.632 -0.6308 -0.1943  0.3238
 4950TIP3    H136409   4.166   0.220   0.713  0.9731  0.5474  0.2778
 4950TIP3    H236410   4.125   0.097   0.636  0.3690 -0.9480  2.8501
 4951TIP3   OH236411   5.780   0.204   1.844 -0.3309 -0.1087  1.1151
 4951TIP3    H136412   5.771   0.209   1.939 -0.7885  0.3625  1.0552
 4951TIP3    H236413   5.865   0.162   1.830 -0.4433 -0.5554  1.7272
 4952TIP3   OH236414   5.002   3.383   8.480 -0.0888  0.0409  0.1239
 4952TIP3    H136415   5.003   3.291   8.509 -0.1635 -0.3844 -1.1245
 4952TIP3    H236416   4.989   3.377   8.385  1.9472  1.2710 -0.2852
 4953TIP3   OH236417   6.280   4.272   0.431  0.0323  0.0153 -0.0046
 4953TIP3    H136418   6.212   4.277   0.364 -0.3412  2.3834  0.4688
 4953TIP3    H236419   6.238   4.228   0.505 -0.3587 -0.2743 -0.3959
 4954TIP3   OH236420   5.711   4.979   2.466 -1.0697 -0.2280  0.0534
 4954TIP3    H136421   5.622   4.943   2.464 -1.1002 -0.1334 -0.3115
 4954TIP3    H236422   5.767   4.907   2.439 -1.0051 -0.3637  0.5275
 4955TIP3   OH236423   2.450   3.069   7.730  0.2067 -0.5878 -0.0644
 4955TIP3    H136424   2.451   3.154   7.687 -1.7462 -0.8621 -0.7598
 4955TIP3    H236425   2.487   3.085   7.817  2.8479  0.2827 -1.2446
 4956TIP3   OH236426   4.944   3.130   7.847 -0.1286 -0.0738 -0.5926
 4956TIP3    H136427   4.852   3.104   7.858 -0.2608 -0.1455 -1.6981
 4956TIP3    H236428   4.952   3.147   7.753  0.2395  2.7508 -0.1454
 4957TIP3   OH236429   2.333   0.569   0.558  0.2316 -0.6844 -0.1737
 4957TIP3    H136430   2.370   0.627   0.491  0.2212 -0.7408 -0.2284
 4957TIP3    H236431   2.381   0.486   0.547  1.6381 -0.1068  1.1733
 4958TIP3   OH236432   0.440   3.493   0.488  0.2912  0.4379  0.1116
 4958TIP3    H136433   0.433   3.405   0.526 -0.3555  0.7790  0.7987
 4958TIP3    H236434   0.510   3.535   0.538  1.6605 -0.1532 -1.2003
 4959TIP3   OH236435   5.252   2.875   2.179 -0.3143 -0.1329 -0.0210
 4959TIP3    H136436   5.186   2.823   2.133  0.2435 -1.4326  0.6004
 4959TIP3    H236437   5.306   2.912   2.110 -0.3935 -0.8349 -0.4706
 4960TIP3   OH236438   6.347   4.267   0.764 -0.4077  0.0717  0.6912
 4960TIP3    H136439   6.364   4.358   0.788  3.0741 -0.5226  1.0535
 4960TIP3    H236440   6.420   4.243   0.707 -0.6286 -2.7721  1.4394
 4961TIP3   OH236441   6.029   1.378   2.387 -0.4172  0.2125  0.1162
 4961TIP3    H136442   5.936   1.364   2.367 -1.0103  2.2139  1.2437
 4961TIP3    H236443   6.061   1.432   2.314 -0.1302 -0.4037 -0.2268
 4962TIP3   OH236444   1.343   5.081   3.115  0.2591 -0.1645 -0.1509
 4962TIP3    H136445   1.318   5.142   3.045  0.1664 -0.3052 -0.2411
 4962TIP3    H236446   1.303   4.998   3.089 -0.0061 -0.1505  0.2128
 4963TIP3   OH236447   1.188   0.631   1.133  0.1457 -0.1091 -0.4107
 4963TIP3    H136448   1.251   0.593   1.193  0.4159 -0.4997 -0.9286
 4963TIP3    H236449   1.238   0.649   1.053 -0.0833  0.9088 -0.3373
 4964TIP3   OH236450   6.573   3.073   0.658 -0.1414 -0.4581  0.1820
 4964TIP3    H136451   6.503   3.067   0.723 -0.4269  0.7989  0.0176
 4964TIP3    H236452   6.653   3.088   0.710 -0.0359 -1.5288  0.3471
 4965TIP3   OH236453   5.818   4.675   2.879 -0.1258 -0.1331  0.9795
 4965TIP3    H136454   5.780   4.733   2.945  0.8518  2.8006 -0.8337
 4965TIP3    H236455   5.896   4.721   2.848 -0.4607 -1.3947 -2.1066
 4966TIP3   OH236456   6.360   6.330   1.259 -0.1156  0.2275  0.0681
 4966TIP3    H136457   6.387   6.400   1.200  1.6578 -0.5636 -0.1358
 4966TIP3    H236458   6.323   6.376   1.335 -2.5235  1.2492 -1.6255
 4967TIP3   OH236459   6.277   0.036   2.136  0.3716  0.4995 -0.0118
 4967TIP3    H136460   6.298  -0.004   2.052 -2.7102  0.8609 -1.0964
 4967TIP3    H236461   6.340  -0.002   2.197  3.2434  0.7932 -2.5345
 4968TIP3   OH236462   3.054   4.397   0.303 -0.0271 -0.4572 -0.6743
 4968TIP3    H136463   3.016   4.433   0.383  1.9600 -0.5755  0.3707
 4968TIP3    H236464   3.054   4.471   0.242 -1.9799 -0.4827 -0.7929
 4969TIP3   OH236465   6.221   0.449   2.934  0.1866  0.2338  0.5913
 4969TIP3    H136466   6.306   0.425   2.971  1.3192  0.5505 -1.6326
 4969TIP3    H236467   6.174   0.491   3.007  1.1314 -1.6686  2.4087
 4970TIP3   OH236468   6.625   5.165   1.882 -0.0367  0.4729  0.1749
 4970TIP3    H136469   6.594   5.156   1.792  1.5613  1.2704 -0.4866
 4970TIP3    H236470   6.598   5.253   1.908 -0.7228  0.1518  0.5956
 4971TIP3   OH236471   1.807   6.093   1.302  0.4594 -0.0356 -0.1823
 4971TIP3    H136472   1.731   6.058   1.348  0.6390 -1.0022 -0.5958
 4971TIP3    H236473   1.794   6.067   1.211  2.0211 -1.5603 -0.0169
 4972TIP3   OH236474   6.719   2.750   8.429  0.2669  0.6166  0.7008
 4972TIP3    H136475   6.677   2.820   8.479 -0.2893 -0.1009  1.2576
 4972TIP3    H236476   6.655   2.727   8.362  0.6137  0.9072  0.2663
 4973TIP3   OH236477   1.886   5.432   7.619  0.2489  0.0704  0.0915
 4973TIP3    H136478   1.952   5.393   7.561 -1.2451 -0.7022 -1.1475
 4973TIP3    H236479   1.883   5.524   7.594  0.7675  0.0943  0.0975
 4974TIP3   OH236480   1.957   5.190   0.739 -0.1134 -0.3978 -0.1716
 4974TIP3    H136481   1.994   5.196   0.827 -0.9732 -0.8483  0.2397
 4974TIP3    H236482   2.030   5.161   0.684  0.0682 -1.6183  0.6768
 4975TIP3   OH236483   6.165   4.370   0.148  0.2737  0.1690  0.8135
 4975TIP3    H136484   6.246   4.406   0.113  0.6315  0.5013  1.9416
 4975TIP3    H236485   6.096   4.410   0.094  0.8229  0.2505  0.1539
 4976TIP3   OH236486   4.148   3.847   0.232  0.2103  0.2989  0.0256
 4976TIP3    H136487   4.118   3.879   0.317 -1.0457 -1.3332  0.2429
 4976TIP3    H236488   4.069   3.844   0.178  1.0615  1.7152 -1.3755
 4977TIP3   OH236489   0.817   6.540   1.129 -0.0768  0.3628 -0.2056
 4977TIP3    H136490   0.851   6.559   1.041  2.4394  0.4323  0.7028
 4977TIP3    H236491   0.780   6.623   1.158  0.9150  0.9220 -0.4615
 4978TIP3   OH236492   2.953   0.642   2.632 -0.2777 -0.1919 -0.1745
 4978TIP3    H136493   2.984   0.555   2.609  0.5338  0.1999 -0.5861
 4978TIP3    H236494   3.016   0.675   2.696 -0.4285  0.1953 -0.2194
 4979TIP3   OH236495   0.368   2.597   8.125  0.0421  0.0874 -0.3871
 4979TIP3    H136496   0.367   2.574   8.218 -2.1374 -2.1246 -0.8530
 4979TIP3    H236497   0.352   2.692   8.124  1.3728  0.3829  1.4694
 4980TIP3   OH236498   4.470   2.690   0.214 -0.2373 -0.5181 -0.4026
 4980TIP3    H136499   4.530   2.701   0.140  0.0214 -1.3009 -0.3181
 4980TIP3    H236500   4.423   2.773   0.219  1.9209  0.7499  0.4723
 4981TIP3   OH236501   1.728   5.256   1.531  0.2979 -0.5117  0.3897
 4981TIP3    H136502   1.760   5.193   1.595  3.3470 -0.0707 -0.5623
 4981TIP3    H236503   1.773   5.337   1.552 -0.8520  0.4237 -0.5854
 4982TIP3   OH236504   5.346   4.642   1.031  0.5920  0.4706 -0.0776
 4982TIP3    H136505   5.263   4.688   1.018  0.9018  0.6605 -1.4917
 4982TIP3    H236506   5.367   4.658   1.123 -0.4762  1.1998  0.0610
 4983TIP3   OH236507   5.079   1.319   8.459  0.8124  0.1125  0.5236
 4983TIP3    H136508   4.986   1.302   8.444  0.8890 -0.9100  1.0970
 4983TIP3    H236509   5.081   1.399   8.510  0.2838  0.5032 -0.0508
 4984TIP3   OH236510   6.430   4.736   1.616 -0.3416  0.0915  0.2186
 4984TIP3    H136511   6.383   4.695   1.688  0.9891  0.3135  1.2717
 4984TIP3    H236512   6.428   4.830   1.636  1.3759  0.0358  0.8798
 4985TIP3   OH236513   0.781   4.027   1.742 -0.2999 -0.7920 -0.5455
 4985TIP3    H136514   0.850   3.967   1.769  1.2804  1.6385  1.2403
 4985TIP3    H236515   0.711   4.012   1.805 -0.5209 -1.6890 -0.9817
 4986TIP3   OH236516   3.652   2.120   1.383  0.7971 -0.4055  0.1100
 4986TIP3    H136517   3.589   2.122   1.455  2.1005 -1.1151  1.3222
 4986TIP3    H236518   3.711   2.194   1.399  1.8320 -1.2862  0.5017
 4987TIP3   OH236519   2.439   6.147   2.148 -0.7350  0.1633  0.4172
 4987TIP3    H136520   2.393   6.107   2.075 -1.0487 -0.2701  0.8490
 4987TIP3    H236521   2.418   6.240   2.142 -0.0623  0.2657 -0.5454
 4988TIP3   OH236522   3.400   1.862   0.286 -0.3313 -0.3725 -0.2925
 4988TIP3    H136523   3.333   1.837   0.222 -0.5890 -0.6126  0.0666
 4988TIP3    H236524   3.406   1.787   0.345 -1.4415  0.5705  1.0752
 4989TIP3   OH236525   3.243   0.234   8.094 -0.4616  0.5490 -0.1320
 4989TIP3    H136526   3.302   0.302   8.063 -1.7549  1.2715 -1.0984
 4989TIP3    H236527   3.300   0.157   8.105  0.8352  1.4890  0.0017
 4990TIP3   OH236528   0.332   2.151   2.969 -0.3707  0.1508 -0.2467
 4990TIP3    H136529   0.307   2.180   3.057 -2.4721  0.8023 -0.9792
 4990TIP3    H236530   0.365   2.230   2.927 -0.1152  0.0228 -0.2862
 4991TIP3   OH236531   0.587   6.557   8.453 -0.2124  0.3298 -0.1703
 4991TIP3    H136532   0.680   6.543   8.438 -0.3843  0.2542 -1.2470
 4991TIP3    H236533   0.561   6.620   8.386 -1.1561 -0.4924 -0.6039
 4992TIP3   OH236534   6.808   0.907   0.579  0.2803  0.0075 -0.3091
 4992TIP3    H136535   6.815   0.958   0.499 -2.5603 -0.4063 -0.9255
 4992TIP3    H236536   6.748   0.958   0.634 -0.4594 -1.3224  0.1563
 4993TIP3   OH236537   5.266   6.317   2.587  0.3417  0.2953  0.0401
 4993TIP3    H136538   5.201   6.357   2.530 -0.9966 -1.2958  0.3653
 4993TIP3    H236539   5.266   6.225   2.562  2.6968  0.2815 -0.1222
 4994TIP3   OH236540   3.373   4.758   0.645  0.3451  0.9159  0.4560
 4994TIP3    H136541   3.311   4.686   0.660 -0.4127  1.6377  0.8315
 4994TIP3    H236542   3.394   4.752   0.552 -0.0175  0.4586  0.3993
 4995TIP3   OH236543   0.160   0.843   2.243 -0.9529  0.5414  0.1110
 4995TIP3    H136544   0.091   0.835   2.310 -2.3393 -2.8893 -1.4356
 4995TIP3    H236545   0.154   0.761   2.194  3.1606  0.8557 -1.2565
 4996TIP3   OH236546   6.374   1.022   0.565 -0.8980  0.6101  0.5918
 4996TIP3    H136547   6.305   1.054   0.508  0.2932  2.7506  0.2405
 4996TIP3    H236548   6.426   0.963   0.510 -2.0814 -0.5878  0.7087
 4997TIP3   OH236549   4.642   3.476   7.227  0.2536  0.2683  0.2897
 4997TIP3    H136550   4.633   3.451   7.135 -0.9028  0.8370  0.2309
 4997TIP3    H236551   4.737   3.484   7.241  0.3957  1.9698 -1.3415
 4998TIP3   OH236552   2.716   1.472   7.018  0.4803 -0.2323  0.2704
 4998TIP3    H136553   2.674   1.445   6.937  0.7529  2.7335 -0.9703
 4998TIP3    H236554   2.644   1.501   7.074  0.4720 -0.1503  0.2169
 4999TIP3   OH236555   3.165   2.068   2.976  0.0252  0.0528 -0.1090
 4999TIP3    H136556   3.225   2.129   3.019 -0.0093  0.3994 -0.5481
 4999TIP3    H236557   3.200   2.059   2.887  0.4358 -1.1163  0.1494
 5000TIP3   OH236558   0.822   3.710   1.983 -0.2765 -0.2206 -0.0807
 5000TIP3    H136559   0.759   3.671   2.043  0.2447  1.7676  1.8785
 5000TIP3    H236560   0.804   3.804   1.987  2.8664  0.4385  0.6726
 5001TIP3   OH236561   5.552   5.009   0.834 -0.1680 -0.7049 -0.1510
 5001TIP3    H136562   5.472   5.052   0.865  0.2291  0.8949 -1.2242
 5001TIP3    H236563   5.528   4.916   0.830 -2.0611 -0.2532 -0.6760
 5002TIP3   OH236564   1.188   1.663   1.782  0.3480  0.4696  0.9643
 5002TIP3    H136565   1.199   1.575   1.747 -1.1602 -0.6795  3.0964
 5002TIP3    H236566   1.263   1.675   1.840  0.1041  0.1986  1.3447
 5003TIP3   OH236567   6.796   4.652   7.348  0.0855  0.2429  0.4109
 5003TIP3    H136568   6.813   4.588   7.279  0.1963  0.0267  0.6376
 5003TIP3    H236569   6.879   4.660   7.395 -0.9518 -2.6938  3.1237
 5004TIP3   OH236570   3.311   0.336   7.087 -0.2805  0.0054 -0.0810
 5004TIP3    H136571   3.336   0.418   7.043 -0.2753  0.4977  0.8256
 5004TIP3    H236572   3.248   0.296   7.027 -0.7009  0.9429 -0.2856
 5005TIP3   OH236573   1.805   0.662   2.216 -0.3724  0.0493 -0.1979
 5005TIP3    H136574   1.861   0.660   2.294 -0.4836  1.1212 -0.0755
 5005TIP3    H236575   1.837   0.589   2.162 -1.4322 -1.8294  1.5949
 5006TIP3   OH236576   0.396   5.718   2.056  0.3236 -0.2042 -0.1167
 5006TIP3    H136577   0.438   5.771   2.124 -0.3925 -1.4985  1.4094
 5006TIP3    H236578   0.314   5.689   2.096  0.5374 -2.1640 -0.9890
 5007TIP3   OH236579   3.551   6.725   1.816  0.4800 -0.2795 -0.0019
 5007TIP3    H136580   3.491   6.684   1.878  0.8596 -1.0064 -0.0995
 5007TIP3    H236581   3.519   6.815   1.806 -0.5910 -0.6571 -0.0665
 5008TIP3   OH236582   4.829   4.727   1.104  0.4547 -0.2984 -0.0932
 5008TIP3    H136583   4.739   4.723   1.137  0.6104 -0.9499  0.2888
 5008TIP3    H236584   4.863   4.810   1.136  0.5519 -0.8430  1.3080
 5009TIP3   OH236585   1.277   5.334   8.222  0.1882 -0.4710  0.0523
 5009TIP3    H136586   1.331   5.309   8.147 -0.1233  1.9103 -1.0678
 5009TIP3    H236587   1.340   5.353   8.292  0.5930 -0.9084 -0.1885
 5010TIP3   OH236588   1.832   3.580   2.774 -0.3199 -0.0774 -0.0665
 5010TIP3    H136589   1.758   3.527   2.803 -0.2564 -0.5818 -0.7974
 5010TIP3    H236590   1.894   3.577   2.847 -0.3504 -0.9498 -0.0644
 5011TIP3   OH236591   5.234   1.404   0.597  0.2577 -0.1415 -0.2645
 5011TIP3    H136592   5.183   1.485   0.595  1.8330  0.8889 -0.6051
 5011TIP3    H236593   5.171   1.336   0.620 -1.4174  0.9488 -1.4461
 5012TIP3   OH236594   6.301   4.787   8.227 -0.2361  0.4023 -0.0731
 5012TIP3    H136595   6.209   4.814   8.233 -0.6200 -0.6638 -0.8027
 5012TIP3    H236596   6.345   4.861   8.184 -0.7381  0.9489  0.3467
 5013TIP3   OH236597   2.912   2.863   2.811  0.1003 -0.3884  0.5113
 5013TIP3    H136598   2.952   2.869   2.898  1.4231  0.9828 -0.1502
 5013TIP3    H236599   2.845   2.931   2.811 -0.1969 -0.6753  0.5813
 5014TIP3   OH236600   0.878   3.519   0.860  0.4416  0.4865  0.3438
 5014TIP3    H136601   0.871   3.495   0.952  0.7525 -1.4071 -0.0844
 5014TIP3    H236602   0.848   3.441   0.812 -0.0699  1.5511 -1.1585
 5015TIP3   OH236603   1.338   6.128   2.055 -0.3548  0.1876  0.0130
 5015TIP3    H136604   1.308   6.161   2.140  0.2334 -1.5827  0.9648
 5015TIP3    H236605   1.408   6.189   2.029  0.4307 -0.0170  1.5024
 5016TIP3   OH236606   1.549   4.341   8.420  0.3032  0.4267  0.5035
 5016TIP3    H136607   1.613   4.410   8.436  2.6901 -1.3359 -0.8085
 5016TIP3    H236608   1.570   4.273   8.484 -0.3607 -0.1048  0.1721
 5017TIP3   OH236609   3.914   6.634   0.824  0.4766  0.0277  0.1635
 5017TIP3    H136610   3.994   6.612   0.871 -0.3121  1.1500  2.1518
 5017TIP3    H236611   3.851   6.657   0.892 -1.2963  0.0112 -1.3756
 5018TIP3   OH236612   4.573   0.603   8.544 -0.6632  0.4391 -0.1046
 5018TIP3    H136613   4.525   0.627   8.464  1.6151  0.2184 -1.6452
 5018TIP3    H236614   4.560   0.509   8.553 -0.9773  0.4749 -0.1652
 5019TIP3   OH236615   2.524   0.487   1.797 -1.0569 -0.2643  0.4693
 5019TIP3    H136616   2.472   0.427   1.851 -0.3471 -1.5330 -0.2047
 5019TIP3    H236617   2.614   0.456   1.806  0.1487  3.2864  3.4986
 5020TIP3   OH236618   3.945   4.139   0.208 -0.0149  0.2172 -0.6841
 5020TIP3    H136619   3.964   4.103   0.295  0.8846  1.0369 -0.5254
 5020TIP3    H236620   3.937   4.062   0.152  2.1371 -0.2648 -0.4061
 5021TIP3   OH236621   5.122   0.002   2.085  0.4259 -0.2816 -0.7148
 5021TIP3    H136622   5.104  -0.074   2.029 -2.9443 -0.3016  0.1664
 5021TIP3    H236623   5.052   0.064   2.064 -0.2755  0.2117  2.5034
 5022TIP3   OH236624   5.289   0.933   2.119  0.2469  0.5225 -0.0231
 5022TIP3    H136625   5.247   0.853   2.152  0.5975 -0.6759 -2.2858
 5022TIP3    H236626   5.380   0.926   2.149  0.4388 -0.2965 -0.7388
 5023TIP3   OH236627   6.620   0.230   8.123  0.0196 -0.4139  0.3406
 5023TIP3    H136628   6.595   0.255   8.213  1.6108 -0.2032  0.7597
 5023TIP3    H236629   6.538   0.206   8.081 -0.8079 -0.1818  1.7568
 5024TIP3   OH236630   2.646   2.529   2.709  0.6942  0.4399 -0.3142
 5024TIP3    H136631   2.733   2.521   2.748  1.8676 -2.4296 -3.1465
 5024TIP3    H236632   2.612   2.440   2.707 -3.1780  1.5860  2.1144
 5025TIP3   OH236633   5.153   5.049   3.026  0.1679  0.6655 -0.6423
 5025TIP3    H136634   5.157   4.986   3.098  2.3193 -0.0822 -1.3322
 5025TIP3    H236635   5.166   5.134   3.068  0.3342  0.3417 -0.0175
 5026TIP3   OH236636   0.714   6.078   0.357 -0.1109  0.1083  0.1781
 5026TIP3    H136637   0.686   6.054   0.445  0.5497 -2.2176 -0.1934
 5026TIP3    H236638   0.632   6.095   0.310 -0.4404  2.1081  1.3780
 5027TIP3   OH236639   1.703   3.376   2.285 -0.0403 -0.6119 -0.3256
 5027TIP3    H136640   1.717   3.306   2.222  0.3574 -0.2522 -0.6459
 5027TIP3    H236641   1.790   3.415   2.297 -0.1391 -0.5896  0.3408
 5028TIP3   OH236642   6.415   4.519   0.852 -0.2550  0.0012  0.0101
 5028TIP3    H136643   6.408   4.610   0.826  0.2096  0.1421  0.3382
 5028TIP3    H236644   6.510   4.503   0.856 -0.3303 -0.4207  0.1855
 5029TIP3   OH236645   3.107   1.484   0.691 -0.2234  0.0614  0.6361
 5029TIP3    H136646   3.021   1.483   0.733 -0.2792 -0.8242  0.5112
 5029TIP3    H236647   3.165   1.521   0.757 -0.7146  0.7991  0.6730
 5030TIP3   OH236648   6.128   3.131   1.982  0.0468  0.2060 -0.2255
 5030TIP3    H136649   6.205   3.170   1.942 -0.5305  2.3929  0.6736
 5030TIP3    H236650   6.152   3.120   2.075  0.0268 -1.2171 -0.3590
 5031TIP3   OH236651   4.147   3.329   8.784  0.3885  0.1692 -0.3550
 5031TIP3    H136652   4.169   3.383   8.860  2.9710  2.0936 -2.2856
 5031TIP3    H236653   4.232   3.305   8.747 -0.7863 -1.0125 -2.4239
 5032TIP3   OH236654   0.079   6.020   0.736 -0.0950  0.0981 -0.3782
 5032TIP3    H136655   0.142   6.048   0.670  0.4940  0.3714  0.2985
 5032TIP3    H236656   0.104   5.930   0.756  0.3682  0.3536  0.2174
 5033TIP3   OH236657   6.208   6.111   7.148  0.1546 -0.2294  0.1555
 5033TIP3    H136658   6.136   6.050   7.162 -0.9397  1.1216  0.5743
 5033TIP3    H236659   6.170   6.184   7.100  1.7470 -0.4413 -1.5562
 5034TIP3   OH236660   4.861   0.623   0.944  0.0491  0.5683  0.6214
 5034TIP3    H136661   4.892   0.602   0.856 -2.2478  1.1737 -0.3964
 5034TIP3    H236662   4.940   0.625   0.997  1.5155  0.2863 -1.4338
 5035TIP3   OH236663   4.337   5.902   8.077  0.0249  0.2386  0.4922
 5035TIP3    H136664   4.379   5.816   8.088  2.3599  0.8485 -2.5201
 5035TIP3    H236665   4.343   5.920   7.983 -2.3234  2.8082  0.7214
 5036TIP3   OH236666   5.460   5.747   8.102  0.3958 -0.2231 -0.9480
 5036TIP3    H136667   5.459   5.653   8.086 -0.0134 -0.4942  0.5413
 5036TIP3    H236668   5.502   5.757   8.188 -1.1417  0.7980 -0.2638
 5037TIP3   OH236669   5.158   5.136   1.319  0.1173 -0.1679  0.3826
 5037TIP3    H136670   5.249   5.127   1.346  0.8928  0.6384 -1.7543
 5037TIP3    H236671   5.162   5.178   1.233 -2.1663 -2.0756 -0.7843
 5038TIP3   OH236672   0.961   0.198   0.604  0.6696  0.1072 -0.0536
 5038TIP3    H136673   0.873   0.184   0.569  1.0915  1.9947 -2.0932
 5038TIP3    H236674   0.951   0.185   0.698 -1.8503  0.4856 -0.1936
 5039TIP3   OH236675   1.546   5.587   2.984 -0.2411  0.0061  0.1444
 5039TIP3    H136676   1.597   5.566   3.063 -1.2365  2.2839  1.5228
 5039TIP3    H236677   1.471   5.528   2.987 -0.3513  0.1759  1.0249
 5040TIP3   OH236678   6.133   2.502   8.485 -0.2472  0.5859 -0.0442
 5040TIP3    H136679   6.191   2.439   8.444 -2.3151 -1.0389 -0.6736
 5040TIP3    H236680   6.156   2.500   8.578  1.7208  1.2170 -0.4835
 5041TIP3   OH236681   6.149   0.043   8.723 -0.3856  0.2588  0.1210
 5041TIP3    H136682   6.210  -0.012   8.674  0.2825 -0.0079  1.1920
 5041TIP3    H236683   6.076  -0.016   8.745 -1.6736  0.8728 -2.1653
 5042TIP3   OH236684   3.910   3.601   8.229  0.3076  0.5665  0.0233
 5042TIP3    H136685   3.873   3.602   8.317 -2.2329  0.4592 -0.9582
 5042TIP3    H236686   3.988   3.546   8.237 -0.0755  0.2304  2.1137
 5043TIP3   OH236687   3.722   4.630   0.390 -0.3105  0.0821 -0.2238
 5043TIP3    H136688   3.739   4.648   0.482  0.8180 -1.1038 -0.1642
 5043TIP3    H236689   3.784   4.686   0.343  1.0671 -1.2919 -0.1356
 5044TIP3   OH236690   4.116   5.505   8.791  0.2280  0.2764 -0.8079
 5044TIP3    H136691   4.061   5.566   8.839  1.5217  0.5809  0.3223
 5044TIP3    H236692   4.198   5.552   8.776  0.9761 -0.9022 -0.5636
 5045TIP3   OH236693   2.697   5.296   0.095 -0.0954  0.3671 -0.3651
 5045TIP3    H136694   2.627   5.332   0.149 -0.2573  0.5216 -0.6741
 5045TIP3    H236695   2.698   5.352   0.017  0.0466  0.0622 -0.5841
 5046TIP3   OH236696   5.941   4.537   0.509 -0.3552  0.2520 -0.2721
 5046TIP3    H136697   5.931   4.453   0.555 -3.4740  1.7366  2.1679
 5046TIP3    H236698   6.018   4.578   0.549  0.8202 -1.1134 -1.0503
 5047TIP3   OH236699   4.638   1.283   0.264  0.1290 -0.5626 -0.9142
 5047TIP3    H136700   4.643   1.329   0.348  1.0161  1.8670 -2.1842
 5047TIP3    H236701   4.727   1.254   0.247  0.2179  0.0754 -1.5761
 5048TIP3   OH236702   5.144   1.716   6.949 -0.3719  0.8257 -0.2013
 5048TIP3    H136703   5.081   1.659   6.992  0.9138 -0.8304 -0.4138
 5048TIP3    H236704   5.181   1.663   6.878  0.2323  2.2249 -0.9874
 5049TIP3   OH236705   2.733   4.770   0.410  0.1691  0.1083 -0.1631
 5049TIP3    H136706   2.756   4.789   0.501  3.0535 -0.6981 -0.6119
 5049TIP3    H236707   2.726   4.855   0.368 -0.2612  0.4585  0.6011
 5050TIP3   OH236708   6.697   6.364   7.624  0.7088 -0.2412 -0.2933
 5050TIP3    H136709   6.731   6.275   7.636  0.1399 -0.4338 -0.0645
 5050TIP3    H236710   6.703   6.379   7.529  0.0019 -0.8685 -0.4588
 5051TIP3   OH236711   2.280   2.179   7.459  0.5156  0.4714 -1.0200
 5051TIP3    H136712   2.216   2.167   7.530  1.9541 -0.0192  0.2432
 5051TIP3    H236713   2.279   2.273   7.442 -0.8641  0.4203 -1.3478
 5052TIP3   OH236714   3.609   6.713   2.600  0.7229 -0.0024 -0.3374
 5052TIP3    H136715   3.678   6.766   2.642  0.3876  0.8144 -0.8098
 5052TIP3    H236716   3.528   6.743   2.640  0.5240 -0.1209 -0.6493
 5053TIP3   OH236717   4.287   4.576   2.982 -0.2594  0.9293 -0.6401
 5053TIP3    H136718   4.268   4.560   3.075 -0.4358  0.1085 -0.8051
 5053TIP3    H236719   4.201   4.593   2.943 -0.2898  0.4371 -0.7978
 5054TIP3   OH236720   5.873   1.744   1.184  0.6884  0.1419  0.0944
 5054TIP3    H136721   5.891   1.657   1.149  2.2502  0.1656  0.7779
 5054TIP3    H236722   5.946   1.763   1.241 -0.2483  1.4112  0.9324
 5055TIP3   OH236723   0.957   0.474   1.029  0.2233 -0.2345 -0.4999
 5055TIP3    H136724   1.023   0.532   0.989  2.7756 -1.9996  0.8867
 5055TIP3    H236725   0.975   0.478   1.123 -0.8777 -1.7007 -0.1935
 5056TIP3   OH236726   0.160   3.341   2.204  0.0148 -0.1283  0.1477
 5056TIP3    H136727   0.176   3.260   2.155  0.9459  0.6978 -0.9363
 5056TIP3    H236728   0.126   3.310   2.288  0.7780 -1.6732 -0.0635
 5057TIP3   OH236729   0.923   3.412   8.024 -0.0719 -0.1436  0.0303
 5057TIP3    H136730   0.878   3.369   7.951  0.6283  1.1615 -1.2257
 5057TIP3    H236731   0.869   3.488   8.044  0.4226  0.2249 -0.0199
 5058TIP3   OH236732   0.206   4.309   0.584 -0.1808  0.1543 -0.3182
 5058TIP3    H136733   0.155   4.254   0.524  0.3362  0.0187 -0.6395
 5058TIP3    H236734   0.285   4.258   0.601  1.6038  1.9196 -2.7570
 5059TIP3   OH236735   0.872   2.640   0.059 -0.5567 -0.3812 -0.2332
 5059TIP3    H136736   0.852   2.710   0.121 -1.9621 -0.7223 -0.2706
 5059TIP3    H236737   0.790   2.592   0.050  0.8117 -3.2448  1.2831
 5060TIP3   OH236738   1.450   4.546   8.784  0.0361  0.0220  0.2520
 5060TIP3    H136739   1.367   4.504   8.804 -0.6482  1.4829  0.5739
 5060TIP3    H236740   1.444   4.568   8.691 -0.2304  0.7200  0.4255
 5061TIP3   OH236741   1.390   4.380   0.887 -0.0128  0.2942 -0.3455
 5061TIP3    H136742   1.483   4.365   0.900 -0.4734 -1.2085  1.7546
 5061TIP3    H236743   1.360   4.306   0.834 -0.2116  0.0689  0.0700
 5062TIP3   OH236744   5.203   5.883   8.104  0.1047 -0.2836 -0.2388
 5062TIP3    H136745   5.193   5.935   8.024  1.7475 -0.4990 -0.6253
 5062TIP3    H236746   5.296   5.861   8.106 -0.5683 -3.5871 -0.3130
 5063TIP3   OH236747   5.469   6.362   2.322 -0.6451  0.4431  0.7041
 5063TIP3    H136748   5.530   6.295   2.290 -1.7080 -0.8990  1.3480
 5063TIP3    H236749   5.523   6.439   2.337  0.9679 -0.7907  1.5376
 5064TIP3   OH236750   5.526   1.776   8.425 -0.5871  0.1978 -0.2262
 5064TIP3    H136751   5.524   1.862   8.383 -1.0436  1.2872  1.8596
 5064TIP3    H236752   5.475   1.719   8.367  2.9870  0.1775 -3.7652
 5065TIP3   OH236753   4.151   0.528   1.077  0.1410  0.1984  0.1549
 5065TIP3    H136754   4.096   0.507   1.153 -0.1392 -0.0561 -0.1143
 5065TIP3    H236755   4.101   0.595   1.029  0.1087  0.0350 -0.0404
 5066TIP3   OH236756   2.039   4.551   8.729  0.1556  0.1362 -0.2387
 5066TIP3    H136757   2.028   4.553   8.634  0.9234 -0.7623 -0.3558
 5066TIP3    H236758   1.951   4.567   8.763 -0.7323 -2.3149 -1.1200
 5067TIP3   OH236759   1.460   1.693   8.521  0.4322  0.0935  0.0621
 5067TIP3    H136760   1.521   1.731   8.458  0.4895  0.4494  0.3264
 5067TIP3    H236761   1.517   1.648   8.584  0.4086  0.2209  0.1747
 5068TIP3   OH236762   5.288   3.415   0.849  0.2826 -0.6322 -0.2038
 5068TIP3    H136763   5.272   3.452   0.936  0.9953  1.2995 -0.8400
 5068TIP3    H236764   5.201   3.396   0.814 -0.0317 -0.9081  0.6951
 5069TIP3   OH236765   1.380   4.203   0.527 -0.0551 -0.4489  0.0488
 5069TIP3    H136766   1.467   4.190   0.490 -0.0533  1.6577 -0.8598
 5069TIP3    H236767   1.329   4.238   0.454 -1.8726 -2.2498  0.3868
 5070TIP3   OH236768   5.460   4.545   0.518  0.4028 -0.2444  0.2228
 5070TIP3    H136769   5.374   4.568   0.552 -0.7978 -2.1006 -1.3741
 5070TIP3    H236770   5.509   4.512   0.594 -0.9527 -0.9395  0.8177
 5071TIP3   OH236771   5.060   6.393   2.355 -0.0874  0.5705 -0.0590
 5071TIP3    H136772   5.069   6.444   2.275  1.9780 -0.1960 -0.3665
 5071TIP3    H236773   5.046   6.458   2.424  1.1228  1.4595 -0.6306
 5072TIP3   OH236774   4.394   4.695   0.477 -0.0418  0.1710  0.1387
 5072TIP3    H136775   4.331   4.655   0.537 -1.5671  0.2521 -1.3012
 5072TIP3    H236776   4.476   4.696   0.524 -0.5750 -2.1459  1.2439
 5073TIP3   OH236777   2.842   2.094   2.190  0.0667 -0.0405 -0.0443
 5073TIP3    H136778   2.925   2.057   2.161 -0.0297 -1.3952  1.2713
 5073TIP3    H236779   2.864   2.180   2.224  1.0223 -0.5453  0.6737
 5074TIP3   OH236780   4.378   5.192   1.923 -0.0832 -0.3038 -0.1713
 5074TIP3    H136781   4.338   5.187   1.836  2.2837  1.5485 -1.5011
 5074TIP3    H236782   4.398   5.102   1.946  0.4872 -0.7403 -2.2150
 5075TIP3   OH236783   2.322   3.087   0.468 -0.0584 -0.5051  0.2393
 5075TIP3    H136784   2.253   3.021   0.479 -0.2969 -0.4617 -0.8391
 5075TIP3    H236785   2.357   3.070   0.381  0.0535  0.6220  0.0457
 5076TIP3   OH236786   1.219   6.426   7.569 -0.1650  0.4647  0.1619
 5076TIP3    H136787   1.157   6.481   7.617  1.8689  1.2429  2.0665
 5076TIP3    H236788   1.198   6.442   7.477 -3.7833 -0.5479  0.6475
 5077TIP3   OH236789   2.486   6.465   1.181  0.4883 -0.1893 -0.0834
 5077TIP3    H136790   2.476   6.560   1.174  0.4054 -0.0682  1.4479
 5077TIP3    H236791   2.408   6.436   1.228  0.6834 -0.9727 -0.2369
 5078TIP3   OH236792   4.894   3.414   7.326 -0.1829  0.0728 -0.6217
 5078TIP3    H136793   4.932   3.404   7.239 -0.2100 -0.9477 -0.5255
 5078TIP3    H236794   4.870   3.325   7.352  2.6816 -0.1485  1.7569
 5079TIP3   OH236795   0.338   1.846   1.927 -0.2263 -0.3070  1.1600
 5079TIP3    H136796   0.318   1.938   1.907 -0.5932 -0.4866  0.6766
 5079TIP3    H236797   0.409   1.824   1.867 -1.5015 -0.9235 -0.1891
 5080TIP3   OH236798   4.430   6.308   7.897  0.4694 -0.7647 -0.1090
 5080TIP3    H136799   4.513   6.298   7.850  1.2943  1.2292  0.8044
 5080TIP3    H236800   4.443   6.263   7.980  0.9930  0.3017  0.4030
 5081TIP3   OH236801   1.696   1.260   8.623  0.1522 -0.3214 -0.2557
 5081TIP3    H136802   1.615   1.211   8.638  1.3875 -2.6404 -0.8341
 5081TIP3    H236803   1.700   1.322   8.695 -1.3669 -1.2204  0.6431
 5082TIP3   OH236804   1.925   2.149   1.126  0.2348 -0.3407 -0.1938
 5082TIP3    H136805   1.977   2.072   1.103 -0.2073 -0.4617 -0.8098
 5082TIP3    H236806   1.951   2.170   1.216 -0.9530 -2.2912  0.6624
 5083TIP3   OH236807   5.439   6.788   0.862  0.3445 -0.1303  0.1278
 5083TIP3    H136808   5.404   6.790   0.773  1.0364 -0.7558 -0.1694
 5083TIP3    H236809   5.432   6.696   0.888 -0.5841  0.1733  1.0244
 5084TIP3   OH236810   4.837   2.211   7.458  0.0067  0.3240 -0.7592
 5084TIP3    H136811   4.746   2.226   7.435  0.2340  0.4729 -1.6026
 5084TIP3    H236812   4.886   2.243   7.382  0.7257 -0.3683 -0.5916
 5085TIP3   OH236813   0.415   1.615   3.037  0.3881 -0.3946 -0.1732
 5085TIP3    H136814   0.382   1.705   3.029 -0.2397 -0.6759 -0.7827
 5085TIP3    H236815   0.378   1.583   3.119  0.2481 -0.2503 -0.1797
 5086TIP3   OH236816   4.381   4.484   1.944  0.5844 -0.3820 -0.4900
 5086TIP3    H136817   4.378   4.403   1.995  2.1979  0.1361  0.5390
 5086TIP3    H236818   4.464   4.525   1.970  1.9660 -0.4630 -4.1848
 5087TIP3   OH236819   2.178   5.703   0.352 -0.7514 -0.3899  0.9818
 5087TIP3    H136820   2.268   5.731   0.366 -0.8226  0.2862  0.2100
 5087TIP3    H236821   2.147   5.676   0.438 -0.0819  0.1786  1.4131
 5088TIP3   OH236822   1.242   3.361   8.776  0.0982 -0.5522  0.4620
 5088TIP3    H136823   1.296   3.302   8.723  1.0055  0.1242  0.6019
 5088TIP3    H236824   1.152   3.340   8.752  0.4695 -0.6837 -0.8939
 5089TIP3   OH236825   1.032   4.776   0.688  0.3777 -0.8018  0.4418
 5089TIP3    H136826   1.095   4.728   0.741 -0.4265 -0.8238  1.4032
 5089TIP3    H236827   1.040   4.737   0.601  2.1496 -0.3471  0.3651
 5090TIP3   OH236828   2.874   2.243   7.758 -0.0166  0.2092  0.1152
 5090TIP3    H136829   2.805   2.177   7.763  0.1641  0.1016  2.2888
 5090TIP3    H236830   2.900   2.257   7.850  3.0198  0.0522 -0.6190
 5091TIP3   OH236831   1.609   5.947   8.549 -0.1653  0.4786 -0.1275
 5091TIP3    H136832   1.668   5.917   8.479 -0.7118  0.4307 -0.5735
 5091TIP3    H236833   1.572   5.866   8.585 -0.3162  0.5351 -0.1587
 5092TIP3   OH236834   5.129   4.158   0.293 -0.4567 -0.1100 -0.4062
 5092TIP3    H136835   5.212   4.154   0.246 -0.0764 -0.5741  0.2720
 5092TIP3    H236836   5.155   4.167   0.385 -0.9833 -3.6860  0.2622
 5093TIP3   OH236837   2.700   6.009   1.450 -0.0322  0.0300  0.0981
 5093TIP3    H136838   2.656   5.982   1.531 -0.6909  0.0926 -0.2290
 5093TIP3    H236839   2.784   6.045   1.478 -1.3339  2.5706  1.0210
 5094TIP3   OH236840   3.645   2.168   0.791 -0.4033  0.0743 -0.2602
 5094TIP3    H136841   3.650   2.263   0.804  0.0595 -0.0874  0.9262
 5094TIP3    H236842   3.565   2.142   0.836 -0.0891 -0.1884  0.1619
 5095TIP3   OH236843   2.305   4.163   2.157 -0.0481 -0.2590 -0.6366
 5095TIP3    H136844   2.252   4.087   2.179  0.7680 -1.4605 -2.5641
 5095TIP3    H236845   2.317   4.210   2.240 -1.6654 -1.5080  0.3359
 5096TIP3   OH236846   4.825   2.423   8.171 -0.1202  0.6784 -0.2204
 5096TIP3    H136847   4.734   2.451   8.172 -0.4534 -0.2557 -1.7694
 5096TIP3    H236848   4.851   2.424   8.263 -2.4724 -1.4901  0.5715
 5097TIP3   OH236849   1.919   4.675   1.969 -0.6480  0.3413 -0.2887
 5097TIP3    H136850   1.836   4.723   1.962  0.4673  2.3426 -0.3308
 5097TIP3    H236851   1.907   4.600   1.910 -1.8995  1.3766 -1.4378
 5098TIP3   OH236852   5.923   5.239   8.392 -0.7132  0.0348  0.2158
 5098TIP3    H136853   5.994   5.209   8.448 -0.1002 -0.3005 -0.7138
 5098TIP3    H236854   5.847   5.187   8.419 -0.0251 -1.2991 -0.3550
 5099TIP3   OH236855   0.550   4.680   2.481 -0.3825 -0.1555 -0.3005
 5099TIP3    H136856   0.639   4.675   2.518 -0.2064  0.9661 -0.5371
 5099TIP3    H236857   0.520   4.589   2.480  0.4477 -0.4650  0.5539
 5100TIP3   OH236858   6.211   3.266   8.348  0.1595 -0.0416 -0.3254
 5100TIP3    H136859   6.225   3.198   8.414  1.8441 -1.3378 -1.9125
 5100TIP3    H236860   6.166   3.221   8.277  3.0026 -0.1212 -2.2295
 5101TIP3   OH236861   4.259   0.699   2.137  0.3939  0.1763 -0.4949
 5101TIP3    H136862   4.239   0.720   2.228 -0.1060  0.6492 -0.7022
 5101TIP3    H236863   4.225   0.611   2.124  0.9091 -0.0831 -0.0921
 5102TIP3   OH236864   4.324   6.307   0.988 -0.7973 -0.3894  0.7548
 5102TIP3    H136865   4.343   6.233   0.930 -0.4237  0.5699 -0.3953
 5102TIP3    H236866   4.370   6.286   1.069 -0.3187 -1.2089  0.2870
 5103TIP3   OH236867   5.836   5.824   7.934  0.3597 -0.5366  0.4664
 5103TIP3    H136868   5.888   5.798   7.857 -0.3848  0.8355 -0.5542
 5103TIP3    H236869   5.748   5.839   7.899 -0.0659 -0.1512  1.6493
 5104TIP3   OH236870   4.176   1.880   0.781 -0.0654 -0.1775 -0.4249
 5104TIP3    H136871   4.134   1.794   0.778  0.5189 -0.4415 -2.1531
 5104TIP3    H236872   4.106   1.940   0.807 -0.8108 -0.9985 -0.4916
 5105TIP3   OH236873   5.168   5.684   1.028  0.1978 -0.5216  0.2341
 5105TIP3    H136874   5.228   5.701   1.101 -0.2925 -0.8953  0.7347
 5105TIP3    H236875   5.221   5.636   0.964  0.1505 -1.8522  1.1608
 5106TIP3   OH236876   5.531   4.576   8.610 -0.2966 -0.1338  1.0143
 5106TIP3    H136877   5.465   4.535   8.665  1.4157 -0.2025  3.1414
 5106TIP3    H236878   5.556   4.507   8.548 -0.2486 -1.0218  2.0001
 5107TIP3   OH236879   3.202   4.866   1.428  0.2429 -0.2375  0.4199
 5107TIP3    H136880   3.119   4.859   1.473 -0.3989  1.7023 -0.3639
 5107TIP3    H236881   3.268   4.842   1.494 -0.8889 -1.9301  1.0066
 5108TIP3   OH236882   6.657   4.254   2.098  0.4085  0.0624  0.1964
 5108TIP3    H136883   6.740   4.286   2.135  1.5516 -0.0958 -2.0671
 5108TIP3    H236884   6.628   4.187   2.160  2.1142 -0.0402  0.9508
 5109TIP3   OH236885   3.346   4.347   0.399  0.6597  0.3344  0.4465
 5109TIP3    H136886   3.279   4.362   0.332  1.7746 -0.7348 -0.9695
 5109TIP3    H236887   3.356   4.252   0.403  2.9418  0.4867 -0.2921
 5110TIP3   OH236888   2.476   3.209   6.777  0.0778  0.7662 -0.5435
 5110TIP3    H136889   2.450   3.302   6.774  0.0093  0.7637 -0.1502
 5110TIP3    H236890   2.459   3.183   6.868  0.2731  0.4179 -0.6059
 5111TIP3   OH236891   4.267   1.009   7.813  0.0911  0.0183  0.9307
 5111TIP3    H136892   4.190   0.966   7.851 -1.2085 -3.3423 -4.4294
 5111TIP3    H236893   4.341   0.960   7.848 -0.7363 -0.9298  1.4078
 5112TIP3   OH236894   4.662   0.095   0.718  0.1910  0.2400 -0.0999
 5112TIP3    H136895   4.718   0.048   0.780  0.3244 -0.0111 -0.4065
 5112TIP3    H236896   4.577   0.052   0.726  0.7084 -1.1629 -1.5455
 5113TIP3   OH236897   1.937   1.809   0.488  0.1253  0.0849  0.5898
 5113TIP3    H136898   1.952   1.862   0.566  2.0852  0.1885  0.1789
 5113TIP3    H236899   2.016   1.821   0.435  0.8737 -3.5167  0.6609
 5114TIP3   OH236900   4.336   0.765   0.320  0.6196 -0.2019 -0.5482
 5114TIP3    H136901   4.328   0.799   0.231  1.2885  0.9424 -0.1935
 5114TIP3    H236902   4.428   0.781   0.344 -0.2571  2.4994  1.4785
 5115TIP3   OH236903   0.620   6.588   7.797  0.1405  0.1764 -0.4124
 5115TIP3    H136904   0.550   6.591   7.863  2.3500  0.5845  2.0488
 5115TIP3    H236905   0.573   6.594   7.714 -2.8691 -1.0875  1.0035
 5116TIP3   OH236906   1.550   2.580   7.768  0.0514 -0.2059  0.0449
 5116TIP3    H136907   1.547   2.566   7.673 -1.5981  2.2375 -0.3456
 5116TIP3    H236908   1.460   2.566   7.798  0.2160  0.6527  0.9928
 5117TIP3   OH236909   2.882   0.113   1.437 -0.3039 -0.1346 -0.1370
 5117TIP3    H136910   2.964   0.155   1.411 -0.6812  1.2941  0.8399
 5117TIP3    H236911   2.907   0.054   1.508  0.3520 -2.2746 -2.0127
 5118TIP3   OH236912   0.843   3.203   8.332 -0.1675  0.1151  0.0714
 5118TIP3    H136913   0.899   3.145   8.383  0.2734  0.8387  0.4344
 5118TIP3    H236914   0.899   3.278   8.312 -0.5539  0.1691 -0.8671
 5119TIP3   OH236915   2.310   5.077   1.280  0.2506 -0.0251 -0.1624
 5119TIP3    H136916   2.271   5.005   1.232 -0.0478 -0.7259  1.0753
 5119TIP3    H236917   2.262   5.079   1.363  0.2947  1.5602 -0.1434
 5120TIP3   OH236918   4.550   0.517   7.930  0.2806 -0.3642  0.1213
 5120TIP3    H136919   4.585   0.500   7.842 -1.0639  0.3259 -0.5812
 5120TIP3    H236920   4.513   0.433   7.957 -0.6157 -0.2350 -0.6235
 5121TIP3   OH236921   0.101   3.674   7.645  0.2314  0.2128  0.2673
 5121TIP3    H136922   0.148   3.600   7.607 -0.0852 -0.3830  1.0248
 5121TIP3    H236923   0.037   3.699   7.578  0.8189  0.2718 -0.2827
 5122TIP3   OH236924   5.698   4.795   7.277 -0.8719 -0.2682  0.6569
 5122TIP3    H136925   5.648   4.716   7.256  0.2088 -0.8480  0.1160
 5122TIP3    H236926   5.783   4.780   7.235  0.2882  0.0062  2.7640
 5123TIP3   OH236927   1.696   0.488   1.607 -0.3537 -0.2796 -0.4566
 5123TIP3    H136928   1.753   0.431   1.555  1.7600  0.2264  1.1930
 5123TIP3    H236929   1.711   0.576   1.571  1.4655  0.1424  1.1913
 5124TIP3   OH236930   2.099   1.482   1.790  0.4925  0.1230  0.0876
 5124TIP3    H136931   2.186   1.474   1.754  0.0557 -1.6437 -0.6678
 5124TIP3    H236932   2.106   1.553   1.855  2.3069  0.4090 -0.3790
 5125TIP3   OH236933   2.240   0.209   8.343 -0.4493  0.5160 -0.2570
 5125TIP3    H136934   2.243   0.115   8.326 -2.3207  0.8838 -3.3846
 5125TIP3    H236935   2.315   0.245   8.296 -0.7899  0.7615 -0.6163
 5126TIP3   OH236936   0.343   3.432   1.261  0.3874  0.0046  0.1924
 5126TIP3    H136937   0.392   3.513   1.280 -0.9672  1.2104 -1.1609
 5126TIP3    H236938   0.332   3.433   1.166 -2.1188 -0.2669  0.4135
 5127TIP3   OH236939   6.816   5.872   8.059 -0.0604  0.3491  0.2036
 5127TIP3    H136940   6.737   5.894   8.108 -2.3946 -0.7595 -2.7711
 5127TIP3    H236941   6.859   5.957   8.044  0.3850  0.7951  3.3102
 5128TIP3   OH236942   0.684   0.105   0.639 -0.1700  0.0095  0.7871
 5128TIP3    H136943   0.618   0.159   0.596 -0.7509 -1.3884 -0.1337
 5128TIP3    H236944   0.639   0.064   0.713 -0.4910 -1.2654 -0.0797
 5129TIP3   OH236945   3.234   6.291   2.964 -0.3061 -0.1259  0.2128
 5129TIP3    H136946   3.224   6.210   2.915 -2.0647 -0.2963  0.7855
 5129TIP3    H236947   3.152   6.339   2.948  0.6165  1.4760  0.0196
 5130TIP3   OH236948   6.512   1.633   1.388  0.0896 -0.5395  0.2010
 5130TIP3    H136949   6.480   1.645   1.477  0.8999 -0.0491  0.4289
 5130TIP3    H236950   6.606   1.620   1.397  0.3395  0.5218 -0.6587
 5131TIP3   OH236951   6.174   0.528   7.037 -0.8826  0.0626 -0.2049
 5131TIP3    H136952   6.169   0.583   7.115 -2.3223 -1.5134  0.9134
 5131TIP3    H236953   6.202   0.587   6.967 -1.5716  2.0060  1.0758
 5132TIP3   OH236954   0.403   1.571   2.316 -0.3970 -0.6120  0.3878
 5132TIP3    H136955   0.469   1.559   2.247 -1.7706  1.4383 -1.4106
 5132TIP3    H236956   0.320   1.550   2.273 -1.1968 -0.3003  1.7477
 5133TIP3   OH236957   5.971   0.933   7.085 -0.0107 -0.7610  0.1551
 5133TIP3    H136958   5.955   1.023   7.111 -0.5438 -0.9356  0.4490
 5133TIP3    H236959   6.067   0.926   7.079  0.2007 -0.8629  2.6725
 5134TIP3   OH236960   0.201   5.915   1.459 -0.4965  0.5632  0.1918
 5134TIP3    H136961   0.133   5.864   1.503 -0.2569  0.4000  0.3793
 5134TIP3    H236962   0.186   6.005   1.487 -0.5113  0.4983  0.3927
 5135TIP3   OH236963   6.048   1.878   7.995 -0.0253 -0.0071 -0.1924
 5135TIP3    H136964   6.052   1.845   7.905 -0.5362  0.9090 -0.5546
 5135TIP3    H236965   6.140   1.886   8.021  0.1453 -2.1439  0.0888
 5136TIP3   OH236966   0.638   0.083   3.030 -0.3485 -0.4126 -0.0140
 5136TIP3    H136967   0.683   0.001   3.051  0.4168  0.1765  0.6904
 5136TIP3    H236968   0.705   0.151   3.039 -0.8119  0.2387 -1.2086
 5137TIP3   OH236969   5.983   3.310   1.144 -0.0699  0.4605 -0.0552
 5137TIP3    H136970   5.987   3.294   1.050 -2.0007  2.0263 -0.4546
 5137TIP3    H236971   6.062   3.362   1.162  2.5248 -3.1123  0.0476
 5138TIP3   OH236972   1.809   1.238   1.490  0.3122  0.1246 -0.4582
 5138TIP3    H136973   1.839   1.325   1.466  0.6084  0.0711 -0.2859
 5138TIP3    H236974   1.889   1.186   1.499  0.1170 -0.2957 -1.0557
 5139TIP3   OH236975   1.566   4.637   0.562  0.1529  0.0042 -0.4538
 5139TIP3    H136976   1.489   4.693   0.573 -0.5265 -0.9954  0.0367
 5139TIP3    H236977   1.565   4.612   0.470  0.3357  0.6171 -0.6238
 5140TIP3   OH236978   4.157   0.231   8.414  0.4610 -0.3158  0.0276
 5140TIP3    H136979   4.176   0.151   8.463  1.9462 -0.5506 -0.8519
 5140TIP3    H236980   4.156   0.300   8.479  5.5039 -0.0955  0.2938
 5141TIP3   OH236981   0.002   6.658   0.155 -0.3532  0.4154 -0.3067
 5141TIP3    H136982  -0.019   6.742   0.194  0.8393  0.1895  0.8813
 5141TIP3    H236983  -0.008   6.595   0.227 -0.6273 -0.3834 -1.0230
 5142TIP3   OH236984   3.917   0.818   2.238 -0.2143  0.1128 -0.0802
 5142TIP3    H136985   3.981   0.888   2.224 -1.6912  1.2251 -1.7610
 5142TIP3    H236986   3.900   0.819   2.332  1.2746  0.6194  0.2138
 5143TIP3   OH236987   2.555   5.105   7.771 -0.5888 -0.2466 -0.4908
 5143TIP3    H136988   2.612   5.077   7.843 -1.6570 -1.1292  0.0357
 5143TIP3    H236989   2.545   5.199   7.783 -0.7716 -0.3920  0.5264
 5144TIP3   OH236990   3.728   3.541   8.784 -0.2915 -0.0421 -0.0832
 5144TIP3    H136991   3.779   3.464   8.760  0.6891  0.2601  0.9351
 5144TIP3    H236992   3.674   3.559   8.707  2.2487  0.5685 -1.8590
 5145TIP3   OH236993   4.050   5.912   3.060  0.1717  0.3544 -0.2630
 5145TIP3    H136994   3.961   5.919   3.092 -0.2016 -0.6189 -1.0280
 5145TIP3    H236995   4.043   5.922   2.965  0.3745 -2.9782 -0.7476
 5146TIP3   OH236996   3.661   6.140   0.289 -0.0985 -0.0225  0.4336
 5146TIP3    H136997   3.672   6.095   0.373  0.2824 -1.6851 -0.4810
 5146TIP3    H236998   3.655   6.070   0.224  1.6186  1.2372 -1.1924
 5147TIP3   OH236999   6.630   1.300   1.670 -0.0381  0.0322  0.3222
 5147TIP3    H137000   6.618   1.379   1.618  1.9980 -0.1492 -0.5354
 5147TIP3    H237001   6.724   1.298   1.689 -0.0973 -1.9788  0.6485
 5148TIP3   OH237002   3.158   5.637   0.632 -0.3842  0.0868 -0.0019
 5148TIP3    H137003   3.196   5.562   0.586 -1.1314  0.0275 -0.5402
 5148TIP3    H237004   3.215   5.650   0.708  0.5794 -0.1310 -0.6690
 5149TIP3   OH237005   5.188   2.986   8.347 -0.3167 -0.0965 -0.2806
 5149TIP3    H137006   5.209   3.023   8.261 -1.3215  0.3763 -0.3336
 5149TIP3    H237007   5.094   2.996   8.355  0.0002  2.1272  1.8841
 5150TIP3   OH237008   0.465   1.949   8.705  0.4975  0.7272 -0.0564
 5150TIP3    H137009   0.495   1.895   8.631  0.8707  1.5914 -0.5565
 5150TIP3    H237010   0.417   2.020   8.664  0.5882  1.1417  0.5451
 5151TIP3   OH237011   4.812   6.502   8.333  0.1423 -0.1476  0.2935
 5151TIP3    H137012   4.746   6.475   8.269 -0.2526 -0.9116  1.0021
 5151TIP3    H237013   4.767   6.497   8.417  0.9452 -0.1492  0.7349
 5152TIP3   OH237014   5.658   3.874   7.598  0.1601 -0.6977  0.4695
 5152TIP3    H137015   5.604   3.949   7.572  2.3142  0.4849 -0.9580
 5152TIP3    H237016   5.639   3.806   7.534  0.8167 -0.0363 -0.4519
 5153TIP3   OH237017   1.697   3.033   0.943  0.1703 -0.0150 -0.2870
 5153TIP3    H137018   1.604   3.057   0.933  0.2594 -0.2810 -1.8686
 5153TIP3    H237019   1.723   3.001   0.858  1.5831 -0.5164  0.3117
 5154TIP3   OH237020   3.540   5.291   2.230  0.1303  0.2470 -0.4842
 5154TIP3    H137021   3.523   5.206   2.190 -1.6151 -0.1489  0.9757
 5154TIP3    H237022   3.454   5.328   2.246  0.7279  0.7828  1.9672
 5155TIP3   OH237023   4.163   6.049   2.427  0.3410  0.3633  0.2953
 5155TIP3    H137024   4.158   6.040   2.522  1.1284 -2.5040  0.1550
 5155TIP3    H237025   4.118   5.972   2.392  1.6136  0.3999 -1.5977
 5156TIP3   OH237026   6.111   2.897   7.085 -0.1947 -0.0344  0.1374
 5156TIP3    H137027   6.158   2.814   7.085  1.7404  1.0067 -0.1208
 5156TIP3    H237028   6.105   2.922   6.993 -0.3600  0.3391  0.2459
 5157TIP3   OH237029   2.333   0.912   0.074 -0.6931  0.1986  0.1358
 5157TIP3    H137030   2.426   0.909   0.052 -0.9513  1.1306 -1.2298
 5157TIP3    H237031   2.289   0.871  -0.001 -1.3922 -0.2428  0.7722
 5158TIP3   OH237032   6.599   4.205   8.555 -0.4801 -0.0393 -0.5664
 5158TIP3    H137033   6.535   4.146   8.516 -1.9865  0.8455  0.4634
 5158TIP3    H237034   6.588   4.288   8.508  1.3186 -0.3849 -1.7118
 5159TIP3   OH237035   3.707   3.225   7.562 -0.8346  0.2774  0.0768
 5159TIP3    H137036   3.628   3.176   7.540 -0.9073 -1.1889  3.0366
 5159TIP3    H237037   3.765   3.213   7.486 -1.8782 -2.2402 -0.4320
 5160TIP3   OH237038   4.013   4.469   2.078  0.0425 -0.2926  0.0910
 5160TIP3    H137039   4.047   4.558   2.084  0.4230 -0.5047  1.3664
 5160TIP3    H237040   4.074   4.416   2.130 -1.3607 -0.9411  1.1170
 5161TIP3   OH237041   5.356   1.134   0.287 -0.2638  0.3474  0.1532
 5161TIP3    H137042   5.417   1.102   0.220  0.5694  2.2639 -0.0666
 5161TIP3    H237043   5.411   1.147   0.365 -0.5329  1.2968  0.2009
 5162TIP3   OH237044   1.902   1.253   0.955  0.4787  0.0065  0.3971
 5162TIP3    H137045   1.833   1.289   1.011 -0.5703 -0.4732 -0.5387
 5162TIP3    H237046   1.958   1.328   0.935 -0.4150  0.6599  0.2735
 5163TIP3   OH237047   2.858   0.828   0.492 -0.5772 -0.0453 -0.7786
 5163TIP3    H137048   2.817   0.871   0.417 -1.1104  1.0352  0.1089
 5163TIP3    H237049   2.784   0.801   0.547 -0.1828 -0.6774 -0.5443
 5164TIP3   OH237050   0.344   2.793   0.660  0.2022 -0.0091 -0.2914
 5164TIP3    H137051   0.342   2.700   0.638 -0.2589 -0.6978  2.3828
 5164TIP3    H237052   0.404   2.799   0.735  1.7459  2.1724 -1.5573
 5165TIP3   OH237053   6.654   3.031   1.283  0.1257 -0.3457  0.3515
 5165TIP3    H137054   6.602   2.991   1.213  1.4364 -1.8823  0.2011
 5165TIP3    H237055   6.647   2.969   1.356 -1.5922  1.4488  1.8081
 5166TIP3   OH237056   6.797   3.344   6.948  0.3893 -0.6998 -0.0338
 5166TIP3    H137057   6.837   3.390   7.021 -1.7160  0.0243  0.7277
 5166TIP3    H237058   6.735   3.284   6.989 -0.0885 -1.0188 -1.1905
 5167TIP3   OH237059   3.697   2.748   1.431  0.4154 -0.0394  0.5423
 5167TIP3    H137060   3.792   2.737   1.429  0.1307 -5.0920  1.6324
 5167TIP3    H237061   3.679   2.792   1.514  1.7070  1.3649  0.1217
 5168TIP3   OH237062   6.110   4.162   2.313  0.5313  0.3734 -0.2646
 5168TIP3    H137063   6.058   4.236   2.283 -0.9791 -0.5178  0.0871
 5168TIP3    H237064   6.131   4.182   2.404  1.1457  0.9018 -0.5125
 5169TIP3   OH237065   5.799   0.321   7.346  0.3067  0.3385  0.3377
 5169TIP3    H137066   5.732   0.362   7.401  1.1120  1.1492  0.7338
 5169TIP3    H237067   5.847   0.394   7.307 -0.4476 -0.2067 -1.7494
 5170TIP3   OH237068   2.841   4.457   8.619  0.4660  0.5192  0.3560
 5170TIP3    H137069   2.845   4.473   8.713  1.6591  1.9019  0.1095
 5170TIP3    H237070   2.921   4.496   8.584  0.9319 -1.5037 -1.0438
 5171TIP3   OH237071   4.934   2.014   8.588  0.1687 -0.0002 -0.3101
 5171TIP3    H137072   4.992   2.084   8.619  0.2893  0.7355 -2.1010
 5171TIP3    H237073   4.848   2.056   8.581  0.1357 -0.1633 -0.9059
 5172TIP3   OH237074   1.197   4.815   7.545  0.0286 -0.0857  0.3246
 5172TIP3    H137075   1.137   4.742   7.555  1.3687 -1.3732 -0.5624
 5172TIP3    H237076   1.254   4.789   7.472  0.7462  1.7075  0.1961
 5173TIP3   OH237077   6.417   0.526   1.001 -0.6745 -0.6244  0.4723
 5173TIP3    H137078   6.343   0.587   1.012 -0.1175  0.1132  0.1730
 5173TIP3    H237079   6.448   0.512   1.090  0.7778  1.5483  0.3903
 5174TIP3   OH237080   4.560   4.044   2.271  0.3371  0.5286  0.2633
 5174TIP3    H137081   4.526   4.048   2.181  0.3424  1.2004  0.2860
 5174TIP3    H237082   4.483   4.055   2.326  0.3138 -0.0254  0.3514
 5175TIP3   OH237083   1.003   5.078   1.705  0.2259 -0.0009 -0.2956
 5175TIP3    H137084   0.926   5.134   1.698  1.3399  1.7012  0.4102
 5175TIP3    H237085   1.042   5.079   1.617  0.0245  0.0236 -0.3836
 5176TIP3   OH237086   0.098   4.095   0.420 -0.2623  0.2544 -0.0869
 5176TIP3    H137087   0.018   4.046   0.401  0.6506 -1.3581  0.0286
 5176TIP3    H237088   0.157   4.074   0.348  1.0823 -1.0207  1.3124
 5177TIP3   OH237089   0.072   0.815   0.963 -0.0212  0.5411  0.3414
 5177TIP3    H137090  -0.013   0.859   0.976 -1.2735 -0.5127 -3.1527
 5177TIP3    H237091   0.123   0.878   0.912  0.6435  0.4490  0.8840
 5178TIP3   OH237092   2.873   2.427   1.974 -0.5838  0.2573  0.1436
 5178TIP3    H137093   2.853   2.456   2.063  0.7418 -0.5809  0.7449
 5178TIP3    H237094   2.963   2.396   1.979 -0.5595  0.0133 -1.4590
 5179TIP3   OH237095   1.312   2.438   1.380 -0.2236  0.3338  0.4003
 5179TIP3    H137096   1.344   2.527   1.396 -1.1605  0.5305  1.2535
 5179TIP3    H237097   1.224   2.450   1.345  0.1311 -0.2378 -0.7166
 5180TIP3   OH237098   1.800   2.314   7.880 -0.0795  0.1867 -0.5554
 5180TIP3    H137099   1.790   2.347   7.970  2.8086 -3.0271  1.1940
 5180TIP3    H237100   1.884   2.348   7.851  1.5620 -2.8999  0.1798
 5181TIP3   OH237101   2.607   5.666   1.919 -0.1420  0.5924 -0.3236
 5181TIP3    H137102   2.580   5.626   2.001 -0.6289  1.7881  0.1255
 5181TIP3    H237103   2.637   5.593   1.865 -0.3860 -0.2793  0.6891
 5182TIP3   OH237104   2.168   2.034   2.492 -0.5940  0.3366  0.2463
 5182TIP3    H137105   2.220   1.955   2.477 -0.2511  0.5922  0.0449
 5182TIP3    H237106   2.146   2.032   2.585  0.4693  0.6212  0.5247
 5183TIP3   OH237107   2.099   2.879   7.991 -0.0037  0.9159  0.3604
 5183TIP3    H137108   2.138   2.920   7.913 -1.8742  1.6300 -0.2620
 5183TIP3    H237109   2.121   2.786   7.982  0.9930  1.1909 -0.2728
 5184TIP3   OH237110   3.044   2.714   0.457 -0.3292  0.5691  0.2304
 5184TIP3    H137111   2.984   2.711   0.531  1.7358 -0.4533  1.9966
 5184TIP3    H237112   3.123   2.670   0.488  0.4997 -0.3537 -2.7734
 5185TIP3   OH237113   3.446   4.337   1.755  0.0363 -0.5095 -0.2489
 5185TIP3    H137114   3.356   4.320   1.781 -0.3312 -1.2602 -1.8562
 5185TIP3    H237115   3.458   4.431   1.771 -0.5541 -0.6578  1.2604
 5186TIP3   OH237116   4.783   0.831   0.621 -0.4542 -0.0472  0.0153
 5186TIP3    H137117   4.776   0.850   0.715  2.8760 -2.5844  0.9394
 5186TIP3    H237118   4.866   0.870   0.595 -0.7155 -0.5026 -1.5807
 5187TIP3   OH237119   0.285   0.595   7.131  0.3155  0.6310 -0.3174
 5187TIP3    H137120   0.296   0.521   7.191 -1.5430  0.1014 -0.5720
 5187TIP3    H237121   0.211   0.644   7.166  0.1173  1.1108 -1.3666
 5188TIP3   OH237122   1.900   3.864   7.799 -0.0782 -0.3245 -0.4675
 5188TIP3    H137123   1.857   3.788   7.838  3.4519 -1.3661  1.9673
 5188TIP3    H237124   1.936   3.832   7.717  1.1460 -1.3079  0.4137
 5189TIP3   OH237125   5.117   5.441   1.843 -0.4541 -0.4373 -0.1770
 5189TIP3    H137126   5.137   5.356   1.884  0.0227 -0.1136  0.2758
 5189TIP3    H237127   5.037   5.471   1.886 -0.2433 -0.3407  0.1484
 5190TIP3   OH237128   6.559   0.799   7.944 -0.4682  0.5289 -0.8081
 5190TIP3    H137129   6.529   0.728   8.002 -1.2367  0.4372 -1.3124
 5190TIP3    H237130   6.643   0.826   7.982 -0.7068  0.1169  0.0512
 5191TIP3   OH237131   6.193   2.279   8.355  0.7420  0.4230 -0.0437
 5191TIP3    H137132   6.199   2.235   8.270 -1.2975 -0.7503  0.3487
 5191TIP3    H237133   6.166   2.210   8.416 -0.3088  1.7255  1.0539
 5192TIP3   OH237134   5.228   0.442   7.382  0.0834 -0.0348  0.0191
 5192TIP3    H137135   5.149   0.390   7.395  0.4140 -0.0628  2.5532
 5192TIP3    H237136   5.247   0.435   7.289 -1.6652 -1.8238 -0.2673
 5193TIP3   OH237137   0.492   0.724   2.089  0.1270  0.0270 -0.7322
 5193TIP3    H137138   0.409   0.726   2.042 -1.8290 -1.2282  2.3506
 5193TIP3    H237139   0.500   0.811   2.128 -0.3082 -0.1610 -0.2071
 5194TIP3   OH237140   1.402   5.873   7.760 -0.1866 -0.0431  0.3791
 5194TIP3    H137141   1.449   5.834   7.686 -1.0928  1.3935 -1.0277
 5194TIP3    H237142   1.468   5.927   7.804  0.0617  0.1210 -0.1772
 5195TIP3   OH237143   2.352   4.418   7.567 -0.0358  0.0093 -0.5961
 5195TIP3    H137144   2.288   4.471   7.519 -0.1235  0.1669 -0.3065
 5195TIP3    H237145   2.302   4.342   7.599 -0.1210  0.2237 -0.2151
 5196TIP3   OH237146   0.687   4.346   0.524 -0.2384 -0.1922  0.0486
 5196TIP3    H137147   0.725   4.264   0.557 -0.4772 -0.2338  0.2212
 5196TIP3    H237148   0.726   4.357   0.437 -0.3410 -0.5844 -0.0524
 5197TIP3   OH237149   4.877   1.572   1.461  0.4010 -0.0707  0.7632
 5197TIP3    H137150   4.804   1.607   1.514  1.9985 -0.3032  3.2987
 5197TIP3    H237151   4.954   1.621   1.491  1.8607 -2.2432  0.7708
 5198TIP3   OH237152   2.575   2.413   2.360  0.2858  0.5218 -0.2168
 5198TIP3    H137153   2.636   2.483   2.338  0.8778  0.3777  0.8848
 5198TIP3    H237154   2.603   2.383   2.447  0.4758 -1.5395 -0.9245
 5199TIP3   OH237155   5.737   4.185   1.536  0.1001 -0.0975 -0.3594
 5199TIP3    H137156   5.672   4.125   1.498 -0.7690  0.4891  0.1515
 5199TIP3    H237157   5.696   4.271   1.529  0.4657  0.1793  0.7553
 5200TIP3   OH237158   6.217   1.019   1.269  0.0531  0.2025 -0.0326
 5200TIP3    H137159   6.308   1.045   1.258  0.3568 -0.2002  1.4019
 5200TIP3    H237160   6.214   0.975   1.354 -0.9229 -2.1810 -1.1800
 5201TIP3   OH237161   5.522   6.271   1.021 -0.0253 -0.6232  0.1767
 5201TIP3    H137162   5.483   6.184   1.013  0.8049 -1.0729  0.7736
 5201TIP3    H237163   5.598   6.258   1.078  0.1262  0.4931  0.2626
 5202TIP3   OH237164   3.917   6.743   2.195  0.0492  0.2450 -0.0606
 5202TIP3    H137165   3.862   6.710   2.266 -0.3238 -2.3157 -1.4094
 5202TIP3    H237166   3.997   6.772   2.239 -0.8103  0.3334  1.5490
 5203TIP3   OH237167   1.307   3.166   7.581  0.4292 -0.0431  0.2517
 5203TIP3    H137168   1.300   3.071   7.576 -1.1421  0.0775 -0.4617
 5203TIP3    H237169   1.370   3.189   7.512  1.3064 -0.5809  0.8463
 5204TIP3   OH237170   3.931   4.062   7.962  0.0682  0.1860 -0.4617
 5204TIP3    H137171   3.910   3.980   8.007 -1.0173  0.6907 -0.0045
 5204TIP3    H237172   4.011   4.044   7.914  0.2063 -0.9432  0.1718
 5205TIP3   OH237173   5.730   0.698   0.724  0.8128  0.0156 -0.3453
 5205TIP3    H137174   5.641   0.662   0.728  0.2245  1.1224 -2.2581
 5205TIP3    H237175   5.750   0.701   0.630  2.7582  0.0851  0.0432
 5206TIP3   OH237176   5.783   4.095   8.627  0.4000 -0.2216 -0.1348
 5206TIP3    H137177   5.850   4.101   8.695  0.6157  0.7708 -0.4303
 5206TIP3    H237178   5.828   4.122   8.547 -0.7398  2.0950 -0.0682
 5207TIP3   OH237179   1.978   4.326   1.073  0.0659 -0.4749  0.2531
 5207TIP3    H137180   2.073   4.312   1.067 -0.0740 -1.4339  0.1997
 5207TIP3    H237181   1.952   4.345   0.983  0.5269  2.1207  0.5768
 5208TIP3   OH237182   0.878   0.733   8.033  0.3037 -0.2164 -0.1357
 5208TIP3    H137183   0.841   0.706   7.949  1.3801  3.4314 -1.9834
 5208TIP3    H237184   0.963   0.689   8.036 -0.3218 -1.4883 -0.2096
 5209TIP3   OH237185   5.431   0.221   7.355 -0.5544 -0.2049 -0.3763
 5209TIP3    H137186   5.364   0.232   7.287 -1.5283 -2.7960  0.0320
 5209TIP3    H237187   5.486   0.149   7.322  0.4166  0.1084  0.5161
 5210TIP3   OH237188   5.206   5.698   1.863 -0.2057  0.4029 -0.7544
 5210TIP3    H137189   5.184   5.609   1.887  1.3778 -0.3755 -1.9566
 5210TIP3    H237190   5.175   5.707   1.773 -1.2303  1.4269 -0.3260
 5211TIP3   OH237191   2.000   2.880   1.444 -0.0714 -0.3182  0.5232
 5211TIP3    H137192   2.077   2.932   1.421 -0.7939  0.2262 -0.7941
 5211TIP3    H237193   1.958   2.861   1.360 -1.7247 -0.0553  1.2438
 5212TIP3   OH237194   6.464   6.614   8.167  0.1753 -0.0557  0.5747
 5212TIP3    H137195   6.450   6.530   8.210  0.7514  0.5568  2.0412
 5212TIP3    H237196   6.458   6.678   8.237 -0.0347  1.1219 -0.4773
 5213TIP3   OH237197   2.529   2.712   1.342  0.2996 -0.4030  0.2013
 5213TIP3    H137198   2.500   2.621   1.336  0.9768 -0.5700 -0.9070
 5213TIP3    H237199   2.519   2.735   1.435 -2.3883 -0.7421  0.0830
 5214TIP3   OH237200   0.741   0.006   0.311 -0.3245 -0.7935  0.1572
 5214TIP3    H137201   0.745  -0.023   0.220  0.5688  0.4728 -0.2428
 5214TIP3    H237202   0.658  -0.028   0.343  0.2153 -2.9313 -0.5217
 5215TIP3   OH237203   2.255   2.927   2.152 -0.1061  0.4805 -0.0951
 5215TIP3    H137204   2.294   2.898   2.069  0.4610 -0.5341  0.5018
 5215TIP3    H237205   2.217   2.847   2.189 -0.0899  0.8681  0.7728
 5216TIP3   OH237206   2.854   6.579   0.090 -1.1255  0.7349  0.2142
 5216TIP3    H137207   2.865   6.512   0.023 -0.3503  0.0809  0.9597
 5216TIP3    H237208   2.937   6.627   0.089 -1.7155  1.7583 -0.3821
 5217TIP3   OH237209   5.337   3.664   7.095  0.2410  0.4618 -0.3000
 5217TIP3    H137210   5.251   3.703   7.110  1.0729  2.3731 -0.3221
 5217TIP3    H237211   5.359   3.623   7.179  0.4622  2.3166  0.5844
 5218TIP3   OH237212   5.876   5.350   8.721  0.1964  0.0452 -0.3835
 5218TIP3    H137213   5.921   5.366   8.638 -0.3809  1.4873 -0.4642
 5218TIP3    H237214   5.824   5.430   8.734 -0.7210 -0.7163  0.7177
 5219TIP3   OH237215   1.915   0.010   2.111 -0.2079  0.3929  0.2562
 5219TIP3    H137216   1.948  -0.075   2.141  1.3624  0.2982 -1.5481
 5219TIP3    H237217   1.845  -0.011   2.050  0.2768  0.3683 -0.3004
 5220TIP3   OH237218   2.563   5.121   7.142 -0.1345  0.3442  0.4157
 5220TIP3    H137219   2.566   5.082   7.054  1.7504  0.8956  0.1947
 5220TIP3    H237220   2.538   5.049   7.199  1.8433 -0.8730 -0.1729
 5221TIP3   OH237221   1.820   6.524   8.510 -0.0350 -0.5490 -0.2820
 5221TIP3    H137222   1.804   6.501   8.418  1.3295 -0.9233 -0.4522
 5221TIP3    H237223   1.916   6.526   8.518 -0.1262 -1.2687  1.3241
 5222TIP3   OH237224   6.707   2.141   1.857  0.3877 -0.0955  0.0010
 5222TIP3    H137225   6.687   2.196   1.933 -1.4764 -0.6850 -0.0128
 5222TIP3    H237226   6.740   2.202   1.791 -0.7476  0.8855  0.3006
 5223TIP3   OH237227   5.226   6.253   0.076  0.3519 -0.1727 -0.4233
 5223TIP3    H137228   5.285   6.297   0.137  0.8729 -1.5120  0.0635
 5223TIP3    H237229   5.186   6.183   0.127  1.2691 -1.7359 -1.7481
 5224TIP3   OH237230   2.408   5.615   8.431 -0.2362 -0.1625  0.6392
 5224TIP3    H137231   2.470   5.543   8.443  0.2773 -0.0076 -0.8297
 5224TIP3    H237232   2.373   5.631   8.518 -0.2315 -2.0570  1.0331
 5225TIP3   OH237233   5.523   4.169   6.655 -0.1014 -0.0149  0.6644
 5225TIP3    H137234   5.604   4.197   6.697  0.1472 -1.6723  1.3950
 5225TIP3    H237235   5.518   4.075   6.673 -1.4677 -0.2267 -0.5950
 5226TIP3   OH237236   3.208   6.238   8.710 -0.4439 -0.1146  0.5208
 5226TIP3    H137237   3.291   6.206   8.675 -0.5273  0.8636 -0.6197
 5226TIP3    H237238   3.143   6.212   8.645 -0.9867 -0.5359  1.2193
 5227TIP3   OH237239   2.582   6.234   8.482 -0.2196  0.4544 -0.2602
 5227TIP3    H137240   2.498   6.251   8.525 -1.0478 -1.4367 -1.0242
 5227TIP3    H237241   2.640   6.302   8.515 -1.8832  1.4351  0.7701
 5228TIP3   OH237242   6.082   1.385   8.153 -0.1525 -0.5997 -0.3374
 5228TIP3    H137243   6.059   1.470   8.191  0.5985 -0.5106 -0.0772
 5228TIP3    H237244   6.024   1.323   8.197 -0.3783 -0.2870 -0.1882
 5229TIP3   OH237245   3.556   5.070   7.385  0.0456  0.4200  0.7628
 5229TIP3    H137246   3.556   5.128   7.461 -1.8416 -0.0921  1.2113
 5229TIP3    H237247   3.551   5.129   7.310 -0.0448  0.8873  1.1291
 5230TIP3   OH237248   6.266   4.620   1.794  0.3745 -0.0337 -0.1337
 5230TIP3    H137249   6.207   4.695   1.797 -0.2062 -0.4148 -1.3941
 5230TIP3    H237250   6.224   4.554   1.849 -0.2469 -0.1976 -0.7859
 5231TIP3   OH237251   6.496   6.270   0.789  0.1693  0.2309 -0.3691
 5231TIP3    H137252   6.578   6.228   0.818  0.3106  2.2192  2.5368
 5231TIP3    H237253   6.430   6.237   0.850 -0.6037  0.8795 -0.8418
 5232TIP3   OH237254   2.576   6.319   7.683  0.1547 -0.2218 -0.0106
 5232TIP3    H137255   2.654   6.275   7.648  1.5252  0.7709  1.6284
 5232TIP3    H237256   2.600   6.340   7.774 -2.1004 -0.0119  0.5823
 5233TIP3   OH237257   1.982   3.743   1.126  0.5691 -1.0237 -0.0840
 5233TIP3    H137258   1.913   3.768   1.188 -0.1843 -0.2067 -1.2164
 5233TIP3    H237259   2.016   3.661   1.162 -0.7711 -1.2847  0.6942
 5234TIP3   OH237260   4.944   5.590   7.328 -0.7017  0.6279 -0.0334
 5234TIP3    H137261   4.925   5.531   7.255  0.4458 -2.6546  2.0923
 5234TIP3    H237262   5.039   5.601   7.327 -0.5227 -0.4267  1.5589
 5235TIP3   OH237263   6.060   4.624   8.338  0.0692  0.1590 -0.1268
 5235TIP3    H137264   6.102   4.686   8.397  1.1707 -0.8055  0.1607
 5235TIP3    H237265   6.133   4.578   8.296 -0.5539  1.9611 -3.6081
 5236TIP3   OH237266   5.629   0.956   1.500 -0.0552  0.0921 -0.4521
 5236TIP3    H137267   5.585   1.002   1.429 -3.2110  0.0331  1.2255
 5236TIP3    H237268   5.659   0.873   1.462  0.9007  1.2381 -2.2756
 5237TIP3   OH237269   5.585   4.903   0.101 -0.2729  0.4145 -0.0813
 5237TIP3    H137270   5.539   4.976   0.060 -0.9264  1.0680  1.6891
 5237TIP3    H237271   5.536   4.826   0.075 -0.2501  0.7159 -1.0673
 5238TIP3   OH237272   3.726   4.117   8.484 -0.6036 -0.1486 -0.0202
 5238TIP3    H137273   3.706   4.102   8.392  2.3046 -1.4581 -0.5576
 5238TIP3    H237274   3.820   4.134   8.486 -0.3560 -1.2791  2.8072
 5239TIP3   OH237275   0.719   4.881   8.516 -0.2772 -0.1977 -0.0345
 5239TIP3    H137276   0.662   4.913   8.586 -0.7837 -0.0680 -0.5002
 5239TIP3    H237277   0.675   4.801   8.485 -0.4693  0.1666 -0.7201
 5240TIP3   OH237278   1.152   6.072   3.059  0.0425 -0.2313  0.6584
 5240TIP3    H137279   1.087   6.067   3.130 -0.2387  0.2500  0.4359
 5240TIP3    H237280   1.198   6.154   3.075 -0.3493  0.1207  0.0056
 5241TIP3   OH237281   4.418   2.172   2.342  0.2526 -1.0765 -0.1124
 5241TIP3    H137282   4.445   2.264   2.337 -0.3996 -0.9029 -0.4977
 5241TIP3    H237283   4.483   2.132   2.400 -0.4333 -0.0106  1.4951
 5242TIP3   OH237284   2.372   1.819   7.781 -0.3835 -0.1607  0.2270
 5242TIP3    H137285   2.284   1.789   7.758 -0.5189  0.4792 -0.0947
 5242TIP3    H237286   2.422   1.812   7.700 -0.2572 -0.0960  0.2990
 5243TIP3   OH237287   5.042   6.552   8.029  0.7357  0.3084 -0.1467
 5243TIP3    H137288   4.983   6.497   7.976 -0.6687  1.8059 -0.2214
 5243TIP3    H237289   5.129   6.520   8.007  0.0115 -1.7988 -0.2759
 5244TIP3   OH237290   1.783   5.608   8.575  0.7167  0.3591 -0.2567
 5244TIP3    H137291   1.852   5.557   8.532  2.4763  0.6855  2.0126
 5244TIP3    H237292   1.822   5.694   8.589  0.2684  0.2616  1.9508
 5245TIP3   OH237293   0.315   5.844   7.783  0.1430 -0.0151  0.1873
 5245TIP3    H137294   0.292   5.889   7.864 -0.8316  0.6276 -0.4182
 5245TIP3    H237295   0.252   5.878   7.718  1.0403 -0.3356 -0.8867
 5246TIP3   OH237296   4.862   1.649   0.433  0.0356  0.7349  0.4176
 5246TIP3    H137297   4.836   1.723   0.488  0.3189  0.5653  0.7919
 5246TIP3    H237298   4.801   1.579   0.458 -0.0140  0.7418  0.3144
 5247TIP3   OH237299   3.236   2.350   2.066 -0.7213 -0.5460 -0.0844
 5247TIP3    H137300   3.331   2.359   2.058 -0.6596 -1.8905 -1.3252
 5247TIP3    H237301   3.219   2.351   2.160  0.5952 -0.9083  0.1692
 5248TIP3   OH237302   0.861   3.206   1.996 -0.1121 -0.0725 -0.1618
 5248TIP3    H137303   0.816   3.128   1.962  0.0226 -0.0394 -0.4121
 5248TIP3    H237304   0.884   3.182   2.086 -0.1613 -0.2853 -0.2045
 5249TIP3   OH237305   4.486   4.417   2.828 -0.5281 -0.7075  0.5325
 5249TIP3    H137306   4.427   4.477   2.874 -2.5484 -2.8646  0.9703
 5249TIP3    H237307   4.450   4.413   2.739 -0.6656 -1.5208  0.6153
 5250TIP3   OH237308   4.306   3.350   0.986  0.5395  0.5371 -0.6390
 5250TIP3    H137309   4.360   3.368   0.910  2.7933  0.0544  0.7509
 5250TIP3    H237310   4.368   3.346   1.059 -1.4775  0.6487  1.1792
 5251TIP3   OH237311   4.638   2.012   1.965  0.3502  0.7842 -0.6234
 5251TIP3    H137312   4.587   1.979   2.038 -0.3981  0.4513 -1.2833
 5251TIP3    H237313   4.611   1.958   1.890  1.7235  0.5432 -0.9723
 5252TIP3   OH237314   2.190   2.931   0.986  0.4987 -0.1347 -0.2532
 5252TIP3    H137315   2.224   2.868   0.922  0.0091  0.2091 -0.8597
 5252TIP3    H237316   2.261   2.940   1.050  0.2173 -2.0239  0.3803
 5253TIP3   OH237317   4.099   0.489   0.183  0.1094  0.0186 -0.2508
 5253TIP3    H137318   4.141   0.508   0.267 -0.2220  1.3381 -0.3620
 5253TIP3    H237319   4.076   0.575   0.147 -2.8800 -0.6245 -0.0980
 5254TIP3   OH237320   0.649   2.402   0.507  0.1784  0.1547  0.6510
 5254TIP3    H137321   0.709   2.332   0.480  0.9370 -0.0592  2.6721
 5254TIP3    H237322   0.702   2.482   0.503 -0.3404  0.4576 -0.5140
 5255TIP3   OH237323   2.889   2.771   8.679 -0.0280 -0.0085  0.1900
 5255TIP3    H137324   2.960   2.817   8.722 -1.0661  0.8845  0.9961
 5255TIP3    H237325   2.852   2.714   8.747 -1.4299  1.1218  0.4277
 5256TIP3   OH237326   6.193   4.097   0.950 -0.2945 -0.2608 -0.1005
 5256TIP3    H137327   6.251   4.152   0.897 -0.4017  0.2195  0.2682
 5256TIP3    H237328   6.205   4.009   0.915  0.9174 -0.2289  0.1878
 5257TIP3   OH237329   0.403   3.215   8.674 -0.7093  0.3692  0.1434
 5257TIP3    H137330   0.358   3.185   8.595  0.8945 -0.5036 -0.4663
 5257TIP3    H237331   0.494   3.188   8.663  0.2655  3.0028  0.8397
 5258TIP3   OH237332   2.795   1.321   2.783  0.5990  0.0288 -0.0339
 5258TIP3    H137333   2.815   1.271   2.862  3.2566  0.5471 -0.2968
 5258TIP3    H237334   2.756   1.403   2.814  0.5197 -0.2616  0.6384
 5259TIP3   OH237335   2.717   4.815   1.279  0.5558 -0.2461  0.0689
 5259TIP3    H137336   2.695   4.742   1.336  1.6901  0.3366  1.3271
 5259TIP3    H237337   2.696   4.785   1.191 -0.1653 -1.6084  0.6843
 5260TIP3   OH237338   6.187   6.546   0.772 -0.7586 -0.0593 -0.4181
 5260TIP3    H137339   6.240   6.479   0.728 -1.2311  0.1839 -1.3740
 5260TIP3    H237340   6.137   6.587   0.702 -0.5191  1.2697  0.1524
 5261TIP3   OH237341   0.755   6.621   1.699  0.0694  0.0389 -0.2789
 5261TIP3    H137342   0.850   6.611   1.690  0.1611 -1.7627  1.8045
 5261TIP3    H237343   0.720   6.533   1.680 -1.1346  0.5514 -0.4978
 5262TIP3   OH237344   1.386   5.068   8.187  0.1882  0.1681  0.2462
 5262TIP3    H137345   1.304   5.020   8.179  0.3528  0.1553 -1.9441
 5262TIP3    H237346   1.402   5.105   8.100  1.7178  1.4894  1.0175
 5263TIP3   OH237347   4.553   4.854   2.670 -0.6190  0.2920  0.3147
 5263TIP3    H137348   4.602   4.782   2.630 -0.8810  0.0654  0.3994
 5263TIP3    H237349   4.510   4.897   2.596 -0.3878  0.4185  0.2538
 5264TIP3   OH237350   4.600   1.195   1.299  0.3481  0.3432 -0.5030
 5264TIP3    H137351   4.608   1.180   1.393  0.0255  0.3051 -0.4789
 5264TIP3    H237352   4.517   1.152   1.275  1.3436 -1.3328 -1.1435
 5265TIP3   OH237353   3.221   3.920   2.105 -0.4106 -0.2356  1.0720
 5265TIP3    H137354   3.135   3.954   2.081 -0.0224  1.2245  1.6744
 5265TIP3    H237355   3.203   3.854   2.172 -1.0465  0.2281  1.3600
 5266TIP3   OH237356   3.320   5.681   8.726  0.6114 -0.1675 -1.0482
 5266TIP3    H137357   3.238   5.714   8.689  0.1525  3.3464  2.4510
 5266TIP3    H237358   3.346   5.611   8.667 -3.0361  0.8850 -4.3375
 5267TIP3   OH237359   4.626   2.781   0.871 -0.3793 -0.2009 -0.1510
 5267TIP3    H137360   4.611   2.794   0.964 -0.7085 -2.3909  0.1560
 5267TIP3    H237361   4.613   2.868   0.832 -1.0916  0.5813  1.7205
 5268TIP3   OH237362   4.334   4.879   1.303  0.3933  0.0181  0.2004
 5268TIP3    H137363   4.323   4.942   1.231  2.2194 -0.7926 -0.8680
 5268TIP3    H237364   4.393   4.924   1.364  0.0557  0.1277  0.4450
 5269TIP3   OH237365   3.206   5.410   0.487 -0.3943 -0.1829 -0.1921
 5269TIP3    H137366   3.178   5.384   0.400 -1.0278  0.3629 -0.1614
 5269TIP3    H237367   3.295   5.376   0.495 -0.8248 -1.4340 -0.5184
 5270TIP3   OH237368   5.888   6.426   1.410 -0.6227 -0.0150 -0.6783
 5270TIP3    H137369   5.907   6.431   1.504 -0.2952  0.1898 -0.7541
 5270TIP3    H237370   5.872   6.333   1.394  0.9409 -0.3034 -0.7246
 5271TIP3   OH237371   5.120   1.670   1.020  0.0660  0.0078  0.8160
 5271TIP3    H137372   5.179   1.656   0.946 -1.0312  0.3432 -0.1357
 5271TIP3    H237373   5.090   1.583   1.044  1.5413 -0.2635  1.8443
 5272TIP3   OH237374   0.285   4.736   1.219  0.3061  0.8117  0.1852
 5272TIP3    H137375   0.339   4.712   1.144  0.2040  1.1830 -0.0125
 5272TIP3    H237376   0.263   4.828   1.204 -2.2347  0.1116 -0.8975
 5273TIP3   OH237377   1.086   1.706   7.834 -0.0080 -0.1362  0.1714
 5273TIP3    H137378   1.152   1.710   7.765 -0.2731  0.2831 -0.0636
 5273TIP3    H237379   1.088   1.615   7.864 -0.8045 -0.6601 -1.2954
 5274TIP3   OH237380   6.629   6.587   6.387  0.2244 -0.0201 -0.3736
 5274TIP3    H137381   6.629   6.596   6.483  1.4881 -0.8566 -0.2676
 5274TIP3    H237382   6.690   6.655   6.357 -0.6285  0.6454 -0.6582
 5275TIP3   OH237383   3.512   6.678   2.183 -0.7844  0.1893 -0.1266
 5275TIP3    H137384   3.432   6.644   2.143 -1.3410  0.2929  0.8665
 5275TIP3    H237385   3.482   6.724   2.261  0.3004 -0.3399  0.6220
 5276TIP3   OH237386   5.141   4.837   0.051  0.7694 -0.1259 -0.1624
 5276TIP3    H137387   5.215   4.855  -0.007  0.7368 -0.4303 -0.2973
 5276TIP3    H237388   5.155   4.747   0.081  0.1912 -0.3523 -0.5715
 5277TIP3   OH237389   2.033   5.283   2.505  0.3552 -0.5937 -0.1050
 5277TIP3    H137390   1.986   5.269   2.423 -0.7626 -0.6112  0.5154
 5277TIP3    H237391   2.041   5.378   2.513  0.5855 -0.5952 -0.2857
 5278TIP3   OH237392   0.354   4.893   0.639 -0.1337 -0.7655  0.5096
 5278TIP3    H137393   0.374   4.919   0.729 -1.4831 -0.9187  0.8876
 5278TIP3    H237394   0.259   4.881   0.639 -0.4014  0.8229 -1.3511
 5279TIP3   OH237395   6.637   0.124   1.432  0.2193  0.0442 -0.1869
 5279TIP3    H137396   6.672   0.160   1.350  0.7768 -0.6214 -0.2458
 5279TIP3    H237397   6.543   0.112   1.414  0.1938  0.6189 -0.4625
 5280TIP3   OH237398   0.009   5.725   0.755 -0.3669 -0.2933  0.6726
 5280TIP3    H137399  -0.045   5.804   0.759 -1.1453 -0.8398  1.6256
 5280TIP3    H237400  -0.010   5.687   0.669 -0.8093 -0.0076  0.6417
 5281TIP3   OH237401   4.871   5.619   2.771 -0.6490  0.2586 -0.3835
 5281TIP3    H137402   4.940   5.577   2.821  0.4871  0.3853 -1.7857
 5281TIP3    H237403   4.832   5.548   2.719 -0.6942  0.4194 -0.5721
 5282TIP3   OH237404   3.032   0.862   7.759 -0.3078  0.2452  0.2554
 5282TIP3    H137405   2.948   0.818   7.743  0.4666 -0.4979 -2.2769
 5282TIP3    H237406   3.046   0.915   7.680  2.4942 -1.1702 -0.2988
 5283TIP3   OH237407   0.764   3.675   0.262 -0.0486  0.5268 -1.1227
 5283TIP3    H137408   0.737   3.732   0.190 -2.3704  0.7052 -0.1906
 5283TIP3    H237409   0.701   3.604   0.261 -1.1191  1.3065  1.6000
 5284TIP3   OH237410   1.493   3.104   0.533 -0.0754  0.1975 -0.3056
 5284TIP3    H137411   1.483   3.183   0.587  2.2885  0.5824 -0.3231
 5284TIP3    H237412   1.549   3.046   0.585 -2.2450 -1.7813 -0.0350
 5285TIP3   OH237413   4.662   3.203   1.977  0.6967 -0.0104 -0.1510
 5285TIP3    H137414   4.663   3.281   1.922  1.9251 -0.4225 -0.7588
 5285TIP3    H237415   4.675   3.236   2.066  0.3009  0.5423 -0.2958
 5286TIP3   OH237416   1.695   1.476   0.351  0.1973 -0.4546  0.0144
 5286TIP3    H137417   1.692   1.381   0.336  3.0697 -0.5147 -0.7823
 5286TIP3    H237418   1.761   1.487   0.420  1.0435  1.0068 -0.9570
 5287TIP3   OH237419   4.878   4.682   0.319 -0.2006  0.6188  0.3021
 5287TIP3    H137420   4.926   4.629   0.382 -0.4969  0.8334  0.7172
 5287TIP3    H237421   4.797   4.633   0.304  0.2476  0.1180 -0.6056
 5288TIP3   OH237422   2.642   3.337   8.430  0.1951 -0.6107  0.2449
 5288TIP3    H137423   2.625   3.243   8.440 -0.8882 -0.4297  0.2387
 5288TIP3    H237424   2.633   3.372   8.519 -0.1863 -0.3961  0.1228
 5289TIP3   OH237425   5.706   5.683   6.923  0.6636  0.0880  0.4925
 5289TIP3    H137426   5.794   5.654   6.898  0.6993 -0.4343  1.1765
 5289TIP3    H237427   5.720   5.770   6.962  0.9623 -0.2097  1.0789
 5290TIP3   OH237428   5.714   3.253   8.375 -0.1529 -0.6438 -0.4303
 5290TIP3    H137429   5.778   3.311   8.415 -0.5653 -0.9736  0.7352
 5290TIP3    H237430   5.753   3.166   8.381  0.8134 -0.4564 -2.8733
 5291TIP3   OH237431   6.668   4.416   7.564 -0.1429 -0.1842 -0.1057
 5291TIP3    H137432   6.684   4.366   7.644 -0.6673 -0.0018  0.1145
 5291TIP3    H237433   6.642   4.350   7.500 -0.0081 -0.2948 -0.0463
 5292TIP3   OH237434   4.336   4.634   7.777 -0.2565  0.4094  0.4450
 5292TIP3    H137435   4.321   4.632   7.871  1.2246  0.9930  0.7299
 5292TIP3    H237436   4.403   4.702   7.765 -0.0139 -0.0406 -0.9553
 5293TIP3   OH237437   4.812   6.461   3.049 -0.3753 -0.1389 -0.0629
 5293TIP3    H137438   4.905   6.441   3.054  0.5059  3.4450  0.2149
 5293TIP3    H237439   4.772   6.406   3.117  1.7662 -0.5535  0.9330
 5294TIP3   OH237440   6.662   4.870   1.700 -0.2556 -0.2923 -0.0968
 5294TIP3    H137441   6.682   4.792   1.648  0.8988  1.0665 -1.8024
 5294TIP3    H237442   6.571   4.857   1.728 -0.5480 -1.6256 -1.5061
 5295TIP3   OH237443   5.415   4.046   0.738 -0.0010  0.3271  0.4352
 5295TIP3    H137444   5.484   3.985   0.764 -0.8994 -0.3311  1.3425
 5295TIP3    H237445   5.375   4.007   0.661 -1.9530 -1.4140  2.1870
 5296TIP3   OH237446   1.318   3.439   2.130  0.4411  0.9839  0.5397
 5296TIP3    H137447   1.282   3.435   2.219 -1.1491 -1.7037 -0.0991
 5296TIP3    H237448   1.244   3.464   2.075  0.7896  0.2967 -0.2679
 5297TIP3   OH237449   2.253   0.993   7.758 -0.2814  0.2335 -0.3903
 5297TIP3    H137450   2.251   0.898   7.750  1.0098  0.1092  0.4371
 5297TIP3    H237451   2.176   1.023   7.710 -1.0477 -1.2583 -0.1528
 5298TIP3   OH237452   1.402   0.917   1.071  0.6795 -0.0394 -0.0396
 5298TIP3    H137453   1.368   0.980   1.008  2.2710 -0.8590 -1.8259
 5298TIP3    H237454   1.349   0.839   1.057  0.0282  0.2546  0.7469
 5299TIP3   OH237455   4.410   2.606   0.873 -0.2689  0.3402  0.5171
 5299TIP3    H137456   4.431   2.523   0.914 -0.0281 -1.5743 -3.0533
 5299TIP3    H237457   4.485   2.663   0.892  1.1345 -1.3814  0.3766
 5300TIP3   OH237458   4.207   2.118   8.083  0.3612 -0.0294  0.0071
 5300TIP3    H137459   4.120   2.093   8.114 -0.0020  0.3825 -0.6536
 5300TIP3    H237460   4.190   2.168   8.002  1.2399 -0.5409 -0.5071
 5301TIP3   OH237461   1.852   4.943   2.443 -0.9543  0.4348 -0.3668
 5301TIP3    H137462   1.933   4.916   2.401 -1.5266  0.9858 -1.8647
 5301TIP3    H237463   1.837   4.876   2.511  1.0988  0.7290  0.4441
 5302TIP3   OH237464   1.264   4.695   8.556  0.7476  0.5222  0.3277
 5302TIP3    H137465   1.201   4.631   8.522  0.2618 -0.3902  2.7192
 5302TIP3    H237466   1.232   4.779   8.524 -1.0999 -0.0251  0.5655
 5303TIP3   OH237467   4.986   3.913   8.314  0.2826 -0.0241  0.4520
 5303TIP3    H137468   5.053   3.958   8.264 -0.0757 -0.9552 -0.9047
 5303TIP3    H237469   4.919   3.980   8.331  0.6327  0.4128  0.1023
 5304TIP3   OH237470   4.506   2.029   0.232  0.0431  0.3558  0.4265
 5304TIP3    H137471   4.564   2.038   0.157 -0.5409 -0.4895 -0.1297
 5304TIP3    H237472   4.530   2.103   0.289 -0.1092  1.5302 -0.9779
 5305TIP3   OH237473   0.264   0.892   0.257  0.0878 -0.2114  0.7347
 5305TIP3    H137474   0.314   0.901   0.338  1.1344 -2.0506  0.3491
 5305TIP3    H237475   0.210   0.814   0.270  1.8139 -1.8115 -1.0315
 5306TIP3   OH237476   4.473   6.633   7.882  0.0552  0.5489 -0.2203
 5306TIP3    H137477   4.386   6.672   7.895 -0.2488 -0.2201  0.1366
 5306TIP3    H237478   4.506   6.619   7.970  0.9989  1.7978 -0.3582
 5307TIP3   OH237479   1.616   3.046   7.993  0.2338 -0.1731  0.3937
 5307TIP3    H137480   1.625   2.953   8.015  0.6954 -0.0601  0.6775
 5307TIP3    H237481   1.686   3.089   8.041 -0.2913  0.3934  0.6632
 5308TIP3   OH237482   3.184   2.462   7.908  0.5758  0.0379  0.4892
 5308TIP3    H137483   3.125   2.456   7.983 -2.7792 -0.3738 -1.9676
 5308TIP3    H237484   3.209   2.554   7.905  1.6705 -0.1179  2.6284
 5309TIP3   OH237485   1.733   5.707   0.055 -0.4983  0.0129  0.0454
 5309TIP3    H137486   1.794   5.685   0.126 -0.7040 -1.2050 -0.1305
 5309TIP3    H237487   1.776   5.674  -0.024  0.2135  2.2932 -0.5713
 5310TIP3   OH237488   4.774   6.548   0.881  0.2100 -0.3681 -0.8659
 5310TIP3    H137489   4.789   6.468   0.830  0.4052 -0.8743 -0.0500
 5310TIP3    H237490   4.685   6.538   0.915 -0.3790  0.5428 -2.0807
 5311TIP3   OH237491   3.257   4.538   2.566  0.2019  0.0602 -0.0384
 5311TIP3    H137492   3.224   4.455   2.603 -1.9478 -0.3991 -2.6490
 5311TIP3    H237493   3.181   4.597   2.570  1.7445  2.0671  1.9400
 5312TIP3   OH237494   2.180   0.315   7.235  0.0643  0.3661 -0.3838
 5312TIP3    H137495   2.263   0.313   7.284 -1.3042 -1.8698  2.1269
 5312TIP3    H237496   2.119   0.361   7.293 -0.8184  0.6936 -1.5449
 5313TIP3   OH237497   1.463   1.354   7.672 -0.0324 -0.2376  0.4349
 5313TIP3    H137498   1.403   1.354   7.598 -0.5841 -1.5096  0.8539
 5313TIP3    H237499   1.459   1.443   7.707  0.2901  0.4101 -1.0746
 5314TIP3   OH237500   5.257   3.045   8.101 -0.1958 -0.2692 -0.2375
 5314TIP3    H137501   5.247   3.116   8.038  1.4415  0.0541 -0.1651
 5314TIP3    H237502   5.351   3.029   8.105 -0.4794 -2.2355 -0.0175
 5315TIP3   OH237503   0.143   0.447   0.981 -0.1394 -0.1643  0.4065
 5315TIP3    H137504   0.164   0.517   1.042 -1.4534  1.5804 -1.0312
 5315TIP3    H237505   0.111   0.492   0.903 -1.2565 -2.3834 -0.5055
 5316TIP3   OH237506   5.754   0.857   0.034  0.0613 -0.3752  0.1832
 5316TIP3    H137507   5.818   0.869  -0.036  0.7616 -1.0041  0.7056
 5316TIP3    H237508   5.669   0.858  -0.011  0.5262 -1.3598 -0.7658
 5317TIP3   OH237509   2.325   4.155   7.514  0.3390  0.3726  0.5473
 5317TIP3    H137510   2.373   4.117   7.440  2.4279  0.6302  1.6913
 5317TIP3    H237511   2.244   4.104   7.519  0.0329  0.4476 -1.9766
 5318TIP3   OH237512   4.134   2.679   0.858 -0.3531  0.1357  0.1660
 5318TIP3    H137513   4.111   2.712   0.945  0.6730  0.8103  0.2015
 5318TIP3    H237514   4.222   2.643   0.869 -0.6716 -0.8128 -0.3426
 5319TIP3   OH237515   4.993   5.019   1.825 -0.1868  0.2239 -0.2812
 5319TIP3    H137516   4.900   5.008   1.810 -0.3323  1.4852 -0.4125
 5319TIP3    H237517   4.999   5.090   1.889  0.6773  0.6231 -0.7755
 5320TIP3   OH237518   1.325   3.796   0.219  0.8568 -0.3195 -0.1793
 5320TIP3    H137519   1.289   3.708   0.232 -1.0974  0.5059  0.2961
 5320TIP3    H237520   1.311   3.840   0.303  2.6625  0.1961 -0.0991
 5321TIP3   OH237521   2.003   3.885   0.390  0.0667  0.2367 -0.2206
 5321TIP3    H137522   2.077   3.887   0.451  0.1297  0.5342 -0.3067
 5321TIP3    H237523   1.950   3.811   0.420 -0.3161  0.8626  0.6804
 5322TIP3   OH237524   1.100   5.767   2.486  0.3749 -0.1238 -0.7863
 5322TIP3    H137525   1.155   5.829   2.533 -0.9672  0.2429  0.3461
 5322TIP3    H237526   1.016   5.767   2.533 -1.2519  0.6825 -3.4371
 5323TIP3   OH237527   5.878   6.364   7.672 -0.1085  0.5114  0.2607
 5323TIP3    H137528   5.828   6.382   7.592  0.5820 -2.1717 -0.8690
 5323TIP3    H237529   5.824   6.401   7.742 -3.5889 -1.7497 -0.9328
 5324TIP3   OH237530   6.751   2.003   0.268  0.0020 -0.2173  0.5499
 5324TIP3    H137531   6.803   1.925   0.248 -0.8203 -0.8030  0.6161
 5324TIP3    H237532   6.728   2.039   0.182  0.7078  0.1837  0.5232
 5325TIP3   OH237533   0.668   0.393   1.495 -0.3334 -0.0404  0.6351
 5325TIP3    H137534   0.672   0.329   1.423 -1.7049  0.9161 -0.3703
 5325TIP3    H237535   0.759   0.407   1.521  0.0842 -1.4282  0.0099
 5326TIP3   OH237536   2.118   3.713   8.709  0.1879  0.0476  0.1503
 5326TIP3    H137537   2.057   3.641   8.697 -0.0484  0.4071 -0.9218
 5326TIP3    H237538   2.111   3.736   8.801 -0.8029 -0.3455  0.1799
 5327TIP3   OH237539   5.843   6.422   2.506  0.5091  0.5815  0.1205
 5327TIP3    H137540   5.883   6.380   2.430  0.7302  1.3289 -0.1864
 5327TIP3    H237541   5.791   6.493   2.469  0.0421  0.5050  0.6236
 5328TIP3   OH237542   6.167   5.104   2.837 -0.7859 -0.9944  0.5815
 5328TIP3    H137543   6.246   5.053   2.818 -1.4000 -1.3668 -1.1217
 5328TIP3    H237544   6.149   5.152   2.756 -1.1518  0.7127  1.6272
 5329TIP3   OH237545   0.938   3.206   0.799 -0.0258  0.2566  0.1333
 5329TIP3    H137546   0.904   3.127   0.840  2.0092 -0.5143  0.4547
 5329TIP3    H237547   0.959   3.180   0.709  4.5316 -0.9400  1.2887
 5330TIP3   OH237548   0.202   0.476   1.569 -0.6235 -0.2399  0.3623
 5330TIP3    H137549   0.218   0.408   1.635  0.5470 -0.6090 -0.2689
 5330TIP3    H237550   0.108   0.495   1.576 -0.5835 -0.4862  1.9079
 5331TIP3   OH237551   5.084   2.222   8.674  0.0462  0.0881  0.1997
 5331TIP3    H137552   5.058   2.248   8.762 -0.1453 -0.4723  0.3148
 5331TIP3    H237553   5.162   2.274   8.656 -0.9522  1.5727 -0.0343
 5332TIP3   OH237554   2.814   4.973   7.610 -0.1692  0.1778 -0.0097
 5332TIP3    H137555   2.849   5.042   7.666  0.0621  0.5537 -0.6198
 5332TIP3    H237556   2.852   4.989   7.524  0.5604 -1.1967  0.0250
 5333TIP3   OH237557   4.674   3.085   7.873  0.6796 -0.0796 -0.2893
 5333TIP3    H137558   4.611   3.042   7.931  0.1882  2.7096  1.4644
 5333TIP3    H237559   4.636   3.078   7.786 -1.0949 -0.1747  0.4482
 5334TIP3   OH237560   2.696   5.022   0.328 -0.3214  0.1967 -0.3235
 5334TIP3    H137561   2.619   5.065   0.362 -0.2896  0.8047 -0.9903
 5334TIP3    H237562   2.763   5.090   0.326  0.1339 -0.2373 -0.0734
 5335TIP3   OH237563   3.591   0.691   6.780  0.1212 -0.5307  0.2355
 5335TIP3    H137564   3.616   0.633   6.852 -0.8272 -0.8582  0.3180
 5335TIP3    H237565   3.626   0.777   6.805  1.1587 -0.9629  0.3198
 5336TIP3   OH237566   0.763   0.037   8.346  0.2985  0.5090 -0.2181
 5336TIP3    H137567   0.696  -0.016   8.303  0.0526  0.6463 -0.0078
 5336TIP3    H237568   0.762   0.008   8.437  0.1147  0.9204 -0.0859
 5337TIP3   OH237569   6.213   4.672   3.309 -0.3078 -0.0450 -0.0991
 5337TIP3    H137570   6.286   4.659   3.369 -0.3287 -2.3543 -0.4882
 5337TIP3    H237571   6.230   4.612   3.236 -2.3614 -0.3593 -0.3946
 5338TIP3   OH237572   6.343   5.449   3.104 -0.1927  0.2475 -0.3893
 5338TIP3    H137573   6.260   5.496   3.097 -1.0570 -0.7683  1.9421
 5338TIP3    H237574   6.319   5.356   3.099  1.2555 -0.0690 -3.0217
 5339TIP3   OH237575   1.786   5.688   2.614 -0.6102  0.0703  0.0874
 5339TIP3    H137576   1.879   5.710   2.616 -0.5953  0.2023 -1.4220
 5339TIP3    H237577   1.780   5.604   2.660  0.3425 -0.2487 -0.3638
 5340TIP3   OH237578   5.060   5.299   7.932 -0.2471  0.2803 -0.0409
 5340TIP3    H137579   5.063   5.252   7.848 -1.5446  1.5465 -0.8596
 5340TIP3    H237580   5.121   5.371   7.921  0.5117 -0.2583  0.5893
 5341TIP3   OH237581   0.622   6.758   0.978 -0.1092 -0.2723 -0.3056
 5341TIP3    H137582   0.537   6.796   1.000  0.2519  0.1753  0.3492
 5341TIP3    H237583   0.616   6.667   1.008  0.0862  0.1099  0.9342
 5342TIP3   OH237584   4.570   4.622   8.722 -0.6149 -0.4537  0.3603
 5342TIP3    H137585   4.601   4.567   8.651 -0.7871 -2.4524  1.7439
 5342TIP3    H237586   4.649   4.652   8.766 -0.5156  0.5896 -0.4981
 5343TIP3   OH237587   5.508   3.658   7.482 -0.4741 -0.0920  0.0273
 5343TIP3    H137588   5.429   3.690   7.526 -0.0800  0.8293  0.0928
 5343TIP3    H237589   5.479   3.579   7.436 -1.5222  0.4388 -0.2669
 5344TIP3   OH237590   6.030   5.663   1.845  0.5548 -0.0945 -0.1882
 5344TIP3    H137591   6.059   5.584   1.800 -0.9427  0.2175 -1.8409
 5344TIP3    H237592   6.069   5.735   1.795  0.0876  0.2317 -0.0915
 5345TIP3   OH237593   4.677   1.862   1.721 -0.7898  0.3670 -0.7644
 5345TIP3    H137594   4.722   1.788   1.762  1.5924  2.0378 -0.0972
 5345TIP3    H237595   4.638   1.826   1.642 -0.2907 -1.7250 -0.1242
 5346TIP3   OH237596   6.354   6.692   1.919  0.6271 -0.1524  0.1000
 5346TIP3    H137597   6.431   6.676   1.973 -0.3939 -2.3922  0.9858
 5346TIP3    H237598   6.285   6.638   1.958 -0.5684 -0.6667 -2.5359
 5347TIP3   OH237599   2.694   0.746   1.054  0.2616  0.0837  0.1451
 5347TIP3    H137600   2.757   0.680   1.026 -1.0844 -1.6580  1.0877
 5347TIP3    H237601   2.665   0.718   1.140 -1.4252  1.1158 -0.0369
 5348TIP3   OH237602   5.931   2.859   7.535 -0.1389 -0.4489 -0.0293
 5348TIP3    H137603   5.846   2.834   7.498 -0.5926  0.0129  0.6666
 5348TIP3    H237604   5.994   2.842   7.465 -0.8929 -0.1670 -0.7897
 5349TIP3   OH237605   5.620   0.392   8.080  0.2237 -0.0684 -0.1729
 5349TIP3    H137606   5.622   0.379   8.175  0.6380 -0.5982 -0.2533
 5349TIP3    H237607   5.663   0.477   8.067 -0.0290  0.1065  0.1294
 5350TIP3   OH237608   0.419   0.217   1.943 -0.6299 -0.2266 -0.7275
 5350TIP3    H137609   0.357   0.213   1.870  0.2099 -0.5567 -1.4600
 5350TIP3    H237610   0.502   0.243   1.901 -0.4937  1.2428  0.3744
 5351TIP3   OH237611   1.005   6.562   1.603  0.0023 -0.1689  0.3806
 5351TIP3    H137612   1.056   6.509   1.665 -0.0262  0.7891  1.2591
 5351TIP3    H237613   1.071   6.601   1.546  0.1928  0.3690  0.9568
 5352TIP3   OH237614   2.110   6.724   2.410  0.7073 -0.3909 -0.2927
 5352TIP3    H137615   2.144   6.635   2.422  1.7695  0.1916  1.2863
 5352TIP3    H237616   2.047   6.716   2.339 -1.4269 -3.0240  1.6835
 5353TIP3   OH237617   3.808   3.797   2.288  0.1462  0.8287  0.2555
 5353TIP3    H137618   3.766   3.842   2.215  1.9093 -0.7826 -1.8840
 5353TIP3    H237619   3.772   3.708   2.285  1.3928  0.2981  0.3026
 5354TIP3   OH237620   0.401   5.148   1.391 -0.1115  0.1898 -0.2542
 5354TIP3    H137621   0.419   5.209   1.462  0.9309  0.2714 -0.5803
 5354TIP3    H237622   0.451   5.070   1.412  0.5802  0.3889 -1.1314
 5355TIP3   OH237623   2.265   6.757   8.312  0.4312  0.3398  0.1136
 5355TIP3    H137624   2.312   6.741   8.394  1.8260  1.5058 -0.4231
 5355TIP3    H237625   2.279   6.677   8.261  1.6649  0.5786  0.0532
 5356TIP3   OH237626   2.861   3.688   7.275 -0.1547  0.2004 -0.2101
 5356TIP3    H137627   2.841   3.752   7.206 -3.3886 -0.2049  0.1635
 5356TIP3    H237628   2.879   3.742   7.353  1.0660  0.6378 -0.7717
 5357TIP3   OH237629   1.844   1.863   2.165  0.1773 -0.2895  0.7736
 5357TIP3    H137630   1.845   1.881   2.259  2.1831  1.1327  0.5488
 5357TIP3    H237631   1.922   1.907   2.131 -2.3187  2.4090 -2.1785
 5358TIP3   OH237632   3.548   5.613   1.530  0.1682 -0.1856 -0.0274
 5358TIP3    H137633   3.517   5.562   1.455  0.4058  1.7497 -1.5121
 5358TIP3    H237634   3.639   5.633   1.509  0.4810 -0.2609  1.1744
 5359TIP3   OH237635   3.217   5.441   7.455  0.1597 -0.3957 -0.2223
 5359TIP3    H137636   3.278   5.426   7.527  2.0709 -2.0692 -2.0619
 5359TIP3    H237637   3.241   5.376   7.389 -2.2403  0.3135 -1.9316
 5360TIP3   OH237638   5.255   4.287   3.122 -0.0019 -0.3789  0.5563
 5360TIP3    H137639   5.205   4.355   3.168  2.2261  1.2885  0.6564
 5360TIP3    H237640   5.297   4.334   3.050  1.9230 -1.5524  0.8728
 5361TIP3   OH237641   0.709   2.216   2.733 -0.1271  0.5425  0.0805
 5361TIP3    H137642   0.650   2.141   2.722  0.5236 -0.0318  0.3925
 5361TIP3    H237643   0.795   2.182   2.708 -0.2078  1.8964 -2.3333
 5362TIP3   OH237644   1.129   5.862   7.761 -0.0214  0.1280 -0.2612
 5362TIP3    H137645   1.109   5.878   7.669  0.2936  0.0761 -0.3382
 5362TIP3    H237646   1.224   5.865   7.766 -0.0006 -0.7237 -0.0873
 5363TIP3   OH237647   6.496   5.414   1.882  0.2782  0.2854 -0.3661
 5363TIP3    H137648   6.479   5.371   1.798 -0.4236  0.4217 -0.3014
 5363TIP3    H237649   6.518   5.504   1.859 -2.8624  1.1756 -0.2978
 5364TIP3   OH237650   1.485   3.294   1.988 -0.0593  0.0915  0.5980
 5364TIP3    H137651   1.564   3.274   2.037 -1.8158 -0.0690  3.5688
 5364TIP3    H237652   1.427   3.336   2.051 -2.3008  0.3973 -1.5122
 5365TIP3   OH237653   5.808   0.195   6.569  0.1160  0.6656  0.0496
 5365TIP3    H137654   5.745   0.126   6.547 -0.6592  1.3024  0.1993
 5365TIP3    H237655   5.838   0.172   6.657 -0.2265  0.5705  0.1453
 5366TIP3   OH237656   0.017   2.718   7.984 -0.3698  0.2731  0.4951
 5366TIP3    H137657  -0.075   2.743   7.994 -0.4076 -0.1175  1.1912
 5366TIP3    H237658   0.020   2.671   7.901 -1.1609 -1.2675  1.3010
 5367TIP3   OH237659   1.570   4.418   1.190 -0.1248  0.1019  0.0851
 5367TIP3    H137660   1.641   4.356   1.210 -1.2716 -1.3001 -0.0267
 5367TIP3    H237661   1.574   4.430   1.096 -0.8284 -1.0235 -0.1092
 5368TIP3   OH237662   6.780   3.637   8.088  0.1375 -0.0210 -0.4917
 5368TIP3    H137663   6.692   3.600   8.088  0.4509 -0.7940  0.0761
 5368TIP3    H237664   6.792   3.672   8.000 -0.2183 -1.1523 -0.9975
 5369TIP3   OH237665   3.360   2.344   2.843 -0.0381  0.0547  0.4823
 5369TIP3    H137666   3.369   2.351   2.938 -0.4190  2.8862  0.3873
 5369TIP3    H237667   3.448   2.363   2.809  0.2206 -1.4483  0.2251
 5370TIP3   OH237668   0.190   0.221   7.940 -0.1326  0.0033 -0.5529
 5370TIP3    H137669   0.192   0.317   7.934 -1.9888  0.0756 -0.6974
 5370TIP3    H237670   0.246   0.191   7.869 -0.6011  0.9924 -1.3578
 5371TIP3   OH237671   2.518   5.947   8.580  0.1984  0.0984 -0.0596
 5371TIP3    H137672   2.535   6.032   8.540 -1.7565  0.8028  0.4763
 5371TIP3    H237673   2.427   5.928   8.558  0.1126 -1.0971  1.1562
 5372TIP3   OH237674   2.422   5.937   7.394  0.0505 -0.3799  0.8947
 5372TIP3    H137675   2.483   6.010   7.404  0.7770 -0.8393  0.0178
 5372TIP3    H237676   2.337   5.979   7.380  0.7556  0.4137 -1.6490
 5373TIP3   OH237677   6.199   3.414   7.306 -0.3848 -0.7505 -0.2898
 5373TIP3    H137678   6.188   3.504   7.336 -1.5078 -1.0802  0.3402
 5373TIP3    H237679   6.160   3.412   7.219 -2.6823 -1.1802  0.6903
 5374TIP3   OH237680   0.404   5.674   1.110 -0.1981 -0.7526  0.5172
 5374TIP3    H137681   0.332   5.736   1.093  0.2293 -0.4347 -0.1597
 5374TIP3    H237682   0.418   5.631   1.027  0.6997 -0.4897  0.5252
 5375TIP3   OH237683   5.436   2.733   8.119  0.5655 -0.3565  0.4652
 5375TIP3    H137684   5.423   2.639   8.112  0.3484 -0.4665  2.1285
 5375TIP3    H237685   5.514   2.750   8.066 -0.1643 -1.2405 -0.9639
 5376TIP3   OH237686   5.670   0.821   1.120 -0.4510 -0.3025 -0.6035
 5376TIP3    H137687   5.588   0.857   1.086 -0.2272  1.7122  0.8134
 5376TIP3    H237688   5.646   0.737   1.158 -1.7032 -0.0687 -0.8433
 5377TIP3   OH237689   5.473   4.860   2.481  0.0088 -0.3387  0.1050
 5377TIP3    H137690   5.470   4.846   2.576 -0.8807  0.9441  0.2846
 5377TIP3    H237691   5.411   4.795   2.446 -1.4087  0.6890  0.6170
 5378TIP3   OH237692   5.565   4.499   0.769 -0.0499 -0.1859  0.7599
 5378TIP3    H137693   5.640   4.466   0.818 -0.4284 -0.1407  1.3668
 5378TIP3    H237694   5.490   4.450   0.803 -0.3935  0.2440  0.6234
 5379TIP3   OH237695   3.665   0.051   7.962  0.2707 -0.3417 -0.5030
 5379TIP3    H137696   3.626   0.011   7.884  1.2508 -1.1577 -0.6035
 5379TIP3    H237697   3.752   0.077   7.934  0.2482  0.3344  0.0443
 5380TIP3   OH237698   3.334   3.447   0.374  0.4291  0.2752  0.3406
 5380TIP3    H137699   3.422   3.431   0.342  0.5300 -0.6772  1.0538
 5380TIP3    H237700   3.281   3.457   0.295  1.4890  2.9673 -0.1262
 5381TIP3   OH237701   5.629   2.892   0.154 -0.2054 -0.0954 -0.3776
 5381TIP3    H137702   5.601   2.809   0.116  0.2706 -0.2270 -0.4447
 5381TIP3    H237703   5.706   2.870   0.206  1.1873  0.6366 -2.0407
 5382TIP3   OH237704   0.492   1.322   7.813  0.4123 -0.4830 -0.1835
 5382TIP3    H137705   0.512   1.386   7.882  0.7572 -1.6435  0.8231
 5382TIP3    H237706   0.493   1.373   7.732  3.9305  0.2452  0.1682
 5383TIP3   OH237707   2.270   6.040   1.977  0.2745  0.5994 -0.8774
 5383TIP3    H137708   2.283   5.948   1.952  1.5271  0.8767 -1.3258
 5383TIP3    H237709   2.197   6.070   1.923  0.4521  0.1176 -1.3942
 5384TIP3   OH237710   3.357   3.378   8.224  0.4196  0.0129 -0.1424
 5384TIP3    H137711   3.367   3.471   8.203  0.1392  0.4218  1.4216
 5384TIP3    H237712   3.283   3.349   8.171 -0.1568  0.9457  0.1339
 5385TIP3   OH237713   5.517   0.566   1.288  0.2176 -0.0916  0.7005
 5385TIP3    H137714   5.510   0.471   1.279  0.1110 -0.0219 -0.1031
 5385TIP3    H237715   5.503   0.583   1.381 -4.3816 -0.5153  0.3219
 5386TIP3   OH237716   5.949   2.484   1.826 -0.0889 -0.0826  0.6583
 5386TIP3    H137717   5.861   2.446   1.825  1.1146 -3.3881 -2.7472
 5386TIP3    H237718   5.957   2.528   1.742  2.1226 -1.8398 -0.1603
 5387TIP3   OH237719   4.469   1.328   1.936  0.1069  0.1564 -0.3214
 5387TIP3    H137720   4.429   1.241   1.935  2.2438 -0.9196  0.7626
 5387TIP3    H237721   4.460   1.360   1.846 -1.9494 -0.5305 -0.4196
 5388TIP3   OH237722   2.705   3.540   8.085  0.1504  0.2226 -0.1827
 5388TIP3    H137723   2.689   3.457   8.039  0.8346 -0.1549  0.2439
 5388TIP3    H237724   2.620   3.565   8.120 -0.0819 -0.2530 -0.3954
 5389TIP3   OH237725   2.875   3.467   6.973  0.0680  0.0468 -0.3243
 5389TIP3    H137726   2.786   3.444   6.998  0.1861  1.3168  1.3732
 5389TIP3    H237727   2.903   3.394   6.918 -1.2019 -1.5207  1.0074
 5390TIP3   OH237728   0.032   1.605   8.400 -0.1813 -0.0943  0.7114
 5390TIP3    H137729  -0.045   1.628   8.452 -0.8047 -0.6977  0.0807
 5390TIP3    H237730   0.002   1.535   8.342  1.0073 -0.7518  0.8677
 5391TIP3   OH237731   3.030   6.240   8.487 -0.6370  0.2477 -0.0479
 5391TIP3    H137732   2.955   6.190   8.454 -1.2457  2.1800 -1.8019
 5391TIP3    H237733   3.068   6.280   8.409 -0.2513  2.5540  1.2358
 5392TIP3   OH237734   3.750   2.168   2.774 -0.6518  0.0917  0.0918
 5392TIP3    H137735   3.797   2.087   2.754  0.5563  1.0192 -1.0080
 5392TIP3    H237736   3.691   2.181   2.699 -2.1894 -0.6711  1.1114
 5393TIP3   OH237737   4.581   0.150   1.101 -0.0433 -0.2596 -0.2105
 5393TIP3    H137738   4.645   0.127   1.168 -1.5558 -0.6859  1.1754
 5393TIP3    H237739   4.619   0.225   1.056  1.4018 -0.4729  0.5773
 5394TIP3   OH237740   1.356   6.178   2.819  0.2761  0.9720 -0.5622
 5394TIP3    H137741   1.324   6.096   2.856  2.0837  0.5871  0.2777
 5394TIP3    H237742   1.294   6.244   2.850  1.3022  0.5720  2.7798
 5395TIP3   OH237743   5.300   0.215   8.043  0.4198 -0.2993  0.3961
 5395TIP3    H137744   5.373   0.155   8.056 -0.1167 -1.3936 -1.3196
 5395TIP3    H237745   5.222   0.162   8.062 -0.0351  0.0615 -0.4267
 5396TIP3   OH237746   4.808   2.334   0.956 -0.1304 -0.4172  0.4614
 5396TIP3    H137747   4.865   2.409   0.941 -0.7407  0.5501  2.6553
 5396TIP3    H237748   4.868   2.261   0.970  0.4806 -0.2097 -0.9762
 5397TIP3   OH237749   1.092   6.385   0.074 -0.3261  0.3698 -0.0488
 5397TIP3    H137750   1.146   6.435   0.136 -0.4484 -1.1009  1.3309
 5397TIP3    H237751   1.083   6.299   0.116 -0.8543 -0.5150 -1.9033
 5398TIP3   OH237752   5.470   6.045   0.445 -0.6609  0.0253  0.6695
 5398TIP3    H137753   5.500   6.128   0.408  1.0079 -0.8294 -0.0080
 5398TIP3    H237754   5.499   5.978   0.383 -1.1674 -1.1491  1.6329
 5399TIP3   OH237755   3.910   1.786   1.208  0.2028  0.1485  0.3374
 5399TIP3    H137756   3.950   1.862   1.250 -1.7753 -0.0266  2.7282
 5399TIP3    H237757   3.927   1.713   1.267 -1.5294 -0.3958  0.2292
 5400TIP3   OH237758   6.196   3.492   1.138 -0.0653  0.1305  0.1984
 5400TIP3    H137759   6.266   3.514   1.076 -0.8048 -0.9741 -1.0799
 5400TIP3    H237760   6.136   3.567   1.133  0.3678  0.4945  0.3349
 5401TIP3   OH237761   5.292   2.429   7.833 -0.3472 -0.3155  0.4870
 5401TIP3    H137762   5.332   2.511   7.805  1.1144 -0.9178  0.7512
 5401TIP3    H237763   5.245   2.452   7.913 -1.6446  0.6641 -0.5109
 5402TIP3   OH237764   5.906   6.623   0.616 -0.1405  0.3496 -0.2931
 5402TIP3    H137765   5.918   6.696   0.676 -0.1637 -0.1295  0.2999
 5402TIP3    H237766   5.867   6.553   0.669  1.4269 -0.6834 -0.4378
 5403TIP3   OH237767   1.291   1.637   8.262 -0.1830  0.1930  0.3319
 5403TIP3    H137768   1.378   1.614   8.229  0.2107 -0.1075  1.5402
 5403TIP3    H237769   1.302   1.645   8.357 -0.9710  2.4164  0.3027
 5404TIP3   OH237770   1.458   1.300   1.211 -0.1909 -0.5566  0.4444
 5404TIP3    H137771   1.476   1.338   1.297 -0.1109  0.5529 -0.0410
 5404TIP3    H237772   1.397   1.361   1.169 -0.9436 -1.5436  0.0413
 5405TIP3   OH237773   4.565   2.531   8.157 -0.4728 -0.1020 -0.2795
 5405TIP3    H137774   4.518   2.598   8.107  2.5791  0.2966 -2.9405
 5405TIP3    H237775   4.532   2.448   8.122  1.7192  0.1610 -3.4247
 5406TIP3   OH237776   3.426   1.700   1.041  0.1193  0.1131  0.4896
 5406TIP3    H137777   3.333   1.677   1.047  0.1522  0.0146  0.6355
 5406TIP3    H237778   3.472   1.622   1.071  0.2361  0.3248  0.8622
 5407TIP3   OH237779   2.624   0.874   7.147  0.2069  0.4417 -0.2895
 5407TIP3    H137780   2.589   0.918   7.224  1.0710 -0.2017  0.4964
 5407TIP3    H237781   2.710   0.913   7.133  0.0599  0.5474 -0.9285
 5408TIP3   OH237782   1.843   1.644   1.032 -0.2103 -0.2988  0.5790
 5408TIP3    H137783   1.812   1.607   1.115  0.5660 -0.2783  0.8912
 5408TIP3    H237784   1.919   1.590   1.009  2.5739  2.5288  2.3637
 5409TIP3   OH237785   3.313   3.857   0.598 -0.3435  0.0257 -0.3098
 5409TIP3    H137786   3.345   3.834   0.511 -0.4454 -0.3195 -0.2589
 5409TIP3    H237787   3.273   3.943   0.587 -1.8679 -0.7192 -0.9899
 5410TIP3   OH237788   1.085   2.384   8.050  0.1572  0.4150 -0.4991
 5410TIP3    H137789   1.020   2.441   8.091 -0.1780 -0.3985  0.1118
 5410TIP3    H237790   1.035   2.333   7.985  0.1398 -0.3142  0.0729
 5411TIP3   OH237791   6.345   3.135   0.179 -0.4512  0.4122 -0.1685
 5411TIP3    H137792   6.440   3.143   0.189 -0.2549 -2.2258  0.9224
 5411TIP3    H237793   6.332   3.111   0.087  0.2819 -2.1878  0.3363
 5412TIP3   OH237794   4.513   5.646   7.502 -0.1439 -0.2711  0.6303
 5412TIP3    H137795   4.538   5.722   7.449 -1.1582  0.6553  1.4325
 5412TIP3    H237796   4.485   5.580   7.438  1.1283 -0.1349 -0.0946
 5413TIP3   OH237797   0.290   3.610   0.759  0.4430  0.2666  0.1323
 5413TIP3    H137798   0.339   3.589   0.679  1.3902  1.2821  0.4197
 5413TIP3    H237799   0.292   3.706   0.764  0.1004  0.2297  1.1927
 5414TIP3   OH237800   4.656   2.232   2.766  0.3233 -0.3433  0.2162
 5414TIP3    H137801   4.665   2.291   2.692  3.8614  1.3805  1.8028
 5414TIP3    H237802   4.670   2.145   2.728 -2.2748 -0.0381 -1.7177
 5415TIP3   OH237803   4.932   1.037   8.176  0.7647  0.4595 -0.5135
 5415TIP3    H137804   4.903   0.957   8.221 -0.7250  1.8750  1.1974
 5415TIP3    H237805   5.027   1.033   8.178  0.7599 -0.0500  1.9562
 5416TIP3   OH237806   1.791   2.683   2.788 -0.1143  0.1927  0.2857
 5416TIP3    H137807   1.724   2.637   2.838  0.0688 -0.7783 -0.3229
 5416TIP3    H237808   1.802   2.630   2.708  2.5230 -0.6481  1.0834
 5417TIP3   OH237809   4.788   5.709   7.053  0.5769  0.0186  0.1974
 5417TIP3    H137810   4.781   5.621   7.092 -2.7568 -0.7864 -1.8594
 5417TIP3    H237811   4.880   5.733   7.065  1.3237 -3.1794  1.9995
 5418TIP3   OH237812   6.788   6.759   0.856  0.2049  0.0251 -0.2993
 5418TIP3    H137813   6.785   6.852   0.833  1.8943 -0.0544 -0.9780
 5418TIP3    H237814   6.696   6.732   0.857 -0.2450  1.3660 -1.4681
 5419TIP3   OH237815   5.708   3.252   1.043 -0.1546 -0.3262 -0.3337
 5419TIP3    H137816   5.704   3.307   0.966 -0.7396 -1.0891 -0.8636
 5419TIP3    H237817   5.799   3.259   1.073 -0.4071  1.5652  0.1209
 5420TIP3   OH237818   3.829   1.640   8.371 -0.5081 -0.0468 -0.6092
 5420TIP3    H137819   3.842   1.546   8.379 -1.1390  0.0281  3.0658
 5420TIP3    H237820   3.916   1.677   8.383 -0.6072 -0.1457  0.5368
 5421TIP3   OH237821   0.200   0.485   1.235 -0.4299  0.4182 -0.2260
 5421TIP3    H137822   0.281   0.487   1.286  0.5214 -0.0421 -1.6416
 5421TIP3    H237823   0.179   0.392   1.226 -0.0326  0.4238 -1.4478
 5422TIP3   OH237824   1.584   6.241   7.640  0.0666  0.0318  0.1508
 5422TIP3    H137825   1.543   6.308   7.586  1.2579  0.4464 -0.2779
 5422TIP3    H237826   1.670   6.277   7.663  0.2844 -0.8767  0.8450
 5423TIP3   OH237827   1.386   2.730   8.008 -0.2639  0.2455  0.1959
 5423TIP3    H137828   1.394   2.783   7.930 -2.4658  0.7892  0.2810
 5423TIP3    H237829   1.299   2.751   8.044  0.8057  0.3373  3.0240
 5424TIP3   OH237830   4.527   3.339   1.133  0.3017 -0.3082  0.5896
 5424TIP3    H137831   4.618   3.360   1.113  0.9577 -0.9005  2.6978
 5424TIP3    H237832   4.517   3.360   1.226 -1.3559 -1.4232  0.7102
 5425TIP3   OH237833   2.567   1.132   8.475 -0.1357 -0.2516 -0.4483
 5425TIP3    H137834   2.507   1.097   8.408  0.9468 -0.2021 -1.4845
 5425TIP3    H237835   2.623   1.193   8.427  0.2707  0.2516  0.6421
 5426TIP3   OH237836   0.126   4.012   8.058 -0.3726  0.0795 -0.1876
 5426TIP3    H137837   0.074   3.947   8.011 -1.3546  0.5100  0.2505
 5426TIP3    H237838   0.212   4.009   8.018 -0.5787 -1.0595 -0.5746
 5427TIP3   OH237839   5.124   6.668   1.836  0.5234  0.0408 -0.4424
 5427TIP3    H137840   5.169   6.622   1.765  2.6956  1.4671 -0.1038
 5427TIP3    H237841   5.038   6.689   1.801  0.9084 -0.8390 -2.0036
 5428TIP3   OH237842   2.691   5.732   2.263 -0.0891  0.2838  0.5226
 5428TIP3    H137843   2.610   5.771   2.229 -1.0657 -0.8849  1.4072
 5428TIP3    H237844   2.666   5.697   2.349  1.4676  0.2380  0.9829
 5429TIP3   OH237845   6.157   2.494   2.223  0.9942 -0.0630  0.1108
 5429TIP3    H137846   6.235   2.527   2.267  0.2272  0.9481  0.7605
 5429TIP3    H237847   6.125   2.569   2.172 -0.2329 -0.0593  0.8338
 5430TIP3   OH237848   2.652   2.060   7.323  0.1598  0.1710 -0.6447
 5430TIP3    H137849   2.703   2.141   7.319  0.8782 -0.2836 -0.9656
 5430TIP3    H237850   2.673   2.023   7.409 -0.5651  0.5688 -0.2871
 5431TIP3   OH237851   1.559   5.989   7.440 -0.1121 -0.4602  1.0393
 5431TIP3    H137852   1.555   6.049   7.514  1.3985 -0.5081  1.1789
 5431TIP3    H237853   1.550   5.902   7.479  0.0802 -0.4551  1.0931
 5432TIP3   OH237854   3.110   4.736   1.938 -0.0901  0.3468 -0.2853
 5432TIP3    H137855   3.129   4.775   1.853 -1.3005  0.7078 -0.4057
 5432TIP3    H237856   3.091   4.810   1.995  1.1086  0.1345  0.4279
 5433TIP3   OH237857   6.415   6.163   6.828  0.4441 -0.9420  0.0200
 5433TIP3    H137858   6.470   6.164   6.749  1.3484 -0.4587  0.6456
 5433TIP3    H237859   6.377   6.250   6.832  1.1729 -0.6415  0.6385
 5434TIP3   OH237860   5.758   4.062   1.896  0.0227 -0.5483  0.9591
 5434TIP3    H137861   5.668   4.029   1.902  0.5941 -2.2025  1.0749
 5434TIP3    H237862   5.807   4.007   1.958  0.7738  1.7111  2.4990
 5435TIP3   OH237863   2.656   1.566   1.040 -0.0517  0.2236  0.1935
 5435TIP3    H137864   2.622   1.479   1.061  1.2137 -1.1365 -2.7764
 5435TIP3    H237865   2.702   1.594   1.118 -1.6925 -1.0930  1.7225
 5436TIP3   OH237866   1.807   4.778   8.508 -0.0596 -0.0615 -0.0797
 5436TIP3    H137867   1.899   4.772   8.533  0.1544  1.4054 -0.4495
 5436TIP3    H237868   1.800   4.861   8.460 -1.5361 -0.2360 -0.2100
 5437TIP3   OH237869   5.105   5.248   7.658 -0.2233 -0.5267 -0.2020
 5437TIP3    H137870   5.042   5.206   7.599 -1.1449  1.2930 -0.5788
 5437TIP3    H237871   5.156   5.306   7.601  1.0043 -1.0573  0.3111
 5438TIP3   OH237872   1.582   5.781   2.796  0.1823  0.0226  0.2657
 5438TIP3    H137873   1.565   5.736   2.879  0.7269  0.0745  0.4128
 5438TIP3    H237874   1.654   5.731   2.757 -0.4440 -0.3366 -0.4368
 5439TIP3   OH237875   4.790   6.544   1.683  0.1589 -0.7390  0.2635
 5439TIP3    H137876   4.695   6.556   1.680  0.2728  0.0966 -1.3451
 5439TIP3    H237877   4.819   6.598   1.756 -0.6446 -1.4251  1.1085
 5440TIP3   OH237878   0.458   4.814   8.244  0.1945  0.2562  0.1497
 5440TIP3    H137879   0.428   4.726   8.266  0.8524  0.3736  1.6004
 5440TIP3    H237880   0.388   4.850   8.189  0.1301 -1.3136 -0.8516
 5441TIP3   OH237881   0.200   2.927   6.735  0.5988 -0.2053 -0.1897
 5441TIP3    H137882   0.170   3.014   6.762 -0.7271  0.3102 -2.9517
 5441TIP3    H237883   0.296   2.935   6.733  0.5454  0.9162  0.3977
 5442TIP3   OH237884   4.977   4.166   2.714  0.7117 -0.1603  0.4611
 5442TIP3    H137885   4.972   4.081   2.757  0.4411 -0.0071  0.7358
 5442TIP3    H237886   4.907   4.217   2.753 -0.5158 -0.4831 -1.2167
 5443TIP3   OH237887   5.572   3.293   1.297  0.5243 -0.6054 -0.2982
 5443TIP3    H137888   5.644   3.339   1.340  1.4293 -2.6630  0.5162
 5443TIP3    H237889   5.602   3.279   1.208  0.5291 -0.2073 -0.3594
 5444TIP3   OH237890   0.310   0.455   7.854  0.4803  0.2148  0.3631
 5444TIP3    H137891   0.370   0.509   7.802 -0.1992  0.9951  0.3726
 5444TIP3    H237892   0.223   0.479   7.823  0.0387  0.8133  1.9421
 5445TIP3   OH237893   4.004   2.973   6.861 -0.1314  0.1900  0.0200
 5445TIP3    H137894   4.093   3.008   6.864 -0.2317  0.3844  1.6705
 5445TIP3    H237895   3.966   2.996   6.946 -1.9894  0.6894 -0.8952
 5446TIP3   OH237896   0.968   1.282   2.141 -0.8068 -0.5962 -0.2468
 5446TIP3    H137897   0.902   1.317   2.201 -1.3115 -1.1836 -0.4500
 5446TIP3    H237898   1.025   1.229   2.197 -1.5699 -1.5497 -0.3532
 5447TIP3   OH237899   2.055   1.317   8.651 -0.0728 -0.8269 -0.0880
 5447TIP3    H137900   2.125   1.260   8.683  0.6204  0.5109  0.8440
 5447TIP3    H237901   1.977   1.262   8.655  0.6052 -1.7795  0.6118
 5448TIP3   OH237902   4.182   0.798   1.894 -0.0338  0.7437 -0.2570
 5448TIP3    H137903   4.196   0.763   1.982  0.1439 -0.4896 -0.7531
 5448TIP3    H237904   4.091   0.777   1.874 -0.6878  2.7402  0.3438
 5449TIP3   OH237905   5.459   4.779   2.164  0.1730  0.2742  0.6297
 5449TIP3    H137906   5.491   4.692   2.188  0.1181  0.4762  1.4554
 5449TIP3    H237907   5.537   4.834   2.163  0.2853  0.1195 -0.3997
 5450TIP3   OH237908   0.719   5.169   0.509  0.2949 -0.7443  0.1372
 5450TIP3    H137909   0.742   5.079   0.488  1.5725 -0.1570 -1.1058
 5450TIP3    H237910   0.734   5.218   0.428 -2.9030  0.1885 -0.0290
 5451TIP3   OH237911   5.431   1.911   0.157  0.4569  0.3035  0.3042
 5451TIP3    H137912   5.357   1.856   0.133  1.1278  0.3169 -2.0745
 5451TIP3    H237913   5.469   1.868   0.233 -0.2830 -1.3492 -0.2130
 5452TIP3   OH237914   3.434   6.586   1.561  0.4325  0.2438  0.3692
 5452TIP3    H137915   3.476   6.621   1.640  1.0010 -0.0117  0.1818
 5452TIP3    H237916   3.485   6.508   1.540  1.1691  1.0772 -1.0730
 5453TIP3   OH237917   2.534   6.361   8.214 -0.2958 -0.9313 -0.1287
 5453TIP3    H137918   2.525   6.272   8.181  2.5917 -1.1275 -0.6570
 5453TIP3    H237919   2.577   6.351   8.298  1.1577 -0.0314 -0.7279
 5454TIP3   OH237920   3.405   1.677   1.359  0.6298 -0.8291  0.4767
 5454TIP3    H137921   3.456   1.742   1.310  1.3043 -1.5916  0.1335
 5454TIP3    H237922   3.315   1.692   1.331  0.6409  0.5744  1.1268
 5455TIP3   OH237923   1.488   5.315   1.427 -0.1707 -0.3425  0.2935
 5455TIP3    H137924   1.577   5.307   1.462 -0.3081 -2.0323  0.3296
 5455TIP3    H237925   1.501   5.344   1.336  0.3321  0.8088  0.7148
 5456TIP3   OH237926   5.334   1.323   1.379 -0.1159 -0.2735  0.0827
 5456TIP3    H137927   5.355   1.290   1.466  0.5658  1.4009  0.5838
 5456TIP3    H237928   5.300   1.412   1.394  2.6573  1.1919 -1.5064
 5457TIP3   OH237929   0.604   3.293   0.823 -0.0146 -0.5753 -0.2643
 5457TIP3    H137930   0.694   3.279   0.795 -0.1872 -0.2625 -1.0018
 5457TIP3    H237931   0.603   3.269   0.915  1.2205  1.0529  0.2263
 5458TIP3   OH237932   3.197   1.994   8.256 -0.5600 -0.5767  0.6490
 5458TIP3    H137933   3.166   2.008   8.167  0.5887 -0.0944  0.3022
 5458TIP3    H237934   3.118   1.987   8.309 -1.3478  3.3075  0.2561
 5459TIP3   OH237935   1.439   1.563   3.075 -0.4481  0.2985 -0.3372
 5459TIP3    H137936   1.515   1.531   3.125 -0.4638 -1.4024 -1.3052
 5459TIP3    H237937   1.436   1.656   3.093  0.8136  0.0987  1.1384
 5460TIP3   OH237938   2.475   5.366   1.582  0.3911 -0.5363  0.0424
 5460TIP3    H137939   2.427   5.449   1.579  0.6563 -0.4005 -0.8257
 5460TIP3    H237940   2.566   5.391   1.602  0.2746 -0.7187  0.8400
 5461TIP3   OH237941   1.268   3.132   7.258  0.4903  0.1078  0.3749
 5461TIP3    H137942   1.350   3.166   7.295  1.6382 -0.4210 -1.5014
 5461TIP3    H237943   1.273   3.038   7.275 -1.7833  0.4503  3.8996
 5462TIP3   OH237944   1.432   5.391   0.250  0.1642  0.1592 -0.8481
 5462TIP3    H137945   1.514   5.343   0.240  0.3308  0.1601  0.2970
 5462TIP3    H237946   1.449   5.476   0.211  0.5834  0.0223 -0.9710
 5463TIP3   OH237947   5.009   0.947   0.523  0.4462  0.1185 -1.0327
 5463TIP3    H137948   5.086   0.893   0.540 -1.1220 -3.2275 -3.3008
 5463TIP3    H237949   5.030   0.994   0.442  0.2618 -0.5752 -1.4948
 5464TIP3   OH237950   6.420   2.432   1.870 -0.7513 -0.4634  1.1730
 5464TIP3    H137951   6.425   2.365   1.938  0.4293 -0.4047  1.1747
 5464TIP3    H237952   6.488   2.495   1.894  1.8461 -1.9124 -1.5568
 5465TIP3   OH237953   3.649   4.670   2.616  0.4021 -0.5684 -0.3170
 5465TIP3    H137954   3.730   4.645   2.662 -0.3376  0.9825  2.0254
 5465TIP3    H237955   3.612   4.740   2.670 -2.5112 -1.1958 -1.3276
 5466TIP3   OH237956   0.598   4.386   6.904  0.2389 -0.2302 -0.4762
 5466TIP3    H137957   0.573   4.462   6.956 -0.3818 -0.5216 -0.3461
 5466TIP3    H237958   0.692   4.375   6.923  0.4536  0.7680 -0.8574
 5467TIP3   OH237959   6.129   1.985   2.134  0.3202 -0.5911  0.4689
 5467TIP3    H137960   6.198   1.919   2.146  1.7722  1.2027  2.7466
 5467TIP3    H237961   6.067   1.968   2.205  0.7774  0.5261  1.1586
 5468TIP3   OH237962   3.468   1.896   8.207 -0.3068  0.2372 -0.2871
 5468TIP3    H137963   3.480   1.843   8.128  1.6976 -0.4565  0.4281
 5468TIP3    H237964   3.373   1.903   8.216 -0.5943 -0.4452 -2.2329
 5469TIP3   OH237965   2.086   0.434   1.481 -0.2673 -0.0294  0.0587
 5469TIP3    H137966   2.108   0.464   1.569 -0.0318 -1.3380  0.4519
 5469TIP3    H237967   1.991   0.425   1.482 -0.4100  1.1840 -0.2377
 5470TIP3   OH237968   0.639   4.448   8.031 -0.3175  0.0190 -0.0638
 5470TIP3    H137969   0.687   4.401   7.963 -0.6662 -1.9078  0.9707
 5470TIP3    H237970   0.558   4.398   8.043 -1.7305  2.0822 -0.3828
 5471TIP3   OH237971   0.156   1.498   2.506  0.2402  0.4448 -0.5817
 5471TIP3    H137972   0.135   1.582   2.547  0.4855 -0.1500  0.8527
 5471TIP3    H237973   0.232   1.466   2.555 -0.7037 -1.2558 -0.1228
 5472TIP3   OH237974   4.031   5.303   0.359  0.1228 -0.1241  0.1165
 5472TIP3    H137975   4.017   5.283   0.267 -0.3397 -1.3606  0.4362
 5472TIP3    H237976   4.043   5.398   0.362  1.0229 -0.1683 -1.3167
 5473TIP3   OH237977   5.087   1.364   8.184 -0.2578  0.2529 -0.0640
 5473TIP3    H137978   5.056   1.325   8.266 -0.5052  0.8831  0.1511
 5473TIP3    H237979   5.146   1.299   8.147  1.8328  0.9261  1.8422
 5474TIP3   OH237980   1.672   0.934   0.988  0.0224  0.1868  0.3324
 5474TIP3    H137981   1.666   0.949   0.894  0.4615  0.2118  0.3106
 5474TIP3    H237982   1.581   0.942   1.019 -0.1827 -0.2557 -0.1494
 5475TIP3   OH237983   5.724   1.452   1.781  0.3508  0.3958 -0.0515
 5475TIP3    H137984   5.735   1.415   1.694 -0.9504 -0.1175 -0.0244
 5475TIP3    H237985   5.686   1.381   1.832  1.5891  0.5157  1.0942
 5476TIP3   OH237986   2.159   2.412   8.374  0.0181 -0.3929  0.3309
 5476TIP3    H137987   2.116   2.419   8.460 -0.1652 -1.9274  0.3981
 5476TIP3    H237988   2.252   2.409   8.394 -0.0620 -1.8082  0.5925
 5477TIP3   OH237989   5.323   6.476   1.271  0.1259  0.6159  0.2759
 5477TIP3    H137990   5.251   6.459   1.210  0.7131  0.2327 -0.3366
 5477TIP3    H237991   5.365   6.391   1.283 -0.9177  0.3467  2.4996
 5478TIP3   OH237992   1.885   0.069   8.568 -0.3200  0.2196  0.3446
 5478TIP3    H137993   1.809   0.072   8.626 -0.7233  0.2059 -0.1740
 5478TIP3    H237994   1.849   0.075   8.479 -0.0053 -2.7365 -0.1056
 5479TIP3   OH237995   6.197   3.710   7.895 -0.2485  1.0240  0.0465
 5479TIP3    H137996   6.154   3.701   7.810 -1.2142 -0.2155  0.6413
 5479TIP3    H237997   6.262   3.779   7.882  0.0656  0.4181 -1.8700
 5480TIP3   OH237998   1.516   3.936   2.331  0.2384  0.8968 -0.2808
 5480TIP3    H137999   1.596   3.975   2.367  0.4086 -0.2383  0.6621
 5480TIP3    H238000   1.454   4.008   2.327  1.3826  1.8686 -1.3051
 5481TIP3   OH238001   4.434   1.963   2.182  0.1988  0.1370 -0.2890
 5481TIP3    H138002   4.435   2.047   2.227  2.5876 -0.9926  1.9782
 5481TIP3    H238003   4.394   1.902   2.244 -1.1927 -0.5614 -1.7665
 5482TIP3   OH238004   2.833   4.604   7.088  0.4747 -0.4445  0.2496
 5482TIP3    H138005   2.822   4.581   6.996  2.0629 -0.6581  0.0821
 5482TIP3    H238006   2.770   4.675   7.103  0.9155  0.3177 -1.2862
 5483TIP3   OH238007   0.114   0.439   1.903  0.3466 -0.1556 -0.8672
 5483TIP3    H138008   0.136   0.531   1.890 -0.9703  0.2603 -0.3009
 5483TIP3    H238009   0.180   0.407   1.964 -0.6151  1.0900  0.9023
 5484TIP3   OH238010   3.659   5.520   2.156 -0.2502 -0.3236 -0.1918
 5484TIP3    H138011   3.607   5.442   2.176  0.4863 -0.8371 -0.2354
 5484TIP3    H238012   3.726   5.489   2.094  1.4020 -0.1768  1.4370
 5485TIP3   OH238013   3.313   1.548   8.106  0.1541 -0.4009  0.4641
 5485TIP3    H138014   3.249   1.483   8.075 -0.8922  0.3361  1.0140
 5485TIP3    H238015   3.288   1.629   8.063  2.1180 -0.5301 -1.0729
 5486TIP3   OH238016   0.763   1.910   1.133  1.0435 -0.3170 -0.1801
 5486TIP3    H138017   0.701   1.915   1.060  3.3389  0.3219 -2.1943
 5486TIP3    H238018   0.791   2.001   1.148  2.9660 -0.7774 -0.6947
 5487TIP3   OH238019   1.743   6.611   8.775  0.6739 -0.3994 -0.4189
 5487TIP3    H138020   1.777   6.611   8.685  1.0198  2.6749 -0.4074
 5487TIP3    H238021   1.821   6.601   8.830  0.7594  0.0655 -0.4530
 5488TIP3   OH238022   2.982   0.294   7.806 -0.2229  0.2403  0.4506
 5488TIP3    H138023   2.967   0.241   7.728  0.9103  1.4620 -0.6696
 5488TIP3    H238024   2.987   0.384   7.772  0.9678  0.7209  1.8279
 5489TIP3   OH238025   1.549   1.485   0.925 -0.5364  0.1845 -0.1014
 5489TIP3    H138026   1.598   1.412   0.964 -0.6222  0.0046 -0.3318
 5489TIP3    H238027   1.537   1.546   0.997 -2.3521 -0.9942  0.6553
 5490TIP3   OH238028   5.157   4.827   2.738 -0.0312 -0.1753  0.2547
 5490TIP3    H138029   5.089   4.893   2.727  1.6697  1.3339 -2.0410
 5490TIP3    H238030   5.216   4.864   2.804 -0.1541 -0.3513  0.4636
 5491TIP3   OH238031   4.266   3.864   8.360  0.1898  0.4673 -0.1810
 5491TIP3    H138032   4.219   3.786   8.390  3.0714 -0.5137  2.2205
 5491TIP3    H238033   4.201   3.912   8.309 -2.4071 -2.3177  0.1923
 5492TIP3   OH238034   3.330   2.875   1.054  0.3141 -0.1611  0.0027
 5492TIP3    H138035   3.252   2.876   1.110 -0.6182  1.9046 -1.2207
 5492TIP3    H238036   3.402   2.895   1.114 -0.5538  1.1728  0.6658
 5493TIP3   OH238037   5.614   6.577   1.372  0.0098  0.2195 -0.7764
 5493TIP3    H138038   5.682   6.516   1.401  0.6232  1.7920  1.4069
 5493TIP3    H238039   5.536   6.523   1.361  0.5988 -1.0514  0.7970
 5494TIP3   OH238040   6.159   5.242   1.582 -0.5214 -0.1396  0.4609
 5494TIP3    H138041   6.163   5.257   1.488  1.5281  1.9013  0.7773
 5494TIP3    H238042   6.158   5.147   1.591  0.1996 -0.3919 -1.6153
 5495TIP3   OH238043   4.126   5.920   1.607 -0.0750 -0.0077  0.4301
 5495TIP3    H138044   4.032   5.907   1.615 -0.5716  2.2438 -0.8266
 5495TIP3    H238045   4.164   5.833   1.616 -2.4734 -1.3988 -1.7987
 5496TIP3   OH238046   6.403   1.446   1.113 -0.0908 -0.2459 -0.3281
 5496TIP3    H138047   6.465   1.411   1.049  2.6300  1.9672  0.8827
 5496TIP3    H238048   6.405   1.384   1.186 -0.4520 -0.9360 -0.8987
 5497TIP3   OH238049   3.329   4.159   8.286 -0.1910 -0.4513 -0.2088
 5497TIP3    H138050   3.277   4.121   8.216  1.4579 -2.1875 -0.5586
 5497TIP3    H238051   3.418   4.161   8.252  0.1427  1.8660  0.6000
 5498TIP3   OH238052   6.664   1.418   0.048 -0.2019 -0.6255 -0.6123
 5498TIP3    H138053   6.656   1.506   0.013 -1.3697 -0.4336  0.0886
 5498TIP3    H238054   6.714   1.429   0.129 -1.4469 -0.4142  0.1400
 5499TIP3   OH238055   4.602   0.418   2.544  0.0174  0.1153  0.2932
 5499TIP3    H138056   4.640   0.493   2.591 -3.5467  1.5894  1.1205
 5499TIP3    H238057   4.572   0.359   2.613 -1.5744  0.3206 -0.1888
 5500TIP3   OH238058   3.535   2.851   0.827 -0.5162  0.0704  0.0121
 5500TIP3    H138059   3.592   2.894   0.890 -0.4631 -0.9772  0.7019
 5500TIP3    H238060   3.593   2.794   0.777 -0.2853  1.9549 -2.0397
 5501TIP3   OH238061   0.849   2.869   1.797  0.2856 -0.0265  0.1212
 5501TIP3    H138062   0.894   2.785   1.800  0.3951  0.0518  1.1273
 5501TIP3    H238063   0.893   2.918   1.728 -0.2165 -1.0258 -0.9241
 5502TIP3   OH238064   2.619   5.363   7.656  0.4806  0.4063 -0.7243
 5502TIP3    H138065   2.638   5.450   7.689 -2.2302  0.4707  0.9644
 5502TIP3    H238066   2.575   5.377   7.572 -0.9780  0.7974  0.0690
 5503TIP3   OH238067   4.463   6.696   1.919 -0.2316  0.1381  0.3771
 5503TIP3    H138068   4.456   6.605   1.946 -3.3399  0.0550 -0.3363
 5503TIP3    H238069   4.531   6.696   1.851 -0.6113 -1.7481 -0.0483
 5504TIP3   OH238070   3.995   1.517   2.162 -0.4986 -0.4392 -0.2169
 5504TIP3    H138071   4.013   1.450   2.229  2.2419  0.5759  0.1429
 5504TIP3    H238072   3.913   1.487   2.121 -0.6733 -2.6835  1.5561
 5505TIP3   OH238073   6.433   5.766   2.003  0.0074 -0.4784 -0.1039
 5505TIP3    H138074   6.518   5.774   1.960  0.0059  0.2335  0.0216
 5505TIP3    H238075   6.388   5.697   1.955  0.6883 -0.9173 -0.1174
 5506TIP3   OH238076   1.819   1.295   8.003 -0.0151  0.7126 -0.0709
 5506TIP3    H138077   1.746   1.236   8.023  0.7365 -0.0279  0.5611
 5506TIP3    H238078   1.809   1.313   7.909 -0.4528 -0.1648 -0.2147
 5507TIP3   OH238079   3.237   3.769   1.089 -0.0540  0.0578 -0.4301
 5507TIP3    H138080   3.158   3.782   1.142  0.1542  0.3950 -0.1939
 5507TIP3    H238081   3.304   3.741   1.152 -0.4589 -2.1849 -0.9151
 5508TIP3   OH238082   4.565   0.180   8.398 -0.0949 -0.1758 -0.8001
 5508TIP3    H138083   4.469   0.173   8.396 -0.0842 -0.4732 -0.4907
 5508TIP3    H238084   4.587   0.231   8.321 -0.5801  0.8021 -0.3069
 5509TIP3   OH238085   0.014   0.243   7.551 -0.1416 -0.0478  0.6587
 5509TIP3    H138086  -0.069   0.264   7.508 -0.1635  0.5626  0.9777
 5509TIP3    H238087   0.035   0.323   7.600  1.0652  0.1170 -0.0918
 5510TIP3   OH238088   5.787   2.220   8.527  0.1957 -0.6717  0.3321
 5510TIP3    H138089   5.804   2.314   8.523  0.2890 -0.5875  2.1062
 5510TIP3    H238090   5.850   2.182   8.466  1.1179  0.3168  0.6383
 5511TIP3   OH238091   0.577   0.328   0.003  0.2511  0.7921  0.0760
 5511TIP3    H138092   0.490   0.356  -0.024 -0.4676  1.9208  3.1840
 5511TIP3    H238093   0.612   0.402   0.052  1.9168 -0.5981  1.1169
 5512TIP3   OH238094   6.017   4.345   1.133 -0.2770 -0.2935  0.0187
 5512TIP3    H138095   5.992   4.308   1.048 -0.2043 -1.1967  0.3815
 5512TIP3    H238096   6.092   4.402   1.113 -1.8085  1.5027 -0.8959
 5513TIP3   OH238097   6.204   6.274   2.773  0.0965 -0.6386 -0.3627
 5513TIP3    H138098   6.148   6.352   2.775 -0.9745 -1.3837  1.4524
 5513TIP3    H238099   6.266   6.291   2.702  1.0858  2.7011  1.0686
 5514TIP3   OH238100   1.562   6.451   7.433  0.2511 -0.2616  0.4869
 5514TIP3    H138101   1.591   6.511   7.364 -0.8961  0.5316  0.6665
 5514TIP3    H238102   1.480   6.414   7.400  0.3684 -0.8866  0.8682
 5515TIP3   OH238103   0.335   6.496   1.158 -0.3561  0.3976  0.4683
 5515TIP3    H138104   0.311   6.589   1.164 -0.3298  0.5973 -1.7178
 5515TIP3    H238105   0.259   6.454   1.119  0.7315  0.0943 -1.4761
 5516TIP3   OH238106   4.476   2.376   1.010 -0.1235 -0.3382  0.0711
 5516TIP3    H138107   4.460   2.306   0.947 -1.5392 -0.6671  0.7636
 5516TIP3    H238108   4.568   2.365   1.034 -0.2522 -1.8181 -0.0236
 5517TIP3   OH238109   4.081   4.597   1.672  0.3077  0.2681 -0.1334
 5517TIP3    H138110   4.096   4.513   1.629  0.8605  0.6395 -0.6899
 5517TIP3    H238111   3.996   4.587   1.715  0.8456 -0.9279  0.7048
 5518TIP3   OH238112   3.366   5.384   8.797  0.0643 -0.1176 -0.2824
 5518TIP3    H138113   3.398   5.441   8.727  0.8269  0.4168  0.4873
 5518TIP3    H238114   3.426   5.399   8.870 -1.1702 -0.0865  0.7573
 5519TIP3   OH238115   1.538   5.723   0.372 -0.2044  0.2694  0.5894
 5519TIP3    H138116   1.568   5.778   0.444  0.8114 -0.1578  0.4989
 5519TIP3    H238117   1.458   5.766   0.342 -0.0574  1.0514  1.2666
 5520TIP3   OH238118   2.461   3.566   7.772 -0.2362 -0.1119  0.6429
 5520TIP3    H138119   2.506   3.638   7.728 -0.0066 -0.3707  0.4538
 5520TIP3    H238120   2.456   3.594   7.864  0.2816 -0.0637  0.6606
 5521TIP3   OH238121   6.656   4.125   1.760  0.1877 -0.0425 -0.4054
 5521TIP3    H138122   6.574   4.094   1.799  0.6442  0.6788  1.2456
 5521TIP3    H238123   6.724   4.087   1.816  0.8662  1.3051 -0.2752
 5522TIP3   OH238124   4.214   2.567   2.362 -0.6191 -0.1142 -0.4701
 5522TIP3    H138125   4.248   2.602   2.445 -0.1083  0.7877 -1.0427
 5522TIP3    H238126   4.289   2.521   2.324 -0.0893  1.5309 -1.5432
 5523TIP3   OH238127   6.258   3.975   7.664  0.6366  0.0291  0.2878
 5523TIP3    H138128   6.282   3.889   7.627  1.3821 -0.4117  1.7461
 5523TIP3    H238129   6.178   3.958   7.713 -0.9676  0.8369 -1.9041
 5524TIP3   OH238130   0.749   5.186   0.116 -0.3106  0.0505 -0.0552
 5524TIP3    H138131   0.752   5.164   0.023  1.1044 -0.4727  0.0997
 5524TIP3    H238132   0.840   5.190   0.144 -0.6312  1.8757  0.9434
 5525TIP3   OH238133   3.904   3.257   1.399  0.0189  0.1715 -0.1078
 5525TIP3    H138134   3.964   3.314   1.350 -1.3342  0.5442 -1.3848
 5525TIP3    H238135   3.876   3.310   1.474  2.7197 -0.6783  1.6497
 5526TIP3   OH238136   4.133   2.002   6.879  0.2136  0.0689  0.0487
 5526TIP3    H138137   4.084   1.924   6.854  0.2131  0.5660 -1.6670
 5526TIP3    H238138   4.066   2.068   6.899  0.2140 -0.4123  1.7079
 5527TIP3   OH238139   5.606   4.870   1.446  0.2701 -0.2410  0.3299
 5527TIP3    H138140   5.542   4.800   1.451  1.0722 -0.9203  2.6642
 5527TIP3    H238141   5.685   4.829   1.411  0.3071 -0.1506  0.3056
 5528TIP3   OH238142   3.678   3.574   2.265  0.3805  0.0178 -0.0413
 5528TIP3    H138143   3.615   3.593   2.195  1.5449  2.0506 -0.5966
 5528TIP3    H238144   3.730   3.501   2.230 -1.2581 -1.3336  0.2051
 5529TIP3   OH238145   0.070   4.008   0.716 -0.3429  0.0126 -0.3267
 5529TIP3    H138146   0.085   3.924   0.671 -0.9859 -0.4143  0.2358
 5529TIP3    H238147   0.045   4.068   0.646  0.4602 -0.1650 -0.7876
 5530TIP3   OH238148   4.169   6.636   8.584 -0.2194  0.4367 -0.0353
 5530TIP3    H138149   4.094   6.577   8.576 -0.5885  0.7593  0.8945
 5530TIP3    H238150   4.223   6.596   8.653  0.0959  0.5963 -0.1870
 5531TIP3   OH238151   6.412   2.292   0.014  0.0114  0.6359  0.4886
 5531TIP3    H138152   6.459   2.336  -0.057 -0.2874  1.1277  0.5888
 5531TIP3    H238153   6.474   2.291   0.087  0.2088  0.4103  0.3188
 5532TIP3   OH238154   0.399   2.893   8.085 -0.3943 -0.4331 -0.0239
 5532TIP3    H138155   0.368   2.983   8.091  0.3341 -0.1811  0.0612
 5532TIP3    H238156   0.487   2.900   8.048 -1.1798 -1.2800 -2.2236
 5533TIP3   OH238157   1.017   1.034   0.620  0.1959  0.6489 -0.2544
 5533TIP3    H138158   0.961   1.109   0.638  0.2835  1.0754 -1.6529
 5533TIP3    H238159   1.094   1.071   0.576  0.5250 -0.1950 -0.4205
 5534TIP3   OH238160   0.939   4.263   2.713 -0.5800 -0.6295  0.6763
 5534TIP3    H138161   0.855   4.288   2.674 -0.2776  0.3938  0.6748
 5534TIP3    H238162   0.921   4.179   2.755 -1.5991 -0.4344  0.6552
 5535TIP3   OH238163   2.417   1.986   1.989  0.5048  0.3858  0.2602
 5535TIP3    H138164   2.403   1.897   1.958 -1.4536  0.2404  1.4095
 5535TIP3    H238165   2.511   2.000   1.978  0.7643 -1.5976 -0.5035
 5536TIP3   OH238166   5.518   4.615   7.189  0.1559 -0.1141  0.5160
 5536TIP3    H138167   5.476   4.545   7.139 -0.7751  0.8861 -0.1419
 5536TIP3    H238168   5.500   4.695   7.139  2.3453  0.4536  0.5415
 5537TIP3   OH238169   0.070   2.875   8.205  0.5732  0.4347 -0.1665
 5537TIP3    H138170   0.016   2.836   8.274  0.4179  0.5318 -0.2330
 5537TIP3    H238171   0.053   2.821   8.128  2.0852 -0.7691  0.2963
 5538TIP3   OH238172   3.098   0.596   6.591  0.3185  0.2771  0.0119
 5538TIP3    H138173   3.192   0.599   6.609  0.3205  1.3689 -0.0742
 5538TIP3    H238174   3.065   0.680   6.624 -0.9122 -0.7511  1.4961
 5539TIP3   OH238175   5.559   6.389   8.087 -0.0625  0.4411  1.1846
 5539TIP3    H138176   5.525   6.337   8.160 -0.6922  1.3656  1.5639
 5539TIP3    H238177   5.611   6.458   8.129  2.8426 -1.2256  0.6242
 5540TIP3   OH238178   2.250   4.260   8.095  0.3409 -0.3032 -0.3735
 5540TIP3    H138179   2.340   4.287   8.115  0.8705 -1.7146 -0.6881
 5540TIP3    H238180   2.260   4.180   8.042 -1.0975 -0.1555 -0.9248
 5541TIP3   OH238181   5.478   1.386   1.136 -0.4464  0.0580 -0.1744
 5541TIP3    H138182   5.424   1.388   1.215 -0.9267 -1.4839 -0.4280
 5541TIP3    H238183   5.415   1.375   1.065  0.0992 -0.1592 -0.6233
 5542TIP3   OH238184   6.463   3.935   2.249  0.7892  0.3043  0.0315
 5542TIP3    H138185   6.495   3.848   2.225  0.2212 -0.0283  0.4523
 5542TIP3    H238186   6.433   3.925   2.339  0.5817  0.9013  0.0300
 5543TIP3   OH238187   3.583   5.092   8.588 -0.0744  0.0846 -0.5435
 5543TIP3    H138188   3.499   5.106   8.631 -0.9581  0.8219 -2.4024
 5543TIP3    H238189   3.581   5.001   8.560 -0.2943  0.1196 -0.6465
 5544TIP3   OH238190   2.389   2.738   8.556 -0.3670 -0.3835 -0.1834
 5544TIP3    H138191   2.480   2.724   8.531 -0.7127  0.6902 -2.1823
 5544TIP3    H238192   2.341   2.742   8.474 -2.3474 -1.4868  0.8324
 5545TIP3   OH238193   2.482   2.862   2.307 -0.0668  0.0664  0.0655
 5545TIP3    H138194   2.394   2.870   2.269 -0.8942  2.2596  2.1772
 5545TIP3    H238195   2.488   2.770   2.333 -0.8087 -0.6538 -2.0373
 5546TIP3   OH238196   2.203   1.773   2.263 -0.3322 -0.5189  0.0489
 5546TIP3    H138197   2.233   1.698   2.212 -2.3421  0.1266 -2.3368
 5546TIP3    H238198   2.172   1.736   2.345  1.0960 -1.9195 -0.0097
 5547TIP3   OH238199   0.753   0.507   2.208 -0.6276  0.3516 -0.1134
 5547TIP3    H138200   0.739   0.593   2.246 -0.1929  0.9158 -1.2087
 5547TIP3    H238201   0.774   0.524   2.116  0.5716 -0.8571 -0.0850
 5548TIP3   OH238202   6.384   2.633   1.410  0.2078  0.0138 -0.7894
 5548TIP3    H138203   6.307   2.637   1.354 -1.0189 -0.3107  0.7935
 5548TIP3    H238204   6.365   2.562   1.472  1.1479  0.8364  0.5066
 5549TIP3   OH238205   3.854   0.511   8.707  0.0277  0.6127 -0.0035
 5549TIP3    H138206   3.816   0.599   8.699 -0.2076  0.5080 -0.0238
 5549TIP3    H238207   3.941   0.527   8.746 -0.0836  0.8382  0.1579
 5550TIP3   OH238208   6.718   3.084   6.571  0.1770  0.0045  0.6247
 5550TIP3    H138209   6.738   2.996   6.539 -0.6089  0.5800 -1.6021
 5550TIP3    H238210   6.624   3.095   6.553  0.3225  1.3782  0.6268
 5551TIP3   OH238211   5.688   0.165   0.042  0.0077  0.2290 -0.0180
 5551TIP3    H138212   5.666   0.242  -0.009 -1.7333 -1.1414 -1.4916
 5551TIP3    H238213   5.774   0.184   0.079 -1.2371  3.7356  1.5154
 5552TIP3   OH238214   0.660   1.238   8.604  0.2583  0.0308 -0.2100
 5552TIP3    H138215   0.708   1.264   8.682 -0.1425  1.1102 -0.3147
 5552TIP3    H238216   0.622   1.152   8.627  1.3581 -0.3484  0.2325
 5553TIP3   OH238217   0.115   2.643   7.525 -0.0123 -0.1968 -0.5372
 5553TIP3    H138218   0.139   2.735   7.512 -0.4969 -0.0456 -0.4066
 5553TIP3    H238219   0.192   2.594   7.497  0.8514  0.2924  0.8726
 5554TIP3   OH238220   3.123   2.229   1.166 -0.4718 -0.0739  0.1531
 5554TIP3    H138221   3.117   2.261   1.076 -1.9854  2.0828  0.9348
 5554TIP3    H238222   3.183   2.290   1.209 -0.8483 -0.2487  0.9326
 5555TIP3   OH238223   5.660   4.341   2.079 -0.1699 -0.0383 -0.7063
 5555TIP3    H138224   5.705   4.370   2.000  0.4448  2.1692  0.3723
 5555TIP3    H238225   5.567   4.340   2.055  0.0850 -0.5705 -1.7565
 5556TIP3   OH238226   4.582   3.451   2.094 -0.1448  0.2653 -0.4072
 5556TIP3    H138227   4.564   3.543   2.111 -0.3697 -0.0575  1.1715
 5556TIP3    H238228   4.662   3.452   2.041  1.3109  1.3171  1.6632
 5557TIP3   OH238229   2.801   0.871   2.590  0.2532  0.0200  0.0392
 5557TIP3    H138230   2.832   0.781   2.601 -1.7943 -0.5306  2.0431
 5557TIP3    H238231   2.835   0.918   2.666  1.0632  0.9010 -0.8421
 5558TIP3   OH238232   6.584   2.876   8.626  0.5419  0.1633  0.2578
 5558TIP3    H138233   6.649   2.946   8.631 -0.4348  1.0769  0.4970
 5558TIP3    H238234   6.509   2.910   8.676  0.3089 -1.3467  0.9790
 5559TIP3   OH238235   4.325   5.246   8.256 -0.9103  0.4097 -0.1894
 5559TIP3    H138236   4.316   5.341   8.253 -0.5876  0.4672  0.3915
 5559TIP3    H238237   4.419   5.231   8.262 -0.9710  0.0613 -0.0797
 5560TIP3   OH238238   5.964   0.302   0.942  0.3731 -0.3039  0.5981
 5560TIP3    H138239   5.891   0.314   0.881  1.4268 -0.3987 -0.7349
 5560TIP3    H238240   6.042   0.307   0.887  1.3729 -0.4844  1.9437
 5561TIP3   OH238241   1.794   4.662   0.732  0.1699  0.1540  1.0430
 5561TIP3    H138242   1.747   4.644   0.650  0.3658  0.1306  0.9338
 5561TIP3    H238243   1.835   4.748   0.717  0.9785 -0.2637  0.7548
 5562TIP3   OH238244   4.639   4.126   1.644  0.9326  0.1013  0.3537
 5562TIP3    H138245   4.591   4.044   1.637  0.0384  0.3502  2.5410
 5562TIP3    H238246   4.715   4.104   1.698  1.4488  0.4383 -0.2217
 5563TIP3   OH238247   4.136   5.750   0.316 -0.0742 -0.3722  0.0625
 5563TIP3    H138248   4.137   5.799   0.399 -2.2729  0.4333 -0.3247
 5563TIP3    H238249   4.085   5.672   0.334 -2.0050  0.5958 -0.8667
 5564TIP3   OH238250   4.651   4.100   2.622  0.0520 -0.0744  0.4409
 5564TIP3    H138251   4.687   4.126   2.707  1.7994  0.2912 -0.3793
 5564TIP3    H238252   4.634   4.006   2.632 -1.6675  0.3153  1.8051
 5565TIP3   OH238253   5.341   3.058   8.561  0.1590  0.1658 -0.4268
 5565TIP3    H138254   5.283   3.015   8.499 -0.0034  1.5424 -1.2739
 5565TIP3    H238255   5.345   3.149   8.532  1.3520  0.4999  0.6479
 5566TIP3   OH238256   2.436   3.976   0.155 -0.4469  0.5427  0.1129
 5566TIP3    H138257   2.398   3.921   0.224  1.5773  0.6409  1.3755
 5566TIP3    H238258   2.457   4.058   0.199 -0.8928  1.3281 -1.1048
 5567TIP3   OH238259   3.314   6.112   1.899  0.7002 -0.2815  0.2018
 5567TIP3    H138260   3.369   6.037   1.876 -0.8814 -1.6272  0.6669
 5567TIP3    H238261   3.246   6.076   1.956  0.8017  1.7998  1.7712
 5568TIP3   OH238262   1.918   5.679   0.239 -0.2366  0.5549  0.2422
 5568TIP3    H138263   1.997   5.699   0.291 -0.1750  0.1902  0.2982
 5568TIP3    H238264   1.883   5.600   0.280 -0.5136  0.5970  0.0845
 5569TIP3   OH238265   2.416   6.067   1.708  0.7731 -0.0757 -0.4274
 5569TIP3    H138266   2.403   6.153   1.669  0.5532  0.0604 -0.0610
 5569TIP3    H238267   2.356   6.065   1.782 -1.1401 -1.5108 -1.9249
 5570TIP3   OH238268   5.220   4.065   7.995  0.6072  0.4567  0.0089
 5570TIP3    H138269   5.240   3.986   8.044  1.9673  0.3193 -0.7194
 5570TIP3    H238270   5.205   4.132   8.062  0.6116 -0.1391  0.6113
 5571TIP3   OH238271   5.738   0.588   0.421  0.4616  0.0341 -0.0801
 5571TIP3    H138272   5.788   0.664   0.392 -0.6372 -0.1473 -2.8138
 5571TIP3    H238273   5.742   0.527   0.347  0.2767 -2.0598  1.5414
 5572TIP3   OH238274   2.556   3.259   8.727  0.8428 -0.2460  0.2261
 5572TIP3    H138275   2.517   3.343   8.706  3.2979  0.7653 -0.7743
 5572TIP3    H238276   2.486   3.208   8.766 -0.7152  2.2661  0.9212
 5573TIP3   OH238277   2.458   2.713   7.853  0.0643  0.0343 -0.6048
 5573TIP3    H138278   2.500   2.698   7.938  1.0698  0.0815 -1.0727
 5573TIP3    H238279   2.365   2.699   7.869  0.3662 -1.1588  0.2295
 5574TIP3   OH238280   4.824   4.730   8.791 -0.6542  0.0937  0.6578
 5574TIP3    H138281   4.839   4.786   8.867  0.7439 -0.4640  0.8148
 5574TIP3    H238282   4.852   4.782   8.716 -1.7153  0.5146  0.5248
 5575TIP3   OH238283   4.266   3.144   7.525  0.1678  0.4432 -0.1552
 5575TIP3    H138284   4.315   3.101   7.455 -1.1174  0.0977 -0.8894
 5575TIP3    H238285   4.180   3.101   7.524 -0.9971  2.6280 -0.5746
 5576TIP3   OH238286   4.067   3.304   8.412 -0.3412  0.1872 -0.2632
 5576TIP3    H138287   4.109   3.218   8.417 -1.3668 -0.3221 -0.1733
 5576TIP3    H238288   4.113   3.349   8.341 -0.2771 -0.7133 -0.8103
 5577TIP3   OH238289   3.380   4.876   0.963 -0.0899 -0.0105 -0.4892
 5577TIP3    H138290   3.341   4.809   0.907  0.9729 -0.7770 -0.3263
 5577TIP3    H238291   3.348   4.856   1.051  1.2493 -1.1122 -0.2284
 5578TIP3   OH238292   2.982   5.454   8.456 -0.3225 -0.7373  0.1076
 5578TIP3    H138293   2.941   5.486   8.536 -0.7632  2.9719 -1.3891
 5578TIP3    H238294   3.076   5.464   8.470 -0.4420  2.9026 -0.7209
 5579TIP3   OH238295   5.886   3.609   0.274 -0.3159  0.3217 -0.0621
 5579TIP3    H138296   5.852   3.695   0.301  0.1934  0.3504  0.5062
 5579TIP3    H238297   5.867   3.552   0.349 -0.8072 -0.1102 -0.5078
 5580TIP3   OH238298   3.133   2.659   8.123  0.5884 -0.6108 -0.2691
 5580TIP3    H138299   3.212   2.618   8.158  1.2166  0.5103 -0.3516
 5580TIP3    H238300   3.163   2.740   8.082 -0.7258  0.4126  0.6871
 5581TIP3   OH238301   5.064   0.335   7.644 -0.4759 -0.2259 -0.0030
 5581TIP3    H138302   4.999   0.296   7.586 -0.0087 -1.1016  0.0523
 5581TIP3    H238303   5.139   0.276   7.640  0.3231  0.7686 -0.0553
 5582TIP3   OH238304   6.246   1.072   8.398 -0.1824 -0.5813  0.3370
 5582TIP3    H138305   6.266   1.115   8.481  0.9880 -0.9732  0.2653
 5582TIP3    H238306   6.245   1.142   8.334  0.0969 -0.4372  0.4880
 5583TIP3   OH238307   3.174   4.309   8.776 -0.0123  0.0824 -0.2031
 5583TIP3    H138308   3.258   4.347   8.803  0.9380 -1.0954 -1.3332
 5583TIP3    H238309   3.198   4.224   8.738 -1.8497 -0.7845  0.4948
 5584TIP3   OH238310   1.313   6.763   2.168 -0.0828  0.0946 -0.4375
 5584TIP3    H138311   1.333   6.842   2.219 -1.0348 -0.3361  0.6426
 5584TIP3    H238312   1.358   6.693   2.215  0.4077 -0.0718 -1.1525
 5585TIP3   OH238313   6.720   0.355   1.765  0.0601 -0.3550  0.6363
 5585TIP3    H138314   6.793   0.377   1.823  0.1763 -0.5194  0.5525
 5585TIP3    H238315   6.707   0.434   1.712 -0.1546 -0.1464  0.9991
 5586TIP3   OH238316   6.011   1.547   7.202 -0.0240  0.1986 -0.2942
 5586TIP3    H138317   5.946   1.538   7.272 -0.1893  1.0389 -0.3240
 5586TIP3    H238318   6.095   1.542   7.247  0.0235 -3.4544 -0.5421
 5587TIP3   OH238319   2.647   0.732   1.336  0.4090  0.0014 -0.5041
 5587TIP3    H138320   2.741   0.729   1.354  0.2823 -0.5192  0.1150
 5587TIP3    H238321   2.606   0.707   1.419 -0.2849  0.4866 -0.6924
 5588TIP3   OH238322   6.386   3.439   7.718  0.4070 -0.2652  0.2053
 5588TIP3    H138323   6.296   3.446   7.688  0.9152 -0.2429 -1.4191
 5588TIP3    H238324   6.435   3.498   7.661  1.7349 -1.7957 -0.3215
 5589TIP3   OH238325   2.496   2.552   0.720 -0.5542  0.2492 -0.0796
 5589TIP3    H138326   2.566   2.515   0.667 -1.8409 -0.3538 -1.4205
 5589TIP3    H238327   2.508   2.513   0.807  0.5594 -0.0954 -0.3773
 5590TIP3   OH238328   1.357   4.322   1.323 -0.3884  0.4012  0.2693
 5590TIP3    H138329   1.403   4.299   1.403 -2.6501 -0.2727  1.4494
 5590TIP3    H238330   1.422   4.367   1.270  1.2504  0.6284  2.3624
 5591TIP3   OH238331   0.932   6.703   7.186 -0.1743 -0.4441  0.2646
 5591TIP3    H138332   0.864   6.756   7.144 -0.0443  0.3400  1.0125
 5591TIP3    H238333   0.920   6.719   7.280  0.1737 -1.3791  0.4867
 5592TIP3   OH238334   1.711   1.422   1.873 -0.1438 -0.0303 -0.0377
 5592TIP3    H138335   1.710   1.511   1.907  0.2188  0.1909 -0.6031
 5592TIP3    H238336   1.798   1.389   1.894 -0.2427 -0.2177  0.0809
 5593TIP3   OH238337   4.695   2.014   1.170  0.4446 -0.2838 -0.0325
 5593TIP3    H138338   4.790   2.003   1.167  0.1665 -3.3631 -0.3905
 5593TIP3    H238339   4.669   2.024   1.079  0.2476 -1.8604 -0.1700
 5594TIP3   OH238340   3.778   0.930   6.824  0.3920 -0.1645  0.3757
 5594TIP3    H138341   3.754   0.980   6.746 -0.2357  1.2724  1.4423
 5594TIP3    H238342   3.874   0.927   6.822  0.3601 -2.1843 -1.6348
 5595TIP3   OH238343   1.314   5.462   7.539 -0.0525 -0.4217 -0.7099
 5595TIP3    H138344   1.281   5.465   7.449 -0.4992 -0.3416 -0.5486
 5595TIP3    H238345   1.374   5.536   7.545 -3.0128  2.1577  0.1712
 5596TIP3   OH238346   2.613   5.928   8.307 -0.8171 -0.3989 -0.6067
 5596TIP3    H138347   2.575   5.907   8.392  0.8358  1.9530  0.8582
 5596TIP3    H238348   2.671   5.854   8.287  1.1311  0.2874  1.9210
 5597TIP3   OH238349   4.822   0.239   7.887  0.2941 -0.0701 -0.5257
 5597TIP3    H138350   4.758   0.265   7.821  0.3277  3.5199  0.6350
 5597TIP3    H238351   4.905   0.275   7.857  0.8165 -0.5911  0.2493
 5598TIP3   OH238352   6.668   3.669   1.115 -0.0021  0.2033  0.5924
 5598TIP3    H138353   6.724   3.657   1.037 -0.8617 -0.7534  0.1020
 5598TIP3    H238354   6.622   3.751   1.099 -0.4278 -0.1539 -0.0933
 5599TIP3   OH238355   4.916   4.010   0.120  0.1751 -0.1278  0.2150
 5599TIP3    H138356   4.954   4.026   0.033 -1.0877  2.8164  0.0800
 5599TIP3    H238357   4.987   4.029   0.181  0.1490  1.2072 -0.1322
 5600TIP3   OH238358   4.484   0.748   1.186  0.2192  0.0914 -0.1389
 5600TIP3    H138359   4.444   0.688   1.249 -0.5755 -1.9701 -2.4535
 5600TIP3    H238360   4.567   0.773   1.226 -0.4033 -0.8666  1.8653
 5601TIP3   OH238361   6.615   6.158   0.550  0.3998  0.2194 -0.0779
 5601TIP3    H138362   6.559   6.120   0.617 -0.4772  0.1440 -0.8339
 5601TIP3    H238363   6.688   6.096   0.542  1.9658  1.5102  2.6300
 5602TIP3   OH238364   3.732   2.482   0.829 -0.5191  0.0680  0.0158
 5602TIP3    H138365   3.779   2.536   0.892 -0.3075 -0.7868  0.6099
 5602TIP3    H238366   3.765   2.509   0.743 -1.0036  1.4319  0.2417
 5603TIP3   OH238367   4.551   2.294   1.992 -0.0843 -0.2637 -0.1184
 5603TIP3    H138368   4.641   2.279   1.962  0.3761 -0.2719  1.1667
 5603TIP3    H238369   4.517   2.207   2.011 -0.0431 -0.2040  0.2406
 5604TIP3   OH238370   3.435   4.218   8.729 -0.2222 -0.8951 -0.5144
 5604TIP3    H138371   3.482   4.291   8.689  0.5243 -2.3760 -2.5376
 5604TIP3    H238372   3.495   4.184   8.796 -0.4749  0.1672  0.2628
 5605TIP3   OH238373   1.998   3.508   1.323  0.0329 -0.1976 -0.0171
 5605TIP3    H138374   1.910   3.478   1.300  0.2384 -0.9093  0.0961
 5605TIP3    H238375   2.056   3.455   1.268  0.4205 -0.1763  0.3695
 5606TIP3   OH238376   2.424   4.584   8.014 -0.5559 -0.0023  0.2489
 5606TIP3    H138377   2.338   4.566   7.976  0.0284 -1.0993 -0.6198
 5606TIP3    H238378   2.486   4.540   7.956  0.5870  0.5485  0.9994
 5607TIP3   OH238379   1.879   6.162   8.508 -0.2140  0.3105 -0.0725
 5607TIP3    H138380   1.805   6.219   8.487 -1.9292 -1.3717  1.0599
 5607TIP3    H238381   1.875   6.093   8.442 -0.4372 -0.4353  0.6961
 5608TIP3   OH238382   3.929   1.081   0.294  0.8835  0.4455 -0.0697
 5608TIP3    H138383   4.012   1.056   0.255  1.5815  2.2045  0.1920
 5608TIP3    H238384   3.910   1.012   0.357  2.0139 -0.1152 -0.3276
 5609TIP3   OH238385   0.725   5.867   2.341 -0.0846  0.2054  0.5186
 5609TIP3    H138386   0.760   5.810   2.409 -0.8640 -1.7145 -0.6063
 5609TIP3    H238387   0.802   5.897   2.293  0.4091  0.9650  1.7312
 5610TIP3   OH238388   4.521   2.971   7.664 -0.2419  0.2638  0.0684
 5610TIP3    H138389   4.443   2.969   7.720 -0.8090  1.0172 -0.6775
 5610TIP3    H238390   4.508   2.898   7.604  0.9818 -1.3736  1.6639
 5611TIP3   OH238391   3.188   0.536   2.064  0.2262 -0.1217  0.1656
 5611TIP3    H138392   3.165   0.443   2.062  1.2631 -0.4322 -2.9525
 5611TIP3    H238393   3.283   0.537   2.069  0.1702  0.8731  1.7687
 5612TIP3   OH238394   5.170   3.648   7.431 -0.2257  0.8699  0.4761
 5612TIP3    H138395   5.210   3.566   7.403  0.9698  1.4407  0.4430
 5612TIP3    H238396   5.146   3.692   7.349 -3.8381 -0.7607  0.4573
 5613TIP3   OH238397   0.512   5.036   2.609 -0.4818 -0.9604  0.1262
 5613TIP3    H138398   0.493   5.019   2.516 -0.0460 -1.2642  0.0878
 5613TIP3    H238399   0.595   5.085   2.608  0.8285 -3.0392  0.4340
 5614TIP3   OH238400   4.106   5.629   7.825  0.6100  0.0654 -0.5924
 5614TIP3    H138401   4.017   5.641   7.793  0.5404  0.0087 -0.4210
 5614TIP3    H238402   4.148   5.714   7.813  0.7465 -0.0987 -1.3407
 5615TIP3   OH238403   3.448   1.618   7.734 -0.7369 -0.6923  0.2690
 5615TIP3    H138404   3.355   1.618   7.711 -0.2931  0.3541 -1.7938
 5615TIP3    H238405   3.484   1.692   7.687  1.0880 -0.7905  1.4137
 5616TIP3   OH238406   0.162   4.250   2.977 -0.0286 -0.1953  0.0073
 5616TIP3    H138407   0.247   4.220   3.010 -0.0476 -0.3436 -0.0764
 5616TIP3    H238408   0.103   4.176   2.991  0.0601 -0.4144 -0.7425
 5617TIP3   OH238409   5.353   4.041   2.124  0.4653  0.1884  0.6769
 5617TIP3    H138410   5.264   4.014   2.103 -0.1144  1.8456  0.8718
 5617TIP3    H238411   5.343   4.124   2.169  1.8151 -1.7713  5.1319
 5618TIP3   OH238412   2.259   1.432   7.824 -0.4224  0.2445 -0.6627
 5618TIP3    H138413   2.348   1.399   7.832 -1.4301 -2.7253 -0.5945
 5618TIP3    H238414   2.209   1.383   7.890 -2.4583  0.3987 -2.0133
 5619TIP3   OH238415   0.844   1.546   1.602  0.1243 -1.0362  0.6564
 5619TIP3    H138416   0.767   1.490   1.602 -0.0744 -0.9503 -2.6555
 5619TIP3    H238417   0.809   1.634   1.587  0.8138 -0.8808 -0.0674
 5620TIP3   OH238418   0.339   0.812   2.495 -0.4369 -0.4358 -0.0608
 5620TIP3    H138419   0.298   0.868   2.561  2.9286  1.0265  1.0182
 5620TIP3    H238420   0.410   0.865   2.459  0.7391 -2.8260 -1.5283
 5621TIP3   OH238421   1.644   4.761   1.938 -0.4566 -0.1505  0.1294
 5621TIP3    H138422   1.585   4.692   1.969 -0.2904 -0.1059  0.5564
 5621TIP3    H238423   1.605   4.792   1.857 -1.1183 -0.0004  0.4975
 5622TIP3   OH238424   5.548   0.335   6.611 -0.0438  0.1198  0.1356
 5622TIP3    H138425   5.634   0.298   6.628  0.1824  0.8393  0.5697
 5622TIP3    H238426   5.533   0.319   6.517  0.0924 -0.9592  0.2852
 5623TIP3   OH238427   2.767   2.146   2.858 -0.8005  0.2418 -0.8465
 5623TIP3    H138428   2.718   2.074   2.818 -0.8492  1.5661 -3.3411
 5623TIP3    H238429   2.811   2.106   2.933 -1.3422 -2.2294 -1.7593
 5624TIP3   OH238430   6.658   0.358   2.142  0.1591  0.3674  0.3325
 5624TIP3    H138431   6.614   0.316   2.068 -0.2494 -0.0390  0.7955
 5624TIP3    H238432   6.595   0.424   2.172  0.7519  1.2542 -0.3215
 5625TIP3   OH238433   0.057   3.687   1.672 -0.0743 -1.0813  0.5629
 5625TIP3    H138434   0.087   3.597   1.662  0.3900 -1.2348  2.7444
 5625TIP3    H238435   0.121   3.727   1.730 -1.0006  0.2701  0.7084
 5626TIP3   OH238436   3.064   1.319   7.633  0.5299  0.5889 -0.0373
 5626TIP3    H138437   3.010   1.293   7.558 -0.2804  1.1810  0.3322
 5626TIP3    H238438   3.032   1.266   7.705  1.5177 -0.2070 -0.1534
 5627TIP3   OH238439   6.525   6.062   2.419 -0.2788 -0.1594 -0.0596
 5627TIP3    H138440   6.479   6.029   2.342 -1.7375 -0.0985  0.7599
 5627TIP3    H238441   6.467   6.129   2.455  0.4826 -0.0382  0.9771
 5628TIP3   OH238442   3.163   0.123   0.206 -0.0459 -0.4095 -1.0308
 5628TIP3    H138443   3.153   0.203   0.154  0.0664  0.9485  0.9280
 5628TIP3    H238444   3.256   0.123   0.230 -0.2642 -0.5848 -0.1811
 5629TIP3   OH238445   6.686   0.228   3.101 -0.2766  0.4653  0.1886
 5629TIP3    H138446   6.703   0.167   3.029 -2.3505  1.0450 -0.8968
 5629TIP3    H238447   6.674   0.172   3.177 -3.6371 -0.7727 -1.0583
 5630TIP3   OH238448   1.868   2.705   1.160  0.1243 -0.8895  0.3820
 5630TIP3    H138449   1.906   2.788   1.130 -1.0150 -0.4447  0.1156
 5630TIP3    H238450   1.844   2.659   1.079 -0.3635 -0.9348  0.5507
 5631TIP3   OH238451   5.040   5.416   8.200  0.2170  0.4234  0.0337
 5631TIP3    H138452   5.108   5.469   8.242  1.4131 -1.3626  0.4315
 5631TIP3    H238453   5.087   5.345   8.158 -1.4704 -1.6251  1.3933
 5632TIP3   OH238454   4.607   0.336   8.611  0.6444 -0.1217 -0.5884
 5632TIP3    H138455   4.598   0.277   8.536  0.8309 -0.4644 -0.3457
 5632TIP3    H238456   4.700   0.329   8.636  0.0370 -2.2765  1.4935
 5633TIP3   OH238457   5.691   4.460   0.056  0.0217 -0.3538 -0.2392
 5633TIP3    H138458   5.702   4.528  -0.011 -0.8791  1.1167  1.0464
 5633TIP3    H238459   5.763   4.474   0.117  0.0759 -0.8354 -0.1886
 5634TIP3   OH238460   5.102   5.934   7.336  0.1205 -0.4167 -0.1507
 5634TIP3    H138461   5.134   5.933   7.426 -0.8679  0.7546  0.2400
 5634TIP3    H238462   5.123   5.847   7.302  4.2085  0.3610 -0.1458
 5635TIP3   OH238463   0.861   2.861   0.230  0.4401  0.2197 -0.1672
 5635TIP3    H138464   0.934   2.841   0.288  0.3609 -2.4478 -0.8509
 5635TIP3    H238465   0.788   2.880   0.288  1.0613  0.5071  0.5390
 5636TIP3   OH238466   0.498   4.677   1.012 -0.3267 -0.3635  0.4634
 5636TIP3    H138467   0.546   4.695   0.931  0.5649  0.1187  1.0882
 5636TIP3    H238468   0.531   4.592   1.040  0.4864  0.1506  1.1072
 5637TIP3   OH238469   0.076   2.697   1.956  0.1855  0.3858  0.8949
 5637TIP3    H138470   0.027   2.615   1.957 -1.2705  1.2274  0.6860
 5637TIP3    H238471   0.063   2.733   2.044  0.4976  0.5813  0.8607
 5638TIP3   OH238472   2.664   6.650   2.918  0.4500  0.1343 -0.1091
 5638TIP3    H138473   2.677   6.597   2.997 -0.8377 -0.2188 -0.1125
 5638TIP3    H238474   2.733   6.621   2.858 -0.6364 -2.0948 -0.3753
 5639TIP3   OH238475   4.331   5.529   8.246 -0.1451 -0.2011 -0.2978
 5639TIP3    H138476   4.390   5.587   8.197  1.1248 -0.1319  1.2498
 5639TIP3    H238477   4.368   5.526   8.334 -2.5954  0.0068  0.7992
 5640TIP3   OH238478   0.382   1.603   7.421  0.1070 -0.1384 -0.0757
 5640TIP3    H138479   0.449   1.562   7.366  0.3724  1.0021 -0.6424
 5640TIP3    H238480   0.360   1.684   7.374  0.6328  1.0828  1.7114
 5641TIP3   OH238481   3.840   4.036   1.656  0.0335  0.3010 -0.4483
 5641TIP3    H138482   3.852   4.051   1.750  0.1336  1.3443 -0.6173
 5641TIP3    H238483   3.920   3.992   1.628 -0.1069 -0.2501 -0.0039
 5642TIP3   OH238484   4.412   4.378   7.727 -0.4255 -0.4967  1.0407
 5642TIP3    H138485   4.371   4.459   7.756 -2.8223 -1.1409 -0.3610
 5642TIP3    H238486   4.495   4.376   7.775 -0.8490  2.1223  2.0739
 5643TIP3   OH238487   2.775   4.159   1.422  0.7682  0.2034  0.5265
 5643TIP3    H138488   2.692   4.113   1.430 -0.8999  3.0122  0.7047
 5643TIP3    H238489   2.818   4.119   1.347 -1.5116 -0.2358 -0.6222
 5644TIP3   OH238490   1.243   6.387   1.738  0.4868 -0.0484 -0.0512
 5644TIP3    H138491   1.282   6.464   1.780  0.4032  0.2572 -0.5277
 5644TIP3    H238492   1.317   6.331   1.717  0.7982  0.9821 -1.8730
 5645TIP3   OH238493   2.411   5.860   0.732 -0.5827  0.0359 -0.2680
 5645TIP3    H138494   2.451   5.839   0.648 -0.2555  1.2838 -0.4521
 5645TIP3    H238495   2.336   5.802   0.739  0.5992 -1.5811 -0.4395
 5646TIP3   OH238496   5.106   6.794   8.647  0.0816  0.1892 -0.6349
 5646TIP3    H138497   5.181   6.842   8.684  0.1010  0.2774 -0.7864
 5646TIP3    H238498   5.086   6.840   8.565 -1.4723  1.4636  0.4008
 5647TIP3   OH238499   5.229   6.761   0.666  0.0755  0.4887  0.4684
 5647TIP3    H138500   5.152   6.705   0.675 -1.5045  2.2278 -1.2401
 5647TIP3    H238501   5.198   6.848   0.689  1.8757  1.0500  0.9078
 5648TIP3   OH238502   5.916   0.126   7.819  0.3090  0.2575  0.2911
 5648TIP3    H138503   5.966   0.186   7.763  1.2346 -0.3003  0.4993
 5648TIP3    H238504   5.842   0.178   7.850  0.8064  1.1373  0.0367
 5649TIP3   OH238505   0.429   5.507   1.845  0.5955 -0.1224 -0.0657
 5649TIP3    H138506   0.403   5.575   1.907 -0.3907 -0.2839 -0.2873
 5649TIP3    H238507   0.352   5.493   1.790  0.4563 -2.0191  0.5188
 5650TIP3   OH238508   2.146   3.244   1.263 -0.8911 -0.3447  0.0937
 5650TIP3    H138509   2.179   3.322   1.218 -0.0072 -1.2997 -0.9775
 5650TIP3    H238510   2.176   3.256   1.354 -0.9198  0.6364 -0.0081
 5651TIP3   OH238511   5.770   6.101   0.924  0.2666 -0.1643  0.4658
 5651TIP3    H138512   5.811   6.175   0.968 -0.5046 -0.4871  1.7739
 5651TIP3    H238513   5.686   6.090   0.969 -0.8853 -0.0872 -1.5388
 5652TIP3   OH238514   4.250   5.326   2.896 -0.3756  0.1271 -0.4592
 5652TIP3    H138515   4.184   5.261   2.921  0.1674 -0.7175 -1.1677
 5652TIP3    H238516   4.318   5.318   2.962  1.0939 -2.1551 -2.0720
 5653TIP3   OH238517   2.275   5.326   8.117 -0.2256  0.4224  0.6738
 5653TIP3    H138518   2.307   5.338   8.027  3.9645  1.2274  2.0610
 5653TIP3    H238519   2.240   5.412   8.141 -2.3960 -0.0826 -0.4231
 5654TIP3   OH238520   0.369   5.160   0.070 -0.6955  0.0345 -0.5624
 5654TIP3    H138521   0.335   5.071   0.056 -3.2992  0.6002  1.2916
 5654TIP3    H238522   0.409   5.157   0.157  0.1373  0.4323 -0.9299
 5655TIP3   OH238523   5.427   4.418   7.007  0.0418 -0.1231  0.3223
 5655TIP3    H138524   5.468   4.471   6.939 -2.9947  1.8356 -0.1514
 5655TIP3    H238525   5.371   4.357   6.959 -1.1142  0.3946  0.9710
 5656TIP3   OH238526   0.309   6.571   0.518 -0.4860 -0.0220 -0.0851
 5656TIP3    H138527   0.277   6.542   0.603  0.0009  0.6157  0.3239
 5656TIP3    H238528   0.290   6.665   0.516 -0.2472  0.0213 -0.5696
 5657TIP3   OH238529   4.338   4.963   0.560  0.6365  0.5231  0.9495
 5657TIP3    H138530   4.378   5.010   0.486  0.4257  0.0240  0.5071
 5657TIP3    H238531   4.388   4.882   0.565 -1.4668 -1.0050 -0.8406
 5658TIP3   OH238532   2.998   1.912   0.230 -0.0434  0.0733 -0.4742
 5658TIP3    H138533   3.070   1.886   0.173 -0.3689 -0.5951 -0.5952
 5658TIP3    H238534   2.919   1.884   0.183 -0.4906  2.2630 -1.1161
 5659TIP3   OH238535   3.523   0.399   8.176  0.2238  0.4985  0.6522
 5659TIP3    H138536   3.483   0.475   8.133 -1.5165 -1.5804 -1.6760
 5659TIP3    H238537   3.617   0.414   8.169 -0.0633  2.7339  0.9289
 5660TIP3   OH238538   2.319   4.328   8.627 -0.5572 -0.7295  1.1983
 5660TIP3    H138539   2.359   4.253   8.582 -1.5858 -1.3318  1.2768
 5660TIP3    H238540   2.359   4.404   8.584  0.8595 -1.2993  1.4327
 5661TIP3   OH238541   2.625   4.200   1.973 -0.1257 -0.6579 -0.1507
 5661TIP3    H138542   2.554   4.247   2.015  1.2905 -0.1367  1.8223
 5661TIP3    H238543   2.617   4.110   2.004  0.5787 -0.3969  0.8480
 5662TIP3   OH238544   3.288   5.384   1.264  0.0926  0.3629 -0.0774
 5662TIP3    H138545   3.275   5.381   1.169  1.4731  2.2929 -0.4016
 5662TIP3    H238546   3.299   5.293   1.290 -0.9070 -0.2522 -1.6694
 5663TIP3   OH238547   4.612   6.340   0.528 -0.7878 -0.1444 -0.2290
 5663TIP3    H138548   4.646   6.292   0.604  0.8415  0.6159 -0.4433
 5663TIP3    H238549   4.530   6.296   0.507 -0.8135 -0.9487  1.4051
 5664TIP3   OH238550   2.507   4.676   0.691  0.1579  0.1319 -0.2629
 5664TIP3    H138551   2.443   4.725   0.640  2.0315  0.3610 -2.5635
 5664TIP3    H238552   2.592   4.710   0.663  1.3974 -1.6261  1.0838
 5665TIP3   OH238553   0.814   1.880   7.939 -0.1213 -0.1378 -0.6808
 5665TIP3    H138554   0.878   1.907   7.873  0.6637  0.7823  0.4401
 5665TIP3    H238555   0.861   1.820   7.996 -0.8342 -1.0248 -0.9890
 5666TIP3   OH238556   2.369   0.926   0.927  0.1820 -0.2158  0.2691
 5666TIP3    H138557   2.315   0.881   0.991 -0.1975  0.3167  0.3355
 5666TIP3    H238558   2.457   0.927   0.965  0.0884 -0.4647  0.4868
 5667TIP3   OH238559   1.357   2.041   1.836  0.3011  0.5822 -0.2011
 5667TIP3    H138560   1.302   2.071   1.909  0.4347 -0.1555  0.2123
 5667TIP3    H238561   1.371   1.948   1.853  1.3527  0.6689 -0.5219
 5668TIP3   OH238562   5.817   2.050   7.992  0.0153 -0.1800 -0.3207
 5668TIP3    H138563   5.863   2.002   7.923  1.2934 -0.3795  0.6215
 5668TIP3    H238564   5.825   1.993   8.069 -1.7137 -0.1426 -0.0852
 5669TIP3   OH238565   6.211   3.995   0.228  0.4172  0.4711 -0.3335
 5669TIP3    H138566   6.191   4.027   0.140  0.4001  0.1719 -0.4393
 5669TIP3    H238567   6.125   3.981   0.268  0.4031 -0.3567 -0.6225
 5670TIP3   OH238568   4.833   0.510   7.032 -0.3074 -0.4781 -0.0031
 5670TIP3    H138569   4.839   0.591   7.083 -0.7989 -1.1184  1.1299
 5670TIP3    H238570   4.752   0.469   7.061 -1.0953 -0.4477 -2.0203
 5671TIP3   OH238571   2.622   3.413   1.841 -0.0588  0.5242 -0.0175
 5671TIP3    H138572   2.704   3.436   1.882 -0.1002  2.1438 -0.7869
 5671TIP3    H238573   2.570   3.372   1.911  1.2483 -0.2203  0.5437
 5672TIP3   OH238574   6.142   2.742   1.121  0.2167 -0.0506  0.5118
 5672TIP3    H138575   6.080   2.812   1.100 -1.6008 -1.4072  1.0154
 5672TIP3    H238576   6.192   2.729   1.040 -2.2086 -0.8395 -0.9645
 5673TIP3   OH238577   6.709   6.100   0.938 -0.2772  0.2185 -0.0587
 5673TIP3    H138578   6.787   6.100   0.881  1.3589 -1.9702  1.9633
 5673TIP3    H238579   6.687   6.007   0.947  0.8829  0.1814  4.4477
 5674TIP3   OH238580   3.564   3.267   1.111 -0.2531 -0.2972  0.4746
 5674TIP3    H138581   3.491   3.273   1.171  1.7260  1.3606  2.9364
 5674TIP3    H238582   3.560   3.347   1.059 -0.2681 -0.2934  0.4818
 5675TIP3   OH238583   4.150   4.222   8.143 -0.4181  0.2420  0.1293
 5675TIP3    H138584   4.168   4.273   8.222 -1.7951 -0.6210  1.0606
 5675TIP3    H238585   4.069   4.259   8.108 -0.0726  0.3086 -0.5942
 5676TIP3   OH238586   2.710   3.580   7.550 -0.3096  0.5408  0.1560
 5676TIP3    H138587   2.797   3.609   7.523 -0.4183  0.4285 -0.3213
 5676TIP3    H238588   2.702   3.610   7.641  0.3678  0.2325  0.3246
 5677TIP3   OH238589   4.269   3.583   1.871 -0.5131 -0.1008 -0.3668
 5677TIP3    H138590   4.288   3.644   1.942  1.8144 -1.1916  0.0273
 5677TIP3    H238591   4.268   3.497   1.913  0.3357 -0.7145 -1.5625
 5678TIP3   OH238592   6.658   2.409   8.757  0.1256 -0.0357  0.3255
 5678TIP3    H138593   6.598   2.481   8.740  0.2100 -0.3750 -1.5895
 5678TIP3    H238594   6.741   2.438   8.720  0.3918 -0.7583  0.3511
 5679TIP3   OH238595   1.122   4.152   1.392  0.0183 -0.5518 -0.5589
 5679TIP3    H138596   1.038   4.197   1.393 -0.3020 -1.0855 -1.5773
 5679TIP3    H238597   1.185   4.218   1.362 -0.4476 -0.7511 -2.0580
 5680TIP3   OH238598   1.904   4.434   0.828  0.1561 -0.1186 -0.6439
 5680TIP3    H138599   1.872   4.519   0.799  0.0431 -0.3303 -1.1557
 5680TIP3    H238600   1.938   4.393   0.748  1.0872 -0.1710 -0.2355
 5681TIP3   OH238601   0.880   6.033   2.892  0.4029  0.7126 -0.4900
 5681TIP3    H138602   0.908   6.087   2.817  0.5413  1.8421  0.3474
 5681TIP3    H238603   0.961   5.996   2.927  0.3005 -0.1182 -1.1090
 5682TIP3   OH238604   2.434   1.249   0.455  0.1273  0.2109 -0.1897
 5682TIP3    H138605   2.479   1.326   0.490  0.1260  0.9625 -1.7617
 5682TIP3    H238606   2.499   1.207   0.398  0.4583 -1.5367  1.3921
 5683TIP3   OH238607   1.726   5.700   2.213 -0.0078  0.5916  0.0484
 5683TIP3    H138608   1.803   5.651   2.183 -0.3405 -0.7402  1.2787
 5683TIP3    H238609   1.688   5.737   2.133  2.0564  1.5500 -0.5640
 5684TIP3   OH238610   5.617   0.208   7.878 -0.1236  0.6998 -0.0904
 5684TIP3    H138611   5.526   0.228   7.855  0.1448  0.1045 -1.8784
 5684TIP3    H238612   5.639   0.272   7.945 -1.6935  1.2084 -0.0064
 5685TIP3   OH238613   4.873   1.172   7.363 -0.0236 -0.4945  0.2183
 5685TIP3    H138614   4.900   1.241   7.301 -0.1589 -0.8858 -0.2869
 5685TIP3    H238615   4.855   1.096   7.307 -0.8903 -0.6332  0.6638
 5686TIP3   OH238616   3.411   3.511   8.633 -0.4779  0.0588 -0.5214
 5686TIP3    H138617   3.336   3.540   8.581 -0.8174 -1.1467 -0.7353
 5686TIP3    H238618   3.485   3.559   8.596 -1.1003  1.1738 -0.3945
 5687TIP3   OH238619   3.236   0.774   0.986 -0.3535 -0.0028  0.2766
 5687TIP3    H138620   3.299   0.707   1.011  0.2243 -0.3776 -2.0035
 5687TIP3    H238621   3.216   0.820   1.068  1.0173 -1.4353  1.4681
 5688TIP3   OH238622   2.713   0.354   0.366  0.4256  0.0794  0.3407
 5688TIP3    H138623   2.756   0.302   0.434 -0.0586  0.2762  0.8011
 5688TIP3    H238624   2.620   0.349   0.387  0.3357  0.7493  0.1111
 5689TIP3   OH238625   4.445   2.458   2.194 -0.0408 -0.2649 -0.4274
 5689TIP3    H138626   4.532   2.486   2.222 -0.3668 -0.5972  1.0206
 5689TIP3    H238627   4.461   2.392   2.126  1.0330 -3.1261  2.3682
 5690TIP3   OH238628   5.034   1.577   8.561 -0.9368  0.2973  0.0993
 5690TIP3    H138629   5.033   1.605   8.470  0.0385  0.1781  0.0316
 5690TIP3    H238630   4.961   1.623   8.602 -0.6812  1.2442 -0.4847
 5691TIP3   OH238631   0.504   6.708   0.397  0.4303  0.4708  0.5771
 5691TIP3    H138632   0.466   6.620   0.400  0.5769  0.4108  0.6572
 5691TIP3    H238633   0.453   6.758   0.461  0.7039  0.3060  0.9267
 5692TIP3   OH238634   6.794   6.483   8.759 -0.6897  0.0960 -0.0579
 5692TIP3    H138635   6.805   6.566   8.805 -0.4569  0.3162 -0.5156
 5692TIP3    H238636   6.699   6.467   8.762 -0.8509  0.8537 -0.8005
 5693TIP3   OH238637   4.026   6.524   2.468  0.2072  0.3755 -0.4947
 5693TIP3    H138638   3.947   6.577   2.478  0.7689  1.1318  0.0210
 5693TIP3    H238639   4.046   6.493   2.556  1.6099  1.8778 -0.2249
 5694TIP3   OH238640   4.454   4.632   2.469 -0.4804 -0.3255  0.2868
 5694TIP3    H138641   4.535   4.580   2.467 -1.1294 -1.4471 -2.6864
 5694TIP3    H238642   4.391   4.575   2.513 -0.3220 -0.6037  0.1582
 5695TIP3   OH238643   0.113   5.778   0.212  0.2657 -0.5417  0.1930
 5695TIP3    H138644   0.193   5.726   0.226 -0.0509 -1.0235  0.2409
 5695TIP3    H238645   0.137   5.842   0.145  0.7425 -0.5699  0.3332
 5696TIP3   OH238646   5.342   0.776   1.218  0.1550  0.2250  0.3518
 5696TIP3    H138647   5.276   0.767   1.286  1.7610 -0.3239  1.9130
 5696TIP3    H238648   5.405   0.706   1.236  0.1963 -0.5128 -2.2558
 5697TIP3   OH238649   4.607   5.441   2.775 -0.2807  0.4562  0.3903
 5697TIP3    H138650   4.593   5.488   2.693  1.6127  1.9204  0.8239
 5697TIP3    H238651   4.555   5.488   2.840  0.3012  0.9397  0.5113
 5698TIP3   OH238652   4.816   1.246   8.485 -0.0018 -0.1310  0.3160
 5698TIP3    H138653   4.760   1.168   8.484 -2.1882  1.3104  2.0495
 5698TIP3    H238654   4.775   1.306   8.423  0.2382  0.5388  0.7920
 5699TIP3   OH238655   6.180   6.058   1.374 -0.4113 -0.6754  0.7695
 5699TIP3    H138656   6.236   5.981   1.383 -1.2046 -1.7214 -2.2487
 5699TIP3    H238657   6.241   6.129   1.350 -0.0004 -1.0063  0.8240
 5700TIP3   OH238658   0.467   1.112   1.659 -0.2923  0.0630  0.6047
 5700TIP3    H138659   0.433   1.031   1.697 -1.2090  0.3712  0.4657
 5700TIP3    H238660   0.531   1.083   1.595 -0.7732 -0.5681  0.3901
 5701TIP3   OH238661   3.337   0.097   1.884  0.0536 -0.0037 -0.3613
 5701TIP3    H138662   3.297   0.014   1.859  0.9650 -0.5440 -0.0459
 5701TIP3    H238663   3.306   0.159   1.818 -0.9268 -0.5032 -0.3891
 5702TIP3   OH238664   1.133   3.603   0.762 -0.3584  0.4686  0.0194
 5702TIP3    H138665   1.192   3.554   0.820 -0.7426 -1.2293 -0.9807
 5702TIP3    H238666   1.045   3.574   0.786 -0.6224  0.9155 -0.3860
 5703TIP3   OH238667   1.228   3.432   7.996 -0.0867 -0.0813  0.5208
 5703TIP3    H138668   1.140   3.403   8.018  0.0380 -1.0046 -0.1679
 5703TIP3    H238669   1.262   3.365   7.937  0.9526  0.4388  0.5033
 5704TIP3   OH238670   6.655   6.441   7.909 -0.1275 -0.6075 -0.3261
 5704TIP3    H138671   6.569   6.405   7.930 -0.0503 -0.5123  0.1640
 5704TIP3    H238672   6.637   6.516   7.853 -0.2915 -1.3978 -1.3622
 5705TIP3   OH238673   1.130   5.579   1.427 -0.1622  0.6039 -0.7392
 5705TIP3    H138674   1.060   5.589   1.491  1.0619 -0.4248  0.8423
 5705TIP3    H238675   1.210   5.602   1.475  0.9572 -1.5011 -1.4594
 5706TIP3   OH238676   5.952   2.954   2.382  0.0600 -0.2617  0.8583
 5706TIP3    H138677   5.936   3.048   2.371 -0.6868 -0.4265  0.4163
 5706TIP3    H238678   5.892   2.928   2.452  0.3397 -0.3829  1.0499
 5707TIP3   OH238679   3.828   2.851   2.358 -0.5901  0.2032 -0.4669
 5707TIP3    H138680   3.806   2.894   2.441 -2.9940 -0.1901 -0.8285
 5707TIP3    H238681   3.858   2.922   2.301 -1.5817  0.9438 -0.0953
 5708TIP3   OH238682   4.129   4.267   3.147 -0.7319  0.1091  0.2978
 5708TIP3    H138683   4.040   4.240   3.165 -0.6185 -0.8622 -0.5465
 5708TIP3    H238684   4.145   4.242   3.056 -0.0991  1.6414 -0.0600
 5709TIP3   OH238685   2.942   5.814   0.642  0.3637 -0.1921 -0.3248
 5709TIP3    H138686   3.013   5.756   0.613  0.0305 -1.2566  0.8988
 5709TIP3    H238687   2.983   5.872   0.707  0.4054  0.0712 -0.5857
 5710TIP3   OH238688   4.265   0.748   2.407  0.3581 -0.1480  0.3260
 5710TIP3    H138689   4.241   0.813   2.473 -2.8055 -0.2778 -0.5372
 5710TIP3    H238690   4.243   0.664   2.446  1.5819 -0.5065  0.2920
 5711TIP3   OH238691   5.109   2.118   8.133 -0.1257 -0.0567  0.0684
 5711TIP3    H138692   5.187   2.144   8.083 -0.4877 -0.9669 -1.0172
 5711TIP3    H238693   5.038   2.121   8.069 -1.0839  1.1682  1.1406
 5712TIP3   OH238694   6.691   0.491   0.194  0.3825 -0.5410  0.4423
 5712TIP3    H138695   6.757   0.423   0.199  1.1681  0.1240 -0.5314
 5712TIP3    H238696   6.701   0.528   0.106 -1.0757 -0.2154  0.3927
 5713TIP3   OH238697   4.498   0.793   2.141 -0.0951 -0.4013 -0.3092
 5713TIP3    H138698   4.565   0.775   2.206  1.1613 -0.3003 -1.5171
 5713TIP3    H238699   4.434   0.723   2.152 -1.6365  1.2976  3.0986
 5714TIP3   OH238700   2.408   5.550   0.889 -0.5518 -0.4837  0.1980
 5714TIP3    H138701   2.386   5.463   0.922 -1.1504 -0.2083  0.5378
 5714TIP3    H238702   2.361   5.558   0.807 -1.2790 -0.1197  0.6380
 5715TIP3   OH238703   4.494   5.200   7.587 -0.4918  0.1933 -0.2034
 5715TIP3    H138704   4.585   5.172   7.581  0.3261  2.4188  0.7731
 5715TIP3    H238705   4.454   5.170   7.505  1.2462 -0.3913 -0.8657
 5716TIP3   OH238706   5.801   2.678   0.891 -0.4725 -0.0294  0.4702
 5716TIP3    H138707   5.724   2.646   0.938 -1.5165  0.7669 -0.6226
 5716TIP3    H238708   5.857   2.601   0.882 -2.1465 -1.1965 -0.6426
 5717TIP3   OH238709   3.476   4.864   8.466  0.1445 -0.0517  0.0987
 5717TIP3    H138710   3.409   4.895   8.405  0.2393 -0.3706 -0.1690
 5717TIP3    H238711   3.438   4.785   8.505  1.0096 -1.2044 -1.2790
 5718TIP3   OH238712   2.469   0.819   8.465  0.1289 -0.8059 -0.3221
 5718TIP3    H138713   2.484   0.875   8.541 -0.9520  0.4153 -0.9746
 5718TIP3    H238714   2.505   0.869   8.392  0.7372 -1.7608 -0.6837
 5719TIP3   OH238715   4.262   5.162   0.277  0.1048 -0.4151  0.1215
 5719TIP3    H138716   4.220   5.210   0.205  1.9338 -0.4148 -1.0002
 5719TIP3    H238717   4.191   5.112   0.317 -0.8159 -1.2147 -2.3403
 5720TIP3   OH238718   5.846   2.855   7.201 -0.3678 -0.1728  0.2273
 5720TIP3    H138719   5.921   2.882   7.148 -1.7246 -0.3381 -1.9026
 5720TIP3    H238720   5.816   2.936   7.243  0.3991  0.0666  0.3345
 5721TIP3   OH238721   3.016   1.152   7.871 -0.5770  0.0500 -0.1528
 5721TIP3    H138722   2.931   1.116   7.894 -0.5014 -0.9289 -1.2932
 5721TIP3    H238723   3.078   1.081   7.888 -0.0629  0.5599  0.1366
 5722TIP3   OH238724   0.922   5.483   7.816  0.3343  0.1905  0.0496
 5722TIP3    H138725   1.014   5.482   7.789  0.2563 -0.9492 -0.2476
 5722TIP3    H238726   0.897   5.575   7.813  1.5869  0.5703  0.5600
 5723TIP3   OH238727   6.545   6.609   6.644 -0.3341  0.1660 -0.1462
 5723TIP3    H138728   6.591   6.669   6.703 -0.3582  2.3358 -2.1923
 5723TIP3    H238729   6.452   6.620   6.666 -0.3017  0.4909 -0.1747
 5724TIP3   OH238730   6.404   4.461   0.014  0.5329 -0.0912  0.0856
 5724TIP3    H138731   6.479   4.521   0.018  0.7872 -0.3062 -1.1894
 5724TIP3    H238732   6.443   4.374   0.025  0.6079 -0.2794 -1.5493
 5725TIP3   OH238733   2.577   2.649   0.378  0.0428 -0.0794  0.2347
 5725TIP3    H138734   2.485   2.624   0.383  0.0518 -0.1796 -0.0465
 5725TIP3    H238735   2.588   2.717   0.444 -0.0072 -0.7562  0.9520
 5726TIP3   OH238736   1.654   0.884   2.663 -0.1591 -0.1926 -0.4671
 5726TIP3    H138737   1.661   0.804   2.715 -0.0732  1.3304  2.0018
 5726TIP3    H238738   1.743   0.900   2.632 -0.1505 -0.9590 -0.8660
 5727TIP3   OH238739   4.766   0.457   2.273 -0.0981  0.1354  0.1919
 5727TIP3    H138740   4.715   0.478   2.352 -0.6222  0.7688 -0.3066
 5727TIP3    H238741   4.855   0.485   2.294 -0.1204 -0.1865  0.7513
 5728TIP3   OH238742   3.457   0.936   0.689  0.0330  0.2553  0.0153
 5728TIP3    H138743   3.385   0.998   0.689 -0.5754 -0.4410  0.0460
 5728TIP3    H238744   3.527   0.980   0.640 -0.8092  0.4982 -1.0076
 5729TIP3   OH238745   5.502   1.867   1.118 -0.0616  0.1033 -0.0354
 5729TIP3    H138746   5.580   1.912   1.151  0.0149  0.0271 -0.1123
 5729TIP3    H238747   5.537   1.791   1.071 -0.1837  0.0570 -0.0497
 5730TIP3   OH238748   2.919   4.296   7.556 -0.2431  0.4764 -0.1593
 5730TIP3    H138749   2.854   4.338   7.499 -0.2747  1.7067  0.7340
 5730TIP3    H238750   2.883   4.305   7.644  1.1643  1.2761  0.3711
 5731TIP3   OH238751   4.291   3.694   8.775  0.4244 -0.1359  0.1578
 5731TIP3    H138752   4.353   3.621   8.781 -0.7830 -1.2270 -0.0423
 5731TIP3    H238753   4.280   3.724   8.865 -0.8665 -1.8287  0.6315
 5732TIP3   OH238754   2.177   4.351   0.158  0.3393 -0.8428 -0.3211
 5732TIP3    H138755   2.249   4.349   0.221 -0.2649  0.1830  0.4234
 5732TIP3    H238756   2.110   4.406   0.199 -1.1327 -2.2566 -0.7141
 5733TIP3   OH238757   2.866   3.141   2.529 -0.1394  0.5799  0.3914
 5733TIP3    H138758   2.901   3.219   2.573  0.0392  0.8645 -0.2427
 5733TIP3    H238759   2.780   3.127   2.569 -1.1528  2.4262 -0.9803
 5734TIP3   OH238760   1.226   0.217   1.273  0.1969  0.7905  0.2783
 5734TIP3    H138761   1.204   0.225   1.366  1.0698  0.7205  0.4945
 5734TIP3    H238762   1.319   0.237   1.268 -0.0398  1.7307 -0.7204
 5735TIP3   OH238763   5.220   2.412   1.728 -0.2794 -0.3864  0.5423
 5735TIP3    H138764   5.215   2.355   1.652 -0.0648  0.3912 -0.0770
 5735TIP3    H238765   5.143   2.391   1.780 -0.9907 -0.2141 -0.4190
 5736TIP3   OH238766   3.420   6.338   2.753 -0.1202  0.5682 -0.7521
 5736TIP3    H138767   3.494   6.322   2.810 -0.2686  0.5881 -0.5536
 5736TIP3    H238768   3.345   6.299   2.798 -0.6332  2.4253  0.1219
 5737TIP3   OH238769   0.904   2.284   0.637  0.1454  0.1866  0.6328
 5737TIP3    H138770   0.835   2.220   0.650 -0.8093  0.4542 -2.4051
 5737TIP3    H238771   0.985   2.233   0.641 -0.5562 -1.1370 -0.9978
 5738TIP3   OH238772   3.758   1.370   8.392  0.6792 -0.5160 -0.0550
 5738TIP3    H138773   3.698   1.342   8.324  0.0336  0.7999 -0.0506
 5738TIP3    H238774   3.821   1.298   8.400 -1.2318 -2.2367  0.3969
 5739TIP3   OH238775   2.471   3.734   0.407  0.0162 -0.7534 -0.0166
 5739TIP3    H138776   2.409   3.666   0.380  0.2997 -0.5509 -1.1932
 5739TIP3    H238777   2.526   3.692   0.473 -1.8081 -0.7373  1.6313
 5740TIP3   OH238778   4.293   5.087   8.620  0.5659  0.6014  0.3875
 5740TIP3    H138779   4.355   5.015   8.628 -0.3933 -0.4252 -0.9272
 5740TIP3    H238780   4.235   5.062   8.547 -0.2825  2.3387  0.3893
 5741TIP3   OH238781   4.588   3.913   3.050  0.1609  0.4716  0.0518
 5741TIP3    H138782   4.668   3.958   3.024 -0.1233  0.4200 -0.9805
 5741TIP3    H238783   4.518   3.968   3.015 -0.2142 -0.2065 -0.2864
 5742TIP3   OH238784   4.322   2.106   1.064 -0.4276 -0.2372  0.1447
 5742TIP3    H138785   4.362   2.046   1.126 -0.9396  0.3103  1.0182
 5742TIP3    H238786   4.359   2.192   1.087 -0.5595 -0.0417 -0.3584
 5743TIP3   OH238787   6.270   2.315   2.670  0.2926  0.0275 -0.0016
 5743TIP3    H138788   6.205   2.384   2.675 -0.7702 -0.7760 -1.7592
 5743TIP3    H238789   6.351   2.360   2.646 -0.6069  0.6266 -2.1465
 5744TIP3   OH238790   1.289   4.291   8.498  0.0131  0.2060  0.0279
 5744TIP3    H138791   1.378   4.317   8.477  0.9156 -2.1477  0.5663
 5744TIP3    H238792   1.274   4.212   8.445 -1.7547  0.5130 -0.0072
 5745TIP3   OH238793   5.214   3.468   2.100  0.5453  0.2558 -0.4112
 5745TIP3    H138794   5.240   3.394   2.045 -0.7488 -0.1985 -0.4462
 5745TIP3    H238795   5.181   3.428   2.180  1.3068  0.8719  0.2213
 5746TIP3   OH238796   5.239   0.491   8.120 -1.2363  0.3595  0.0876
 5746TIP3    H138797   5.188   0.476   8.199 -1.9108  0.6121 -0.2861
 5746TIP3    H238798   5.266   0.404   8.092 -1.0273  0.2667  0.5716
 5747TIP3   OH238799   1.405   2.561   2.115 -0.2512 -0.1224 -0.0983
 5747TIP3    H138800   1.360   2.634   2.072  0.9899 -0.3829 -1.9593
 5747TIP3    H238801   1.458   2.602   2.183  1.2764  0.9192 -1.8147
 5748TIP3   OH238802   2.552   3.066   8.035  0.1695  0.1134 -0.4637
 5748TIP3    H138803   2.619   3.092   8.099  1.8824 -3.2874 -0.6332
 5748TIP3    H238804   2.474   3.049   8.088  0.1759  1.6454  0.0802
 5749TIP3   OH238805   2.559   6.172   7.412 -0.0881  0.0018  0.0092
 5749TIP3    H138806   2.542   6.266   7.423  2.4814  0.4678  0.6617
 5749TIP3    H238807   2.609   6.167   7.330  0.9154 -0.6263  0.6510
 5750TIP3   OH238808   3.819   4.567   8.679 -0.2426 -0.0975 -0.3739
 5750TIP3    H138809   3.758   4.504   8.639 -2.2432 -0.0068  2.2545
 5750TIP3    H238810   3.863   4.517   8.748  0.7911  0.5181 -0.5706
 5751TIP3   OH238811   6.217   1.478   2.839  0.0527 -0.0048  0.5287
 5751TIP3    H138812   6.284   1.497   2.773 -0.9234 -1.6246 -1.0310
 5751TIP3    H238813   6.184   1.564   2.865  1.3062  0.7303 -0.1972
 5752TIP3   OH238814   4.959   4.976   8.338  0.1693  0.3114  0.5811
 5752TIP3    H138815   4.867   4.995   8.318 -0.5786 -3.1357 -0.0730
 5752TIP3    H238816   4.955   4.909   8.407  2.2361  0.5930  1.0472
 5753TIP3   OH238817   2.358   3.516   7.329  0.2276 -0.0697 -0.2860
 5753TIP3    H138818   2.410   3.589   7.296  0.9557 -0.7674 -0.7028
 5753TIP3    H238819   2.421   3.444   7.339 -0.1408 -0.1871  1.6674
 5754TIP3   OH238820   5.308   2.336   8.295 -0.4125  0.3091 -0.0810
 5754TIP3    H138821   5.222   2.298   8.315 -0.1047 -0.5793 -0.4011
 5754TIP3    H238822   5.369   2.289   8.351 -0.0286  0.3850 -0.4303
 5755TIP3   OH238823   6.273   6.649   8.554  0.5410 -0.5177  0.2273
 5755TIP3    H138824   6.317   6.597   8.621  1.6420 -0.0293 -0.1068
 5755TIP3    H238825   6.238   6.584   8.493  0.6348 -0.9109  0.5870
 5756TIP3   OH238826   3.153   6.630   7.946 -0.4708 -0.1681 -1.0040
 5756TIP3    H138827   3.193   6.550   7.912  1.6212  0.8774 -1.1540
 5756TIP3    H238828   3.177   6.698   7.883 -1.0196  0.8321 -0.1641
 5757TIP3   OH238829   1.626   4.138   0.478  0.1284  0.3967 -0.0979
 5757TIP3    H138830   1.708   4.179   0.506  0.7559 -0.4859 -0.6341
 5757TIP3    H238831   1.649   4.086   0.402 -0.2636 -2.4022  1.5741
 5758TIP3   OH238832   3.339   6.529   2.081 -0.0919  0.1555  0.2833
 5758TIP3    H138833   3.287   6.488   2.011  1.3158  0.8876 -1.2749
 5758TIP3    H238834   3.300   6.498   2.162 -1.2742 -1.4118 -0.8349
 5759TIP3   OH238835   1.029   0.973   0.270  0.1365  0.0503  0.2459
 5759TIP3    H138836   0.978   0.915   0.327  0.1565  0.7635  1.0065
 5759TIP3    H238837   0.993   0.958   0.182 -1.8709  1.0161  0.8493
 5760TIP3   OH238838   0.946   3.831   1.603 -0.5113 -0.2168  0.6596
 5760TIP3    H138839   1.014   3.889   1.568 -0.9868 -1.2974 -2.4087
 5760TIP3    H238840   0.980   3.802   1.687  2.8550 -0.6316 -0.6779
 5761TIP3   OH238841   2.147   0.664   2.351  0.0912 -0.3129 -0.3100
 5761TIP3    H138842   2.114   0.739   2.300  0.7061  0.2106  0.0362
 5761TIP3    H238843   2.188   0.704   2.428  0.6859 -0.9849 -0.2633
 5762TIP3   OH238844   2.704   2.470   8.452 -0.1993  0.3461 -0.6504
 5762TIP3    H138845   2.701   2.564   8.472 -0.4217  0.1092  0.5008
 5762TIP3    H238846   2.755   2.432   8.524  0.5924 -0.3195 -1.5448
 5763TIP3   OH238847   2.202   2.041   1.734  0.3036 -0.4253  0.2969
 5763TIP3    H138848   2.220   2.005   1.821 -0.9717 -0.7662  0.4410
 5763TIP3    H238849   2.222   2.135   1.743  0.8012 -0.5694  0.7630
 5764TIP3   OH238850   1.032   6.175   0.862 -0.1445  0.4899 -0.2632
 5764TIP3    H138851   0.998   6.264   0.860  1.3472  1.0687 -1.3861
 5764TIP3    H238852   1.007   6.137   0.778  0.5163  0.3596 -0.4059
 5765TIP3   OH238853   0.375   5.592   7.889  0.3013  0.2728  0.0298
 5765TIP3    H138854   0.450   5.557   7.842  0.7225 -0.7056  1.3487
 5765TIP3    H238855   0.335   5.655   7.829  1.2218 -0.3858 -1.3140
 5766TIP3   OH238856   1.146   5.028   0.790  0.0712 -0.4742 -0.0525
 5766TIP3    H138857   1.082   4.984   0.733  0.2551 -1.6789  0.6415
 5766TIP3    H238858   1.136   5.121   0.769 -2.2995 -0.5664  0.4014
 5767TIP3   OH238859   2.391   2.271   2.834  0.1962  0.0883  0.0358
 5767TIP3    H138860   2.347   2.196   2.875 -0.8748  0.6048 -0.1413
 5767TIP3    H238861   2.422   2.236   2.750  0.0670 -0.2701  0.1324
 5768TIP3   OH238862   6.112   0.362   8.130  0.0280 -0.5985 -0.5572
 5768TIP3    H138863   6.196   0.406   8.118 -1.1944  1.9520 -0.6063
 5768TIP3    H238864   6.131   0.288   8.187  2.4736 -0.8271 -1.5253
 5769TIP3   OH238865   2.940   6.376   7.027 -0.5026  0.5112  0.2136
 5769TIP3    H138866   3.032   6.355   7.043 -0.6811  0.2740  1.0060
 5769TIP3    H238867   2.938   6.471   7.021  0.0362  0.4411 -1.5079
 5770TIP3   OH238868   4.184   1.314   7.950 -0.2409 -0.0995 -0.3888
 5770TIP3    H138869   4.248   1.381   7.973 -1.1080  0.0896  1.7250
 5770TIP3    H238870   4.233   1.251   7.897  2.0773 -0.6080  2.1428
 5771TIP3   OH238871   3.785   1.321   2.161  0.4671 -0.2933  0.2674
 5771TIP3    H138872   3.708   1.348   2.212  0.2612 -0.3086 -0.0334
 5771TIP3    H238873   3.849   1.295   2.227  0.5766  0.6813  0.5540
 5772TIP3   OH238874   1.310   4.824   0.876  0.2769 -0.1682  0.1224
 5772TIP3    H138875   1.285   4.757   0.812 -0.7126  1.6485 -1.4858
 5772TIP3    H238876   1.259   4.901   0.852  0.9374  1.0330  2.2689
 5773TIP3   OH238877   2.752   0.448   1.245 -0.5050  0.1315  0.0587
 5773TIP3    H138878   2.811   0.425   1.318  1.2555 -1.1433 -1.6515
 5773TIP3    H238879   2.715   0.532   1.270  0.4131 -0.0228  2.2057
 5774TIP3   OH238880   5.539   1.419   0.711 -0.1800 -0.2594  0.0807
 5774TIP3    H138881   5.604   1.399   0.778 -1.3971  0.8377  1.6657
 5774TIP3    H238882   5.465   1.362   0.732 -1.1278  1.1046  0.6052
 5775TIP3   OH238883   5.598   4.005   2.257 -0.0401 -0.0524  0.5070
 5775TIP3    H138884   5.572   4.079   2.312  1.4158  0.5093  0.4668
 5775TIP3    H238885   5.515   3.972   2.220 -0.7212  1.4495  0.6476
 5776TIP3   OH238886   2.290   2.646   7.109  0.0675 -0.3755  0.2213
 5776TIP3    H138887   2.217   2.593   7.140 -1.5716  0.0026 -2.6531
 5776TIP3    H238888   2.252   2.733   7.094  1.2299 -0.0125 -0.8132
 5777TIP3   OH238889   6.527   3.075   2.615  0.0692 -0.5297  0.0151
 5777TIP3    H138890   6.483   3.114   2.691  0.5780  0.3757 -0.1447
 5777TIP3    H238891   6.608   3.124   2.606 -0.0955 -0.4552 -1.2796
 5778TIP3   OH238892   3.172   6.321   7.406 -0.0751  0.4085 -0.2633
 5778TIP3    H138893   3.249   6.265   7.410 -0.6296 -0.3136  1.7133
 5778TIP3    H238894   3.205   6.406   7.375  0.9008 -0.7512 -2.5694
 5779TIP3   OH238895   4.140   2.397   6.995 -0.7040  0.1040 -0.0485
 5779TIP3    H138896   4.094   2.313   7.003 -1.2751  0.1042 -2.4001
 5779TIP3    H238897   4.185   2.391   6.910  0.4875  1.6046  0.4352
 5780TIP3   OH238898   4.797   3.794   0.828  0.2980 -0.5816  0.5298
 5780TIP3    H138899   4.703   3.800   0.815  0.5171 -0.0986 -1.0775
 5780TIP3    H238900   4.808   3.790   0.923 -1.2202  1.8599  0.9087
 5781TIP3   OH238901   1.726   1.315   7.736 -0.3426 -0.6509  0.2486
 5781TIP3    H138902   1.636   1.343   7.723 -0.1233  0.1166  0.3677
 5781TIP3    H238903   1.721   1.219   7.737 -1.1807 -0.6111  0.4781
 5782TIP3   OH238904   4.272   5.103   7.396 -0.3350  0.0150  0.1848
 5782TIP3    H138905   4.260   5.168   7.327  0.1195 -0.4335 -0.3246
 5782TIP3    H238906   4.281   5.020   7.350 -1.2870 -0.4818  0.8420
 5783TIP3   OH238907   3.911   3.167   7.766 -0.1486 -0.0752  0.8091
 5783TIP3    H138908   3.872   3.080   7.767 -0.3041 -0.0337 -0.2378
 5783TIP3    H238909   3.851   3.219   7.712  1.1825  0.0620 -0.6119
 5784TIP3   OH238910   0.258   2.901   0.239 -0.0675  0.2651  0.2944
 5784TIP3    H138911   0.326   2.844   0.204 -0.7337  0.2076 -0.9519
 5784TIP3    H238912   0.299   2.943   0.315  1.3304  0.1750 -0.3765
 5785TIP3   OH238913   0.658   1.152   2.959  0.2125  0.2728  0.2281
 5785TIP3    H138914   0.683   1.234   3.001 -0.5327  0.1975  0.8384
 5785TIP3    H238915   0.736   1.097   2.967  0.4758  0.6737  0.4507
 5786TIP3   OH238916   1.144   5.065   2.252  0.1718 -0.9093  0.4845
 5786TIP3    H138917   1.076   5.120   2.291 -1.7345 -2.4575 -0.5225
 5786TIP3    H238918   1.184   5.020   2.327 -0.9185 -1.0671  0.9971
 5787TIP3   OH238919   4.499   2.705   7.955 -0.0658  0.0615 -0.5033
 5787TIP3    H138920   4.406   2.705   7.976  0.0507  0.8514  0.0473
 5787TIP3    H238921   4.513   2.624   7.907 -0.7024 -0.9594  0.9548
 5788TIP3   OH238922   3.346   4.487   0.949 -0.2321 -0.5953 -0.0724
 5788TIP3    H138923   3.402   4.529   0.883 -1.9328  1.4244 -0.3258
 5788TIP3    H238924   3.400   4.486   1.028  1.5211 -2.2478 -1.1800
 5789TIP3   OH238925   4.069   4.218   2.274 -0.3750 -0.5388 -0.1774
 5789TIP3    H138926   4.032   4.202   2.361 -2.1497  2.9647 -0.0892
 5789TIP3    H238927   4.150   4.267   2.291  0.5307 -1.8529 -0.5301
 5790TIP3   OH238928   6.451   5.409   2.145 -0.1079 -0.0322  0.6060
 5790TIP3    H138929   6.530   5.458   2.165  0.0125  0.0399 -0.0171
 5790TIP3    H238930   6.451   5.402   2.049 -1.5888  1.2305  0.4751
 5791TIP3   OH238931   5.605   6.628   8.760 -0.0689 -0.0855  0.2167
 5791TIP3    H138932   5.583   6.721   8.759 -0.7263 -0.2297 -1.0394
 5791TIP3    H238933   5.678   6.620   8.699 -0.8632 -0.5645 -0.7003
 5792TIP3   OH238934   1.167   3.529   8.278 -0.0813 -0.1236 -0.0885
 5792TIP3    H138935   1.094   3.506   8.335 -0.9875  1.8865 -0.3403
 5792TIP3    H238936   1.126   3.541   8.192  0.8663 -0.7813 -0.6409
 5793TIP3   OH238937   5.183   6.316   1.099 -0.1163  0.1391  0.7772
 5793TIP3    H138938   5.093   6.351   1.101 -0.6997 -1.2403  0.0102
 5793TIP3    H238939   5.175   6.233   1.053  1.8128  0.6430 -0.5824
 5794TIP3   OH238940   5.774   5.772   1.853  0.0468  0.4107  0.1971
 5794TIP3    H138941   5.787   5.831   1.779 -1.1757  0.3403 -0.0985
 5794TIP3    H238942   5.847   5.710   1.848  1.0673  1.5654  0.2133
 5795TIP3   OH238943   6.545   6.195   0.262  0.1132  0.2864  0.7073
 5795TIP3    H138944   6.559   6.163   0.351  1.1698  0.3678  0.5840
 5795TIP3    H238945   6.619   6.160   0.212  0.0365  1.0106  0.0656
 5796TIP3   OH238946   1.727   1.683   7.621  0.0711  0.4021  0.3118
 5796TIP3    H138947   1.667   1.640   7.559  0.8191  0.6894 -0.6326
 5796TIP3    H238948   1.796   1.719   7.566  1.2979 -0.2041  1.4119
 5797TIP3   OH238949   3.472   1.462   1.674 -0.3211  0.3530  0.2824
 5797TIP3    H138950   3.392   1.414   1.650  1.2729 -1.9257 -0.7755
 5797TIP3    H238951   3.508   1.415   1.748  0.7112  0.5647 -0.0626
 5798TIP3   OH238952   5.944   1.900   8.533  0.2722 -0.4050 -0.1317
 5798TIP3    H138953   5.909   1.911   8.444 -0.7017 -0.3034  0.2564
 5798TIP3    H238954   5.876   1.852   8.580  0.3620  0.3632  0.8192
 5799TIP3   OH238955   4.425   1.089   0.274 -0.2792 -0.2061  0.0419
 5799TIP3    H138956   4.493   1.150   0.247 -0.7662  0.4228  0.2332
 5799TIP3    H238957   4.473   1.016   0.314  0.3326 -0.2155 -0.6961
 5800TIP3   OH238958   4.729   2.799   8.718 -0.0889  0.6158 -0.5355
 5800TIP3    H138959   4.796   2.775   8.783 -1.3908  0.1658  0.6903
 5800TIP3    H238960   4.680   2.870   8.759 -1.0824  0.1712 -0.9317
 5801TIP3   OH238961   1.982   4.699   2.283 -0.4611  0.8828  0.3646
 5801TIP3    H138962   1.972   4.696   2.187 -1.5348  1.2755  0.4529
 5801TIP3    H238963   2.076   4.689   2.297 -0.5448 -2.6982 -0.5702
 5802TIP3   OH238964   3.794   5.888   8.142  0.0130 -0.4132 -0.0267
 5802TIP3    H138965   3.730   5.903   8.072 -0.0835 -2.5893 -0.4882
 5802TIP3    H238966   3.878   5.883   8.097  0.2058  0.0956  0.2722
 5803TIP3   OH238967   0.935   1.907   8.723 -0.5382 -0.2124  0.0945
 5803TIP3    H138968   1.016   1.957   8.715 -0.1052 -0.9535 -0.3259
 5803TIP3    H238969   0.940   1.843   8.652 -0.7113 -1.3342  1.0659
 5804TIP3   OH238970   2.043   4.402   0.598 -0.4818  0.0171  0.3439
 5804TIP3    H138971   2.130   4.425   0.567 -0.6367  0.6356  0.3525
 5804TIP3    H238972   2.012   4.336   0.536  0.1617 -0.5493  0.6016
 5805TIP3   OH238973   4.671   4.821   2.910 -0.0738 -0.0782  0.4918
 5805TIP3    H138974   4.708   4.734   2.892  0.7094  0.5540 -1.0738
 5805TIP3    H238975   4.624   4.845   2.830 -0.8699  0.6723  1.1584
 5806TIP3   OH238976   0.875   2.950   1.187 -0.8699  0.7501  0.5162
 5806TIP3    H138977   0.916   2.908   1.263 -1.7669  1.2331  1.2966
 5806TIP3    H238978   0.785   2.917   1.187 -0.5924 -0.0898 -1.0101
 5807TIP3   OH238979   5.382   0.014   1.747  0.0443  0.8388 -0.0617
 5807TIP3    H138980   5.341   0.093   1.782 -0.7408  0.1790  0.5211
 5807TIP3    H238981   5.331  -0.058   1.783  1.1967  0.0235 -0.0080
 5808TIP3   OH238982   4.614   4.693   2.076 -0.1618 -0.4854 -0.9140
 5808TIP3    H138983   4.631   4.599   2.076  2.1925 -0.1753  1.2209
 5808TIP3    H238984   4.677   4.728   2.012  1.7132 -0.0866  1.0477
 5809TIP3   OH238985   5.171   0.753   1.431 -0.4600  0.3537 -0.2079
 5809TIP3    H138986   5.174   0.707   1.514 -0.2817 -0.8916 -0.8869
 5809TIP3    H238987   5.160   0.845   1.455 -1.0575 -0.0579  1.1587
 5810TIP3   OH238988   2.264   6.655   1.126 -0.4376  0.4208 -0.2304
 5810TIP3    H138989   2.323   6.722   1.090 -0.0118 -0.5028 -1.3124
 5810TIP3    H238990   2.182   6.701   1.141 -0.0615  1.2549 -0.6691
 5811TIP3   OH238991   5.598   3.930   7.853  0.2131 -0.0716 -0.4207
 5811TIP3    H138992   5.516   3.945   7.806 -0.6972 -1.1906  0.7229
 5811TIP3    H238993   5.655   3.886   7.790 -0.3732 -0.0362 -0.9777
 5812TIP3   OH238994   4.173   1.589   2.456 -0.5523 -0.2785  0.3335
 5812TIP3    H138995   4.241   1.568   2.520 -0.6474  0.2571  0.6194
 5812TIP3    H238996   4.107   1.638   2.506 -0.3933  0.5789 -0.2695
 5813TIP3   OH238997   3.329   2.317   0.621 -0.0435  0.1390 -0.1386
 5813TIP3    H138998   3.366   2.316   0.533  1.0025 -0.5582  0.2930
 5813TIP3    H238999   3.346   2.229   0.656  0.7302  0.7825  1.2245
 5814TIP3   OH239000   1.920   3.254   8.610 -0.4902  0.2521 -0.3855
 5814TIP3    H139001   1.924   3.349   8.611 -2.1241  0.3713  1.2531
 5814TIP3    H239002   1.845   3.234   8.554  0.0639 -0.0863 -1.0087
 5815TIP3   OH239003   3.032   3.192   7.841 -0.4704  0.0129  0.1961
 5815TIP3    H139004   2.976   3.256   7.798 -0.1189  0.4972  0.4570
 5815TIP3    H239005   3.097   3.244   7.888  2.4132 -0.4332 -2.9126
 5816TIP3   OH239006   0.417   0.952   0.487  0.1359 -0.3155  0.0753
 5816TIP3    H139007   0.479   0.887   0.520  0.6107  0.4432  0.7112
 5816TIP3    H239008   0.353   0.963   0.557 -0.2989 -0.5429 -0.2786
 5817TIP3   OH239009   2.185   4.355   6.970 -0.9459  0.2705  0.3116
 5817TIP3    H139010   2.232   4.334   7.051 -1.2650 -0.3077  0.3521
 5817TIP3    H239011   2.239   4.321   6.900 -1.7656 -1.3289  0.4072
 5818TIP3   OH239012   6.253   5.568   0.255  0.2359 -0.0388 -0.1577
 5818TIP3    H139013   6.236   5.630   0.185  1.3265  2.1266  1.3640
 5818TIP3    H239014   6.336   5.527   0.232  0.9136  1.1319  0.1416
 5819TIP3   OH239015   0.173   1.562   7.857  0.1993  0.1211 -0.0903
 5819TIP3    H139016   0.176   1.594   7.767 -4.2006  1.9373  0.1625
 5819TIP3    H239017   0.222   1.627   7.907 -0.0611  0.8832 -0.8095
 5820TIP3   OH239018   1.546   0.963   0.046  0.5917  0.4365  0.3506
 5820TIP3    H139019   1.567   0.876   0.013 -1.1011  0.9348 -2.3461
 5820TIP3    H239020   1.452   0.960   0.065  0.3780  1.7924 -0.3608
 5821TIP3   OH239021   0.384   4.890   1.495 -0.1760  0.4880 -0.1692
 5821TIP3    H139022   0.305   4.835   1.492 -0.1194  0.0667  2.8483
 5821TIP3    H239023   0.455   4.829   1.473  0.0866 -1.3931  4.7098
 5822TIP3   OH239024   0.294   1.424   8.377 -0.0557  0.1994  0.3722
 5822TIP3    H139025   0.213   1.463   8.409  0.0570  0.2093  0.6495
 5822TIP3    H239026   0.276   1.402   8.285  0.8560  3.7035 -0.7867
 5823TIP3   OH239027   2.805   4.468   2.345 -0.4135 -0.2631 -0.0322
 5823TIP3    H139028   2.872   4.461   2.413  2.0096 -0.7897 -2.2991
 5823TIP3    H239029   2.811   4.385   2.297 -1.7774  0.2345 -1.1253
 5824TIP3   OH239030   2.700   5.901   0.193  0.6677  0.4366  0.0024
 5824TIP3    H139031   2.750   5.919   0.114 -0.2845 -2.5120 -1.4128
 5824TIP3    H239032   2.691   5.806   0.195 -1.5727  0.5820  2.2938
 5825TIP3   OH239033   0.554   0.506   6.948 -0.2445  0.2293  0.0811
 5825TIP3    H139034   0.521   0.594   6.930  1.4995  0.7965 -0.6192
 5825TIP3    H239035   0.640   0.504   6.905  0.8262 -0.9714  2.1295
 5826TIP3   OH239036   5.902   6.400   1.698 -0.1897  0.5200  0.3745
 5826TIP3    H139037   5.866   6.395   1.786  0.0570  0.7300  0.4857
 5826TIP3    H239038   5.862   6.325   1.652  0.6433 -0.3418  1.0089
 5827TIP3   OH239039   6.340   6.307   1.860  0.2749 -0.4240  0.3769
 5827TIP3    H139040   6.275   6.377   1.853  0.5114 -0.0168  1.9515
 5827TIP3    H239041   6.329   6.273   1.948  3.4348  0.9107  1.4178
 5828TIP3   OH239042   6.126   4.964   1.600  0.5050 -0.4256  0.0747
 5828TIP3    H139043   6.069   4.978   1.525  1.0575 -1.0396 -0.4715
 5828TIP3    H239044   6.067   4.940   1.672  0.0670 -0.8569 -0.4262
 5829TIP3   OH239045   5.742   1.124   7.403  0.0937 -0.0423 -0.4007
 5829TIP3    H139046   5.814   1.066   7.375 -1.1482 -2.0436  0.3732
 5829TIP3    H239047   5.711   1.164   7.321  0.3735 -1.2105 -1.1051
 5830TIP3   OH239048   5.773   1.346   2.074 -0.0326  0.0016  0.0053
 5830TIP3    H139049   5.701   1.305   2.027  1.9160 -3.6704 -0.1935
 5830TIP3    H239050   5.818   1.398   2.008 -0.2486 -0.9478 -0.9135
 5831TIP3   OH239051   0.773   2.110   7.501  0.3195 -0.3240  0.3606
 5831TIP3    H139052   0.842   2.170   7.530  1.6801 -1.2240 -0.8806
 5831TIP3    H239053   0.773   2.116   7.406  1.2392 -3.0103  0.1026
 5832TIP3   OH239054   1.369   4.691   1.809  0.1496 -0.2488 -0.2740
 5832TIP3    H139055   1.297   4.699   1.747 -0.4118  0.9708  0.4948
 5832TIP3    H239056   1.329   4.665   1.891  0.2685  2.1672  0.6337
 5833TIP3   OH239057   2.309   4.293   2.390 -0.0257  0.0514  0.1459
 5833TIP3    H139058   2.372   4.347   2.438 -1.6988  0.5144  1.9343
 5833TIP3    H239059   2.224   4.319   2.425 -1.2767 -0.3592 -2.3825
 5834TIP3   OH239060   3.064   5.388   7.770  0.2780 -0.4517 -0.3353
 5834TIP3    H139061   3.028   5.477   7.768  0.4104 -0.3934 -2.1042
 5834TIP3    H239062   3.155   5.398   7.741 -0.4558 -1.4002 -3.3128
 5835TIP3   OH239063   4.874   2.656   0.812  0.4104  0.1349 -0.0607
 5835TIP3    H139064   4.923   2.635   0.891  2.1111  2.0476 -0.5022
 5835TIP3    H239065   4.813   2.725   0.839  0.0946 -0.1050 -0.1562
 5836TIP3   OH239066   0.678   4.945   1.705  0.2489  0.6714  0.5061
 5836TIP3    H139067   0.711   5.034   1.713  0.0920  0.8983 -1.1144
 5836TIP3    H239068   0.641   4.925   1.791  1.1078  1.8156  1.1697
 5837TIP3   OH239069   5.439   6.335   1.872  0.1402  0.6606 -0.2024
 5837TIP3    H139070   5.397   6.310   1.955 -0.3855 -0.2970 -0.7502
 5837TIP3    H239071   5.420   6.263   1.812  1.1295  1.0102 -0.9607
 5838TIP3   OH239072   1.254   4.591   2.049 -0.0688 -0.2370 -0.5319
 5838TIP3    H139073   1.346   4.568   2.058  0.4745  2.0103  0.3503
 5838TIP3    H239074   1.214   4.515   2.008  2.3958 -0.8100 -2.0665
 5839TIP3   OH239075   2.019   2.144   8.231 -0.5977  0.2052  0.2845
 5839TIP3    H139076   1.951   2.209   8.253 -0.8169 -0.2978  1.1273
 5839TIP3    H239077   1.975   2.060   8.241 -0.0953 -0.0956 -0.0481
 5840TIP3   OH239078   6.154   0.612   2.167 -0.1757  0.1489 -0.3241
 5840TIP3    H139079   6.106   0.636   2.245 -1.6523 -0.1286 -1.1182
 5840TIP3    H239080   6.137   0.519   2.155  0.4710  0.0683 -0.6855
 5841TIP3   OH239081   2.980   1.966   0.795  0.1578  0.8778 -0.5163
 5841TIP3    H139082   2.885   1.970   0.782 -0.0185 -1.8139 -0.5069
 5841TIP3    H239083   3.013   1.913   0.723  1.2592 -0.5573  0.9533
 5842TIP3   OH239084   2.765   2.179   8.474  0.3119 -0.0246  0.7695
 5842TIP3    H139085   2.816   2.099   8.462  1.2752  0.7631 -0.6679
 5842TIP3    H239086   2.749   2.211   8.385 -0.5854  1.0649  1.2963
 5843TIP3   OH239087   4.451   4.732   7.457 -0.0566  0.0800 -0.0468
 5843TIP3    H139088   4.507   4.782   7.397  0.1868 -0.5693 -0.3737
 5843TIP3    H239089   4.464   4.773   7.542  2.1658 -1.0109  0.2073
 5844TIP3   OH239090   6.742   5.142   2.200  0.1815 -0.2038  0.1326
 5844TIP3    H139091   6.778   5.209   2.142 -2.2492 -0.2828 -1.6115
 5844TIP3    H239092   6.758   5.060   2.154  1.6067 -0.7299  1.4563
 5845TIP3   OH239093   3.815   4.752   0.639 -0.2543 -0.8548  0.5227
 5845TIP3    H139094   3.763   4.800   0.703 -2.6768  0.4815 -2.2079
 5845TIP3    H239095   3.900   4.796   0.639 -1.9752  2.8804 -0.9709
 5846TIP3   OH239096   5.188   0.128   7.503 -0.2250  0.0156  0.1502
 5846TIP3    H139097   5.118   0.143   7.440 -0.6104 -0.3963  0.4708
 5846TIP3    H239098   5.269   0.135   7.453 -0.5488 -3.2105 -1.0775
 5847TIP3   OH239099   4.152   0.287   1.570 -0.2674 -0.1417 -0.3089
 5847TIP3    H139100   4.164   0.241   1.653 -0.6705 -0.5412 -0.4729
 5847TIP3    H239101   4.178   0.377   1.589 -0.8574 -0.1108  0.3938
 5848TIP3   OH239102   5.441   3.080   0.655  0.3982 -0.0805 -0.0931
 5848TIP3    H139103   5.410   3.014   0.716 -1.5751  0.5255 -0.3662
 5848TIP3    H239104   5.362   3.122   0.623  1.4784  0.8491 -1.6953
 5849TIP3   OH239105   4.465   2.526   7.736 -0.4774 -0.5930  0.4450
 5849TIP3    H139106   4.373   2.529   7.763 -0.3247 -1.0048  1.0253
 5849TIP3    H239107   4.468   2.579   7.656 -1.1737 -0.3856  0.5481
 5850TIP3   OH239108   4.488   5.981   0.814 -0.3358  1.0807 -0.9274
 5850TIP3    H139109   4.504   5.987   0.908 -1.0860  0.8808 -0.7746
 5850TIP3    H239110   4.439   6.060   0.793 -3.4684 -0.5219 -0.3909
 5851TIP3   OH239111   1.790   6.017   8.742 -0.1031  0.1796 -0.5499
 5851TIP3    H139112   1.696   6.011   8.727 -0.1218  0.0427 -0.3811
 5851TIP3    H239113   1.819   6.090   8.687 -0.2326 -0.0660 -0.9412
 5852TIP3   OH239114   6.532   0.887   0.375 -0.8951 -0.1459 -0.1536
 5852TIP3    H139115   6.520   0.841   0.291 -0.6444 -2.3712  0.9407
 5852TIP3    H239116   6.602   0.838   0.419 -1.4365  0.5823  1.6001
 5853TIP3   OH239117   2.253   0.803   2.561 -0.3132 -0.4645  0.1622
 5853TIP3    H139118   2.208   0.854   2.629 -1.2582 -1.8257  0.6205
 5853TIP3    H239119   2.345   0.802   2.588 -0.4839  0.0145  0.7727
 5854TIP3   OH239120   5.943   6.691   1.085 -0.2937 -0.1885  0.1798
 5854TIP3    H139121   5.935   6.739   1.002 -0.1653  2.0106  1.3447
 5854TIP3    H239122   5.853   6.674   1.111 -0.3635 -0.0013  0.0641
 5855TIP3   OH239123   4.608   3.073   8.361  0.6334 -0.2307  0.1538
 5855TIP3    H139124   4.585   3.040   8.275 -0.4704 -0.5710  0.5703
 5855TIP3    H239125   4.574   3.008   8.423  0.3857  0.5729  0.8915
 5856TIP3   OH239126   0.439   4.924   2.340 -0.4783 -0.0113 -0.1167
 5856TIP3    H139127   0.522   4.959   2.307  0.6999 -1.4867  1.1128
 5856TIP3    H239128   0.463   4.840   2.380 -2.8082 -1.2817 -1.1368
 5857TIP3   OH239129   3.224   2.058   7.997  0.1394 -0.5465 -0.2460
 5857TIP3    H139130   3.253   2.127   8.057 -0.8746  0.7327 -1.1801
 5857TIP3    H239131   3.157   2.100   7.942  0.2270 -1.9886 -1.5217
 5858TIP3   OH239132   0.524   4.684   3.319 -0.2370  0.2782 -0.1283
 5858TIP3    H139133   0.470   4.661   3.244  0.8005  0.1589 -0.8584
 5858TIP3    H239134   0.546   4.776   3.306 -2.7960  1.2799  1.7940
 5859TIP3   OH239135   2.467   1.684   0.652  1.0103 -0.0811  0.2671
 5859TIP3    H139136   2.444   1.685   0.559 -0.6638  0.2346  0.6694
 5859TIP3    H239137   2.502   1.595   0.666  0.1129 -0.5534 -0.3959
 5860TIP3   OH239138   0.291   4.993   7.773  0.0914  0.1507 -0.2820
 5860TIP3    H139139   0.351   5.001   7.847 -0.8812 -0.7304  0.6387
 5860TIP3    H239140   0.348   4.971   7.699  1.0672  0.9100  0.2186
 5861TIP3   OH239141   5.053   0.491   7.900 -0.1283  0.3999 -0.2747
 5861TIP3    H139142   5.069   0.482   7.806 -1.0441  0.0469 -0.4087
 5861TIP3    H239143   5.137   0.471   7.940 -0.0062 -0.5806 -0.9754
 5862TIP3   OH239144   5.935   6.316   7.255 -0.4210  0.1296 -0.8029
 5862TIP3    H139145   5.931   6.230   7.213 -0.7920  0.7492 -2.0863
 5862TIP3    H239146   6.016   6.355   7.222  0.4539 -0.2258  0.8259
 5863TIP3   OH239147   0.375   0.766   1.430  0.3043  0.2775  0.1103
 5863TIP3    H139148   0.410   0.808   1.508  0.2723  0.7878 -0.1524
 5863TIP3    H239149   0.281   0.786   1.432  0.3821  0.6784 -0.3083
 5864TIP3   OH239150   6.162   2.480   1.266 -0.2464 -0.6050  0.2273
 5864TIP3    H139151   6.111   2.559   1.285  2.9011  1.0443  2.8852
 5864TIP3    H239152   6.192   2.492   1.176 -2.0407 -0.2222 -0.3709
 5865TIP3   OH239153   3.669   0.706   1.789  0.1256 -0.3528 -0.2172
 5865TIP3    H139154   3.626   0.709   1.875  1.1052  0.2105  0.2756
 5865TIP3    H239155   3.762   0.697   1.810  0.4638  0.6666 -1.2112
 5866TIP3   OH239156   1.115   0.335   3.090 -0.3551 -0.7758 -0.1457
 5866TIP3    H139157   1.168   0.350   3.012 -0.1582 -1.7667 -0.2196
 5866TIP3    H239158   1.179   0.317   3.159 -0.5547 -0.7084  0.0579
 5867TIP3   OH239159   3.163   0.114   0.614 -0.3239  0.4968 -0.3311
 5867TIP3    H139160   3.201   0.146   0.533 -0.3592  0.2112 -0.4601
 5867TIP3    H239161   3.081   0.163   0.624  0.5529  1.8875  0.4799
 5868TIP3   OH239162   6.473   0.893   6.868 -0.0856  0.8526 -0.1416
 5868TIP3    H139163   6.513   0.806   6.863  0.7983  1.2586 -0.2608
 5868TIP3    H239164   6.501   0.928   6.952 -1.4712  0.5458  0.4746
 5869TIP3   OH239165   1.703   0.089   0.446 -0.2904 -0.1066  0.0807
 5869TIP3    H139166   1.640   0.023   0.476 -0.6713  1.5412  3.4082
 5869TIP3    H239167   1.779   0.076   0.503  0.3997  1.0728 -0.5439
 5870TIP3   OH239168   6.278   4.960   8.699  0.1769 -0.9180  0.1959
 5870TIP3    H139169   6.353   4.985   8.646  0.5431 -0.8392  0.7448
 5870TIP3    H239170   6.308   4.968   8.789 -0.1782 -1.8444  0.4124
 5871TIP3   OH239171   1.118   6.236   7.134  0.9497  0.6572  0.5611
 5871TIP3    H139172   1.076   6.242   7.220  1.5848 -1.4518  1.0921
 5871TIP3    H239173   1.049   6.258   7.072  0.3301  1.6838  1.5811
 5872TIP3   OH239174   0.668   4.695   0.782  0.2495  0.1530  0.0824
 5872TIP3    H139175   0.624   4.703   0.697  0.3906  0.1229  0.0068
 5872TIP3    H239176   0.709   4.780   0.797  2.4541 -0.6427 -1.1113
 5873TIP3   OH239177   5.065   5.566   7.633  0.0458  0.2957  0.1892
 5873TIP3    H139178   5.116   5.504   7.582  1.5017  2.9314 -1.8661
 5873TIP3    H239179   4.974   5.552   7.605  0.3690 -0.6859 -0.4116
 5874TIP3   OH239180   6.025   6.376   0.427 -0.2449  0.0349  0.2366
 5874TIP3    H139181   5.975   6.363   0.507 -1.2567 -0.6770 -0.4861
 5874TIP3    H239182   6.116   6.377   0.456 -0.4499 -2.1056  1.2122
 5875TIP3   OH239183   2.258   2.252   2.378  0.1402  0.1736 -0.7375
 5875TIP3    H139184   2.251   2.259   2.283  2.6619  1.3152 -0.9030
 5875TIP3    H239185   2.223   2.165   2.398 -0.9698  0.1315 -2.5975
 5876TIP3   OH239186   6.103   2.452   0.631 -0.5521 -0.1278 -0.6634
 5876TIP3    H139187   6.136   2.379   0.578 -3.8368 -0.7363 -2.0878
 5876TIP3    H239188   6.122   2.530   0.580 -2.6172 -0.6143 -2.3324
 5877TIP3   OH239189   1.086   5.652   1.109  0.2892 -0.1889 -0.2344
 5877TIP3    H139190   1.024   5.672   1.039 -0.2357 -0.0881  0.2505
 5877TIP3    H239191   1.089   5.556   1.112  1.7785 -0.2265 -1.6594
 5878TIP3   OH239192   4.778   4.174   1.275 -0.2940 -0.2237  0.1889
 5878TIP3    H139193   4.732   4.179   1.191  1.9480 -0.4203 -1.1108
 5878TIP3    H239194   4.813   4.261   1.289  1.7894 -0.8845 -0.5854
 5879TIP3   OH239195   2.657   1.087   1.296  0.0417  0.3804 -0.1081
 5879TIP3    H139196   2.647   1.092   1.391  0.6295  0.3250 -0.0381
 5879TIP3    H239197   2.618   1.003   1.273  0.5977  0.0296  0.1924
 5880TIP3   OH239198   1.748   4.176   1.121 -0.2204 -0.0582 -0.1641
 5880TIP3    H139199   1.822   4.235   1.107 -0.2568  0.2199  0.7406
 5880TIP3    H239200   1.693   4.187   1.043 -1.1059  2.4346  0.6942
 5881TIP3   OH239201   5.443   0.761   7.701 -0.9380 -0.2479  0.0252
 5881TIP3    H139202   5.460   0.806   7.784  0.1280 -1.0595  0.2646
 5881TIP3    H239203   5.386   0.687   7.726  1.4052 -2.0188  0.5367
 5882TIP3   OH239204   4.770   2.681   1.140 -0.1025  0.0414  0.3246
 5882TIP3    H139205   4.676   2.686   1.126  0.0071  0.6321 -0.2329
 5882TIP3    H239206   4.785   2.720   1.226 -0.2682  0.7778  0.0202
 5883TIP3   OH239207   2.203   1.296   1.565  0.5460  0.6342  0.0315
 5883TIP3    H139208   2.214   1.222   1.506  1.3308 -0.9256  2.0066
 5883TIP3    H239209   2.291   1.334   1.573  0.4244  0.9010  0.1431
 5884TIP3   OH239210   1.195   4.825   2.552  0.0137  0.2495  0.6891
 5884TIP3    H139211   1.164   4.748   2.601 -0.5701  1.1331  1.7509
 5884TIP3    H239212   1.248   4.873   2.615  1.0435  0.3191 -0.2166
 5885TIP3   OH239213   0.215   2.469   7.948  0.0777  0.5182  0.3414
 5885TIP3    H139214   0.173   2.549   7.916 -0.0280 -0.1745 -1.3910
 5885TIP3    H239215   0.265   2.497   8.025 -0.5764  2.0852  0.2362
 5886TIP3   OH239216   2.241   4.586   8.229  0.0552 -0.4192  0.7071
 5886TIP3    H139217   2.241   4.493   8.255  1.2725  0.1026  2.8011
 5886TIP3    H239218   2.321   4.596   8.178 -1.1029 -0.9059 -1.3140
 5887TIP3   OH239219   6.182   5.158   2.388  0.1248 -0.0759 -0.0172
 5887TIP3    H139220   6.224   5.216   2.451 -1.2257  0.4529  0.4317
 5887TIP3    H239221   6.160   5.079   2.438  0.9226 -0.5186 -0.3482
 5888TIP3   OH239222   3.333   6.525   1.233  0.0457  0.4113  0.7433
 5888TIP3    H139223   3.341   6.454   1.297  2.1933 -0.6650 -0.6208
 5888TIP3    H239224   3.387   6.596   1.269 -0.3881  0.5894  1.0641
 5889TIP3   OH239225   2.976   2.253   8.015 -0.2740 -0.1799 -0.6864
 5889TIP3    H139226   2.987   2.304   8.095  2.3787 -0.8274 -0.5202
 5889TIP3    H239227   2.937   2.171   8.044 -0.9973  0.2818 -0.3511
 5890TIP3   OH239228   4.405   0.411   2.335  0.5953 -0.0683 -0.1628
 5890TIP3    H139229   4.458   0.402   2.415 -1.8080 -1.7419  1.3611
 5890TIP3    H239230   4.333   0.469   2.360  1.3975  1.9017 -2.1048
 5891TIP3   OH239231   5.535   0.235   0.703  0.0101  0.1570 -0.2541
 5891TIP3    H139232   5.509   0.162   0.647 -1.9627  0.2668  0.4356
 5891TIP3    H239233   5.507   0.313   0.655 -0.2716  0.3240  0.1792
 5892TIP3   OH239234   1.476   2.912   7.295 -0.2243  0.1854  0.4988
 5892TIP3    H139235   1.501   2.996   7.333  0.5646  0.8908 -1.4127
 5892TIP3    H239236   1.507   2.918   7.204 -0.7238 -1.9302  0.1511
 5893TIP3   OH239237   2.992   4.452   0.567  0.5558  0.1198  0.0486
 5893TIP3    H139238   3.070   4.487   0.610  1.8689 -2.2385 -0.2696
 5893TIP3    H239239   2.982   4.364   0.603 -0.5043 -0.5299 -1.7354
 5894TIP3   OH239240   6.129   0.090   1.115  0.6491 -0.7320 -0.0636
 5894TIP3    H139241   6.092   0.146   1.047 -0.4818 -0.6638  0.5867
 5894TIP3    H239242   6.094   0.003   1.097  0.6825 -0.7983  0.1784
 5895TIP3   OH239243   0.700   2.848   7.985 -0.8509  0.3480 -0.1314
 5895TIP3    H139244   0.675   2.918   8.046 -1.5356  0.9443 -1.0819
 5895TIP3    H239245   0.666   2.876   7.900 -2.6634 -1.9268 -0.2571
 5896TIP3   OH239246   1.492   1.403   1.689 -0.2383  0.3945 -0.4473
 5896TIP3    H139247   1.435   1.392   1.766 -0.7239 -1.6388 -1.0432
 5896TIP3    H239248   1.580   1.414   1.725 -0.5373  0.0277  0.4102
 5897TIP3   OH239249   0.604   6.497   2.382 -0.2252  0.7753  0.0867
 5897TIP3    H139250   0.679   6.487   2.441  1.1460  2.5124 -1.2403
 5897TIP3    H239251   0.570   6.584   2.402 -0.6160  0.8122 -0.7238
 5898TIP3   OH239252   1.245   2.752   2.008  0.2109  0.1427 -0.1701
 5898TIP3    H139253   1.171   2.716   1.960  0.4266 -0.6846  0.1110
 5898TIP3    H239254   1.222   2.740   2.100  0.7101 -0.1382 -0.0815
 5899TIP3   OH239255   5.474   0.451   0.547  0.0421  0.1024 -0.6928
 5899TIP3    H139256   5.503   0.417   0.463  1.5461  2.8142 -1.4134
 5899TIP3    H239257   5.479   0.547   0.537  1.0961  0.5517  2.6803
 5900TIP3   OH239258   4.592   1.569   8.337  0.2446  0.4059 -0.0705
 5900TIP3    H139259   4.553   1.642   8.289 -1.1025  0.1594  0.6082
 5900TIP3    H239260   4.591   1.597   8.428  1.0264  0.0917  0.0438
 5901TIP3   OH239261   5.695   4.736   3.147 -0.6347  0.6374  0.6720
 5901TIP3    H139262   5.767   4.695   3.196 -1.6923 -1.5945  0.4915
 5901TIP3    H239263   5.722   4.827   3.135  3.5009 -0.6538 -1.8099
 5902TIP3   OH239264   5.391   5.079   0.588 -0.0166 -0.0505 -0.8343
 5902TIP3    H139265   5.361   4.996   0.627 -2.4035  2.2000  2.7898
 5902TIP3    H239266   5.445   5.053   0.514  1.4270 -4.8626  1.5216
 5903TIP3   OH239267   6.457   0.417   3.051  0.4468  0.4553  0.5053
 5903TIP3    H139268   6.513   0.342   3.070  1.9112  0.5424 -2.8025
 5903TIP3    H239269   6.484   0.484   3.114  2.1713 -0.4045  0.7272
 5904TIP3   OH239270   6.446   2.436   8.173  0.2476  0.4797 -0.1300
 5904TIP3    H139271   6.473   2.419   8.263 -0.4509  0.0487  0.0121
 5904TIP3    H239272   6.447   2.349   8.132 -0.8002  0.4533 -0.1366
 5905TIP3   OH239273   3.342   5.425   8.189 -0.2682  0.0052 -0.3905
 5905TIP3    H139274   3.350   5.334   8.160  1.4793 -0.0321  0.1209
 5905TIP3    H239275   3.275   5.422   8.258 -0.0888 -0.9264 -0.2413
 5906TIP3   OH239276   5.917   4.158   0.948 -0.3619 -0.2248  0.3665
 5906TIP3    H139277   6.009   4.138   0.965 -0.4856 -1.4847 -0.3885
 5906TIP3    H239278   5.875   4.073   0.939 -1.4092  0.3484 -0.3237
 5907TIP3   OH239279   3.823   6.486   1.385  0.0133 -0.3330 -0.3212
 5907TIP3    H139280   3.743   6.538   1.384 -0.1442 -0.5416  0.4160
 5907TIP3    H239281   3.839   6.469   1.478 -0.3232 -2.1917 -0.5713
 5908TIP3   OH239282   5.436   2.570   1.682  0.5133 -0.4895  0.2618
 5908TIP3    H139283   5.485   2.612   1.754 -0.3408  1.3144 -0.1621
 5908TIP3    H239284   5.361   2.530   1.725 -0.3696  1.1797  0.3453
 5909TIP3   OH239285   0.828   2.606   8.054 -0.0275  0.0900 -0.1539
 5909TIP3    H139286   0.881   2.639   7.981 -0.7473 -0.9656 -1.2006
 5909TIP3    H239287   0.766   2.676   8.073  0.5771  0.6214 -0.1391
 5910TIP3   OH239288   3.949   6.162   1.569  0.3166 -0.0643 -0.3538
 5910TIP3    H139289   3.905   6.077   1.558  1.0219 -0.4482 -0.2966
 5910TIP3    H239290   3.991   6.178   1.484  4.4462 -2.2659  0.9781
 5911TIP3   OH239291   2.716   5.765   8.027  0.1638  0.2244 -0.1030
 5911TIP3    H139292   2.754   5.817   7.956  0.0287  2.2065  1.2005
 5911TIP3    H239293   2.624   5.790   8.028 -0.4911 -1.9809 -1.0488
 5912TIP3   OH239294   5.683   0.447   1.713 -0.1275  0.0129  0.1327
 5912TIP3    H139295   5.591   0.429   1.695 -0.2781 -0.7126  1.5614
 5912TIP3    H239296   5.723   0.361   1.725  0.5241  0.3623  0.5249
 5913TIP3   OH239297   4.573   3.711   1.909  0.1305 -0.0846  0.0725
 5913TIP3    H139298   4.536   3.767   1.978  2.7955  2.3258 -0.2632
 5913TIP3    H239299   4.574   3.765   1.831  1.2467 -1.2018 -0.7398
 5914TIP3   OH239300   0.234   4.806   8.536  0.3723  0.0392 -0.2938
 5914TIP3    H139301   0.320   4.802   8.578 -0.4197 -1.0014  1.3056
 5914TIP3    H239302   0.209   4.898   8.542 -0.4156 -0.2713  3.1273
 5915TIP3   OH239303   5.737   2.429   7.152  0.0405 -0.4137 -0.1195
 5915TIP3    H139304   5.700   2.419   7.064  1.3997 -1.3540 -0.6190
 5915TIP3    H239305   5.778   2.344   7.170 -0.1145 -0.1934  1.3897
 5916TIP3   OH239306   5.596   1.473   8.190  0.3576  0.5568 -0.0206
 5916TIP3    H139307   5.513   1.446   8.230  0.0781 -1.4020 -1.7524
 5916TIP3    H239308   5.647   1.509   8.263 -0.5542 -1.7181  1.8828
 5917TIP3   OH239309   4.211   2.733   8.046  0.0961 -0.0117  0.4305
 5917TIP3    H139310   4.166   2.681   8.113  0.5681 -1.8958 -0.6430
 5917TIP3    H239311   4.164   2.817   8.044 -1.8576 -1.0490  0.9945
 5918TIP3   OH239312   4.345   0.923   1.531 -0.0571 -0.7413  0.3229
 5918TIP3    H139313   4.416   0.859   1.531  1.1620  0.5402 -0.1213
 5918TIP3    H239314   4.319   0.930   1.622  0.7851 -0.8298  0.5789
 5919TIP3   OH239315   4.176   0.486   7.743  0.2011  0.0276  0.3856
 5919TIP3    H139316   4.122   0.410   7.763  1.3942 -1.3408 -1.2263
 5919TIP3    H239317   4.184   0.533   7.826 -2.9243  0.0273  0.8083
 5920TIP3   OH239318   1.209   3.299   2.341 -0.1625 -0.8282  0.0945
 5920TIP3    H139319   1.141   3.337   2.396 -0.1797 -1.6284  0.6343
 5920TIP3    H239320   1.272   3.261   2.403  0.2490 -0.9999 -0.4204
 5921TIP3   OH239321   5.381   5.950   2.171  0.3405  0.1650  0.4371
 5921TIP3    H139322   5.439   6.024   2.155  1.1509 -0.0921  1.9687
 5921TIP3    H239323   5.399   5.889   2.100  2.5492 -0.2411  1.2653
 5922TIP3   OH239324   5.586   2.950   8.681 -0.4536 -0.5086 -0.5481
 5922TIP3    H139325   5.557   2.925   8.769 -1.4041  3.9414  0.6132
 5922TIP3    H239326   5.506   2.975   8.635  0.3187 -0.0538 -1.6852
 5923TIP3   OH239327   5.745   1.575   2.540  0.0425  0.5109 -0.3782
 5923TIP3    H139328   5.731   1.522   2.462 -1.4025  0.2218  0.0537
 5923TIP3    H239329   5.673   1.553   2.598 -0.0798  2.2525  0.2051
 5924TIP3   OH239330   0.647   5.451   8.063 -0.4020 -0.3985  1.0678
 5924TIP3    H139331   0.694   5.367   8.054  0.1181 -0.0721  0.7007
 5924TIP3    H239332   0.708   5.507   8.110  0.0244  0.3663 -0.3425
 5925TIP3   OH239333   2.842   0.887   0.017 -0.1161 -0.0281  0.3308
 5925TIP3    H139334   2.878   0.919  -0.065 -0.7610 -0.2648 -0.0561
 5925TIP3    H239335   2.897   0.926   0.085 -0.2984  1.1188 -0.1666
 5926TIP3   OH239336   3.856   2.904   7.747  0.0064  0.1406  0.0665
 5926TIP3    H139337   3.898   2.819   7.758 -1.3036 -0.4433  0.7687
 5926TIP3    H239338   3.772   2.884   7.706 -0.7161  0.9764  1.0814
 5927TIP3   OH239339   5.848   3.680   8.493 -0.2464  0.1918  0.0914
 5927TIP3    H139340   5.807   3.744   8.436 -0.3703  2.8550  2.9062
 5927TIP3    H239341   5.920   3.727   8.535  1.1317 -2.2161  0.6539
 5928TIP3   OH239342   1.112   6.485   2.254 -0.1541  0.8323  0.3015
 5928TIP3    H139343   1.091   6.537   2.332  0.4066  1.0480  0.3135
 5928TIP3    H239344   1.206   6.471   2.260 -0.0117  1.3066 -0.6161
 5929TIP3   OH239345   2.528   2.285   7.546 -0.1028  0.1134  0.6310
 5929TIP3    H139346   2.512   2.266   7.638  2.9504 -1.9396  0.8884
 5929TIP3    H239347   2.485   2.214   7.499 -0.8610  0.6470  0.4913
 5930TIP3   OH239348   1.202   1.903   8.184 -0.2226  0.7025  0.0754
 5930TIP3    H139349   1.191   1.996   8.204  0.2993  0.3507  2.3539
 5930TIP3    H239350   1.245   1.868   8.262 -0.2573 -1.4241 -0.8145
 5931TIP3   OH239351   2.785   4.443   7.358  0.1854  0.5537 -0.0943
 5931TIP3    H139352   2.721   4.514   7.350 -0.0889  0.2253 -0.8497
 5931TIP3    H239353   2.862   4.476   7.312  1.4933  1.9647  2.8339
 5932TIP3   OH239354   4.121   6.647   0.096 -0.1599 -0.2462 -0.0351
 5932TIP3    H139355   4.076   6.693   0.026 -0.8688 -0.6836  0.1215
 5932TIP3    H239356   4.077   6.676   0.176 -1.6178 -2.2770 -0.0406
 5933TIP3   OH239357   6.445   4.655   7.739 -0.9163  0.0833  0.0626
 5933TIP3    H139358   6.412   4.714   7.806  2.4947 -0.1552  2.2106
 5933TIP3    H239359   6.423   4.567   7.772 -1.3097  0.0044 -0.3958
 5934TIP3   OH239360   5.618   0.200   8.315 -0.3245  0.1751 -0.0821
 5934TIP3    H139361   5.536   0.173   8.275  1.1526 -1.3705 -2.2922
 5934TIP3    H239362   5.667   0.119   8.327  1.0285  1.0911  0.8395
 5935TIP3   OH239363   5.008   3.348   1.858  0.2097  0.5101  0.0440
 5935TIP3    H139364   5.065   3.415   1.820  1.2789  0.4279  1.4207
 5935TIP3    H239365   5.068   3.286   1.900 -0.8357 -0.4376  0.1902
 5936TIP3   OH239366   5.215   0.820   8.702  0.4667 -0.2932 -0.6183
 5936TIP3    H139367   5.220   0.912   8.673 -1.7146 -0.0457 -0.4511
 5936TIP3    H239368   5.159   0.823   8.780  0.0146 -1.8065 -0.8535
 5937TIP3   OH239369   5.990   4.586   0.799  0.0672 -0.0929 -0.1039
 5937TIP3    H139370   5.961   4.495   0.804  0.4701 -0.1612  1.1424
 5937TIP3    H239371   5.911   4.637   0.815 -0.3971 -0.1746 -1.9100
 5938TIP3   OH239372   2.172   3.275   2.809 -0.4883  0.0866 -0.3388
 5938TIP3    H139373   2.179   3.188   2.849 -0.4271  0.0417 -0.4462
 5938TIP3    H239374   2.120   3.326   2.871  0.4865  0.3224  0.3062
 5939TIP3   OH239375   3.468   1.085   2.346 -0.8246 -0.3891  0.1383
 5939TIP3    H139376   3.512   1.111   2.266  1.9151  0.0384  1.6631
 5939TIP3    H239377   3.534   1.038   2.396 -2.3965 -0.5723  2.2009
 5940TIP3   OH239378   3.385   2.496   8.523  0.5360 -0.0392  0.3938
 5940TIP3    H139379   3.419   2.584   8.537  1.8015 -0.4808  0.1737
 5940TIP3    H239380   3.451   2.438   8.562  1.0971 -1.0150 -1.8486
 5941TIP3   OH239381   2.128   3.483   2.617 -0.1900 -0.0881 -0.8030
 5941TIP3    H139382   2.086   3.519   2.696 -2.2813  0.8929 -2.2548
 5941TIP3    H239383   2.174   3.405   2.648  0.1116  0.9410  1.5771
 5942TIP3   OH239384   0.996   2.178   7.864  0.5215  0.0929 -0.5805
 5942TIP3    H139385   0.991   2.194   7.769 -0.6799 -1.1726 -0.7574
 5942TIP3    H239386   1.050   2.099   7.872 -1.0857 -1.0176 -0.3833
 5943TIP3   OH239387   2.041   1.504   8.154  0.7027 -0.6129 -0.2610
 5943TIP3    H139388   2.118   1.559   8.143  0.2390  0.1869  0.4247
 5943TIP3    H239389   2.043   1.478   8.246 -0.9832  1.1886  0.3552
 5944TIP3   OH239390   3.382   0.696   0.782 -0.0325  0.6082 -0.0293
 5944TIP3    H139391   3.313   0.736   0.835 -0.2943 -0.6529  0.6371
 5944TIP3    H239392   3.418   0.768   0.730 -1.9671  1.2556 -0.5290
 5945TIP3   OH239393   1.714   1.486   7.216  0.2274 -0.7353 -0.1174
 5945TIP3    H139394   1.798   1.530   7.231  0.1223 -0.7686  0.5922
 5945TIP3    H239395   1.726   1.440   7.133  0.1082  1.1785 -1.2329
 5946TIP3   OH239396   6.406   0.550   8.743  0.2595  0.0222 -0.0255
 5946TIP3    H139397   6.415   0.598   8.660  0.2652 -1.4090 -0.8901
 5946TIP3    H239398   6.320   0.576   8.776 -0.2450 -0.2202 -1.0695
 5947TIP3   OH239399   0.050   6.576   2.727 -0.2207  0.1032 -0.1018
 5947TIP3    H139400   0.081   6.617   2.808 -1.3526 -2.3210  1.7290
 5947TIP3    H239401  -0.037   6.542   2.750 -0.5379 -0.7440 -2.3188
 5948TIP3   OH239402   0.296   1.469   0.527  0.6005 -0.1570  0.6061
 5948TIP3    H139403   0.247   1.397   0.566  0.7449 -0.4001  0.3471
 5948TIP3    H239404   0.365   1.488   0.591  1.9579 -1.7535 -0.2752
 5949TIP3   OH239405   0.191   3.475   7.859  0.1928 -0.4855  0.4340
 5949TIP3    H139406   0.185   3.567   7.832  1.4860 -0.4609  0.1359
 5949TIP3    H239407   0.101   3.447   7.870 -0.2012  1.1689  1.7148
 5950TIP3   OH239408   0.567   0.767   8.032 -0.4683 -0.2312  0.6996
 5950TIP3    H139409   0.622   0.845   8.042  0.7640 -1.0531  0.5044
 5950TIP3    H239410   0.496   0.795   7.973 -0.3082  0.8585  0.9984
 5951TIP3   OH239411   3.013   3.795   1.264 -0.3420 -0.2207 -0.3009
 5951TIP3    H139412   3.022   3.722   1.325 -1.7486  0.5584  0.8884
 5951TIP3    H239413   3.023   3.873   1.318 -0.0491  0.4899 -1.3498
 5952TIP3   OH239414   1.336   3.293   8.261  0.1470 -0.6508 -0.3046
 5952TIP3    H139415   1.292   3.376   8.239  0.0718 -0.7377 -0.4859
 5952TIP3    H239416   1.429   3.312   8.248  0.4340  0.2903  2.4669
 5953TIP3   OH239417   1.621   1.913   2.959  0.1032  0.2741  0.8630
 5953TIP3    H139418   1.636   1.818   2.960 -1.1451  0.0372 -0.0816
 5953TIP3    H239419   1.532   1.923   2.991 -0.6470  0.9100 -1.2574
 5954TIP3   OH239420   3.208   1.717   1.589 -0.5012 -0.2565  0.4726
 5954TIP3    H139421   3.114   1.710   1.572 -1.1225  0.8708  3.0313
 5954TIP3    H239422   3.248   1.655   1.527 -2.7633  0.2492 -1.6366
 5955TIP3   OH239423   4.055   5.468   1.366 -0.0089  0.2806 -0.7885
 5955TIP3    H139424   4.147   5.442   1.367  0.7621  2.2648  3.1070
 5955TIP3    H239425   4.006   5.386   1.373  1.7460 -0.7174  1.0092
 5956TIP3   OH239426   1.649   6.717   2.223 -0.1988  0.3088 -0.7587
 5956TIP3    H139427   1.705   6.750   2.293 -0.8814 -0.1233  0.0125
 5956TIP3    H239428   1.671   6.771   2.147 -0.4893  1.7923  0.1631
 5957TIP3   OH239429   6.244   3.385   0.224 -0.1542 -0.1685  0.1725
 5957TIP3    H139430   6.274   3.296   0.205 -1.4234 -1.2261  2.6929
 5957TIP3    H239431   6.151   3.384   0.201 -0.4822  0.0964  1.4498
 5958TIP3   OH239432   0.369   3.186   1.573 -0.1334  0.4689 -0.2615
 5958TIP3    H139433   0.458   3.190   1.539  0.3609  1.7976  1.0961
 5958TIP3    H239434   0.379   3.174   1.667 -1.3575  1.5626  0.0404
 5959TIP3   OH239435   3.546   2.554   7.881 -0.1376 -0.6875  0.1448
 5959TIP3    H139436   3.586   2.548   7.968 -0.7423 -0.0976  0.4724
 5959TIP3    H239437   3.621   2.555   7.821  0.4706  1.8149  0.8100
 5960TIP3   OH239438   5.563   1.089   2.958 -0.6346  0.4302  0.3981
 5960TIP3    H139439   5.543   1.177   2.928 -0.3708  0.5683  0.6207
 5960TIP3    H239440   5.657   1.079   2.943 -0.7907 -0.0787 -0.3054
 5961TIP3   OH239441   3.108   2.436   0.730  0.1477 -0.0079 -0.2161
 5961TIP3    H139442   3.188   2.415   0.682 -0.1317  1.5122 -1.4351
 5961TIP3    H239443   3.037   2.409   0.672 -0.3225 -2.3524  1.3015
 5962TIP3   OH239444   2.395   2.777   0.846  0.6761  0.7957 -0.0649
 5962TIP3    H139445   2.432   2.727   0.773  1.1197  1.9462 -0.6415
 5962TIP3    H239446   2.463   2.840   0.869  0.4094  0.6748  1.1438
 5963TIP3   OH239447   6.406   1.961   1.523 -0.3130 -0.1179  0.1153
 5963TIP3    H139448   6.497   1.977   1.498 -0.4416 -0.5221 -0.6318
 5963TIP3    H239449   6.405   1.972   1.618  0.7095 -1.0666  0.2488
 5964TIP3   OH239450   0.508   6.356   8.654  0.4213 -0.6767 -0.4541
 5964TIP3    H139451   0.580   6.369   8.715  0.3978  1.3238 -0.7806
 5964TIP3    H239452   0.505   6.437   8.602 -0.7900 -1.5199 -1.7997
 5965TIP3   OH239453   2.132   6.068   0.244 -0.3859  0.0247  0.2757
 5965TIP3    H139454   2.043   6.049   0.213  0.0388 -0.9790 -0.3716
 5965TIP3    H239455   2.129   6.047   0.337 -0.9725  0.5484  0.3867
 5966TIP3   OH239456   1.406   4.141   1.749 -0.2584  0.0559  0.0328
 5966TIP3    H139457   1.465   4.216   1.746  2.3595 -1.8590 -2.0708
 5966TIP3    H239458   1.410   4.110   1.839 -1.9016  2.7002  1.1052
 5967TIP3   OH239459   0.494   0.165   1.614  0.1878  0.4921  0.0895
 5967TIP3    H139460   0.572   0.181   1.667  0.4346 -1.5854  0.4552
 5967TIP3    H239461   0.527   0.120   1.536 -0.5263  0.4775 -0.2140
 5968TIP3   OH239462   4.979   5.460   1.360  0.1438  0.2998 -0.6065
 5968TIP3    H139463   4.996   5.535   1.303  3.7227 -1.2616 -1.8834
 5968TIP3    H239464   5.022   5.482   1.442 -1.6194  0.8785  0.2294
 5969TIP3   OH239465   3.992   1.301   0.483  0.1398  0.0667  0.3310
 5969TIP3    H139466   3.925   1.240   0.455  0.0945  0.2918 -0.0623
 5969TIP3    H239467   4.074   1.265   0.448  0.1479  0.0935  0.3221
 5970TIP3   OH239468   2.265   0.743   2.021  0.1553  0.4618  0.1907
 5970TIP3    H139469   2.255   0.790   1.938 -0.8759 -0.9329 -0.5118
 5970TIP3    H239470   2.175   0.724   2.049  0.4976  0.6667  1.4934
 5971TIP3   OH239471   5.913   0.843   0.899  0.4530 -0.0513 -0.0456
 5971TIP3    H139472   5.934   0.764   0.948  0.9203  0.1135  0.0203
 5971TIP3    H239473   5.817   0.843   0.894  0.4783 -1.4266 -1.3735
 5972TIP3   OH239474   5.529   1.121   1.293 -0.4953 -0.3675  0.1101
 5972TIP3    H139475   5.618   1.153   1.281 -0.1421 -1.7262 -1.2851
 5972TIP3    H239476   5.475   1.200   1.298  0.3330  0.5677 -3.0735
 5973TIP3   OH239477   1.499   5.946   1.949  0.2690 -0.1570 -0.5159
 5973TIP3    H139478   1.444   6.008   1.997  0.2573  0.8140 -1.7252
 5973TIP3    H239479   1.454   5.934   1.866  1.1719 -0.4236 -0.9780
 5974TIP3   OH239480   0.684   3.068   3.107  0.3922 -0.0246  0.4128
 5974TIP3    H139481   0.654   3.154   3.135 -1.4940  0.2772 -2.1152
 5974TIP3    H239482   0.752   3.086   3.042  2.0516 -0.5880  1.9129
 5975TIP3   OH239483   4.228   1.707   0.355  0.2922 -0.7137 -0.4574
 5975TIP3    H139484   4.193   1.631   0.308  0.7782 -0.4213 -1.3164
 5975TIP3    H239485   4.218   1.779   0.293  2.0738 -0.5489 -0.5787
 5976TIP3   OH239486   0.217   1.590   1.904 -0.2715  0.5733  0.4315
 5976TIP3    H139487   0.184   1.600   1.993 -1.3888 -0.3267  0.1467
 5976TIP3    H239488   0.236   1.680   1.875  1.5999  0.7748  2.0810
 5977TIP3   OH239489   3.469   4.267   1.261  0.0273  0.5122 -0.0761
 5977TIP3    H139490   3.532   4.315   1.206  0.5567 -1.2093 -1.0560
 5977TIP3    H239491   3.410   4.225   1.198 -0.4254 -0.1115  0.7555
 5978TIP3   OH239492   5.671   5.896   2.461  0.2135  0.0578  0.1226
 5978TIP3    H139493   5.753   5.942   2.477  0.0765  0.2553  0.2616
 5978TIP3    H239494   5.685   5.850   2.378  0.7131 -0.4868  0.5051
 5979TIP3   OH239495   0.262   6.000   1.862 -0.2013  0.3392  0.2018
 5979TIP3    H139496   0.197   5.991   1.792 -0.7832  1.2056  0.6121
 5979TIP3    H239497   0.223   6.063   1.922  0.1467 -0.6189  1.4755
 5980TIP3   OH239498   4.728   2.547   0.307  0.4665 -0.4424 -0.4120
 5980TIP3    H139499   4.795   2.574   0.370 -1.7865  1.2156  1.4420
 5980TIP3    H239500   4.718   2.621   0.248 -3.5306  2.0360  2.8047
 5981TIP3   OH239501   5.815   6.260   0.689 -0.5669 -0.5329 -0.6583
 5981TIP3    H139502   5.786   6.208   0.764 -0.9165 -0.1922 -0.5525
 5981TIP3    H239503   5.817   6.197   0.616  0.7680 -1.0991 -0.1653
 5982TIP3   OH239504   3.006   3.244   0.901 -0.4844  0.2139  0.5421
 5982TIP3    H139505   2.979   3.178   0.838  0.2749  0.1709  0.2477
 5982TIP3    H239506   3.102   3.241   0.900 -0.4570  0.1126  1.8050
 5983TIP3   OH239507   4.022   6.331   1.864 -0.7387  0.0690  0.5697
 5983TIP3    H139508   3.972   6.382   1.928 -0.5494 -0.6226  1.2891
 5983TIP3    H239509   4.025   6.243   1.901  0.8643  0.0537  0.4656
 5984TIP3   OH239510   5.393   1.731   2.531  0.2618  0.0988  0.0521
 5984TIP3    H139511   5.414   1.641   2.507  1.4635  0.4675 -0.3657
 5984TIP3    H239512   5.304   1.745   2.498  1.1199 -0.0386 -2.5262
 5985TIP3   OH239513   4.194   5.834   1.027 -0.1680  0.2552 -0.5407
 5985TIP3    H139514   4.187   5.851   1.121 -0.4796  1.6074 -0.7840
 5985TIP3    H239515   4.268   5.774   1.019  1.1463  1.6811  0.4143
 5986TIP3   OH239516   0.458   3.846   0.289  0.0575  0.7977  0.0936
 5986TIP3    H139517   0.465   3.768   0.234  0.1066  0.1490  1.0128
 5986TIP3    H239518   0.393   3.901   0.244 -1.3154 -0.5483  0.3635
 5987TIP3   OH239519   5.033   1.647   8.288 -0.1239  0.1965  0.5972
 5987TIP3    H139520   4.992   1.727   8.257  0.9691  0.2863 -0.6810
 5987TIP3    H239521   4.993   1.578   8.236  1.2629  0.2826 -0.6466
 5988TIP3   OH239522   1.610   2.431   8.117  0.0048  0.2730  0.5949
 5988TIP3    H139523   1.541   2.418   8.052 -0.1072  0.1028  0.7455
 5988TIP3    H239524   1.566   2.479   8.188  0.7976  3.0285 -0.6687
 5989TIP3   OH239525   1.531   0.696   0.385  0.0756  0.0193 -0.2198
 5989TIP3    H139526   1.451   0.655   0.417  0.1987 -0.0899 -0.0519
 5989TIP3    H239527   1.561   0.638   0.315 -0.0031  0.0695 -0.2941
 5990TIP3   OH239528   3.367   4.026   8.558  0.0376 -0.2660  0.9286
 5990TIP3    H139529   3.343   4.076   8.480  0.1810 -1.4671  0.0968
 5990TIP3    H239530   3.369   4.092   8.628 -0.4491  0.7717  0.0078
 5991TIP3   OH239531   6.374   6.269   2.543  0.0943  0.1944 -0.6160
 5991TIP3    H139532   6.427   6.347   2.561 -0.9617  0.4734  1.5932
 5991TIP3    H239533   6.303   6.301   2.487  0.8368  0.3443 -1.4918
 5992TIP3   OH239534   4.215   4.487   0.969  0.0970 -0.1220 -0.6428
 5992TIP3    H139535   4.199   4.552   1.038  0.2701 -0.5369 -0.2116
 5992TIP3    H239536   4.144   4.423   0.979 -0.1979  0.1006 -1.2043
 5993TIP3   OH239537   5.559   0.626   8.620  0.0997 -0.2163 -0.0129
 5993TIP3    H139538   5.653   0.621   8.636  0.2731  0.5727 -0.6792
 5993TIP3    H239539   5.547   0.584   8.535  0.1233  1.2732 -0.7795
 5994TIP3   OH239540   5.354   1.897   1.835 -0.3818  0.0736 -0.1410
 5994TIP3    H139541   5.361   1.929   1.925  0.7313 -0.3624 -0.0546
 5994TIP3    H239542   5.444   1.875   1.810 -0.7737 -0.5219 -1.1001
 5995TIP3   OH239543   6.420   0.722   7.429  0.3078  0.1780 -0.3940
 5995TIP3    H139544   6.410   0.629   7.451 -0.3031 -0.2192 -2.1824
 5995TIP3    H239545   6.396   0.728   7.337  0.5873  2.0887 -0.3927
 5996TIP3   OH239546   0.699   4.168   0.881 -0.1140  0.2791  0.0526
 5996TIP3    H139547   0.673   4.227   0.810 -0.0709  0.2480  0.0119
 5996TIP3    H239548   0.738   4.093   0.837 -0.3940  0.1083  0.0948
 5997TIP3   OH239549   0.218   5.225   1.080  0.2854  0.2119  0.0745
 5997TIP3    H139550   0.296   5.269   1.048  0.0089 -0.2743 -1.3570
 5997TIP3    H239551   0.192   5.274   1.158  0.8992  1.5688 -0.5504
 5998TIP3   OH239552   4.255   3.394   0.235  0.6096  0.3062  0.4802
 5998TIP3    H139553   4.314   3.319   0.245 -0.4105 -0.3934  1.4242
 5998TIP3    H239554   4.302   3.466   0.278  1.4181  0.1248 -0.0730
 5999TIP3   OH239555   5.105   5.736   0.605  0.1235  0.1747 -0.5934
 5999TIP3    H139556   5.015   5.766   0.590  0.1423 -0.4743 -2.3137
 5999TIP3    H239557   5.157   5.783   0.540  0.7098 -0.8016 -0.8618
 6000TIP3   OH239558   3.809   4.220   2.143  0.1164 -0.3745  0.6473
 6000TIP3    H139559   3.765   4.304   2.127 -1.4332 -1.0285  1.2602
 6000TIP3    H239560   3.890   4.244   2.188 -0.6845  0.7677  1.5410
 6001TIP3   OH239561   3.886   1.458   2.482 -0.6449  0.3298 -0.9574
 6001TIP3    H139562   3.937   1.403   2.422 -0.4221  0.7702 -1.1743
 6001TIP3    H239563   3.806   1.408   2.498  0.3891 -0.9711  0.3952
 6002TIP3   OH239564   0.243   5.070   8.432  0.5842  0.0810  0.0318
 6002TIP3    H139565   0.335   5.059   8.457  0.0213 -0.6297  1.9863
 6002TIP3    H239566   0.232   5.165   8.422  1.2230  0.2785  1.0834
 6003TIP3   OH239567   2.192   5.661   2.303 -0.1068 -0.0441  0.7593
 6003TIP3    H139568   2.244   5.721   2.250 -0.6478  0.3293  0.6388
 6003TIP3    H239569   2.143   5.608   2.239 -0.0042 -0.2775  0.8720
 6004TIP3   OH239570   6.164   2.426   8.742 -0.3902  0.1133 -0.6355
 6004TIP3    H139571   6.091   2.432   8.804 -0.5184  0.4251 -0.8137
 6004TIP3    H239572   6.231   2.376   8.789 -1.1332 -1.1458 -0.8883
 6005TIP3   OH239573   0.842   2.416   8.243 -0.5473 -0.2331  0.2934
 6005TIP3    H139574   0.779   2.448   8.307 -0.9239  0.0496 -0.2121
 6005TIP3    H239575   0.833   2.475   8.168  0.3195 -0.1848  0.2151
 6006TIP3   OH239576   3.596   0.850   1.030 -0.1406 -0.3693 -0.0712
 6006TIP3    H139577   3.517   0.803   1.058 -0.0123 -1.1449 -0.9675
 6006TIP3    H239578   3.600   0.836   0.936 -0.5034  2.1064 -0.5112
 6007TIP3   OH239579   1.645   0.341   0.543 -0.6780  0.1980 -0.0122
 6007TIP3    H139580   1.713   0.403   0.518  0.6364 -1.1683  0.0169
 6007TIP3    H239581   1.657   0.268   0.483 -2.2343 -0.0157 -0.0937
 6008TIP3   OH239582   3.718   3.432   0.751  0.4072  0.0505 -0.4956
 6008TIP3    H139583   3.713   3.500   0.817  0.0680 -0.0910 -0.3747
 6008TIP3    H239584   3.643   3.448   0.694  0.6691  0.1434 -0.8224
 6009TIP3   OH239585   5.138   5.818   2.111 -0.5515  0.2459  0.0908
 6009TIP3    H139586   5.168   5.796   2.023 -1.1732  0.3765 -0.1546
 6009TIP3    H239587   5.204   5.879   2.145  1.0014 -1.6300  0.6332
 6010TIP3   OH239588   0.334   2.052   0.441 -0.5515 -0.0681 -0.8881
 6010TIP3    H139589   0.241   2.061   0.464 -0.6347 -0.5723 -1.0193
 6010TIP3    H239590   0.333   2.024   0.349 -0.3237 -1.6587 -0.4422
 6011TIP3   OH239591   0.382   1.327   2.875  0.0631 -0.0518  0.9298
 6011TIP3    H139592   0.366   1.242   2.833  1.5401 -0.1681  0.5551
 6011TIP3    H239593   0.384   1.307   2.969 -1.7563 -0.0369  1.0107
 6012TIP3   OH239594   3.445   4.291   7.535 -0.2018 -0.0319 -0.1797
 6012TIP3    H139595   3.532   4.329   7.550  0.5924 -2.0606  0.7180
 6012TIP3    H239596   3.457   4.233   7.459 -1.0704  0.5344 -0.7596
 6013TIP3   OH239597   3.659   6.461   0.945 -0.4389 -0.5599 -0.1647
 6013TIP3    H139598   3.578   6.511   0.932 -1.8612 -2.0858  2.2530
 6013TIP3    H239599   3.668   6.410   0.865 -1.5033  0.0884 -0.7304
 6014TIP3   OH239600   0.554   0.552   1.753  0.0612 -0.5319 -0.5203
 6014TIP3    H139601   0.588   0.489   1.691 -0.5476  0.3154 -1.7549
 6014TIP3    H239602   0.601   0.534   1.835 -0.0531 -2.5084 -0.8492
 6015TIP3   OH239603   6.085   2.784   1.393 -0.5860  0.1838  0.1633
 6015TIP3    H139604   6.055   2.770   1.303 -0.5539  1.0923  0.0040
 6015TIP3    H239605   6.158   2.846   1.384  1.0049 -1.5459  0.5872
 6016TIP3   OH239606   6.206   5.638   1.251 -0.2457  0.0154 -0.0008
 6016TIP3    H139607   6.122   5.625   1.295 -1.3037 -0.1357 -1.9495
 6016TIP3    H239608   6.200   5.586   1.171  1.7735 -0.0923 -0.1564
 6017TIP3   OH239609   5.222   2.708   8.311 -0.3891 -0.4110  0.3977
 6017TIP3    H139610   5.191   2.791   8.348 -1.6895 -0.3263 -0.8184
 6017TIP3    H239611   5.288   2.734   8.247  0.3093 -0.4296  1.0929
 6018TIP3   OH239612   3.275   2.952   8.705  0.2232  1.0784  0.0588
 6018TIP3    H139613   3.275   2.857   8.715 -1.5869  0.6852 -2.5685
 6018TIP3    H239614   3.364   2.973   8.678  0.6104  0.1214  0.5307
 6019TIP3   OH239615   2.110   6.122   7.892 -0.1154  0.0290  0.0350
 6019TIP3    H139616   2.147   6.163   7.971  0.0194  1.5061 -0.7474
 6019TIP3    H239617   2.144   6.175   7.820 -1.3362 -0.4399 -0.9203
 6020TIP3   OH239618   6.197   5.384   1.822  0.7272 -0.3514  0.8814
 6020TIP3    H139619   6.168   5.342   1.741  0.5782 -0.7618  1.1465
 6020TIP3    H239620   6.230   5.469   1.794  0.2826 -0.3197  0.4379
 6021TIP3   OH239621   0.540   5.214   8.552 -0.5623 -0.0483  0.1972
 6021TIP3    H139622   0.515   5.307   8.546  0.6345  0.3402  0.7053
 6021TIP3    H239623   0.554   5.187   8.462 -0.6128  0.3717  0.0586
 6022TIP3   OH239624   6.012   3.472   8.160  0.1978  0.2351 -0.5081
 6022TIP3    H139625   5.964   3.392   8.181 -0.2661  1.0007  1.5817
 6022TIP3    H239626   6.075   3.445   8.093 -1.3365 -1.3847 -1.3871
 6023TIP3   OH239627   5.725   2.435   8.765 -0.1164 -0.0091  0.3807
 6023TIP3    H139628   5.656   2.499   8.783 -1.2033 -1.2848  0.9416
 6023TIP3    H239629   5.793   2.485   8.720 -1.4102  1.3021 -0.2257
 6024TIP3   OH239630   2.323   0.466   1.333 -0.4702  0.6335  0.5456
 6024TIP3    H139631   2.268   0.403   1.380  0.9124 -1.1611 -0.1345
 6024TIP3    H239632   2.271   0.489   1.256  0.0276 -1.8492 -0.6417
 6025TIP3   OH239633   4.526   1.597   8.616 -0.0893  0.1365  0.1802
 6025TIP3    H139634   4.538   1.503   8.631  2.4295  0.4726  0.6854
 6025TIP3    H239635   4.487   1.630   8.697 -3.1062 -0.7150 -0.7809
 6026TIP3   OH239636   5.933   4.414   7.448 -0.8328  0.4342  0.0588
 6026TIP3    H139637   5.851   4.419   7.400 -0.5289 -1.1896 -0.7159
 6026TIP3    H239638   6.001   4.416   7.380 -0.2836  0.6052  0.6021
 6027TIP3   OH239639   5.761   1.252   0.804 -0.5961  0.2906  0.4645
 6027TIP3    H139640   5.752   1.312   0.878 -2.2628 -0.2915  0.7892
 6027TIP3    H239641   5.847   1.211   0.815 -0.5021  0.7786  1.6470
 6028TIP3   OH239642   6.020   1.500   0.356 -0.1631  0.8067 -0.5874
 6028TIP3    H139643   6.001   1.430   0.417 -1.8038 -0.8554 -2.8278
 6028TIP3    H239644   5.989   1.580   0.399 -3.9685 -0.6388 -0.2820
 6029TIP3   OH239645   6.767   3.028   2.055 -0.4227  0.2691  0.2812
 6029TIP3    H139646   6.826   2.959   2.086 -0.2508  0.0678 -0.4702
 6029TIP3    H239647   6.679   2.996   2.076 -0.4559 -0.9734 -1.5272
 6030TIP3   OH239648   4.540   0.151   1.950  0.2220 -0.0748  0.1792
 6030TIP3    H139649   4.543   0.176   1.858 -1.2856 -0.7611 -0.0836
 6030TIP3    H239650   4.510   0.060   1.949 -0.1580  0.0238  1.3630
 6031TIP3   OH239651   2.870   4.783   2.098 -0.1358  0.6589  0.3421
 6031TIP3    H139652   2.862   4.878   2.090  1.7119  0.7812 -0.9037
 6031TIP3    H239653   2.920   4.770   2.179  1.0262  0.8908 -0.3092
 6032TIP3   OH239654   4.096   6.237   8.608  0.3017  0.0713 -0.3818
 6032TIP3    H139655   4.082   6.240   8.514  0.7958  1.0256 -0.4351
 6032TIP3    H239656   4.073   6.324   8.639  0.4968 -0.1215  0.3306
 6033TIP3   OH239657   1.159   2.148   2.009 -0.3975  0.7616  0.3094
 6033TIP3    H139658   1.122   2.165   2.096 -1.9599  1.6652 -0.4888
 6033TIP3    H239659   1.092   2.097   1.964  0.9623 -0.8654  0.0317
 6034TIP3   OH239660   5.417   2.850   7.187 -0.4132 -0.1171 -0.4695
 6034TIP3    H139661   5.430   2.932   7.236  1.7351 -1.5549  1.5405
 6034TIP3    H239662   5.505   2.818   7.169 -1.1554 -0.6914 -3.6929
 6035TIP3   OH239663   2.193   4.838   1.570  0.3577  0.1979  0.4106
 6035TIP3    H139664   2.211   4.913   1.627  0.8443 -0.1031  0.6627
 6035TIP3    H239665   2.270   4.782   1.579  0.0459 -0.2838  0.1461
 6036TIP3   OH239666   4.662   5.590   8.487  0.1789 -0.2268  0.2480
 6036TIP3    H139667   4.706   5.666   8.524 -1.1291 -0.0805  1.6125
 6036TIP3    H239668   4.726   5.552   8.427  1.9418  0.2605  1.7289
 6037TIP3   OH239669   1.763   0.418   8.078 -0.6008  0.3855 -0.2814
 6037TIP3    H139670   1.847   0.417   8.124  0.1903  1.2069 -1.6175
 6037TIP3    H239671   1.722   0.500   8.105 -1.6083 -0.6113  1.3740
 6038TIP3   OH239672   4.128   2.489   8.544  0.6443  0.4451  0.6850
 6038TIP3    H139673   4.046   2.509   8.588 -0.3794  0.7708 -1.2570
 6038TIP3    H239674   4.189   2.554   8.577 -0.8897  2.6438 -0.5955
 6039TIP3   OH239675   2.978   3.698   1.912 -0.3715 -0.0714  0.4314
 6039TIP3    H139676   2.904   3.759   1.914 -1.2163 -1.0643  0.5291
 6039TIP3    H239677   2.962   3.643   1.835  0.7567  0.2750 -0.0720
 6040TIP3   OH239678   0.039   6.784   8.637 -0.3738 -0.4619  0.3296
 6040TIP3    H139679   0.007   6.827   8.557 -2.9978 -0.9758  1.0172
 6040TIP3    H239680   0.084   6.854   8.684 -0.8759  0.4666 -0.5159
 6041TIP3   OH239681   4.301   2.573   1.204 -0.4828  0.3142  0.2425
 6041TIP3    H139682   4.313   2.481   1.183 -0.7472 -0.3208  2.5955
 6041TIP3    H239683   4.215   2.595   1.168 -0.8182 -0.6212  0.4420
 6042TIP3   OH239684   5.299   4.386   8.658 -0.2496  0.2996  0.2711
 6042TIP3    H139685   5.228   4.371   8.721  0.1526  0.6567  0.8167
 6042TIP3    H239686   5.297   4.309   8.602 -1.1505  0.3593  0.1984
 6043TIP3   OH239687   0.316   4.131   2.423 -0.5863 -0.0763 -0.3811
 6043TIP3    H139688   0.398   4.091   2.395 -0.5590 -0.2425 -0.0752
 6043TIP3    H239689   0.306   4.103   2.514  0.0911  1.6925  0.2773
 6044TIP3   OH239690   3.659   5.413   1.343 -0.2913  0.1587  0.4400
 6044TIP3    H139691   3.617   5.369   1.269 -0.6139  1.3680 -0.1372
 6044TIP3    H239692   3.740   5.365   1.357 -0.8995 -0.9700  0.2405
 6045TIP3   OH239693   4.378   5.638   1.084  0.5078 -0.1610 -0.9529
 6045TIP3    H139694   4.396   5.647   1.178  0.8180  2.5703 -1.1802
 6045TIP3    H239695   4.446   5.579   1.052  0.3244 -1.2245  0.5438
 6046TIP3   OH239696   4.262   0.683   8.732 -0.4873  0.9365  1.0119
 6046TIP3    H139697   4.328   0.752   8.743 -1.0629  1.7240 -0.2149
 6046TIP3    H239698   4.178   0.730   8.730 -0.7985  0.4615 -1.5226
 6047TIP3   OH239699   2.166   6.706   0.592  0.1562 -0.5144  0.1431
 6047TIP3    H139700   2.109   6.639   0.554  1.7446 -0.9894 -1.5218
 6047TIP3    H239701   2.149   6.700   0.686 -1.7222 -1.3686 -0.1932
 6048TIP3   OH239702   0.130   3.653   0.170 -0.3686  0.1300  0.3185
 6048TIP3    H139703   0.085   3.714   0.111 -0.5362  0.3574  0.6805
 6048TIP3    H239704   0.206   3.623   0.120 -1.9348 -1.7618 -1.0744
 6049TIP3   OH239705   4.805   3.544   7.879 -0.2681  0.1353  0.6378
 6049TIP3    H139706   4.791   3.639   7.873 -1.2111  0.0869  1.6232
 6049TIP3    H239707   4.717   3.507   7.874 -0.0177 -0.6030  1.3991
 6050TIP3   OH239708   5.150   4.270   1.656  0.1339 -0.3944 -0.3028
 6050TIP3    H139709   5.108   4.267   1.742  0.8006 -0.4241  0.0360
 6050TIP3    H239710   5.100   4.209   1.602  0.8169 -1.8066  0.5887
 6051TIP3   OH239711   4.932   0.902   8.559 -0.4464  0.3225  0.3161
 6051TIP3    H139712   5.004   0.963   8.577  0.2015  0.2122 -1.6530
 6051TIP3    H239713   4.869   0.953   8.509 -1.0106 -0.0124  0.6699
 6052TIP3   OH239714   5.572   3.760   1.727  0.1636 -0.0202  0.6255
 6052TIP3    H139715   5.541   3.830   1.786  1.1286  0.0914  1.0266
 6052TIP3    H239716   5.492   3.723   1.690 -0.4253  0.5347  1.2937
 6053TIP3   OH239717   6.256   6.413   8.761 -0.0431  0.7030  0.0921
 6053TIP3    H139718   6.240   6.384   8.851  1.7582  0.3328  0.3452
 6053TIP3    H239719   6.174   6.398   8.716 -1.1839  1.4620  1.8079
 6054TIP3   OH239720   0.061   2.584   8.589 -0.8038 -0.4567  0.0527
 6054TIP3    H139721  -0.010   2.630   8.544 -0.5304 -1.4387 -1.4924
 6054TIP3    H239722   0.111   2.653   8.632 -1.2743  0.5221 -0.9083
 6055TIP3   OH239723   0.554   3.957   1.892 -0.5600 -0.5090 -0.0088
 6055TIP3    H139724   0.487   3.987   1.954 -0.1612 -0.4154  0.3795
 6055TIP3    H239725   0.506   3.900   1.831 -0.9656 -0.5554  0.3481
 6056TIP3   OH239726   2.510   3.148   2.321  0.3244  0.2668 -0.1513
 6056TIP3    H139727   2.510   3.055   2.297  2.1541 -0.1501  1.2345
 6056TIP3    H239728   2.440   3.157   2.385  0.2066 -0.1749 -0.2155
 6057TIP3   OH239729   2.994   6.133   0.672 -0.2073  0.1981  0.9594
 6057TIP3    H139730   2.958   6.081   0.600  0.3756 -0.6849  1.2907
 6057TIP3    H239731   2.991   6.223   0.640  0.8903 -0.2649 -0.5458
 6058TIP3   OH239732   1.777   5.799   1.041 -0.1651  0.3470  0.0715
 6058TIP3    H139733   1.849   5.858   1.065  0.0849  0.6230 -1.3126
 6058TIP3    H239734   1.802   5.763   0.956 -0.5494 -1.4064  0.6609
 6059TIP3   OH239735   2.121   2.019   2.753 -0.1208  0.0304  0.0481
 6059TIP3    H139736   2.187   2.015   2.823  0.6884 -0.9583 -0.7445
 6059TIP3    H239737   2.080   1.933   2.754  2.3917 -1.4067 -2.9872
 6060TIP3   OH239738   2.868   1.004   7.173  0.1900 -0.3362  0.1351
 6060TIP3    H139739   2.956   0.990   7.139 -1.3311 -0.5633 -4.4771
 6060TIP3    H239740   2.854   1.098   7.165 -0.0807 -0.3377  0.5601
 6061TIP3   OH239741   3.611   1.802   7.533  0.1566  0.2443 -0.2448
 6061TIP3    H139742   3.533   1.858   7.543 -0.0339 -0.0675  0.0302
 6061TIP3    H239743   3.615   1.784   7.439  0.1980  0.6915 -0.3320
 6062TIP3   OH239744   4.507   2.410   0.054 -0.4331 -0.1563 -0.1266
 6062TIP3    H139745   4.598   2.423   0.027 -0.2007 -1.9484 -0.3498
 6062TIP3    H239746   4.509   2.419   0.149 -0.3546  1.4557 -0.2593
 6063TIP3   OH239747   0.579   5.683   0.397  0.0602  0.4964  0.1527
 6063TIP3    H139748   0.578   5.596   0.355  0.0443  0.5827 -0.0270
 6063TIP3    H239749   0.547   5.742   0.329  0.0604  0.6416  0.2802
 6064TIP3   OH239750   3.941   6.308   8.118 -0.3076  0.1649  0.2903
 6064TIP3    H139751   3.857   6.308   8.164  0.2024 -0.6649  1.2571
 6064TIP3    H239752   3.998   6.252   8.171  1.4218  2.1416  0.6370
 6065TIP3   OH239753   0.755   5.159   2.628 -0.0006 -0.0673 -0.2679
 6065TIP3    H139754   0.815   5.179   2.700 -2.3364 -0.1110  1.8174
 6065TIP3    H239755   0.800   5.092   2.577  2.0028  0.4157  0.7673
 6066TIP3   OH239756   0.716   5.087   1.113 -0.0381 -0.6096  0.7544
 6066TIP3    H139757   0.763   5.013   1.074  0.2072 -0.6194  1.0609
 6066TIP3    H239758   0.774   5.162   1.101  0.0704 -0.6256  1.1532
 6067TIP3   OH239759   2.752   0.947   0.867 -0.1261 -0.0705  0.0977
 6067TIP3    H139760   2.710   0.892   0.933 -1.9886 -0.3340 -1.2353
 6067TIP3    H239761   2.822   0.893   0.831 -2.3708 -1.9728 -1.7003
 6068TIP3   OH239762   4.004   3.214   0.389  0.0865 -0.5018  0.6294
 6068TIP3    H139763   4.012   3.259   0.474  2.2487 -1.1694  0.8484
 6068TIP3    H239764   4.068   3.257   0.333  1.4367 -2.5014  0.5174
 6069TIP3   OH239765   5.016   6.721   1.461 -0.8516 -0.2143 -0.3401
 6069TIP3    H139766   4.980   6.783   1.525  0.2487  1.0679 -0.9379
 6069TIP3    H239767   5.092   6.683   1.505 -1.4735 -1.1100 -0.0079
 6070TIP3   OH239768   3.278   3.154   1.234  0.4048  0.3480  0.0491
 6070TIP3    H139769   3.198   3.133   1.282  0.9500  0.2645  0.9318
 6070TIP3    H239770   3.283   3.088   1.165  0.8451 -1.0057  1.3216
 6071TIP3   OH239771   6.362   5.914   0.918  0.2259  0.3049  0.1512
 6071TIP3    H139772   6.343   5.973   0.991 -1.4498  0.2135 -0.1758
 6071TIP3    H239773   6.276   5.882   0.890  1.0681 -2.3369  0.3395
 6072TIP3   OH239774   6.157   6.008   2.521 -0.3919  0.0954 -0.3005
 6072TIP3    H139775   6.232   6.066   2.532  0.8200 -1.3345 -0.7446
 6072TIP3    H239776   6.194   5.920   2.524 -2.1316 -0.6682  0.0033
 6073TIP3   OH239777   0.561   1.780   8.497 -0.1190 -0.4612  0.5958
 6073TIP3    H139778   0.651   1.799   8.472 -0.6377  0.1769 -0.8264
 6073TIP3    H239779   0.557   1.684   8.500  0.6598 -0.4915  0.9468
 6074TIP3   OH239780   0.888   3.220   1.240 -0.8506 -0.1724 -0.1235
 6074TIP3    H139781   0.870   3.194   1.330  1.7241 -0.9897  0.2331
 6074TIP3    H239782   0.877   3.140   1.189  0.4297 -0.3963 -0.0738
 6075TIP3   OH239783   3.450   6.258   7.637 -0.2062 -0.7021 -0.3427
 6075TIP3    H139784   3.440   6.237   7.544 -1.6080 -0.6887 -0.2210
 6075TIP3    H239785   3.544   6.264   7.651  0.0051  0.7417 -2.0780
 6076TIP3   OH239786   4.369   1.872   8.591 -0.1434 -0.0899 -0.3491
 6076TIP3    H139787   4.351   1.888   8.498 -0.3587  0.9952 -0.1344
 6076TIP3    H239788   4.464   1.873   8.597 -0.1331  1.2236 -0.3553
 6077TIP3   OH239789   5.947   2.337   1.566  0.1597  0.2761  0.6056
 6077TIP3    H139790   5.981   2.426   1.560 -0.9133  0.7539  1.3355
 6077TIP3    H239791   5.949   2.304   1.476 -0.4071  1.4164  0.1526
 6078TIP3   OH239792   4.143   1.995   8.701 -0.0380  0.1037 -0.1182
 6078TIP3    H139793   4.227   1.963   8.666 -0.4567  0.8412 -1.8564
 6078TIP3    H239794   4.164   2.022   8.791  1.4681 -0.2124 -0.3422
 6079TIP3   OH239795   3.290   2.371   1.360 -0.7456 -0.4417 -0.3373
 6079TIP3    H139796   3.386   2.364   1.361 -0.5937  1.3528 -0.4257
 6079TIP3    H239797   3.266   2.391   1.450 -0.9096  0.4491 -0.5717
 6080TIP3   OH239798   4.612   0.575   0.374 -0.5399  0.0184 -0.1991
 6080TIP3    H139799   4.605   0.564   0.469 -1.5853 -1.3757 -0.4135
 6080TIP3    H239800   4.704   0.560   0.355 -0.7361 -2.2424  0.3352
 6081TIP3   OH239801   1.795   5.312   3.113 -0.4090 -0.8400 -0.0065
 6081TIP3    H139802   1.761   5.400   3.130  0.7972 -0.3078 -0.3033
 6081TIP3    H239803   1.782   5.265   3.196  1.4093  0.4396  1.0810
 6082TIP3   OH239804   1.736   3.942   8.291 -0.1283 -0.3432  0.1538
 6082TIP3    H139805   1.690   3.899   8.220  0.8931 -0.0770 -0.6925
 6082TIP3    H239806   1.704   4.033   8.290 -0.1699 -0.3588  0.0781
 6083TIP3   OH239807   0.746   6.336   0.010  0.0053  0.1967 -0.2543
 6083TIP3    H139808   0.788   6.309   0.092 -0.7532  1.1194  0.4633
 6083TIP3    H239809   0.804   6.302  -0.058  1.0388  0.0198  0.6685
 6084TIP3   OH239810   4.151   2.837   7.604  0.2993  0.3765 -0.7777
 6084TIP3    H139811   4.057   2.842   7.588 -0.0736  1.0814  1.2546
 6084TIP3    H239812   4.184   2.778   7.537 -1.9760 -1.9546 -0.0214
 6085TIP3   OH239813   4.524   6.497   0.924 -0.3511  0.0570  0.7329
 6085TIP3    H139814   4.519   6.579   0.973 -0.0158 -0.1478  1.1099
 6085TIP3    H239815   4.475   6.434   0.977  0.4786 -0.2993  1.0815
 6086TIP3   OH239816   5.048   0.883   7.726 -0.0344 -0.2591 -0.3658
 6086TIP3    H139817   5.111   0.826   7.680 -0.5122 -0.6852 -0.4992
 6086TIP3    H239818   5.029   0.837   7.808  1.3348  0.8262  0.6035
 6087TIP3   OH239819   5.142   2.814   0.424 -0.1728 -0.4141  0.5323
 6087TIP3    H139820   5.178   2.763   0.352  1.4497  3.4961 -1.7117
 6087TIP3    H239821   5.197   2.792   0.499 -0.2668 -2.6823 -0.0129
 6088TIP3   OH239822   6.702   5.600   0.204 -0.1689 -0.6272 -0.0179
 6088TIP3    H139823   6.771   5.667   0.199 -0.2914 -0.5609 -0.9438
 6088TIP3    H239824   6.750   5.517   0.207 -0.0237 -0.5218  0.8391
 6089TIP3   OH239825   6.609   6.413   1.813  0.8709 -0.0568  0.1869
 6089TIP3    H139826   6.524   6.372   1.824  1.5096 -1.2816  0.7440
 6089TIP3    H239827   6.651   6.404   1.899  1.8312 -0.1102 -0.2757
 6090TIP3   OH239828   5.811   0.778   8.250  0.2607 -0.7098 -0.1834
 6090TIP3    H139829   5.736   0.807   8.301 -0.5238  0.9635 -2.1372
 6090TIP3    H239830   5.885   0.785   8.309 -0.3646  2.5675  0.4056
 6091TIP3   OH239831   1.208   1.177   1.455 -0.2768  0.7579 -0.7082
 6091TIP3    H139832   1.120   1.170   1.493 -0.4954  1.7281 -0.9911
 6091TIP3    H239833   1.232   1.269   1.469  0.5161  0.6005 -1.0162
 6092TIP3   OH239834   4.392   0.132   2.207 -0.5715  0.4878  0.1000
 6092TIP3    H139835   4.416   0.114   2.116 -1.5590  0.2867 -0.1339
 6092TIP3    H239836   4.471   0.169   2.246 -0.2874  1.0521 -0.9743
 6093TIP3   OH239837   6.410   0.052   7.564 -0.1696  0.0162  0.4217
 6093TIP3    H139838   6.365   0.066   7.481  0.6531 -0.8531 -0.1882
 6093TIP3    H239839   6.410  -0.043   7.576  0.5608  0.0703  0.9432
 6094TIP3   OH239840   4.628   5.232   1.742  0.6786 -0.1678  0.2104
 6094TIP3    H139841   4.672   5.313   1.719  0.2087 -0.2683 -1.1382
 6094TIP3    H239842   4.544   5.259   1.781  0.9462 -0.0099  0.6848
 6095TIP3   OH239843   2.791   5.617   0.752 -0.0168 -0.2861 -0.0124
 6095TIP3    H139844   2.857   5.677   0.717 -0.7045  0.4199 -0.1165
 6095TIP3    H239845   2.774   5.648   0.841  1.0424 -1.5185  0.6571
 6096TIP3   OH239846   3.495   0.601   0.143 -0.1798 -1.1942  0.3360
 6096TIP3    H139847   3.422   0.571   0.089 -0.3431 -1.1199  0.5140
 6096TIP3    H239848   3.478   0.694   0.156  0.4079 -0.9866 -0.3415
 6097TIP3   OH239849   3.991   5.963   2.811  0.2137  0.5466 -0.3078
 6097TIP3    H139850   4.067   5.999   2.763 -0.5889  0.9399 -1.3222
 6097TIP3    H239851   3.921   6.027   2.796 -0.3287  0.1884  0.6266
 6098TIP3   OH239852   4.178   4.591   1.269  0.0937 -0.6845 -0.1548
 6098TIP3    H139853   4.233   4.668   1.282 -0.9589 -0.0764  0.9426
 6098TIP3    H239854   4.220   4.523   1.321  1.3115 -1.0373 -1.5321
 6099TIP3   OH239855   5.848   5.745   1.231 -0.1029 -0.0631 -0.0601
 6099TIP3    H139856   5.893   5.718   1.311  1.3514  1.5783 -0.2782
 6099TIP3    H239857   5.770   5.790   1.262  0.9361  1.4189  0.5112
 6100TIP3   OH239858   1.986   5.844   1.929 -0.2896  0.2467  0.2215
 6100TIP3    H139859   1.982   5.782   2.002 -1.3623 -0.5665 -0.4887
 6100TIP3    H239860   2.053   5.808   1.871 -0.3421  0.1874  0.1971
 6101TIP3   OH239861   6.350   3.029   7.455 -0.1117 -0.3610 -0.7322
 6101TIP3    H139862   6.284   3.019   7.387 -0.6130  0.0453 -0.3102
 6101TIP3    H239863   6.301   3.030   7.537  0.3722  0.3261 -0.4338
 6102TIP3   OH239864   6.705   2.926   0.881  0.4093 -0.4121  0.1512
 6102TIP3    H139865   6.740   2.875   0.807 -1.7079  0.4733 -1.5966
 6102TIP3    H239866   6.754   3.008   0.879 -1.2044  0.6223 -1.9683
 6103TIP3   OH239867   6.064   0.902   7.996  0.6288 -0.9108 -0.1580
 6103TIP3    H139868   6.009   0.960   7.942  1.8056 -0.0188 -0.4311
 6103TIP3    H239869   6.153   0.916   7.963  1.4737  0.0478  2.3393
 6104TIP3   OH239870   0.980   4.374   8.033 -0.3916  0.0496  0.5348
 6104TIP3    H139871   1.073   4.356   8.020 -0.9582 -1.4823 -1.9997
 6104TIP3    H239872   0.975   4.470   8.034  0.9912  0.2539 -1.9540
 6105TIP3   OH239873   3.326   0.153   1.215  0.5146 -0.5753  0.0236
 6105TIP3    H139874   3.239   0.119   1.195  0.1906  1.1641 -1.9330
 6105TIP3    H239875   3.341   0.130   1.306 -3.3043  1.6975  1.4725
 6106TIP3   OH239876   0.929   4.807   1.757  0.1910 -0.4656 -0.1762
 6106TIP3    H139877   0.852   4.809   1.701 -1.1350 -3.4057  1.3390
 6106TIP3    H239878   0.974   4.889   1.738 -1.4046 -0.2190 -3.7149
 6107TIP3   OH239879   2.465   1.234   2.249  0.4238  0.6024  0.0744
 6107TIP3    H139880   2.520   1.271   2.180 -0.7806  0.2315 -1.1202
 6107TIP3    H239881   2.376   1.255   2.223 -0.1232 -0.6305  0.8621
 6108TIP3   OH239882   2.474   3.726   7.201 -0.3676 -0.0114  0.0890
 6108TIP3    H139883   2.446   3.694   7.115 -0.5656  0.3435  0.0189
 6108TIP3    H239884   2.569   3.715   7.201 -0.2513  0.9352 -0.5722
 6109TIP3   OH239885   2.685   3.747   1.597  0.0513  0.6265 -0.1422
 6109TIP3    H139886   2.761   3.799   1.569  0.7701 -0.5563 -0.4270
 6109TIP3    H239887   2.657   3.702   1.518  0.6666 -0.9488  0.5004
 6110TIP3   OH239888   0.593   3.353   8.123  0.4249 -0.0581 -0.2711
 6110TIP3    H139889   0.524   3.387   8.066  1.3623 -0.9994 -2.0932
 6110TIP3    H239890   0.666   3.413   8.110  0.0073  0.9303  1.6417
 6111TIP3   OH239891   2.025   4.178   7.901  0.0915  0.8840 -0.2444
 6111TIP3    H139892   1.966   4.172   7.977 -0.3611 -0.4627 -0.6784
 6111TIP3    H239893   1.971   4.218   7.832  0.9559  3.6368  0.5202
 6112TIP3   OH239894   2.199   1.878   8.053 -0.2250 -0.8570 -0.0010
 6112TIP3    H139895   2.105   1.889   8.060 -0.1499  2.6578 -1.9361
 6112TIP3    H239896   2.215   1.870   7.959  1.5435  2.1922 -0.0831
 6113TIP3   OH239897   4.848   5.955   7.507  0.8826  0.2440 -0.0719
 6113TIP3    H139898   4.927   5.955   7.453  0.3128 -2.4368 -1.0582
 6113TIP3    H239899   4.878   5.927   7.593  1.2566  1.0100  0.0559
 6114TIP3   OH239900   0.749   4.542   8.260  0.2859  0.7905 -0.3316
 6114TIP3    H139901   0.826   4.594   8.238  1.1105 -0.7523 -1.2255
 6114TIP3    H239902   0.706   4.524   8.176 -0.1699  0.3043 -0.0077
 6115TIP3   OH239903   2.034   5.182   8.145  0.5193 -0.1007 -0.1366
 6115TIP3    H139904   1.950   5.221   8.168  0.7014  0.2391 -0.0528
 6115TIP3    H239905   2.089   5.255   8.119  0.6880 -0.3604 -0.5111
 6116TIP3   OH239906   4.771   6.471   7.345 -0.8138 -0.3133 -0.4495
 6116TIP3    H139907   4.827   6.496   7.272  1.2595  1.0808  1.5003
 6116TIP3    H239908   4.805   6.387   7.374 -0.0774  0.2410  0.3440
 6117TIP3   OH239909   5.412   6.504   0.967 -0.4689 -0.0403  0.0847
 6117TIP3    H139910   5.479   6.437   0.979 -0.6579 -0.4471 -0.9510
 6117TIP3    H239911   5.340   6.477   1.025 -0.0665 -0.0557  0.5793
 6118TIP3   OH239912   5.461   4.626   0.172 -0.1518 -0.4377  0.2381
 6118TIP3    H139913   5.528   4.570   0.132 -1.0199 -2.2835  1.2686
 6118TIP3    H239914   5.501   4.655   0.254  0.7770  1.5711 -0.8372
 6119TIP3   OH239915   1.463   4.375   7.865 -0.3965  0.2759 -0.1265
 6119TIP3    H139916   1.458   4.359   7.771  0.5140 -0.5340 -0.0462
 6119TIP3    H239917   1.477   4.289   7.904 -1.2804  0.5271  0.8090
 6120TIP3   OH239918   3.425   0.161   0.729 -0.4614  0.2236 -0.5187
 6120TIP3    H139919   3.467   0.125   0.651 -0.2618 -0.4648 -0.1057
 6120TIP3    H239920   3.340   0.118   0.732 -0.4008  0.1185 -0.2680
 6121TIP3   OH239921   3.430   6.083   2.571 -0.2775  0.0364  0.6905
 6121TIP3    H139922   3.366   6.140   2.614 -0.7031 -0.9134  1.3430
 6121TIP3    H239923   3.377   6.029   2.512 -0.0650 -0.6657  1.1362
 6122TIP3   OH239924   5.256   6.625   2.800  0.3818  1.0164 -0.1624
 6122TIP3    H139925   5.187   6.686   2.775 -0.1021  0.4372 -0.2603
 6122TIP3    H239926   5.333   6.655   2.752 -0.1891  0.7404 -1.3103
 6123TIP3   OH239927   4.294   4.299   1.702  0.0147 -0.4923 -0.3763
 6123TIP3    H139928   4.317   4.214   1.739  1.1743  0.1840  0.5347
 6123TIP3    H239929   4.349   4.362   1.750 -1.3220  0.8482 -0.5218
 6124TIP3   OH239930   6.573   0.594   8.121  0.3123  0.2736  0.5327
 6124TIP3    H139931   6.608   0.526   8.063 -0.5733 -0.7914  1.2194
 6124TIP3    H239932   6.647   0.618   8.176  0.9409  0.7000 -0.4646
 6125TIP3   OH239933   2.656   0.302   0.722  0.7380  0.3016 -0.0213
 6125TIP3    H139934   2.670   0.395   0.738  1.3537  0.1398  0.4147
 6125TIP3    H239935   2.743   0.264   0.726  0.4216 -0.3897  0.4106
 6126TIP3   OH239936   4.259   4.425   3.325 -0.0815  0.7649 -0.6170
 6126TIP3    H139937   4.222   4.369   3.256  0.8344  2.5080 -2.6329
 6126TIP3    H239938   4.344   4.385   3.345 -0.0954  0.5798 -0.9182
 6127TIP3   OH239939   3.364   0.040   1.458  0.1306  0.2108 -0.2782
 6127TIP3    H139940   3.446   0.070   1.498 -0.1006  0.9668 -0.3531
 6127TIP3    H239941   3.356  -0.051   1.487  0.1785  0.6034  1.0707
 6128TIP3   OH239942   3.073   5.851   1.342  0.2710 -0.3388 -0.4633
 6128TIP3    H139943   3.112   5.793   1.276  2.3931  0.3139  0.1423
 6128TIP3    H239944   3.021   5.913   1.291  1.4075 -0.1917 -1.4903
 6129TIP3   OH239945   6.280   0.358   1.681 -0.0493  0.0676 -0.3856
 6129TIP3    H139946   6.244   0.279   1.641  1.6475  0.3347 -2.6882
 6129TIP3    H239947   6.211   0.390   1.739 -0.6815 -3.1782  0.8247
 6130TIP3   OH239948   3.453   3.986   2.293 -0.0656  0.2975 -0.3854
 6130TIP3    H139949   3.428   3.941   2.374  0.5028 -0.2282 -0.4914
 6130TIP3    H239950   3.373   3.986   2.240 -0.3943  0.4853  0.1002
 6131TIP3   OH239951   6.172   2.102   1.879  0.7514  0.3884  0.1261
 6131TIP3    H139952   6.158   2.057   1.962  2.7243 -1.2610 -0.3478
 6131TIP3    H239953   6.194   2.192   1.903  1.3258 -0.0771  1.4187
 6132TIP3   OH239954   3.538   0.229   2.612 -0.1551  0.1493  0.6746
 6132TIP3    H139955   3.476   0.285   2.566  1.0866  0.4090 -0.7749
 6132TIP3    H239956   3.485   0.182   2.676 -1.8785  0.2290 -0.6130
 6133TIP3   OH239957   2.465   1.702   7.553 -0.2106 -0.0155  0.4481
 6133TIP3    H139958   2.555   1.672   7.538 -0.5864 -0.0203 -2.3221
 6133TIP3    H239959   2.411   1.626   7.534 -0.8810  0.6183 -0.2448
 6134TIP3   OH239960   3.826   6.772   1.056  0.2816 -0.5861  0.7214
 6134TIP3    H139961   3.870   6.819   1.126 -0.3279 -0.3197  0.9321
 6134TIP3    H239962   3.732   6.783   1.074 -0.0228  2.2148 -1.8521
 6135TIP3   OH239963   4.644   1.844   8.532  0.5881 -0.4472  0.8613
 6135TIP3    H139964   4.693   1.828   8.451 -1.0304 -1.1172 -0.0327
 6135TIP3    H239965   4.687   1.791   8.598  0.8213 -1.3579 -0.0021
 6136TIP3   OH239966   0.611   5.648   2.615  0.6734 -0.4474 -0.3546
 6136TIP3    H139967   0.602   5.570   2.670  2.5945  0.5340  1.4765
 6136TIP3    H239968   0.522   5.666   2.586 -0.1366 -2.1235  0.8834
 6137TIP3   OH239969   4.622   0.195   2.341 -0.2077  0.2532 -0.1128
 6137TIP3    H139970   4.627   0.276   2.392 -1.0216  0.2382  0.0072
 6137TIP3    H239971   4.640   0.126   2.405 -2.9380  0.1047  0.6043
 6138TIP3   OH239972   0.733   0.608   0.945 -0.2366  0.2168  0.1217
 6138TIP3    H139973   0.768   0.697   0.939  1.4781 -0.4866 -1.3678
 6138TIP3    H239974   0.808   0.554   0.967 -1.4836 -0.7798  2.2318
 6139TIP3   OH239975   3.729   3.509   7.087  0.8519 -0.4554  0.3644
 6139TIP3    H139976   3.757   3.566   7.159 -1.2968  0.6902  0.3753
 6139TIP3    H239977   3.792   3.438   7.087  2.3511  0.7831  1.7957
 6140TIP3   OH239978   1.337   5.631   1.601 -0.4595 -0.4292 -0.4736
 6140TIP3    H139979   1.301   5.686   1.671 -2.1790 -0.4198 -1.3071
 6140TIP3    H239980   1.366   5.552   1.646 -1.5241 -0.4122  0.2797
 6141TIP3   OH239981   6.557   2.466   7.582 -0.4366 -0.6278  0.3955
 6141TIP3    H139982   6.509   2.447   7.502 -0.8046  0.0312  0.4525
 6141TIP3    H239983   6.581   2.380   7.617  1.3365 -0.9173 -1.3619
 6142TIP3   OH239984   6.585   1.775   1.094 -0.2099  0.3237  0.0410
 6142TIP3    H139985   6.672   1.756   1.059  0.6102  1.3719  1.3862
 6142TIP3    H239986   6.594   1.862   1.133 -2.0593  0.7375 -0.3899
 6143TIP3   OH239987   4.201   6.677   2.063  0.9786  0.9039  0.6249
 6143TIP3    H139988   4.225   6.608   2.002  2.2226 -0.1286  2.2084
 6143TIP3    H239989   4.127   6.721   2.022 -0.1413 -1.6340 -0.2458
 6144TIP3   OH239990   2.183   2.558   0.951  0.4861  0.0904 -0.0085
 6144TIP3    H139991   2.231   2.621   0.897  1.2100 -0.0255  0.4917
 6144TIP3    H239992   2.225   2.562   1.037 -1.3037  1.0161  0.8787
 6145TIP3   OH239993   3.995   6.063   0.494 -0.3910 -0.1813  0.0412
 6145TIP3    H139994   3.969   6.134   0.553  0.1455  1.7922 -1.9617
 6145TIP3    H239995   3.958   6.087   0.409 -0.9606 -2.8102 -0.5426
 6146TIP3   OH239996   4.312   4.450   2.617 -0.5604  0.1152 -0.3942
 6146TIP3    H139997   4.228   4.457   2.662 -0.1467  0.1254  0.3851
 6146TIP3    H239998   4.321   4.357   2.597 -1.3163  0.2742 -1.5913
 6147TIP3   OH239999   0.007   0.830   8.046 -0.0111  0.3588 -0.0310
 6147TIP3    H140000  -0.028   0.822   8.135  0.3650 -0.9764  0.0216
 6147TIP3    H240001   0.085   0.884   8.055 -0.4690  0.9767  0.3011
 6148TIP3   OH240002   2.274   2.306   1.305  0.1737  0.0006  0.2796
 6148TIP3    H140003   2.209   2.376   1.319  1.8117  1.5227  0.6925
 6148TIP3    H240004   2.222   2.229   1.284 -1.7983  0.9822  1.2570
 6149TIP3   OH240005   2.050   0.508   8.706 -0.0591 -0.0916 -0.3389
 6149TIP3    H140006   2.134   0.549   8.726 -0.1557 -0.4619  0.8762
 6149TIP3    H240007   2.074   0.425   8.665  0.1962 -0.5530  0.7106
 6150TIP3   OH240008   3.312   2.313   8.128 -0.2432  0.2126  0.2325
 6150TIP3    H140009   3.315   2.350   8.040 -0.1112  1.5118  0.7561
 6150TIP3    H240010   3.336   2.386   8.185 -0.3399 -0.6041  1.3499
 6151TIP3   OH240011   2.280   4.688   8.763 -0.1001 -0.5083  0.9727
 6151TIP3    H140012   2.257   4.714   8.674 -0.5272  3.0021  1.9596
 6151TIP3    H240013   2.209   4.631   8.792 -1.8173  1.1753  0.2184
 6152TIP3   OH240014   5.125   2.464   8.107 -0.2470  0.3509 -0.4053
 6152TIP3    H140015   5.166   2.427   8.185  1.2332  2.1768 -0.2480
 6152TIP3    H240016   5.032   2.469   8.129 -0.0858 -0.5947  0.6101
 6153TIP3   OH240017   0.502   4.204   1.739 -0.2047  0.3979 -0.0437
 6153TIP3    H140018   0.586   4.206   1.693 -0.0048  0.0725  0.3058
 6153TIP3    H240019   0.511   4.133   1.803 -1.1365 -0.3904 -0.7527
 6154TIP3   OH240020   5.690   1.327   2.900 -0.4861 -0.7097 -0.3645
 6154TIP3    H140021   5.762   1.336   2.837 -1.4997 -0.9780 -1.5825
 6154TIP3    H240022   5.611   1.345   2.849 -1.2943 -0.3491  0.9760
 6155TIP3   OH240023   6.651   6.723   2.386 -0.2972 -0.0228 -0.6099
 6155TIP3    H140024   6.721   6.751   2.444 -1.2803 -0.1140  0.6648
 6155TIP3    H240025   6.642   6.629   2.403 -1.4666  0.1949  0.1005
 6156TIP3   OH240026   1.923   3.756   7.529 -0.3154  0.4808  0.2688
 6156TIP3    H140027   2.000   3.699   7.526  0.1496  1.1318 -1.0064
 6156TIP3    H240028   1.849   3.696   7.522  0.1235 -0.0416  0.0084
 6157TIP3   OH240029   4.440   0.582   0.955 -0.3885  0.6336 -0.2220
 6157TIP3    H140030   4.433   0.655   1.016 -3.1464 -0.6061  1.1199
 6157TIP3    H240031   4.362   0.588   0.900 -1.3291 -1.8257  0.6760
 6158TIP3   OH240032   0.891   1.251   7.787 -0.6065  0.1389 -0.1861
 6158TIP3    H140033   0.894   1.193   7.863  0.0670  0.1488 -0.1943
 6158TIP3    H240034   0.833   1.208   7.725  1.0928 -1.3316 -0.8341
 6159TIP3   OH240035   0.433   5.268   3.051 -0.5313 -0.2398  0.3290
 6159TIP3    H140036   0.445   5.355   3.089  1.9782 -0.8876  1.1590
 6159TIP3    H240037   0.445   5.281   2.957  0.5490  0.2018  0.5196
 6160TIP3   OH240038   2.796   0.333   3.104 -0.2704 -0.0564 -0.0930
 6160TIP3    H140039   2.774   0.240   3.097 -1.1168  0.2443 -3.1275
 6160TIP3    H240040   2.742   0.375   3.036  0.4644  2.5855  0.8380
 6161TIP3   OH240041   2.408   1.439   1.891  0.0782 -0.0069  0.0950
 6161TIP3    H140042   2.377   1.367   1.837  1.1207 -0.7118  0.3925
 6161TIP3    H240043   2.480   1.401   1.941 -0.7502  0.6443  1.8753
 6162TIP3   OH240044   1.633   5.882   6.914 -0.0388  0.4487  0.1779
 6162TIP3    H140045   1.727   5.893   6.899  0.1102 -0.6358  0.1852
 6162TIP3    H240046   1.623   5.788   6.931 -1.0157  0.6890  1.0014
 6163TIP3   OH240047   1.470   1.606   7.792 -0.3559 -0.0108 -0.0180
 6163TIP3    H140048   1.547   1.642   7.748  0.6118  3.5721  3.9952
 6163TIP3    H240049   1.396   1.651   7.752  0.3491  1.9309  0.7466
 6164TIP3   OH240050   1.708   5.289   8.255  0.1279 -0.1861 -0.4272
 6164TIP3    H140051   1.633   5.338   8.223 -1.2095 -1.5415  0.5012
 6164TIP3    H240052   1.782   5.350   8.247 -1.4676  2.0454  0.8521
 6165TIP3   OH240053   2.570   4.088   1.702  0.2858  0.2316 -0.1496
 6165TIP3    H140054   2.573   4.101   1.797  1.1290  0.1334 -0.1607
 6165TIP3    H240055   2.513   4.012   1.690  0.3583  0.1066  0.2879
 6166TIP3   OH240056   1.250   3.672   1.917 -0.6853 -0.3107 -0.2973
 6166TIP3    H140057   1.343   3.681   1.898 -0.4991 -0.7166  0.3767
 6166TIP3    H240058   1.243   3.694   2.010 -1.3159  0.0544 -0.4217
 6167TIP3   OH240059   4.523   0.717   1.608  0.2658 -0.0538  0.5363
 6167TIP3    H140060   4.607   0.762   1.608  1.4700 -2.1203  1.5852
 6167TIP3    H240061   4.498   0.711   1.701 -0.1376 -0.9942  0.3858
 6168TIP3   OH240062   2.954   3.434   7.254  0.3305  0.2606 -0.3772
 6168TIP3    H140063   2.927   3.520   7.286  0.0786  0.6447 -1.5770
 6168TIP3    H240064   2.953   3.442   7.159  2.0914 -0.5234 -0.5055
 6169TIP3   OH240065   3.053   5.495   7.123  0.2403 -0.1419 -0.1556
 6169TIP3    H140066   3.143   5.476   7.097  0.0226 -1.0602 -0.2649
 6169TIP3    H240067   3.051   5.481   7.218 -0.0204 -1.1685 -0.2922
 6170TIP3   OH240068   1.030   5.538   0.756 -0.0560  0.8489  0.2463
 6170TIP3    H140069   0.977   5.578   0.826  0.8749  0.6650  1.0836
 6170TIP3    H240070   1.040   5.608   0.691 -1.7280  0.7342 -0.1796
 6171TIP3   OH240071   2.788   2.267   7.440  0.7096  0.5163 -0.2704
 6171TIP3    H140072   2.806   2.361   7.432  1.5786  0.4195  0.3380
 6171TIP3    H240073   2.695   2.262   7.461  0.3161  1.1594 -1.7339
 6172TIP3   OH240074   0.947   4.240   7.529 -0.0950 -0.3261 -0.3559
 6172TIP3    H140075   0.890   4.170   7.497  0.4276 -0.1245 -1.8119
 6172TIP3    H240076   0.893   4.319   7.524  0.1337 -0.2109 -1.2962
 6173TIP3   OH240077   3.413   0.602   0.447 -0.2396 -0.1212 -0.5260
 6173TIP3    H140078   3.419   0.664   0.375  1.3920 -0.4030 -0.6643
 6173TIP3    H240079   3.503   0.573   0.462 -0.5397 -0.1106  1.5933
 6174TIP3   OH240080   3.226   2.027   2.702  0.2958  0.5464 -0.8301
 6174TIP3    H140081   3.210   1.948   2.651 -1.9190 -0.0182  0.5963
 6174TIP3    H240082   3.201   2.099   2.644  1.1551  0.1469 -1.7136
 6175TIP3   OH240083   0.959   1.946   1.365 -0.4104  0.4484 -0.1669
 6175TIP3    H140084   0.953   1.881   1.295 -2.0954  1.2558 -0.8252
 6175TIP3    H240085   0.941   1.896   1.445 -1.1277 -0.0183 -0.6036
 6176TIP3   OH240086   0.736   5.253   2.090  0.4079 -0.4031 -0.1239
 6176TIP3    H140087   0.672   5.212   2.032 -1.8271  1.2770  0.9961
 6176TIP3    H240088   0.752   5.339   2.051 -0.2187  0.2832  1.0832
 6177TIP3   OH240089   2.908   5.881   8.441  0.0927 -0.1237  0.0647
 6177TIP3    H140090   2.887   5.972   8.420  0.7702  0.0901  0.2562
 6177TIP3    H240091   2.845   5.829   8.392 -1.5874  0.4878  1.5042
 6178TIP3   OH240092   0.171   5.847   8.565 -0.8672 -0.6424 -0.3479
 6178TIP3    H140093   0.227   5.846   8.487  0.6624 -1.2167  0.7257
 6178TIP3    H240094   0.133   5.935   8.566 -0.3097 -0.3761 -1.3206
 6179TIP3   OH240095   4.989   2.748   0.018  0.0959 -0.0064 -0.1988
 6179TIP3    H140096   5.044   2.670   0.009 -0.1814 -0.3799  1.0760
 6179TIP3    H240097   5.049   2.822   0.008  0.0386 -0.2560 -3.6338
 6180TIP3   OH240098   0.443   0.801   0.069  0.4580 -0.0852  0.5976
 6180TIP3    H140099   0.377   0.836   0.129 -0.1776 -2.1161  1.1595
 6180TIP3    H240100   0.503   0.753   0.127 -0.8571 -3.1688 -0.3789
 6181TIP3   OH240101   1.089   2.482   2.423  0.5767 -0.6448 -0.2501
 6181TIP3    H140102   1.067   2.511   2.512 -1.8310 -1.3173 -0.5667
 6181TIP3    H240103   1.111   2.390   2.433 -0.1623 -0.8404 -0.4096
 6182TIP3   OH240104   5.912   4.311   0.672  0.0515  0.4991 -0.3438
 6182TIP3    H140105   5.840   4.256   0.640 -1.4603  2.6147 -0.8073
 6182TIP3    H240106   5.892   4.324   0.765  1.9659 -1.9415  0.5053
 6183TIP3   OH240107   6.499   6.465   1.065 -0.9490 -0.4516 -0.2515
 6183TIP3    H140108   6.537   6.462   0.977  0.2360  1.7530  0.1127
 6183TIP3    H240109   6.412   6.503   1.052 -2.2673 -3.3637 -0.8048
 6184TIP3   OH240110   3.177   5.420   0.986  0.3980  0.0570 -0.2523
 6184TIP3    H140111   3.225   5.379   0.914 -0.9209  0.3336 -1.3297
 6184TIP3    H240112   3.085   5.416   0.959 -0.0812  0.5850  1.2141
 6185TIP3   OH240113   2.681   6.586   6.909 -0.4736 -0.5717 -0.1714
 6185TIP3    H140114   2.726   6.545   6.835  0.4369 -1.3089  0.7629
 6185TIP3    H240115   2.752   6.614   6.967 -1.1476  0.6617  0.0967
 6186TIP3   OH240116   3.214   1.609   0.914  0.3179 -0.3832  0.2996
 6186TIP3    H140117   3.258   1.669   0.854  0.7855 -0.9960  0.0154
 6186TIP3    H240118   3.132   1.653   0.937  0.2150 -0.0671 -0.6549
 6187TIP3   OH240119   3.954   5.399   1.670 -0.0471  0.0450 -1.0575
 6187TIP3    H140120   3.863   5.378   1.651  0.6382 -1.6241 -2.6979
 6187TIP3    H240121   4.002   5.320   1.649  1.7615  0.7528  0.1944
 6188TIP3   OH240122   4.671   5.595   2.005 -0.4589 -0.0957 -0.1780
 6188TIP3    H140123   4.620   5.519   2.033 -0.5127  0.0114  0.0155
 6188TIP3    H240124   4.610   5.648   1.955 -1.0397  0.9007  1.5137
 6189TIP3   OH240125   0.970   3.707   7.554 -0.5634 -0.2910 -0.2181
 6189TIP3    H140126   1.032   3.716   7.482 -1.5591 -1.3656 -1.2485
 6189TIP3    H240127   0.894   3.758   7.527 -1.2710 -1.3781 -0.3490
 6190TIP3   OH240128   6.514   3.443   1.593 -0.3113 -0.0536  0.8411
 6190TIP3    H140129   6.493   3.467   1.503  0.0772  0.0623  0.7813
 6190TIP3    H240130   6.542   3.352   1.588  0.2766  0.1265  0.7552
 6191TIP3   OH240131   3.385   2.112   1.981 -0.5117  0.6884  0.0576
 6191TIP3    H140132   3.441   2.189   1.993  0.2200  0.3396 -0.9636
 6191TIP3    H240133   3.333   2.132   1.903 -0.2711  0.1306 -0.2525
 6192TIP3   OH240134   5.658   5.450   7.205  0.1318  0.4279 -0.4676
 6192TIP3    H140135   5.570   5.474   7.175  0.3449  1.2960 -0.4272
 6192TIP3    H240136   5.649   5.359   7.233 -0.8905  0.6507  0.0131
 6193TIP3   OH240137   3.705   4.292   1.878  0.3984 -0.4278  0.1169
 6193TIP3    H140138   3.674   4.202   1.877  0.7392 -0.5637  1.0371
 6193TIP3    H240139   3.657   4.334   1.950  1.2761 -0.2658  0.6283
 6194TIP3   OH240140   4.580   5.334   0.203 -0.0418  0.9769  0.2944
 6194TIP3    H140141   4.586   5.369   0.114  1.1044  2.2217  0.8302
 6194TIP3    H240142   4.646   5.264   0.206  1.5254  2.4134  0.7789
 6195TIP3   OH240143   2.152   4.477   1.667  0.0587 -0.2074  0.1183
 6195TIP3    H140144   2.123   4.568   1.675  0.7466  0.0941 -0.6603
 6195TIP3    H240145   2.248   4.482   1.665  0.1082 -0.9675  0.2675
 6196TIP3   OH240146   2.909   6.387   0.611 -0.3223 -0.8370  0.2290
 6196TIP3    H140147   2.815   6.402   0.607 -0.2695 -0.5815 -0.1873
 6196TIP3    H240148   2.935   6.372   0.520 -0.1566 -2.1892  0.4833
 6197TIP3   OH240149   1.805   5.587   0.840 -0.2765 -0.4412 -0.3695
 6197TIP3    H140150   1.774   5.522   0.776  0.1720 -0.8758 -0.1511
 6197TIP3    H240151   1.794   5.545   0.925  1.4173 -0.8440 -0.3133
 6198TIP3   OH240152   1.169   0.310   2.484 -0.1879 -0.0395 -0.7269
 6198TIP3    H140153   1.155   0.333   2.392  0.8940  0.3147 -0.8133
 6198TIP3    H240154   1.244   0.363   2.511  0.9372 -1.7831 -0.2851
 6199TIP3   OH240155   1.308   6.358   1.011  0.3576  0.2964  0.2268
 6199TIP3    H140156   1.385   6.324   0.964  0.1882 -0.3405  0.3992
 6199TIP3    H240157   1.234   6.335   0.956  0.0739 -1.2342  1.1985
 6200TIP3   OH240158   3.639   6.513   7.617 -0.0235 -0.8063  0.4206
 6200TIP3    H140159   3.609   6.596   7.581  0.4088 -1.4030 -1.4280
 6200TIP3    H240160   3.705   6.483   7.556  0.8907 -1.8308  1.8435
 6201TIP3   OH240161   3.432   2.036   7.797 -0.4741  0.1864  0.7122
 6201TIP3    H140162   3.406   1.976   7.727 -1.0650  1.5631 -0.2833
 6201TIP3    H240163   3.371   2.017   7.868 -0.8644 -0.1584  0.2911
 6202TIP3   OH240164   5.112   0.031   2.503  0.1117  0.2240 -0.4013
 6202TIP3    H140165   5.085   0.122   2.491  1.1031  0.4097 -1.4718
 6202TIP3    H240166   5.078   0.006   2.589 -1.2859  1.1910 -0.6488
 6203TIP3   OH240167   5.996   2.924   0.074  0.6069  0.3997 -0.4897
 6203TIP3    H140168   5.957   2.869   0.142 -0.8815  0.4130 -1.3054
 6203TIP3    H240169   5.947   3.006   0.079  0.7137  0.5213 -1.3640
 6204TIP3   OH240170   2.730   1.182   0.764 -0.5014 -0.6933  0.6659
 6204TIP3    H140171   2.823   1.202   0.759 -0.7846  0.4652 -0.5459
 6204TIP3    H240172   2.726   1.091   0.793  0.9976 -0.8036  0.5794
 6205TIP3   OH240173   0.348   5.041   1.725  0.0177  0.2599 -0.4330
 6205TIP3    H140174   0.254   5.025   1.727  0.0157  0.3018  0.3016
 6205TIP3    H240175   0.378   5.001   1.643 -0.6617  0.4069 -0.7560
 6206TIP3   OH240176   0.775   1.493   8.223 -0.4845 -0.0790  0.9525
 6206TIP3    H140177   0.835   1.566   8.237 -0.8876  0.1027  1.7786
 6206TIP3    H240178   0.782   1.474   8.129 -0.8448  1.4303  0.5875
 6207TIP3   OH240179   2.739   5.797   8.702 -0.1016  0.4995  0.2723
 6207TIP3    H140180   2.799   5.814   8.630 -0.1131  0.3494  0.2268
 6207TIP3    H240181   2.652   5.809   8.665 -0.0973  0.9843  0.4060
 6208TIP3   OH240182   4.154   0.082   2.329  0.2072 -0.6778  0.3911
 6208TIP3    H140183   4.172   0.155   2.389 -1.1890 -0.5266  0.6690
 6208TIP3    H240184   4.213   0.096   2.256 -0.8240  1.4489 -0.1284
 6209TIP3   OH240185   6.694   6.505   1.348  0.1773 -0.1119 -0.0485
 6209TIP3    H140186   6.699   6.575   1.413  1.2637 -0.0390 -0.1939
 6209TIP3    H240187   6.630   6.537   1.285 -1.6947 -0.6403  1.4897
 6210TIP3   OH240188   5.214   1.110   8.758  0.2119 -0.7984 -0.5843
 6210TIP3    H140189   5.296   1.153   8.735  1.2421 -2.7800 -0.8077
 6210TIP3    H240190   5.182   1.158   8.834  1.9136 -0.3543 -0.1072
 6211TIP3   OH240191   2.939   6.797   8.260  0.2242  0.6890  0.2803
 6211TIP3    H140192   2.947   6.882   8.217  0.1603  0.1791 -0.7805
 6211TIP3    H240193   2.847   6.773   8.250  0.5875 -0.2714 -0.9757
 6212TIP3   OH240194   3.438   3.404   1.849  0.1798 -0.0724  0.4455
 6212TIP3    H140195   3.498   3.329   1.848 -0.8642 -0.9142 -0.1408
 6212TIP3    H240196   3.351   3.366   1.853 -0.3503  1.1421  1.1520
 6213TIP3   OH240197   5.214   5.909   0.432 -0.6383 -0.2367 -0.0899
 6213TIP3    H140198   5.298   5.954   0.423 -0.1948 -0.7751  1.0784
 6213TIP3    H240199   5.194   5.878   0.344 -0.5186  1.4477 -0.7470
 6214TIP3   OH240200   0.669   0.793   0.241 -0.0317 -0.3820  0.1785
 6214TIP3    H140201   0.650   0.837   0.324  0.0190  1.6713 -0.8438
 6214TIP3    H240202   0.751   0.832   0.211  0.0163 -1.1756 -0.7821
 6215TIP3   OH240203   3.491   1.779   2.910  0.1924  0.1167 -0.1256
 6215TIP3    H140204   3.489   1.871   2.936 -1.2228 -0.1581  0.8616
 6215TIP3    H240205   3.419   1.739   2.958  1.4030 -1.7337  0.2666
 6216TIP3   OH240206   4.318   1.430   7.656  0.3380  0.2735  0.1926
 6216TIP3    H140207   4.263   1.498   7.616 -0.9956  0.4328  2.1369
 6216TIP3    H240208   4.270   1.349   7.642  0.9994 -0.0099 -0.4878
 6217TIP3   OH240209   5.726   3.451   0.472  0.6658 -0.3409 -0.4181
 6217TIP3    H140210   5.785   3.393   0.424 -1.2422 -1.0653 -2.0399
 6217TIP3    H240211   5.647   3.399   0.484 -0.4339  1.2938 -0.2679
 6218TIP3   OH240212   2.176   2.943   7.730 -0.4754 -0.5044 -0.0777
 6218TIP3    H140213   2.268   2.963   7.718 -0.1828 -1.4699  0.4581
 6218TIP3    H240214   2.149   2.904   7.646 -0.5872  0.4176 -0.4795
 6219TIP3   OH240215   5.876   1.384   0.124 -0.1553 -0.4276  0.7654
 6219TIP3    H140216   5.863   1.289   0.131 -2.1521 -0.2204  0.4948
 6219TIP3    H240217   5.821   1.421   0.193 -0.5653  0.5770 -0.0690
 6220TIP3   OH240218   5.431   1.728   7.961  0.0487  0.4655 -0.6390
 6220TIP3    H140219   5.482   1.729   7.880  0.4082  0.9661 -0.4148
 6220TIP3    H240220   5.409   1.820   7.977  0.6573  0.4747  0.2368
 6221TIP3   OH240221   2.389   1.824   2.524  0.3674  0.5826  0.1427
 6221TIP3    H140222   2.416   1.749   2.576 -0.8319  0.3300  0.4249
 6221TIP3    H240223   2.386   1.792   2.434  0.2802  0.4058  0.2081
 6222TIP3   OH240224   1.972   6.409   7.435 -0.1070 -0.6278  0.1641
 6222TIP3    H140225   2.020   6.472   7.489 -1.1108  1.1853 -0.9341
 6222TIP3    H240226   2.021   6.405   7.353 -0.7663 -0.1887 -0.2690
 6223TIP3   OH240227   4.780   1.333   1.751 -0.0827 -0.1990  0.2133
 6223TIP3    H140228   4.742   1.247   1.729 -0.8997 -0.0792  1.0836
 6223TIP3    H240229   4.789   1.331   1.846  1.2188  0.1598  0.1142
 6224TIP3   OH240230   5.689   4.258   2.852 -0.3226  0.1715  0.3219
 6224TIP3    H140231   5.769   4.303   2.876 -0.7428  0.4416  1.2592
 6224TIP3    H240232   5.678   4.190   2.919 -0.1759 -0.7449 -0.5544
 6225TIP3   OH240233   3.713   4.190   1.040  0.1748 -0.8310 -0.8301
 6225TIP3    H140234   3.775   4.128   1.001  1.4950 -0.0278 -0.1044
 6225TIP3    H240235   3.735   4.190   1.133 -0.8232 -0.3962 -0.5797
 6226TIP3   OH240236   0.982   6.366   0.649  0.2709  0.0491  0.1406
 6226TIP3    H140237   0.967   6.444   0.597  0.8852  0.2246  0.2191
 6226TIP3    H240238   1.045   6.315   0.599 -0.3667 -0.5572 -0.0664
 6227TIP3   OH240239   4.498   5.637   7.036  0.1394 -0.2699 -0.4936
 6227TIP3    H140240   4.411   5.677   7.032 -0.8383 -2.1155  1.0000
 6227TIP3    H240241   4.499   5.574   6.964  0.0484 -0.5902 -0.2170
 6228TIP3   OH240242   5.417   2.389   0.878  0.6447  0.1678 -0.3835
 6228TIP3    H140243   5.467   2.449   0.933  1.5526 -0.1406 -0.8479
 6228TIP3    H240244   5.475   2.314   0.867  0.5782  0.3255 -1.9480
 6229TIP3   OH240245   1.993   6.079   7.104  0.4176  0.5362  0.1409
 6229TIP3    H140246   2.065   6.017   7.101 -0.1838 -0.3051  2.0272
 6229TIP3    H240247   1.944   6.062   7.023  1.1879 -0.2745 -0.1714
 6230TIP3   OH240248   2.983   0.374   6.697 -0.0402  0.1234  0.1677
 6230TIP3    H140249   3.015   0.451   6.650 -1.9150  0.5487 -0.5082
 6230TIP3    H240250   2.909   0.344   6.644 -0.5181 -1.0177  1.4449
 6231TIP3   OH240251   0.696   6.725   1.324  0.3549 -0.0626  0.0526
 6231TIP3    H140252   0.691   6.701   1.416  0.2936  0.4344  0.1821
 6231TIP3    H240253   0.618   6.779   1.308 -0.1726 -0.9772 -0.5461
 6232TIP3   OH240254   4.962   3.285   1.196  0.1897  0.0828  0.1565
 6232TIP3    H140255   5.050   3.252   1.216 -0.8340 -2.1131  1.3712
 6232TIP3    H240256   4.903   3.222   1.237 -1.9762  1.4925 -0.6419
 6233TIP3   OH240257   0.849   4.265   7.830 -0.0135 -0.0835 -0.3986
 6233TIP3    H140258   0.909   4.301   7.895 -0.6958 -0.4152  0.4419
 6233TIP3    H240259   0.877   4.303   7.747  1.2459 -0.1109 -0.0042
 6234TIP3   OH240260   3.655   3.936   8.728  0.0143 -0.7636  0.5875
 6234TIP3    H140261   3.571   3.894   8.711  0.9701 -2.1439 -1.0003
 6234TIP3    H240262   3.661   4.005   8.662  0.3171 -0.9466  0.4241
 6235TIP3   OH240263   2.220   0.704   8.436  0.3476 -0.5346  0.3065
 6235TIP3    H140264   2.188   0.714   8.525 -0.1385 -1.1274  0.2005
 6235TIP3    H240265   2.316   0.710   8.444  0.2536  0.6335  0.6980
 6236TIP3   OH240266   1.132   4.324   1.996  0.5361 -0.3659  0.5573
 6236TIP3    H140267   1.105   4.311   1.905 -0.4474 -0.2066  0.8123
 6236TIP3    H240268   1.060   4.288   2.047  0.3349  0.9873  1.2769
 6237TIP3   OH240269   2.884   3.568   2.293  0.5271  0.1782  0.1695
 6237TIP3    H140270   2.847   3.480   2.302  1.3879 -0.1228  0.9389
 6237TIP3    H240271   2.905   3.595   2.383  1.0376  0.8249 -0.1337
 6238TIP3   OH240272   0.957   0.684   1.657 -0.4083 -0.5236 -0.1466
 6238TIP3    H140273   1.027   0.672   1.721 -0.9072  0.8250  0.7051
 6238TIP3    H240274   0.978   0.768   1.615  0.2096 -1.6344 -2.1703
 6239TIP3   OH240275   6.041   2.054   0.789  0.3848  0.0536 -0.1167
 6239TIP3    H140276   6.085   1.990   0.733 -1.3220 -2.1871  0.9667
 6239TIP3    H240277   5.996   2.112   0.727  1.0570 -0.4631 -1.1143
 6240TIP3   OH240278   6.154   3.061   0.387  0.4895  0.1669  0.2055
 6240TIP3    H140279   6.226   3.046   0.448  2.2926 -0.0314 -1.8267
 6240TIP3    H240280   6.197   3.076   0.303 -1.8621 -2.4486 -1.6661
 6241TIP3   OH240281   2.772   4.872   0.678  1.0226 -0.2430 -0.4114
 6241TIP3    H140282   2.746   4.930   0.750  0.8304  1.3600 -1.7213
 6241TIP3    H240283   2.866   4.860   0.691  1.0717  0.3863 -0.1058
 6242TIP3   OH240284   1.129   0.057   7.920 -0.3833 -0.2226 -0.3045
 6242TIP3    H140285   1.148   0.150   7.926  0.2321 -0.2468 -1.6070
 6242TIP3    H240286   1.178   0.017   7.992  0.8130  0.2541 -0.8439
 6243TIP3   OH240287   5.224   4.258   7.428 -0.0795 -0.0813  0.7732
 6243TIP3    H140288   5.173   4.275   7.507 -3.0696  1.6930 -1.3458
 6243TIP3    H240289   5.190   4.174   7.395 -0.2714  0.1624  0.3479
 6244TIP3   OH240290   1.752   1.104   1.920 -0.0696  0.0634 -0.3923
 6244TIP3    H140291   1.781   1.161   1.849  0.5258 -0.2255 -0.3848
 6244TIP3    H240292   1.731   1.021   1.877  2.2720 -0.7906  0.0067
 6245TIP3   OH240293   2.424   5.286   0.710 -0.5497 -0.1524  0.1254
 6245TIP3    H140294   2.365   5.300   0.785 -2.8615  1.5721 -1.8433
 6245TIP3    H240295   2.453   5.374   0.686  0.5808 -0.7241 -0.7015
 6246TIP3   OH240296   2.088   0.243   1.267 -0.0690 -0.1214  0.6515
 6246TIP3    H140297   2.167   0.203   1.301  1.4669  0.6397 -1.7565
 6246TIP3    H240298   2.051   0.291   1.341  0.7812 -1.8361  2.2580
 6247TIP3   OH240299   0.362   4.437   1.344  0.2871 -0.1542 -0.1711
 6247TIP3    H140300   0.372   4.504   1.412  1.2546  0.7104 -1.1367
 6247TIP3    H240301   0.326   4.484   1.269  2.4900 -0.3155 -1.4047
 6248TIP3   OH240302   4.321   3.146   8.589 -0.4000 -0.0286  0.1156
 6248TIP3    H140303   4.284   3.118   8.505  2.2786  0.8576 -1.4782
 6248TIP3    H240304   4.332   3.065   8.638  0.4194 -0.9358 -1.4652
 6249TIP3   OH240305   0.371   2.827   1.328  0.1477 -0.3096  0.2499
 6249TIP3    H140306   0.373   2.784   1.414 -0.8492  0.3788  0.6350
 6249TIP3    H240307   0.281   2.815   1.298  0.6308 -1.0326 -0.9739
 6250TIP3   OH240308   6.561   4.376   1.685  0.3634 -0.0404 -0.0273
 6250TIP3    H140309   6.603   4.293   1.708  0.5052 -0.0075 -0.1641
 6250TIP3    H240310   6.549   4.421   1.768 -0.9913 -0.7955  0.2211
 6251TIP3   OH240311   3.302   6.647   2.558 -0.8883  0.3740  0.2832
 6251TIP3    H140312   3.249   6.593   2.616  1.4575 -0.5748  1.6968
 6251TIP3    H240313   3.386   6.602   2.553  0.0782  2.1818 -1.2184
 6252TIP3   OH240314   0.444   5.561   0.854  0.1570 -0.4417 -0.2699
 6252TIP3    H140315   0.416   5.473   0.829  1.2046 -0.7559 -0.3544
 6252TIP3    H240316   0.438   5.611   0.773  0.0422 -0.5547 -0.3323
 6253TIP3   OH240317   6.116   3.462   0.514 -0.5184  0.6051  0.0151
 6253TIP3    H140318   6.153   3.440   0.428 -1.1695  1.6589 -0.5560
 6253TIP3    H240319   6.080   3.379   0.547  0.1289  0.1000 -0.5237
 6254TIP3   OH240320   3.701   2.794   8.756 -0.7287 -0.0495 -0.5569
 6254TIP3    H140321   3.787   2.753   8.766  0.3361  1.8345 -1.3447
 6254TIP3    H240322   3.689   2.846   8.835 -2.8123 -2.9224  1.2232
 6255TIP3   OH240323   3.156   5.308   2.652 -0.1283 -0.1946 -0.8306
 6255TIP3    H140324   3.151   5.391   2.699  0.3809 -0.3355 -0.5284
 6255TIP3    H240325   3.102   5.248   2.704 -0.5342 -0.0479 -1.0739
 6256TIP3   OH240326   5.994   4.515   0.004 -0.3831 -0.0047  0.5145
 6256TIP3    H140327   6.021   4.577  -0.063 -0.5221  0.0109  0.4718
 6256TIP3    H240328   5.921   4.467  -0.035 -1.3292  0.9017  1.1267
 6257TIP3   OH240329   5.046   4.362   0.953  0.5725 -0.1309 -0.4957
 6257TIP3    H140330   4.953   4.340   0.950  0.3499  0.4699  1.1025
 6257TIP3    H240331   5.079   4.318   1.031  1.3478  0.6895 -0.3376
 6258TIP3   OH240332   0.471   0.277   1.153  0.1785 -0.3386 -1.1240
 6258TIP3    H140333   0.498   0.263   1.244 -0.8888 -0.7750 -0.8564
 6258TIP3    H240334   0.413   0.203   1.134 -1.3141  0.8647 -1.4572
 6259TIP3   OH240335   4.840   5.267   2.821  0.0915 -0.1860 -0.1885
 6259TIP3    H140336   4.750   5.299   2.825 -0.3757 -1.4860  2.0846
 6259TIP3    H240337   4.873   5.279   2.911  1.9450 -0.3984 -0.8013
 6260TIP3   OH240338   0.582   6.536   0.706  0.0997  0.2153  0.2465
 6260TIP3    H140339   0.538   6.528   0.790 -0.7128 -1.8041 -0.3246
 6260TIP3    H240340   0.513   6.557   0.643  0.5686  0.8985 -0.0587
 6261TIP3   OH240341   4.052   6.238   1.287  0.1197 -0.9194 -0.0335
 6261TIP3    H140342   3.986   6.289   1.239  0.8214  0.0868  0.0387
 6261TIP3    H240343   4.041   6.148   1.254  0.0803 -0.3964 -1.5491
 6262TIP3   OH240344   5.742   0.510   7.578  0.1744 -0.3615  0.4674
 6262TIP3    H140345   5.653   0.528   7.608  0.4017  0.7453  0.5202
 6262TIP3    H240346   5.785   0.595   7.578  1.0450 -0.7836 -0.1981
 6263TIP3   OH240347   1.866   4.733   7.648 -0.7366  0.0882  0.2407
 6263TIP3    H140348   1.805   4.780   7.592  0.0323 -0.6928 -1.3238
 6263TIP3    H240349   1.836   4.642   7.645 -0.3697 -0.0499  0.6645
 6264TIP3   OH240350   5.091   5.694   1.597  0.5535  0.5104  0.7206
 6264TIP3    H140351   5.162   5.752   1.570 -0.3476  0.6660 -1.5708
 6264TIP3    H240352   5.127   5.606   1.585  0.2330  0.5748 -1.0709
 6265TIP3   OH240353   2.729   4.450   8.054 -0.6098  0.4734  0.1992
 6265TIP3    H140354   2.764   4.376   8.004 -2.7737 -0.3581 -0.2253
 6265TIP3    H240355   2.727   4.522   7.992 -0.5831  0.2563 -0.0561
 6266TIP3   OH240356   5.619   0.378   1.014 -0.1457  0.1295 -0.7109
 6266TIP3    H140357   5.539   0.403   0.968 -0.4281  0.5991  0.0240
 6266TIP3    H240358   5.590   0.355   1.102  0.1966 -2.1376 -1.1262
 6267TIP3   OH240359   6.423   5.477   1.561 -0.1565  0.1639 -0.4931
 6267TIP3    H140360   6.368   5.484   1.483  0.8154  1.4491 -1.1121
 6267TIP3    H240361   6.510   5.457   1.526  0.2542  0.6099  0.2658
 6268TIP3   OH240362   4.338   4.212   7.514 -0.4520 -0.2505 -0.1806
 6268TIP3    H140363   4.407   4.216   7.447  0.6791 -1.3012  0.8708
 6268TIP3    H240364   4.369   4.270   7.583 -1.7629  1.0669 -0.6457
 6269TIP3   OH240365   1.811   6.790   2.406  0.5487  0.0830 -0.0281
 6269TIP3    H140366   1.901   6.768   2.431  0.0808 -1.4154  0.4789
 6269TIP3    H240367   1.762   6.783   2.487 -0.1977 -0.1310 -0.4922
 6270TIP3   OH240368   3.885   4.478   0.699 -0.1580 -0.4093  0.2386
 6270TIP3    H140369   3.862   4.415   0.631 -1.3448 -0.6225  0.8199
 6270TIP3    H240370   3.834   4.556   0.677 -0.9540 -0.6551  1.1572
 6271TIP3   OH240371   6.687   5.257   0.016  0.4904  0.1259  0.3735
 6271TIP3    H140372   6.735   5.258  -0.068  0.0428  0.1896  0.1161
 6271TIP3    H240373   6.740   5.311   0.074  0.2560  0.9553 -0.1775
 6272TIP3   OH240374   4.094   6.182   8.301 -0.2397  0.6785  0.4194
 6272TIP3    H140375   4.109   6.094   8.267 -1.0709  0.6503  0.1158
 6272TIP3    H240376   4.176   6.204   8.346 -0.6397 -0.9611  2.0970
 6273TIP3   OH240377   4.339   1.271   0.448  0.9306  0.0228 -0.5089
 6273TIP3    H140378   4.348   1.215   0.526  4.0845  0.2256 -0.5893
 6273TIP3    H240379   4.366   1.215   0.375  2.1977  1.0148 -0.8477
 6274TIP3   OH240380   4.422   0.560   7.660  0.1655 -0.4964  0.2453
 6274TIP3    H140381   4.438   0.495   7.592 -0.5328  0.1826 -0.5904
 6274TIP3    H240382   4.354   0.520   7.715 -0.1554 -0.5395 -0.1779
 6275TIP3   OH240383   4.941   2.860   1.275  0.0887  0.0393  0.0936
 6275TIP3    H140384   4.900   2.944   1.295 -0.1510 -0.1090  0.2176
 6275TIP3    H240385   4.937   2.854   1.179 -0.8545 -0.3180  0.1468
 6276TIP3   OH240386   3.894   2.797   8.164 -0.0776 -0.8595 -0.4897
 6276TIP3    H140387   3.862   2.709   8.185  0.1231 -0.4674  1.7256
 6276TIP3    H240388   3.935   2.827   8.245  1.2524  0.6819 -1.6790
 6277TIP3   OH240389   5.143   3.874   1.996 -0.8336  0.7136 -0.1931
 6277TIP3    H140390   5.090   3.900   2.072 -1.1709  0.3649 -0.3052
 6277TIP3    H240391   5.079   3.856   1.928 -0.4868  2.5350 -1.0686
 6278TIP3   OH240392   5.731   4.121   0.532  0.1440  0.2045 -0.2297
 6278TIP3    H140393   5.670   4.160   0.469  1.6820  2.0775 -0.6413
 6278TIP3    H240394   5.724   4.027   0.517  0.2211  0.5600 -3.0151
 6279TIP3   OH240395   6.386   5.203   7.222 -0.9643 -0.4629 -0.0911
 6279TIP3    H140396   6.364   5.245   7.139  0.4660  0.3925 -0.0843
 6279TIP3    H240397   6.341   5.255   7.288 -0.1394  0.3956 -0.1748
 6280TIP3   OH240398   2.565   4.799   8.088  0.3129  0.4582 -0.4274
 6280TIP3    H140399   2.601   4.820   8.002 -0.0998 -0.1541 -0.7534
 6280TIP3    H240400   2.531   4.710   8.079  2.0175 -0.3917  0.9142
 6281TIP3   OH240401   6.182   2.068   8.510  0.0481  0.2204 -0.3518
 6281TIP3    H140402   6.100   2.024   8.532  0.2029 -0.9420 -1.8572
 6281TIP3    H240403   6.243   2.042   8.579  0.3900 -2.8436 -1.6028
 6282TIP3   OH240404   2.716   4.516   0.510  0.0893  0.3577  0.2146
 6282TIP3    H140405   2.712   4.588   0.446  1.6899  0.6504  0.3907
 6282TIP3    H240406   2.808   4.512   0.535 -0.1320 -1.1702  0.9054
 6283TIP3   OH240407   3.683   6.538   7.289  0.5767 -0.3627  0.4726
 6283TIP3    H140408   3.708   6.481   7.361  0.3633 -1.6686 -0.4648
 6283TIP3    H240409   3.734   6.506   7.214  2.2054  2.0916  0.3847
 6284TIP3   OH240410   6.657   4.599   7.980 -0.1303 -0.2061  0.3062
 6284TIP3    H140411   6.636   4.541   8.053 -0.3366 -0.3519  0.1313
 6284TIP3    H240412   6.640   4.547   7.902 -2.4215  0.7722  0.0770
 6285TIP3   OH240413   5.136   5.917   1.333 -0.4690  0.0038  0.2236
 6285TIP3    H140414   5.208   5.855   1.320  0.8557  1.3299  0.9246
 6285TIP3    H240415   5.168   5.999   1.295 -2.0861  0.3568 -0.4723
 6286TIP3   OH240416   4.793   3.096   1.285  0.7260  0.3659 -0.3452
 6286TIP3    H140417   4.731   3.073   1.216  0.9256  2.7289 -1.3991
 6286TIP3    H240418   4.740   3.136   1.353  0.7991  0.1532 -0.1631
 6287TIP3   OH240419   6.148   1.565   0.114  0.3956 -0.0753 -0.2573
 6287TIP3    H140420   6.106   1.511   0.181  0.5537  0.0727 -0.0368
 6287TIP3    H240421   6.078   1.621   0.081 -0.0720 -1.2531 -1.3669
 6288TIP3   OH240422   2.566   5.278   1.344 -0.2728 -0.5514  0.0361
 6288TIP3    H140423   2.574   5.183   1.336 -1.4359 -0.6324 -0.4045
 6288TIP3    H240424   2.542   5.292   1.436  1.7545 -0.5180  0.5957
 6289TIP3   OH240425   3.085   6.730   0.029  0.0468  0.6247 -0.1310
 6289TIP3    H140426   3.156   6.669   0.012  0.1773  0.2829  1.4928
 6289TIP3    H240427   3.118   6.788   0.097 -0.5801  1.6441 -0.6618
 6290TIP3   OH240428   6.393   3.274   3.023  0.2137  0.2843  0.2704
 6290TIP3    H140429   6.453   3.253   2.952 -0.4230 -0.1070 -0.1605
 6290TIP3    H240430   6.373   3.190   3.064 -0.8024  0.2724 -0.2149
 6291TIP3   OH240431   3.905   4.959   2.413  0.3715  0.2839  0.5314
 6291TIP3    H140432   3.867   5.026   2.356  4.4956  1.5035 -1.0985
 6291TIP3    H240433   3.870   4.979   2.500 -2.3314  1.3560 -0.6714
 6292TIP3   OH240434   0.375   0.797   1.091 -0.4020 -0.3705  0.2869
 6292TIP3    H140435   0.293   0.786   1.044  0.4094  0.9869 -1.5789
 6292TIP3    H240436   0.379   0.890   1.111  0.4058 -0.5216  0.8663
 6293TIP3   OH240437   6.527   4.227   0.353 -0.1447  0.0872 -0.0682
 6293TIP3    H140438   6.534   4.176   0.272  0.5909 -0.2905  0.2206
 6293TIP3    H240439   6.433   4.238   0.367 -0.2827  1.1908 -1.6116
 6294TIP3   OH240440   0.484   6.798   2.228 -0.0941  0.2256  0.2258
 6294TIP3    H140441   0.393   6.827   2.219  0.1231  0.9517  0.2743
 6294TIP3    H240442   0.494   6.778   2.321  0.0353  0.9851  0.3777
 6295TIP3   OH240443   3.999   0.145   1.212  0.1457 -0.0361 -0.1464
 6295TIP3    H140444   4.091   0.122   1.203 -0.0333 -0.9589  0.2476
 6295TIP3    H240445   3.997   0.240   1.212  1.0503 -0.0113 -0.6154
 6296TIP3   OH240446   6.322   2.459   1.614  0.5033  0.5480 -0.1446
 6296TIP3    H140447   6.309   2.370   1.580  1.7177 -0.1414  1.0983
 6296TIP3    H240448   6.344   2.446   1.706 -1.9189  2.3079  0.7863
 6297TIP3   OH240449   3.136   4.666   0.904 -0.6335  0.3912  0.3720
 6297TIP3    H140450   3.186   4.586   0.888 -1.3082  0.3428 -1.8855
 6297TIP3    H240451   3.099   4.654   0.992  0.7461 -0.9510  0.8078
 6298TIP3   OH240452   5.373   6.718   2.190 -0.0443  0.2068 -0.0210
 6298TIP3    H140453   5.383   6.679   2.276  2.1910  0.9438  0.1003
 6298TIP3    H240454   5.285   6.756   2.191 -0.5321 -0.8782  1.4488
 6299TIP3   OH240455   5.052   2.184   1.013 -0.7501  0.1109  0.2851
 6299TIP3    H140456   5.023   2.110   1.066  0.4689 -0.9380 -0.4386
 6299TIP3    H240457   5.142   2.200   1.042 -0.7916  0.9136  0.0027
 6300TIP3   OH240458   4.784   2.305   1.785 -0.2994  0.0717 -0.4375
 6300TIP3    H140459   4.795   2.238   1.718 -1.0385 -0.1773 -0.3129
 6300TIP3    H240460   4.740   2.377   1.739 -1.3383 -0.3292 -0.0859
 6301TIP3   OH240461   0.695   0.227   1.796 -0.1151  0.4566 -0.1026
 6301TIP3    H140462   0.775   0.265   1.832 -0.2190  0.6913 -0.1219
 6301TIP3    H240463   0.687   0.143   1.840  2.3391 -1.4877 -2.9045
 6302TIP3   OH240464   4.264   1.154   2.010 -0.3993  0.6290  0.0072
 6302TIP3    H140465   4.173   1.180   1.996 -0.6169 -0.7855 -1.3196
 6302TIP3    H240466   4.259   1.088   2.079 -0.1224  1.9479  1.3656
 6303TIP3   OH240467   4.437   3.463   7.890 -0.2448  0.1576  0.0187
 6303TIP3    H140468   4.400   3.551   7.884 -0.9680  0.2710  3.8194
 6303TIP3    H240469   4.379   3.408   7.838 -0.5308  1.7029 -1.3451
 6304TIP3   OH240470   6.187   4.828   7.911 -0.1596  0.0070  0.0326
 6304TIP3    H140471   6.194   4.919   7.939 -0.3646  0.6754 -1.9013
 6304TIP3    H240472   6.273   4.790   7.929  0.4495  1.0541 -0.5634
 6305TIP3   OH240473   1.042   4.030   7.948 -0.4582 -0.2473 -0.2713
 6305TIP3    H140474   1.106   4.091   7.987  0.1441 -1.8109  1.3453
 6305TIP3    H240475   1.090   3.989   7.876  0.1123 -0.8395  0.4327
 6306TIP3   OH240476   5.776   0.453   0.103  0.2304 -0.2153  0.7409
 6306TIP3    H140477   5.853   0.429   0.050 -0.9270 -0.1940 -1.0455
 6306TIP3    H240478   5.737   0.526   0.055 -2.8141 -2.3784 -0.3858
 6307TIP3   OH240479   5.922   4.172   1.310 -0.1198  0.0451  0.3151
 6307TIP3    H140480   5.967   4.217   1.239 -1.6952  0.7075 -0.3084
 6307TIP3    H240481   5.880   4.242   1.360  0.7727 -0.4287  1.7960
 6308TIP3   OH240482   0.082   4.263   0.863  0.3587  0.4319  0.2000
 6308TIP3    H140483   0.117   4.293   0.780 -0.0418  0.1735 -0.0665
 6308TIP3    H240484   0.099   4.168   0.863  0.8187  0.5081  0.6395
 6309TIP3   OH240485   5.271   5.192   8.596  0.4246 -0.4421 -0.0249
 6309TIP3    H140486   5.236   5.276   8.565 -0.4379 -1.0113 -0.6452
 6309TIP3    H240487   5.198   5.152   8.644  0.0745 -1.7585 -1.5380
 6310TIP3   OH240488   1.155   1.655   2.320 -0.2153  0.4155 -0.1034
 6310TIP3    H140489   1.242   1.645   2.357 -0.4389 -0.8920  0.1119
 6310TIP3    H240490   1.098   1.665   2.397 -0.2568  1.3419 -0.2453
 6311TIP3   OH240491   5.735   6.229   1.912 -0.3538  0.2093  0.6343
 6311TIP3    H140492   5.676   6.155   1.928 -1.4017  0.5412 -1.3680
 6311TIP3    H240493   5.709   6.294   1.977 -2.0051  0.2131  0.0246
 6312TIP3   OH240494   0.787   5.770   1.274 -0.3217  0.0207  0.5653
 6312TIP3    H140495   0.772   5.845   1.331  2.3140  1.2135 -0.1553
 6312TIP3    H240496   0.736   5.789   1.195 -1.8342 -0.3335  1.4204
 6313TIP3   OH240497   4.810   5.187   0.561  0.1579  0.1023 -0.4406
 6313TIP3    H140498   4.801   5.136   0.481  1.0737 -3.1953  1.3935
 6313TIP3    H240499   4.903   5.181   0.584 -0.0623  1.0535  0.8570
 6314TIP3   OH240500   2.679   2.437   0.509  0.2221  0.0384  0.0762
 6314TIP3    H140501   2.771   2.430   0.481  0.0955 -0.6470 -0.1902
 6314TIP3    H240502   2.644   2.510   0.459  0.2096 -0.6813 -0.9881
 6315TIP3   OH240503   3.197   0.552   1.326  0.1013 -0.5103 -0.2013
 6315TIP3    H140504   3.188   0.584   1.415 -0.7444 -0.0322 -0.4449
 6315TIP3    H240505   3.229   0.627   1.276  0.9539 -0.8834 -0.2400
 6316TIP3   OH240506   3.559   6.324   7.913 -0.3385 -0.2579 -0.4793
 6316TIP3    H140507   3.469   6.296   7.925 -0.6728 -0.4044 -2.7916
 6316TIP3    H240508   3.599   6.255   7.861  0.2227  1.1716 -2.0604
 6317TIP3   OH240509   2.272   6.695   1.970 -0.0550 -0.5084  0.2167
 6317TIP3    H140510   2.316   6.766   2.017 -1.5763  0.1226  0.7803
 6317TIP3    H240511   2.320   6.685   1.889  0.6520  0.6533  0.4750
 6318TIP3   OH240512   1.439   2.933   7.759 -0.5236  0.4030  0.1994
 6318TIP3    H140513   1.454   2.880   7.681 -0.5146  0.1322  0.3858
 6318TIP3    H240514   1.527   2.956   7.789 -0.4940 -0.4835  0.8100
 6319TIP3   OH240515   6.614   5.883   8.235  0.5708  0.4919  0.4212
 6319TIP3    H140516   6.601   5.799   8.279 -0.3922  0.8459  0.8579
 6319TIP3    H240517   6.529   5.901   8.193  0.4961  1.6254  1.0183
 6320TIP3   OH240518   5.989   4.620   7.938  0.1823 -0.1847 -0.4957
 6320TIP3    H140519   5.933   4.641   8.013  1.2717 -0.5597  0.4727
 6320TIP3    H240520   6.034   4.702   7.918 -1.5152  0.4168 -2.0269
 6321TIP3   OH240521   3.289   1.994   2.361 -0.7019 -0.0060  0.4679
 6321TIP3    H140522   3.216   1.946   2.401  0.0055 -2.0695 -0.5696
 6321TIP3    H240523   3.329   1.931   2.302  0.7344  1.7073 -0.4725
 6322TIP3   OH240524   0.233   4.626   0.321  0.3425 -0.3874  0.1038
 6322TIP3    H140525   0.195   4.610   0.235  2.0551  0.3037 -0.8374
 6322TIP3    H240526   0.296   4.555   0.332  2.1241  1.0258 -0.4880
 6323TIP3   OH240527   4.923   4.931   0.920  0.4478  0.3836  0.5509
 6323TIP3    H140528   4.907   4.842   0.951 -0.8289  0.7874  1.1243
 6323TIP3    H240529   4.897   4.987   0.993 -0.1893  1.2684 -0.3259
 6324TIP3   OH240530   5.546   6.494   0.610  0.2856  0.2268  0.6864
 6324TIP3    H140531   5.610   6.547   0.658  0.3968  1.1435 -0.4182
 6324TIP3    H240532   5.541   6.536   0.524 -0.0811 -1.2271 -0.0243
 6325TIP3   OH240533   3.428   0.647   1.137  0.7551 -0.1322  0.0050
 6325TIP3    H140534   3.464   0.634   1.225 -0.2123 -1.5261  0.2163
 6325TIP3    H240535   3.448   0.566   1.091 -0.4322 -0.1684 -0.4623
 6326TIP3   OH240536   2.195   1.428   2.362 -0.3627  0.1245 -0.0266
 6326TIP3    H140537   2.190   1.460   2.452  0.3789  2.6101 -0.7708
 6326TIP3    H240538   2.257   1.488   2.319  0.4531 -1.8806 -1.8527
 6327TIP3   OH240539   6.170   4.132   8.767 -0.1014  0.3258  0.3040
 6327TIP3    H140540   6.170   4.106   8.675 -1.6009  1.7145 -0.1401
 6327TIP3    H240541   6.232   4.204   8.772  0.8887 -0.5338  0.6523
 6328TIP3   OH240542   6.816   5.420   2.866  0.2998 -0.2885  0.3272
 6328TIP3    H140543   6.723   5.439   2.874  0.3773 -0.3625  1.5280
 6328TIP3    H240544   6.846   5.408   2.956  1.8416  1.5375  0.1276
 6329TIP3   OH240545   4.578   2.896   8.152  0.4034  0.3455  0.5265
 6329TIP3    H140546   4.666   2.866   8.130  1.1852  2.0107  1.1374
 6329TIP3    H240547   4.524   2.870   8.077  1.7060  0.4915 -0.5073
 6330TIP3   OH240548   5.413   4.316   1.966 -0.0742  0.0851 -0.8740
 6330TIP3    H140549   5.414   4.230   1.924  0.2785 -0.6928  0.6614
 6330TIP3    H240550   5.390   4.377   1.895 -3.1296 -1.5529 -1.4822
 6331TIP3   OH240551   4.325   4.147   6.980  0.2241 -0.1162 -0.0954
 6331TIP3    H140552   4.264   4.099   6.925  0.1112  0.4288 -0.4550
 6331TIP3    H240553   4.275   4.169   7.058 -0.5001  1.5026 -0.9506
 6332TIP3   OH240554   3.442   0.874   0.284  0.2768 -0.5683  0.2582
 6332TIP3    H140555   3.487   0.958   0.298 -0.9410  0.3215 -0.8495
 6332TIP3    H240556   3.349   0.894   0.300  0.0052 -1.7746  0.2396
 6333TIP3   OH240557   3.779   4.990   7.566  0.5051  0.1021  0.2667
 6333TIP3    H140558   3.736   4.994   7.480  1.1493  1.1382 -0.0202
 6333TIP3    H240559   3.707   4.991   7.629  0.0358 -0.3463 -0.2449
 6334TIP3   OH240560   5.114   0.075   8.407 -0.0604 -0.6793  0.0560
 6334TIP3    H140561   5.204   0.044   8.419 -0.1269 -0.4549  1.3519
 6334TIP3    H240562   5.067  -0.000   8.371  0.5810 -0.8923 -0.3432
 6335TIP3   OH240563   2.225   2.458   0.679 -0.5009 -0.4362  0.6695
 6335TIP3    H140564   2.301   2.513   0.702 -1.7951  0.8569  2.0818
 6335TIP3    H240565   2.247   2.372   0.713  0.2165 -0.0071  1.3292
 6336TIP3   OH240566   2.478   0.337   0.487  0.0495 -0.3629  0.0149
 6336TIP3    H140567   2.536   0.337   0.563 -0.4923  0.4748  0.4312
 6336TIP3    H240568   2.442   0.248   0.485  2.6408 -1.5019 -1.2766
 6337TIP3   OH240569   1.897   3.927   0.144 -0.0542 -0.4945  0.1201
 6337TIP3    H140570   1.805   3.913   0.166 -0.4460  0.9546 -0.4376
 6337TIP3    H240571   1.944   3.919   0.227 -0.6337 -1.4935  0.3689
 6338TIP3   OH240572   2.816   1.455   0.002 -0.2602  0.1040  0.5745
 6338TIP3    H140573   2.875   1.443  -0.072 -1.1113 -0.0546 -0.0935
 6338TIP3    H240574   2.750   1.386  -0.008 -1.1134  0.8632  0.7435
 6339TIP3   OH240575   1.843   3.174   8.147 -0.2817 -0.1707 -0.0110
 6339TIP3    H140576   1.799   3.212   8.223  0.4665  1.0832 -0.1801
 6339TIP3    H240577   1.912   3.119   8.184 -0.2499  0.0294  0.2289
 6340TIP3   OH240578   0.888   5.447   2.833 -0.6087  0.0925 -0.1036
 6340TIP3    H140579   0.794   5.437   2.822 -0.4223  0.0558 -2.2200
 6340TIP3    H240580   0.923   5.358   2.822 -0.3048  0.1472  0.3871
 6341TIP3   OH240581   3.749   1.606   7.027 -0.3060 -0.7139  0.4032
 6341TIP3    H140582   3.746   1.514   7.053  0.1717 -0.6651  0.6348
 6341TIP3    H240583   3.827   1.613   6.973 -0.4099 -0.4660  0.2848
 6342TIP3   OH240584   6.341   6.008   0.617  0.3606 -0.1275  0.1106
 6342TIP3    H140585   6.294   5.982   0.538 -0.2289  0.0938  0.3796
 6342TIP3    H240586   6.311   5.947   0.684  0.0850  0.3119  0.3973
 6343TIP3   OH240587   2.923   5.293   0.386 -0.2235  0.2817 -0.4049
 6343TIP3    H140588   2.990   5.227   0.403 -0.7830 -0.1978  0.0309
 6343TIP3    H240589   2.939   5.322   0.297  2.5793  2.5815  0.7101
 6344TIP3   OH240590   3.798   2.304   1.050 -0.4005  0.0224  0.1427
 6344TIP3    H140591   3.793   2.348   0.965  0.5081 -0.3766 -0.1313
 6344TIP3    H240592   3.707   2.294   1.077 -0.7595 -0.6538 -1.2084
 6345TIP3   OH240593   6.267   6.623   6.665 -0.2189  0.6810  0.1740
 6345TIP3    H140594   6.253   6.561   6.737  0.2746  0.5444  0.1567
 6345TIP3    H240595   6.180   6.634   6.626 -0.0894 -1.0140 -0.6433
 6346TIP3   OH240596   0.049   3.413   1.555 -0.5544  0.0140 -0.3216
 6346TIP3    H140597   0.048   3.465   1.475  0.1779 -2.2437 -1.9089
 6346TIP3    H240598  -0.019   3.347   1.543 -0.0815 -0.6917  0.6707
 6347TIP3   OH240599   4.313   5.425   7.621 -0.2637  0.1189  0.5468
 6347TIP3    H140600   4.357   5.340   7.615  1.4573  0.9516  0.8400
 6347TIP3    H240601   4.361   5.473   7.688 -2.1137  0.8450  1.4323
 6348TIP3   OH240602   6.516   6.764   0.939 -0.5362 -0.2446  0.2518
 6348TIP3    H140603   6.478   6.829   0.998 -1.1837 -0.1427 -0.2638
 6348TIP3    H240604   6.534   6.689   0.994  0.1391  0.3393  0.8398
 6349TIP3   OH240605   2.058   0.277   8.550  0.3369  0.2195  0.0397
 6349TIP3    H140606   1.982   0.218   8.545  0.4099 -0.0501  1.6774
 6349TIP3    H240607   2.102   0.266   8.465 -1.8448  0.9605 -1.2813
 6350TIP3   OH240608   5.275   6.760   1.265 -0.0032 -0.7074 -0.2596
 6350TIP3    H140609   5.310   6.674   1.242  0.0018 -0.9416  0.5813
 6350TIP3    H240610   5.349   6.805   1.307 -0.0503 -0.3468 -0.5545
 6351TIP3   OH240611   2.418   3.330   7.625 -0.1899 -0.2274  0.1174
 6351TIP3    H140612   2.482   3.382   7.576 -0.8259  0.0985 -0.3917
 6351TIP3    H240613   2.396   3.384   7.700 -0.1812 -0.1574  0.0697
 6352TIP3   OH240614   5.471   0.754   2.667  0.1110 -0.0153 -0.2656
 6352TIP3    H140615   5.510   0.704   2.739 -1.6758 -2.0573 -0.5914
 6352TIP3    H240616   5.419   0.821   2.710  0.3630 -0.1698  0.2980
 6353TIP3   OH240617   0.389   5.245   2.756 -0.6020 -0.1143  0.1373
 6353TIP3    H140618   0.427   5.172   2.708 -0.6081 -0.7156  1.0127
 6353TIP3    H240619   0.296   5.243   2.734 -0.0310  2.2878 -3.2101
 6354TIP3   OH240620   5.183   1.691   2.067 -0.0084 -0.1514 -0.6207
 6354TIP3    H140621   5.218   1.779   2.081 -1.9652  0.7215 -0.8945
 6354TIP3    H240622   5.177   1.653   2.154  1.8773 -0.4781 -0.5898
 6355TIP3   OH240623   3.700   3.585   1.320  0.3518 -0.2847 -0.7034
 6355TIP3    H140624   3.699   3.658   1.258 -0.2801 -1.6114 -2.3533
 6355TIP3    H240625   3.787   3.546   1.309  1.3273  1.1153  1.3831
 6356TIP3   OH240626   5.073   2.465   1.326  0.2660 -0.3390 -0.2974
 6356TIP3    H140627   5.017   2.393   1.354  0.7213 -0.1965  1.0993
 6356TIP3    H240628   5.157   2.424   1.307  0.0868 -0.3716 -1.0477
 6357TIP3   OH240629   3.405   5.067   1.273  0.1661  0.2329 -0.5310
 6357TIP3    H140630   3.443   4.982   1.298 -1.5664 -1.1575 -2.2887
 6357TIP3    H240631   3.313   5.047   1.257 -0.1662  2.3577 -1.5077
 6358TIP3   OH240632   0.060   2.016   7.780 -0.3821  0.0495  0.4941
 6358TIP3    H140633   0.082   2.109   7.778 -1.8103  0.4023 -0.7038
 6358TIP3    H240634   0.025   2.001   7.867 -1.5893  1.0139  0.1924
 6359TIP3   OH240635   4.881   0.247   1.180 -0.1466  0.5408 -0.1657
 6359TIP3    H140636   4.928   0.317   1.136  0.3481  0.0047 -0.5039
 6359TIP3    H240637   4.943   0.174   1.182  0.3979  0.9647  2.6638
 6360TIP3   OH240638   1.472   4.448   2.021 -0.6623  0.0641  0.2092
 6360TIP3    H140639   1.413   4.373   2.028 -0.9574  0.3599  1.0048
 6360TIP3    H240640   1.559   4.410   2.008 -0.9720 -0.3815 -0.6400
 6361TIP3   OH240641   4.971   2.154   0.363  0.4451  0.0011 -0.0684
 6361TIP3    H140642   5.006   2.116   0.443 -0.3543 -2.5827 -0.8505
 6361TIP3    H240643   4.998   2.093   0.293 -1.3846  0.5551 -1.3327
 6362TIP3   OH240644   0.924   4.068   0.238 -0.8911 -0.1649  0.6578
 6362TIP3    H140645   0.859   4.012   0.280 -1.4669  1.6232  2.3127
 6362TIP3    H240646   0.996   4.072   0.301  0.6099 -1.5681 -0.8564
 6363TIP3   OH240647   2.335   0.311   1.892  0.1047 -0.1903  0.1015
 6363TIP3    H140648   2.314   0.285   1.982  0.1396 -1.2011 -0.1649
 6363TIP3    H240649   2.309   0.235   1.839  0.4345  0.2475 -0.7026
 6364TIP3   OH240650   4.944   1.578   7.989 -0.1214  0.4338  0.3490
 6364TIP3    H140651   4.909   1.539   8.069 -0.9034 -1.0546 -0.6781
 6364TIP3    H240652   5.036   1.550   7.987 -0.5020 -0.8511 -0.0356
 6365TIP3   OH240653   5.840   3.021   8.433 -0.0685  0.3596  0.8160
 6365TIP3    H140654   5.754   2.979   8.434 -0.4995  1.0186 -1.8753
 6365TIP3    H240655   5.901   2.951   8.409 -0.1740  0.3665  0.5300
 6366TIP3   OH240656   4.573   2.961   0.067  0.7496 -0.0520 -0.7138
 6366TIP3    H140657   4.587   3.054   0.054  0.5756  0.1154  0.1836
 6366TIP3    H240658   4.623   2.940   0.146 -0.4780 -0.3739  0.0013
 6367TIP3   OH240659   0.719   4.354   2.579  0.0217  0.0404  0.2389
 6367TIP3    H140660   0.746   4.445   2.594 -0.3042  0.1148  0.3785
 6367TIP3    H240661   0.657   4.360   2.506 -0.4876  0.0091  0.6624
 6368TIP3   OH240662   2.423   3.100   8.386  0.3494  0.1021  0.3328
 6368TIP3    H140663   2.364   3.164   8.426 -1.8243 -1.4062 -0.2568
 6368TIP3    H240664   2.369   3.055   8.322  1.9583 -1.9285  0.2985
 6369TIP3   OH240665   3.463   3.504   0.614  0.0082 -0.3500  0.5277
 6369TIP3    H140666   3.439   3.596   0.602 -3.0646 -0.8725  1.8672
 6369TIP3    H240667   3.434   3.460   0.534  0.1101 -0.4162  0.5257
 6370TIP3   OH240668   4.006   2.712   1.119 -0.4100 -0.0281 -0.1985
 6370TIP3    H140669   3.912   2.711   1.100 -0.9371 -0.9485  2.0464
 6370TIP3    H240670   4.020   2.796   1.162 -0.7290 -0.7792  1.4630
 6371TIP3   OH240671   3.553   5.498   1.815 -0.1259  0.2434 -0.7857
 6371TIP3    H140672   3.594   5.411   1.812 -1.7300 -0.5713 -0.4191
 6371TIP3    H240673   3.551   5.526   1.724 -0.7459 -0.7108 -1.0905
 6372TIP3   OH240674   6.052   4.071   1.520  0.3332 -0.4263 -0.0991
 6372TIP3    H140675   6.005   4.096   1.441  0.6835 -2.2929 -0.9580
 6372TIP3    H240676   6.141   4.104   1.508  0.2767 -0.3509 -0.3023
 6373TIP3   OH240677   0.592   3.931   0.684 -0.2395 -0.2971  0.2583
 6373TIP3    H140678   0.553   4.018   0.691  2.3567  1.1448 -1.6533
 6373TIP3    H240679   0.517   3.873   0.670 -1.8951  2.0357 -1.5262
 6374TIP3   OH240680   2.815   0.876   2.108 -0.1663  0.4038  0.0220
 6374TIP3    H140681   2.779   0.817   2.174  1.3129 -0.7494 -0.1642
 6374TIP3    H240682   2.738   0.911   2.063 -1.1247 -0.1464  1.1867
 6375TIP3   OH240683   4.390   2.161   2.875 -0.7262 -0.6745 -0.2190
 6375TIP3    H140684   4.477   2.195   2.852 -0.1808 -1.9929 -0.2078
 6375TIP3    H240685   4.408   2.077   2.918 -1.9937 -0.7433  0.2147
 6376TIP3   OH240686   0.867   6.493   2.012 -0.2626 -0.0581  0.3872
 6376TIP3    H140687   0.859   6.425   1.944  0.4551  1.1495 -0.9641
 6376TIP3    H240688   0.778   6.501   2.047 -0.8090 -0.2761 -0.8686
 6377TIP3   OH240689   1.942   5.961   7.385  0.9368  0.0059 -0.6964
 6377TIP3    H140690   2.035   5.977   7.368  0.9826  0.6356  0.0855
 6377TIP3    H240691   1.941   5.888   7.448  0.9442  0.6212  0.0245
 6378TIP3   OH240692   5.624   1.146   2.422 -0.2618 -0.3229  1.0594
 6378TIP3    H140693   5.540   1.186   2.446 -0.2267  1.4054 -1.3405
 6378TIP3    H240694   5.603   1.086   2.351  0.5930  1.0871 -0.4687
 6379TIP3   OH240695   0.645   1.459   2.886 -0.1022  0.0533 -0.3964
 6379TIP3    H140696   0.621   1.498   2.970 -2.1575 -3.6213  0.9533
 6379TIP3    H240697   0.728   1.414   2.903 -0.9032 -1.3457  0.0019
 6380TIP3   OH240698   1.081   5.161   7.900 -0.4808 -0.2225  0.0231
 6380TIP3    H140699   1.145   5.216   7.854 -0.1334  0.4560  1.2840
 6380TIP3    H240700   1.104   5.072   7.873  0.0480  0.1219 -0.7061
 6381TIP3   OH240701   6.027   6.290   0.144  0.3354 -0.3267 -0.3553
 6381TIP3    H140702   6.057   6.206   0.110 -1.2071 -1.6109  1.2809
 6381TIP3    H240703   6.088   6.310   0.216 -0.0619 -0.7309  0.1045
 6382TIP3   OH240704   5.319   1.652   1.275  0.3494  0.0710 -0.2333
 6382TIP3    H140705   5.250   1.586   1.279 -0.5899  1.0143 -0.4223
 6382TIP3    H240706   5.294   1.708   1.202  0.0364  1.7910  1.1427
 6383TIP3   OH240707   4.605   4.291   7.905  0.0656  0.2455  0.0874
 6383TIP3    H140708   4.662   4.307   7.980  0.5610 -2.5811  0.4626
 6383TIP3    H240709   4.524   4.256   7.944  0.2662 -1.0880 -0.6298
 6384TIP3   OH240710   2.562   4.626   8.744  0.2941 -0.1072 -0.0452
 6384TIP3    H140711   2.563   4.631   8.648 -0.5126  0.4806 -0.0312
 6384TIP3    H240712   2.474   4.655   8.769  0.8463  0.8065  0.9289
 6385TIP3   OH240713   2.474   5.099   8.082  0.4012  0.5348  0.2472
 6385TIP3    H140714   2.561   5.113   8.121  0.3944 -0.8369  0.8145
 6385TIP3    H240715   2.413   5.121   8.152  0.3562 -0.5137  0.5559
 6386TIP3   OH240716   1.961   1.263   1.782 -0.0348  0.7125  0.3292
 6386TIP3    H140717   2.020   1.337   1.799 -0.8398  1.4067  0.2096
 6386TIP3    H240718   1.991   1.227   1.699 -1.1418  2.5068 -0.9371
 6387TIP3   OH240719   6.813   3.326   7.668  0.0076 -0.6272 -0.1012
 6387TIP3    H140720   6.891   3.382   7.662 -1.0774  0.7916 -2.0618
 6387TIP3    H240721   6.842   3.242   7.632  0.4467  0.1466 -1.6402
 6388TIP3   OH240722   3.373   4.886   7.551  0.2183  0.4960 -0.0756
 6388TIP3    H140723   3.387   4.865   7.459 -0.9194  0.0834 -0.1778
 6388TIP3    H240724   3.369   4.800   7.594  0.9795  0.6942  0.3930
 6389TIP3   OH240725   6.533   6.422   8.742  0.2062  0.0341 -0.3501
 6389TIP3    H140726   6.529   6.518   8.743 -0.6796  0.0078 -0.6260
 6389TIP3    H240727   6.444   6.394   8.764  0.1328 -0.7150 -1.5139
 6390TIP3   OH240728   5.379   5.287   0.798 -0.4141  0.1263  0.3785
 6390TIP3    H140729   5.427   5.231   0.737 -0.4952  1.5833 -1.0957
 6390TIP3    H240730   5.288   5.279   0.771 -0.3646  1.3635 -0.2372
 6391TIP3   OH240731   3.667   0.187   0.063 -0.6336  0.1604  0.1612
 6391TIP3    H140732   3.684   0.264   0.116 -2.5066 -0.4605  1.7928
 6391TIP3    H240733   3.686   0.215  -0.027 -2.5844  2.9845  0.5048
 6392TIP3   OH240734   0.215   0.291   0.361 -0.1918  0.2988 -0.0499
 6392TIP3    H140735   0.187   0.254   0.445  0.5011 -0.9904 -0.3719
 6392TIP3    H240736   0.287   0.350   0.384 -0.7562  0.8453  0.3701
 6393TIP3   OH240737   0.981   1.141   8.715 -0.5932 -0.4220  0.1546
 6393TIP3    H140738   0.963   1.232   8.689  1.2648 -0.0160  0.1593
 6393TIP3    H240739   1.018   1.101   8.636  1.7661 -0.1713  1.0560
 6394TIP3   OH240740   6.802   0.595   0.821 -0.2961 -0.4114 -0.2808
 6394TIP3    H140741   6.845   0.675   0.849  0.9508 -0.3832 -2.1451
 6394TIP3    H240742   6.715   0.622   0.792 -0.7021 -0.1038  1.1190
 6395TIP3   OH240743   3.540   3.983   0.963 -0.4527  0.3480 -0.1079
 6395TIP3    H140744   3.583   4.068   0.969  0.2314 -0.0776  1.5956
 6395TIP3    H240745   3.520   3.959   1.053 -1.4863 -0.8809 -0.6294
 6396TIP3   OH240746   1.201   5.866   1.702  0.4066  0.0896  0.5160
 6396TIP3    H140747   1.197   5.884   1.796  0.5516  0.0833  0.5231
 6396TIP3    H240748   1.115   5.829   1.681 -0.0210  1.0761  0.4405
 6397TIP3   OH240749   0.024   6.740   0.469  0.0483 -0.4431  0.2270
 6397TIP3    H140750   0.029   6.821   0.518  0.5094 -0.0664 -0.4255
 6397TIP3    H240751  -0.009   6.766   0.382 -1.5638 -1.1997  0.5609
 6398TIP3   OH240752   1.052   2.482   1.285 -0.5257 -0.4379 -0.0690
 6398TIP3    H140753   1.019   2.490   1.374 -1.3340 -1.1913 -0.2919
 6398TIP3    H240754   0.990   2.425   1.241 -0.3465  0.2209 -1.2299
 6399TIP3   OH240755   6.787   2.441   0.219 -0.1881 -0.4237  0.5924
 6399TIP3    H140756   6.758   2.496   0.293 -0.2848 -1.0446  1.0202
 6399TIP3    H240757   6.738   2.475   0.144 -0.1079  0.1994  0.8132
 6400TIP3   OH240758   4.262   6.324   1.432 -0.5089 -0.1901 -0.3595
 6400TIP3    H140759   4.211   6.369   1.499 -0.9172 -1.4831  0.2165
 6400TIP3    H240760   4.198   6.302   1.364 -0.3794 -0.2302 -0.4678
 6401TIP3   OH240761   5.974   2.871   0.517 -0.9000 -0.2210  0.0105
 6401TIP3    H140762   5.932   2.905   0.597 -0.1019 -1.0481  0.8057
 6401TIP3    H240763   6.022   2.947   0.482  1.9573 -0.6608  2.4911
 6402TIP3   OH240764   3.820   6.308   8.741 -0.0575  0.3015 -0.8517
 6402TIP3    H140765   3.841   6.219   8.712  0.4867 -0.3081  1.2410
 6402TIP3    H240766   3.902   6.339   8.780 -0.1540  1.8750 -1.8118
 6403TIP3   OH240767   4.241   4.062   0.084  0.6824 -0.0032 -0.0565
 6403TIP3    H140768   4.273   4.037  -0.002 -2.0714 -0.3922 -1.0414
 6403TIP3    H240769   4.201   3.983   0.119 -0.4847  0.7998  0.4793
 6404TIP3   OH240770   5.591   1.119   8.385 -0.0351 -0.3513  0.0089
 6404TIP3    H140771   5.520   1.153   8.331  0.8890  0.7044 -0.5610
 6404TIP3    H240772   5.602   1.028   8.355 -0.8473 -0.3971 -0.1785
 6405TIP3   OH240773   6.237   0.971   7.162  0.2528 -0.3085  0.2569
 6405TIP3    H140774   6.297   0.906   7.126  0.2085  0.2274 -0.8374
 6405TIP3    H240775   6.289   1.020   7.225  0.7688 -0.3122 -0.1606
 6406TIP3   OH240776   1.034   6.301   8.463  0.3870 -0.1061 -0.4848
 6406TIP3    H140777   1.074   6.333   8.382  0.5811  2.3296  0.5069
 6406TIP3    H240778   0.981   6.374   8.494 -1.1568 -1.6424  0.6609
 6407TIP3   OH240779   3.298   3.415   1.094  0.7279 -0.5647 -0.6133
 6407TIP3    H140780   3.283   3.322   1.110  1.1655 -0.1817  2.7100
 6407TIP3    H240781   3.234   3.459   1.150  4.1491  1.0417  2.4243
 6408TIP3   OH240782   4.183   0.909   1.054 -0.2909  0.2263  0.1994
 6408TIP3    H140783   4.234   0.892   0.974 -0.7730  2.1559 -0.5664
 6408TIP3    H240784   4.241   0.964   1.108 -0.7371  0.6350  0.2673
 6409TIP3   OH240785   3.511   6.170   8.739  0.0748  0.4468  0.0336
 6409TIP3    H140786   3.490   6.255   8.779 -2.2664 -0.0715  0.0648
 6409TIP3    H240787   3.562   6.124   8.806 -1.1571  0.7454  1.2330
 6410TIP3   OH240788   1.984   3.322   1.880 -0.2770 -0.1620  0.2650
 6410TIP3    H140789   1.890   3.307   1.871 -0.5406  1.4885 -0.0535
 6410TIP3    H240790   1.991   3.392   1.945  0.6803  0.2814 -0.2881
 6411TIP3   OH240791   1.338   4.595   2.429  0.1654 -0.1501  0.0363
 6411TIP3    H140792   1.347   4.688   2.449  0.3394 -0.1313 -0.1317
 6411TIP3    H240793   1.332   4.553   2.515  1.2350 -0.0988  0.1433
 6412TIP3   OH240794   2.866   6.337   8.161  0.2643 -0.1267 -0.2583
 6412TIP3    H140795   2.889   6.272   8.094  0.0045 -0.2774 -0.1993
 6412TIP3    H240796   2.855   6.419   8.111  3.7103  0.6487  0.0006
 6413TIP3   OH240797   6.173   2.689   0.487 -0.1581  0.1209  0.5440
 6413TIP3    H140798   6.246   2.751   0.477 -1.4350  1.4316 -1.2961
 6413TIP3    H240799   6.096   2.745   0.501 -0.9831 -1.2008  1.5159
 6414TIP3   OH240800   3.123   3.495   1.304  0.0031 -0.2717 -0.0989
 6414TIP3    H140801   3.121   3.439   1.382  1.2215 -1.3156 -0.7914
 6414TIP3    H240802   3.034   3.490   1.269 -0.6156  0.3555  1.3025
 6415TIP3   OH240803   2.082   3.972   2.221  0.0770 -0.8048  0.0580
 6415TIP3    H140804   2.007   4.016   2.182  0.8381  1.0662  0.5778
 6415TIP3    H240805   2.108   3.906   2.157 -2.2825 -1.8910  0.0903
 6416TIP3   OH240806   5.629   0.249   8.584  0.1775 -0.2356 -0.2501
 6416TIP3    H140807   5.724   0.232   8.583  0.2696  0.2299  0.2313
 6416TIP3    H240808   5.598   0.214   8.500  0.7636 -0.4590 -0.3806
 6417TIP3   OH240809   6.721   6.794   7.598 -0.5675  0.2791  0.4243
 6417TIP3    H140810   6.778   6.807   7.674  0.9199 -2.5726 -0.0331
 6417TIP3    H240811   6.712   6.880   7.558  1.1774  1.2933  2.0951
 6418TIP3   OH240812   4.595   3.244   0.131 -0.3884 -0.2799 -0.3756
 6418TIP3    H140813   4.636   3.292   0.203 -1.1840  0.0065 -0.1025
 6418TIP3    H240814   4.504   3.231   0.159 -1.2701  1.5731 -2.1471
 6419TIP3   OH240815   6.509   4.470   8.454 -0.6672  0.0837  0.1507
 6419TIP3    H140816   6.522   4.564   8.466 -2.5418  0.0612  3.3647
 6419TIP3    H240817   6.477   4.463   8.364  3.3536  1.9181 -1.6779
 6420TIP3   OH240818   5.594   2.901   8.336  0.0424  0.2688  0.3123
 6420TIP3    H140819   5.529   2.885   8.404  1.4991 -2.0045  1.2622
 6420TIP3    H240820   5.550   2.879   8.254 -0.0739 -2.6010  1.0549
 6421TIP3   OH240821   1.065   0.504   0.014  0.1223 -0.3567  0.1736
 6421TIP3    H140822   1.075   0.416  -0.022 -0.9386  0.0007 -1.0681
 6421TIP3    H240823   1.024   0.491   0.099  0.2094 -1.0720  0.1063
 6422TIP3   OH240824   5.904   1.175   1.437 -0.0231  0.0289 -0.4293
 6422TIP3    H140825   5.924   1.189   1.530 -2.7250 -1.1173  0.4234
 6422TIP3    H240826   5.904   1.080   1.427 -2.7536  0.0039 -0.7776
 6423TIP3   OH240827   4.341   0.484   0.309 -0.3278 -0.5042 -0.2322
 6423TIP3    H140828   4.349   0.578   0.324  0.1423 -0.6029  0.1705
 6423TIP3    H240829   4.427   0.449   0.334 -0.9764 -1.2168  1.0506
 6424TIP3   OH240830   0.223   0.805   0.684  0.0145  0.1444 -0.4007
 6424TIP3    H140831   0.222   0.880   0.743 -1.4550 -0.4654  0.4216
 6424TIP3    H240832   0.141   0.812   0.635 -0.4321 -1.1960  0.1003
 6425TIP3   OH240833   0.880   0.782   0.678  0.6386 -0.0218 -0.0925
 6425TIP3    H140834   0.912   0.733   0.754 -2.4901 -2.5047 -0.1677
 6425TIP3    H240835   0.940   0.856   0.670  1.2983  0.2521  4.6129
 6426TIP3   OH240836   4.652   2.260   1.293 -0.5719  0.1767  0.3273
 6426TIP3    H140837   4.671   2.185   1.236  0.2879  2.6407 -2.9616
 6426TIP3    H240838   4.584   2.229   1.352  0.0113 -3.2617 -0.5959
 6427TIP3   OH240839   5.242   2.952   1.169  0.7067 -0.0112  0.0162
 6427TIP3    H140840   5.321   2.927   1.216  0.0097 -2.2961  0.1178
 6427TIP3    H240841   5.197   3.012   1.227  0.1333 -2.3475  2.1699
 6428TIP3   OH240842   0.251   0.972   8.104  0.2094  0.1441 -0.9696
 6428TIP3    H140843   0.179   1.035   8.097  0.4183  0.2375 -2.7356
 6428TIP3    H240844   0.330   1.026   8.107  0.2865  0.0059 -0.4050
 6429TIP3   OH240845   6.107   1.860   0.306  0.0914 -0.0487  0.4345
 6429TIP3    H140846   6.067   1.808   0.236  1.8961 -2.3743  0.9899
 6429TIP3    H240847   6.056   1.839   0.384 -1.5960  2.1431  0.0100
 6430TIP3   OH240848   1.030   0.074   2.412 -0.1355  0.7709 -0.1463
 6430TIP3    H140849   1.096   0.143   2.417  0.1650  0.4652  0.1217
 6430TIP3    H240850   0.991   0.085   2.325  0.9459  0.3353 -0.7062
 6431TIP3   OH240851   3.773   2.590   8.360 -0.1402  0.2871 -0.3330
 6431TIP3    H140852   3.687   2.619   8.391 -0.2418 -0.6845  0.3502
 6431TIP3    H240853   3.818   2.561   8.440 -0.0362 -1.3598 -0.9471
 6432TIP3   OH240854   6.662   3.284   2.101  0.5616 -0.5413 -0.5102
 6432TIP3    H140855   6.686   3.345   2.032 -0.3730 -0.0440 -0.4184
 6432TIP3    H240856   6.703   3.201   2.076  0.2302 -0.3742 -1.6584
 6433TIP3   OH240857   0.504   2.272   3.299 -0.6047 -0.5579  0.1583
 6433TIP3    H140858   0.522   2.366   3.291 -0.5931 -0.5650  0.0990
 6433TIP3    H240859   0.584   2.230   3.266  0.0271 -0.5883  1.6616
 6434TIP3   OH240860   6.623   5.909   1.232  0.1153 -0.2253  0.4758
 6434TIP3    H140861   6.612   5.834   1.289 -0.1935 -0.5453 -0.0001
 6434TIP3    H240862   6.658   5.978   1.289 -3.5133  0.6265  1.8926
 6435TIP3   OH240863   6.011   4.474   1.531 -0.4735  0.0821  0.3709
 6435TIP3    H140864   5.922   4.476   1.496 -0.4064  0.7481  0.2217
 6435TIP3    H240865   6.045   4.562   1.515  0.8542 -0.6480 -1.2360
 6436TIP3   OH240866   0.447   4.223   8.383  0.7010 -0.9824  0.2257
 6436TIP3    H140867   0.539   4.235   8.405  0.3605 -0.2415  1.3213
 6436TIP3    H240868   0.447   4.192   8.292  2.0669 -1.9742  0.5465
 6437TIP3   OH240869   0.790   1.825   8.362 -0.6437 -0.3657 -0.1622
 6437TIP3    H140870   0.874   1.835   8.408 -0.1764 -0.8320 -0.8879
 6437TIP3    H240871   0.814   1.823   8.269 -1.4408 -0.6770 -0.3697
 6438TIP3   OH240872   4.718   3.482   1.840  0.2903 -0.3695  0.3249
 6438TIP3    H140873   4.643   3.541   1.835 -0.5728 -1.4732 -0.2570
 6438TIP3    H240874   4.790   3.538   1.867 -0.4577  0.9805 -0.3296
 6439TIP3   OH240875   0.223   3.102   8.514 -0.1709 -0.2823 -0.2131
 6439TIP3    H140876   0.146   3.110   8.458 -0.8625 -0.4235  0.7002
 6439TIP3    H240877   0.281   3.043   8.466 -1.3335 -1.5033 -0.1697
 6440TIP3   OH240878   0.295   4.926   0.905 -0.0869 -0.0972  0.3135
 6440TIP3    H140879   0.243   5.006   0.895 -0.4778 -0.2136  1.2796
 6440TIP3    H240880   0.353   4.944   0.978  0.9738 -0.1262 -0.4943
 6441TIP3   OH240881   1.662   0.353   7.772  0.1116  0.1763 -0.5460
 6441TIP3    H140882   1.735   0.295   7.749 -0.5727 -0.9639  0.0647
 6441TIP3    H240883   1.693   0.399   7.850  0.7865  0.9105 -1.2227
 6442TIP3   OH240884   1.733   2.954   0.632  0.2325  0.2336  0.2269
 6442TIP3    H140885   1.821   2.991   0.635  0.5441 -0.5346  1.2673
 6442TIP3    H240886   1.732   2.900   0.553 -0.1715  2.2455 -1.2061
 6443TIP3   OH240887   5.077   6.218   7.997  0.1272 -0.1633 -0.9581
 6443TIP3    H140888   5.115   6.196   7.912 -0.0734 -0.2258 -1.0334
 6443TIP3    H240889   5.149   6.210   8.059 -0.1738 -2.2057 -0.7938
 6444TIP3   OH240890   3.434   5.830   1.895  0.1393 -0.4008  0.2972
 6444TIP3    H140891   3.378   5.753   1.883 -0.6054  0.0952  0.5273
 6444TIP3    H240892   3.459   5.827   1.987 -2.5280  1.3303  1.2139
 6445TIP3   OH240893   1.617   6.253   2.904 -0.5376  0.0836  0.1599
 6445TIP3    H140894   1.650   6.171   2.868 -1.2049  0.0913 -0.5059
 6445TIP3    H240895   1.523   6.237   2.917 -0.3742  0.2009  1.5859
 6446TIP3   OH240896   6.667   5.567   0.970  0.0183  0.2781  0.4378
 6446TIP3    H140897   6.588   5.540   0.924 -1.4468 -0.5913  3.2686
 6446TIP3    H240898   6.683   5.657   0.940 -0.9519 -0.1601 -1.5372
 6447TIP3   OH240899   1.380   0.894   2.548 -0.2908 -0.0884  0.1867
 6447TIP3    H140900   1.461   0.912   2.594 -0.7679  0.7527  0.7345
 6447TIP3    H240901   1.379   0.957   2.475 -0.3022 -0.3033  0.0012
 6448TIP3   OH240902   4.073   5.976   0.838 -0.3617 -0.1951  0.5250
 6448TIP3    H140903   4.109   5.907   0.893 -2.6664 -0.9254  1.2212
 6448TIP3    H240904   4.063   6.051   0.896  0.8116  0.3214  0.1053
 6449TIP3   OH240905   1.395   1.621   2.431  0.7679  0.1540 -0.5273
 6449TIP3    H140906   1.399   1.679   2.506 -0.1846  1.9982 -1.8205
 6449TIP3    H240907   1.482   1.628   2.390  0.1650  2.0880 -1.6141
 6450TIP3   OH240908   3.529   1.356   1.921  0.2714  0.3345  0.1996
 6450TIP3    H140909   3.456   1.316   1.968  0.9216 -0.2606  0.7138
 6450TIP3    H240910   3.559   1.427   1.977 -0.2863  0.9618 -0.2857
 6451TIP3   OH240911   1.950   3.065   0.762 -0.7760 -0.0478 -0.3581
 6451TIP3    H140912   1.926   3.115   0.840  0.6234  1.5678 -0.9197
 6451TIP3    H240913   2.041   3.089   0.744 -0.5205 -1.6925 -1.5150
 6452TIP3   OH240914   2.435   6.714   1.417 -0.3316  0.0905  0.2069
 6452TIP3    H140915   2.386   6.797   1.412 -0.2325  0.0956 -0.9922
 6452TIP3    H240916   2.518   6.733   1.373 -0.4270 -0.7266 -0.3386
 6453TIP3   OH240917   1.048   3.219   7.846  0.1727 -0.3435  0.3236
 6453TIP3    H140918   0.954   3.240   7.853  0.0774 -1.0747  1.5370
 6453TIP3    H240919   1.085   3.293   7.798 -1.0591 -0.1359 -0.3605
 6454TIP3   OH240920   4.842   0.364   0.473 -0.3035 -0.2685 -0.0376
 6454TIP3    H140921   4.823   0.363   0.379 -1.5341  1.0868  0.1751
 6454TIP3    H240922   4.931   0.329   0.479 -0.5817 -1.3648 -1.6018
 6455TIP3   OH240923   6.268   4.240   1.728 -0.5312  0.4648  0.2636
 6455TIP3    H140924   6.335   4.238   1.660 -0.7255 -0.4390  0.0855
 6455TIP3    H240925   6.188   4.210   1.685 -0.6074 -0.3327  0.9219
 6456TIP3   OH240926   4.208   5.096   2.168 -0.1365  0.1196 -0.2698
 6456TIP3    H140927   4.231   5.188   2.153 -0.7713  0.4296  0.5473
 6456TIP3    H240928   4.267   5.047   2.111  1.6817  0.9105  0.8526
 6457TIP3   OH240929   0.685   4.456   3.264 -0.1054  0.2751 -0.1080
 6457TIP3    H140930   0.650   4.535   3.304 -1.1992  0.0291 -0.5423
 6457TIP3    H240931   0.766   4.439   3.312 -1.1572  0.2031  1.7597
 6458TIP3   OH240932   1.824   5.696   7.473  0.0267  0.5975  0.0968
 6458TIP3    H140933   1.729   5.697   7.483 -0.0013  3.0229  0.0657
 6458TIP3    H240934   1.838   5.698   7.378  0.0209  2.8790  0.0879
 6459TIP3   OH240935   6.414   4.635   2.073 -0.3413 -0.2974 -0.2986
 6459TIP3    H140936   6.412   4.560   2.132 -0.5083 -0.0471  0.0188
 6459TIP3    H240937   6.475   4.610   2.004 -1.3402 -1.2238 -0.8732
 6460TIP3   OH240938   6.021   1.528   0.734  0.3189  0.6998  0.1585
 6460TIP3    H140939   6.087   1.477   0.782 -2.3614 -2.2238  1.1034
 6460TIP3    H240940   5.984   1.587   0.799 -0.9824 -0.8716  0.9248
 6461TIP3   OH240941   5.819   1.638   8.339  0.1513 -0.3283  0.0795
 6461TIP3    H140942   5.914   1.643   8.333  0.2243  0.3486  1.5317
 6461TIP3    H240943   5.789   1.729   8.339 -0.2259 -0.3591  2.8048
 6462TIP3   OH240944   0.444   6.235   7.858 -0.3150  0.6476 -0.5872
 6462TIP3    H140945   0.429   6.299   7.928  1.1941 -0.4944  0.8497
 6462TIP3    H240946   0.378   6.168   7.872  0.4261  0.0721  0.1910
 6463TIP3   OH240947   1.620   2.974   8.295  0.1742  0.1094 -0.0562
 6463TIP3    H140948   1.622   2.887   8.254  2.2422  0.2054 -0.2363
 6463TIP3    H240949   1.527   2.997   8.296 -0.1314 -0.4308 -3.5546
 6464TIP3   OH240950   4.385   3.174   0.281 -0.5424 -0.0402  0.6987
 6464TIP3    H140951   4.441   3.149   0.355 -0.3571 -0.5375  0.3934
 6464TIP3    H240952   4.343   3.092   0.254  0.6047 -0.1696 -0.7746
 6465TIP3   OH240953   2.761   5.694   8.284  0.4837 -0.1696  0.3232
 6465TIP3    H140954   2.800   5.606   8.285  0.8088 -0.0999  3.0942
 6465TIP3    H240955   2.744   5.712   8.192  3.1038 -1.9322 -0.6130
 6466TIP3   OH240956   3.582   1.273   0.062  0.0478  0.0666 -0.1094
 6466TIP3    H140957   3.595   1.186   0.022  1.1874  0.2745 -0.2476
 6466TIP3    H240958   3.632   1.332   0.005  3.3821  0.1313  2.5550
 6467TIP3   OH240959   2.843   4.756   1.763 -0.1342 -0.0271 -0.2904
 6467TIP3    H140960   2.777   4.748   1.831  0.3588 -2.1289  0.0396
 6467TIP3    H240961   2.924   4.723   1.804  1.8441  4.5439  0.0926
 6468TIP3   OH240962   4.996   5.846   0.143  0.1446 -0.2313  0.5016
 6468TIP3    H140963   5.015   5.767   0.194  0.7302 -0.1512  0.4100
 6468TIP3    H240964   4.973   5.814   0.056  1.1047 -0.2744  0.2507
 6469TIP3   OH240965   6.182   1.247   6.556 -0.7292 -0.7609 -0.3871
 6469TIP3    H140966   6.092   1.270   6.534 -0.0320  1.4023 -1.3027
 6469TIP3    H240967   6.235   1.290   6.488  1.1090 -0.1783  1.3044
 6470TIP3   OH240968   4.255   3.060   6.896 -0.1038 -0.4082  0.0490
 6470TIP3    H140969   4.246   3.133   6.835 -1.6654  0.0355  0.7635
 6470TIP3    H240970   4.338   3.075   6.941 -0.0134  0.4693 -0.3965
 6471TIP3   OH240971   6.562   5.740   1.435  0.1887 -0.0756  0.4402
 6471TIP3    H140972   6.624   5.729   1.508 -0.7355 -1.6397  1.0437
 6471TIP3    H240973   6.560   5.654   1.394  1.6603  1.0838 -2.3092
 6472TIP3   OH240974   5.160   5.968   7.847 -0.2262  0.2409  0.0839
 6472TIP3    H140975   5.108   5.939   7.772  1.9431 -1.7947 -0.7466
 6472TIP3    H240976   5.216   6.037   7.812  1.8481 -1.7076 -0.7048
 6473TIP3   OH240977   2.877   0.573   1.732  0.1847 -0.2954 -0.4467
 6473TIP3    H140978   2.904   0.524   1.810 -2.6201  0.2914  1.0335
 6473TIP3    H240979   2.824   0.644   1.767 -0.3633  0.5508 -2.8854
 6474TIP3   OH240980   1.613   4.566   0.916 -0.6654  0.5035  0.3420
 6474TIP3    H140981   1.686   4.600   0.865 -0.3709 -0.3501  0.1809
 6474TIP3    H240982   1.537   4.573   0.858 -0.1993 -1.1577 -0.5304
 6475TIP3   OH240983   2.016   1.557   0.012 -0.1474 -0.3276  0.6118
 6475TIP3    H140984   2.069   1.481  -0.008  0.0324  0.2564 -1.3622
 6475TIP3    H240985   1.926   1.525   0.009 -0.0616 -0.5254  0.0556
 6476TIP3   OH240986   4.168   4.240   2.871 -0.4263  0.3580 -0.0145
 6476TIP3    H140987   4.148   4.317   2.818  0.2219  0.8302  0.3961
 6476TIP3    H240988   4.107   4.173   2.841 -1.0074  1.0328 -0.3813
 6477TIP3   OH240989   6.695   5.676   7.926  0.5473 -0.2207  0.2228
 6477TIP3    H140990   6.733   5.746   7.978 -0.6153  1.3263 -0.9246
 6477TIP3    H240991   6.757   5.662   7.855  1.1320 -0.8795  0.8560
 6478TIP3   OH240992   0.168   1.139   1.328 -0.0623 -0.0912 -0.3034
 6478TIP3    H140993   0.081   1.106   1.307 -0.9179  2.2569 -0.6955
 6478TIP3    H240994   0.171   1.141   1.423 -0.1095 -0.9403 -0.2758
 6479TIP3   OH240995   3.136   3.728   2.325  0.0268  0.2254 -0.4228
 6479TIP3    H140996   3.178   3.765   2.402 -0.7003  1.9120 -0.8079
 6479TIP3    H240997   3.050   3.699   2.356  0.6374 -1.3592 -0.0934
 6480TIP3   OH240998   4.132   2.600   8.270 -0.0300 -0.2002  0.3555
 6480TIP3    H140999   4.217   2.634   8.298  0.9919 -2.4962  0.2274
 6480TIP3    H241000   4.114   2.527   8.330 -1.2484 -0.6326 -0.4968
 6481TIP3   OH241001   0.252   0.985   8.710 -0.2487 -0.5600 -0.0459
 6481TIP3    H141002   0.329   0.996   8.765 -0.3846 -0.9349  0.2266
 6481TIP3    H241003   0.273   1.032   8.629 -0.3006  0.5231  0.5635
 6482TIP3   OH241004   1.997   0.776   0.139  0.2243  0.2591  0.4169
 6482TIP3    H141005   1.932   0.784   0.209 -0.1437 -0.6737  0.2004
 6482TIP3    H241006   2.067   0.723   0.177 -0.0245 -0.3373  0.0567
 6483TIP3   OH241007   6.395   0.101   1.119 -0.2772  0.5610  0.3824
 6483TIP3    H141008   6.301   0.118   1.127 -0.4681 -0.8065  1.5393
 6483TIP3    H241009   6.421   0.070   1.206  0.7672 -1.2428 -0.5037
 6484TIP3   OH241010   5.900   6.404   2.779 -0.3695  0.5113  0.3050
 6484TIP3    H141011   5.921   6.486   2.823  2.3468 -0.2349  0.5441
 6484TIP3    H241012   5.892   6.428   2.687  3.2466  0.7539 -0.0923
 6485TIP3   OH241013   1.815   2.334   8.268  0.1963  0.0085  0.3465
 6485TIP3    H141014   1.733   2.351   8.222 -0.8715 -2.0905  1.3449
 6485TIP3    H241015   1.793   2.342   8.361  0.7121 -2.0184  0.6911
 6486TIP3   OH241016   4.402   3.029   7.233 -0.0571 -1.0069 -0.4538
 6486TIP3    H141017   4.452   3.053   7.155  0.6860 -0.2594  0.2364
 6486TIP3    H241018   4.466   2.987   7.291  0.7850  3.0952  1.9623
 6487TIP3   OH241019   0.118   5.168   1.466 -0.0484  0.1937 -0.3173
 6487TIP3    H141020   0.133   5.258   1.439 -1.3589 -0.2194 -2.6366
 6487TIP3    H241021   0.200   5.123   1.447  0.8444  0.9310  1.4439
 6488TIP3   OH241022   5.490   6.175   8.489  0.3605 -0.0463 -0.3898
 6488TIP3    H141023   5.413   6.119   8.489  1.7817 -2.1034 -0.4659
 6488TIP3    H241024   5.480   6.231   8.566 -0.6733 -1.0339  0.2194
 6489TIP3   OH241025   4.373   5.780   2.425 -0.3584 -0.3010  0.0165
 6489TIP3    H141026   4.428   5.827   2.362 -0.1780  1.3571  1.3303
 6489TIP3    H241027   4.286   5.781   2.387 -0.1071 -0.0321 -0.5668
 6490TIP3   OH241028   5.761   3.064   0.670  0.1125 -0.1500  0.4393
 6490TIP3    H141029   5.681   3.012   0.666  0.5171 -0.7149 -0.6273
 6490TIP3    H241030   5.813   3.023   0.739 -0.4350  0.1361  1.0420
 6491TIP3   OH241031   5.784   6.176   1.590 -0.1672 -0.1184 -0.7776
 6491TIP3    H141032   5.693   6.150   1.601 -0.3197  1.1302  1.5352
 6491TIP3    H241033   5.832   6.127   1.657  0.3060  1.5560  0.1865
 6492TIP3   OH241034   0.069   4.036   1.891  0.9716 -0.2473  0.7772
 6492TIP3    H141035   0.021   3.974   1.946  1.3657 -0.1000  1.3015
 6492TIP3    H241036   0.159   4.002   1.889  1.3806  0.7272  1.7469
 6493TIP3   OH241037   4.039   6.212   0.974  0.5558 -0.5410  0.2386
 6493TIP3    H141038   4.115   6.223   1.031  0.7123 -0.6581  0.0526
 6493TIP3    H241039   3.978   6.281   1.001  0.9003 -0.1806  0.1064
 6494TIP3   OH241040   6.134   0.093   0.547 -0.3153  0.4646  0.1803
 6494TIP3    H141041   6.087   0.170   0.579  0.9561  0.7599  1.4197
 6494TIP3    H241042   6.225   0.121   0.538  0.2942 -1.0322  1.2660
 6495TIP3   OH241043   4.012   0.945   7.935 -0.8950  0.5493 -0.0383
 6495TIP3    H141044   3.934   0.907   7.976 -0.6926 -1.7276 -1.5575
 6495TIP3    H241045   4.056   0.992   8.005 -0.9954 -2.4100  2.1842
 6496TIP3   OH241046   2.105   4.895   0.105 -0.4049 -0.6541 -0.1345
 6496TIP3    H141047   2.046   4.912   0.032  2.9367  0.0441 -2.9577
 6496TIP3    H241048   2.161   4.824   0.075  0.9406 -0.5095  1.8434
 6497TIP3   OH241049   0.120   1.679   0.452  0.0351 -0.0179  0.0492
 6497TIP3    H141050   0.141   1.758   0.401 -1.7704  1.0750  0.9052
 6497TIP3    H241051   0.199   1.626   0.447  0.4516  0.6841 -2.6752
 6498TIP3   OH241052   3.199   3.277   7.415  0.4397  0.2513 -0.6125
 6498TIP3    H141053   3.206   3.276   7.511  3.1650  1.3972 -0.7138
 6498TIP3    H241054   3.110   3.308   7.398  0.2661  1.1656  1.5600
 6499TIP3   OH241055   4.966   3.969   2.165 -0.4895 -0.3019  0.0173
 6499TIP3    H141056   4.910   3.960   2.241 -0.8316 -1.4592 -0.3433
 6499TIP3    H241057   4.986   4.062   2.160 -0.4636 -0.2046  1.5065
 6500TIP3   OH241058   0.828   4.065   2.458  0.0972 -0.4420 -0.4036
 6500TIP3    H141059   0.871   4.002   2.516  0.5705 -1.2097 -1.5498
 6500TIP3    H241060   0.900   4.115   2.421 -0.3220  1.7594  1.4871
 6501TIP3   OH241061   0.317   4.516   7.511 -1.0312 -0.0848  0.3054
 6501TIP3    H141062   0.273   4.601   7.510 -0.9894 -0.0108  1.9677
 6501TIP3    H241063   0.410   4.538   7.506 -1.0522 -0.0937 -0.2044
 6502TIP3   OH241064   3.930   4.692   2.414 -0.5156  0.2785  0.0389
 6502TIP3    H141065   3.922   4.675   2.508 -1.1926  0.5557  0.0393
 6502TIP3    H241066   3.935   4.788   2.408 -3.4937  0.5065 -0.3710
 6503TIP3   OH241067   5.318   4.473   8.238 -0.1790 -0.0343 -0.2214
 6503TIP3    H141068   5.383   4.466   8.309  1.7380 -0.8087 -1.9499
 6503TIP3    H241069   5.282   4.561   8.248  0.6306  0.1635  1.2293
 6504TIP3   OH241070   3.707   6.135   7.785 -0.5147  0.5549 -0.0009
 6504TIP3    H141071   3.716   6.090   7.701  0.6472  0.1846  0.2996
 6504TIP3    H241072   3.673   6.068   7.844  0.9334  0.1219  0.3752
 6505TIP3   OH241073   3.043   2.811   2.573 -0.2520  0.3545  0.1123
 6505TIP3    H141074   3.128   2.787   2.610 -0.4220 -1.0466 -0.3312
 6505TIP3    H241075   2.981   2.796   2.644 -0.2257  0.5450  0.1747
 6506TIP3   OH241076   2.462   5.068   0.937 -0.3863 -0.0732 -0.2307
 6506TIP3    H141077   2.503   5.136   0.884  0.2595  1.6616  2.3035
 6506TIP3    H241078   2.530   5.002   0.947 -0.0122  0.2870 -0.3699
 6507TIP3   OH241079   5.533   4.760   2.725 -0.1926  0.0720  0.0579
 6507TIP3    H141080   5.483   4.807   2.791 -0.2988 -1.1719  0.9050
 6507TIP3    H241081   5.623   4.763   2.757 -0.4298 -1.6726  1.0085
 6508TIP3   OH241082   4.122   5.479   8.512  0.0608  0.0338 -0.0505
 6508TIP3    H141083   4.217   5.475   8.502 -0.0710 -2.8246 -1.0274
 6508TIP3    H241084   4.107   5.460   8.605  0.4402  1.1094  0.2396
 6509TIP3   OH241085   6.502   0.790   1.227  0.4003  0.0180  0.1957
 6509TIP3    H141086   6.587   0.762   1.193  0.6253  0.8048  0.0986
 6509TIP3    H241087   6.495   0.746   1.312  0.3243 -1.0736 -0.3601
 6510TIP3   OH241088   5.909   3.590   7.428  0.5431  0.1180  0.1813
 6510TIP3    H141089   6.001   3.609   7.408  0.7866 -1.6077 -0.4715
 6510TIP3    H241090   5.859   3.646   7.369  1.1738  0.9143  0.3919
 6511TIP3   OH241091   5.720   2.677   2.882 -0.0254 -0.4093  0.1306
 6511TIP3    H141092   5.815   2.680   2.880  0.0607 -2.2760 -1.1747
 6511TIP3    H241093   5.692   2.718   2.800 -0.5417  2.4537  1.5900
 6512TIP3   OH241094   0.229   3.691   2.413 -0.3686 -0.0103  0.2890
 6512TIP3    H141095   0.275   3.732   2.486 -2.1089  0.2854  1.2918
 6512TIP3    H241096   0.185   3.615   2.452  0.9315 -1.5287 -1.0701
 6513TIP3   OH241097   4.937   2.724   7.238 -0.0646  0.0708  0.2225
 6513TIP3    H141098   4.877   2.713   7.312 -0.5349  3.2915  0.4368
 6513TIP3    H241099   4.920   2.648   7.182 -0.1768 -2.1193  3.0260
 6514TIP3   OH241100   5.476   5.551   2.330  0.4120 -0.0329  0.0948
 6514TIP3    H141101   5.449   5.492   2.400  0.6190  1.1849  1.2246
 6514TIP3    H241102   5.566   5.573   2.350 -0.3482  2.5389  1.0814
 6515TIP3   OH241103   5.925   4.092   0.080 -0.2242 -0.1164 -0.4785
 6515TIP3    H141104   6.004   4.116   0.032 -1.4450  0.2963 -2.3730
 6515TIP3    H241105   5.956   4.077   0.170  1.8191  1.0684 -0.9115
 6516TIP3   OH241106   4.301   1.232   8.781  1.2069 -0.1404  0.2950
 6516TIP3    H141107   4.286   1.326   8.785  0.0493 -0.2882 -0.0989
 6516TIP3    H241108   4.285   1.209   8.690  1.0219 -0.7828  0.4816
 6517TIP3   OH241109   4.994   2.100   7.219 -0.3686  0.5102  0.3373
 6517TIP3    H141110   5.028   2.185   7.244 -0.6526 -0.1150  3.2403
 6517TIP3    H241111   4.910   2.118   7.177 -0.5671  1.6516  1.2019
 6518TIP3   OH241112   2.982   6.387   0.340  0.5103 -0.6621  0.0724
 6518TIP3    H141113   2.943   6.442   0.271  1.0398 -0.8898 -0.4168
 6518TIP3    H241114   3.073   6.414   0.343  0.4754 -0.6121  0.7368
 6519TIP3   OH241115   2.028   5.100   0.988 -0.5984 -0.1779  0.4512
 6519TIP3    H141116   2.004   5.153   1.064 -0.9764  1.1032 -0.5249
 6519TIP3    H241117   1.968   5.025   0.991 -2.2945  1.1181  0.0740
 6520TIP3   OH241118   4.571   5.069   2.214 -0.2465  0.5291  0.8615
 6520TIP3    H141119   4.613   5.146   2.251 -0.7532  0.3532  1.8247
 6520TIP3    H241120   4.627   5.044   2.140  0.7052  0.9727  1.4228
 6521TIP3   OH241121   2.916   2.426   0.400 -0.1905  0.3762 -0.1254
 6521TIP3    H141122   2.973   2.503   0.397 -0.7124  0.8169  0.8067
 6521TIP3    H241123   2.973   2.353   0.380  0.9854  0.6631  1.9659
 6522TIP3   OH241124   3.962   2.457   8.008 -0.3563 -0.2928  0.1498
 6522TIP3    H141125   4.007   2.470   8.092 -1.7320  2.8136  0.5564
 6522TIP3    H241126   3.913   2.376   8.019  1.9736 -1.6721  1.1007
 6523TIP3   OH241127   5.254   4.854   0.668 -0.1600 -0.6759  0.7016
 6523TIP3    H141128   5.278   4.761   0.659  0.2312 -0.5572  0.5066
 6523TIP3    H241129   5.251   4.869   0.762 -0.2431 -0.8902  0.7355
 6524TIP3   OH241130   6.515   3.625   7.594 -0.0292  0.3098  0.2917
 6524TIP3    H141131   6.596   3.671   7.571 -0.3246  0.7048  0.0325
 6524TIP3    H241132   6.446   3.676   7.552 -0.2602 -1.2224 -1.2902
 6525TIP3   OH241133   6.422   4.917   0.435 -0.3007 -0.3895  0.2123
 6525TIP3    H141134   6.417   5.008   0.407 -2.1163 -0.1908  1.0091
 6525TIP3    H241135   6.429   4.922   0.531  2.5524 -1.0856  0.1135
 6526TIP3   OH241136   5.263   4.928   2.027  0.8903  0.7955 -0.4956
 6526TIP3    H141137   5.337   4.905   2.083  0.3236 -1.9773 -0.7430
 6526TIP3    H241138   5.188   4.929   2.085  0.7435  0.9906 -0.6865
 6527TIP3   OH241139   2.924   5.540   0.504 -0.1946  0.0870 -0.0542
 6527TIP3    H141140   2.941   5.446   0.506  0.1609  0.0997  2.7277
 6527TIP3    H241141   3.004   5.579   0.541 -1.5335  1.1476  1.9153
 6528TIP3   OH241142   2.455   1.230   0.895  0.0964  0.0878 -0.0110
 6528TIP3    H141143   2.420   1.141   0.891 -1.2960  0.6593 -2.0474
 6528TIP3    H241144   2.502   1.241   0.813  1.9957  0.5998  1.0964
 6529TIP3   OH241145   1.847   0.846   1.565  0.1440 -0.5467 -0.7294
 6529TIP3    H141146   1.855   0.811   1.476  0.9483 -2.1836 -0.0466
 6529TIP3    H241147   1.887   0.779   1.621 -2.4008 -0.6733  1.1250
 6530TIP3   OH241148   5.900   2.350   8.073  0.0964  0.1403  0.7558
 6530TIP3    H141149   5.918   2.260   8.099  1.3943  0.2075  0.1699
 6530TIP3    H241150   5.971   2.401   8.113  0.9858  0.5063 -1.1875
 6531TIP3   OH241151   5.418   1.807   1.519 -0.4038 -0.2316  0.8033
 6531TIP3    H141152   5.435   1.723   1.477  0.9209  0.0063  0.8149
 6531TIP3    H241153   5.325   1.804   1.542 -0.6560 -1.2085 -0.2428
 6532TIP3   OH241154   3.819   0.546   0.755  0.2183  0.3048 -0.2485
 6532TIP3    H141155   3.751   0.612   0.748  1.2225  1.2579 -1.4786
 6532TIP3    H241156   3.895   0.592   0.790  0.9510 -0.1581 -1.1695
 6533TIP3   OH241157   2.915   2.703   7.902  0.2605 -0.3245 -0.2704
 6533TIP3    H141158   2.833   2.743   7.873 -0.7004  0.4517  3.0221
 6533TIP3    H241159   2.921   2.622   7.853 -3.3582 -1.1863  0.3838
 6534TIP3   OH241160   2.718   1.088   7.975 -0.2127 -0.0550  0.3051
 6534TIP3    H141161   2.699   1.166   8.027 -1.2386 -1.4250  2.0854
 6534TIP3    H241162   2.640   1.075   7.921 -0.3010 -0.2302  0.4785
 6535TIP3   OH241163   5.318   6.051   1.791 -0.4484 -0.8978 -0.5103
 6535TIP3    H141164   5.237   6.085   1.828 -0.1425 -0.0905 -0.5541
 6535TIP3    H241165   5.349   5.987   1.855  0.4512  0.9923  1.0544
 6536TIP3   OH241166   1.181   4.265   3.146  0.1011  0.5216 -0.2847
 6536TIP3    H141167   1.264   4.257   3.193  0.5531  0.3756 -1.0996
 6536TIP3    H241168   1.135   4.183   3.166 -0.0312  0.7749  0.4973
 6537TIP3   OH241169   1.735   6.073   7.751  0.2644 -0.2159  0.0480
 6537TIP3    H141170   1.685   6.044   7.827 -0.4853 -0.4028 -0.5088
 6537TIP3    H241171   1.669   6.104   7.688  0.8426 -0.4149 -0.6740
 6538TIP3   OH241172   4.921   5.656   0.881  0.0945 -0.6169 -0.0601
 6538TIP3    H141173   4.952   5.602   0.809 -0.9997  0.1380 -1.1339
 6538TIP3    H241174   5.001   5.679   0.929  0.7773 -1.6040 -0.6705
 6539TIP3   OH241175   2.319   4.191   1.534  0.1378  0.4909 -0.3249
 6539TIP3    H141176   2.371   4.145   1.600 -1.3425  1.9114  1.9362
 6539TIP3    H241177   2.361   4.276   1.525  0.6464  0.1280 -1.6971
 6540TIP3   OH241178   5.812   5.020   8.709  0.5622 -0.5397 -0.4139
 6540TIP3    H141179   5.724   4.993   8.737  1.0181 -2.2392 -0.4997
 6540TIP3    H241180   5.841   4.951   8.650  2.2327 -0.3801  0.1561
 6541TIP3   OH241181   2.807   3.447   2.061  0.2586 -0.4808 -0.0784
 6541TIP3    H141182   2.847   3.509   2.122  1.8580 -1.7923  0.2442
 6541TIP3    H241183   2.771   3.378   2.116  1.4845 -1.5459 -0.5595
 6542TIP3   OH241184   6.279   2.242   7.501 -0.0624  0.2180 -0.3100
 6542TIP3    H141185   6.197   2.283   7.528  1.3841  2.4938  0.9337
 6542TIP3    H241186   6.318   2.305   7.440  0.4266 -1.2112 -1.5289
 6543TIP3   OH241187   1.990   5.423   2.932  0.5845  0.1770  0.1794
 6543TIP3    H141188   1.906   5.426   2.887 -0.2413  3.6108  1.6232
 6543TIP3    H241189   1.969   5.384   3.018  0.7053  0.0890  0.1695
 6544TIP3   OH241190   3.214   6.097   2.785  0.7210 -1.0368 -0.1563
 6544TIP3    H141191   3.146   6.109   2.719  1.1882 -2.0770 -0.8484
 6544TIP3    H241192   3.197   6.010   2.821  2.4117 -1.8866 -1.2496
 6545TIP3   OH241193   6.810   1.732   7.449 -0.3596 -0.1655 -0.4495
 6545TIP3    H141194   6.807   1.665   7.518 -0.9033 -0.2855 -0.5865
 6545TIP3    H241195   6.898   1.770   7.456 -0.1059 -0.7770 -0.2590
 6546TIP3   OH241196   1.516   2.285   7.780 -0.2676  0.1653 -0.4258
 6546TIP3    H141197   1.585   2.351   7.786  2.4117 -2.5298  2.4071
 6546TIP3    H241198   1.466   2.295   7.861 -0.8203 -0.3122 -0.6976
 6547TIP3   OH241199   5.574   0.848   8.379  0.1476  0.5868 -0.7940
 6547TIP3    H141200   5.515   0.816   8.311  0.2628  0.6565 -0.9263
 6547TIP3    H241201   5.553   0.795   8.456  1.4065 -0.8807 -1.4294
 6548TIP3   OH241202   5.285   5.000   0.265  0.5363 -0.6559 -0.3373
 6548TIP3    H141203   5.354   4.969   0.325  1.9907 -0.1526 -1.6840
 6548TIP3    H241204   5.260   4.922   0.215 -0.6133 -1.0558  0.7923
 6549TIP3   OH241205   0.815   2.588   1.462  0.1219  1.1711 -0.6687
 6549TIP3    H141206   0.810   2.684   1.461  0.5115  1.1983 -0.3633
 6549TIP3    H241207   0.891   2.569   1.518  0.4023  0.6969 -1.2038
 6550TIP3   OH241208   6.705   1.587   7.868 -0.6549  0.3106 -0.3258
 6550TIP3    H141209   6.679   1.543   7.788 -0.9476  0.6039 -0.3984
 6550TIP3    H241210   6.763   1.526   7.913 -2.8693 -1.1786  0.7188
 6551TIP3   OH241211   2.543   2.421   1.326 -0.2117  0.0159 -0.4078
 6551TIP3    H141212   2.485   2.352   1.295  0.5489 -0.5364 -0.6279
 6551TIP3    H241213   2.576   2.389   1.410 -0.6489  0.5808 -0.0077
 6552TIP3   OH241214   2.759   5.081   7.371 -0.2236 -0.1098  0.5340
 6552TIP3    H141215   2.818   5.021   7.325 -0.3595 -0.2923  0.5990
 6552TIP3    H241216   2.725   5.138   7.302 -0.7296 -0.6345  0.3470
 6553TIP3   OH241217   0.827   0.851   7.441  0.2706  0.0163  0.4454
 6553TIP3    H141218   0.846   0.945   7.446  1.8791 -0.3260  1.5041
 6553TIP3    H241219   0.911   0.809   7.459 -0.7532 -1.6433  1.5691
 6554TIP3   OH241220   0.806   4.480   7.545 -0.8348 -0.9775 -0.0907
 6554TIP3    H141221   0.760   4.563   7.554 -0.0405 -0.5058 -0.3641
 6554TIP3    H241222   0.738   4.418   7.518 -0.9508  0.1313 -2.5467
 6555TIP3   OH241223   3.987   2.477   2.541 -0.1040  0.2476 -0.8385
 6555TIP3    H141224   4.041   2.556   2.550 -0.9019  0.8368 -1.0540
 6555TIP3    H241225   3.900   2.505   2.570 -0.3909 -0.5619 -0.9173
 6556TIP3   OH241226   0.598   2.909   1.200  0.2997  0.7380  0.2362
 6556TIP3    H141227   0.536   2.883   1.268  1.2027 -1.8459  0.1796
 6556TIP3    H241228   0.545   2.921   1.122 -0.2633 -0.7396  0.3622
 6557TIP3   OH241229   5.526   2.033   8.363  0.0816  0.0213  0.7654
 6557TIP3    H141230   5.496   2.117   8.397  1.8135  1.4373 -0.9612
 6557TIP3    H241231   5.539   2.048   8.269  1.4848 -1.8376  0.5926
 6558TIP3   OH241232   0.141   3.522   0.438 -0.2364  0.3651 -0.1154
 6558TIP3    H141233   0.110   3.511   0.348  0.0164  2.0877 -0.4516
 6558TIP3    H241234   0.236   3.514   0.433 -0.2716 -0.2259  0.1207
 6559TIP3   OH241235   0.608   0.487   7.753 -0.0570  0.0123  0.8754
 6559TIP3    H141236   0.596   0.403   7.710  1.0230 -0.2987  1.1500
 6559TIP3    H241237   0.626   0.464   7.845  1.2827  0.4622  0.7521
 6560TIP3   OH241238   5.445   2.551   2.536 -0.0875  0.2229 -0.5120
 6560TIP3    H141239   5.515   2.595   2.584 -1.1871  0.2210  1.1874
 6560TIP3    H241240   5.490   2.481   2.488  1.4333  1.9841 -1.8184
 6561TIP3   OH241241   4.234   3.084   1.302 -0.6359  0.1378  0.2125
 6561TIP3    H141242   4.297   3.020   1.270 -1.5653 -1.0589  0.6975
 6561TIP3    H241243   4.279   3.129   1.373  0.8040  1.5896 -1.4997
 6562TIP3   OH241244   3.479   2.942   7.783  0.1402 -0.4418 -0.3886
 6562TIP3    H141245   3.528   2.867   7.748  0.4195 -0.4368 -0.0202
 6562TIP3    H241246   3.389   2.927   7.755  0.3157 -0.5654 -0.8918
 6563TIP3   OH241247   4.050   0.743   1.262  0.4321 -0.0412 -0.5185
 6563TIP3    H141248   3.968   0.749   1.213 -0.1134  0.8698  0.4696
 6563TIP3    H241249   4.117   0.767   1.199 -0.3592  2.3090 -0.5617
 6564TIP3   OH241250   4.682   5.378   8.682 -0.0841 -0.3511  0.4632
 6564TIP3    H141251   4.776   5.387   8.699 -0.1528 -0.1625  0.7442
 6564TIP3    H241252   4.649   5.468   8.685 -0.4456 -0.5096  1.3454
 6565TIP3   OH241253   5.174   4.583   1.321 -0.7519  0.3277  0.1716
 6565TIP3    H141254   5.098   4.574   1.379 -0.5671 -0.8015  0.2611
 6565TIP3    H241255   5.198   4.493   1.298 -0.0221  0.7054 -0.6210
 6566TIP3   OH241256   5.520   2.059   8.077 -0.1008 -0.0254 -0.2801
 6566TIP3    H141257   5.439   2.077   8.029  0.8096  1.4271 -1.3732
 6566TIP3    H241258   5.582   2.124   8.044  2.0935 -2.2640 -0.8884
 6567TIP3   OH241259   4.274   1.563   2.043  0.7286  0.2389 -0.3384
 6567TIP3    H141260   4.216   1.549   2.117  1.2327  0.6200  0.1384
 6567TIP3    H241261   4.337   1.491   2.048  1.1811  0.6560  0.0170
 6568TIP3   OH241262   5.004   5.123   2.417 -0.0767 -0.5249 -0.7780
 6568TIP3    H141263   4.982   5.140   2.325 -0.1676  1.4118 -0.4332
 6568TIP3    H241264   4.966   5.037   2.435 -0.0431 -0.9591 -2.5422
 6569TIP3   OH241265   4.995   6.718   2.312 -0.1905  0.3262  0.3934
 6569TIP3    H141266   5.033   6.762   2.388  2.2499 -2.3601  0.9125
 6569TIP3    H241267   5.052   6.743   2.239  0.1892 -0.5468  0.3737
 6570TIP3   OH241268   5.928   2.952   1.773 -0.6540 -0.0225  0.2248
 6570TIP3    H141269   5.971   3.006   1.707  1.6477 -3.2929 -1.1869
 6570TIP3    H241270   5.989   2.950   1.847 -0.6459 -0.7872  0.2032
 6571TIP3   OH241271   0.564   2.136   1.221  0.1494  0.2473 -0.4987
 6571TIP3    H141272   0.565   2.205   1.155 -0.3789 -0.6903 -1.5233
 6571TIP3    H241273   0.513   2.065   1.181  1.6178 -1.1890  0.0576
 6572TIP3   OH241274   4.732   6.164   0.699 -0.4473 -0.1271 -0.5987
 6572TIP3    H141275   4.671   6.092   0.716  1.1327 -1.9799 -2.1184
 6572TIP3    H241276   4.749   6.202   0.785 -2.2089 -0.8384  0.1072
 6573TIP3   OH241277   1.624   0.389   8.682 -0.5042  0.1528 -0.4564
 6573TIP3    H141278   1.659   0.359   8.598 -2.4434  1.1751 -1.7180
 6573TIP3    H241279   1.529   0.393   8.669 -0.7783  1.4547  1.4073
 6574TIP3   OH241280   5.927   2.144   1.764 -0.0864 -0.0737  0.5681
 6574TIP3    H141281   6.021   2.129   1.778 -0.2224 -0.2653  1.3606
 6574TIP3    H241282   5.923   2.208   1.694  0.5809 -1.6791 -1.0168
 6575TIP3   OH241283   1.771   6.565   2.752 -0.1464  0.1718 -0.4951
 6575TIP3    H141284   1.684   6.575   2.790 -0.0802  0.6171 -0.4573
 6575TIP3    H241285   1.787   6.470   2.754  1.2216  0.2706  3.7996
 6576TIP3   OH241286   2.749   6.024   7.826  0.6665  0.5096  0.1969
 6576TIP3    H141287   2.808   6.078   7.879  1.4372  0.2993 -0.4241
 6576TIP3    H241288   2.740   6.072   7.744 -0.4238  0.7735  0.4552
 6577TIP3   OH241289   2.564   1.238   0.079 -0.4157 -0.0414 -0.4791
 6577TIP3    H141290   2.626   1.191   0.024 -1.3453 -1.1585 -0.6062
 6577TIP3    H241291   2.577   1.202   0.166  0.8707  1.5432  0.0449
 6578TIP3   OH241292   4.033   4.041   1.431 -0.7934 -0.0046 -0.7152
 6578TIP3    H141293   4.016   3.947   1.426 -1.6292 -0.0479  1.5956
 6578TIP3    H241294   4.123   4.051   1.400  0.7058 -2.1588  2.3354
 6579TIP3   OH241295   3.619   2.960   8.019  0.0445  0.4840  0.1169
 6579TIP3    H141296   3.688   3.010   7.975 -1.0571  0.0849 -2.2227
 6579TIP3    H241297   3.545   2.964   7.959 -1.0257 -1.5075  1.2102
 6580TIP3   OH241298   4.761   6.029   7.163  0.2237  0.3832  0.0249
 6580TIP3    H141299   4.771   6.079   7.082 -0.6816 -1.5579 -1.3426
 6580TIP3    H241300   4.845   6.040   7.207  1.3175  0.2515 -1.9075
 6581TIP3   OH241301   4.781   4.178   2.023  0.6447  0.0138 -0.0819
 6581TIP3    H141302   4.789   4.097   2.074  0.7480 -0.4018 -0.7386
 6581TIP3    H241303   4.860   4.228   2.044  0.4495  0.0770  0.5385
 6582TIP3   OH241304   5.258   5.408   0.446  0.1238 -0.0125 -0.1374
 6582TIP3    H141305   5.276   5.502   0.443  0.5670 -0.1120 -0.7621
 6582TIP3    H241306   5.335   5.368   0.404  1.1908 -0.8222  2.3839
 6583TIP3   OH241307   0.171   4.532   3.041 -1.0281 -0.2254  0.6657
 6583TIP3    H141308   0.175   4.437   3.036  1.5330 -0.2523  1.7120
 6583TIP3    H241309   0.206   4.553   3.128  0.9274  1.7226 -0.4880
 6584TIP3   OH241310   0.075   4.956   0.650  0.1727  0.2412 -0.0072
 6584TIP3    H141311   0.088   5.013   0.726 -0.9793 -0.9409  1.1105
 6584TIP3    H241312  -0.019   4.955   0.636  0.3288  0.0405 -1.1553
 6585TIP3   OH241313   2.271   4.438   1.996  0.2923 -0.0216 -0.0998
 6585TIP3    H141314   2.325   4.468   1.923  0.5815  1.6511  0.7208
 6585TIP3    H241315   2.318   4.363   2.032 -0.1553 -1.2311 -1.9328
 6586TIP3   OH241316   1.001   3.214   8.761 -0.3297 -0.4865 -0.2742
 6586TIP3    H141317   1.044   3.159   8.827  0.0374  0.4137  0.2554
 6586TIP3    H241318   0.918   3.238   8.800  0.0885  0.4315  0.0676
 6587TIP3   OH241319   6.741   3.074   8.718 -0.2776 -0.2156  0.0870
 6587TIP3    H141320   6.827   3.048   8.751 -0.2821 -1.5211 -0.8342
 6587TIP3    H241321   6.757   3.154   8.668  0.7508 -1.3360 -1.4837
 6588TIP3   OH241322   4.113   0.389   0.816 -0.3789 -0.4655  0.3833
 6588TIP3    H141323   4.130   0.417   0.906 -1.5292 -1.6411  0.9942
 6588TIP3    H241324   4.192   0.415   0.768 -0.5635  1.9826  1.2803
 6589TIP3   OH241325   4.236   5.566   0.712  0.1818  0.2618  0.3202
 6589TIP3    H141326   4.256   5.480   0.677  0.2830  0.2428  0.4234
 6589TIP3    H241327   4.223   5.552   0.805  1.5260  0.5579  0.5798
 6590TIP3   OH241328   4.658   2.243   8.579  0.0664 -0.2644 -0.7771
 6590TIP3    H141329   4.686   2.323   8.534 -0.2428 -0.9347 -2.2303
 6590TIP3    H241330   4.694   2.251   8.667 -0.0493  1.5161 -0.8601
 6591TIP3   OH241331   5.752   4.287   8.250  0.2980  0.3804  0.7372
 6591TIP3    H141332   5.782   4.290   8.159 -1.0134 -1.4771  0.1911
 6591TIP3    H241333   5.793   4.208   8.286 -0.3357  0.3195  1.3323
 6592TIP3   OH241334   1.499   1.084   2.827  0.6698 -0.0976  0.4530
 6592TIP3    H141335   1.550   1.027   2.770  0.3998  1.2575 -1.2230
 6592TIP3    H241336   1.499   1.169   2.782  1.3551  1.3537  3.0169
 6593TIP3   OH241337   2.368   0.622   2.830  0.3941  0.6897  0.0483
 6593TIP3    H141338   2.296   0.582   2.879  0.5501  0.5656  0.1785
 6593TIP3    H241339   2.391   0.700   2.880  0.5641  0.5542  0.1819
 6594TIP3   OH241340   0.127   5.198   8.666 -0.0988  0.1676  0.5544
 6594TIP3    H141341   0.203   5.223   8.718 -2.0944  1.0095  3.3386
 6594TIP3    H241342   0.131   5.255   8.589  0.7740  2.0450  1.9027
 6595TIP3   OH241343   1.169   2.891   7.596 -0.6632  0.5194 -0.2010
 6595TIP3    H141344   1.169   2.830   7.522 -0.6356  1.0284 -0.6240
 6595TIP3    H241345   1.248   2.868   7.645 -0.9085 -0.1086 -0.0789
 6596TIP3   OH241346   5.652   6.562   7.269  0.2708  0.0005 -0.5053
 6596TIP3    H141347   5.747   6.561   7.283  0.1730 -1.0423  0.1353
 6596TIP3    H241348   5.641   6.531   7.179  0.4835 -1.0536 -0.1769
 6597TIP3   OH241349   2.112   0.424   1.746  0.1577  0.1821 -0.1651
 6597TIP3    H141350   2.107   0.329   1.759 -0.4335  0.3942  1.5118
 6597TIP3    H241351   2.195   0.450   1.786 -0.6796  0.6045  1.3846
 6598TIP3   OH241352   3.623   2.771   7.618 -0.4701 -0.1904 -0.3014
 6598TIP3    H141353   3.589   2.764   7.529 -1.2278 -3.0227  0.1187
 6598TIP3    H241354   3.670   2.689   7.633 -0.2510  0.2596  1.8742
 6599TIP3   OH241355   2.021   0.208   1.903 -0.1118 -0.4048 -0.2701
 6599TIP3    H141356   1.930   0.230   1.884 -0.5240 -0.9972  0.9527
 6599TIP3    H241357   2.017   0.143   1.973  1.2935  0.9448  1.1415
 6600TIP3   OH241358   4.581   0.878   0.419 -0.1976 -0.2754  0.6685
 6600TIP3    H141359   4.570   0.820   0.495  0.2408 -0.2075  0.7865
 6600TIP3    H241360   4.669   0.914   0.429 -0.3267  0.1205  0.3917
 6601TIP3   OH241361   1.577   4.790   8.282  0.0742  0.0123  0.0679
 6601TIP3    H141362   1.554   4.882   8.295 -0.8333 -0.0880 -0.7513
 6601TIP3    H241363   1.504   4.741   8.318  0.2509 -0.3762 -0.0942
 6602TIP3   OH241364   1.497   6.288   0.845 -0.8218  0.0029 -0.2242
 6602TIP3    H141365   1.588   6.264   0.829 -0.0581  1.1811  2.0145
 6602TIP3    H241366   1.456   6.284   0.758  1.2554 -0.8859 -1.2241
 6603TIP3   OH241367   3.951   0.325   7.802  0.3005 -0.3946  0.3176
 6603TIP3    H141368   3.895   0.379   7.857 -1.0022 -0.0766 -1.2670
 6603TIP3    H241369   3.910   0.239   7.803  0.8320 -0.6520  0.6152
 6604TIP3   OH241370   5.022   3.293   0.698 -0.7380 -0.5403 -0.0917
 6604TIP3    H141371   5.043   3.352   0.625  0.3624  0.7234  1.1699
 6604TIP3    H241372   5.037   3.205   0.663  0.0478  0.0435 -1.3151
 6605TIP3   OH241373   4.817   6.124   8.036 -0.1358 -0.4648 -0.0094
 6605TIP3    H141374   4.909   6.134   8.010 -0.7303  1.9949 -1.5641
 6605TIP3    H241375   4.779   6.069   7.967 -0.9074  3.1028 -2.7616
 6606TIP3   OH241376   1.517   3.598   1.901 -0.0215 -0.3774 -0.0507
 6606TIP3    H141377   1.501   3.505   1.916 -0.2256 -0.3396 -0.0370
 6606TIP3    H241378   1.514   3.637   1.989 -1.3486 -0.1345 -0.1905
 6607TIP3   OH241379   6.155   5.387   0.029  0.2177 -0.0849 -0.2126
 6607TIP3    H141380   6.125   5.296   0.031 -0.0945  0.0229  0.1296
 6607TIP3    H241381   6.242   5.385   0.068 -0.2093 -0.0843  0.7506
 6608TIP3   OH241382   3.774   1.370   8.003  0.0689 -0.3077 -0.3904
 6608TIP3    H141383   3.857   1.355   8.047 -1.3886 -0.6787  2.4489
 6608TIP3    H241384   3.711   1.381   8.074 -2.7509 -2.3934 -2.3593
 6609TIP3   OH241385   3.130   4.192   1.368  0.9096  0.2405  0.4403
 6609TIP3    H141386   3.171   4.236   1.293 -0.2821  3.2588  1.4087
 6609TIP3    H241387   3.037   4.187   1.345  0.7839 -0.2907  1.0444
 6610TIP3   OH241388   4.285   6.448   1.915 -0.3214 -0.3671  0.3681
 6610TIP3    H141389   4.207   6.393   1.901  1.1010 -2.2644 -0.4776
 6610TIP3    H241390   4.321   6.417   1.998 -0.5256  0.6384  0.8518
 6611TIP3   OH241391   6.433   3.898   0.857  0.4324 -0.1593 -0.4509
 6611TIP3    H141392   6.378   3.821   0.844 -0.9191  0.7140 -0.0598
 6611TIP3    H241393   6.466   3.919   0.769 -0.4657 -0.2574 -0.8186
 6612TIP3   OH241394   0.871   0.991   3.073 -0.1825  0.1072  0.1021
 6612TIP3    H141395   0.952   1.038   3.094 -0.5006 -0.1161  2.0308
 6612TIP3    H241396   0.881   0.905   3.114 -2.1924  0.8083  2.3091
 6613TIP3   OH241397   4.934   1.442   1.992 -0.5781 -0.2844  0.2299
 6613TIP3    H141398   4.887   1.375   2.041  0.3607 -0.0818  1.4599
 6613TIP3    H241399   4.926   1.521   2.046  0.9730 -0.2054  0.3888
 6614TIP3   OH241400   4.903   3.021   8.387  0.0615 -0.2273  0.4086
 6614TIP3    H141401   4.920   3.051   8.476  1.2293 -0.4625  0.2860
 6614TIP3    H241402   4.826   3.070   8.359 -0.3116 -0.1538  1.5424
 6615TIP3   OH241403   1.124   4.704   2.309  0.4851  0.5345  0.1634
 6615TIP3    H141404   1.134   4.742   2.396  0.6828 -2.2378  1.4434
 6615TIP3    H241405   1.209   4.665   2.289 -0.0937 -0.4620 -0.4511
 6616TIP3   OH241406   4.960   3.604   0.173  0.3494 -0.1514  0.1617
 6616TIP3    H141407   4.961   3.508   0.176 -0.6349 -0.1758  0.2981
 6616TIP3    H241408   4.925   3.625   0.086  0.8495  0.0943  0.0151
 6617TIP3   OH241409   3.583   1.625   8.318  0.0820  0.1429 -0.4782
 6617TIP3    H141410   3.669   1.635   8.359 -0.3626 -0.7499  0.7181
 6617TIP3    H241411   3.561   1.713   8.288  0.5030  0.8082  1.0464
 6618TIP3   OH241412   4.187   4.173   7.251 -0.0290 -0.1290  0.3374
 6618TIP3    H141413   4.127   4.108   7.288 -0.6485  0.3337  0.1420
 6618TIP3    H241414   4.207   4.231   7.325  0.1272 -0.2393  0.3834
 6619TIP3   OH241415   3.491   5.678   0.903 -0.1671  0.3259  0.3434
 6619TIP3    H141416   3.497   5.768   0.937 -2.9306  1.1090 -0.8626
 6619TIP3    H241417   3.577   5.641   0.917  1.7798  3.8474 -0.9092
 6620TIP3   OH241418   6.258   4.585   8.588 -0.2883  0.6276  0.7886
 6620TIP3    H141419   6.322   4.632   8.534  0.9014 -1.1979  0.5196
 6620TIP3    H241420   6.311   4.535   8.651 -1.4378 -0.6122  0.8309
 6621TIP3   OH241421   0.673   6.245   1.412  0.3273 -0.2827 -0.3586
 6621TIP3    H141422   0.578   6.259   1.413  0.2474 -0.8380  0.5020
 6621TIP3    H241423   0.710   6.331   1.429 -0.1102 -0.5055  2.2418
 6622TIP3   OH241424   2.129   4.037   0.015 -0.4042 -0.3967  0.1661
 6622TIP3    H141425   2.200   3.975   0.032  0.7099  1.0633  1.0984
 6622TIP3    H241426   2.053   4.001   0.060  0.2351 -1.0639  0.7304
 6623TIP3   OH241427   6.786   1.485   0.648 -0.1375  0.5758 -0.0654
 6623TIP3    H141428   6.803   1.529   0.565 -0.8141  1.1101  0.0672
 6623TIP3    H241429   6.779   1.556   0.712 -1.5463  0.3196  0.1033
 6624TIP3   OH241430   3.728   5.916   2.057 -0.0109  0.7103 -0.0569
 6624TIP3    H141431   3.701   6.007   2.047  0.2739  0.8224  0.1946
 6624TIP3    H241432   3.671   5.882   2.126 -0.6780  0.4645 -0.7106
 6625TIP3   OH241433   0.168   3.078   0.057  0.2098  0.3338 -0.3815
 6625TIP3    H141434   0.215   3.024   0.121  0.6753  0.8381 -0.2909
 6625TIP3    H241435   0.226   3.080  -0.019  0.9320  1.9921  0.1830
 6626TIP3   OH241436   5.439   1.173   8.158  0.4823  0.3066  0.0877
 6626TIP3    H141437   5.514   1.154   8.102  0.6246  1.5826 -0.1892
 6626TIP3    H241438   5.402   1.254   8.122 -1.6497 -0.8002 -0.3948
 6627TIP3   OH241439   6.552   5.539   2.896  0.1091  0.4760  0.8339
 6627TIP3    H141440   6.513   5.599   2.832 -1.6520 -1.8525 -0.4355
 6627TIP3    H241441   6.477   5.500   2.941  1.0740 -1.6504  0.7279
 6628TIP3   OH241442   2.486   0.918   2.110  0.1769 -0.5387  0.5534
 6628TIP3    H141443   2.397   0.886   2.097  0.0058  0.6981 -1.6968
 6628TIP3    H241444   2.522   0.929   2.022  1.7955  1.0911  1.3280
 6629TIP3   OH241445   3.980   4.014   7.591  0.0451  0.2521  0.3849
 6629TIP3    H141446   3.896   4.059   7.601 -0.3591 -0.4774  0.3205
 6629TIP3    H241447   3.965   3.950   7.522  0.2847 -0.7423  1.2268
 6630TIP3   OH241448   3.968   4.782   8.186 -0.9380  0.2931 -0.3892
 6630TIP3    H141449   3.975   4.696   8.143 -2.0901 -0.0636  0.1129
 6630TIP3    H241450   3.926   4.764   8.270  0.8558  1.0474  0.7416
 6631TIP3   OH241451   1.669   5.080   0.953 -0.5831  0.3185 -0.2181
 6631TIP3    H141452   1.720   5.009   0.991 -0.4922  0.7164  0.4179
 6631TIP3    H241453   1.590   5.085   1.008 -0.9212  0.2398 -0.6946
 6632TIP3   OH241454   2.377   4.158   7.849 -0.1809 -0.4608  0.1771
 6632TIP3    H141455   2.450   4.096   7.847 -1.2749 -2.1242  3.3714
 6632TIP3    H241456   2.323   4.135   7.774  0.4732 -2.0848  0.1663
 6633TIP3   OH241457   5.950   2.616   7.911  0.0085 -0.0506 -0.4021
 6633TIP3    H141458   5.967   2.633   7.818  0.7061 -2.0013 -0.6756
 6633TIP3    H241459   6.009   2.545   7.933 -1.7224 -1.1308  0.9623
 6634TIP3   OH241460   2.194   3.663   7.567 -0.0347  0.1647  0.5588
 6634TIP3    H141461   2.204   3.728   7.497  0.5768  0.2370  0.7045
 6634TIP3    H241462   2.232   3.583   7.531  0.0422  0.1319  0.7106
 6635TIP3   OH241463   0.676   1.041   1.475  0.2489 -0.1292  0.3526
 6635TIP3    H141464   0.641   0.954   1.495  0.0583 -0.5253 -1.5249
 6635TIP3    H241465   0.745   1.025   1.410  2.4162  0.8625  2.2834
 6636TIP3   OH241466   2.661   6.269   1.864 -0.0640  0.3067  0.2871
 6636TIP3    H141467   2.601   6.341   1.845  1.5519  2.2957  2.2566
 6636TIP3    H241468   2.744   6.296   1.826  0.0476 -1.7373 -1.1238
 6637TIP3   OH241469   3.136   0.745   8.503  0.2525  0.0758  0.0545
 6637TIP3    H141470   3.145   0.833   8.467  1.5559 -0.9867 -2.4432
 6637TIP3    H241471   3.042   0.725   8.495  0.0403  1.0250  0.1374
 6638TIP3   OH241472   6.755   3.782   2.015  0.5652  0.0522  0.0572
 6638TIP3    H141473   6.682   3.766   2.075  1.0580  2.1865  1.3258
 6638TIP3    H241474   6.809   3.703   2.022 -1.1643 -1.2218 -0.3021
 6639TIP3   OH241475   0.859   4.971   0.737  0.2700  0.8299  0.1692
 6639TIP3    H141476   0.793   4.941   0.674  0.1306 -0.8672  1.0653
 6639TIP3    H241477   0.925   4.902   0.738  3.0419  3.2304 -1.9419
 6640TIP3   OH241478   4.565   4.457   1.292  0.2604 -0.6030 -0.1605
 6640TIP3    H141479   4.587   4.440   1.383 -0.7962 -1.0813  0.0104
 6640TIP3    H241480   4.515   4.381   1.264 -0.1015 -0.1034 -0.9128
 6641TIP3   OH241481   5.569   1.369   8.765 -0.0033  0.1592  0.1580
 6641TIP3    H141482   5.493   1.409   8.806 -0.4464 -1.3350  0.8785
 6641TIP3    H241483   5.533   1.295   8.715  0.9604 -0.6221  0.5693
 6642TIP3   OH241484   0.743   0.130   7.281  0.1048 -0.3427  0.1415
 6642TIP3    H141485   0.821   0.139   7.334 -0.1658  0.2309  0.4521
 6642TIP3    H241486   0.739   0.212   7.231  0.8779 -1.2502 -1.4835
 6643TIP3   OH241487   4.974   4.845   0.660  0.0638  0.6563 -0.0267
 6643TIP3    H141488   5.066   4.831   0.635 -0.4784 -1.1073 -1.2201
 6643TIP3    H241489   4.978   4.875   0.750  1.7710 -0.9332  0.4975
 6644TIP3   OH241490   0.498   1.141   8.113  0.6232  0.0687  0.0021
 6644TIP3    H141491   0.469   1.230   8.091  1.7574  0.5450  0.3422
 6644TIP3    H241492   0.569   1.154   8.176  1.2421 -1.0526 -0.4342
 6645TIP3   OH241493   2.072   3.955   0.965  0.0610  0.9071 -0.7870
 6645TIP3    H141494   2.031   3.890   1.022  1.4901  0.5101 -0.1685
 6645TIP3    H241495   1.998   3.999   0.923 -0.9741 -0.2822 -0.3035
 6646TIP3   OH241496   2.033   1.076   1.432 -0.2241  0.1405  0.4231
 6646TIP3    H141497   2.011   0.991   1.469 -1.5851  0.6106  0.7192
 6646TIP3    H241498   2.082   1.055   1.352 -0.7359 -0.9181  0.3791
 6647TIP3   OH241499   6.405   0.145   7.962  0.7061 -0.0507  0.3398
 6647TIP3    H141500   6.408   0.053   7.987  1.9488 -0.4222 -1.0028
 6647TIP3    H241501   6.324   0.153   7.911  0.2814 -0.2345  0.9689
 6648TIP3   OH241502   4.224   5.789   3.266 -0.7330 -0.5898  0.2461
 6648TIP3    H141503   4.152   5.839   3.228 -0.5710 -0.2162  0.4234
 6648TIP3    H241504   4.297   5.851   3.267 -0.0974 -1.2874 -0.9277
 6649TIP3   OH241505   6.273   1.161   8.653 -0.2547 -0.3769  0.2874
 6649TIP3    H141506   6.267   1.087   8.714 -0.1666  0.3666  1.2061
 6649TIP3    H241507   6.290   1.237   8.708  1.9703  0.0124 -0.8244
 6650TIP3   OH241508   4.937   2.654   0.470  0.2344 -0.6869 -0.1094
 6650TIP3    H141509   4.897   2.668   0.556 -0.4477  1.9754 -0.7804
 6650TIP3    H241510   5.026   2.687   0.479 -0.5241  1.7876 -0.9557
 6651TIP3   OH241511   3.109   5.340   1.795  0.5020  0.3661 -0.2648
 6651TIP3    H141512   3.146   5.315   1.879  0.6342 -0.7340 -0.6364
 6651TIP3    H241513   3.055   5.417   1.814 -0.7985 -0.8344  1.1329
 6652TIP3   OH241514   1.360   6.241   7.049  0.5506  0.2924  0.4309
 6652TIP3    H141515   1.274   6.258   7.087  0.9812  2.7564  0.4128
 6652TIP3    H241516   1.343   6.229   6.955  0.2397  0.9568  0.3994
 6653TIP3   OH241517   5.083   0.943   2.427  0.3115 -0.3706  0.2318
 6653TIP3    H141518   5.024   0.894   2.370  1.7292 -0.4289 -1.2354
 6653TIP3    H241519   5.120   1.011   2.371  0.4749  0.6605  1.5322
 6654TIP3   OH241520   4.710   5.000   7.660 -0.0177 -0.2036  0.0463
 6654TIP3    H141521   4.727   5.060   7.588 -0.4823  0.0847  0.1657
 6654TIP3    H241522   4.796   4.969   7.687  0.3925  1.6126  0.9962
 6655TIP3   OH241523   6.127   5.907   8.551 -0.4518 -0.4242  0.2554
 6655TIP3    H141524   6.203   5.879   8.500  0.0483  0.4930  0.4681
 6655TIP3    H241525   6.164   5.945   8.631 -0.8874  2.8970 -0.9609
 6656TIP3   OH241526   2.154   0.846   1.082 -0.2455 -0.2474 -0.2310
 6656TIP3    H141527   2.077   0.889   1.044 -0.0072  2.3984  2.0107
 6656TIP3    H241528   2.118   0.787   1.148 -0.3855  0.2936  0.1758
 6657TIP3   OH241529   5.749   0.455   8.324 -0.2619  0.1015  0.3182
 6657TIP3    H141530   5.688   0.384   8.340 -0.9811  0.4860 -0.6608
 6657TIP3    H241531   5.694   0.531   8.307  0.3859  0.0220 -2.7280
 6658TIP3   OH241532   3.231   0.147   8.444  0.4141  0.1421  0.0210
 6658TIP3    H141533   3.225   0.185   8.531  2.3629 -1.0767  0.7697
 6658TIP3    H241534   3.298   0.200   8.400  0.4482 -0.1095 -0.2298
 6659TIP3   OH241535   3.087   4.508   2.061  0.2052 -0.5159  0.3110
 6659TIP3    H141536   2.993   4.495   2.070  0.1997 -1.2836 -0.6872
 6659TIP3    H241537   3.096   4.588   2.008  0.0713 -1.1390 -0.6833
 6660TIP3   OH241538   1.013   5.010   1.026 -0.2536  0.1568 -0.3448
 6660TIP3    H141539   1.073   5.038   1.095 -1.2429  0.7683  0.2799
 6660TIP3    H241540   1.057   5.035   0.945  0.0783  1.1418  0.1251
 6661TIP3   OH241541   4.543   1.341   8.790 -0.1827  0.1840 -0.4632
 6661TIP3    H141542   4.591   1.304   8.863 -3.4884 -0.2336  1.6883
 6661TIP3    H241543   4.473   1.278   8.772 -1.1439  1.6209 -2.1227
 6662TIP3   OH241544   4.648   4.861   3.203  0.5201 -0.9116  0.0578
 6662TIP3    H141545   4.661   4.856   3.108  0.5515  1.8188 -0.1647
 6662TIP3    H241546   4.555   4.881   3.214  0.9904  1.3853  0.3830
 6663TIP3   OH241547   4.375   5.505   0.344 -0.4906 -0.4016 -0.2186
 6663TIP3    H141548   4.430   5.558   0.286  0.1372 -1.2628 -0.4160
 6663TIP3    H241549   4.296   5.559   0.357  0.4255  0.8960  0.1576
 6664TIP3   OH241550   5.434   0.274   1.566 -0.0673 -0.3372  0.3173
 6664TIP3    H141551   5.480   0.190   1.557  0.4622 -0.6025  4.0027
 6664TIP3    H241552   5.342   0.250   1.574 -0.0648 -0.4453  0.0252
 6665TIP3   OH241553   4.878   3.852   1.721 -0.1514  0.2788 -0.4607
 6665TIP3    H141554   4.890   3.773   1.775  0.6642  0.0850 -0.9172
 6665TIP3    H241555   4.789   3.843   1.687  0.2249 -0.8977 -1.2031
 6666TIP3   OH241556   1.373   0.194   1.003 -0.8434 -0.1057 -0.2128
 6666TIP3    H141557   1.404   0.198   1.093 -1.4483 -0.4420  0.0215
 6666TIP3    H241558   1.451   0.175   0.951 -0.4566  0.2949  0.2189
 6667TIP3   OH241559   1.490   3.922   7.142  0.1061  0.4217  0.4984
 6667TIP3    H141560   1.446   3.845   7.106 -0.7939  0.8933  0.5505
 6667TIP3    H241561   1.447   3.996   7.100 -0.0256  0.9343  1.5016
 6668TIP3   OH241562   4.879   1.757   8.700 -0.5031 -0.4485 -0.0717
 6668TIP3    H141563   4.898   1.846   8.669  0.1935 -0.6704 -0.3123
 6668TIP3    H241564   4.868   1.766   8.794 -0.2893 -0.1288 -0.0745
 6669TIP3   OH241565   6.119   4.815   0.952  0.3789 -0.1269  0.0978
 6669TIP3    H141566   6.136   4.737   0.900  0.1324 -0.1812  0.0988
 6669TIP3    H241567   6.063   4.870   0.897 -0.0645 -0.2834  0.3905
 6670TIP3   OH241568   2.569   5.641   0.265  0.5420  0.0713  0.8205
 6670TIP3    H141569   2.664   5.631   0.261  0.5464  0.4149 -1.6694
 6670TIP3    H241570   2.535   5.553   0.246  0.3486 -0.0804  1.8355
 6671TIP3   OH241571   3.580   1.887   1.251  0.6142  0.2615 -0.0951
 6671TIP3    H141572   3.509   1.922   1.198 -0.0913 -1.5435 -0.4161
 6671TIP3    H241573   3.610   1.961   1.303 -1.6717  1.0241  0.2452
 6672TIP3   OH241574   5.999   5.590   6.922 -0.0790  0.7301 -0.2596
 6672TIP3    H141575   6.007   5.600   7.017 -1.4441  0.5929 -0.1048
 6672TIP3    H241576   6.042   5.667   6.885  2.0851 -0.1091  0.3803
 6673TIP3   OH241577   6.749   4.458   7.151 -0.0468 -0.1225 -0.3420
 6673TIP3    H141578   6.692   4.503   7.088  0.8726  0.0772 -1.0536
 6673TIP3    H241579   6.812   4.410   7.096  1.5971  1.1067  0.4093
 6674TIP3   OH241580   1.343   0.696   0.922  0.2975 -0.2085  0.4376
 6674TIP3    H141581   1.332   0.735   0.836 -0.5145  0.5883  0.8925
 6674TIP3    H241582   1.340   0.601   0.906  3.4521 -0.2299 -0.8388
 6675TIP3   OH241583   0.587   6.704   7.514 -0.1259  0.6033 -0.2735
 6675TIP3    H141584   0.503   6.675   7.551  0.6457 -0.9668  0.3533
 6675TIP3    H241585   0.567   6.720   7.422 -0.8013 -1.4077 -0.5462
 6676TIP3   OH241586   6.402   6.182   2.089  0.0005 -0.2469  0.2702
 6676TIP3    H141587   6.373   6.101   2.130 -0.1186 -1.8080 -2.6680
 6676TIP3    H241588   6.483   6.158   2.044 -0.0001  1.2757 -0.6024
 6677TIP3   OH241589   4.891   1.257   0.028  0.2078 -0.5138 -0.1556
 6677TIP3    H141590   4.868   1.165   0.041 -0.7941 -0.1324  0.9152
 6677TIP3    H241591   4.849   1.281  -0.054  0.6087 -1.0419 -0.5243
 6678TIP3   OH241592   4.731   4.868   0.531  0.8358  0.0231 -0.1672
 6678TIP3    H141593   4.818   4.868   0.571  0.8912 -2.6600 -0.1376
 6678TIP3    H241594   4.745   4.833   0.443 -0.1863 -0.3688 -0.1861
 6679TIP3   OH241595   5.079   6.112   2.295  0.2227  0.3878 -0.4286
 6679TIP3    H141596   5.071   6.206   2.307 -0.4598  0.6830 -2.7578
 6679TIP3    H241597   5.142   6.085   2.362  0.9985  2.5935 -0.1877
 6680TIP3   OH241598   2.172   4.795   8.498 -0.0379 -0.4378  0.1990
 6680TIP3    H141599   2.142   4.855   8.430 -0.5043 -0.4587  0.3784
 6680TIP3    H241600   2.250   4.838   8.535 -0.6060  0.2699  0.6067
 6681TIP3   OH241601   1.009   2.437   1.574 -0.4113 -0.2670  0.3314
 6681TIP3    H141602   0.977   2.354   1.539  0.8604 -0.0660 -1.4342
 6681TIP3    H241603   1.071   2.411   1.643  0.1078 -0.8069 -0.3279
 6682TIP3   OH241604   2.254   5.666   8.684 -0.5409  0.5404  0.0288
 6682TIP3    H141605   2.220   5.739   8.736 -0.1257 -0.8324  2.4079
 6682TIP3    H241606   2.223   5.588   8.731 -0.8296 -0.8326 -2.3250
 6683TIP3   OH241607   1.917   2.247   2.057 -0.4739  0.2242  0.8603
 6683TIP3    H141608   1.927   2.321   2.117  1.2142  1.3254 -0.6252
 6683TIP3    H241609   1.973   2.178   2.094  0.2197  0.7397  0.7991
 6684TIP3   OH241610   4.529   6.588   7.347 -0.0134  0.6583  0.5368
 6684TIP3    H141611   4.513   6.502   7.308 -1.5277  0.8029  0.7968
 6684TIP3    H241612   4.624   6.593   7.354  0.1634 -0.4955 -0.5947
 6685TIP3   OH241613   3.557   4.579   8.073  0.4038  0.3946  0.4510
 6685TIP3    H141614   3.461   4.584   8.064  0.3347  2.0452  1.6590
 6685TIP3    H241615   3.589   4.573   7.983 -0.8542 -1.3916  0.0601
 6686TIP3   OH241616   5.147   3.166   1.365 -0.4700 -0.5871 -0.5320
 6686TIP3    H141617   5.179   3.240   1.416 -2.2639 -0.3763  0.3664
 6686TIP3    H241618   5.150   3.092   1.425  0.1107 -0.9873 -1.0361
 6687TIP3   OH241619   5.952   6.399   8.218 -0.4443 -0.5701  0.3046
 6687TIP3    H141620   5.912   6.424   8.135 -0.1425 -0.1086  0.2967
 6687TIP3    H241621   5.927   6.307   8.230  1.5004 -1.3846 -1.4650
 6688TIP3   OH241622   4.719   4.662   7.845  0.1160 -0.1360 -0.0518
 6688TIP3    H141623   4.800   4.700   7.880 -0.1610  0.2417  0.1731
 6688TIP3    H241624   4.649   4.719   7.877 -0.0296  1.2391 -2.5899
 6689TIP3   OH241625   0.905   6.260   1.166 -0.4071 -0.0593 -0.9442
 6689TIP3    H141626   0.892   6.352   1.143 -1.4897  0.1621  0.3835
 6689TIP3    H241627   0.989   6.258   1.212 -0.6322  0.3927 -0.4886
 6690TIP3   OH241628   2.518   0.074   0.787  0.0388  0.2177 -0.2748
 6690TIP3    H141629   2.490   0.060   0.877  2.8367  0.1183  0.6781
 6690TIP3    H241630   2.598   0.127   0.794 -0.3471  1.3228 -2.7940
 6691TIP3   OH241631   6.564   6.696   8.662 -0.6647 -0.5464 -0.0888
 6691TIP3    H141632   6.655   6.723   8.647 -1.4352  2.5610  0.2442
 6691TIP3    H241633   6.537   6.744   8.739 -2.4061 -2.0509  0.3042
 6692TIP3   OH241634   5.831   0.637   1.898 -0.1763 -0.3401 -0.1433
 6692TIP3    H141635   5.789   0.583   1.831 -0.1366  0.2109 -0.6223
 6692TIP3    H241636   5.884   0.576   1.949 -0.3994 -0.8029 -0.4640
 6693TIP3   OH241637   1.447   6.208   7.303  0.5422 -0.4438 -0.1092
 6693TIP3    H141638   1.439   6.204   7.208 -2.7552  0.5778 -0.0015
 6693TIP3    H241639   1.485   6.123   7.327 -2.0273 -2.3645 -2.1439
 6694TIP3   OH241640   0.353   4.719   2.920 -0.0839  0.6539  0.0131
 6694TIP3    H141641   0.415   4.657   2.881  0.0833 -0.1486  1.5107
 6694TIP3    H241642   0.277   4.665   2.944  0.1631  0.9542  1.5625
 6695TIP3   OH241643   2.267   2.416   7.692  0.0177  0.3714  0.0333
 6695TIP3    H141644   2.262   2.438   7.599 -0.1924 -0.3879 -0.1345
 6695TIP3    H241645   2.176   2.403   7.719  0.1179  0.0570  0.2181
 6696TIP3   OH241646   3.896   3.609   7.921  0.5160  0.5500  0.1312
 6696TIP3    H141647   3.810   3.588   7.884  0.6062  2.5147 -1.3915
 6696TIP3    H241648   3.878   3.632   8.012 -1.1064  3.5492 -0.7994
 6697TIP3   OH241649   4.027   1.321   8.643 -0.2969 -0.2708 -0.0595
 6697TIP3    H141650   4.103   1.375   8.667 -0.8126  0.5833 -0.3108
 6697TIP3    H241651   3.986   1.299   8.727 -1.0887  1.2347 -0.0016
 6698TIP3   OH241652   6.502   3.270   1.199  0.1081 -0.2405  0.3644
 6698TIP3    H141653   6.420   3.221   1.205  0.3390 -0.6648  0.1124
 6698TIP3    H241654   6.569   3.203   1.185  0.5213  0.0878  0.7407
 6699TIP3   OH241655   0.867   0.131   8.108  0.8800  0.2839 -0.3077
 6699TIP3    H141656   0.861   0.084   8.192 -0.1696 -0.8753 -0.9971
 6699TIP3    H241657   0.917   0.073   8.051 -1.1747 -0.4927 -1.4392
 6700TIP3   OH241658   4.795   4.089   8.450 -0.3383 -0.6766  0.2454
 6700TIP3    H141659   4.705   4.112   8.426 -0.3120  0.3123  1.0231
 6700TIP3    H241660   4.784   4.020   8.516 -0.6366  0.6677  1.6845
 6701TIP3   OH241661   4.120   3.799   1.092 -0.0365 -0.4959  0.2098
 6701TIP3    H141662   4.061   3.866   1.128 -0.7761 -1.7320  1.3560
 6701TIP3    H241663   4.104   3.803   0.997  1.1968  2.1019  0.0145
 6702TIP3   OH241664   0.767   5.699   7.736 -0.5074  0.3184  0.2265
 6702TIP3    H141665   0.713   5.627   7.705  1.5677 -1.6743  0.9821
 6702TIP3    H241666   0.792   5.747   7.656 -2.6458  0.8348 -0.1974
 6703TIP3   OH241667   4.516   4.153   2.015 -0.7835  0.9427  0.2075
 6703TIP3    H141668   4.490   4.127   1.927 -1.4799  0.1977  0.6225
 6703TIP3    H241669   4.612   4.158   2.011 -0.7867  0.5736 -0.4925
 6704TIP3   OH241670   2.929   3.235   0.249  0.1081  0.0747 -0.1128
 6704TIP3    H141671   2.920   3.225   0.154  0.6602  1.0575 -0.2798
 6704TIP3    H241672   2.840   3.227   0.283 -0.2300  0.7225 -0.8166
 6705TIP3   OH241673   5.559   3.442   8.249 -0.1391 -0.0685 -0.2214
 6705TIP3    H141674   5.539   3.406   8.163  0.8420  0.0169 -0.5022
 6705TIP3    H241675   5.624   3.382   8.286  0.0889  0.3630  0.0959
 6706TIP3   OH241676   5.945   2.908   0.822 -0.4359  0.1641 -0.2767
 6706TIP3    H141677   5.902   2.830   0.858 -0.2955 -1.1686 -2.8023
 6706TIP3    H241678   6.031   2.908   0.864 -1.3373  0.5190  1.7151
 6707TIP3   OH241679   1.976   4.784   2.774 -0.0411 -0.6017  0.3462
 6707TIP3    H141680   2.053   4.835   2.801 -0.2065  0.5115 -1.1359
 6707TIP3    H241681   2.005   4.693   2.779  1.1340 -0.2398  0.5217
 6708TIP3   OH241682   5.191   4.763   8.231  0.4796 -0.2776  0.1814
 6708TIP3    H141683   5.117   4.744   8.289 -0.5258  1.1819 -0.5310
 6708TIP3    H241684   5.189   4.858   8.221  1.3198 -0.3856 -1.3398
 6709TIP3   OH241685   3.686   2.034   8.703  0.2156  0.4448 -0.2014
 6709TIP3    H141686   3.646   2.121   8.713 -1.2949 -0.2883  0.3751
 6709TIP3    H241687   3.760   2.049   8.645  0.4522  2.2583  0.5033
 6710TIP3   OH241688   3.147   4.334   2.267  0.3451 -0.0108 -0.0886
 6710TIP3    H141689   3.185   4.271   2.206  0.3234 -0.1581  0.0451
 6710TIP3    H241690   3.099   4.396   2.212  0.8832  0.2519 -0.2662
 6711TIP3   OH241691   2.280   2.084   8.213  0.0441  0.1187 -0.0593
 6711TIP3    H141692   2.201   2.137   8.222 -0.0033  0.5036 -2.1441
 6711TIP3    H241693   2.259   2.021   8.144  0.0238 -2.8843  2.4942
 6712TIP3   OH241694   2.950   0.931   2.818  0.0413 -0.5105 -0.6710
 6712TIP3    H141695   2.943   0.994   2.890  1.2484 -0.7173 -0.3584
 6712TIP3    H241696   3.029   0.881   2.838  0.1407 -0.8664 -1.9195
 6713TIP3   OH241697   6.220   1.845   0.696  0.1335 -0.0824 -0.2150
 6713TIP3    H141698   6.311   1.869   0.676  0.7087 -1.0421  1.0561
 6713TIP3    H241699   6.207   1.761   0.651 -0.8573  1.0367 -2.1318
 6714TIP3   OH241700   5.633   0.833   7.141  0.0319 -0.0263 -0.4766
 6714TIP3    H141701   5.623   0.865   7.052  2.0985  0.1799 -0.6800
 6714TIP3    H241702   5.718   0.866   7.169 -0.5817 -0.0773  1.5929
 6715TIP3   OH241703   1.552   3.580   2.212  0.8204  0.6322  0.3414
 6715TIP3    H141704   1.463   3.549   2.199  0.7890 -0.1923  2.1052
 6715TIP3    H241705   1.603   3.500   2.227  1.6294  1.1617  0.4794
 6716TIP3   OH241706   2.392   1.145   8.030 -0.2669  0.6362 -0.2948
 6716TIP3    H141707   2.300   1.174   8.031  0.0302  1.6611 -0.9211
 6716TIP3    H241708   2.434   1.204   7.968  0.3997 -1.1512 -1.5908
 6717TIP3   OH241709   0.883   2.906   8.265 -0.2442  0.3059 -0.1604
 6717TIP3    H141710   0.910   2.925   8.175  1.3396  0.2734  0.2700
 6717TIP3    H241711   0.956   2.937   8.319 -0.2061 -1.5914  0.9711
 6718TIP3   OH241712   3.530   5.513   0.179 -0.0544  0.3411  0.0738
 6718TIP3    H141713   3.597   5.449   0.205 -1.0366 -1.2494 -1.1210
 6718TIP3    H241714   3.576   5.573   0.121  0.4533 -0.4590 -0.3682
 6719TIP3   OH241715   0.760   3.344   1.647 -0.0238  0.0161  0.1453
 6719TIP3    H141716   0.745   3.425   1.599 -0.5470  0.0826  0.4160
 6719TIP3    H241717   0.751   3.368   1.739  0.2240 -0.2680  0.2452
 6720TIP3   OH241718   3.622   4.788   0.856  0.2692 -0.0398 -0.0969
 6720TIP3    H141719   3.660   4.729   0.922 -0.5936 -0.1228  0.3372
 6720TIP3    H241720   3.542   4.821   0.897  1.0261  1.9127 -0.0939
 6721TIP3   OH241721   0.354   1.900   0.704 -0.2442  0.7279  0.2689
 6721TIP3    H141722   0.398   1.816   0.694 -2.3349 -0.3292 -0.7405
 6721TIP3    H241723   0.349   1.935   0.615 -1.2627  0.8751  0.3697
 6722TIP3   OH241724   2.986   1.331   8.622 -0.6924  0.0258 -0.0530
 6722TIP3    H141725   3.070   1.322   8.577 -0.8436 -0.7533 -0.1841
 6722TIP3    H241726   2.921   1.337   8.552 -1.1228 -2.8804 -0.0267
 6723TIP3   OH241727   1.934   0.977   0.986  0.1783 -0.2796  0.1577
 6723TIP3    H141728   1.843   0.967   1.015  0.6147  0.0424  1.7541
 6723TIP3    H241729   1.941   1.069   0.961  0.2774 -0.0730  0.9112
 6724TIP3   OH241730   6.063   2.135   0.442 -0.3744  0.6981  0.2585
 6724TIP3    H141731   6.083   2.043   0.423  1.7116  1.0735  0.3637
 6724TIP3    H241732   6.034   2.171   0.359 -0.7332  0.0751  0.1030
 6725TIP3   OH241733   4.793   0.015   8.240 -0.1735 -0.6686 -0.0415
 6725TIP3    H141734   4.795  -0.008   8.332 -2.8854 -1.6505 -0.1241
 6725TIP3    H241735   4.730   0.087   8.234  1.0844  0.4075 -0.9781
 6726TIP3   OH241736   5.466   4.058   7.545  0.2123 -0.0690  0.4330
 6726TIP3    H141737   5.429   4.121   7.608  0.1078 -0.7299  1.0402
 6726TIP3    H241738   5.399   3.989   7.538  1.0659 -0.9782  1.0839
 6727TIP3   OH241739   1.312   6.092   1.564 -0.0368  0.5179 -0.3726
 6727TIP3    H141740   1.240   6.153   1.547 -1.1513 -0.6097  0.0633
 6727TIP3    H241741   1.268   6.009   1.585  1.3819 -0.0143  0.6585
 6728TIP3   OH241742   1.234   3.150   1.295  0.2898  0.2950 -0.0002
 6728TIP3    H141743   1.206   3.238   1.268 -0.9953 -0.1033 -0.0410
 6728TIP3    H241744   1.200   3.093   1.226  0.8364 -0.2749  0.1958
 6729TIP3   OH241745   5.871   3.271   7.283  0.0274  0.1529 -0.1753
 6729TIP3    H141746   5.871   3.220   7.203 -1.0134 -0.0848 -0.0335
 6729TIP3    H241747   5.843   3.359   7.256  1.8368  0.6989 -0.4236
 6730TIP3   OH241748   2.378   1.574   2.198 -0.0366  0.0262  0.9053
 6730TIP3    H141749   2.400   1.586   2.106 -2.5018  1.2378  0.3761
 6730TIP3    H241750   2.462   1.566   2.242  1.2509  0.6265 -1.2852
 6731TIP3   OH241751   6.403   0.706   2.045  0.1427  0.2091 -0.3646
 6731TIP3    H141752   6.325   0.671   2.089  0.5086  2.2341  2.1955
 6731TIP3    H241753   6.376   0.793   2.014  1.6077  1.6104  1.9104
 6732TIP3   OH241754   4.351   4.481   7.414 -0.0545 -0.1279  0.5188
 6732TIP3    H141755   4.387   4.569   7.420 -0.4250  0.0793 -0.1998
 6732TIP3    H241756   4.426   4.427   7.388 -0.4754  0.5570 -2.5993
 6733TIP3   OH241757   5.964   4.660   3.165  0.1674 -0.1667  0.1534
 6733TIP3    H141758   6.045   4.675   3.213  1.0623 -0.8811 -1.0772
 6733TIP3    H241759   5.981   4.696   3.078 -1.3298  0.8749  0.2487
 6734TIP3   OH241760   3.758   1.783   2.143  0.3805 -0.0746  0.4472
 6734TIP3    H141761   3.759   1.845   2.070  0.1960 -0.0296  0.4823
 6734TIP3    H241762   3.829   1.812   2.200 -0.6286  0.9950  1.2061
 6735TIP3   OH241763   6.121   4.858   2.447 -0.3527 -0.3332  0.4494
 6735TIP3    H141764   6.079   4.781   2.485 -2.6042  0.5238 -0.1364
 6735TIP3    H241765   6.093   4.858   2.356  1.0336  0.2770 -0.0063
 6736TIP3   OH241766   0.859   6.785   7.481 -0.4139 -0.5315  0.7545
 6736TIP3    H141767   0.765   6.777   7.498 -1.4859  0.3400 -3.7319
 6736TIP3    H241768   0.876   6.879   7.486  0.1568 -0.6485  1.0692
 6737TIP3   OH241769   0.460   4.366   2.453  0.0851 -0.0302  0.2408
 6737TIP3    H141770   0.458   4.360   2.549  0.0343 -0.4830  0.2120
 6737TIP3    H241771   0.408   4.292   2.423 -2.5266  1.8215 -0.0908
 6738TIP3   OH241772   1.232   1.895   1.594  0.4848  0.5475 -0.1223
 6738TIP3    H141773   1.230   1.884   1.689  1.0929  2.6164  0.1743
 6738TIP3    H241774   1.140   1.906   1.569  0.3338  0.0978  0.2337
 6739TIP3   OH241775   1.023   6.572   0.895 -0.2342  0.0304  0.4600
 6739TIP3    H141776   1.066   6.656   0.879 -0.1317  0.1375  1.2153
 6739TIP3    H241777   1.024   6.527   0.811  0.3695  0.4861  0.2206
 6740TIP3   OH241778   2.625   6.673   0.550 -0.1156  0.2602 -0.3732
 6740TIP3    H141779   2.635   6.767   0.533  3.5921 -0.3299 -2.5478
 6740TIP3    H241780   2.559   6.645   0.486 -2.7170  1.5080  1.5561
 6741TIP3   OH241781   2.475   1.699   0.342  0.1259  0.8012 -0.1057
 6741TIP3    H141782   2.472   1.627   0.279 -1.3696 -0.6600  1.5070
 6741TIP3    H241783   2.391   1.745   0.330  1.3864  2.8387 -1.6597
 6742TIP3   OH241784   6.362   5.364   2.412 -0.4583 -0.3499  0.3963
 6742TIP3    H141785   6.426   5.302   2.447 -0.4091  0.1899  1.2853
 6742TIP3    H241786   6.395   5.450   2.439 -2.5201 -0.1406  2.5066
 6743TIP3   OH241787   0.201   0.717   3.403  0.2651  0.2579 -0.0087
 6743TIP3    H141788   0.144   0.660   3.351 -0.1045  0.4012  0.2360
 6743TIP3    H241789   0.290   0.697   3.373  0.0309  0.6340 -1.0087
 6744TIP3   OH241790   1.148   4.618   8.148  0.2781 -0.0035  0.9619
 6744TIP3    H141791   1.066   4.666   8.139 -0.0531 -0.5113  1.2189
 6744TIP3    H241792   1.201   4.645   8.072  1.2164  2.8705  2.4818
 6745TIP3   OH241793   4.846   5.841   0.666 -0.2950 -0.4391  0.3111
 6745TIP3    H141794   4.860   5.772   0.731 -0.4567 -0.3745  0.4152
 6745TIP3    H241795   4.772   5.891   0.699 -1.5368 -1.4739 -0.8065
 6746TIP3   OH241796   0.490   6.528   1.876  0.2139  0.1034 -0.0855
 6746TIP3    H141797   0.548   6.461   1.841  0.0204  0.9802 -2.2811
 6746TIP3    H241798   0.539   6.569   1.947  1.6279 -0.2434 -0.8263
 6747TIP3   OH241799   6.236   0.416   0.559 -0.2193 -0.5654  0.2338
 6747TIP3    H141800   6.174   0.357   0.604 -0.7288 -1.2399 -1.3012
 6747TIP3    H241801   6.319   0.369   0.560 -0.4989 -1.0847 -0.5126
 6748TIP3   OH241802   6.072   3.575   1.429  0.5987  0.9661  0.2324
 6748TIP3    H141803   6.028   3.638   1.486 -0.1929  1.4346 -0.8404
 6748TIP3    H241804   6.070   3.617   1.342 -0.2016 -0.6559 -0.5662
 6749TIP3   OH241805   4.410   5.531   1.369  0.0369 -0.1636  0.0270
 6749TIP3    H141806   4.378   5.444   1.393 -0.9088  0.0218 -0.4991
 6749TIP3    H241807   4.505   5.525   1.379 -0.1210 -0.7773  1.5213
 6750TIP3   OH241808   4.197   3.434   2.294  0.2698  0.2873 -0.3317
 6750TIP3    H141809   4.274   3.485   2.319  0.4386 -1.0572  2.1421
 6750TIP3    H241810   4.158   3.484   2.222  3.6044  0.8161 -1.9625
 6751TIP3   OH241811   5.722   4.027   1.169 -0.2257 -0.1515  0.2165
 6751TIP3    H141812   5.738   4.088   1.098 -1.0384 -1.1249 -0.8446
 6751TIP3    H241813   5.781   4.055   1.239  0.2287  1.1308 -0.6479
 6752TIP3   OH241814   1.346   4.842   0.088  0.3513 -0.1659 -0.7097
 6752TIP3    H141815   1.417   4.801   0.138  0.6296  0.7482 -0.3222
 6752TIP3    H241816   1.307   4.771   0.037  0.4088 -1.0079  0.4087
 6753TIP3   OH241817   1.753   1.999   1.291  0.1268  0.1147 -0.0913
 6753TIP3    H141818   1.799   2.023   1.211  1.8272 -1.4213  0.3624
 6753TIP3    H241819   1.790   2.058   1.358 -0.6685  0.8126 -0.2534
 6754TIP3   OH241820   5.273   6.488   7.919  0.4345  0.4697 -0.2469
 6754TIP3    H141821   5.349   6.506   7.974  0.7039 -0.7359 -0.1867
 6754TIP3    H241822   5.297   6.409   7.870 -1.3832 -0.9018  0.9560
 6755TIP3   OH241823   1.693   5.019   0.281  0.1305 -0.9149 -0.1209
 6755TIP3    H141824   1.655   4.999   0.366 -1.2932  0.8960 -0.2691
 6755TIP3    H241825   1.691   5.115   0.275 -0.2977 -1.0021 -2.3722
 6756TIP3   OH241826   2.578   2.255   2.118 -0.8109  0.3259 -0.1095
 6756TIP3    H141827   2.647   2.191   2.103 -0.7581  0.2440  0.4424
 6756TIP3    H241828   2.600   2.294   2.203 -0.0942  2.0506 -1.0410
 6757TIP3   OH241829   4.804   4.085   2.997  0.3851 -0.7753 -0.8021
 6757TIP3    H141830   4.818   4.121   3.085  0.5132 -1.4002 -0.5629
 6757TIP3    H241831   4.778   4.161   2.944 -0.0777 -0.4577 -0.1357
 6758TIP3   OH241832   4.786   4.455   1.128 -0.7895 -0.5099 -0.0103
 6758TIP3    H141833   4.706   4.460   1.181  0.1895  0.2363  1.4850
 6758TIP3    H241834   4.821   4.543   1.130  0.1935 -0.8815 -0.4345
 6759TIP3   OH241835   4.075   6.805   0.334 -0.1916 -0.1429 -0.5339
 6759TIP3    H141836   4.024   6.877   0.298 -0.9775 -1.1521 -1.4965
 6759TIP3    H241837   4.022   6.772   0.407 -0.2866 -0.3560 -0.6996
 6760TIP3   OH241838   5.292   4.003   8.699 -0.1010 -0.5568 -0.1615
 6760TIP3    H141839   5.338   4.035   8.777  0.4590  0.9780 -1.0936
 6760TIP3    H241840   5.357   3.948   8.654  0.7382  1.2276 -1.2282
 6761TIP3   OH241841   3.632   5.327   8.457  0.6856  0.2697  0.0679
 6761TIP3    H141842   3.727   5.320   8.467  0.6629 -0.3997 -0.1570
 6761TIP3    H241843   3.597   5.249   8.501  0.2465  0.4429  0.0339
 6762TIP3   OH241844   4.855   3.482   1.592  0.3554 -0.0320  0.4740
 6762TIP3    H141845   4.908   3.402   1.589 -0.6839 -0.7144 -1.1011
 6762TIP3    H241846   4.805   3.475   1.674  0.1380 -1.1065  0.2673
 6763TIP3   OH241847   0.394   1.319   8.781  0.7761 -0.0216 -0.6843
 6763TIP3    H141848   0.312   1.365   8.765  1.0844  0.0663 -2.1453
 6763TIP3    H241849   0.456   1.389   8.805  0.6621  0.0353 -0.5570
 6764TIP3   OH241850   5.883   4.412   0.289 -0.0351 -0.5165  0.4851
 6764TIP3    H141851   5.883   4.468   0.366 -0.3170 -0.4117  0.4120
 6764TIP3    H241852   5.970   4.373   0.287  0.9717  1.5696 -0.6495
 6765TIP3   OH241853   3.185   0.679   0.605  0.2138  0.2910  0.1660
 6765TIP3    H141854   3.255   0.666   0.668 -0.8300 -0.9112  1.1410
 6765TIP3    H241855   3.215   0.636   0.525  0.8256  0.3097  0.3851
 6766TIP3   OH241856   6.024   6.608   7.314  0.0784 -0.1197 -0.0285
 6766TIP3    H141857   6.101   6.578   7.361 -1.4537 -2.1224  1.3981
 6766TIP3    H241858   6.036   6.574   7.225  0.5702 -0.9495  0.3423
 6767TIP3   OH241859   0.100   3.546   2.043  0.1265  0.4343  0.0363
 6767TIP3    H141860   0.137   3.487   2.108  0.9782 -0.3585 -1.1237
 6767TIP3    H241861   0.037   3.493   1.995 -0.6926  1.0839  0.3695
 6768TIP3   OH241862   6.217   2.867   8.730  0.0085  0.6693  0.2017
 6768TIP3    H141863   6.239   2.816   8.808  1.8088  2.4404  0.9278
 6768TIP3    H241864   6.122   2.874   8.732  0.0542  2.1774  3.3095
 6769TIP3   OH241865   3.458   5.853   1.601  0.6567 -0.0172 -0.0986
 6769TIP3    H141866   3.411   5.817   1.675  1.6571 -1.4670 -0.1218
 6769TIP3    H241867   3.499   5.777   1.559 -0.5430  0.6379 -2.6355
 6770TIP3   OH241868   2.909   0.479   1.486  0.0672  0.4055 -0.2036
 6770TIP3    H141869   2.966   0.403   1.495 -0.1618  0.1881 -0.6084
 6770TIP3    H241870   2.877   0.495   1.575  0.4798  0.3158 -0.0361
 6771TIP3   OH241871   4.660   3.636   0.034 -0.5135  0.1658  0.5066
 6771TIP3    H141872   4.636   3.721   0.069  1.7334  0.8102  0.6515
 6771TIP3    H241873   4.751   3.647   0.004 -1.1458 -1.3474 -2.2835
 6772TIP3   OH241874   3.521   0.999   8.138 -0.2964 -0.4906  0.6925
 6772TIP3    H141875   3.574   1.077   8.152  1.4600 -1.1472 -1.6870
 6772TIP3    H241876   3.565   0.931   8.189  0.5610 -0.7953 -0.4299
 6773TIP3   OH241877   6.171   1.895   1.681 -0.5703 -0.1846 -0.6822
 6773TIP3    H141878   6.160   1.960   1.750 -1.6952 -1.4639  0.4104
 6773TIP3    H241879   6.136   1.937   1.602 -2.3385  0.1514  0.2395
 6774TIP3   OH241880   2.161   0.608   7.964 -0.1883  0.1791  0.8049
 6774TIP3    H141881   2.202   0.633   7.881 -0.8300 -0.2497  0.3525
 6774TIP3    H241882   2.095   0.543   7.939  2.2716 -3.0785  1.9962
 6775TIP3   OH241883   3.679   5.996   0.521  0.4936 -0.4283 -0.5393
 6775TIP3    H141884   3.729   5.933   0.573  0.7623  1.0009  1.0114
 6775TIP3    H241885   3.598   6.009   0.570  0.5626  0.6471 -0.6855
 6776TIP3   OH241886   4.707   4.241   8.756 -0.4293 -0.3180  0.0258
 6776TIP3    H141887   4.672   4.163   8.713  3.4922 -2.9240  1.0102
 6776TIP3    H241888   4.641   4.262   8.823 -1.9887 -2.3305 -0.7486
 6777TIP3   OH241889   5.209   2.849   2.710 -0.5510  0.3694  0.2053
 6777TIP3    H141890   5.296   2.877   2.737 -0.8161 -0.7168  2.4861
 6777TIP3    H241891   5.174   2.922   2.660  1.2416  1.2805  0.2122
 6778TIP3   OH241892   6.504   0.604   1.803  0.0506  0.3468  0.1308
 6778TIP3    H141893   6.596   0.603   1.829  0.4386 -0.7355 -1.1710
 6778TIP3    H241894   6.456   0.620   1.884  1.2474 -1.8343  1.3553
 6779TIP3   OH241895   1.029   4.169   1.039  0.1863  0.0052  0.7056
 6779TIP3    H141896   1.072   4.115   1.106  0.3819 -0.2169  0.4079
 6779TIP3    H241897   0.955   4.210   1.084  0.1733 -0.3324  0.9964
 6780TIP3   OH241898   4.739   0.230   1.405 -0.3308  0.3541  0.0976
 6780TIP3    H141899   4.820   0.248   1.357 -0.9981  1.9749 -0.5027
 6780TIP3    H241900   4.689   0.311   1.398 -1.7938 -0.4431  0.8897
 6781TIP3   OH241901   2.235   2.928   0.189 -0.4810  0.0327 -0.2781
 6781TIP3    H141902   2.242   2.858   0.124 -2.0677 -0.7939  0.3899
 6781TIP3    H241903   2.313   2.981   0.176  1.8777 -2.9771  0.5171
 6782TIP3   OH241904   4.859   3.017   0.757 -0.0031 -0.7341 -0.0429
 6782TIP3    H141905   4.772   3.057   0.750  0.3037 -0.0556 -0.0434
 6782TIP3    H241906   4.914   3.085   0.795  0.5379 -1.1514 -0.0614
 6783TIP3   OH241907   1.250   3.706   1.050 -0.6492 -0.2814  0.1572
 6783TIP3    H141908   1.165   3.748   1.037 -0.0383  0.6957 -0.8695
 6783TIP3    H241909   1.285   3.745   1.130 -1.4542 -1.2272  1.0015
 6784TIP3   OH241910   2.087   6.208   2.397 -0.7861  0.7345 -0.0075
 6784TIP3    H141911   1.994   6.196   2.415 -0.7361 -1.0792 -0.7366
 6784TIP3    H241912   2.130   6.139   2.448 -0.1631 -0.6246 -2.2592
 6785TIP3   OH241913   4.304   3.733   2.629  0.1441  0.0281 -0.0587
 6785TIP3    H141914   4.311   3.638   2.618 -1.3594 -0.1374  0.0888
 6785TIP3    H241915   4.347   3.751   2.713 -0.3108 -0.6612  0.3341
 6786TIP3   OH241916   3.065   0.598   6.996  0.0827  0.8664 -0.4106
 6786TIP3    H141917   3.081   0.505   6.977 -1.3355  0.0302  2.0538
 6786TIP3    H241918   2.971   0.610   6.981 -0.2903  1.1563  1.7737
 6787TIP3   OH241919   0.141   1.512   2.235  0.7714  0.5051 -0.6550
 6787TIP3    H141920   0.148   1.604   2.211 -2.5878  0.6249 -1.5744
 6787TIP3    H241921   0.137   1.512   2.330 -1.1309  1.5617 -0.6937
 6788TIP3   OH241922   1.315   6.272   1.317  0.1294 -0.3695 -0.1626
 6788TIP3    H141923   1.407   6.285   1.343 -0.3527  2.2408  0.5278
 6788TIP3    H241924   1.320   6.245   1.226  1.6178  1.0220 -0.5595
 6789TIP3   OH241925   3.505   2.065   2.885  0.0975 -0.4094  0.3817
 6789TIP3    H141926   3.578   2.112   2.845  2.0349 -2.2544  1.5128
 6789TIP3    H241927   3.428   2.092   2.835  1.2993  2.6422 -0.0452
 6790TIP3   OH241928   5.547   4.839   8.133 -0.1915  0.1682  0.5396
 6790TIP3    H141929   5.506   4.923   8.153 -1.0383 -0.0219 -0.2746
 6790TIP3    H241930   5.556   4.795   8.217 -1.5626  0.2810  0.7648
 6791TIP3   OH241931   1.802   2.493   0.515 -0.1366 -0.0036 -0.2128
 6791TIP3    H141932   1.764   2.555   0.577 -1.6462 -1.7877  0.7655
 6791TIP3    H241933   1.834   2.422   0.570  1.2781 -0.2483 -1.3106
 6792TIP3   OH241934   2.954   0.773   0.774 -0.3489  0.5320 -0.1464
 6792TIP3    H141935   3.000   0.760   0.857 -0.1770  1.1452 -0.1432
 6792TIP3    H241936   3.020   0.756   0.707 -0.4224  0.2836 -0.1573
 6793TIP3   OH241937   6.638   4.031   7.567 -0.1224 -0.5072  0.1401
 6793TIP3    H141938   6.718   4.082   7.579  0.6844 -1.6905  0.0242
 6793TIP3    H241939   6.653   3.981   7.486 -1.3891 -0.0347 -0.4203
 6794TIP3   OH241940   0.668   2.120   2.044  0.4821  0.4633  0.2188
 6794TIP3    H141941   0.715   2.052   2.092  0.5806  0.6763  0.4265
 6794TIP3    H241942   0.686   2.102   1.952  0.0821 -0.1067  0.2415
 6795TIP3   OH241943   1.154   4.386   2.612  0.2905 -0.1429  0.1815
 6795TIP3    H141944   1.136   4.480   2.622 -0.8044 -0.3003 -0.2064
 6795TIP3    H241945   1.081   4.343   2.656  0.2371 -0.8161 -0.5541
 6796TIP3   OH241946   5.783   5.176   0.846  0.0340  0.1282 -0.6521
 6796TIP3    H141947   5.718   5.107   0.843  1.5697 -1.4435  0.3770
 6796TIP3    H241948   5.861   5.138   0.805  0.8391  1.3237 -0.3080
 6797TIP3   OH241949   4.361   4.497   0.297  0.3474 -0.8470  0.0091
 6797TIP3    H141950   4.275   4.477   0.260  0.0567 -1.2574  0.8869
 6797TIP3    H241951   4.345   4.569   0.359  0.6887 -0.7073 -0.0624
 6798TIP3   OH241952   1.902   4.454   0.231  0.6741  0.2689 -0.1899
 6798TIP3    H141953   1.839   4.485   0.167 -2.1245 -1.0155  1.7121
 6798TIP3    H241954   1.909   4.525   0.295  0.6768  0.1920 -0.1031
 6799TIP3   OH241955   3.790   1.885   0.951 -0.0723  0.0241 -0.3175
 6799TIP3    H141956   3.810   1.902   1.043  1.9694 -0.6650 -0.5767
 6799TIP3    H241957   3.799   1.791   0.941 -0.8445  0.0208 -1.1191
 6800TIP3   OH241958   4.820   5.150   7.936 -0.2721 -0.2765 -0.3729
 6800TIP3    H141959   4.737   5.194   7.921 -1.2902 -1.6523  0.9836
 6800TIP3    H241960   4.884   5.221   7.943 -1.3592  0.8200 -1.1158
 6801TIP3   OH241961   1.087   1.311   0.795 -0.2825 -0.6589 -0.4205
 6801TIP3    H141962   1.172   1.347   0.770  0.1107 -2.1854 -1.4506
 6801TIP3    H241963   1.056   1.368   0.865  1.8673 -0.4319  0.4226
 6802TIP3   OH241964   6.356   2.906   1.387  0.0644 -0.1621  0.0475
 6802TIP3    H141965   6.370   2.940   1.475 -0.6936 -1.2063  0.5876
 6802TIP3    H241966   6.395   2.818   1.389 -1.5716 -0.9295 -0.0711
 6803TIP3   OH241967   4.141   4.194   1.017 -0.2699 -0.1996 -0.3386
 6803TIP3    H141968   4.131   4.165   0.926  0.9834  1.6249 -1.1161
 6803TIP3    H241969   4.065   4.250   1.032 -0.9060 -1.1284  0.0527
 6804TIP3   OH241970   3.814   4.966   1.343 -0.0838  0.0063  0.0608
 6804TIP3    H141971   3.730   4.927   1.321 -0.1266 -0.3443  0.7857
 6804TIP3    H241972   3.877   4.895   1.330 -0.0164  0.0151  0.3254
 6805TIP3   OH241973   1.024   0.482   0.312 -0.2969 -0.3885 -0.1054
 6805TIP3    H141974   0.972   0.401   0.311 -0.4642 -0.2931  0.3718
 6805TIP3    H241975   0.971   0.543   0.364  0.7694 -0.6147  1.3233
 6806TIP3   OH241976   4.816   0.241   2.623  0.0391  0.5203  0.1674
 6806TIP3    H141977   4.877   0.261   2.552  2.0088 -1.8297  1.0658
 6806TIP3    H241978   4.775   0.159   2.596 -0.0099  0.1824  1.2561
 6807TIP3   OH241979   3.454   0.050   8.134  0.2268  0.2234  0.3256
 6807TIP3    H141980   3.531   0.058   8.077 -0.4482  2.9309 -0.3873
 6807TIP3    H241981   3.485   0.080   8.220 -0.3136  3.0184 -0.3565
 6808TIP3   OH241982   5.331   1.209   0.903  0.1180  0.2565  0.1071
 6808TIP3    H141983   5.264   1.171   0.846  1.4033 -3.2795  0.7085
 6808TIP3    H241984   5.354   1.138   0.963  2.1907  2.3449  1.9642
 6809TIP3   OH241985   0.130   4.309   1.870 -0.3097  0.8507 -0.0591
 6809TIP3    H141986   0.108   4.217   1.857  0.3916  0.8317 -1.2146
 6809TIP3    H241987   0.062   4.341   1.930 -0.4063 -0.4658  0.5799
 6810TIP3   OH241988   1.907   1.898   8.356  0.6955  0.2660  1.0921
 6810TIP3    H141989   1.931   1.818   8.309  3.3164  1.5746 -0.0590
 6810TIP3    H241990   1.908   1.873   8.448 -1.9462 -1.7509  0.6757
 6811TIP3   OH241991   3.086   0.017   0.978 -0.2739  0.4367 -0.4583
 6811TIP3    H141992   3.040   0.082   0.924 -0.9601  0.1612 -0.2252
 6811TIP3    H241993   3.048  -0.067   0.952 -0.4134  0.2759  0.2382
 6812TIP3   OH241994   3.554   1.445   7.392  0.0919 -0.2400 -0.0857
 6812TIP3    H141995   3.538   1.484   7.306 -0.6220  0.8775  0.5322
 6812TIP3    H241996   3.470   1.407   7.417  0.0723  0.1653  0.4727
 6813TIP3   OH241997   6.121   1.729   7.528  0.4926 -0.0861  0.4575
 6813TIP3    H141998   6.216   1.737   7.527  0.7340 -2.2884 -0.3271
 6813TIP3    H241999   6.093   1.754   7.440  0.6941 -2.1318 -0.2410
 6814TIP3   OH242000   0.791   1.593   2.337 -0.2003  0.1768  0.2763
 6814TIP3    H142001   0.760   1.551   2.417 -0.8782 -0.2857 -0.2158
 6814TIP3    H242002   0.821   1.679   2.365 -0.0739 -0.1264  1.0859
 6815TIP3   OH242003   3.152   6.318   6.744  0.4524  0.2444  0.4292
 6815TIP3    H142004   3.109   6.239   6.776 -1.7799  2.1975  2.7088
 6815TIP3    H242005   3.151   6.378   6.819  0.6144  2.9755 -1.5778
 6816TIP3   OH242006   6.729   4.811   8.324 -0.3730 -0.1555  0.2255
 6816TIP3    H142007   6.746   4.719   8.304 -2.8429 -0.7824  0.7123
 6816TIP3    H242008   6.783   4.829   8.401  1.5622 -0.5974 -0.9663
 6817TIP3   OH242009   0.923   4.730   8.064  0.7380 -0.4903  0.5077
 6817TIP3    H142010   0.907   4.810   8.115  0.3131 -0.6867  0.6923
 6817TIP3    H242011   0.911   4.758   7.973 -0.0245 -0.4700  0.6027
 6818TIP3   OH242012   6.370   6.532   0.468 -0.3920  0.2537 -0.0093
 6818TIP3    H142013   6.441   6.551   0.530  0.5955  0.6843 -1.2286
 6818TIP3    H242014   6.325   6.456   0.505 -1.0814  1.6500  2.2414
 6819TIP3   OH242015   3.855   5.712   8.471 -0.1784  0.2600  0.1893
 6819TIP3    H142016   3.912   5.767   8.526 -0.0611  0.4367 -0.1060
 6819TIP3    H242017   3.903   5.703   8.389  0.7617 -1.9471  0.8905
 6820TIP3   OH242018   4.717   5.829   8.628  0.5086 -0.0299 -0.0144
 6820TIP3    H142019   4.663   5.884   8.571  0.1390  0.0184  0.3763
 6820TIP3    H242020   4.749   5.889   8.695  0.0897 -0.2899  0.4230
 6821TIP3   OH242021   5.097   2.561   0.246 -0.1869 -0.5355  0.3977
 6821TIP3    H142022   5.120   2.514   0.327  0.7698 -0.6567  0.0714
 6821TIP3    H242023   5.016   2.608   0.268  0.2005 -0.3461  1.5202
 6822TIP3   OH242024   3.741   0.799   0.227 -0.0539 -0.1941  0.4025
 6822TIP3    H142025   3.692   0.755   0.157  1.0178 -2.1596  0.8211
 6822TIP3    H242026   3.680   0.803   0.300  0.4634 -3.1539  1.1163
 6823TIP3   OH242027   5.351   4.208   7.784  0.0340 -0.4886 -0.3624
 6823TIP3    H142028   5.379   4.293   7.819 -1.9785  0.1363 -0.1422
 6823TIP3    H242029   5.324   4.158   7.862 -1.7149 -0.1525 -0.7073
 6824TIP3   OH242030   3.159   6.111   7.764 -0.0365 -0.5662  0.2639
 6824TIP3    H142031   3.242   6.123   7.717  0.7759 -0.8881  1.5506
 6824TIP3    H242032   3.120   6.033   7.723 -0.8165  0.8078 -1.8108
 6825TIP3   OH242033   0.911   3.407   7.353  0.0461  0.4291 -0.2511
 6825TIP3    H142034   0.871   3.379   7.271  0.5621 -1.1334 -0.0146
 6825TIP3    H242035   1.004   3.416   7.332  0.4091 -1.3287  0.4383
 6826TIP3   OH242036   1.078   2.469   0.826 -0.6063  0.1205 -0.0180
 6826TIP3    H142037   1.081   2.429   0.739 -0.7103  0.7652 -0.3214
 6826TIP3    H242038   1.109   2.400   0.885  0.6571  0.0624 -0.7033
 6827TIP3   OH242039   0.976   6.342   1.826 -0.1364  0.7410  0.7396
 6827TIP3    H142040   0.915   6.285   1.779 -0.6604  0.6668  1.4789
 6827TIP3    H242041   1.062   6.322   1.789 -0.3252 -0.4578  0.9123
 6828TIP3   OH242042   2.907   0.594   8.777 -0.3665  0.2830  0.4313
 6828TIP3    H142043   2.833   0.622   8.724 -0.9799  0.0803  1.1664
 6828TIP3    H242044   2.889   0.628   8.864  0.4541  0.3099  0.6029
 6829TIP3   OH242045   0.498   4.188   0.184  0.0164  0.6397  0.3359
 6829TIP3    H142046   0.489   4.172   0.278  0.5827  0.1717  0.3127
 6829TIP3    H242047   0.408   4.199   0.153 -0.1209  3.5366  1.3719
 6830TIP3   OH242048   6.272   1.600   2.495  0.2698  0.0044  0.2944
 6830TIP3    H142049   6.329   1.593   2.571  0.5974  2.8210  0.4284
 6830TIP3    H242050   6.183   1.598   2.530  0.4225  1.5549  0.8457
 6831TIP3   OH242051   6.689   0.266   1.181  0.8496  0.7322  0.1298
 6831TIP3    H142052   6.603   0.309   1.188  0.1446 -0.6006 -0.0624
 6831TIP3    H242053   6.703   0.257   1.087 -0.9013 -2.9400  0.0210
 6832TIP3   OH242054   2.925   4.305   1.583 -0.3008 -0.3069  0.5673
 6832TIP3    H142055   2.929   4.380   1.523  0.4588 -0.6803  0.1311
 6832TIP3    H242056   2.879   4.238   1.533  0.6720 -0.7489  0.2314
 6833TIP3   OH242057   3.176   1.772   8.036  0.1884 -0.0508 -0.6595
 6833TIP3    H142058   3.101   1.752   8.092  1.9091 -0.0940  1.7997
 6833TIP3    H242059   3.169   1.867   8.022  0.3138  0.1717  0.6166
 6834TIP3   OH242060   1.707   5.147   2.713 -0.2598 -0.9482  0.5106
 6834TIP3    H142061   1.636   5.200   2.752 -0.3511 -0.4082 -0.3580
 6834TIP3    H242062   1.662   5.075   2.671 -0.2577 -0.8544  0.3479
 6835TIP3   OH242063   0.689   0.889   1.879 -0.7613 -0.5518 -0.2919
 6835TIP3    H142064   0.656   0.910   1.966  0.2952 -0.1431  0.0195
 6835TIP3    H242065   0.742   0.964   1.854 -1.7824 -0.2549 -1.6879
 6836TIP3   OH242066   0.599   1.482   0.088 -0.7188  0.2992 -0.4075
 6836TIP3    H142067   0.647   1.399   0.084 -0.3126  0.5709 -1.9182
 6836TIP3    H242068   0.665   1.549   0.073 -0.9968  0.9446  1.0676
 6837TIP3   OH242069   0.359   3.939   8.790  0.3357  0.3569 -0.0562
 6837TIP3    H142070   0.365   3.854   8.747 -1.0084  0.2085  0.0167
 6837TIP3    H242071   0.365   4.003   8.719  1.1443  0.2102 -0.1297
 6838TIP3   OH242072   4.501   2.547   1.882  0.0687  0.3803 -0.4607
 6838TIP3    H142073   4.508   2.456   1.910 -2.9351 -0.1388 -1.0612
 6838TIP3    H242074   4.559   2.553   1.806 -0.7675 -1.4897 -1.3124
 6839TIP3   OH242075   1.248   0.988   0.087 -0.5346  0.5272  0.2433
 6839TIP3    H142076   1.178   0.937   0.128 -1.5810  0.3492 -1.6201
 6839TIP3    H242077   1.226   0.987  -0.006  2.0328  0.4085 -0.4307
 6840TIP3   OH242078   0.824   0.538   2.948  0.0391  0.4068 -0.6935
 6840TIP3    H142079   0.790   0.538   3.037 -1.5080 -0.3402 -1.2509
 6840TIP3    H242080   0.781   0.611   2.905  1.1749  1.0895 -0.7171
 6841TIP3   OH242081   1.547   1.449   1.434 -0.7468 -0.0999  0.6824
 6841TIP3    H142082   1.544   1.411   1.522 -2.0257 -0.8447  0.3365
 6841TIP3    H242083   1.525   1.541   1.447 -1.8864 -0.4102  1.0551
 6842TIP3   OH242084   2.933   4.135   0.253  0.7440 -0.4387  0.0083
 6842TIP3    H142085   3.003   4.194   0.280 -0.1457 -0.3800  2.4095
 6842TIP3    H242086   2.860   4.156   0.311 -0.4148 -2.2359 -0.7131
 6843TIP3   OH242087   0.686   5.481   0.650 -0.2011  0.3962  0.0998
 6843TIP3    H142088   0.600   5.462   0.613 -1.2981  1.6061  1.8534
 6843TIP3    H242089   0.680   5.572   0.680  1.1145  0.0067  1.7483
 6844TIP3   OH242090   1.265   1.080   0.513 -0.0480 -0.2300 -0.1882
 6844TIP3    H142091   1.240   1.162   0.471 -0.2333 -0.2670 -0.1493
 6844TIP3    H242092   1.285   1.021   0.440 -0.4124 -0.3076 -0.2278
 6845TIP3   OH242093   4.413   0.778   7.856 -0.5558  0.6929 -0.1647
 6845TIP3    H142094   4.430   0.701   7.801 -3.1391  0.5260 -0.8595
 6845TIP3    H242095   4.412   0.744   7.945 -1.0520  0.0297 -0.4186
 6846TIP3   OH242096   6.074   1.729   2.975  0.6921  0.3056 -0.5475
 6846TIP3    H142097   6.027   1.800   3.020 -0.0976 -0.0437 -0.8023
 6846TIP3    H242098   6.012   1.656   2.975  1.4423 -0.3466 -0.4168
 6847TIP3   OH242099   2.595   3.347   2.896 -0.6389 -0.0227  0.2450
 6847TIP3    H142100   2.560   3.334   2.984  0.1298  0.1664  0.5850
 6847TIP3    H242101   2.606   3.442   2.888 -3.2354  0.2518 -1.0643
 6848TIP3   OH242102   4.971   6.045   1.090 -0.2498  0.0974 -0.4020
 6848TIP3    H142103   5.047   6.036   1.033 -0.0910 -0.4044 -0.1155
 6848TIP3    H242104   5.006   6.080   1.171 -0.8565  3.6558 -1.5103
 6849TIP3   OH242105   2.288   0.036   2.985 -0.2598  0.4185  0.0473
 6849TIP3    H142106   2.192   0.033   2.989 -0.2402  0.9008  1.3989
 6849TIP3    H242107   2.316  -0.021   3.056  0.4288  1.6694  0.8062
 6850TIP3   OH242108   6.225   0.854   7.608 -1.2680  0.3120 -0.1975
 6850TIP3    H142109   6.296   0.799   7.575 -0.7325  0.2996  0.9339
 6850TIP3    H242110   6.215   0.828   7.699  0.7144  3.7051  1.1931
 6851TIP3   OH242111   6.490   3.168   8.710 -0.1071 -0.1397  0.4491
 6851TIP3    H142112   6.582   3.139   8.708 -0.3311 -0.9041 -1.3948
 6851TIP3    H242113   6.495   3.263   8.700  0.4940 -0.1776  0.3465
 6852TIP3   OH242114   5.039   6.450   0.282 -0.5274  0.2523 -0.5994
 6852TIP3    H142115   5.082   6.424   0.364 -0.8897 -0.1284 -0.5245
 6852TIP3    H242116   5.084   6.399   0.215  1.0012  1.9040 -0.8890
 6853TIP3   OH242117   2.168   6.171   2.997  0.4686  0.2138 -0.1579
 6853TIP3    H142118   2.206   6.116   3.065 -0.1888 -0.3460 -0.2284
 6853TIP3    H242119   2.113   6.112   2.945  1.0785  0.5927 -1.2813
 6854TIP3   OH242120   2.011   4.061   7.450 -0.0371 -0.0183 -0.6003
 6854TIP3    H142121   1.942   4.012   7.495 -0.1124  1.1431  0.5931
 6854TIP3    H242122   2.074   3.994   7.422 -1.8705 -1.1742 -2.2105
 6855TIP3   OH242123   0.325   3.171   8.117 -0.3454  0.2065 -0.2891
 6855TIP3    H142124   0.244   3.204   8.154 -0.6797  0.9156 -1.5994
 6855TIP3    H242125   0.383   3.247   8.113  0.2645 -0.2099  0.2678
 6856TIP3   OH242126   5.388   2.673   8.546 -0.1813  0.0314 -0.4350
 6856TIP3    H142127   5.444   2.632   8.481 -0.4840 -1.5385  0.2645
 6856TIP3    H242128   5.299   2.652   8.519 -0.4320  1.5733 -0.9222
 6857TIP3   OH242129   1.595   5.007   3.037  0.1703  0.7675  0.4934
 6857TIP3    H142130   1.502   5.020   3.056 -0.4856  1.9960 -2.9007
 6857TIP3    H242131   1.637   5.089   3.064 -0.3300  1.5189 -0.9174
 6858TIP3   OH242132   2.669   2.323   0.068 -0.1985  0.1929  0.0590
 6858TIP3    H142133   2.729   2.361   0.004 -0.1587  2.2198  1.2230
 6858TIP3    H242134   2.718   2.323   0.150 -1.3044  0.5579  0.7354
 6859TIP3   OH242135   4.606   4.875   0.789  0.2402  0.1632 -0.2990
 6859TIP3    H142136   4.605   4.969   0.771  0.8294  0.0481 -0.9850
 6859TIP3    H242137   4.649   4.837   0.713 -0.7941 -0.7560 -0.4507
 6860TIP3   OH242138   6.596   4.569   1.288  0.3008 -0.2177  0.1067
 6860TIP3    H142139   6.678   4.614   1.309 -0.0616  0.3446  0.3388
 6860TIP3    H242140   6.571   4.604   1.203  0.7203 -1.0000 -0.3491
 6861TIP3   OH242141   2.640   6.336   0.604  0.0383 -0.4129  0.1205
 6861TIP3    H142142   2.568   6.387   0.641  0.2311  0.3646 -0.5535
 6861TIP3    H242143   2.642   6.256   0.657 -0.1521  0.3492  1.3162
 6862TIP3   OH242144   5.712   3.519   8.653 -0.0452 -0.1646  0.0211
 6862TIP3    H142145   5.784   3.565   8.610  0.2813 -0.0842  0.6396
 6862TIP3    H242146   5.749   3.488   8.735  0.2773 -3.0979 -1.1185
 6863TIP3   OH242147   2.589   2.926   1.804  0.0222  0.3183 -0.6504
 6863TIP3    H142148   2.613   3.017   1.785 -1.0376  0.7942  0.1654
 6863TIP3    H242149   2.660   2.893   1.859  0.1271  0.8321 -0.4736
 6864TIP3   OH242150   1.029   3.069   8.524 -0.2174 -0.3231  0.0309
 6864TIP3    H142151   1.036   2.977   8.549  1.2951 -0.3000 -0.2401
 6864TIP3    H242152   1.003   3.114   8.605 -0.0270 -0.8685  0.4005
 6865TIP3   OH242153   0.364   2.326   0.160  0.0937  0.4305  0.6016
 6865TIP3    H142154   0.286   2.329   0.215  0.1278  0.0978  0.6688
 6865TIP3    H242155   0.397   2.237   0.169  0.9237  0.7841  1.1952
 6866TIP3   OH242156   3.523   0.187   2.083  0.1157 -0.1483 -0.1616
 6866TIP3    H142157   3.499   0.192   1.990  0.9486 -2.2301 -0.5597
 6866TIP3    H242158   3.500   0.097   2.108 -0.3045  0.4490  1.7297
 6867TIP3   OH242159   1.506   6.408   0.467 -0.1131  0.8070  0.0612
 6867TIP3    H142160   1.583   6.456   0.497  1.9632 -1.0770 -1.8391
 6867TIP3    H242161   1.486   6.446   0.382 -0.2619  0.2379 -0.1635
 6868TIP3   OH242162   1.556   3.503   2.572  0.2027  0.1524 -0.5611
 6868TIP3    H142163   1.532   3.586   2.530  0.1462  0.5179  0.1918
 6868TIP3    H242164   1.547   3.520   2.666 -1.4454 -1.1830 -0.4303
 6869TIP3   OH242165   3.933   4.743   1.257 -0.2578  0.1711 -0.4526
 6869TIP3    H142166   4.022   4.709   1.266  0.0724  0.4987 -2.2832
 6869TIP3    H242167   3.877   4.673   1.293  0.6426 -0.6845 -0.6889
 6870TIP3   OH242168   5.361   2.945   0.172 -0.2486  0.6138 -0.3652
 6870TIP3    H142169   5.352   2.850   0.185  0.1963  0.5411 -0.5744
 6870TIP3    H242170   5.454   2.963   0.189 -0.1850  0.9050 -0.9749
 6871TIP3   OH242171   1.489   3.401   7.698  0.1314 -0.3745 -0.2115
 6871TIP3    H142172   1.531   3.379   7.615 -1.8138  0.3788 -1.4577
 6871TIP3    H242173   1.433   3.326   7.717  0.6687 -0.5997  0.4960
 6872TIP3   OH242174   2.635   5.511   7.181 -0.2516  0.2295 -0.0771
 6872TIP3    H142175   2.693   5.529   7.255 -0.3935  1.7703 -0.3063
 6872TIP3    H242176   2.693   5.503   7.106 -0.0442 -1.9979  0.2419
 6873TIP3   OH242177   3.006   1.652   8.567 -0.1347 -0.2688 -0.0213
 6873TIP3    H142178   3.023   1.683   8.656 -0.4440 -0.0767 -0.0293
 6873TIP3    H242179   2.991   1.732   8.517  2.0063 -0.2138 -0.6761
 6874TIP3   OH242180   5.836   0.032   8.166 -0.2045  0.1049  0.0144
 6874TIP3    H142181   5.901   0.058   8.232 -0.3891 -1.5601  0.9085
 6874TIP3    H242182   5.886  -0.009   8.096 -0.1949 -0.2112  0.2046
 6875TIP3   OH242183   5.469   0.539   1.535  0.8064  0.2306 -0.1127
 6875TIP3    H142184   5.425   0.598   1.596 -0.0677  0.9268 -1.3577
 6875TIP3    H242185   5.427   0.455   1.549 -2.0098  1.1429 -2.1663
 6876TIP3   OH242186   0.094   6.218   1.290  0.1902 -0.0138 -0.1918
 6876TIP3    H142187   0.167   6.246   1.345 -0.1591  0.3901  0.0755
 6876TIP3    H242188   0.113   6.256   1.204  0.7696 -0.6991 -0.3803
 6877TIP3   OH242189   5.722   3.539   1.387  0.7378 -0.2551 -0.2258
 6877TIP3    H142190   5.737   3.612   1.328  3.8472  2.1158  3.0382
 6877TIP3    H242191   5.805   3.491   1.388  0.1110 -1.3851  0.7720
 6878TIP3   OH242192   3.194   3.380   6.966 -0.2747 -0.1003 -0.2898
 6878TIP3    H142193   3.210   3.326   6.889  0.5671 -1.1848  0.6055
 6878TIP3    H242194   3.282   3.405   6.996 -0.5672 -0.1267  0.6120
 6879TIP3   OH242195   2.693   6.757   1.738  0.0637  0.1514 -0.1045
 6879TIP3    H142196   2.732   6.696   1.800 -0.1710 -1.5828 -1.5490
 6879TIP3    H242197   2.760   6.769   1.671 -0.2682  0.6969 -0.3468
 6880TIP3   OH242198   6.000   3.199   7.041 -0.1810 -0.0831 -0.0643
 6880TIP3    H142199   6.032   3.285   7.015 -0.3827 -0.4807 -1.6973
 6880TIP3    H242200   6.074   3.140   7.026  0.5935 -0.0012  2.7517
 6881TIP3   OH242201   0.745   4.279   0.234  0.0706 -0.1937  0.1318
 6881TIP3    H142202   0.791   4.199   0.211 -1.9153 -1.9615  1.9071
 6881TIP3    H242203   0.653   4.261   0.217 -0.5105  1.4878  1.1525
 6882TIP3   OH242204   0.315   0.925   1.875 -0.5527 -0.1818 -0.0126
 6882TIP3    H142205   0.276   0.855   1.822  0.0006  0.8786 -1.9286
 6882TIP3    H242206   0.243   0.955   1.931 -1.4525 -0.7251 -0.8438
 6883TIP3   OH242207   1.990   5.060   8.646  0.2120  0.0295  0.3841
 6883TIP3    H142208   1.942   5.078   8.566  0.2927  1.3602  0.6040
 6883TIP3    H242209   1.923   5.033   8.709 -0.7003  3.7491  1.2677
 6884TIP3   OH242210   0.907   0.248   0.306  0.3999 -0.4435  0.3168
 6884TIP3    H142211   0.814   0.229   0.321  0.4051  0.7384  2.1505
 6884TIP3    H242212   0.946   0.163   0.286 -0.8433 -1.1532  0.7833
 6885TIP3   OH242213   1.675   3.733   8.080  0.1924 -0.3114  0.0348
 6885TIP3    H142214   1.584   3.751   8.102  0.3477  1.4937 -0.6265
 6885TIP3    H242215   1.673   3.706   7.988  0.2708 -0.8854  0.1968
 6886TIP3   OH242216   2.684   3.642   1.345  0.4046  0.0413 -0.4017
 6886TIP3    H142217   2.612   3.579   1.345  0.7986 -0.4238  0.1250
 6886TIP3    H242218   2.760   3.591   1.315  0.6206  0.3983 -0.4690
 6887TIP3   OH242219   6.284   1.738   0.964  0.1550  0.4129 -0.2073
 6887TIP3    H142220   6.353   1.765   0.904 -0.2653  0.1890 -0.7935
 6887TIP3    H242221   6.218   1.807   0.957 -0.3932 -0.1579 -0.8375
 6888TIP3   OH242222   0.621   2.179   8.214  0.0206 -0.2092 -0.1823
 6888TIP3    H142223   0.702   2.143   8.252  0.7521 -1.5003 -2.7325
 6888TIP3    H242224   0.652   2.236   8.144 -1.2760 -0.0348 -0.6264
 6889TIP3   OH242225   6.017   3.220   8.607 -0.6790  0.0065 -0.4644
 6889TIP3    H142226   6.025   3.152   8.541  2.7069  1.8811 -2.2438
 6889TIP3    H242227   6.022   3.302   8.558  1.9564  1.5040  1.9910
 6890TIP3   OH242228   2.861   2.349   8.659  0.1764  0.3629  0.0162
 6890TIP3    H142229   2.956   2.349   8.671  0.0603 -0.9025  1.1843
 6890TIP3    H242230   2.846   2.287   8.589  0.2074  0.7135 -0.3077
 6891TIP3   OH242231   3.980   5.264   2.576  0.0199 -0.6418  0.0065
 6891TIP3    H142232   3.919   5.319   2.626  2.1064  0.9501  0.9744
 6891TIP3    H242233   3.949   5.175   2.589 -0.4600 -0.1439  2.8892
 6892TIP3   OH242234   5.953   1.759   0.859  0.0549  0.2130  0.2380
 6892TIP3    H142235   6.001   1.802   0.929  1.8934  1.4771 -1.6980
 6892TIP3    H242236   5.907   1.829   0.814  0.0288 -0.3879 -0.6894
 6893TIP3   OH242237   5.101   6.388   2.813 -0.0664 -0.1283  0.5130
 6893TIP3    H142238   5.156   6.318   2.777  1.7399  1.2220  0.5165
 6893TIP3    H242239   5.160   6.463   2.822 -2.2793  1.9364 -1.0030
 6894TIP3   OH242240   2.971   3.535   8.358 -0.4914  0.0137  0.1680
 6894TIP3    H142241   2.958   3.622   8.322  2.8054  1.6224  2.4243
 6894TIP3    H242242   2.895   3.521   8.415 -1.1064  1.3423 -0.2761
 6895TIP3   OH242243   0.800   2.867   1.480  0.1900 -0.2476  0.1074
 6895TIP3    H142244   0.734   2.928   1.514  1.0042  0.7414 -0.0368
 6895TIP3    H242245   0.883   2.901   1.514  0.7230 -0.8886 -0.5343
 6896TIP3   OH242246   4.601   3.336   8.269 -0.7776  0.0162 -0.4899
 6896TIP3    H142247   4.622   3.248   8.301  0.1799  0.4663  0.1801
 6896TIP3    H242248   4.540   3.322   8.196  0.8017 -1.3242 -1.6324
 6897TIP3   OH242249   5.981   1.142   8.291  0.4207 -0.0520 -0.2001
 6897TIP3    H142250   5.941   1.078   8.232 -1.4971  1.6445 -0.8826
 6897TIP3    H242251   6.041   1.091   8.345 -1.0524 -2.4157 -0.6374
 6898TIP3   OH242252   5.767   1.657   1.585  0.1649  0.1302 -0.7782
 6898TIP3    H142253   5.688   1.651   1.531  0.4488  1.0512 -1.3185
 6898TIP3    H242254   5.738   1.703   1.664 -0.2258 -1.1251 -0.1459
 6899TIP3   OH242255   5.420   1.545   1.950 -0.6128  0.0670  0.4082
 6899TIP3    H142256   5.344   1.603   1.945 -0.0534  1.0205  2.2317
 6899TIP3    H242257   5.412   1.501   2.034  1.5417  1.2598  1.3209
 6900TIP3   OH242258   3.160   4.546   1.597  0.2752  0.6103  0.7472
 6900TIP3    H142259   3.163   4.484   1.670 -0.2433 -0.6427 -0.2578
 6900TIP3    H242260   3.249   4.583   1.593  0.7883 -0.5466  0.9768
 6901TIP3   OH242261   2.105   2.549   1.981  0.2827 -0.2203  0.4521
 6901TIP3    H142262   2.029   2.498   1.954  1.4452 -1.9303  0.2794
 6901TIP3    H242263   2.102   2.550   2.076  0.6700 -1.3172  0.4879
 6902TIP3   OH242264   6.399   5.351   7.614 -1.0684  0.1185 -0.5885
 6902TIP3    H142265   6.354   5.307   7.541 -0.1834 -0.9404 -0.5181
 6902TIP3    H242266   6.389   5.292   7.688 -1.6528  1.0277  0.0714
 6903TIP3   OH242267   2.970   3.817   7.859  0.0058  0.3748 -0.3289
 6903TIP3    H142268   3.033   3.808   7.930 -0.2431 -0.1330 -0.1700
 6903TIP3    H242269   2.977   3.909   7.832 -0.8169  0.9195  1.1988
 6904TIP3   OH242270   0.425   1.469   2.577 -0.2096 -0.5601 -0.4501
 6904TIP3    H142271   0.467   1.385   2.555  0.8288 -0.6379  1.6076
 6904TIP3    H242272   0.448   1.527   2.505 -0.6058 -1.9171 -1.7165
 6905TIP3   OH242273   0.132   1.814   0.184 -0.2590 -0.2013 -0.7410
 6905TIP3    H142274   0.210   1.761   0.170 -0.4465 -0.5331 -0.5277
 6905TIP3    H242275   0.095   1.827   0.096 -2.1265 -3.3149 -0.5750
 6906TIP3   OH242276   4.312   1.245   0.910  0.0009 -0.0980  0.0085
 6906TIP3    H142277   4.276   1.307   0.973  0.7616 -0.4295  0.7905
 6906TIP3    H242278   4.396   1.283   0.885 -0.6555  0.4534 -1.4721
 6907TIP3   OH242279   2.447   3.175   1.076  0.1793 -0.2613  0.2425
 6907TIP3    H142280   2.505   3.248   1.053  0.3693  0.4762  2.7825
 6907TIP3    H242281   2.497   3.122   1.138 -0.8828 -1.1429  0.3930
 6908TIP3   OH242282   1.035   1.359   1.682 -0.0107 -0.1209 -0.6731
 6908TIP3    H142283   1.114   1.384   1.632  0.7220 -2.6240 -0.8812
 6908TIP3    H242284   0.966   1.415   1.646  0.4499 -1.7708 -4.6783
 6909TIP3   OH242285   0.596   4.707   7.543 -0.4625  0.2837  0.3974
 6909TIP3    H142286   0.548   4.789   7.548  2.0485  1.7923  1.2796
 6909TIP3    H242287   0.635   4.707   7.456  0.4060  0.5583  0.7817
 6910TIP3   OH242288   4.882   4.527   8.132  0.1040 -0.2707  0.0878
 6910TIP3    H142289   4.873   4.570   8.217 -0.9127 -0.4263  0.0739
 6910TIP3    H242290   4.893   4.600   8.070  1.2944 -0.1781  0.3882
 6911TIP3   OH242291   0.749   6.447   8.098 -0.3127 -0.0952  0.1220
 6911TIP3    H142292   0.753   6.525   8.154 -1.0077  0.6582 -0.8533
 6911TIP3    H242293   0.797   6.473   8.019 -0.1241 -0.8421 -0.0125
 6912TIP3   OH242294   5.478   1.429   0.430 -0.5406  0.1461 -0.5579
 6912TIP3    H142295   5.386   1.445   0.410 -0.9055  1.4584  1.7953
 6912TIP3    H242296   5.483   1.430   0.526  2.0092  0.7568 -0.6072
 6913TIP3   OH242297   0.738   4.262   7.196 -0.1878 -0.2177 -0.1526
 6913TIP3    H142298   0.715   4.323   7.127  2.2744 -1.1429 -1.9406
 6913TIP3    H242299   0.761   4.181   7.150  0.5165 -1.2106  1.8248
 6914TIP3   OH242300   6.508   0.380   1.507 -0.3805  0.2663  0.0234
 6914TIP3    H142301   6.446   0.377   1.580  1.0052  0.0763  1.2175
 6914TIP3    H242302   6.569   0.309   1.524 -0.9262 -0.8203 -2.1849
 6915TIP3   OH242303   0.917   3.949   6.872  0.3415 -0.3743 -0.3594
 6915TIP3    H142304   0.961   4.034   6.877  1.7170 -1.1198  1.0337
 6915TIP3    H242305   0.825   3.971   6.858  0.7697  1.3072 -0.8925
 6916TIP3   OH242306   5.114   5.210   0.195 -0.4596  0.4375  0.6396
 6916TIP3    H142307   5.181   5.175   0.253  0.8056  1.5401 -0.1194
 6916TIP3    H242308   5.076   5.283   0.244  0.4371  1.2112  0.2084
 6917TIP3   OH242309   0.231   6.649   1.957 -0.0031  0.2269 -0.1064
 6917TIP3    H142310   0.258   6.713   2.022  0.4420 -0.4631  0.3973
 6917TIP3    H242311   0.310   6.633   1.905 -0.6540  1.7243 -1.6714
 6918TIP3   OH242312   3.018   0.666   8.033  0.2552 -0.2571  0.2212
 6918TIP3    H142313   3.096   0.707   7.995  0.3683  0.6327  1.3373
 6918TIP3    H242314   3.045   0.642   8.122 -1.2258  1.7769  1.3136
 6919TIP3   OH242315   1.031   2.644   1.891  0.1466 -0.2802 -0.1008
 6919TIP3    H142316   1.062   2.560   1.856 -1.6433 -1.0615  0.0915
 6919TIP3    H242317   0.956   2.621   1.945 -1.6081  1.6083 -1.5896
 6920TIP3   OH242318   0.541   0.785   7.093  0.5257  0.0305  0.0036
 6920TIP3    H142319   0.568   0.817   7.180 -1.4286  2.0898 -0.0427
 6920TIP3    H242320   0.450   0.757   7.105  1.0393 -2.1999 -0.8547
 6921TIP3   OH242321   5.089   1.364   1.021  0.3952 -0.4377  0.1320
 6921TIP3    H142322   5.149   1.350   0.948 -0.3882 -0.6621 -0.4850
 6921TIP3    H242323   5.103   1.289   1.079  0.4664 -0.6705 -0.1859
 6922TIP3   OH242324   2.626   6.128   8.770 -0.4011 -0.9495 -0.3561
 6922TIP3    H142325   2.589   6.149   8.685 -0.6735  1.4455  0.2956
 6922TIP3    H242326   2.550   6.108   8.825 -0.4594  0.1936 -0.0014
 6923TIP3   OH242327   1.622   1.870   8.364  0.1433  0.3402  0.1500
 6923TIP3    H142328   1.572   1.897   8.287 -2.0790 -0.3670  1.2855
 6923TIP3    H242329   1.714   1.880   8.337 -0.5653  1.0419 -2.2345
 6924TIP3   OH242330   0.708   3.456   2.994 -0.2029  0.1768 -0.3768
 6924TIP3    H142331   0.706   3.437   3.088  0.7914  0.3967 -0.3065
 6924TIP3    H242332   0.801   3.461   2.972 -0.4028  2.0855 -0.9786
 6925TIP3   OH242333   1.938   3.044   2.101 -0.0346 -0.0174 -0.6685
 6925TIP3    H142334   1.960   2.954   2.078 -0.6370 -0.0246 -1.2555
 6925TIP3    H242335   2.022   3.091   2.097  0.0692 -0.2643 -1.7661
 6926TIP3   OH242336   6.595   2.955   7.636 -0.3902 -0.1608  0.1668
 6926TIP3    H142337   6.572   2.890   7.703  0.9429 -1.9450 -1.0104
 6926TIP3    H242338   6.593   2.907   7.554  1.1998  1.1521 -0.7050
 6927TIP3   OH242339   1.603   0.018   8.355  0.0559  0.1546 -0.9628
 6927TIP3    H142340   1.667  -0.034   8.306  0.6240  1.8416 -2.1181
 6927TIP3    H242341   1.586   0.093   8.298 -0.2236  1.5640  0.8991
 6928TIP3   OH242342   0.613   6.759   0.078 -0.8078 -0.3249  0.0368
 6928TIP3    H142343   0.579   6.670   0.079 -0.1614 -0.6230 -1.2988
 6928TIP3    H242344   0.537   6.814   0.092 -1.1353 -1.0844  1.4484
 6929TIP3   OH242345   6.674   1.626   1.716 -0.0081 -0.6388 -0.4241
 6929TIP3    H142346   6.701   1.682   1.644 -1.4586  1.3149  0.4685
 6929TIP3    H242347   6.580   1.613   1.702 -0.2814 -0.3388  1.0151
 6930TIP3   OH242348   1.115   3.300   0.344  0.0732 -0.3139  0.2855
 6930TIP3    H142349   1.142   3.358   0.415 -1.7301  1.9015 -0.7184
 6930TIP3    H242350   1.030   3.266   0.372 -0.1252 -0.3282 -0.3163
 6931TIP3   OH242351   5.085   0.926   1.007  0.3038 -0.0527 -0.1292
 6931TIP3    H142352   5.079   0.992   1.076  0.4383  2.9455 -2.7799
 6931TIP3    H242353   5.019   0.860   1.031 -0.0922  1.1804  2.4868
 6932TIP3   OH242354   4.696   5.047   8.379  0.3252 -0.0691  0.2852
 6932TIP3    H142355   4.698   5.072   8.471  2.3868 -1.2310  0.6252
 6932TIP3    H242356   4.666   5.125   8.333 -1.1760  0.3847  1.9595
 6933TIP3   OH242357   1.072   4.260   1.692 -0.1169  0.2530  0.7786
 6933TIP3    H142358   1.000   4.210   1.654 -0.7368  2.1432 -0.7087
 6933TIP3    H242359   1.114   4.302   1.617  3.0757 -1.3467  1.4898
 6934TIP3   OH242360   5.364   5.261   2.111  0.2300  0.7610 -0.4084
 6934TIP3    H142361   5.277   5.249   2.073  0.2984  1.5450 -0.8423
 6934TIP3    H242362   5.370   5.194   2.179 -1.1059  1.3436  0.3263
 6935TIP3   OH242363   3.004   5.809   2.722  0.0616  0.4376 -0.0196
 6935TIP3    H142364   2.971   5.805   2.632  0.3415  1.0260 -0.1555
 6935TIP3    H242365   2.944   5.870   2.766  0.5288  0.9495 -0.0802
 6936TIP3   OH242366   4.766   3.305   8.713  0.1950  0.2878 -0.6780
 6936TIP3    H142367   4.725   3.357   8.643  2.4219  1.7112 -1.0216
 6936TIP3    H242368   4.695   3.290   8.775 -0.9115  2.5840 -1.2383
 6937TIP3   OH242369   4.864   0.775   2.315  1.1292 -0.3849 -0.5612
 6937TIP3    H142370   4.868   0.779   2.411  1.1832 -0.8188 -0.5449
 6937TIP3    H242371   4.772   0.763   2.295  1.0881 -0.0611 -0.5742
 6938TIP3   OH242372   1.874   3.065   1.617 -0.2992 -0.6972  0.0549
 6938TIP3    H142373   1.957   3.099   1.653  0.1548 -1.1914 -0.5075
 6938TIP3    H242374   1.901   3.009   1.544 -1.1944  0.1095 -0.9189
 6939TIP3   OH242375   0.918   1.443   1.342  0.3414  0.1686 -0.2840
 6939TIP3    H142376   0.919   1.502   1.417  0.4747  1.0030 -0.9292
 6939TIP3    H242377   0.836   1.394   1.351  0.3742  0.2393  0.4165
 6940TIP3   OH242378   6.243   1.187   1.894  0.0376 -0.8387  0.2716
 6940TIP3    H142379   6.278   1.241   1.823  0.4375  0.8492  1.6732
 6940TIP3    H242380   6.305   1.200   1.967 -2.6580  1.2391  2.4236
 6941TIP3   OH242381   3.209   1.921   8.666  0.4994  0.0371 -0.8457
 6941TIP3    H142382   3.269   1.995   8.656  1.4567 -0.5511  0.3951
 6941TIP3    H242383   3.163   1.917   8.582 -0.2416  2.5831 -0.6633
 6942TIP3   OH242384   0.286   2.610   6.976  0.9004 -0.3433 -0.0777
 6942TIP3    H142385   0.380   2.615   6.996  0.7460 -1.1623  0.9602
 6942TIP3    H242386   0.256   2.533   7.025 -0.6592  0.9164  1.0213
 6943TIP3   OH242387   0.296   0.421   8.710 -0.2278 -0.6140  0.1548
 6943TIP3    H142388   0.323   0.466   8.630  0.1805 -1.5699 -0.2617
 6943TIP3    H242389   0.272   0.491   8.770 -2.7611  0.1118 -1.5514
 6944TIP3   OH242390   0.885   0.913   1.390 -0.3570  0.1029  0.5534
 6944TIP3    H142391   0.883   0.839   1.329  0.7671  1.4965 -1.3120
 6944TIP3    H242392   0.970   0.906   1.433  0.4333  1.0715 -0.7523
 6945TIP3   OH242393   6.369   3.566   8.780 -0.1768  0.4207 -0.4466
 6945TIP3    H142394   6.297   3.530   8.832 -1.6989  3.8056  0.0488
 6945TIP3    H242395   6.351   3.537   8.690  0.4525 -2.4669  0.2681
 6946TIP3   OH242396   5.914   2.081   7.522 -0.2973  0.2019  0.7246
 6946TIP3    H142397   5.821   2.096   7.541 -0.3881 -0.6418  1.0059
 6946TIP3    H242398   5.949   2.167   7.501 -1.1766  0.5080  0.4856
 6947TIP3   OH242399   1.518   1.923   1.455  0.6584 -0.8789  0.5969
 6947TIP3    H142400   1.450   1.984   1.428  0.3800 -0.3090  2.4824
 6947TIP3    H242401   1.594   1.947   1.401  0.6187  1.3044  1.4174
 6948TIP3   OH242402   5.758   1.983   0.728 -0.2016  0.2768  0.6859
 6948TIP3    H142403   5.779   2.062   0.678  1.2524 -0.9426 -0.7649
 6948TIP3    H242404   5.680   1.947   0.686 -0.1766  0.3352  0.5889
 6949TIP3   OH242405   6.330   2.903   0.572  0.4765  0.0763 -0.2022
 6949TIP3    H142406   6.324   2.931   0.663  0.8895  2.2388 -0.7854
 6949TIP3    H242407   6.424   2.905   0.553  0.3486  0.3083 -0.8485
 6950TIP3   OH242408   5.633   1.939   7.587 -0.2532 -0.2517  0.0427
 6950TIP3    H142409   5.651   2.018   7.638 -1.2117 -0.0164  0.0411
 6950TIP3    H242410   5.689   1.947   7.510  1.0873 -0.5322  0.9534
 6951TIP3   OH242411   0.438   6.067   1.359  0.0695 -0.3343  0.3459
 6951TIP3    H142412   0.357   6.024   1.388  0.4122 -0.2719  1.4643
 6951TIP3    H242413   0.408   6.138   1.303 -0.4561 -2.8783 -2.8552
 6952TIP3   OH242414   2.380   1.246   8.645  0.2023  0.3163 -0.7434
 6952TIP3    H142415   2.458   1.223   8.595  0.2301 -1.9346  0.2247
 6952TIP3    H242416   2.414   1.268   8.732 -0.2419 -2.5416  0.2776
 6953TIP3   OH242417   0.946   0.382   2.739  0.0657 -0.3134 -0.0260
 6953TIP3    H142418   0.916   0.457   2.688 -1.2136 -0.3826  0.5864
 6953TIP3    H242419   0.948   0.414   2.829 -1.8013 -1.3419  0.4397
 6954TIP3   OH242420   0.568   2.170   0.744  0.2110  0.5996  0.1988
 6954TIP3    H142421   0.577   2.252   0.793 -1.7726 -0.7566  3.1555
 6954TIP3    H242422   0.476   2.169   0.716  0.4933 -0.1496 -0.7524
 6955TIP3   OH242423   0.109   0.204   0.600 -0.0699 -0.5759  0.0364
 6955TIP3    H142424   0.044   0.273   0.589 -0.0023 -0.6192 -0.6823
 6955TIP3    H242425   0.154   0.226   0.682 -0.7730 -0.3743  0.3772
 6956TIP3   OH242426   3.551   3.330   2.969 -0.4597 -0.3445 -0.2959
 6956TIP3    H142427   3.498   3.287   3.036  0.6453 -1.8257 -0.3245
 6956TIP3    H242428   3.528   3.285   2.887 -0.0691 -0.1529 -0.5148
 6957TIP3   OH242429   3.378   1.936   7.534 -0.1549  0.4134  0.3879
 6957TIP3    H142430   3.292   1.899   7.515  1.2077 -2.5564 -0.7220
 6957TIP3    H242431   3.399   1.990   7.457 -0.9696  1.0581  0.6154
 6958TIP3   OH242432   0.391   2.903   8.410 -0.3986 -1.1903 -0.5611
 6958TIP3    H142433   0.479   2.868   8.398 -0.4552 -0.8621 -2.2961
 6958TIP3    H242434   0.346   2.882   8.328 -1.5795 -0.3328 -0.1650
 6959TIP3   OH242435   2.974   2.873   8.331  0.4022  0.2092 -0.0992
 6959TIP3    H142436   2.940   2.942   8.389 -0.4706  0.3919 -0.8032
 6959TIP3    H242437   3.012   2.808   8.391 -0.2450  0.5182  0.6709
 6960TIP3   OH242438   1.723   6.267   1.072 -0.3775 -0.2883 -0.2018
 6960TIP3    H142439   1.738   6.230   0.984  2.3684  0.4629 -0.1494
 6960TIP3    H242440   1.811   6.275   1.109 -1.4640 -0.7005  2.7163
 6961TIP3   OH242441   2.086   1.161   2.344 -0.1054  0.5771 -0.0713
 6961TIP3    H142442   2.095   1.255   2.326 -0.2434  0.5794 -0.1275
 6961TIP3    H242443   2.176   1.130   2.355 -0.0866  0.8401  0.5778
 6962TIP3   OH242444   6.443   1.399   2.318  0.5624  0.4859 -0.7918
 6962TIP3    H142445   6.370   1.460   2.330 -0.0492  0.3457 -3.3250
 6962TIP3    H242446   6.521   1.453   2.327  0.0568  1.3766 -1.5250
 6963TIP3   OH242447   2.143   3.253   0.037  0.4654 -0.0603  0.2369
 6963TIP3    H142448   2.191   3.174   0.011 -1.2721 -0.8780 -0.6559
 6963TIP3    H242449   2.086   3.273  -0.038 -0.1701  1.1852  1.0170
 6964TIP3   OH242450   0.687   2.943   7.727 -0.4930  0.5148  0.0069
 6964TIP3    H142451   0.648   3.019   7.682  0.3607  1.0313  0.1161
 6964TIP3    H242452   0.781   2.961   7.727  0.0389 -1.6717 -2.1058
 6965TIP3   OH242453   5.139   6.057   0.682 -0.0374  0.4385  0.0302
 6965TIP3    H142454   5.055   6.055   0.636 -0.5496  3.0543  0.6639
 6965TIP3    H242455   5.193   5.992   0.638 -0.7310  2.2036 -3.7587
 6966TIP3   OH242456   0.674   1.562   1.870 -0.2627  0.8500 -0.1129
 6966TIP3    H142457   0.620   1.570   1.948 -1.1721 -0.1428 -0.6178
 6966TIP3    H242458   0.761   1.539   1.903 -0.3258  1.6462  0.6556
 6967TIP3   OH242459   1.616   6.470   7.929 -0.0838  0.2566 -0.2061
 6967TIP3    H142460   1.668   6.390   7.918 -2.2707 -1.0829 -1.5113
 6967TIP3    H242461   1.609   6.506   7.841  0.1392  1.4219  0.2394
 6968TIP3   OH242462   2.074   1.710   1.959 -0.4546  0.4994  0.5486
 6968TIP3    H142463   2.033   1.757   1.886 -0.1513  0.2340  0.2072
 6968TIP3    H242464   2.000   1.674   2.008 -0.6617 -1.6636 -1.1612
 6969TIP3   OH242465   3.090   4.762   2.262 -0.0979  0.3333  0.3569
 6969TIP3    H142466   3.144   4.705   2.208  0.0929  2.1834 -1.5033
 6969TIP3    H242467   3.153   4.820   2.306 -0.3367 -0.3694  1.7068
 6970TIP3   OH242468   0.104   2.412   0.577 -0.0214 -0.5057  0.0550
 6970TIP3    H142469   0.092   2.358   0.499  1.4105 -0.5103 -0.1844
 6970TIP3    H242470   0.178   2.469   0.556 -3.0874  3.6439 -0.8361
 6971TIP3   OH242471   6.482   2.167   8.089  0.4938 -0.2016 -0.1087
 6971TIP3    H142472   6.523   2.128   8.166  0.3269  0.8683  0.5391
 6971TIP3    H242473   6.457   2.092   8.035  2.3279 -0.9188 -0.0453
 6972TIP3   OH242474   2.935   4.078   1.176 -0.2288 -0.2140  0.2111
 6972TIP3    H142475   2.985   4.031   1.110  1.1894  1.7594 -0.1798
 6972TIP3    H242476   2.864   4.017   1.199  1.1122 -2.2466 -0.7213
 6973TIP3   OH242477   6.774   2.091   6.911 -0.1551  0.0072  0.0522
 6973TIP3    H142478   6.700   2.050   6.865  0.1659  1.7610 -2.1590
 6973TIP3    H242479   6.755   2.184   6.910  2.3187  0.5631 -1.0343
 6974TIP3   OH242480   4.025   1.025   7.115  0.3937  0.1760  0.1793
 6974TIP3    H142481   3.934   1.053   7.115  0.6113  0.9269 -0.4558
 6974TIP3    H242482   4.024   0.941   7.070  0.1256  0.6234 -0.6806
 6975TIP3   OH242483   2.098   0.772   0.436  0.6448  0.7905 -0.6881
 6975TIP3    H142484   2.173   0.758   0.378  1.0632  0.5499 -0.0980
 6975TIP3    H242485   2.126   0.841   0.496  0.6906  0.1880  0.0127
 6976TIP3   OH242486   6.207   3.719   1.630  0.5161 -0.3056 -0.1420
 6976TIP3    H142487   6.230   3.744   1.540  0.0329  0.1764 -0.1373
 6976TIP3    H242488   6.244   3.632   1.641  2.7277  0.5843  0.0080
 6977TIP3   OH242489   0.695   1.782   1.692  0.3415 -0.0786 -0.2996
 6977TIP3    H142490   0.602   1.802   1.694  0.2524 -0.4943 -0.2072
 6977TIP3    H242491   0.707   1.713   1.758  0.9194  0.8040  0.5425
 6978TIP3   OH242492   6.073   6.275   0.795  0.4937  0.2995 -0.0144
 6978TIP3    H142493   6.080   6.310   0.884 -0.7527  0.6160 -0.0297
 6978TIP3    H242494   5.980   6.276   0.776  0.4528 -2.2811 -0.3368
 6979TIP3   OH242495   4.105   0.478   2.868 -0.3029  0.2310  0.0354
 6979TIP3    H142496   4.022   0.434   2.884 -1.0722  1.3704 -0.7120
 6979TIP3    H242497   4.087   0.540   2.797  1.1533  0.5915 -0.0666
 6980TIP3   OH242498   1.588   4.201   7.357 -0.1331 -0.6633  0.2015
 6980TIP3    H142499   1.536   4.196   7.277 -1.2058 -1.9614  0.9458
 6980TIP3    H242500   1.619   4.111   7.370 -1.6449 -0.9392  2.3006
 6981TIP3   OH242501   0.250   1.404   1.264  0.2617 -0.0872  0.2181
 6981TIP3    H142502   0.235   1.310   1.274  1.8497 -0.4478 -0.3877
 6981TIP3    H242503   0.343   1.415   1.285 -0.1122  1.5002  1.1846
 6982TIP3   OH242504   1.019   2.959   1.604 -0.5465  0.6896  0.4237
 6982TIP3    H142505   1.109   2.961   1.636  0.5814 -1.6651 -2.2246
 6982TIP3    H242506   1.011   3.038   1.550  0.8922 -0.3342 -1.4019
 6983TIP3   OH242507   6.811   1.834   8.055  0.3364 -0.1333  0.2424
 6983TIP3    H142508   6.899   1.801   8.037  0.0370 -1.1992  0.6667
 6983TIP3    H242509   6.753   1.777   8.005 -0.0925  0.9916 -0.5857
 6984TIP3   OH242510   5.765   0.640   6.530  0.0783  0.1128 -1.0977
 6984TIP3    H142511   5.799   0.557   6.497 -2.3004 -0.2720 -2.9140
 6984TIP3    H242512   5.673   0.641   6.501 -0.2183  2.9916 -0.3693
 6985TIP3   OH242513   1.121   2.903   3.063  0.3407  0.2870 -0.1526
 6985TIP3    H142514   1.178   2.954   3.120  1.0478 -1.4611  0.7588
 6985TIP3    H242515   1.034   2.911   3.104  0.3437  1.1409 -0.2967
 6986TIP3   OH242516   2.071   4.772   3.200 -0.0863 -0.5924 -0.4687
 6986TIP3    H142517   2.147   4.830   3.205 -0.6100  0.1246 -0.5676
 6986TIP3    H242518   1.996   4.831   3.209 -0.6584 -1.1649 -1.3129
 6987TIP3   OH242519   4.668   1.891   0.863  0.1472 -0.1304 -0.5949
 6987TIP3    H142520   4.742   1.835   0.838  0.1254  0.1020 -1.1996
 6987TIP3    H242521   4.665   1.958   0.795 -2.1173 -1.4869 -1.9547
 6988TIP3   OH242522   0.805   0.583   0.470 -0.5259 -0.0221  0.0768
 6988TIP3    H142523   0.756   0.518   0.521  1.6541 -1.4553  0.4742
 6988TIP3    H242524   0.792   0.665   0.517 -0.7986 -0.7858  1.3731
 6989TIP3   OH242525   6.178   1.826   6.615  0.3844  0.0244 -0.2517
 6989TIP3    H142526   6.180   1.760   6.684  1.8651  0.7151  0.4125
 6989TIP3    H242527   6.269   1.832   6.585  0.1126  1.1083 -0.9096
 6990TIP3   OH242528   5.117   5.579   2.976  0.6813  0.0344 -0.2421
 6990TIP3    H142529   5.143   5.656   2.924  0.1542 -0.3130 -1.0384
 6990TIP3    H242530   5.162   5.591   3.060 -0.5367  1.9506  0.1903
 6991TIP3   OH242531   5.815   5.114   2.004  0.5658  0.3010  0.0458
 6991TIP3    H142532   5.776   5.026   2.009  0.9147  0.2044  1.8728
 6991TIP3    H242533   5.908   5.100   2.023  0.6458  1.0506  0.2270
 6992TIP3   OH242534   0.115   2.276   7.784 -0.3435  0.4886  0.3513
 6992TIP3    H142535   0.150   2.336   7.849 -0.3030  2.8439 -1.6791
 6992TIP3    H242536   0.038   2.321   7.749 -2.0730 -1.9727  0.6768
 6993TIP3   OH242537   6.449   5.243   1.679 -0.1568 -0.0009 -0.7987
 6993TIP3    H142538   6.460   5.189   1.600 -0.9241 -0.6472 -0.4829
 6993TIP3    H242539   6.416   5.326   1.646  0.3615  0.0441 -1.2335
 6994TIP3   OH242540   6.291   0.860   2.415 -0.0756 -0.0072 -0.6710
 6994TIP3    H142541   6.326   0.872   2.504  0.2609 -0.4357 -0.7431
 6994TIP3    H242542   6.219   0.798   2.426 -1.1909  1.2645 -0.4434
 6995TIP3   OH242543   6.123   6.337   2.390  0.1413 -0.0256 -0.0753
 6995TIP3    H142544   6.174   6.372   2.317 -3.2876  1.2914 -2.1161
 6995TIP3    H242545   6.090   6.415   2.435  0.6476 -0.8266  1.7736
 6996TIP3   OH242546   3.942   3.539   2.780 -0.3388 -0.5280 -0.6647
 6996TIP3    H142547   4.002   3.536   2.705 -0.0204  1.1401 -0.5165
 6996TIP3    H242548   3.925   3.632   2.793 -3.1770 -0.9209 -0.8543
 6997TIP3   OH242549   2.233   4.954   0.867  0.0630  0.1442  0.4234
 6997TIP3    H142550   2.161   5.006   0.902 -1.0449  0.2188 -1.8082
 6997TIP3    H242551   2.312   4.991   0.907 -0.9487  1.5226  1.2125
 6998TIP3   OH242552   3.890   4.123   7.303  0.0073  0.2461 -0.7090
 6998TIP3    H142553   3.906   4.031   7.320  2.7537  0.8968  0.6964
 6998TIP3    H242554   3.838   4.153   7.378 -0.0367  0.0798 -0.6720
 6999TIP3   OH242555   4.672   6.236   7.789  0.2046  0.1196  0.2126
 6999TIP3    H142556   4.692   6.144   7.801  1.1633 -0.0271 -2.1166
 6999TIP3    H242557   4.642   6.243   7.699 -1.6377  1.8238  0.8876
 7000TIP3   OH242558   5.922   0.521   7.185 -0.8284 -0.2146  0.2298
 7000TIP3    H142559   5.989   0.516   7.117 -1.2232  1.4317 -0.3301
 7000TIP3    H242560   5.946   0.599   7.236 -1.1888 -0.7642  1.2666
 7001TIP3   OH242561   2.830   6.051   2.319 -0.6700 -0.1447  0.3141
 7001TIP3    H142562   2.918   6.052   2.281 -0.4363  0.6871  0.8501
 7001TIP3    H242563   2.773   6.080   2.249 -0.4112  0.0877  0.1967
 7002TIP3   OH242564   6.814   6.195   2.540  0.1863  0.2224 -0.2450
 7002TIP3    H142565   6.785   6.202   2.631  0.9354 -1.1427  0.1202
 7002TIP3    H242566   6.862   6.113   2.536 -0.1864  0.0404 -1.9782
 7003TIP3   OH242567   1.362   0.536   8.136 -0.2804 -0.8150  0.3904
 7003TIP3    H142568   1.404   0.494   8.211  0.2395 -1.2659 -0.1416
 7003TIP3    H242569   1.411   0.618   8.124  1.2753 -1.8953 -0.9690
 7004TIP3   OH242570   0.429   1.861   1.629  0.3398 -0.3404  0.4363
 7004TIP3    H142571   0.442   1.814   1.547  2.2347  2.7368 -1.2111
 7004TIP3    H242572   0.334   1.866   1.639  0.0764 -1.2701 -1.2811
 7005TIP3   OH242573   2.043   2.672   0.693 -0.5664 -0.5957  0.1531
 7005TIP3    H142574   1.967   2.617   0.714 -0.5424 -0.1227  1.5081
 7005TIP3    H242575   2.119   2.616   0.711 -0.5535 -0.3085  1.0140
 7006TIP3   OH242576   5.105   4.026   7.732 -0.8262  0.0254  0.1245
 7006TIP3    H142577   5.095   4.112   7.690 -1.4859 -0.2446 -0.2728
 7006TIP3    H242578   5.136   4.047   7.820  0.7514  0.6019 -0.5124
 7007TIP3   OH242579   0.421   6.118   8.751  0.4142 -0.1281 -0.0983
 7007TIP3    H142580   0.440   6.200   8.706 -1.4275  0.4102  0.0269
 7007TIP3    H242581   0.503   6.069   8.747  0.7960  0.5764 -2.5562
 7008TIP3   OH242582   0.160   3.891   2.251 -0.2982  0.3619 -0.0138
 7008TIP3    H142583   0.181   3.803   2.283 -0.2422 -1.2797 -3.9344
 7008TIP3    H242584   0.088   3.920   2.306 -0.8946 -2.5395  0.9122
 7009TIP3   OH242585   5.199   5.026   7.845  0.8584 -0.2226  0.0992
 7009TIP3    H142586   5.292   5.020   7.864  0.9453 -1.0822 -0.5384
 7009TIP3    H242587   5.189   5.107   7.795  1.2972 -0.2263  0.0048
 7010TIP3   OH242588   5.458   5.383   0.034  0.1213 -0.6473 -0.0482
 7010TIP3    H142589   5.429   5.415  -0.051 -3.2343  0.5609  1.3485
 7010TIP3    H242590   5.537   5.432   0.054 -0.0225  0.3296 -1.7359
 7011TIP3   OH242591   4.585   0.087   7.570  0.5285 -0.1836  0.3180
 7011TIP3    H142592   4.599   0.107   7.663  1.5590  0.7153 -0.0043
 7011TIP3    H242593   4.653   0.137   7.525 -2.1996  2.3688 -1.2267
 7012TIP3   OH242594   2.210   0.143   1.688 -1.1818 -0.2150  0.3975
 7012TIP3    H142595   2.268   0.068   1.701 -1.2586 -0.0855  1.6016
 7012TIP3    H242596   2.125   0.113   1.718 -1.3286  0.1987  0.4037
 7013TIP3   OH242597   6.120   6.327   7.807  0.5312  0.2362 -0.1763
 7013TIP3    H142598   6.045   6.342   7.749  0.7398 -1.6840 -1.0017
 7013TIP3    H242599   6.097   6.247   7.855  0.3972  1.6954  2.4102
 7014TIP3   OH242600   3.043   1.434   0.252  0.3755 -0.0178 -0.3099
 7014TIP3    H142601   2.989   1.408   0.177  0.5076  2.1363 -1.2201
 7014TIP3    H242602   3.127   1.390   0.238 -0.7978 -2.7878  0.7206
 7015TIP3   OH242603   1.216   4.569   0.761 -0.2051  0.6046  0.2911
 7015TIP3    H142604   1.258   4.499   0.810 -0.7629 -0.1615 -0.3160
 7015TIP3    H242605   1.262   4.571   0.677  1.4922  2.6343  1.1507
 7016TIP3   OH242606   2.204   1.113   0.191  0.3790 -0.5195 -0.1061
 7016TIP3    H142607   2.271   1.051   0.162  2.8318  1.2608  1.3215
 7016TIP3    H242608   2.183   1.086   0.280  0.4924 -0.0803  0.0569
 7017TIP3   OH242609   2.690   0.531   8.549  0.3621  0.1287  0.9249
 7017TIP3    H142610   2.595   0.531   8.533  0.5999  0.2389 -0.6941
 7017TIP3    H242611   2.705   0.456   8.607 -0.7790  0.5030  1.7344
 7018TIP3   OH242612   5.630   0.920   0.484 -0.3374  0.6357  0.5529
 7018TIP3    H142613   5.633   1.011   0.454  0.2363  0.2986 -0.4648
 7018TIP3    H242614   5.627   0.926   0.579  2.3420  1.6988  0.6540
 7019TIP3   OH242615   5.194   3.957   0.503 -0.0725  0.1551  0.8025
 7019TIP3    H142616   5.127   4.014   0.542 -0.6017  0.5150 -0.5855
 7019TIP3    H242617   5.158   3.932   0.418  1.2835 -0.1721  0.3017
 7020TIP3   OH242618   5.288   0.933   0.562  0.4456 -0.2598  0.3494
 7020TIP3    H142619   5.285   1.029   0.559  0.1624 -0.2731  0.1144
 7020TIP3    H242620   5.307   0.912   0.653  5.6678  0.0990 -0.3706
 7021TIP3   OH242621   3.502   0.159   6.995  0.6389  0.3917  0.2812
 7021TIP3    H142622   3.569   0.220   7.027  1.7870 -0.1170 -1.0095
 7021TIP3    H242623   3.419   0.204   7.011  1.4092  2.0038  0.0270
 7022TIP3   OH242624   2.864   1.712   0.031 -0.5664  0.2766 -0.2833
 7022TIP3    H142625   2.842   1.620   0.016  0.3755 -0.0230  0.0737
 7022TIP3    H242626   2.788   1.761  -0.001 -0.6144 -0.5675 -1.5225
 7023TIP3   OH242627   1.526   1.112   7.580 -0.2669  0.4778 -0.4866
 7023TIP3    H142628   1.503   1.193   7.625  2.6605  1.8441 -1.1914
 7023TIP3    H242629   1.564   1.057   7.648 -2.4369 -0.4574  0.0325
 7024TIP3   OH242630   5.104   0.254   0.484 -0.5161 -0.4841 -0.9664
 7024TIP3    H142631   5.079   0.240   0.576  0.5342 -0.0370 -0.6013
 7024TIP3    H242632   5.143   0.172   0.456 -0.0146 -0.3320 -0.7271
 7025TIP3   OH242633   0.317   6.185   8.444  0.0385 -0.3034 -0.3061
 7025TIP3    H142634   0.243   6.148   8.492  0.7122 -1.5833 -0.2080
 7025TIP3    H242635   0.342   6.263   8.494 -1.7882  0.6808 -0.8442
 7026TIP3   OH242636   2.870   3.210   6.819 -1.0896 -0.0069  0.1341
 7026TIP3    H142637   2.821   3.142   6.864 -0.3977 -0.5256  0.1084
 7026TIP3    H242638   2.816   3.231   6.742 -2.0594  0.5725  0.9370
 7027TIP3   OH242639   1.107   3.965   1.201 -0.0202 -0.1016 -0.1550
 7027TIP3    H142640   1.114   4.043   1.255 -1.7307  0.1844 -0.2790
 7027TIP3    H242641   1.181   3.910   1.228  0.4950  1.0274  0.8090
 7028TIP3   OH242642   1.294   0.846   0.648 -0.2449  0.1419 -0.4475
 7028TIP3    H142643   1.307   0.793   0.570  2.9286  1.5898 -1.0594
 7028TIP3    H242644   1.258   0.929   0.616 -2.7276 -0.5939  0.2030
 7029TIP3   OH242645   6.366   0.026   1.383 -0.6190 -0.1753 -0.4069
 7029TIP3    H142646   6.271   0.028   1.369 -0.7357 -0.5941  0.3202
 7029TIP3    H242647   6.377   0.017   1.477  0.1549  0.5419 -0.4098
 7030TIP3   OH242648   6.384   1.890   1.263  0.0469 -0.9056 -0.0025
 7030TIP3    H142649   6.380   1.907   1.357  0.1576 -0.7649 -0.0229
 7030TIP3    H242650   6.330   1.960   1.225 -3.4035 -3.2088  0.2138
 7031TIP3   OH242651   5.278   4.030   1.430  0.1893  0.2546 -0.4676
 7031TIP3    H142652   5.253   3.984   1.350 -0.8564  0.4612 -0.2697
 7031TIP3    H242653   5.202   4.022   1.488  1.0533 -0.1936  0.6490
 7032TIP3   OH242654   6.633   6.245   1.177  0.4937  0.6860 -0.5054
 7032TIP3    H142655   6.697   6.210   1.115  0.1366 -1.3322  0.1729
 7032TIP3    H242656   6.575   6.298   1.124  0.8970 -0.0124 -1.6989
 7033TIP3   OH242657   1.983   4.639   7.884  0.5526 -0.0325  0.3218
 7033TIP3    H142658   1.954   4.683   7.804  2.5946 -0.4392 -0.7364
 7033TIP3    H242659   1.976   4.706   7.952 -1.3591  0.2867 -0.1301
 7034TIP3   OH242660   0.490   2.312   2.095 -0.6154 -0.4526  0.1457
 7034TIP3    H142661   0.457   2.295   2.183 -1.3925  0.3198  0.0260
 7034TIP3    H242662   0.563   2.252   2.084 -0.2436 -0.2627  1.4692
 7035TIP3   OH242663   3.512   6.166   2.243 -0.1402  0.0009 -0.0871
 7035TIP3    H142664   3.487   6.176   2.334 -1.5015 -0.5179 -0.3865
 7035TIP3    H242665   3.510   6.254   2.207  0.4281  0.2103  0.3688
 7036TIP3   OH242666   3.935   2.734   1.585 -0.0520  0.4291  0.2133
 7036TIP3    H142667   3.993   2.661   1.566  2.1133  2.1336 -0.0461
 7036TIP3    H242668   3.952   2.797   1.516 -2.2280  1.0440  0.1573
 7037TIP3   OH242669   3.877   3.862   8.145 -0.1645 -0.0714 -0.0796
 7037TIP3    H142670   3.938   3.911   8.200  0.9063 -0.9749 -0.4177
 7037TIP3    H242671   3.884   3.772   8.176 -1.9950 -0.0562  0.4427
 7038TIP3   OH242672   6.671   4.034   0.189 -0.4102  0.0664  0.7481
 7038TIP3    H142673   6.740   3.983   0.147  1.4877  1.8827  1.4999
 7038TIP3    H242674   6.646   4.099   0.124 -2.8569 -1.6557 -0.2224
 7039TIP3   OH242675   0.430   4.182   0.738  0.3301  0.4996 -0.0811
 7039TIP3    H142676   0.379   4.152   0.814  1.2239 -0.7148  0.0726
 7039TIP3    H242677   0.465   4.267   0.764 -2.2778  1.7929 -0.5120
 7040TIP3   OH242678   0.268   5.310   7.956  0.4300  0.6787 -0.0909
 7040TIP3    H142679   0.188   5.283   7.911  0.0326 -0.7664  1.4100
 7040TIP3    H242680   0.281   5.400   7.928 -0.2329  0.1289 -2.4485
 7041TIP3   OH242681   3.845   4.770   7.871  0.0257  0.0419 -0.5670
 7041TIP3    H142682   3.749   4.764   7.873 -0.1400  1.8404 -0.7571
 7041TIP3    H242683   3.871   4.767   7.963 -0.3640  0.9187 -0.4086
 7042TIP3   OH242684   0.300   3.114   7.838 -0.1764  0.0038 -0.4973
 7042TIP3    H142685   0.295   3.187   7.776 -0.3844 -0.1986 -0.7237
 7042TIP3    H242686   0.287   3.154   7.924 -0.0019  0.2712 -0.5949
 7043TIP3   OH242687   0.866   0.058   0.857  0.4097  0.5048  0.4883
 7043TIP3    H142688   0.868  -0.009   0.789 -0.6394  0.0858  0.8559
 7043TIP3    H242689   0.818   0.018   0.929  3.1582  0.1772  2.3200
 7044TIP3   OH242690   4.417   0.081   8.136  0.0344 -0.2820 -0.2298
 7044TIP3    H142691   4.483   0.146   8.109 -0.8711  1.1146  0.7673
 7044TIP3    H242692   4.464  -0.003   8.133  1.0378  0.2658 -2.2959
 7045TIP3   OH242693   2.022   1.876   0.968  0.1439  0.3809  0.6534
 7045TIP3    H142694   2.116   1.860   0.968  0.0835 -0.4669 -2.0342
 7045TIP3    H242695   1.984   1.798   1.009  0.4851 -0.8440 -1.2769
 7046TIP3   OH242696   2.112   0.280   0.256  0.1805 -0.0105 -0.4334
 7046TIP3    H142697   2.121   0.276   0.351  0.7450 -0.3645 -0.4949
 7046TIP3    H242698   2.027   0.239   0.238  0.5645 -0.9397 -0.1586
 7047TIP3   OH242699   1.988   1.844   1.739 -0.0209 -0.1147 -0.4110
 7047TIP3    H142700   1.994   1.940   1.743 -0.4810 -0.0771 -0.5737
 7047TIP3    H242701   1.932   1.827   1.663 -0.2821 -0.5060 -0.1321
 7048TIP3   OH242702   5.171   5.140   8.243 -0.3658  0.2997  0.4991
 7048TIP3    H142703   5.123   5.124   8.161  0.0366 -0.5493  0.4166
 7048TIP3    H242704   5.116   5.103   8.311 -0.3412  0.3112  0.5252
 7049TIP3   OH242705   5.182   4.817   1.195  0.1947  0.2357 -0.1452
 7049TIP3    H142706   5.192   4.734   1.240 -0.0828 -0.1968 -0.8587
 7049TIP3    H242707   5.094   4.847   1.219 -0.3692 -0.5117 -1.2153
 7050TIP3   OH242708   3.623   1.044   8.453 -0.0402 -0.0339  0.2326
 7050TIP3    H142709   3.712   1.069   8.428  0.2414  0.2306  1.4488
 7050TIP3    H242710   3.567   1.091   8.391  0.6246  0.7760  0.2189
 7051TIP3   OH242711   1.629   6.246   1.964  0.4630  0.2228 -0.7478
 7051TIP3    H142712   1.671   6.166   1.997  1.5120  0.1064 -2.2765
 7051TIP3    H242713   1.650   6.313   2.029 -1.7519 -1.0150  1.3893
 7052TIP3   OH242714   0.037   6.749   7.856 -0.5320 -0.3303  0.7908
 7052TIP3    H142715   0.028   6.655   7.847  0.9348 -0.4453  0.1461
 7052TIP3    H242716   0.072   6.762   7.945  1.5741 -0.6367  0.0718
 7053TIP3   OH242717   5.134   5.441   8.535 -0.1984 -0.1407  0.0835
 7053TIP3    H142718   5.166   5.505   8.598 -1.5693  1.9060 -1.1600
 7053TIP3    H242719   5.143   5.484   8.450 -2.5322 -0.9444 -0.6705
 7054TIP3   OH242720   3.165   3.563   2.106 -0.4446  0.4478 -0.1333
 7054TIP3    H142721   3.151   3.618   2.183 -1.1240 -0.1041  0.1506
 7054TIP3    H242722   3.114   3.605   2.037 -0.5833  0.4297 -0.0413
 7055TIP3   OH242723   0.512   2.619   0.884 -0.5121  0.0361 -0.0847
 7055TIP3    H142724   0.594   2.602   0.839  0.6225 -0.3995  2.0101
 7055TIP3    H242725   0.513   2.714   0.901 -1.0702  0.2478 -1.1517
 7056TIP3   OH242726   5.916   0.419   2.034  0.1144 -0.0078  0.1249
 7056TIP3    H142727   5.838   0.380   2.071 -0.5273 -0.3207 -1.4828
 7056TIP3    H242728   5.989   0.369   2.072 -0.6246 -1.9226 -0.8832
 7057LIG     O142729   1.157   2.202   0.513 -0.4829 -0.3930 -0.2415
 7057LIG     O242730   1.365   2.081   0.534 -0.0274  0.0883  0.6157
 7057LIG     O342731   1.500   2.031   0.724  0.9421 -0.1332 -0.4051
 7057LIG     O442732   1.035   1.930   0.538  0.1006  0.8344  0.0712
 7057LIG     O542733   1.055   1.965   0.264 -0.2900 -0.6331  0.1078
 7057LIG     O642734   1.523   1.887   0.378  0.1261  0.0869  0.5067
 7057LIG     O742735   1.590   2.176   0.420  0.5361 -0.1575 -0.4794
 7057LIG     O842736   1.791   2.233   0.628  0.0157 -0.2591  0.6286
 7057LIG     O942737   1.070   2.089   0.774 -0.1553  0.0343  0.0947
 7057LIG    O1042738   1.238   2.320   0.254  0.5259  0.4796  0.7389
 7057LIG    O1142739   1.726   2.085   0.928  0.4961  0.1900  0.0957
 7057LIG     C142740   1.225   2.081   0.567 -0.3373  1.0329 -0.1370
 7057LIG     C242741   1.164   1.970   0.484 -0.3645 -0.4613  0.0580
 7057LIG     C342742   1.149   2.036   0.344 -0.8077  0.2351 -0.3213
 7057LIG     C442743   1.094   2.171   0.385 -0.8763 -0.4790  0.0590
 7057LIG     C542744   1.452   1.989   0.599  0.5809 -0.1506 -0.2644
 7057LIG     C642745   1.568   1.947   0.504  0.5663 -0.0143  0.7866
 7057LIG     C742746   1.657   2.068   0.490 -0.0270  0.5377  0.1617
 7057LIG     C842747   1.705   2.115   0.630 -0.0292  0.2013 -0.3798
 7057LIG     C942748   1.588   2.150   0.724 -1.0710 -0.0124  0.5063
 7057LIG    C1042749   1.202   2.081   0.719 -0.8214 -0.3240 -0.0974
 7057LIG    C1142750   1.105   2.273   0.268 -0.4655  0.7970 -0.1523
 7057LIG    C1242751   1.648   2.181   0.868  0.1518 -0.6971 -0.1544
 7057LIG     H142752   1.228   1.881   0.472 -0.0732 -0.2126 -0.2371
 7057LIG     H242753   1.248   2.047   0.296 -0.8672 -1.0571 -0.7829
 7057LIG     H342754   0.986   2.172   0.403 -1.1358 -1.2455 -1.3128
 7057LIG     H442755   1.389   1.899   0.615 -0.3684  0.3841 -0.8467
 7057LIG     H542756   1.632   1.873   0.557 -0.9386 -2.5073 -0.6870
 7057LIG     H642757   1.748   2.033   0.436  0.2052  0.0736  0.8410
 7057LIG     H742758   1.762   2.031   0.677 -1.3846 -0.2852  0.4360
 7057LIG     H842759   1.538   2.245   0.695  0.1489  0.5224  0.0616
 7057LIG     H942760   1.248   1.989   0.763  0.7030  0.4502 -0.0109
 7057LIG    H1042761   1.249   2.175   0.754 -1.9323  0.4655 -0.6974
 7057LIG    H1142762   1.070   2.232   0.171 -1.7219  2.4231 -0.4231
 7057LIG    H1242763   1.027   2.348   0.292  0.9572  1.2986  3.5139
 7057LIG    H1342764   1.709   2.273   0.856  1.5438 -1.5404  0.2437
 7057LIG    H1442765   1.556   2.206   0.925  1.1125  2.0166  0.3579
 7057LIG    H1542766   1.016   1.993   0.607  0.5785  0.3310  0.6676
 7057LIG    H1642767   1.077   1.872   0.273 -0.2143 -0.4336  2.7786
 7057LIG    H1742768   1.490   1.798   0.391 -2.9434  0.6882 -1.9701
 7057LIG    H1842769   1.512   2.194   0.473  1.0539  0.3813  0.1309
 7057LIG    H1942770   1.840   2.225   0.710  0.4879 -1.7542  0.2398
 7057LIG    H2042771   1.077   2.143   0.853 -2.8337  0.3591  0.1845
 7057LIG    H2142772   1.245   2.315   0.159 -2.2812  0.0371  0.4847
 7057LIG    H2242773   1.777   2.131   0.995 -0.2955  0.3442  0.6032
   6.81687   6.81687   8.80043
